Built with Packmol
21954
    1LIG      O    1   2.227   2.220   0.053
    1LIG      C    2   2.292   2.270   0.173
    1LIG     C1    3   2.221   2.217   0.301
    1LIG     O1    4   2.285   2.267   0.423
    1LIG     C2    5   2.220   2.218   0.544
    1LIG     C3    6   2.291   2.273   0.670
    1LIG     O2    7   2.227   2.225   0.791
    1LIG     C4    8   2.290   2.275   0.912
    1LIG     C5    9   2.218   2.221   1.038
    1LIG     O3   10   2.281   2.270   1.160
    1LIG     C6   11   2.216   2.221   1.280
    1LIG     C7   12   2.288   2.277   1.406
    1LIG     O4   13   2.224   2.229   1.528
    1LIG     C8   14   2.288   2.279   1.649
    1LIG     C9   15   2.215   2.223   1.774
    1LIG     O5   16   2.279   2.273   1.895
    1LIG    C10   17   2.215   2.224   2.016
    1LIG    C11   18   2.287   2.280   2.142
    1LIG     O6   19   2.223   2.231   2.263
    1LIG    C12   20   2.286   2.280   2.384
    1LIG    C13   21   2.213   2.225   2.509
    1LIG     O7   22   2.277   2.274   2.631
    1LIG    C14   23   2.213   2.225   2.752
    1LIG    C15   24   2.285   2.280   2.878
    1LIG     O8   25   2.221   2.232   3.000
    1LIG    C16   26   2.285   2.281   3.121
    1LIG    C17   27   2.214   2.226   3.247
    1LIG     O9   28   2.277   2.275   3.369
    1LIG    C18   29   2.212   2.226   3.489
    1LIG    C19   30   2.284   2.281   3.614
    1LIG    O10   31   2.221   2.232   3.736
    1LIG    C20   32   2.285   2.282   3.857
    1LIG    C21   33   2.212   2.226   3.982
    1LIG    O11   34   2.276   2.275   4.103
    1LIG    C22   35   2.212   2.226   4.224
    1LIG    C23   36   2.284   2.282   4.350
    1LIG    O12   37   2.220   2.233   4.471
    1LIG    C24   38   2.284   2.282   4.593
    1LIG    C25   39   2.212   2.227   4.719
    1LIG    O13   40   2.275   2.276   4.841
    1LIG    C26   41   2.211   2.227   4.961
    1LIG    C27   42   2.283   2.282   5.086
    1LIG    O14   43   2.219   2.233   5.208
    1LIG    C28   44   2.284   2.282   5.329
    1LIG    C29   45   2.212   2.226   5.455
    1LIG    O15   46   2.276   2.276   5.577
    1LIG    C30   47   2.212   2.226   5.697
    1LIG    C31   48   2.284   2.281   5.822
    1LIG    O16   49   2.220   2.232   5.943
    1LIG    C32   50   2.284   2.281   6.065
    1LIG    C33   51   2.212   2.226   6.191
    1LIG    O17   52   2.276   2.275   6.312
    1LIG    C34   53   2.212   2.225   6.433
    1LIG    C35   54   2.284   2.280   6.559
    1LIG    O18   55   2.220   2.231   6.680
    1LIG    C36   56   2.284   2.281   6.801
    1LIG    C37   57   2.213   2.225   6.927
    1LIG    O19   58   2.277   2.274   7.049
    1LIG    C38   59   2.213   2.224   7.169
    1LIG    C39   60   2.284   2.279   7.295
    1LIG    O20   61   2.221   2.230   7.417
    1LIG    C40   62   2.285   2.279   7.538
    1LIG    C41   63   2.214   2.224   7.664
    1LIG    O21   64   2.277   2.273   7.786
    1LIG    C42   65   2.213   2.223   7.906
    1LIG    C43   66   2.285   2.278   8.031
    1LIG    O22   67   2.222   2.229   8.153
    1LIG    C44   68   2.286   2.278   8.274
    1LIG    C45   69   2.214   2.222   8.399
    1LIG    O23   70   2.278   2.271   8.521
    1LIG    C46   71   2.214   2.222   8.642
    1LIG    C47   72   2.287   2.278   8.767
    1LIG    O24   73   2.223   2.228   8.888
    1LIG    C48   74   2.286   2.277   9.010
    1LIG    C49   75   2.214   2.221   9.135
    1LIG    O25   76   2.278   2.270   9.256
    1LIG    C50   77   2.215   2.221   9.378
    1LIG    C51   78   2.287   2.277   9.503
    1LIG    O26   79   2.224   2.227   9.624
    1LIG    C52   80   2.287   2.276   9.746
    1LIG    C53   81   2.215   2.220   9.871
    1LIG    O27   82   2.279   2.269   9.991
    1LIG    C54   83   2.216   2.219  10.113
    1LIG    C55   84   2.288   2.275  10.240
    1LIG    O28   85   2.224   2.225  10.361
    1LIG    C56   86   2.288   2.274  10.482
    1LIG    C57   87   2.217   2.218  10.609
    1LIG    O29   88   2.281   2.267  10.731
    1LIG    C58   89   2.217   2.217  10.852
    1LIG    C59   90   2.288   2.272  10.978
    1LIG      H   91   2.289   2.380   0.171
    1LIG     H1   92   2.397   2.239   0.172
    1LIG     H2   93   2.224   2.108   0.301
    1LIG     H3   94   2.116   2.248   0.300
    1LIG     H4   95   2.223   2.108   0.546
    1LIG     H5   96   2.115   2.249   0.545
    1LIG     H6   97   2.289   2.383   0.668
    1LIG     H7   98   2.397   2.242   0.669
    1LIG     H8   99   2.288   2.384   0.913
    1LIG     H9  100   2.395   2.244   0.914
    1LIG    H10  101   2.221   2.111   1.037
    1LIG    H11  102   2.113   2.251   1.036
    1LIG    H12  103   2.219   2.112   1.282
    1LIG    H13  104   2.111   2.252   1.281
    1LIG    H14  105   2.285   2.387   1.404
    1LIG    H15  106   2.393   2.247   1.405
    1LIG    H16  107   2.285   2.388   1.650
    1LIG    H17  108   2.393   2.248   1.651
    1LIG    H18  109   2.218   2.114   1.772
    1LIG    H19  110   2.110   2.255   1.772
    1LIG    H20  111   2.217   2.115   2.018
    1LIG    H21  112   2.109   2.255   2.018
    1LIG    H22  113   2.284   2.389   2.140
    1LIG    H23  114   2.392   2.249   2.140
    1LIG    H24  115   2.283   2.390   2.386
    1LIG    H25  116   2.391   2.249   2.386
    1LIG    H26  117   2.216   2.115   2.508
    1LIG    H27  118   2.108   2.256   2.508
    1LIG    H28  119   2.216   2.115   2.754
    1LIG    H29  120   2.108   2.256   2.753
    1LIG    H30  121   2.282   2.390   2.877
    1LIG    H31  122   2.390   2.249   2.877
    1LIG    H32  123   2.282   2.391   3.122
    1LIG    H33  124   2.390   2.250   3.122
    1LIG    H34  125   2.216   2.117   3.245
    1LIG    H35  126   2.108   2.257   3.245
    1LIG    H36  127   2.215   2.116   3.490
    1LIG    H37  128   2.107   2.257   3.490
    1LIG    H38  129   2.281   2.391   3.613
    1LIG    H39  130   2.389   2.250   3.613
    1LIG    H40  131   2.282   2.391   3.858
    1LIG    H41  132   2.390   2.251   3.858
    1LIG    H42  133   2.215   2.117   3.981
    1LIG    H43  134   2.107   2.257   3.980
    1LIG    H44  135   2.215   2.117   4.226
    1LIG    H45  136   2.107   2.257   4.226
    1LIG    H46  137   2.281   2.392   4.348
    1LIG    H47  138   2.390   2.251   4.349
    1LIG    H48  139   2.281   2.392   4.594
    1LIG    H49  140   2.389   2.251   4.594
    1LIG    H50  141   2.215   2.117   4.718
    1LIG    H51  142   2.107   2.258   4.717
    1LIG    H52  143   2.214   2.117   4.963
    1LIG    H53  144   2.106   2.258   4.963
    1LIG    H54  145   2.280   2.392   5.085
    1LIG    H55  146   2.388   2.251   5.085
    1LIG    H56  147   2.281   2.391   5.331
    1LIG    H57  148   2.389   2.251   5.330
    1LIG    H58  149   2.215   2.117   5.453
    1LIG    H59  150   2.107   2.257   5.454
    1LIG    H60  151   2.215   2.116   5.699
    1LIG    H61  152   2.107   2.257   5.699
    1LIG    H62  153   2.281   2.391   5.821
    1LIG    H63  154   2.389   2.251   5.821
    1LIG    H64  155   2.281   2.391   6.066
    1LIG    H65  156   2.389   2.250   6.066
    1LIG    H66  157   2.215   2.116   6.189
    1LIG    H67  158   2.107   2.257   6.189
    1LIG    H68  159   2.215   2.116   6.434
    1LIG    H69  160   2.107   2.256   6.434
    1LIG    H70  161   2.281   2.390   6.558
    1LIG    H71  162   2.389   2.250   6.557
    1LIG    H72  163   2.281   2.390   6.802
    1LIG    H73  164   2.390   2.250   6.802
    1LIG    H74  165   2.216   2.116   6.926
    1LIG    H75  166   2.108   2.256   6.926
    1LIG    H76  167   2.216   2.115   7.170
    1LIG    H77  168   2.108   2.255   7.171
    1LIG    H78  169   2.281   2.389   7.294
    1LIG    H79  170   2.390   2.248   7.294
    1LIG    H80  171   2.282   2.389   7.539
    1LIG    H81  172   2.390   2.249   7.539
    1LIG    H82  173   2.217   2.114   7.662
    1LIG    H83  174   2.108   2.254   7.663
    1LIG    H84  175   2.217   2.113   7.907
    1LIG    H85  176   2.108   2.254   7.907
    1LIG    H86  177   2.282   2.388   8.030
    1LIG    H87  178   2.391   2.248   8.029
    1LIG    H88  179   2.283   2.388   8.276
    1LIG    H89  180   2.391   2.248   8.275
    1LIG    H90  181   2.217   2.113   8.398
    1LIG    H91  182   2.109   2.253   8.398
    1LIG    H92  183   2.218   2.112   8.644
    1LIG    H93  184   2.109   2.252   8.644
    1LIG    H94  185   2.283   2.387   8.766
    1LIG    H95  186   2.392   2.247   8.766
    1LIG    H96  187   2.283   2.386   9.012
    1LIG    H97  188   2.391   2.246   9.011
    1LIG    H98  189   2.218   2.111   9.133
    1LIG    H99  190   2.109   2.251   9.134
    1LIG   H100  191   2.218   2.111   9.379
    1LIG   H101  192   2.110   2.251   9.380
    1LIG   H102  193   2.284   2.386   9.502
    1LIG   H103  194   2.392   2.246   9.501
    1LIG   H104  195   2.284   2.385   9.747
    1LIG   H105  196   2.392   2.245   9.747
    1LIG   H106  197   2.219   2.110   9.869
    1LIG   H107  198   2.110   2.250   9.870
    1LIG   H108  199   2.220   2.110  10.114
    1LIG   H109  200   2.111   2.250  10.115
    1LIG   H110  201   2.284   2.384  10.239
    1LIG   H111  202   2.393   2.244  10.238
    1LIG   H112  203   2.285   2.384  10.484
    1LIG   H113  204   2.394   2.244  10.483
    1LIG   H114  205   2.221   2.109  10.607
    1LIG   H115  206   2.112   2.249  10.608
    1LIG   H116  207   2.221   2.108  10.852
    1LIG   H117  208   2.112   2.249  10.853
    1LIG   H118  209   2.393   2.242  10.978
    1LIG   H119  210   2.241   2.235  11.073
    1MOL     C1  211   1.697   2.247   5.062
    1MOL     H1  212   1.608   2.307   5.041
    1MOL     O1  213   1.723   2.174   4.944
    1MOL     C2  214   1.844   2.095   4.950
    1MOL     H2  215   1.929   2.159   4.975
    1MOL     C3  216   1.868   2.039   4.809
    1MOL     H3  217   1.772   2.036   4.756
    1MOL     H4  218   1.908   1.937   4.814
    1MOL     O2  219   1.957   2.121   4.734
    1MOL     H5  220   2.045   2.077   4.735
    1MOL     C4  221   1.675   2.151   5.180
    1MOL     H6  222   1.586   2.091   5.159
    1MOL     O3  223   1.650   2.219   5.302
    1MOL     H7  224   1.704   2.301   5.303
    1MOL     C5  225   1.796   2.059   5.193
    1MOL     H8  226   1.883   2.120   5.222
    1MOL     O4  227   1.774   1.958   5.292
    1MOL     H9  228   1.739   2.004   5.370
    1MOL     C6  229   1.830   1.990   5.062
    1MOL    H10  230   1.753   1.916   5.037
    1MOL     O5  231   1.956   1.925   5.084
    1MOL     C7  232   1.976   1.792   5.044
    1MOL    H11  233   1.881   1.743   5.019
    1MOL     O6  234   2.055   1.783   4.927
    1MOL     C8  235   2.184   1.848   4.938
    1MOL    H12  236   2.170   1.953   4.966
    1MOL     C9  237   2.247   1.843   4.801
    1MOL    H13  238   2.231   1.744   4.757
    1MOL    H14  239   2.355   1.862   4.809
    1MOL     O7  240   2.185   1.944   4.720
    1MOL    H15  241   2.208   1.929   4.628
    1MOL    C10  242   2.047   1.721   5.161
    1MOL    H16  243   2.057   1.615   5.135
    1MOL     O8  244   1.973   1.727   5.282
    1MOL    H17  245   1.927   1.813   5.287
    1MOL    C11  246   2.186   1.781   5.179
    1MOL    H18  247   2.175   1.885   5.210
    1MOL     O9  248   2.259   1.708   5.278
    1MOL    H19  249   2.198   1.698   5.353
    1MOL    C12  250   2.267   1.780   5.049
    1MOL    H20  251   2.291   1.676   5.021
    1MOL    O10  252   2.387   1.853   5.073
    1MOL    C13  253   2.514   1.793   5.054
    1MOL    H21  254   2.502   1.686   5.034
    1MOL    O11  255   2.580   1.847   4.942
    1MOL    C14  256   2.606   1.988   4.947
    1MOL    H22  257   2.510   2.043   4.946
    1MOL    C15  258   2.683   2.025   4.821
    1MOL    H23  259   2.687   2.135   4.815
    1MOL    H24  260   2.627   1.987   4.734
    1MOL    O12  261   2.813   1.969   4.828
    1MOL    H25  262   2.867   2.011   4.760
    1MOL    C16  263   2.596   1.817   5.181
    1MOL    H26  264   2.694   1.770   5.166
    1MOL    O13  265   2.541   1.759   5.298
    1MOL    H27  266   2.443   1.762   5.293
    1MOL    C17  267   2.616   1.967   5.199
    1MOL    H28  268   2.518   2.014   5.213
    1MOL    O14  269   2.699   1.994   5.312
    1MOL    H29  270   2.666   1.937   5.383
    1MOL    C18  271   2.682   2.028   5.076
    1MOL    H30  272   2.786   1.994   5.069
    1MOL    O15  273   2.676   2.170   5.092
    1MOL    C19  274   2.792   2.249   5.076
    1MOL    H31  275   2.881   2.186   5.062
    1MOL    O16  276   2.784   2.330   4.960
    1MOL    C20  277   2.669   2.417   4.956
    1MOL    H32  278   2.578   2.356   4.954
    1MOL    C21  279   2.676   2.496   4.826
    1MOL    H33  280   2.579   2.545   4.811
    1MOL    H34  281   2.693   2.425   4.744
    1MOL    O17  282   2.782   2.591   4.835
    1MOL    H35  283   2.774   2.650   4.758
    1MOL    C22  284   2.804   2.337   5.201
    1MOL    H36  285   2.893   2.400   5.191
    1MOL    O18  286   2.819   2.263   5.321
    1MOL    H37  287   2.762   2.184   5.318
    1MOL    C23  288   2.681   2.428   5.209
    1MOL    H38  289   2.592   2.365   5.223
    1MOL    O19  290   2.692   2.520   5.317
    1MOL    H39  291   2.721   2.468   5.393
    1MOL    C24  292   2.662   2.508   5.081
    1MOL    H40  293   2.739   2.585   5.074
    1MOL    O20  294   2.532   2.567   5.090
    1MOL    C25  295   2.511   2.700   5.049
    1MOL    H41  296   2.605   2.748   5.022
    1MOL    O21  297   2.429   2.706   4.934
    1MOL    C26  298   2.300   2.641   4.949
    1MOL    H42  299   2.318   2.537   4.978
    1MOL    C27  300   2.229   2.643   4.813
    1MOL    H43  301   2.172   2.551   4.800
    1MOL    H44  302   2.308   2.644   4.736
    1MOL    O22  303   2.146   2.757   4.792
    1MOL    H45  304   2.055   2.726   4.810
    1MOL    C28  305   2.443   2.772   5.168
    1MOL    H46  306   2.431   2.878   5.142
    1MOL    O23  307   2.520   2.768   5.286
    1MOL    H47  308   2.558   2.678   5.296
    1MOL    C29  309   2.304   2.711   5.190
    1MOL    H48  310   2.317   2.607   5.223
    1MOL    O24  311   2.232   2.785   5.290
    1MOL    H49  312   2.295   2.798   5.363
    1MOL    C30  313   2.223   2.712   5.062
    1MOL    H50  314   2.201   2.815   5.031
    1MOL    O25  315   2.101   2.643   5.091
    1MOL    C31  316   1.978   2.702   5.057
    1MOL    H51  317   1.991   2.808   5.032
    1MOL    O26  318   1.921   2.642   4.941
    1MOL    C32  319   1.900   2.499   4.951
    1MOL    H52  320   1.996   2.450   4.972
    1MOL    C33  321   1.850   2.451   4.814
    1MOL    H53  322   1.796   2.534   4.768
    1MOL    H54  323   1.781   2.368   4.828
    1MOL    O27  324   1.957   2.414   4.729
    1MOL    H55  325   1.962   2.316   4.730
    1MOL    C34  326   1.884   2.684   5.177
    1MOL    H56  327   1.789   2.735   5.154
    1MOL    O28  328   1.934   2.743   5.295
    1MOL    H57  329   2.032   2.735   5.296
    1MOL    C35  330   1.857   2.535   5.197
    1MOL    H58  331   1.952   2.487   5.224
    1MOL    O29  332   1.761   2.514   5.300
    1MOL    H59  333   1.788   2.571   5.374
    1MOL    C36  334   1.806   2.469   5.070
    1MOL    H60  335   1.703   2.504   5.048
    1MOL    O30  336   1.806   2.329   5.098
    1MOL     C1  337   2.803   2.247   6.038
    1MOL     H1  338   2.892   2.307   6.059
    1MOL     O1  339   2.777   2.174   6.156
    1MOL     C2  340   2.656   2.095   6.150
    1MOL     H2  341   2.571   2.159   6.125
    1MOL     C3  342   2.632   2.039   6.291
    1MOL     H3  343   2.728   2.036   6.344
    1MOL     H4  344   2.592   1.937   6.286
    1MOL     O2  345   2.543   2.121   6.366
    1MOL     H5  346   2.456   2.077   6.365
    1MOL     C4  347   2.825   2.151   5.920
    1MOL     H6  348   2.914   2.091   5.941
    1MOL     O3  349   2.850   2.219   5.798
    1MOL     H7  350   2.796   2.301   5.797
    1MOL     C5  351   2.704   2.059   5.907
    1MOL     H8  352   2.617   2.120   5.878
    1MOL     O4  353   2.726   1.958   5.808
    1MOL     H9  354   2.761   2.004   5.730
    1MOL     C6  355   2.670   1.990   6.038
    1MOL    H10  356   2.747   1.916   6.063
    1MOL     O5  357   2.544   1.925   6.016
    1MOL     C7  358   2.524   1.792   6.056
    1MOL    H11  359   2.619   1.743   6.081
    1MOL     O6  360   2.445   1.783   6.173
    1MOL     C8  361   2.316   1.848   6.162
    1MOL    H12  362   2.330   1.953   6.134
    1MOL     C9  363   2.253   1.843   6.299
    1MOL    H13  364   2.269   1.744   6.343
    1MOL    H14  365   2.145   1.862   6.291
    1MOL     O7  366   2.315   1.944   6.380
    1MOL    H15  367   2.292   1.929   6.473
    1MOL    C10  368   2.454   1.721   5.939
    1MOL    H16  369   2.443   1.615   5.965
    1MOL     O8  370   2.527   1.727   5.819
    1MOL    H17  371   2.573   1.813   5.813
    1MOL    C11  372   2.314   1.781   5.921
    1MOL    H18  373   2.325   1.885   5.890
    1MOL     O9  374   2.241   1.708   5.822
    1MOL    H19  375   2.302   1.698   5.747
    1MOL    C12  376   2.233   1.780   6.051
    1MOL    H20  377   2.210   1.676   6.079
    1MOL    O10  378   2.114   1.853   6.027
    1MOL    C13  379   1.986   1.793   6.046
    1MOL    H21  380   1.998   1.686   6.067
    1MOL    O11  381   1.920   1.847   6.158
    1MOL    C14  382   1.894   1.988   6.153
    1MOL    H22  383   1.990   2.043   6.154
    1MOL    C15  384   1.817   2.025   6.279
    1MOL    H23  385   1.813   2.135   6.285
    1MOL    H24  386   1.873   1.987   6.366
    1MOL    O12  387   1.687   1.969   6.272
    1MOL    H25  388   1.633   2.011   6.340
    1MOL    C16  389   1.904   1.817   5.919
    1MOL    H26  390   1.806   1.770   5.934
    1MOL    O13  391   1.959   1.759   5.803
    1MOL    H27  392   2.057   1.762   5.807
    1MOL    C17  393   1.884   1.967   5.901
    1MOL    H28  394   1.982   2.014   5.887
    1MOL    O14  395   1.801   1.994   5.788
    1MOL    H29  396   1.834   1.937   5.717
    1MOL    C18  397   1.818   2.028   6.024
    1MOL    H30  398   1.714   1.994   6.031
    1MOL    O15  399   1.824   2.170   6.009
    1MOL    C19  400   1.708   2.249   6.024
    1MOL    H31  401   1.619   2.186   6.038
    1MOL    O16  402   1.716   2.330   6.140
    1MOL    C20  403   1.831   2.417   6.144
    1MOL    H32  404   1.922   2.356   6.146
    1MOL    C21  405   1.824   2.496   6.274
    1MOL    H33  406   1.921   2.545   6.289
    1MOL    H34  407   1.807   2.425   6.356
    1MOL    O17  408   1.718   2.591   6.266
    1MOL    H35  409   1.726   2.650   6.342
    1MOL    C22  410   1.696   2.337   5.899
    1MOL    H36  411   1.607   2.400   5.909
    1MOL    O18  412   1.681   2.263   5.779
    1MOL    H37  413   1.738   2.184   5.782
    1MOL    C23  414   1.819   2.428   5.891
    1MOL    H38  415   1.908   2.365   5.877
    1MOL    O19  416   1.808   2.520   5.783
    1MOL    H39  417   1.779   2.468   5.707
    1MOL    C24  418   1.838   2.508   6.020
    1MOL    H40  419   1.761   2.585   6.026
    1MOL    O20  420   1.968   2.567   6.010
    1MOL    C25  421   1.990   2.700   6.051
    1MOL    H41  422   1.895   2.748   6.078
    1MOL    O21  423   2.071   2.706   6.166
    1MOL    C26  424   2.200   2.641   6.151
    1MOL    H42  425   2.182   2.537   6.122
    1MOL    C27  426   2.271   2.643   6.287
    1MOL    H43  427   2.328   2.551   6.300
    1MOL    H44  428   2.193   2.644   6.364
    1MOL    O22  429   2.354   2.757   6.308
    1MOL    H45  430   2.445   2.726   6.290
    1MOL    C28  431   2.057   2.772   5.933
    1MOL    H46  432   2.069   2.878   5.958
    1MOL    O23  433   1.980   2.768   5.814
    1MOL    H47  434   1.942   2.678   5.804
    1MOL    C29  435   2.196   2.711   5.910
    1MOL    H48  436   2.184   2.607   5.877
    1MOL    O24  437   2.268   2.785   5.811
    1MOL    H49  438   2.205   2.798   5.737
    1MOL    C30  439   2.277   2.712   6.038
    1MOL    H50  440   2.299   2.815   6.069
    1MOL    O25  441   2.399   2.643   6.009
    1MOL    C31  442   2.522   2.702   6.043
    1MOL    H51  443   2.509   2.808   6.068
    1MOL    O26  444   2.579   2.642   6.159
    1MOL    C32  445   2.600   2.499   6.149
    1MOL    H52  446   2.504   2.450   6.128
    1MOL    C33  447   2.650   2.451   6.286
    1MOL    H53  448   2.705   2.534   6.332
    1MOL    H54  449   2.720   2.368   6.272
    1MOL    O27  450   2.543   2.414   6.371
    1MOL    H55  451   2.538   2.316   6.371
    1MOL    C34  452   2.616   2.684   5.923
    1MOL    H56  453   2.711   2.735   5.946
    1MOL    O28  454   2.566   2.743   5.805
    1MOL    H57  455   2.468   2.735   5.804
    1MOL    C35  456   2.644   2.535   5.903
    1MOL    H58  457   2.549   2.487   5.876
    1MOL    O29  458   2.740   2.514   5.800
    1MOL    H59  459   2.712   2.571   5.726
    1MOL    C36  460   2.694   2.469   6.031
    1MOL    H60  461   2.797   2.504   6.052
    1MOL    O30  462   2.695   2.329   6.002
    2SOL     OW  463   0.230   0.628   0.113
    2SOL    HW1  464   0.137   0.626   0.150
    2SOL    HW2  465   0.231   0.589   0.021
    3SOL     OW  466   0.225   0.275   0.996
    3SOL    HW1  467   0.260   0.258   1.088
    3SOL    HW2  468   0.137   0.230   0.984
    4SOL     OW  469   0.019   0.368   0.647
    4SOL    HW1  470  -0.063   0.411   0.686
    4SOL    HW2  471  -0.009   0.295   0.584
    5SOL     OW  472   0.569   1.275   1.165
    5SOL    HW1  473   0.476   1.268   1.128
    5SOL    HW2  474   0.580   1.364   1.209
    6SOL     OW  475   1.555   1.511   0.703
    6SOL    HW1  476   1.498   1.495   0.784
    6SOL    HW2  477   1.496   1.521   0.623
    7SOL     OW  478   1.135   0.703   0.717
    7SOL    HW1  479   1.192   0.781   0.692
    7SOL    HW2  480   1.075   0.729   0.793
    8SOL     OW  481   1.755   0.607   0.231
    8SOL    HW1  482   1.743   0.594   0.132
    8SOL    HW2  483   1.725   0.526   0.280
    9SOL     OW  484   0.768   1.144   1.023
    9SOL    HW1  485   0.690   1.161   1.083
    9SOL    HW2  486   0.802   1.231   0.987
   10SOL     OW  487   0.850   0.798   1.823
   10SOL    HW1  488   0.846   0.874   1.888
   10SOL    HW2  489   0.872   0.834   1.732
   11SOL     OW  490   0.685   1.012   0.665
   11SOL    HW1  491   0.754   0.996   0.735
   11SOL    HW2  492   0.612   1.069   0.703
   12SOL     OW  493   0.686   1.161   1.803
   12SOL    HW1  494   0.746   1.240   1.817
   12SOL    HW2  495   0.600   1.192   1.762
   13SOL     OW  496   0.335   1.435   1.061
   13SOL    HW1  497   0.257   1.404   1.008
   13SOL    HW2  498   0.393   1.493   1.004
   14SOL     OW  499   1.460   1.505   1.339
   14SOL    HW1  500   1.484   1.599   1.365
   14SOL    HW2  501   1.444   1.451   1.421
   15SOL     OW  502   0.438   0.392   1.499
   15SOL    HW1  503   0.520   0.336   1.508
   15SOL    HW2  504   0.357   0.334   1.503
   16SOL     OW  505   1.603   0.447   0.737
   16SOL    HW1  506   1.529   0.493   0.687
   16SOL    HW2  507   1.654   0.515   0.790
   17SOL     OW  508   0.231   1.713   0.483
   17SOL    HW1  509   0.265   1.790   0.537
   17SOL    HW2  510   0.275   1.713   0.393
   18SOL     OW  511   1.127   1.341   1.690
   18SOL    HW1  512   1.174   1.341   1.778
   18SOL    HW2  513   1.079   1.254   1.679
   19SOL     OW  514   0.230   1.434   0.538
   19SOL    HW1  515   0.204   1.530   0.538
   19SOL    HW2  516   0.159   1.380   0.583
   20SOL     OW  517   0.240   1.091   0.886
   20SOL    HW1  518   0.254   1.007   0.938
   20SOL    HW2  519   0.185   1.155   0.941
   21SOL     OW  520   0.620   1.786   1.439
   21SOL    HW1  521   0.528   1.769   1.474
   21SOL    HW2  522   0.648   1.878   1.465
   22SOL     OW  523   0.606   0.964   0.123
   22SOL    HW1  524   0.613   1.048   0.069
   22SOL    HW2  525   0.652   0.977   0.211
   23SOL     OW  526   1.594   0.114   1.480
   23SOL    HW1  527   1.576   0.181   1.408
   23SOL    HW2  528   1.591   0.160   1.569
   24SOL     OW  529   0.122   0.643   0.563
   24SOL    HW1  530   0.077   0.555   0.580
   24SOL    HW2  531   0.121   0.697   0.647
   25SOL     OW  532   1.842   1.767   0.359
   25SOL    HW1  533   1.896   1.738   0.439
   25SOL    HW2  534   1.872   1.857   0.330
   26SOL     OW  535   0.027   1.596   0.117
   26SOL    HW1  536   0.008   1.500   0.138
   26SOL    HW2  537  -0.006   1.654   0.192
   27SOL     OW  538   1.689   0.922   0.612
   27SOL    HW1  539   1.784   0.893   0.620
   27SOL    HW2  540   1.681   0.987   0.537
   28SOL     OW  541   1.641   1.108   0.432
   28SOL    HW1  542   1.727   1.110   0.380
   28SOL    HW2  543   1.655   1.155   0.520
   29SOL     OW  544   0.113   0.737   1.597
   29SOL    HW1  545   0.201   0.724   1.642
   29SOL    HW2  546   0.100   0.834   1.575
   30SOL     OW  547   0.613   1.365   0.726
   30SOL    HW1  548   0.564   1.278   0.735
   30SOL    HW2  549   0.590   1.408   0.639
   31SOL     OW  550   1.293   1.228   1.423
   31SOL    HW1  551   1.330   1.155   1.365
   31SOL    HW2  552   1.345   1.233   1.508
   32SOL     OW  553   0.809   0.004   0.502
   32SOL    HW1  554   0.849   0.095   0.493
   32SOL    HW2  555   0.709   0.012   0.508
   33SOL     OW  556   0.197   0.976   1.264
   33SOL    HW1  557   0.286   0.931   1.250
   33SOL    HW2  558   0.124   0.911   1.245
   34SOL     OW  559   1.525   0.999   0.190
   34SOL    HW1  560   1.462   0.923   0.203
   34SOL    HW2  561   1.573   1.017   0.276
   35SOL     OW  562   1.187   1.792   1.616
   35SOL    HW1  563   1.211   1.852   1.540
   35SOL    HW2  564   1.194   1.697   1.586
   36SOL     OW  565   0.317   0.251   1.801
   36SOL    HW1  566   0.388   0.322   1.807
   36SOL    HW2  567   0.229   0.290   1.829
   37SOL     OW  568   1.466   1.417   0.953
   37SOL    HW1  569   1.407   1.423   1.033
   37SOL    HW2  570   1.451   1.329   0.907
   38SOL     OW  571   1.667   1.714   0.572
   38SOL    HW1  572   1.626   1.691   0.484
   38SOL    HW2  573   1.649   1.640   0.637
   39SOL     OW  574   0.598   0.729   0.270
   39SOL    HW1  575   0.622   0.798   0.202
   39SOL    HW2  576   0.520   0.762   0.324
   40SOL     OW  577   1.281   0.345   0.944
   40SOL    HW1  578   1.195   0.295   0.931
   40SOL    HW2  579   1.343   0.291   1.000
   41SOL     OW  580   1.576   1.662   0.307
   41SOL    HW1  581   1.665   1.708   0.310
   41SOL    HW2  582   1.555   1.638   0.212
   42SOL     OW  583   0.807   0.605   1.465
   42SOL    HW1  584   0.760   0.602   1.554
   42SOL    HW2  585   0.756   0.550   1.399
   43SOL     OW  586   1.394   0.469   1.674
   43SOL    HW1  587   1.374   0.512   1.762
   43SOL    HW2  588   1.472   0.407   1.683
   44SOL     OW  589   0.973   0.890   1.572
   44SOL    HW1  590   1.019   0.806   1.543
   44SOL    HW2  591   0.917   0.924   1.497
   45SOL     OW  592   0.991   0.410   1.242
   45SOL    HW1  593   0.914   0.444   1.296
   45SOL    HW2  594   0.957   0.359   1.163
   46SOL     OW  595   1.041   0.701   0.429
   46SOL    HW1  596   1.067   0.697   0.525
   46SOL    HW2  597   0.956   0.650   0.415
   47SOL     OW  598   0.076   0.811   0.789
   47SOL    HW1  599   0.175   0.799   0.798
   47SOL    HW2  600   0.052   0.906   0.810
   48SOL     OW  601   0.130   1.821   1.571
   48SOL    HW1  602   0.120   1.806   1.670
   48SOL    HW2  603   0.044   1.857   1.535
   49SOL     OW  604   0.865   0.348   0.195
   49SOL    HW1  605   0.924   0.411   0.146
   49SOL    HW2  606   0.884   0.254   0.166
   50SOL     OW  607   1.719   0.585   1.831
   50SOL    HW1  608   1.693   0.674   1.795
   50SOL    HW2  609   1.717   0.517   1.758
   51SOL     OW  610   1.362   1.144   0.545
   51SOL    HW1  611   1.445   1.115   0.497
   51SOL    HW2  612   1.313   1.211   0.489
   52SOL     OW  613   0.550   0.196   0.885
   52SOL    HW1  614   0.545   0.191   0.985
   52SOL    HW2  615   0.552   0.292   0.856
   53SOL     OW  616   1.008   1.456   0.477
   53SOL    HW1  617   0.962   1.528   0.425
   53SOL    HW2  618   1.004   1.476   0.575
   54SOL     OW  619   0.351   1.801   0.853
   54SOL    HW1  620   0.401   1.715   0.859
   54SOL    HW2  621   0.416   1.878   0.850
   55SOL     OW  622   1.795   1.066   0.873
   55SOL    HW1  623   1.733   1.051   0.797
   55SOL    HW2  624   1.743   1.077   0.958
   56SOL     OW  625   1.227   1.550   1.506
   56SOL    HW1  626   1.233   1.473   1.570
   56SOL    HW2  627   1.175   1.524   1.426
   57SOL     OW  628   0.321   0.943   0.242
   57SOL    HW1  629   0.403   0.982   0.200
   57SOL    HW2  630   0.294   0.861   0.193
   58SOL     OW  631   1.458   0.735   0.728
   58SOL    HW1  632   1.453   0.670   0.803
   58SOL    HW2  633   1.538   0.794   0.741
   59SOL     OW  634   0.461   1.266   1.727
   59SOL    HW1  635   0.411   1.267   1.641
   59SOL    HW2  636   0.398   1.248   1.803
   60SOL     OW  637   1.111   1.776   0.237
   60SOL    HW1  638   1.051   1.714   0.287
   60SOL    HW2  639   1.142   1.732   0.152
   61SOL     OW  640   0.202   0.285   1.498
   61SOL    HW1  641   0.122   0.345   1.485
   61SOL    HW2  642   0.192   0.236   1.584
   62SOL     OW  643   1.632   1.377   0.081
   62SOL    HW1  644   1.600   1.471   0.071
   62SOL    HW2  645   1.556   1.314   0.069
   63SOL     OW  646   0.464   1.743   0.323
   63SOL    HW1  647   0.497   1.782   0.409
   63SOL    HW2  648   0.540   1.736   0.258
   64SOL     OW  649   1.400   0.107   0.426
   64SOL    HW1  650   1.376   0.070   0.336
   64SOL    HW2  651   1.499   0.123   0.430
   65SOL     OW  652   0.249   1.785   1.241
   65SOL    HW1  653   0.306   1.720   1.291
   65SOL    HW2  654   0.233   1.752   1.148
   66SOL     OW  655   0.940   1.698   0.904
   66SOL    HW1  656   1.020   1.641   0.925
   66SOL    HW2  657   0.891   1.658   0.827
   67SOL     OW  658   0.382   0.700   0.480
   67SOL    HW1  659   0.427   0.610   0.477
   67SOL    HW2  660   0.288   0.689   0.513
   68SOL     OW  661   1.547   0.222   1.729
   68SOL    HW1  662   1.542   0.259   1.821
   68SOL    HW2  663   1.475   0.153   1.717
   69SOL     OW  664   0.614   0.122   0.117
   69SOL    HW1  665   0.712   0.100   0.124
   69SOL    HW2  666   0.583   0.105   0.024
   70SOL     OW  667   0.781   0.264   1.749
   70SOL    HW1  668   0.848   0.203   1.792
   70SOL    HW2  669   0.708   0.283   1.814
   71SOL     OW  670   0.888   1.514   1.195
   71SOL    HW1  671   0.865   1.489   1.101
   71SOL    HW2  672   0.949   1.445   1.234
   72SOL     OW  673   1.351   0.590   1.433
   72SOL    HW1  674   1.379   0.547   1.518
   72SOL    HW2  675   1.376   0.686   1.434
   73SOL     OW  676   0.803   1.402   0.924
   73SOL    HW1  677   0.893   1.416   0.882
   73SOL    HW2  678   0.732   1.404   0.853
   74SOL     OW  679   0.922   0.503   0.899
   74SOL    HW1  680   0.897   0.494   0.803
   74SOL    HW2  681   0.970   0.421   0.930
   75SOL     OW  682   0.539   0.064   0.512
   75SOL    HW1  683   0.458   0.065   0.570
   75SOL    HW2  684   0.542   0.147   0.457
   76SOL     OW  685   1.434   1.188   0.041
   76SOL    HW1  686   1.466   1.112   0.098
   76SOL    HW2  687   1.342   1.215   0.071
   77SOL     OW  688   0.297   0.035   0.171
   77SOL    HW1  689   0.346   0.119   0.150
   77SOL    HW2  690   0.359  -0.030   0.216
   78SOL     OW  691   0.935   0.236   0.480
   78SOL    HW1  692   0.887   0.277   0.402
   78SOL    HW2  693   1.034   0.234   0.461
   79SOL     OW  694   1.076   0.683   1.464
   79SOL    HW1  695   0.996   0.622   1.467
   79SOL    HW2  696   1.157   0.630   1.440
   80SOL     OW  697   1.227   1.570   0.793
   80SOL    HW1  698   1.248   1.644   0.728
   80SOL    HW2  699   1.295   1.570   0.866
   81SOL     OW  700   0.459   1.152   0.741
   81SOL    HW1  701   0.388   1.125   0.806
   81SOL    HW2  702   0.433   1.124   0.648
   82SOL     OW  703   1.271   1.797   0.591
   82SOL    HW1  704   1.315   1.861   0.527
   82SOL    HW2  705   1.221   1.849   0.661
   83SOL     OW  706   1.032   0.549   0.016
   83SOL    HW1  707   0.991   0.631  -0.023
   83SOL    HW2  708   1.096   0.575   0.089
   84SOL     OW  709   0.078   0.556   1.386
   84SOL    HW1  710   0.170   0.555   1.345
   84SOL    HW2  711   0.072   0.630   1.453
   85SOL     OW  712   0.561   0.222   1.147
   85SOL    HW1  713   0.599   0.138   1.184
   85SOL    HW2  714   0.473   0.241   1.191
   86SOL     OW  715   0.866   0.454   0.642
   86SOL    HW1  716   0.834   0.526   0.580
   86SOL    HW2  717   0.890   0.373   0.589
   87SOL     OW  718   1.017   0.039   0.753
   87SOL    HW1  719   0.945   0.044   0.684
   87SOL    HW2  720   0.993  -0.030   0.822
   88SOL     OW  721   1.429   1.173   0.867
   88SOL    HW1  722   1.374   1.089   0.860
   88SOL    HW2  723   1.455   1.202   0.775
   89SOL     OW  724   1.466   0.590   0.992
   89SOL    HW1  725   1.436   0.495   0.999
   89SOL    HW2  726   1.539   0.606   1.058
   90SOL     OW  727   1.857   0.833   0.377
   90SOL    HW1  728   1.899   0.769   0.441
   90SOL    HW2  729   1.819   0.782   0.299
   91SOL     OW  730   0.488   1.385   0.174
   91SOL    HW1  731   0.401   1.370   0.221
   91SOL    HW2  732   0.471   1.411   0.079
   92SOL     OW  733   1.664   1.280   0.657
   92SOL    HW1  734   1.763   1.288   0.671
   92SOL    HW2  735   1.619   1.364   0.688
   93SOL     OW  736   1.390   0.575   0.078
   93SOL    HW1  737   1.336   0.554   0.159
   93SOL    HW2  738   1.481   0.534   0.087
   94SOL     OW  739   0.527   0.256   0.328
   94SOL    HW1  740   0.554   0.197   0.253
   94SOL    HW2  741   0.527   0.351   0.297
   95SOL     OW  742   1.754   1.223   1.588
   95SOL    HW1  743   1.845   1.184   1.575
   95SOL    HW2  744   1.762   1.319   1.612
   96SOL     OW  745   1.064   1.347   1.340
   96SOL    HW1  746   0.984   1.324   1.395
   96SOL    HW2  747   1.147   1.321   1.389
   97SOL     OW  748   1.592   1.629   1.625
   97SOL    HW1  749   1.619   1.663   1.535
   97SOL    HW2  750   1.671   1.591   1.671
   98SOL     OW  751   1.111   1.195   1.100
   98SOL    HW1  752   1.071   1.239   1.181
   98SOL    HW2  753   1.070   1.232   1.017
   99SOL     OW  754   1.638   1.099   1.079
   99SOL    HW1  755   1.643   1.180   1.138
   99SOL    HW2  756   1.552   1.101   1.028
  100SOL     OW  757   0.915   0.089   1.402
  100SOL    HW1  758   0.940   0.069   1.307
  100SOL    HW2  759   0.987   0.145   1.444
  101SOL     OW  760   0.980   1.116   1.719
  101SOL    HW1  761   0.881   1.122   1.729
  101SOL    HW2  762   1.003   1.036   1.663
  102SOL     OW  763   0.705   1.050   0.368
  102SOL    HW1  764   0.691   1.057   0.467
  102SOL    HW2  765   0.789   0.999   0.350
  103SOL     OW  766   0.410   0.813   1.251
  103SOL    HW1  767   0.496   0.825   1.301
  103SOL    HW2  768   0.368   0.726   1.278
  104SOL     OW  769   1.274   0.386   1.262
  104SOL    HW1  770   1.295   0.460   1.326
  104SOL    HW2  771   1.185   0.403   1.219
  105SOL     OW  772   0.064   1.564   1.331
  105SOL    HW1  773   0.018   1.646   1.297
  105SOL    HW2  774   0.162   1.583   1.340
  106SOL     OW  775   0.367   1.100   0.501
  106SOL    HW1  776   0.360   1.183   0.445
  106SOL    HW2  777   0.371   1.020   0.441
  107SOL     OW  778   0.566   0.537   0.865
  107SOL    HW1  779   0.578   0.603   0.791
  107SOL    HW2  780   0.612   0.571   0.948
  108SOL     OW  781   1.252   1.348   0.388
  108SOL    HW1  782   1.302   1.425   0.428
  108SOL    HW2  783   1.157   1.350   0.420
  109SOL     OW  784   1.272   1.445   1.142
  109SOL    HW1  785   1.319   1.458   1.229
  109SOL    HW2  786   1.206   1.371   1.151
  110SOL     OW  787   1.582   0.639   0.472
  110SOL    HW1  788   1.551   0.700   0.545
  110SOL    HW2  789   1.632   0.691   0.403
  111SOL     OW  790   0.354   1.510   1.329
  111SOL    HW1  791   0.333   1.466   1.242
  111SOL    HW2  792   0.451   1.536   1.332
  112SOL     OW  793   0.402   0.751   1.598
  112SOL    HW1  794   0.470   0.806   1.551
  112SOL    HW2  795   0.442   0.663   1.625
  113SOL     OW  796   1.587   0.779   1.670
  113SOL    HW1  797   1.495   0.817   1.665
  113SOL    HW2  798   1.647   0.826   1.605
  114SOL     OW  799   1.013   0.105   1.770
  114SOL    HW1  800   1.019   0.190   1.718
  114SOL    HW2  801   1.045   0.029   1.713
  115SOL     OW  802   0.504   0.050   1.740
  115SOL    HW1  803   0.462  -0.007   1.670
  115SOL    HW2  804   0.438   0.119   1.772
  116SOL     OW  805   0.573   0.870   1.029
  116SOL    HW1  806   0.617   0.959   1.020
  116SOL    HW2  807   0.510   0.870   1.106
  117SOL     OW  808   1.360   0.862   1.045
  117SOL    HW1  809   1.285   0.862   0.979
  117SOL    HW2  810   1.397   0.770   1.054
  118SOL     OW  811   1.209   0.525   0.275
  118SOL    HW1  812   1.222   0.441   0.329
  118SOL    HW2  813   1.180   0.599   0.335
  119SOL     OW  814   0.307   0.213   1.231
  119SOL    HW1  815   0.284   0.250   1.321
  119SOL    HW2  816   0.277   0.118   1.225
  120SOL     OW  817   0.037   1.310   1.282
  120SOL    HW1  818   0.090   1.261   1.350
  120SOL    HW2  819   0.059   1.408   1.287
  121SOL     OW  820   0.732   0.634   1.064
  121SOL    HW1  821   0.791   0.608   0.988
  121SOL    HW2  822   0.704   0.730   1.053
  122SOL     OW  823   1.728   0.935   1.854
  122SOL    HW1  824   1.682   0.928   1.765
  122SOL    HW2  825   1.666   0.979   1.920
  123SOL     OW  826   0.307   0.063   0.618
  123SOL    HW1  827   0.296   0.157   0.651
  123SOL    HW2  828   0.302   0.000   0.695
  124SOL     OW  829   1.622   0.367   0.374
  124SOL    HW1  830   1.624   0.291   0.438
  124SOL    HW2  831   1.574   0.444   0.414
  125SOL     OW  832   1.023   0.766   0.966
  125SOL    HW1  833   1.038   0.787   1.062
  125SOL    HW2  834   0.993   0.671   0.957
  126SOL     OW  835   0.980   1.573   1.700
  126SOL    HW1  836   0.960   1.617   1.612
  126SOL    HW2  837   1.019   1.482   1.684
  127SOL     OW  838   1.859   1.518   1.605
  127SOL    HW1  839   1.873   1.545   1.510
  127SOL    HW2  840   1.942   1.540   1.658
  128SOL     OW  841   0.350   0.898   1.804
  128SOL    HW1  842   0.426   0.942   1.852
  128SOL    HW2  843   0.385   0.851   1.722
  129SOL     OW  844   1.540   0.274   0.125
  129SOL    HW1  845   1.479   0.199   0.148
  129SOL    HW2  846   1.562   0.326   0.208
  130SOL     OW  847   1.303   0.838   0.042
  130SOL    HW1  848   1.337   0.745   0.057
  130SOL    HW2  849   1.321   0.865  -0.053
  131SOL     OW  850   1.068   1.333   0.849
  131SOL    HW1  851   1.075   1.249   0.794
  131SOL    HW2  852   1.130   1.402   0.813
  132SOL     OW  853   0.319   0.810   0.949
  132SOL    HW1  854   0.412   0.846   0.954
  132SOL    HW2  855   0.313   0.725   1.001
  133SOL     OW  856   0.339   0.509   1.006
  133SOL    HW1  857   0.287   0.426   0.989
  133SOL    HW2  858   0.416   0.514   0.942
  134SOL     OW  859   1.138   0.380   1.678
  134SOL    HW1  860   1.093   0.443   1.742
  134SOL    HW2  861   1.231   0.411   1.661
  135SOL     OW  862   1.160   0.207   1.477
  135SOL    HW1  863   1.160   0.271   1.554
  135SOL    HW2  864   1.188   0.255   1.394
  136SOL     OW  865   0.008   1.326   0.200
  136SOL    HW1  866  -0.085   1.347   0.169
  136SOL    HW2  867   0.018   1.227   0.213
  137SOL     OW  868   0.088   1.801   0.927
  137SOL    HW1  869   0.046   1.715   0.900
  137SOL    HW2  870   0.182   1.804   0.893
  138SOL     OW  871   0.504   1.568   0.910
  138SOL    HW1  872   0.570   1.642   0.919
  138SOL    HW2  873   0.548   1.489   0.868
  139SOL     OW  874   1.002   0.796   1.238
  139SOL    HW1  875   1.043   0.764   1.324
  139SOL    HW2  876   0.906   0.769   1.235
  140SOL     OW  877   0.040   0.544   1.114
  140SOL    HW1  878   0.125   0.511   1.073
  140SOL    HW2  879   0.053   0.559   1.212
  141SOL     OW  880   0.189   0.520   1.722
  141SOL    HW1  881   0.248   0.480   1.652
  141SOL    HW2  882   0.131   0.591   1.681
  142SOL     OW  883   1.369   0.950   1.660
  142SOL    HW1  884   1.408   1.039   1.680
  142SOL    HW2  885   1.379   0.930   1.563
  143SOL     OW  886   0.815   0.572   0.325
  143SOL    HW1  887   0.822   0.483   0.279
  143SOL    HW2  888   0.721   0.606   0.317
  144SOL     OW  889   1.657   0.604   1.206
  144SOL    HW1  890   1.619   0.535   1.268
  144SOL    HW2  891   1.739   0.568   1.162
  145SOL     OW  892   0.252   1.564   1.744
  145SOL    HW1  893   0.222   1.621   1.820
  145SOL    HW2  894   0.245   1.467   1.770
  146SOL     OW  895   0.671   0.464   1.269
  146SOL    HW1  896   0.637   0.375   1.239
  146SOL    HW2  897   0.697   0.518   1.189
  147SOL     OW  898   0.930   1.678   1.465
  147SOL    HW1  899   0.906   1.660   1.370
  147SOL    HW2  900   0.960   1.772   1.475
  148SOL     OW  901   0.473   0.500   0.191
  148SOL    HW1  902   0.534   0.580   0.195
  148SOL    HW2  903   0.378   0.531   0.198
  149SOL     OW  904   0.159   1.137   1.466
  149SOL    HW1  905   0.181   1.076   1.542
  149SOL    HW2  906   0.169   1.088   1.380
  150SOL     OW  907   1.347   1.059   1.234
  150SOL    HW1  908   1.371   0.996   1.160
  150SOL    HW2  909   1.257   1.099   1.216
  151SOL     OW  910   1.302   0.855   0.309
  151SOL    HW1  911   1.216   0.824   0.351
  151SOL    HW2  912   1.298   0.841   0.210
  152SOL     OW  913   1.759   1.747   1.154
  152SOL    HW1  914   1.820   1.777   1.081
  152SOL    HW2  915   1.721   1.658   1.132
  153SOL     OW  916   1.252   1.731   1.128
  153SOL    HW1  917   1.336   1.736   1.074
  153SOL    HW2  918   1.229   1.635   1.146
  154SOL     OW  919   0.083   1.258   1.022
  154SOL    HW1  920   0.078   1.257   1.122
  154SOL    HW2  921   0.000   1.217   0.984
  155SOL     OW  922   0.688   1.662   1.716
  155SOL    HW1  923   0.632   1.743   1.725
  155SOL    HW2  924   0.740   1.666   1.630
  156SOL     OW  925   0.903   0.086   0.133
  156SOL    HW1  926   0.954   0.087   0.047
  156SOL    HW2  927   0.959   0.044   0.204
  157SOL     OW  928   1.726   0.135   0.523
  157SOL    HW1  929   1.799   0.118   0.456
  157SOL    HW2  930   1.695   0.048   0.561
  158SOL     OW  931   1.388   1.573   0.477
  158SOL    HW1  932   1.455   1.585   0.403
  158SOL    HW2  933   1.348   1.662   0.500
  159SOL     OW  934   0.130   1.794   1.851
  159SOL    HW1  935   0.089   1.720   1.904
  159SOL    HW2  936   0.194   1.845   1.909
  160SOL     OW  937   1.280   0.927   0.672
  160SOL    HW1  938   1.340   0.846   0.674
  160SOL    HW2  939   1.320   0.996   0.612
  161SOL     OW  940   0.830   1.273   1.422
  161SOL    HW1  941   0.825   1.306   1.517
  161SOL    HW2  942   0.744   1.292   1.376
  162SOL     OW  943   0.672   1.616   0.154
  162SOL    HW1  944   0.681   1.626   0.055
  162SOL    HW2  945   0.632   1.527   0.175
  163SOL     OW  946   1.650   1.720   1.394
  163SOL    HW1  947   1.703   1.730   1.310
  163SOL    HW2  948   1.623   1.810   1.428
  164SOL     OW  949   1.841   0.175   0.963
  164SOL    HW1  950   1.880   0.090   0.927
  164SOL    HW2  951   1.743   0.177   0.944
  165SOL     OW  952   0.263   0.326   0.720
  165SOL    HW1  953   0.184   0.377   0.686
  165SOL    HW2  954   0.254   0.311   0.818
  166SOL     OW  955   1.194   1.612   0.031
  166SOL    HW1  956   1.200   1.519   0.068
  166SOL    HW2  957   1.135   1.612  -0.049
  167SOL     OW  958   0.822   1.002   1.372
  167SOL    HW1  959   0.862   1.001   1.280
  167SOL    HW2  960   0.832   1.094   1.412
  168SOL     OW  961   0.916   0.910   0.291
  168SOL    HW1  962   0.979   0.948   0.223
  168SOL    HW2  963   0.956   0.827   0.330
  169SOL     OW  964   1.504   1.607   0.044
  169SOL    HW1  965   1.412   1.644   0.051
  169SOL    HW2  966   1.542   1.627  -0.046
  170SOL     OW  967   0.372   1.288   1.490
  170SOL    HW1  968   0.359   1.381   1.456
  170SOL    HW2  969   0.288   1.236   1.477
  171SOL     OW  970   1.614   1.292   1.289
  171SOL    HW1  971   1.674   1.295   1.369
  171SOL    HW2  972   1.539   1.356   1.302
  172SOL     OW  973   1.039   1.098   0.696
  172SOL    HW1  974   0.969   1.051   0.750
  172SOL    HW2  975   1.098   1.030   0.653
  173SOL     OW  976   1.014   0.236   0.971
  173SOL    HW1  977   1.006   0.200   0.878
  173SOL    HW2  978   1.012   0.160   1.036
  174SOL     OW  979   0.590   1.487   0.491
  174SOL    HW1  980   0.632   1.429   0.421
  174SOL    HW2  981   0.546   1.566   0.447
  175SOL     OW  982   1.709   0.385   1.381
  175SOL    HW1  983   1.782   0.454   1.385
  175SOL    HW2  984   1.737   0.310   1.322
  176SOL     OW  985   0.255   1.348   0.290
  176SOL    HW1  986   0.159   1.349   0.263
  176SOL    HW2  987   0.267   1.401   0.374
  177SOL     OW  988   0.105   1.013   1.726
  177SOL    HW1  989   0.028   0.980   1.780
  177SOL    HW2  990   0.190   0.983   1.768
  178SOL     OW  991   0.672   0.203   1.489
  178SOL    HW1  992   0.762   0.187   1.449
  178SOL    HW2  993   0.680   0.208   1.588
  179SOL     OW  994   0.075   0.345   0.033
  179SOL    HW1  995  -0.017   0.317   0.004
  179SOL    HW2  996   0.106   0.422  -0.023
  180SOL     OW  997   1.440   0.856   1.398
  180SOL    HW1  998   1.383   0.908   1.335
  180SOL    HW2  999   1.536   0.868   1.374
  181SOL     OW 1000   0.072   0.166   0.318
  181SOL    HW1 1001   0.055   0.249   0.264
  181SOL    HW2 1002   0.162   0.129   0.296
  182SOL     OW 1003   1.183   1.335   0.119
  182SOL    HW1 1004   1.084   1.324   0.121
  182SOL    HW2 1005   1.217   1.350   0.212
  183SOL     OW 1006   0.613   0.842   1.431
  183SOL    HW1 1007   0.669   0.923   1.414
  183SOL    HW2 1008   0.672   0.762   1.434
  184SOL     OW 1009   1.493   1.767   0.959
  184SOL    HW1 1010   1.526   1.831   0.890
  184SOL    HW2 1011   1.559   1.761   1.034
  185SOL     OW 1012   0.716   0.565   1.708
  185SOL    HW1 1013   0.735   0.630   1.782
  185SOL    HW2 1014   0.776   0.485   1.717
  186SOL     OW 1015   1.450   1.220   1.633
  186SOL    HW1 1016   1.441   1.210   1.732
  186SOL    HW2 1017   1.546   1.213   1.607
  187SOL     OW 1018   0.390   1.741   1.560
  187SOL    HW1 1019   0.299   1.782   1.558
  187SOL    HW2 1020   0.383   1.647   1.592
  188SOL     OW 1021   1.674   0.883   1.254
  188SOL    HW1 1022   1.647   0.794   1.217
  188SOL    HW2 1023   1.675   0.951   1.181
  189SOL     OW 1024   1.225   0.325   0.449
  189SOL    HW1 1025   1.290   0.251   0.438
  189SOL    HW2 1026   1.245   0.375   0.533
  190SOL     OW 1027   0.594   0.745   0.652
  190SOL    HW1 1028   0.644   0.830   0.633
  190SOL    HW2 1029   0.506   0.747   0.604
  191SOL     OW 1030   1.777   0.342   1.642
  191SOL    HW1 1031   1.760   0.373   1.548
  191SOL    HW2 1032   1.693   0.305   1.680
  192SOL     OW 1033   1.730   0.934   1.517
  192SOL    HW1 1034   1.768   1.025   1.532
  192SOL    HW2 1035   1.722   0.917   1.418
  193SOL     OW 1036   0.859   1.374   0.016
  193SOL    HW1 1037   0.813   1.389   0.104
  193SOL    HW2 1038   0.903   1.459  -0.014
  194SOL     OW 1039   0.661   1.790   0.953
  194SOL    HW1 1040   0.615   1.878   0.940
  194SOL    HW2 1041   0.760   1.802   0.946
  195SOL     OW 1042   0.859   0.956   0.861
  195SOL    HW1 1043   0.913   0.887   0.909
  195SOL    HW2 1044   0.827   1.025   0.927
  196SOL     OW 1045   1.083   0.984   0.087
  196SOL    HW1 1046   1.060   1.037   0.005
  196SOL    HW2 1047   1.164   0.928   0.068
  197SOL     OW 1048   1.861   1.569   0.851
  197SOL    HW1 1049   1.790   1.557   0.781
  197SOL    HW2 1050   1.862   1.490   0.911
  198SOL     OW 1051   0.221   1.314   1.844
  198SOL    HW1 1052   0.156   1.241   1.823
  198SOL    HW2 1053   0.225   1.328   1.942
  199SOL     OW 1054   0.079   1.240   0.653
  199SOL    HW1 1055   0.078   1.193   0.741
  199SOL    HW2 1056   0.161   1.212   0.602
  200SOL     OW 1057   0.672   1.391   1.624
  200SOL    HW1 1058   0.594   1.341   1.662
  200SOL    HW2 1059   0.669   1.486   1.655
  201SOL     OW 1060   1.824   0.192   1.227
  201SOL    HW1 1061   1.820   0.102   1.271
  201SOL    HW2 1062   1.827   0.181   1.128
  202SOL     OW 1063   0.428   0.424   0.520
  202SOL    HW1 1064   0.458   0.352   0.458
  202SOL    HW2 1065   0.389   0.384   0.603
  203SOL     OW 1066   1.705   1.487   1.104
  203SOL    HW1 1067   1.612   1.462   1.077
  203SOL    HW2 1068   1.731   1.437   1.186
  204SOL     OW 1069   0.317   0.547   1.280
  204SOL    HW1 1070   0.355   0.488   1.352
  204SOL    HW2 1071   0.357   0.521   1.192
  205SOL     OW 1072   0.812   1.586   0.687
  205SOL    HW1 1073   0.844   1.596   0.593
  205SOL    HW2 1074   0.733   1.524   0.689
  206SOL     OW 1075   1.424   0.214   1.112
  206SOL    HW1 1076   1.476   0.149   1.167
  206SOL    HW2 1077   1.375   0.277   1.173
  207SOL     OW 1078   1.001   0.034   1.154
  207SOL    HW1 1079   0.938  -0.038   1.123
  207SOL    HW2 1080   1.094  -0.002   1.154
  208SOL     OW 1081   0.770   1.330   0.301
  208SOL    HW1 1082   0.724   1.243   0.318
  208SOL    HW2 1083   0.861   1.327   0.342
  209SOL     OW 1084   0.618   1.567   1.284
  209SOL    HW1 1085   0.613   1.649   1.341
  209SOL    HW2 1086   0.707   1.564   1.239
  210SOL     OW 1087   1.352   0.052   0.168
  210SOL    HW1 1088   1.387   0.011   0.084
  210SOL    HW2 1089   1.262   0.014   0.188
  211SOL     OW 1090   1.300   0.453   0.691
  211SOL    HW1 1091   1.241   0.533   0.695
  211SOL    HW2 1092   1.315   0.418   0.784
  212SOL     OW 1093   1.593   0.221   0.882
  212SOL    HW1 1094   1.509   0.220   0.936
  212SOL    HW2 1095   1.595   0.304   0.826
  213SOL     OW 1096   0.039   1.077   0.300
  213SOL    HW1 1097   0.138   1.066   0.291
  213SOL    HW2 1098  -0.001   0.991   0.332
  214SOL     OW 1099   0.875   1.646   0.337
  214SOL    HW1 1100   0.798   1.611   0.283
  214SOL    HW2 1101   0.843   1.717   0.399
  215SOL     OW 1102   0.230   0.628   1.975
  215SOL    HW1 1103   0.137   0.626   2.012
  215SOL    HW2 1104   0.231   0.589   1.883
  216SOL     OW 1105   0.225   0.275   2.858
  216SOL    HW1 1106   0.260   0.258   2.950
  216SOL    HW2 1107   0.137   0.230   2.846
  217SOL     OW 1108   0.019   0.368   2.509
  217SOL    HW1 1109  -0.063   0.411   2.548
  217SOL    HW2 1110  -0.009   0.295   2.446
  218SOL     OW 1111   0.569   1.275   3.027
  218SOL    HW1 1112   0.476   1.268   2.990
  218SOL    HW2 1113   0.580   1.364   3.071
  219SOL     OW 1114   1.555   1.511   2.565
  219SOL    HW1 1115   1.498   1.495   2.646
  219SOL    HW2 1116   1.496   1.521   2.485
  220SOL     OW 1117   1.135   0.703   2.579
  220SOL    HW1 1118   1.192   0.781   2.554
  220SOL    HW2 1119   1.075   0.729   2.655
  221SOL     OW 1120   1.755   0.607   2.093
  221SOL    HW1 1121   1.743   0.594   1.994
  221SOL    HW2 1122   1.725   0.526   2.142
  222SOL     OW 1123   0.768   1.144   2.885
  222SOL    HW1 1124   0.690   1.161   2.945
  222SOL    HW2 1125   0.802   1.231   2.849
  223SOL     OW 1126   0.850   0.798   3.685
  223SOL    HW1 1127   0.846   0.874   3.750
  223SOL    HW2 1128   0.872   0.834   3.594
  224SOL     OW 1129   0.685   1.012   2.527
  224SOL    HW1 1130   0.754   0.996   2.597
  224SOL    HW2 1131   0.612   1.069   2.565
  225SOL     OW 1132   0.686   1.161   3.665
  225SOL    HW1 1133   0.746   1.240   3.679
  225SOL    HW2 1134   0.600   1.192   3.624
  226SOL     OW 1135   0.335   1.435   2.923
  226SOL    HW1 1136   0.257   1.404   2.870
  226SOL    HW2 1137   0.393   1.493   2.866
  227SOL     OW 1138   1.460   1.505   3.201
  227SOL    HW1 1139   1.484   1.599   3.227
  227SOL    HW2 1140   1.444   1.451   3.283
  228SOL     OW 1141   0.438   0.392   3.361
  228SOL    HW1 1142   0.520   0.336   3.370
  228SOL    HW2 1143   0.357   0.334   3.365
  229SOL     OW 1144   1.603   0.447   2.599
  229SOL    HW1 1145   1.529   0.493   2.549
  229SOL    HW2 1146   1.654   0.515   2.652
  230SOL     OW 1147   0.231   1.713   2.345
  230SOL    HW1 1148   0.265   1.790   2.399
  230SOL    HW2 1149   0.275   1.713   2.255
  231SOL     OW 1150   1.127   1.341   3.552
  231SOL    HW1 1151   1.174   1.341   3.640
  231SOL    HW2 1152   1.079   1.254   3.541
  232SOL     OW 1153   0.230   1.434   2.400
  232SOL    HW1 1154   0.204   1.530   2.400
  232SOL    HW2 1155   0.159   1.380   2.445
  233SOL     OW 1156   0.240   1.091   2.748
  233SOL    HW1 1157   0.254   1.007   2.800
  233SOL    HW2 1158   0.185   1.155   2.803
  234SOL     OW 1159   0.620   1.786   3.301
  234SOL    HW1 1160   0.528   1.769   3.336
  234SOL    HW2 1161   0.648   1.878   3.327
  235SOL     OW 1162   0.606   0.964   1.985
  235SOL    HW1 1163   0.613   1.048   1.931
  235SOL    HW2 1164   0.652   0.977   2.073
  236SOL     OW 1165   1.594   0.114   3.342
  236SOL    HW1 1166   1.576   0.181   3.270
  236SOL    HW2 1167   1.591   0.160   3.431
  237SOL     OW 1168   0.122   0.643   2.425
  237SOL    HW1 1169   0.077   0.555   2.442
  237SOL    HW2 1170   0.121   0.697   2.509
  238SOL     OW 1171   1.842   1.767   2.221
  238SOL    HW1 1172   1.896   1.738   2.301
  238SOL    HW2 1173   1.872   1.857   2.192
  239SOL     OW 1174   0.027   1.596   1.979
  239SOL    HW1 1175   0.008   1.500   2.000
  239SOL    HW2 1176  -0.006   1.654   2.054
  240SOL     OW 1177   1.689   0.922   2.474
  240SOL    HW1 1178   1.784   0.893   2.482
  240SOL    HW2 1179   1.681   0.987   2.399
  241SOL     OW 1180   1.641   1.108   2.294
  241SOL    HW1 1181   1.727   1.110   2.242
  241SOL    HW2 1182   1.655   1.155   2.382
  242SOL     OW 1183   0.113   0.737   3.459
  242SOL    HW1 1184   0.201   0.724   3.504
  242SOL    HW2 1185   0.100   0.834   3.437
  243SOL     OW 1186   0.613   1.365   2.588
  243SOL    HW1 1187   0.564   1.278   2.597
  243SOL    HW2 1188   0.590   1.408   2.501
  244SOL     OW 1189   1.293   1.228   3.285
  244SOL    HW1 1190   1.330   1.155   3.227
  244SOL    HW2 1191   1.345   1.233   3.370
  245SOL     OW 1192   0.809   0.004   2.364
  245SOL    HW1 1193   0.849   0.095   2.355
  245SOL    HW2 1194   0.709   0.012   2.370
  246SOL     OW 1195   0.197   0.976   3.126
  246SOL    HW1 1196   0.286   0.931   3.112
  246SOL    HW2 1197   0.124   0.911   3.107
  247SOL     OW 1198   1.525   0.999   2.052
  247SOL    HW1 1199   1.462   0.923   2.065
  247SOL    HW2 1200   1.573   1.017   2.138
  248SOL     OW 1201   1.187   1.792   3.478
  248SOL    HW1 1202   1.211   1.852   3.402
  248SOL    HW2 1203   1.194   1.697   3.448
  249SOL     OW 1204   0.317   0.251   3.663
  249SOL    HW1 1205   0.388   0.322   3.669
  249SOL    HW2 1206   0.229   0.290   3.691
  250SOL     OW 1207   1.466   1.417   2.815
  250SOL    HW1 1208   1.407   1.423   2.895
  250SOL    HW2 1209   1.451   1.329   2.769
  251SOL     OW 1210   1.667   1.714   2.434
  251SOL    HW1 1211   1.626   1.691   2.346
  251SOL    HW2 1212   1.649   1.640   2.499
  252SOL     OW 1213   0.598   0.729   2.132
  252SOL    HW1 1214   0.622   0.798   2.064
  252SOL    HW2 1215   0.520   0.762   2.186
  253SOL     OW 1216   1.281   0.345   2.806
  253SOL    HW1 1217   1.195   0.295   2.793
  253SOL    HW2 1218   1.343   0.291   2.862
  254SOL     OW 1219   1.576   1.662   2.169
  254SOL    HW1 1220   1.665   1.708   2.172
  254SOL    HW2 1221   1.555   1.638   2.074
  255SOL     OW 1222   0.807   0.605   3.327
  255SOL    HW1 1223   0.760   0.602   3.416
  255SOL    HW2 1224   0.756   0.550   3.261
  256SOL     OW 1225   1.394   0.469   3.536
  256SOL    HW1 1226   1.374   0.512   3.624
  256SOL    HW2 1227   1.472   0.407   3.545
  257SOL     OW 1228   0.973   0.890   3.434
  257SOL    HW1 1229   1.019   0.806   3.405
  257SOL    HW2 1230   0.917   0.924   3.359
  258SOL     OW 1231   0.991   0.410   3.104
  258SOL    HW1 1232   0.914   0.444   3.158
  258SOL    HW2 1233   0.957   0.359   3.025
  259SOL     OW 1234   1.041   0.701   2.291
  259SOL    HW1 1235   1.067   0.697   2.387
  259SOL    HW2 1236   0.956   0.650   2.277
  260SOL     OW 1237   0.076   0.811   2.651
  260SOL    HW1 1238   0.175   0.799   2.660
  260SOL    HW2 1239   0.052   0.906   2.672
  261SOL     OW 1240   0.130   1.821   3.433
  261SOL    HW1 1241   0.120   1.806   3.532
  261SOL    HW2 1242   0.044   1.857   3.397
  262SOL     OW 1243   0.865   0.348   2.057
  262SOL    HW1 1244   0.924   0.411   2.008
  262SOL    HW2 1245   0.884   0.254   2.028
  263SOL     OW 1246   1.719   0.585   3.693
  263SOL    HW1 1247   1.693   0.674   3.657
  263SOL    HW2 1248   1.717   0.517   3.620
  264SOL     OW 1249   1.362   1.144   2.407
  264SOL    HW1 1250   1.445   1.115   2.359
  264SOL    HW2 1251   1.313   1.211   2.351
  265SOL     OW 1252   0.550   0.196   2.747
  265SOL    HW1 1253   0.545   0.191   2.847
  265SOL    HW2 1254   0.552   0.292   2.718
  266SOL     OW 1255   1.008   1.456   2.339
  266SOL    HW1 1256   0.962   1.528   2.287
  266SOL    HW2 1257   1.004   1.476   2.437
  267SOL     OW 1258   0.351   1.801   2.715
  267SOL    HW1 1259   0.401   1.715   2.721
  267SOL    HW2 1260   0.416   1.878   2.712
  268SOL     OW 1261   1.795   1.066   2.735
  268SOL    HW1 1262   1.733   1.051   2.659
  268SOL    HW2 1263   1.743   1.077   2.820
  269SOL     OW 1264   1.227   1.550   3.368
  269SOL    HW1 1265   1.233   1.473   3.432
  269SOL    HW2 1266   1.175   1.524   3.288
  270SOL     OW 1267   0.321   0.943   2.104
  270SOL    HW1 1268   0.403   0.982   2.062
  270SOL    HW2 1269   0.294   0.861   2.055
  271SOL     OW 1270   1.458   0.735   2.590
  271SOL    HW1 1271   1.453   0.670   2.665
  271SOL    HW2 1272   1.538   0.794   2.603
  272SOL     OW 1273   0.461   1.266   3.589
  272SOL    HW1 1274   0.411   1.267   3.503
  272SOL    HW2 1275   0.398   1.248   3.665
  273SOL     OW 1276   1.111   1.776   2.099
  273SOL    HW1 1277   1.051   1.714   2.149
  273SOL    HW2 1278   1.142   1.732   2.014
  274SOL     OW 1279   0.202   0.285   3.360
  274SOL    HW1 1280   0.122   0.345   3.347
  274SOL    HW2 1281   0.192   0.236   3.446
  275SOL     OW 1282   1.632   1.377   1.943
  275SOL    HW1 1283   1.600   1.471   1.933
  275SOL    HW2 1284   1.556   1.314   1.931
  276SOL     OW 1285   0.464   1.743   2.185
  276SOL    HW1 1286   0.497   1.782   2.271
  276SOL    HW2 1287   0.540   1.736   2.120
  277SOL     OW 1288   1.400   0.107   2.288
  277SOL    HW1 1289   1.376   0.070   2.198
  277SOL    HW2 1290   1.499   0.123   2.292
  278SOL     OW 1291   0.249   1.785   3.103
  278SOL    HW1 1292   0.306   1.720   3.153
  278SOL    HW2 1293   0.233   1.752   3.010
  279SOL     OW 1294   0.940   1.698   2.766
  279SOL    HW1 1295   1.020   1.641   2.787
  279SOL    HW2 1296   0.891   1.658   2.689
  280SOL     OW 1297   0.382   0.700   2.342
  280SOL    HW1 1298   0.427   0.610   2.339
  280SOL    HW2 1299   0.288   0.689   2.375
  281SOL     OW 1300   1.547   0.222   3.591
  281SOL    HW1 1301   1.542   0.259   3.683
  281SOL    HW2 1302   1.475   0.153   3.579
  282SOL     OW 1303   0.614   0.122   1.979
  282SOL    HW1 1304   0.712   0.100   1.986
  282SOL    HW2 1305   0.583   0.105   1.886
  283SOL     OW 1306   0.781   0.264   3.611
  283SOL    HW1 1307   0.848   0.203   3.654
  283SOL    HW2 1308   0.708   0.283   3.676
  284SOL     OW 1309   0.888   1.514   3.057
  284SOL    HW1 1310   0.865   1.489   2.963
  284SOL    HW2 1311   0.949   1.445   3.096
  285SOL     OW 1312   1.351   0.590   3.295
  285SOL    HW1 1313   1.379   0.547   3.380
  285SOL    HW2 1314   1.376   0.686   3.296
  286SOL     OW 1315   0.803   1.402   2.786
  286SOL    HW1 1316   0.893   1.416   2.744
  286SOL    HW2 1317   0.732   1.404   2.715
  287SOL     OW 1318   0.922   0.503   2.761
  287SOL    HW1 1319   0.897   0.494   2.665
  287SOL    HW2 1320   0.970   0.421   2.792
  288SOL     OW 1321   0.539   0.064   2.374
  288SOL    HW1 1322   0.458   0.065   2.432
  288SOL    HW2 1323   0.542   0.147   2.319
  289SOL     OW 1324   1.434   1.188   1.903
  289SOL    HW1 1325   1.466   1.112   1.960
  289SOL    HW2 1326   1.342   1.215   1.933
  290SOL     OW 1327   0.297   0.035   2.033
  290SOL    HW1 1328   0.346   0.119   2.012
  290SOL    HW2 1329   0.359  -0.030   2.078
  291SOL     OW 1330   0.935   0.236   2.342
  291SOL    HW1 1331   0.887   0.277   2.264
  291SOL    HW2 1332   1.034   0.234   2.323
  292SOL     OW 1333   1.076   0.683   3.326
  292SOL    HW1 1334   0.996   0.622   3.329
  292SOL    HW2 1335   1.157   0.630   3.302
  293SOL     OW 1336   1.227   1.570   2.655
  293SOL    HW1 1337   1.248   1.644   2.590
  293SOL    HW2 1338   1.295   1.570   2.728
  294SOL     OW 1339   0.459   1.152   2.603
  294SOL    HW1 1340   0.388   1.125   2.668
  294SOL    HW2 1341   0.433   1.124   2.510
  295SOL     OW 1342   1.271   1.797   2.453
  295SOL    HW1 1343   1.315   1.861   2.389
  295SOL    HW2 1344   1.221   1.849   2.523
  296SOL     OW 1345   1.032   0.549   1.878
  296SOL    HW1 1346   0.991   0.631   1.839
  296SOL    HW2 1347   1.096   0.575   1.951
  297SOL     OW 1348   0.078   0.556   3.248
  297SOL    HW1 1349   0.170   0.555   3.207
  297SOL    HW2 1350   0.072   0.630   3.315
  298SOL     OW 1351   0.561   0.222   3.009
  298SOL    HW1 1352   0.599   0.138   3.046
  298SOL    HW2 1353   0.473   0.241   3.053
  299SOL     OW 1354   0.866   0.454   2.504
  299SOL    HW1 1355   0.834   0.526   2.442
  299SOL    HW2 1356   0.890   0.373   2.451
  300SOL     OW 1357   1.017   0.039   2.615
  300SOL    HW1 1358   0.945   0.044   2.546
  300SOL    HW2 1359   0.993  -0.030   2.684
  301SOL     OW 1360   1.429   1.173   2.729
  301SOL    HW1 1361   1.374   1.089   2.722
  301SOL    HW2 1362   1.455   1.202   2.637
  302SOL     OW 1363   1.466   0.590   2.854
  302SOL    HW1 1364   1.436   0.495   2.861
  302SOL    HW2 1365   1.539   0.606   2.920
  303SOL     OW 1366   1.857   0.833   2.239
  303SOL    HW1 1367   1.899   0.769   2.303
  303SOL    HW2 1368   1.819   0.782   2.161
  304SOL     OW 1369   0.488   1.385   2.036
  304SOL    HW1 1370   0.401   1.370   2.083
  304SOL    HW2 1371   0.471   1.411   1.941
  305SOL     OW 1372   1.664   1.280   2.519
  305SOL    HW1 1373   1.763   1.288   2.533
  305SOL    HW2 1374   1.619   1.364   2.550
  306SOL     OW 1375   1.390   0.575   1.940
  306SOL    HW1 1376   1.336   0.554   2.021
  306SOL    HW2 1377   1.481   0.534   1.949
  307SOL     OW 1378   0.527   0.256   2.190
  307SOL    HW1 1379   0.554   0.197   2.115
  307SOL    HW2 1380   0.527   0.351   2.159
  308SOL     OW 1381   1.754   1.223   3.450
  308SOL    HW1 1382   1.845   1.184   3.437
  308SOL    HW2 1383   1.762   1.319   3.474
  309SOL     OW 1384   1.064   1.347   3.202
  309SOL    HW1 1385   0.984   1.324   3.257
  309SOL    HW2 1386   1.147   1.321   3.251
  310SOL     OW 1387   1.592   1.629   3.487
  310SOL    HW1 1388   1.619   1.663   3.397
  310SOL    HW2 1389   1.671   1.591   3.533
  311SOL     OW 1390   1.111   1.195   2.962
  311SOL    HW1 1391   1.071   1.239   3.043
  311SOL    HW2 1392   1.070   1.232   2.879
  312SOL     OW 1393   1.638   1.099   2.941
  312SOL    HW1 1394   1.643   1.180   3.000
  312SOL    HW2 1395   1.552   1.101   2.890
  313SOL     OW 1396   0.915   0.089   3.264
  313SOL    HW1 1397   0.940   0.069   3.169
  313SOL    HW2 1398   0.987   0.145   3.306
  314SOL     OW 1399   0.980   1.116   3.581
  314SOL    HW1 1400   0.881   1.122   3.591
  314SOL    HW2 1401   1.003   1.036   3.525
  315SOL     OW 1402   0.705   1.050   2.230
  315SOL    HW1 1403   0.691   1.057   2.329
  315SOL    HW2 1404   0.789   0.999   2.212
  316SOL     OW 1405   0.410   0.813   3.113
  316SOL    HW1 1406   0.496   0.825   3.163
  316SOL    HW2 1407   0.368   0.726   3.140
  317SOL     OW 1408   1.274   0.386   3.124
  317SOL    HW1 1409   1.295   0.460   3.188
  317SOL    HW2 1410   1.185   0.403   3.081
  318SOL     OW 1411   0.064   1.564   3.193
  318SOL    HW1 1412   0.018   1.646   3.159
  318SOL    HW2 1413   0.162   1.583   3.202
  319SOL     OW 1414   0.367   1.100   2.363
  319SOL    HW1 1415   0.360   1.183   2.307
  319SOL    HW2 1416   0.371   1.020   2.303
  320SOL     OW 1417   0.566   0.537   2.727
  320SOL    HW1 1418   0.578   0.603   2.653
  320SOL    HW2 1419   0.612   0.571   2.810
  321SOL     OW 1420   1.252   1.348   2.250
  321SOL    HW1 1421   1.302   1.425   2.290
  321SOL    HW2 1422   1.157   1.350   2.282
  322SOL     OW 1423   1.272   1.445   3.004
  322SOL    HW1 1424   1.319   1.458   3.091
  322SOL    HW2 1425   1.206   1.371   3.013
  323SOL     OW 1426   1.582   0.639   2.334
  323SOL    HW1 1427   1.551   0.700   2.407
  323SOL    HW2 1428   1.632   0.691   2.265
  324SOL     OW 1429   0.354   1.510   3.191
  324SOL    HW1 1430   0.333   1.466   3.104
  324SOL    HW2 1431   0.451   1.536   3.194
  325SOL     OW 1432   0.402   0.751   3.460
  325SOL    HW1 1433   0.470   0.806   3.413
  325SOL    HW2 1434   0.442   0.663   3.487
  326SOL     OW 1435   1.587   0.779   3.532
  326SOL    HW1 1436   1.495   0.817   3.527
  326SOL    HW2 1437   1.647   0.826   3.467
  327SOL     OW 1438   1.013   0.105   3.632
  327SOL    HW1 1439   1.019   0.190   3.580
  327SOL    HW2 1440   1.045   0.029   3.575
  328SOL     OW 1441   0.504   0.050   3.602
  328SOL    HW1 1442   0.462  -0.007   3.532
  328SOL    HW2 1443   0.438   0.119   3.634
  329SOL     OW 1444   0.573   0.870   2.891
  329SOL    HW1 1445   0.617   0.959   2.882
  329SOL    HW2 1446   0.510   0.870   2.968
  330SOL     OW 1447   1.360   0.862   2.907
  330SOL    HW1 1448   1.285   0.862   2.841
  330SOL    HW2 1449   1.397   0.770   2.916
  331SOL     OW 1450   1.209   0.525   2.137
  331SOL    HW1 1451   1.222   0.441   2.191
  331SOL    HW2 1452   1.180   0.599   2.197
  332SOL     OW 1453   0.307   0.213   3.093
  332SOL    HW1 1454   0.284   0.250   3.183
  332SOL    HW2 1455   0.277   0.118   3.087
  333SOL     OW 1456   0.037   1.310   3.144
  333SOL    HW1 1457   0.090   1.261   3.212
  333SOL    HW2 1458   0.059   1.408   3.149
  334SOL     OW 1459   0.732   0.634   2.926
  334SOL    HW1 1460   0.791   0.608   2.850
  334SOL    HW2 1461   0.704   0.730   2.915
  335SOL     OW 1462   1.728   0.935   3.716
  335SOL    HW1 1463   1.682   0.928   3.627
  335SOL    HW2 1464   1.666   0.979   3.782
  336SOL     OW 1465   0.307   0.063   2.480
  336SOL    HW1 1466   0.296   0.157   2.513
  336SOL    HW2 1467   0.302   0.000   2.557
  337SOL     OW 1468   1.622   0.367   2.236
  337SOL    HW1 1469   1.624   0.291   2.300
  337SOL    HW2 1470   1.574   0.444   2.276
  338SOL     OW 1471   1.023   0.766   2.828
  338SOL    HW1 1472   1.038   0.787   2.924
  338SOL    HW2 1473   0.993   0.671   2.819
  339SOL     OW 1474   0.980   1.573   3.562
  339SOL    HW1 1475   0.960   1.617   3.474
  339SOL    HW2 1476   1.019   1.482   3.546
  340SOL     OW 1477   1.859   1.518   3.467
  340SOL    HW1 1478   1.873   1.545   3.372
  340SOL    HW2 1479   1.942   1.540   3.520
  341SOL     OW 1480   0.350   0.898   3.666
  341SOL    HW1 1481   0.426   0.942   3.714
  341SOL    HW2 1482   0.385   0.851   3.584
  342SOL     OW 1483   1.540   0.274   1.987
  342SOL    HW1 1484   1.479   0.199   2.010
  342SOL    HW2 1485   1.562   0.326   2.070
  343SOL     OW 1486   1.303   0.838   1.904
  343SOL    HW1 1487   1.337   0.745   1.919
  343SOL    HW2 1488   1.321   0.865   1.809
  344SOL     OW 1489   1.068   1.333   2.711
  344SOL    HW1 1490   1.075   1.249   2.656
  344SOL    HW2 1491   1.130   1.402   2.675
  345SOL     OW 1492   0.319   0.810   2.811
  345SOL    HW1 1493   0.412   0.846   2.816
  345SOL    HW2 1494   0.313   0.725   2.863
  346SOL     OW 1495   0.339   0.509   2.868
  346SOL    HW1 1496   0.287   0.426   2.851
  346SOL    HW2 1497   0.416   0.514   2.804
  347SOL     OW 1498   1.138   0.380   3.540
  347SOL    HW1 1499   1.093   0.443   3.604
  347SOL    HW2 1500   1.231   0.411   3.523
  348SOL     OW 1501   1.160   0.207   3.339
  348SOL    HW1 1502   1.160   0.271   3.416
  348SOL    HW2 1503   1.188   0.255   3.256
  349SOL     OW 1504   0.008   1.326   2.062
  349SOL    HW1 1505  -0.085   1.347   2.031
  349SOL    HW2 1506   0.018   1.227   2.075
  350SOL     OW 1507   0.088   1.801   2.789
  350SOL    HW1 1508   0.046   1.715   2.762
  350SOL    HW2 1509   0.182   1.804   2.755
  351SOL     OW 1510   0.504   1.568   2.772
  351SOL    HW1 1511   0.570   1.642   2.781
  351SOL    HW2 1512   0.548   1.489   2.730
  352SOL     OW 1513   1.002   0.796   3.100
  352SOL    HW1 1514   1.043   0.764   3.186
  352SOL    HW2 1515   0.906   0.769   3.097
  353SOL     OW 1516   0.040   0.544   2.976
  353SOL    HW1 1517   0.125   0.511   2.935
  353SOL    HW2 1518   0.053   0.559   3.074
  354SOL     OW 1519   0.189   0.520   3.584
  354SOL    HW1 1520   0.248   0.480   3.514
  354SOL    HW2 1521   0.131   0.591   3.543
  355SOL     OW 1522   1.369   0.950   3.522
  355SOL    HW1 1523   1.408   1.039   3.542
  355SOL    HW2 1524   1.379   0.930   3.425
  356SOL     OW 1525   0.815   0.572   2.187
  356SOL    HW1 1526   0.822   0.483   2.141
  356SOL    HW2 1527   0.721   0.606   2.179
  357SOL     OW 1528   1.657   0.604   3.068
  357SOL    HW1 1529   1.619   0.535   3.130
  357SOL    HW2 1530   1.739   0.568   3.024
  358SOL     OW 1531   0.252   1.564   3.606
  358SOL    HW1 1532   0.222   1.621   3.682
  358SOL    HW2 1533   0.245   1.467   3.632
  359SOL     OW 1534   0.671   0.464   3.131
  359SOL    HW1 1535   0.637   0.375   3.101
  359SOL    HW2 1536   0.697   0.518   3.051
  360SOL     OW 1537   0.930   1.678   3.327
  360SOL    HW1 1538   0.906   1.660   3.232
  360SOL    HW2 1539   0.960   1.772   3.337
  361SOL     OW 1540   0.473   0.500   2.053
  361SOL    HW1 1541   0.534   0.580   2.057
  361SOL    HW2 1542   0.378   0.531   2.060
  362SOL     OW 1543   0.159   1.137   3.328
  362SOL    HW1 1544   0.181   1.076   3.404
  362SOL    HW2 1545   0.169   1.088   3.242
  363SOL     OW 1546   1.347   1.059   3.096
  363SOL    HW1 1547   1.371   0.996   3.022
  363SOL    HW2 1548   1.257   1.099   3.078
  364SOL     OW 1549   1.302   0.855   2.171
  364SOL    HW1 1550   1.216   0.824   2.213
  364SOL    HW2 1551   1.298   0.841   2.072
  365SOL     OW 1552   1.759   1.747   3.016
  365SOL    HW1 1553   1.820   1.777   2.943
  365SOL    HW2 1554   1.721   1.658   2.994
  366SOL     OW 1555   1.252   1.731   2.990
  366SOL    HW1 1556   1.336   1.736   2.936
  366SOL    HW2 1557   1.229   1.635   3.008
  367SOL     OW 1558   0.083   1.258   2.884
  367SOL    HW1 1559   0.078   1.257   2.984
  367SOL    HW2 1560   0.000   1.217   2.846
  368SOL     OW 1561   0.688   1.662   3.578
  368SOL    HW1 1562   0.632   1.743   3.587
  368SOL    HW2 1563   0.740   1.666   3.492
  369SOL     OW 1564   1.726   0.135   2.385
  369SOL    HW1 1565   1.799   0.118   2.318
  369SOL    HW2 1566   1.695   0.048   2.423
  370SOL     OW 1567   1.388   1.573   2.339
  370SOL    HW1 1568   1.455   1.585   2.265
  370SOL    HW2 1569   1.348   1.662   2.362
  371SOL     OW 1570   0.130   1.794   3.713
  371SOL    HW1 1571   0.089   1.720   3.766
  371SOL    HW2 1572   0.194   1.845   3.771
  372SOL     OW 1573   1.280   0.927   2.534
  372SOL    HW1 1574   1.340   0.846   2.536
  372SOL    HW2 1575   1.320   0.996   2.474
  373SOL     OW 1576   0.830   1.273   3.284
  373SOL    HW1 1577   0.825   1.306   3.379
  373SOL    HW2 1578   0.744   1.292   3.238
  374SOL     OW 1579   0.672   1.616   2.016
  374SOL    HW1 1580   0.681   1.626   1.917
  374SOL    HW2 1581   0.632   1.527   2.037
  375SOL     OW 1582   1.650   1.720   3.256
  375SOL    HW1 1583   1.703   1.730   3.172
  375SOL    HW2 1584   1.623   1.810   3.290
  376SOL     OW 1585   1.841   0.175   2.825
  376SOL    HW1 1586   1.880   0.090   2.789
  376SOL    HW2 1587   1.743   0.177   2.806
  377SOL     OW 1588   0.263   0.326   2.582
  377SOL    HW1 1589   0.184   0.377   2.548
  377SOL    HW2 1590   0.254   0.311   2.680
  378SOL     OW 1591   1.194   1.612   1.893
  378SOL    HW1 1592   1.200   1.519   1.930
  378SOL    HW2 1593   1.135   1.612   1.813
  379SOL     OW 1594   0.822   1.002   3.234
  379SOL    HW1 1595   0.862   1.001   3.142
  379SOL    HW2 1596   0.832   1.094   3.274
  380SOL     OW 1597   0.916   0.910   2.153
  380SOL    HW1 1598   0.979   0.948   2.085
  380SOL    HW2 1599   0.956   0.827   2.192
  381SOL     OW 1600   1.504   1.607   1.906
  381SOL    HW1 1601   1.412   1.644   1.913
  381SOL    HW2 1602   1.542   1.627   1.816
  382SOL     OW 1603   0.372   1.288   3.352
  382SOL    HW1 1604   0.359   1.381   3.318
  382SOL    HW2 1605   0.288   1.236   3.339
  383SOL     OW 1606   1.614   1.292   3.151
  383SOL    HW1 1607   1.674   1.295   3.231
  383SOL    HW2 1608   1.539   1.356   3.164
  384SOL     OW 1609   1.039   1.098   2.558
  384SOL    HW1 1610   0.969   1.051   2.612
  384SOL    HW2 1611   1.098   1.030   2.515
  385SOL     OW 1612   1.014   0.236   2.833
  385SOL    HW1 1613   1.006   0.200   2.740
  385SOL    HW2 1614   1.012   0.160   2.898
  386SOL     OW 1615   0.590   1.487   2.353
  386SOL    HW1 1616   0.632   1.429   2.283
  386SOL    HW2 1617   0.546   1.566   2.309
  387SOL     OW 1618   1.709   0.385   3.243
  387SOL    HW1 1619   1.782   0.454   3.247
  387SOL    HW2 1620   1.737   0.310   3.184
  388SOL     OW 1621   0.255   1.348   2.152
  388SOL    HW1 1622   0.159   1.349   2.125
  388SOL    HW2 1623   0.267   1.401   2.236
  389SOL     OW 1624   0.105   1.013   3.588
  389SOL    HW1 1625   0.028   0.980   3.642
  389SOL    HW2 1626   0.190   0.983   3.630
  390SOL     OW 1627   0.672   0.203   3.351
  390SOL    HW1 1628   0.762   0.187   3.311
  390SOL    HW2 1629   0.680   0.208   3.450
  391SOL     OW 1630   0.075   0.345   1.895
  391SOL    HW1 1631  -0.017   0.317   1.866
  391SOL    HW2 1632   0.106   0.422   1.839
  392SOL     OW 1633   1.440   0.856   3.260
  392SOL    HW1 1634   1.383   0.908   3.197
  392SOL    HW2 1635   1.536   0.868   3.236
  393SOL     OW 1636   0.072   0.166   2.180
  393SOL    HW1 1637   0.055   0.249   2.126
  393SOL    HW2 1638   0.162   0.129   2.158
  394SOL     OW 1639   1.183   1.335   1.981
  394SOL    HW1 1640   1.084   1.324   1.983
  394SOL    HW2 1641   1.217   1.350   2.074
  395SOL     OW 1642   0.613   0.842   3.293
  395SOL    HW1 1643   0.669   0.923   3.276
  395SOL    HW2 1644   0.672   0.762   3.296
  396SOL     OW 1645   1.493   1.767   2.821
  396SOL    HW1 1646   1.526   1.831   2.752
  396SOL    HW2 1647   1.559   1.761   2.896
  397SOL     OW 1648   0.716   0.565   3.570
  397SOL    HW1 1649   0.735   0.630   3.644
  397SOL    HW2 1650   0.776   0.485   3.579
  398SOL     OW 1651   1.450   1.220   3.495
  398SOL    HW1 1652   1.441   1.210   3.594
  398SOL    HW2 1653   1.546   1.213   3.469
  399SOL     OW 1654   0.390   1.741   3.422
  399SOL    HW1 1655   0.299   1.782   3.420
  399SOL    HW2 1656   0.383   1.647   3.454
  400SOL     OW 1657   1.674   0.883   3.116
  400SOL    HW1 1658   1.647   0.794   3.079
  400SOL    HW2 1659   1.675   0.951   3.043
  401SOL     OW 1660   1.225   0.325   2.311
  401SOL    HW1 1661   1.290   0.251   2.300
  401SOL    HW2 1662   1.245   0.375   2.395
  402SOL     OW 1663   0.594   0.745   2.514
  402SOL    HW1 1664   0.644   0.830   2.495
  402SOL    HW2 1665   0.506   0.747   2.466
  403SOL     OW 1666   1.777   0.342   3.504
  403SOL    HW1 1667   1.760   0.373   3.410
  403SOL    HW2 1668   1.693   0.305   3.542
  404SOL     OW 1669   1.730   0.934   3.379
  404SOL    HW1 1670   1.768   1.025   3.394
  404SOL    HW2 1671   1.722   0.917   3.280
  405SOL     OW 1672   0.859   1.374   1.878
  405SOL    HW1 1673   0.813   1.389   1.966
  405SOL    HW2 1674   0.903   1.459   1.848
  406SOL     OW 1675   0.661   1.790   2.815
  406SOL    HW1 1676   0.615   1.878   2.802
  406SOL    HW2 1677   0.760   1.802   2.808
  407SOL     OW 1678   0.859   0.956   2.723
  407SOL    HW1 1679   0.913   0.887   2.771
  407SOL    HW2 1680   0.827   1.025   2.789
  408SOL     OW 1681   1.083   0.984   1.949
  408SOL    HW1 1682   1.060   1.037   1.867
  408SOL    HW2 1683   1.164   0.928   1.930
  409SOL     OW 1684   1.861   1.569   2.713
  409SOL    HW1 1685   1.790   1.557   2.643
  409SOL    HW2 1686   1.862   1.490   2.773
  410SOL     OW 1687   0.221   1.314   3.706
  410SOL    HW1 1688   0.156   1.241   3.685
  410SOL    HW2 1689   0.225   1.328   3.804
  411SOL     OW 1690   0.079   1.240   2.515
  411SOL    HW1 1691   0.078   1.193   2.603
  411SOL    HW2 1692   0.161   1.212   2.464
  412SOL     OW 1693   0.672   1.391   3.486
  412SOL    HW1 1694   0.594   1.341   3.524
  412SOL    HW2 1695   0.669   1.486   3.517
  413SOL     OW 1696   1.824   0.192   3.089
  413SOL    HW1 1697   1.820   0.102   3.133
  413SOL    HW2 1698   1.827   0.181   2.990
  414SOL     OW 1699   0.428   0.424   2.382
  414SOL    HW1 1700   0.458   0.352   2.320
  414SOL    HW2 1701   0.389   0.384   2.465
  415SOL     OW 1702   1.705   1.487   2.966
  415SOL    HW1 1703   1.612   1.462   2.939
  415SOL    HW2 1704   1.731   1.437   3.048
  416SOL     OW 1705   0.317   0.547   3.142
  416SOL    HW1 1706   0.355   0.488   3.214
  416SOL    HW2 1707   0.357   0.521   3.054
  417SOL     OW 1708   0.812   1.586   2.549
  417SOL    HW1 1709   0.844   1.596   2.455
  417SOL    HW2 1710   0.733   1.524   2.551
  418SOL     OW 1711   1.424   0.214   2.974
  418SOL    HW1 1712   1.476   0.149   3.029
  418SOL    HW2 1713   1.375   0.277   3.035
  419SOL     OW 1714   1.001   0.034   3.016
  419SOL    HW1 1715   0.938  -0.038   2.985
  419SOL    HW2 1716   1.094  -0.002   3.016
  420SOL     OW 1717   0.770   1.330   2.163
  420SOL    HW1 1718   0.724   1.243   2.180
  420SOL    HW2 1719   0.861   1.327   2.204
  421SOL     OW 1720   0.618   1.567   3.146
  421SOL    HW1 1721   0.613   1.649   3.203
  421SOL    HW2 1722   0.707   1.564   3.101
  422SOL     OW 1723   1.352   0.052   2.030
  422SOL    HW1 1724   1.387   0.011   1.946
  422SOL    HW2 1725   1.262   0.014   2.050
  423SOL     OW 1726   1.300   0.453   2.553
  423SOL    HW1 1727   1.241   0.533   2.557
  423SOL    HW2 1728   1.315   0.418   2.646
  424SOL     OW 1729   1.593   0.221   2.744
  424SOL    HW1 1730   1.509   0.220   2.798
  424SOL    HW2 1731   1.595   0.304   2.688
  425SOL     OW 1732   0.039   1.077   2.162
  425SOL    HW1 1733   0.138   1.066   2.153
  425SOL    HW2 1734  -0.001   0.991   2.194
  426SOL     OW 1735   0.875   1.646   2.199
  426SOL    HW1 1736   0.798   1.611   2.145
  426SOL    HW2 1737   0.843   1.717   2.261
  427SOL     OW 1738   0.230   0.628   3.837
  427SOL    HW1 1739   0.137   0.626   3.874
  427SOL    HW2 1740   0.231   0.589   3.745
  428SOL     OW 1741   0.225   0.275   4.720
  428SOL    HW1 1742   0.260   0.258   4.812
  428SOL    HW2 1743   0.137   0.230   4.708
  429SOL     OW 1744   0.019   0.368   4.371
  429SOL    HW1 1745  -0.063   0.411   4.410
  429SOL    HW2 1746  -0.009   0.295   4.308
  430SOL     OW 1747   0.569   1.275   4.889
  430SOL    HW1 1748   0.476   1.268   4.852
  430SOL    HW2 1749   0.580   1.364   4.933
  431SOL     OW 1750   1.555   1.511   4.427
  431SOL    HW1 1751   1.498   1.495   4.508
  431SOL    HW2 1752   1.496   1.521   4.347
  432SOL     OW 1753   1.135   0.703   4.441
  432SOL    HW1 1754   1.192   0.781   4.416
  432SOL    HW2 1755   1.075   0.729   4.517
  433SOL     OW 1756   1.755   0.607   3.955
  433SOL    HW1 1757   1.743   0.594   3.856
  433SOL    HW2 1758   1.725   0.526   4.004
  434SOL     OW 1759   0.768   1.144   4.747
  434SOL    HW1 1760   0.690   1.161   4.807
  434SOL    HW2 1761   0.802   1.231   4.711
  435SOL     OW 1762   0.850   0.798   5.547
  435SOL    HW1 1763   0.846   0.874   5.612
  435SOL    HW2 1764   0.872   0.834   5.456
  436SOL     OW 1765   0.685   1.012   4.389
  436SOL    HW1 1766   0.754   0.996   4.459
  436SOL    HW2 1767   0.612   1.069   4.427
  437SOL     OW 1768   0.686   1.161   5.527
  437SOL    HW1 1769   0.746   1.240   5.541
  437SOL    HW2 1770   0.600   1.192   5.486
  438SOL     OW 1771   0.335   1.435   4.785
  438SOL    HW1 1772   0.257   1.404   4.732
  438SOL    HW2 1773   0.393   1.493   4.728
  439SOL     OW 1774   1.460   1.505   5.063
  439SOL    HW1 1775   1.484   1.599   5.089
  439SOL    HW2 1776   1.444   1.451   5.145
  440SOL     OW 1777   0.438   0.392   5.223
  440SOL    HW1 1778   0.520   0.336   5.232
  440SOL    HW2 1779   0.357   0.334   5.227
  441SOL     OW 1780   1.603   0.447   4.461
  441SOL    HW1 1781   1.529   0.493   4.411
  441SOL    HW2 1782   1.654   0.515   4.514
  442SOL     OW 1783   0.231   1.713   4.207
  442SOL    HW1 1784   0.265   1.790   4.261
  442SOL    HW2 1785   0.275   1.713   4.117
  443SOL     OW 1786   1.127   1.341   5.414
  443SOL    HW1 1787   1.174   1.341   5.502
  443SOL    HW2 1788   1.079   1.254   5.403
  444SOL     OW 1789   0.230   1.434   4.262
  444SOL    HW1 1790   0.204   1.530   4.262
  444SOL    HW2 1791   0.159   1.380   4.307
  445SOL     OW 1792   0.240   1.091   4.610
  445SOL    HW1 1793   0.254   1.007   4.662
  445SOL    HW2 1794   0.185   1.155   4.665
  446SOL     OW 1795   0.620   1.786   5.163
  446SOL    HW1 1796   0.528   1.769   5.198
  446SOL    HW2 1797   0.648   1.878   5.189
  447SOL     OW 1798   0.606   0.964   3.847
  447SOL    HW1 1799   0.613   1.048   3.793
  447SOL    HW2 1800   0.652   0.977   3.935
  448SOL     OW 1801   1.594   0.114   5.204
  448SOL    HW1 1802   1.576   0.181   5.132
  448SOL    HW2 1803   1.591   0.160   5.293
  449SOL     OW 1804   0.122   0.643   4.287
  449SOL    HW1 1805   0.077   0.555   4.304
  449SOL    HW2 1806   0.121   0.697   4.371
  450SOL     OW 1807   1.842   1.767   4.083
  450SOL    HW1 1808   1.896   1.738   4.163
  450SOL    HW2 1809   1.872   1.857   4.054
  451SOL     OW 1810   0.027   1.596   3.841
  451SOL    HW1 1811   0.008   1.500   3.862
  451SOL    HW2 1812  -0.006   1.654   3.916
  452SOL     OW 1813   1.689   0.922   4.336
  452SOL    HW1 1814   1.784   0.893   4.344
  452SOL    HW2 1815   1.681   0.987   4.261
  453SOL     OW 1816   1.641   1.108   4.156
  453SOL    HW1 1817   1.727   1.110   4.104
  453SOL    HW2 1818   1.655   1.155   4.244
  454SOL     OW 1819   0.113   0.737   5.321
  454SOL    HW1 1820   0.201   0.724   5.366
  454SOL    HW2 1821   0.100   0.834   5.299
  455SOL     OW 1822   0.613   1.365   4.450
  455SOL    HW1 1823   0.564   1.278   4.459
  455SOL    HW2 1824   0.590   1.408   4.363
  456SOL     OW 1825   1.293   1.228   5.147
  456SOL    HW1 1826   1.330   1.155   5.089
  456SOL    HW2 1827   1.345   1.233   5.232
  457SOL     OW 1828   0.809   0.004   4.226
  457SOL    HW1 1829   0.849   0.095   4.217
  457SOL    HW2 1830   0.709   0.012   4.232
  458SOL     OW 1831   0.197   0.976   4.988
  458SOL    HW1 1832   0.286   0.931   4.974
  458SOL    HW2 1833   0.124   0.911   4.969
  459SOL     OW 1834   1.525   0.999   3.914
  459SOL    HW1 1835   1.462   0.923   3.927
  459SOL    HW2 1836   1.573   1.017   4.000
  460SOL     OW 1837   1.187   1.792   5.340
  460SOL    HW1 1838   1.211   1.852   5.264
  460SOL    HW2 1839   1.194   1.697   5.310
  461SOL     OW 1840   0.317   0.251   5.525
  461SOL    HW1 1841   0.388   0.322   5.531
  461SOL    HW2 1842   0.229   0.290   5.553
  462SOL     OW 1843   1.466   1.417   4.677
  462SOL    HW1 1844   1.407   1.423   4.757
  462SOL    HW2 1845   1.451   1.329   4.631
  463SOL     OW 1846   1.667   1.714   4.296
  463SOL    HW1 1847   1.626   1.691   4.208
  463SOL    HW2 1848   1.649   1.640   4.361
  464SOL     OW 1849   0.598   0.729   3.994
  464SOL    HW1 1850   0.622   0.798   3.926
  464SOL    HW2 1851   0.520   0.762   4.048
  465SOL     OW 1852   1.281   0.345   4.668
  465SOL    HW1 1853   1.195   0.295   4.655
  465SOL    HW2 1854   1.343   0.291   4.724
  466SOL     OW 1855   1.576   1.662   4.031
  466SOL    HW1 1856   1.665   1.708   4.034
  466SOL    HW2 1857   1.555   1.638   3.936
  467SOL     OW 1858   0.807   0.605   5.189
  467SOL    HW1 1859   0.760   0.602   5.278
  467SOL    HW2 1860   0.756   0.550   5.123
  468SOL     OW 1861   1.394   0.469   5.398
  468SOL    HW1 1862   1.374   0.512   5.486
  468SOL    HW2 1863   1.472   0.407   5.407
  469SOL     OW 1864   0.973   0.890   5.296
  469SOL    HW1 1865   1.019   0.806   5.267
  469SOL    HW2 1866   0.917   0.924   5.221
  470SOL     OW 1867   0.991   0.410   4.966
  470SOL    HW1 1868   0.914   0.444   5.020
  470SOL    HW2 1869   0.957   0.359   4.887
  471SOL     OW 1870   1.041   0.701   4.153
  471SOL    HW1 1871   1.067   0.697   4.249
  471SOL    HW2 1872   0.956   0.650   4.139
  472SOL     OW 1873   0.076   0.811   4.513
  472SOL    HW1 1874   0.175   0.799   4.522
  472SOL    HW2 1875   0.052   0.906   4.534
  473SOL     OW 1876   0.130   1.821   5.295
  473SOL    HW1 1877   0.120   1.806   5.394
  473SOL    HW2 1878   0.044   1.857   5.259
  474SOL     OW 1879   0.865   0.348   3.919
  474SOL    HW1 1880   0.924   0.411   3.870
  474SOL    HW2 1881   0.884   0.254   3.890
  475SOL     OW 1882   1.719   0.585   5.555
  475SOL    HW1 1883   1.693   0.674   5.519
  475SOL    HW2 1884   1.717   0.517   5.482
  476SOL     OW 1885   1.362   1.144   4.269
  476SOL    HW1 1886   1.445   1.115   4.221
  476SOL    HW2 1887   1.313   1.211   4.213
  477SOL     OW 1888   0.550   0.196   4.609
  477SOL    HW1 1889   0.545   0.191   4.709
  477SOL    HW2 1890   0.552   0.292   4.580
  478SOL     OW 1891   1.008   1.456   4.201
  478SOL    HW1 1892   0.962   1.528   4.149
  478SOL    HW2 1893   1.004   1.476   4.299
  479SOL     OW 1894   0.351   1.801   4.577
  479SOL    HW1 1895   0.401   1.715   4.583
  479SOL    HW2 1896   0.416   1.878   4.574
  480SOL     OW 1897   1.795   1.066   4.597
  480SOL    HW1 1898   1.733   1.051   4.521
  480SOL    HW2 1899   1.743   1.077   4.682
  481SOL     OW 1900   1.227   1.550   5.230
  481SOL    HW1 1901   1.233   1.473   5.294
  481SOL    HW2 1902   1.175   1.524   5.150
  482SOL     OW 1903   0.321   0.943   3.966
  482SOL    HW1 1904   0.403   0.982   3.924
  482SOL    HW2 1905   0.294   0.861   3.917
  483SOL     OW 1906   1.458   0.735   4.452
  483SOL    HW1 1907   1.453   0.670   4.527
  483SOL    HW2 1908   1.538   0.794   4.465
  484SOL     OW 1909   0.461   1.266   5.451
  484SOL    HW1 1910   0.411   1.267   5.365
  484SOL    HW2 1911   0.398   1.248   5.527
  485SOL     OW 1912   1.111   1.776   3.961
  485SOL    HW1 1913   1.051   1.714   4.011
  485SOL    HW2 1914   1.142   1.732   3.876
  486SOL     OW 1915   0.202   0.285   5.222
  486SOL    HW1 1916   0.122   0.345   5.209
  486SOL    HW2 1917   0.192   0.236   5.308
  487SOL     OW 1918   1.632   1.377   3.805
  487SOL    HW1 1919   1.600   1.471   3.795
  487SOL    HW2 1920   1.556   1.314   3.793
  488SOL     OW 1921   0.464   1.743   4.047
  488SOL    HW1 1922   0.497   1.782   4.133
  488SOL    HW2 1923   0.540   1.736   3.982
  489SOL     OW 1924   1.400   0.107   4.150
  489SOL    HW1 1925   1.376   0.070   4.060
  489SOL    HW2 1926   1.499   0.123   4.154
  490SOL     OW 1927   0.249   1.785   4.965
  490SOL    HW1 1928   0.306   1.720   5.015
  490SOL    HW2 1929   0.233   1.752   4.872
  491SOL     OW 1930   0.940   1.698   4.628
  491SOL    HW1 1931   1.020   1.641   4.649
  491SOL    HW2 1932   0.891   1.658   4.551
  492SOL     OW 1933   0.382   0.700   4.204
  492SOL    HW1 1934   0.427   0.610   4.201
  492SOL    HW2 1935   0.288   0.689   4.237
  493SOL     OW 1936   1.547   0.222   5.453
  493SOL    HW1 1937   1.542   0.259   5.545
  493SOL    HW2 1938   1.475   0.153   5.441
  494SOL     OW 1939   0.614   0.122   3.841
  494SOL    HW1 1940   0.712   0.100   3.848
  494SOL    HW2 1941   0.583   0.105   3.748
  495SOL     OW 1942   0.781   0.264   5.473
  495SOL    HW1 1943   0.848   0.203   5.516
  495SOL    HW2 1944   0.708   0.283   5.538
  496SOL     OW 1945   0.888   1.514   4.919
  496SOL    HW1 1946   0.865   1.489   4.825
  496SOL    HW2 1947   0.949   1.445   4.958
  497SOL     OW 1948   1.351   0.590   5.157
  497SOL    HW1 1949   1.379   0.547   5.242
  497SOL    HW2 1950   1.376   0.686   5.158
  498SOL     OW 1951   0.803   1.402   4.648
  498SOL    HW1 1952   0.893   1.416   4.606
  498SOL    HW2 1953   0.732   1.404   4.577
  499SOL     OW 1954   0.922   0.503   4.623
  499SOL    HW1 1955   0.897   0.494   4.527
  499SOL    HW2 1956   0.970   0.421   4.654
  500SOL     OW 1957   0.539   0.064   4.236
  500SOL    HW1 1958   0.458   0.065   4.294
  500SOL    HW2 1959   0.542   0.147   4.181
  501SOL     OW 1960   1.434   1.188   3.765
  501SOL    HW1 1961   1.466   1.112   3.822
  501SOL    HW2 1962   1.342   1.215   3.795
  502SOL     OW 1963   0.297   0.035   3.895
  502SOL    HW1 1964   0.346   0.119   3.874
  502SOL    HW2 1965   0.359  -0.030   3.940
  503SOL     OW 1966   0.935   0.236   4.204
  503SOL    HW1 1967   0.887   0.277   4.126
  503SOL    HW2 1968   1.034   0.234   4.185
  504SOL     OW 1969   1.076   0.683   5.188
  504SOL    HW1 1970   0.996   0.622   5.191
  504SOL    HW2 1971   1.157   0.630   5.164
  505SOL     OW 1972   1.227   1.570   4.517
  505SOL    HW1 1973   1.248   1.644   4.452
  505SOL    HW2 1974   1.295   1.570   4.590
  506SOL     OW 1975   0.459   1.152   4.465
  506SOL    HW1 1976   0.388   1.125   4.530
  506SOL    HW2 1977   0.433   1.124   4.372
  507SOL     OW 1978   1.271   1.797   4.315
  507SOL    HW1 1979   1.315   1.861   4.251
  507SOL    HW2 1980   1.221   1.849   4.385
  508SOL     OW 1981   1.032   0.549   3.740
  508SOL    HW1 1982   0.991   0.631   3.701
  508SOL    HW2 1983   1.096   0.575   3.813
  509SOL     OW 1984   0.078   0.556   5.110
  509SOL    HW1 1985   0.170   0.555   5.069
  509SOL    HW2 1986   0.072   0.630   5.177
  510SOL     OW 1987   0.561   0.222   4.871
  510SOL    HW1 1988   0.599   0.138   4.908
  510SOL    HW2 1989   0.473   0.241   4.915
  511SOL     OW 1990   0.866   0.454   4.366
  511SOL    HW1 1991   0.834   0.526   4.304
  511SOL    HW2 1992   0.890   0.373   4.313
  512SOL     OW 1993   1.017   0.039   4.477
  512SOL    HW1 1994   0.945   0.044   4.408
  512SOL    HW2 1995   0.993  -0.030   4.546
  513SOL     OW 1996   1.429   1.173   4.591
  513SOL    HW1 1997   1.374   1.089   4.584
  513SOL    HW2 1998   1.455   1.202   4.499
  514SOL     OW 1999   1.466   0.590   4.716
  514SOL    HW1 2000   1.436   0.495   4.723
  514SOL    HW2 2001   1.539   0.606   4.782
  515SOL     OW 2002   1.857   0.833   4.101
  515SOL    HW1 2003   1.899   0.769   4.165
  515SOL    HW2 2004   1.819   0.782   4.023
  516SOL     OW 2005   0.488   1.385   3.898
  516SOL    HW1 2006   0.401   1.370   3.945
  516SOL    HW2 2007   0.471   1.411   3.803
  517SOL     OW 2008   1.664   1.280   4.381
  517SOL    HW1 2009   1.763   1.288   4.395
  517SOL    HW2 2010   1.619   1.364   4.412
  518SOL     OW 2011   1.390   0.575   3.802
  518SOL    HW1 2012   1.336   0.554   3.883
  518SOL    HW2 2013   1.481   0.534   3.811
  519SOL     OW 2014   0.527   0.256   4.052
  519SOL    HW1 2015   0.554   0.197   3.977
  519SOL    HW2 2016   0.527   0.351   4.021
  520SOL     OW 2017   1.754   1.223   5.312
  520SOL    HW1 2018   1.845   1.184   5.299
  520SOL    HW2 2019   1.762   1.319   5.336
  521SOL     OW 2020   1.064   1.347   5.064
  521SOL    HW1 2021   0.984   1.324   5.119
  521SOL    HW2 2022   1.147   1.321   5.113
  522SOL     OW 2023   1.592   1.629   5.349
  522SOL    HW1 2024   1.619   1.663   5.259
  522SOL    HW2 2025   1.671   1.591   5.395
  523SOL     OW 2026   1.111   1.195   4.824
  523SOL    HW1 2027   1.071   1.239   4.905
  523SOL    HW2 2028   1.070   1.232   4.741
  524SOL     OW 2029   1.638   1.099   4.803
  524SOL    HW1 2030   1.643   1.180   4.862
  524SOL    HW2 2031   1.552   1.101   4.752
  525SOL     OW 2032   0.915   0.089   5.126
  525SOL    HW1 2033   0.940   0.069   5.031
  525SOL    HW2 2034   0.987   0.145   5.168
  526SOL     OW 2035   0.980   1.116   5.443
  526SOL    HW1 2036   0.881   1.122   5.453
  526SOL    HW2 2037   1.003   1.036   5.387
  527SOL     OW 2038   0.705   1.050   4.092
  527SOL    HW1 2039   0.691   1.057   4.191
  527SOL    HW2 2040   0.789   0.999   4.074
  528SOL     OW 2041   0.410   0.813   4.975
  528SOL    HW1 2042   0.496   0.825   5.025
  528SOL    HW2 2043   0.368   0.726   5.002
  529SOL     OW 2044   1.274   0.386   4.986
  529SOL    HW1 2045   1.295   0.460   5.050
  529SOL    HW2 2046   1.185   0.403   4.943
  530SOL     OW 2047   0.064   1.564   5.055
  530SOL    HW1 2048   0.018   1.646   5.021
  530SOL    HW2 2049   0.162   1.583   5.064
  531SOL     OW 2050   0.367   1.100   4.225
  531SOL    HW1 2051   0.360   1.183   4.169
  531SOL    HW2 2052   0.371   1.020   4.165
  532SOL     OW 2053   0.566   0.537   4.589
  532SOL    HW1 2054   0.578   0.603   4.515
  532SOL    HW2 2055   0.612   0.571   4.672
  533SOL     OW 2056   1.252   1.348   4.112
  533SOL    HW1 2057   1.302   1.425   4.152
  533SOL    HW2 2058   1.157   1.350   4.144
  534SOL     OW 2059   1.272   1.445   4.866
  534SOL    HW1 2060   1.319   1.458   4.953
  534SOL    HW2 2061   1.206   1.371   4.875
  535SOL     OW 2062   1.582   0.639   4.196
  535SOL    HW1 2063   1.551   0.700   4.269
  535SOL    HW2 2064   1.632   0.691   4.127
  536SOL     OW 2065   0.354   1.510   5.053
  536SOL    HW1 2066   0.333   1.466   4.966
  536SOL    HW2 2067   0.451   1.536   5.056
  537SOL     OW 2068   0.402   0.751   5.322
  537SOL    HW1 2069   0.470   0.806   5.275
  537SOL    HW2 2070   0.442   0.663   5.349
  538SOL     OW 2071   1.587   0.779   5.394
  538SOL    HW1 2072   1.495   0.817   5.389
  538SOL    HW2 2073   1.647   0.826   5.329
  539SOL     OW 2074   1.013   0.105   5.494
  539SOL    HW1 2075   1.019   0.190   5.442
  539SOL    HW2 2076   1.045   0.029   5.437
  540SOL     OW 2077   0.504   0.050   5.464
  540SOL    HW1 2078   0.462  -0.007   5.394
  540SOL    HW2 2079   0.438   0.119   5.496
  541SOL     OW 2080   0.573   0.870   4.753
  541SOL    HW1 2081   0.617   0.959   4.744
  541SOL    HW2 2082   0.510   0.870   4.830
  542SOL     OW 2083   1.360   0.862   4.769
  542SOL    HW1 2084   1.285   0.862   4.703
  542SOL    HW2 2085   1.397   0.770   4.778
  543SOL     OW 2086   1.209   0.525   3.999
  543SOL    HW1 2087   1.222   0.441   4.053
  543SOL    HW2 2088   1.180   0.599   4.059
  544SOL     OW 2089   0.307   0.213   4.955
  544SOL    HW1 2090   0.284   0.250   5.045
  544SOL    HW2 2091   0.277   0.118   4.949
  545SOL     OW 2092   0.037   1.310   5.006
  545SOL    HW1 2093   0.090   1.261   5.074
  545SOL    HW2 2094   0.059   1.408   5.011
  546SOL     OW 2095   0.732   0.634   4.788
  546SOL    HW1 2096   0.791   0.608   4.712
  546SOL    HW2 2097   0.704   0.730   4.777
  547SOL     OW 2098   1.728   0.935   5.578
  547SOL    HW1 2099   1.682   0.928   5.489
  547SOL    HW2 2100   1.666   0.979   5.644
  548SOL     OW 2101   0.307   0.063   4.342
  548SOL    HW1 2102   0.296   0.157   4.375
  548SOL    HW2 2103   0.302   0.000   4.419
  549SOL     OW 2104   1.622   0.367   4.098
  549SOL    HW1 2105   1.624   0.291   4.162
  549SOL    HW2 2106   1.574   0.444   4.138
  550SOL     OW 2107   1.023   0.766   4.690
  550SOL    HW1 2108   1.038   0.787   4.786
  550SOL    HW2 2109   0.993   0.671   4.681
  551SOL     OW 2110   0.980   1.573   5.424
  551SOL    HW1 2111   0.960   1.617   5.336
  551SOL    HW2 2112   1.019   1.482   5.408
  552SOL     OW 2113   1.859   1.518   5.329
  552SOL    HW1 2114   1.873   1.545   5.234
  552SOL    HW2 2115   1.942   1.540   5.382
  553SOL     OW 2116   0.350   0.898   5.528
  553SOL    HW1 2117   0.426   0.942   5.576
  553SOL    HW2 2118   0.385   0.851   5.446
  554SOL     OW 2119   1.540   0.274   3.849
  554SOL    HW1 2120   1.479   0.199   3.872
  554SOL    HW2 2121   1.562   0.326   3.932
  555SOL     OW 2122   1.303   0.838   3.766
  555SOL    HW1 2123   1.337   0.745   3.781
  555SOL    HW2 2124   1.321   0.865   3.671
  556SOL     OW 2125   1.068   1.333   4.573
  556SOL    HW1 2126   1.075   1.249   4.518
  556SOL    HW2 2127   1.130   1.402   4.537
  557SOL     OW 2128   0.319   0.810   4.673
  557SOL    HW1 2129   0.412   0.846   4.678
  557SOL    HW2 2130   0.313   0.725   4.725
  558SOL     OW 2131   0.339   0.509   4.730
  558SOL    HW1 2132   0.287   0.426   4.713
  558SOL    HW2 2133   0.416   0.514   4.666
  559SOL     OW 2134   1.138   0.380   5.402
  559SOL    HW1 2135   1.093   0.443   5.466
  559SOL    HW2 2136   1.231   0.411   5.385
  560SOL     OW 2137   1.160   0.207   5.201
  560SOL    HW1 2138   1.160   0.271   5.278
  560SOL    HW2 2139   1.188   0.255   5.118
  561SOL     OW 2140   0.008   1.326   3.924
  561SOL    HW1 2141  -0.085   1.347   3.893
  561SOL    HW2 2142   0.018   1.227   3.937
  562SOL     OW 2143   0.088   1.801   4.651
  562SOL    HW1 2144   0.046   1.715   4.624
  562SOL    HW2 2145   0.182   1.804   4.617
  563SOL     OW 2146   0.504   1.568   4.634
  563SOL    HW1 2147   0.570   1.642   4.643
  563SOL    HW2 2148   0.548   1.489   4.592
  564SOL     OW 2149   1.002   0.796   4.962
  564SOL    HW1 2150   1.043   0.764   5.048
  564SOL    HW2 2151   0.906   0.769   4.959
  565SOL     OW 2152   0.040   0.544   4.838
  565SOL    HW1 2153   0.125   0.511   4.797
  565SOL    HW2 2154   0.053   0.559   4.936
  566SOL     OW 2155   0.189   0.520   5.446
  566SOL    HW1 2156   0.248   0.480   5.376
  566SOL    HW2 2157   0.131   0.591   5.405
  567SOL     OW 2158   1.369   0.950   5.384
  567SOL    HW1 2159   1.408   1.039   5.404
  567SOL    HW2 2160   1.379   0.930   5.287
  568SOL     OW 2161   0.815   0.572   4.049
  568SOL    HW1 2162   0.822   0.483   4.003
  568SOL    HW2 2163   0.721   0.606   4.041
  569SOL     OW 2164   1.657   0.604   4.930
  569SOL    HW1 2165   1.619   0.535   4.992
  569SOL    HW2 2166   1.739   0.568   4.886
  570SOL     OW 2167   0.252   1.564   5.468
  570SOL    HW1 2168   0.222   1.621   5.544
  570SOL    HW2 2169   0.245   1.467   5.494
  571SOL     OW 2170   0.671   0.464   4.993
  571SOL    HW1 2171   0.637   0.375   4.963
  571SOL    HW2 2172   0.697   0.518   4.913
  572SOL     OW 2173   0.930   1.678   5.189
  572SOL    HW1 2174   0.906   1.660   5.094
  572SOL    HW2 2175   0.960   1.772   5.199
  573SOL     OW 2176   0.473   0.500   3.915
  573SOL    HW1 2177   0.534   0.580   3.919
  573SOL    HW2 2178   0.378   0.531   3.922
  574SOL     OW 2179   0.159   1.137   5.190
  574SOL    HW1 2180   0.181   1.076   5.266
  574SOL    HW2 2181   0.169   1.088   5.104
  575SOL     OW 2182   1.347   1.059   4.958
  575SOL    HW1 2183   1.371   0.996   4.884
  575SOL    HW2 2184   1.257   1.099   4.940
  576SOL     OW 2185   1.302   0.855   4.033
  576SOL    HW1 2186   1.216   0.824   4.075
  576SOL    HW2 2187   1.298   0.841   3.934
  577SOL     OW 2188   1.759   1.747   4.878
  577SOL    HW1 2189   1.820   1.777   4.805
  577SOL    HW2 2190   1.721   1.658   4.856
  578SOL     OW 2191   1.252   1.731   4.852
  578SOL    HW1 2192   1.336   1.736   4.798
  578SOL    HW2 2193   1.229   1.635   4.870
  579SOL     OW 2194   0.083   1.258   4.746
  579SOL    HW1 2195   0.078   1.257   4.846
  579SOL    HW2 2196   0.000   1.217   4.708
  580SOL     OW 2197   0.688   1.662   5.440
  580SOL    HW1 2198   0.632   1.743   5.449
  580SOL    HW2 2199   0.740   1.666   5.354
  581SOL     OW 2200   1.726   0.135   4.247
  581SOL    HW1 2201   1.799   0.118   4.180
  581SOL    HW2 2202   1.695   0.048   4.285
  582SOL     OW 2203   1.388   1.573   4.201
  582SOL    HW1 2204   1.455   1.585   4.127
  582SOL    HW2 2205   1.348   1.662   4.224
  583SOL     OW 2206   0.130   1.794   5.575
  583SOL    HW1 2207   0.089   1.720   5.628
  583SOL    HW2 2208   0.194   1.845   5.633
  584SOL     OW 2209   1.280   0.927   4.396
  584SOL    HW1 2210   1.340   0.846   4.398
  584SOL    HW2 2211   1.320   0.996   4.336
  585SOL     OW 2212   0.830   1.273   5.146
  585SOL    HW1 2213   0.825   1.306   5.241
  585SOL    HW2 2214   0.744   1.292   5.100
  586SOL     OW 2215   0.672   1.616   3.878
  586SOL    HW1 2216   0.681   1.626   3.779
  586SOL    HW2 2217   0.632   1.527   3.899
  587SOL     OW 2218   1.650   1.720   5.118
  587SOL    HW1 2219   1.703   1.730   5.034
  587SOL    HW2 2220   1.623   1.810   5.152
  588SOL     OW 2221   1.841   0.175   4.687
  588SOL    HW1 2222   1.880   0.090   4.651
  588SOL    HW2 2223   1.743   0.177   4.668
  589SOL     OW 2224   0.263   0.326   4.444
  589SOL    HW1 2225   0.184   0.377   4.410
  589SOL    HW2 2226   0.254   0.311   4.542
  590SOL     OW 2227   1.194   1.612   3.755
  590SOL    HW1 2228   1.200   1.519   3.792
  590SOL    HW2 2229   1.135   1.612   3.675
  591SOL     OW 2230   0.822   1.002   5.096
  591SOL    HW1 2231   0.862   1.001   5.004
  591SOL    HW2 2232   0.832   1.094   5.136
  592SOL     OW 2233   0.916   0.910   4.015
  592SOL    HW1 2234   0.979   0.948   3.947
  592SOL    HW2 2235   0.956   0.827   4.054
  593SOL     OW 2236   1.504   1.607   3.768
  593SOL    HW1 2237   1.412   1.644   3.775
  593SOL    HW2 2238   1.542   1.627   3.678
  594SOL     OW 2239   0.372   1.288   5.214
  594SOL    HW1 2240   0.359   1.381   5.180
  594SOL    HW2 2241   0.288   1.236   5.201
  595SOL     OW 2242   1.614   1.292   5.013
  595SOL    HW1 2243   1.674   1.295   5.093
  595SOL    HW2 2244   1.539   1.356   5.026
  596SOL     OW 2245   1.039   1.098   4.420
  596SOL    HW1 2246   0.969   1.051   4.474
  596SOL    HW2 2247   1.098   1.030   4.377
  597SOL     OW 2248   1.014   0.236   4.695
  597SOL    HW1 2249   1.006   0.200   4.602
  597SOL    HW2 2250   1.012   0.160   4.760
  598SOL     OW 2251   0.590   1.487   4.215
  598SOL    HW1 2252   0.632   1.429   4.145
  598SOL    HW2 2253   0.546   1.566   4.171
  599SOL     OW 2254   1.709   0.385   5.105
  599SOL    HW1 2255   1.782   0.454   5.109
  599SOL    HW2 2256   1.737   0.310   5.046
  600SOL     OW 2257   0.255   1.348   4.014
  600SOL    HW1 2258   0.159   1.349   3.987
  600SOL    HW2 2259   0.267   1.401   4.098
  601SOL     OW 2260   0.105   1.013   5.450
  601SOL    HW1 2261   0.028   0.980   5.504
  601SOL    HW2 2262   0.190   0.983   5.492
  602SOL     OW 2263   0.672   0.203   5.213
  602SOL    HW1 2264   0.762   0.187   5.173
  602SOL    HW2 2265   0.680   0.208   5.312
  603SOL     OW 2266   0.075   0.345   3.757
  603SOL    HW1 2267  -0.017   0.317   3.728
  603SOL    HW2 2268   0.106   0.422   3.701
  604SOL     OW 2269   1.440   0.856   5.122
  604SOL    HW1 2270   1.383   0.908   5.059
  604SOL    HW2 2271   1.536   0.868   5.098
  605SOL     OW 2272   0.072   0.166   4.042
  605SOL    HW1 2273   0.055   0.249   3.988
  605SOL    HW2 2274   0.162   0.129   4.020
  606SOL     OW 2275   1.183   1.335   3.843
  606SOL    HW1 2276   1.084   1.324   3.845
  606SOL    HW2 2277   1.217   1.350   3.936
  607SOL     OW 2278   0.613   0.842   5.155
  607SOL    HW1 2279   0.669   0.923   5.138
  607SOL    HW2 2280   0.672   0.762   5.158
  608SOL     OW 2281   1.493   1.767   4.683
  608SOL    HW1 2282   1.526   1.831   4.614
  608SOL    HW2 2283   1.559   1.761   4.758
  609SOL     OW 2284   0.716   0.565   5.432
  609SOL    HW1 2285   0.735   0.630   5.506
  609SOL    HW2 2286   0.776   0.485   5.441
  610SOL     OW 2287   1.450   1.220   5.357
  610SOL    HW1 2288   1.441   1.210   5.456
  610SOL    HW2 2289   1.546   1.213   5.331
  611SOL     OW 2290   0.390   1.741   5.284
  611SOL    HW1 2291   0.299   1.782   5.282
  611SOL    HW2 2292   0.383   1.647   5.316
  612SOL     OW 2293   1.674   0.883   4.978
  612SOL    HW1 2294   1.647   0.794   4.941
  612SOL    HW2 2295   1.675   0.951   4.905
  613SOL     OW 2296   1.225   0.325   4.173
  613SOL    HW1 2297   1.290   0.251   4.162
  613SOL    HW2 2298   1.245   0.375   4.257
  614SOL     OW 2299   0.594   0.745   4.376
  614SOL    HW1 2300   0.644   0.830   4.357
  614SOL    HW2 2301   0.506   0.747   4.328
  615SOL     OW 2302   1.777   0.342   5.366
  615SOL    HW1 2303   1.760   0.373   5.272
  615SOL    HW2 2304   1.693   0.305   5.404
  616SOL     OW 2305   1.730   0.934   5.241
  616SOL    HW1 2306   1.768   1.025   5.256
  616SOL    HW2 2307   1.722   0.917   5.142
  617SOL     OW 2308   0.859   1.374   3.740
  617SOL    HW1 2309   0.813   1.389   3.828
  617SOL    HW2 2310   0.903   1.459   3.710
  618SOL     OW 2311   0.661   1.790   4.677
  618SOL    HW1 2312   0.615   1.878   4.664
  618SOL    HW2 2313   0.760   1.802   4.670
  619SOL     OW 2314   0.859   0.956   4.585
  619SOL    HW1 2315   0.913   0.887   4.633
  619SOL    HW2 2316   0.827   1.025   4.651
  620SOL     OW 2317   1.083   0.984   3.811
  620SOL    HW1 2318   1.060   1.037   3.729
  620SOL    HW2 2319   1.164   0.928   3.792
  621SOL     OW 2320   1.861   1.569   4.575
  621SOL    HW1 2321   1.790   1.557   4.505
  621SOL    HW2 2322   1.862   1.490   4.635
  622SOL     OW 2323   0.221   1.314   5.568
  622SOL    HW1 2324   0.156   1.241   5.547
  622SOL    HW2 2325   0.225   1.328   5.666
  623SOL     OW 2326   0.079   1.240   4.377
  623SOL    HW1 2327   0.078   1.193   4.465
  623SOL    HW2 2328   0.161   1.212   4.326
  624SOL     OW 2329   0.672   1.391   5.348
  624SOL    HW1 2330   0.594   1.341   5.386
  624SOL    HW2 2331   0.669   1.486   5.379
  625SOL     OW 2332   1.824   0.192   4.951
  625SOL    HW1 2333   1.820   0.102   4.995
  625SOL    HW2 2334   1.827   0.181   4.852
  626SOL     OW 2335   0.428   0.424   4.244
  626SOL    HW1 2336   0.458   0.352   4.182
  626SOL    HW2 2337   0.389   0.384   4.327
  627SOL     OW 2338   1.705   1.487   4.828
  627SOL    HW1 2339   1.612   1.462   4.801
  627SOL    HW2 2340   1.731   1.437   4.910
  628SOL     OW 2341   0.317   0.547   5.004
  628SOL    HW1 2342   0.355   0.488   5.076
  628SOL    HW2 2343   0.357   0.521   4.916
  629SOL     OW 2344   0.812   1.586   4.411
  629SOL    HW1 2345   0.844   1.596   4.317
  629SOL    HW2 2346   0.733   1.524   4.413
  630SOL     OW 2347   1.424   0.214   4.836
  630SOL    HW1 2348   1.476   0.149   4.891
  630SOL    HW2 2349   1.375   0.277   4.897
  631SOL     OW 2350   1.001   0.034   4.878
  631SOL    HW1 2351   0.938  -0.038   4.847
  631SOL    HW2 2352   1.094  -0.002   4.878
  632SOL     OW 2353   0.770   1.330   4.025
  632SOL    HW1 2354   0.724   1.243   4.042
  632SOL    HW2 2355   0.861   1.327   4.066
  633SOL     OW 2356   0.618   1.567   5.008
  633SOL    HW1 2357   0.613   1.649   5.065
  633SOL    HW2 2358   0.707   1.564   4.963
  634SOL     OW 2359   1.352   0.052   3.892
  634SOL    HW1 2360   1.387   0.011   3.808
  634SOL    HW2 2361   1.262   0.014   3.912
  635SOL     OW 2362   1.300   0.453   4.415
  635SOL    HW1 2363   1.241   0.533   4.419
  635SOL    HW2 2364   1.315   0.418   4.508
  636SOL     OW 2365   1.593   0.221   4.606
  636SOL    HW1 2366   1.509   0.220   4.660
  636SOL    HW2 2367   1.595   0.304   4.550
  637SOL     OW 2368   0.039   1.077   4.024
  637SOL    HW1 2369   0.138   1.066   4.015
  637SOL    HW2 2370  -0.001   0.991   4.056
  638SOL     OW 2371   0.875   1.646   4.061
  638SOL    HW1 2372   0.798   1.611   4.007
  638SOL    HW2 2373   0.843   1.717   4.123
  639SOL     OW 2374   0.230   0.628   5.699
  639SOL    HW1 2375   0.137   0.626   5.736
  639SOL    HW2 2376   0.231   0.589   5.607
  640SOL     OW 2377   0.225   0.275   6.582
  640SOL    HW1 2378   0.260   0.258   6.674
  640SOL    HW2 2379   0.137   0.230   6.570
  641SOL     OW 2380   0.019   0.368   6.233
  641SOL    HW1 2381  -0.063   0.411   6.272
  641SOL    HW2 2382  -0.009   0.295   6.170
  642SOL     OW 2383   0.569   1.275   6.751
  642SOL    HW1 2384   0.476   1.268   6.714
  642SOL    HW2 2385   0.580   1.364   6.795
  643SOL     OW 2386   1.555   1.511   6.289
  643SOL    HW1 2387   1.498   1.495   6.370
  643SOL    HW2 2388   1.496   1.521   6.209
  644SOL     OW 2389   1.135   0.703   6.303
  644SOL    HW1 2390   1.192   0.781   6.278
  644SOL    HW2 2391   1.075   0.729   6.379
  645SOL     OW 2392   1.755   0.607   5.817
  645SOL    HW1 2393   1.743   0.594   5.718
  645SOL    HW2 2394   1.725   0.526   5.866
  646SOL     OW 2395   0.768   1.144   6.609
  646SOL    HW1 2396   0.690   1.161   6.669
  646SOL    HW2 2397   0.802   1.231   6.573
  647SOL     OW 2398   0.850   0.798   7.409
  647SOL    HW1 2399   0.846   0.874   7.474
  647SOL    HW2 2400   0.872   0.834   7.318
  648SOL     OW 2401   0.685   1.012   6.251
  648SOL    HW1 2402   0.754   0.996   6.321
  648SOL    HW2 2403   0.612   1.069   6.289
  649SOL     OW 2404   0.686   1.161   7.389
  649SOL    HW1 2405   0.746   1.240   7.403
  649SOL    HW2 2406   0.600   1.192   7.348
  650SOL     OW 2407   0.335   1.435   6.647
  650SOL    HW1 2408   0.257   1.404   6.594
  650SOL    HW2 2409   0.393   1.493   6.590
  651SOL     OW 2410   1.460   1.505   6.925
  651SOL    HW1 2411   1.484   1.599   6.951
  651SOL    HW2 2412   1.444   1.451   7.007
  652SOL     OW 2413   0.438   0.392   7.085
  652SOL    HW1 2414   0.520   0.336   7.094
  652SOL    HW2 2415   0.357   0.334   7.089
  653SOL     OW 2416   1.603   0.447   6.323
  653SOL    HW1 2417   1.529   0.493   6.273
  653SOL    HW2 2418   1.654   0.515   6.376
  654SOL     OW 2419   0.231   1.713   6.069
  654SOL    HW1 2420   0.265   1.790   6.123
  654SOL    HW2 2421   0.275   1.713   5.979
  655SOL     OW 2422   1.127   1.341   7.276
  655SOL    HW1 2423   1.174   1.341   7.364
  655SOL    HW2 2424   1.079   1.254   7.265
  656SOL     OW 2425   0.230   1.434   6.124
  656SOL    HW1 2426   0.204   1.530   6.124
  656SOL    HW2 2427   0.159   1.380   6.169
  657SOL     OW 2428   0.240   1.091   6.472
  657SOL    HW1 2429   0.254   1.007   6.524
  657SOL    HW2 2430   0.185   1.155   6.527
  658SOL     OW 2431   0.620   1.786   7.025
  658SOL    HW1 2432   0.528   1.769   7.060
  658SOL    HW2 2433   0.648   1.878   7.051
  659SOL     OW 2434   0.606   0.964   5.709
  659SOL    HW1 2435   0.613   1.048   5.655
  659SOL    HW2 2436   0.652   0.977   5.797
  660SOL     OW 2437   1.594   0.114   7.066
  660SOL    HW1 2438   1.576   0.181   6.994
  660SOL    HW2 2439   1.591   0.160   7.155
  661SOL     OW 2440   0.122   0.643   6.149
  661SOL    HW1 2441   0.077   0.555   6.166
  661SOL    HW2 2442   0.121   0.697   6.233
  662SOL     OW 2443   0.027   1.596   5.703
  662SOL    HW1 2444   0.008   1.500   5.724
  662SOL    HW2 2445  -0.006   1.654   5.778
  663SOL     OW 2446   1.689   0.922   6.198
  663SOL    HW1 2447   1.784   0.893   6.206
  663SOL    HW2 2448   1.681   0.987   6.123
  664SOL     OW 2449   1.641   1.108   6.018
  664SOL    HW1 2450   1.727   1.110   5.966
  664SOL    HW2 2451   1.655   1.155   6.106
  665SOL     OW 2452   0.113   0.737   7.183
  665SOL    HW1 2453   0.201   0.724   7.228
  665SOL    HW2 2454   0.100   0.834   7.161
  666SOL     OW 2455   0.613   1.365   6.312
  666SOL    HW1 2456   0.564   1.278   6.321
  666SOL    HW2 2457   0.590   1.408   6.225
  667SOL     OW 2458   1.293   1.228   7.009
  667SOL    HW1 2459   1.330   1.155   6.951
  667SOL    HW2 2460   1.345   1.233   7.094
  668SOL     OW 2461   0.809   0.004   6.088
  668SOL    HW1 2462   0.849   0.095   6.079
  668SOL    HW2 2463   0.709   0.012   6.094
  669SOL     OW 2464   0.197   0.976   6.850
  669SOL    HW1 2465   0.286   0.931   6.836
  669SOL    HW2 2466   0.124   0.911   6.831
  670SOL     OW 2467   1.525   0.999   5.776
  670SOL    HW1 2468   1.462   0.923   5.789
  670SOL    HW2 2469   1.573   1.017   5.862
  671SOL     OW 2470   1.187   1.792   7.202
  671SOL    HW1 2471   1.211   1.852   7.126
  671SOL    HW2 2472   1.194   1.697   7.172
  672SOL     OW 2473   0.317   0.251   7.387
  672SOL    HW1 2474   0.388   0.322   7.393
  672SOL    HW2 2475   0.229   0.290   7.415
  673SOL     OW 2476   1.466   1.417   6.539
  673SOL    HW1 2477   1.407   1.423   6.619
  673SOL    HW2 2478   1.451   1.329   6.493
  674SOL     OW 2479   1.667   1.714   6.158
  674SOL    HW1 2480   1.626   1.691   6.070
  674SOL    HW2 2481   1.649   1.640   6.223
  675SOL     OW 2482   0.598   0.729   5.856
  675SOL    HW1 2483   0.622   0.798   5.788
  675SOL    HW2 2484   0.520   0.762   5.910
  676SOL     OW 2485   1.281   0.345   6.530
  676SOL    HW1 2486   1.195   0.295   6.517
  676SOL    HW2 2487   1.343   0.291   6.586
  677SOL     OW 2488   1.576   1.662   5.893
  677SOL    HW1 2489   1.665   1.708   5.896
  677SOL    HW2 2490   1.555   1.638   5.798
  678SOL     OW 2491   0.807   0.605   7.051
  678SOL    HW1 2492   0.760   0.602   7.140
  678SOL    HW2 2493   0.756   0.550   6.985
  679SOL     OW 2494   1.394   0.469   7.260
  679SOL    HW1 2495   1.374   0.512   7.348
  679SOL    HW2 2496   1.472   0.407   7.269
  680SOL     OW 2497   0.973   0.890   7.158
  680SOL    HW1 2498   1.019   0.806   7.129
  680SOL    HW2 2499   0.917   0.924   7.083
  681SOL     OW 2500   0.991   0.410   6.828
  681SOL    HW1 2501   0.914   0.444   6.882
  681SOL    HW2 2502   0.957   0.359   6.749
  682SOL     OW 2503   1.041   0.701   6.015
  682SOL    HW1 2504   1.067   0.697   6.111
  682SOL    HW2 2505   0.956   0.650   6.001
  683SOL     OW 2506   0.076   0.811   6.375
  683SOL    HW1 2507   0.175   0.799   6.384
  683SOL    HW2 2508   0.052   0.906   6.396
  684SOL     OW 2509   0.130   1.821   7.157
  684SOL    HW1 2510   0.120   1.806   7.256
  684SOL    HW2 2511   0.044   1.857   7.121
  685SOL     OW 2512   0.865   0.348   5.781
  685SOL    HW1 2513   0.924   0.411   5.732
  685SOL    HW2 2514   0.884   0.254   5.752
  686SOL     OW 2515   1.719   0.585   7.417
  686SOL    HW1 2516   1.693   0.674   7.381
  686SOL    HW2 2517   1.717   0.517   7.344
  687SOL     OW 2518   1.362   1.144   6.131
  687SOL    HW1 2519   1.445   1.115   6.083
  687SOL    HW2 2520   1.313   1.211   6.075
  688SOL     OW 2521   0.550   0.196   6.471
  688SOL    HW1 2522   0.545   0.191   6.571
  688SOL    HW2 2523   0.552   0.292   6.442
  689SOL     OW 2524   1.008   1.456   6.063
  689SOL    HW1 2525   0.962   1.528   6.011
  689SOL    HW2 2526   1.004   1.476   6.161
  690SOL     OW 2527   0.351   1.801   6.439
  690SOL    HW1 2528   0.401   1.715   6.445
  690SOL    HW2 2529   0.416   1.878   6.436
  691SOL     OW 2530   1.795   1.066   6.459
  691SOL    HW1 2531   1.733   1.051   6.383
  691SOL    HW2 2532   1.743   1.077   6.544
  692SOL     OW 2533   1.227   1.550   7.092
  692SOL    HW1 2534   1.233   1.473   7.156
  692SOL    HW2 2535   1.175   1.524   7.012
  693SOL     OW 2536   0.321   0.943   5.828
  693SOL    HW1 2537   0.403   0.982   5.786
  693SOL    HW2 2538   0.294   0.861   5.779
  694SOL     OW 2539   1.458   0.735   6.314
  694SOL    HW1 2540   1.453   0.670   6.389
  694SOL    HW2 2541   1.538   0.794   6.327
  695SOL     OW 2542   0.461   1.266   7.313
  695SOL    HW1 2543   0.411   1.267   7.227
  695SOL    HW2 2544   0.398   1.248   7.389
  696SOL     OW 2545   1.111   1.776   5.823
  696SOL    HW1 2546   1.051   1.714   5.873
  696SOL    HW2 2547   1.142   1.732   5.738
  697SOL     OW 2548   0.202   0.285   7.084
  697SOL    HW1 2549   0.122   0.345   7.071
  697SOL    HW2 2550   0.192   0.236   7.170
  698SOL     OW 2551   1.632   1.377   5.667
  698SOL    HW1 2552   1.600   1.471   5.657
  698SOL    HW2 2553   1.556   1.314   5.655
  699SOL     OW 2554   0.464   1.743   5.909
  699SOL    HW1 2555   0.497   1.782   5.995
  699SOL    HW2 2556   0.540   1.736   5.844
  700SOL     OW 2557   1.400   0.107   6.012
  700SOL    HW1 2558   1.376   0.070   5.922
  700SOL    HW2 2559   1.499   0.123   6.016
  701SOL     OW 2560   0.249   1.785   6.827
  701SOL    HW1 2561   0.306   1.720   6.877
  701SOL    HW2 2562   0.233   1.752   6.734
  702SOL     OW 2563   0.940   1.698   6.490
  702SOL    HW1 2564   1.020   1.641   6.511
  702SOL    HW2 2565   0.891   1.658   6.413
  703SOL     OW 2566   0.382   0.700   6.066
  703SOL    HW1 2567   0.427   0.610   6.063
  703SOL    HW2 2568   0.288   0.689   6.099
  704SOL     OW 2569   1.547   0.222   7.315
  704SOL    HW1 2570   1.542   0.259   7.407
  704SOL    HW2 2571   1.475   0.153   7.303
  705SOL     OW 2572   0.614   0.122   5.703
  705SOL    HW1 2573   0.712   0.100   5.710
  705SOL    HW2 2574   0.583   0.105   5.610
  706SOL     OW 2575   0.781   0.264   7.335
  706SOL    HW1 2576   0.848   0.203   7.378
  706SOL    HW2 2577   0.708   0.283   7.400
  707SOL     OW 2578   0.888   1.514   6.781
  707SOL    HW1 2579   0.865   1.489   6.687
  707SOL    HW2 2580   0.949   1.445   6.820
  708SOL     OW 2581   1.351   0.590   7.019
  708SOL    HW1 2582   1.379   0.547   7.104
  708SOL    HW2 2583   1.376   0.686   7.020
  709SOL     OW 2584   0.803   1.402   6.510
  709SOL    HW1 2585   0.893   1.416   6.468
  709SOL    HW2 2586   0.732   1.404   6.439
  710SOL     OW 2587   0.922   0.503   6.485
  710SOL    HW1 2588   0.897   0.494   6.389
  710SOL    HW2 2589   0.970   0.421   6.516
  711SOL     OW 2590   0.539   0.064   6.098
  711SOL    HW1 2591   0.458   0.065   6.156
  711SOL    HW2 2592   0.542   0.147   6.043
  712SOL     OW 2593   1.434   1.188   5.627
  712SOL    HW1 2594   1.466   1.112   5.684
  712SOL    HW2 2595   1.342   1.215   5.657
  713SOL     OW 2596   0.297   0.035   5.757
  713SOL    HW1 2597   0.346   0.119   5.736
  713SOL    HW2 2598   0.359  -0.030   5.802
  714SOL     OW 2599   0.935   0.236   6.066
  714SOL    HW1 2600   0.887   0.277   5.988
  714SOL    HW2 2601   1.034   0.234   6.047
  715SOL     OW 2602   1.076   0.683   7.050
  715SOL    HW1 2603   0.996   0.622   7.053
  715SOL    HW2 2604   1.157   0.630   7.026
  716SOL     OW 2605   1.227   1.570   6.379
  716SOL    HW1 2606   1.248   1.644   6.314
  716SOL    HW2 2607   1.295   1.570   6.452
  717SOL     OW 2608   0.459   1.152   6.327
  717SOL    HW1 2609   0.388   1.125   6.392
  717SOL    HW2 2610   0.433   1.124   6.234
  718SOL     OW 2611   1.271   1.797   6.177
  718SOL    HW1 2612   1.315   1.861   6.113
  718SOL    HW2 2613   1.221   1.849   6.247
  719SOL     OW 2614   1.032   0.549   5.602
  719SOL    HW1 2615   0.991   0.631   5.563
  719SOL    HW2 2616   1.096   0.575   5.675
  720SOL     OW 2617   0.078   0.556   6.972
  720SOL    HW1 2618   0.170   0.555   6.931
  720SOL    HW2 2619   0.072   0.630   7.039
  721SOL     OW 2620   0.561   0.222   6.733
  721SOL    HW1 2621   0.599   0.138   6.770
  721SOL    HW2 2622   0.473   0.241   6.777
  722SOL     OW 2623   0.866   0.454   6.228
  722SOL    HW1 2624   0.834   0.526   6.166
  722SOL    HW2 2625   0.890   0.373   6.175
  723SOL     OW 2626   1.017   0.039   6.339
  723SOL    HW1 2627   0.945   0.044   6.270
  723SOL    HW2 2628   0.993  -0.030   6.408
  724SOL     OW 2629   1.429   1.173   6.453
  724SOL    HW1 2630   1.374   1.089   6.446
  724SOL    HW2 2631   1.455   1.202   6.361
  725SOL     OW 2632   1.466   0.590   6.578
  725SOL    HW1 2633   1.436   0.495   6.585
  725SOL    HW2 2634   1.539   0.606   6.644
  726SOL     OW 2635   1.857   0.833   5.963
  726SOL    HW1 2636   1.899   0.769   6.027
  726SOL    HW2 2637   1.819   0.782   5.885
  727SOL     OW 2638   0.488   1.385   5.760
  727SOL    HW1 2639   0.401   1.370   5.807
  727SOL    HW2 2640   0.471   1.411   5.665
  728SOL     OW 2641   1.664   1.280   6.243
  728SOL    HW1 2642   1.763   1.288   6.257
  728SOL    HW2 2643   1.619   1.364   6.274
  729SOL     OW 2644   1.390   0.575   5.664
  729SOL    HW1 2645   1.336   0.554   5.745
  729SOL    HW2 2646   1.481   0.534   5.673
  730SOL     OW 2647   0.527   0.256   5.914
  730SOL    HW1 2648   0.554   0.197   5.839
  730SOL    HW2 2649   0.527   0.351   5.883
  731SOL     OW 2650   1.754   1.223   7.174
  731SOL    HW1 2651   1.845   1.184   7.161
  731SOL    HW2 2652   1.762   1.319   7.198
  732SOL     OW 2653   1.064   1.347   6.926
  732SOL    HW1 2654   0.984   1.324   6.981
  732SOL    HW2 2655   1.147   1.321   6.975
  733SOL     OW 2656   1.592   1.629   7.211
  733SOL    HW1 2657   1.619   1.663   7.121
  733SOL    HW2 2658   1.671   1.591   7.257
  734SOL     OW 2659   1.111   1.195   6.686
  734SOL    HW1 2660   1.071   1.239   6.767
  734SOL    HW2 2661   1.070   1.232   6.603
  735SOL     OW 2662   1.638   1.099   6.665
  735SOL    HW1 2663   1.643   1.180   6.724
  735SOL    HW2 2664   1.552   1.101   6.614
  736SOL     OW 2665   0.915   0.089   6.988
  736SOL    HW1 2666   0.940   0.069   6.893
  736SOL    HW2 2667   0.987   0.145   7.030
  737SOL     OW 2668   0.980   1.116   7.305
  737SOL    HW1 2669   0.881   1.122   7.315
  737SOL    HW2 2670   1.003   1.036   7.249
  738SOL     OW 2671   0.705   1.050   5.954
  738SOL    HW1 2672   0.691   1.057   6.053
  738SOL    HW2 2673   0.789   0.999   5.936
  739SOL     OW 2674   0.410   0.813   6.837
  739SOL    HW1 2675   0.496   0.825   6.887
  739SOL    HW2 2676   0.368   0.726   6.864
  740SOL     OW 2677   1.274   0.386   6.848
  740SOL    HW1 2678   1.295   0.460   6.912
  740SOL    HW2 2679   1.185   0.403   6.805
  741SOL     OW 2680   0.064   1.564   6.917
  741SOL    HW1 2681   0.018   1.646   6.883
  741SOL    HW2 2682   0.162   1.583   6.926
  742SOL     OW 2683   0.367   1.100   6.087
  742SOL    HW1 2684   0.360   1.183   6.031
  742SOL    HW2 2685   0.371   1.020   6.027
  743SOL     OW 2686   0.566   0.537   6.451
  743SOL    HW1 2687   0.578   0.603   6.377
  743SOL    HW2 2688   0.612   0.571   6.534
  744SOL     OW 2689   1.252   1.348   5.974
  744SOL    HW1 2690   1.302   1.425   6.014
  744SOL    HW2 2691   1.157   1.350   6.006
  745SOL     OW 2692   1.272   1.445   6.728
  745SOL    HW1 2693   1.319   1.458   6.815
  745SOL    HW2 2694   1.206   1.371   6.737
  746SOL     OW 2695   1.582   0.639   6.058
  746SOL    HW1 2696   1.551   0.700   6.131
  746SOL    HW2 2697   1.632   0.691   5.989
  747SOL     OW 2698   0.354   1.510   6.915
  747SOL    HW1 2699   0.333   1.466   6.828
  747SOL    HW2 2700   0.451   1.536   6.918
  748SOL     OW 2701   0.402   0.751   7.184
  748SOL    HW1 2702   0.470   0.806   7.137
  748SOL    HW2 2703   0.442   0.663   7.211
  749SOL     OW 2704   1.587   0.779   7.256
  749SOL    HW1 2705   1.495   0.817   7.251
  749SOL    HW2 2706   1.647   0.826   7.191
  750SOL     OW 2707   1.013   0.105   7.356
  750SOL    HW1 2708   1.019   0.190   7.304
  750SOL    HW2 2709   1.045   0.029   7.299
  751SOL     OW 2710   0.504   0.050   7.326
  751SOL    HW1 2711   0.462  -0.007   7.256
  751SOL    HW2 2712   0.438   0.119   7.358
  752SOL     OW 2713   0.573   0.870   6.615
  752SOL    HW1 2714   0.617   0.959   6.606
  752SOL    HW2 2715   0.510   0.870   6.692
  753SOL     OW 2716   1.360   0.862   6.631
  753SOL    HW1 2717   1.285   0.862   6.565
  753SOL    HW2 2718   1.397   0.770   6.640
  754SOL     OW 2719   1.209   0.525   5.861
  754SOL    HW1 2720   1.222   0.441   5.915
  754SOL    HW2 2721   1.180   0.599   5.921
  755SOL     OW 2722   0.307   0.213   6.817
  755SOL    HW1 2723   0.284   0.250   6.907
  755SOL    HW2 2724   0.277   0.118   6.811
  756SOL     OW 2725   0.037   1.310   6.868
  756SOL    HW1 2726   0.090   1.261   6.936
  756SOL    HW2 2727   0.059   1.408   6.873
  757SOL     OW 2728   0.732   0.634   6.650
  757SOL    HW1 2729   0.791   0.608   6.574
  757SOL    HW2 2730   0.704   0.730   6.639
  758SOL     OW 2731   1.728   0.935   7.440
  758SOL    HW1 2732   1.682   0.928   7.351
  758SOL    HW2 2733   1.666   0.979   7.506
  759SOL     OW 2734   0.307   0.063   6.204
  759SOL    HW1 2735   0.296   0.157   6.237
  759SOL    HW2 2736   0.302   0.000   6.281
  760SOL     OW 2737   1.622   0.367   5.960
  760SOL    HW1 2738   1.624   0.291   6.024
  760SOL    HW2 2739   1.574   0.444   6.000
  761SOL     OW 2740   1.023   0.766   6.552
  761SOL    HW1 2741   1.038   0.787   6.648
  761SOL    HW2 2742   0.993   0.671   6.543
  762SOL     OW 2743   0.980   1.573   7.286
  762SOL    HW1 2744   0.960   1.617   7.198
  762SOL    HW2 2745   1.019   1.482   7.270
  763SOL     OW 2746   1.859   1.518   7.191
  763SOL    HW1 2747   1.873   1.545   7.096
  763SOL    HW2 2748   1.942   1.540   7.244
  764SOL     OW 2749   0.350   0.898   7.390
  764SOL    HW1 2750   0.426   0.942   7.438
  764SOL    HW2 2751   0.385   0.851   7.308
  765SOL     OW 2752   1.540   0.274   5.711
  765SOL    HW1 2753   1.479   0.199   5.734
  765SOL    HW2 2754   1.562   0.326   5.794
  766SOL     OW 2755   1.303   0.838   5.628
  766SOL    HW1 2756   1.337   0.745   5.643
  766SOL    HW2 2757   1.321   0.865   5.533
  767SOL     OW 2758   1.068   1.333   6.435
  767SOL    HW1 2759   1.075   1.249   6.380
  767SOL    HW2 2760   1.130   1.402   6.399
  768SOL     OW 2761   0.319   0.810   6.535
  768SOL    HW1 2762   0.412   0.846   6.540
  768SOL    HW2 2763   0.313   0.725   6.587
  769SOL     OW 2764   0.339   0.509   6.592
  769SOL    HW1 2765   0.287   0.426   6.575
  769SOL    HW2 2766   0.416   0.514   6.528
  770SOL     OW 2767   1.138   0.380   7.264
  770SOL    HW1 2768   1.093   0.443   7.328
  770SOL    HW2 2769   1.231   0.411   7.247
  771SOL     OW 2770   1.160   0.207   7.063
  771SOL    HW1 2771   1.160   0.271   7.140
  771SOL    HW2 2772   1.188   0.255   6.980
  772SOL     OW 2773   0.008   1.326   5.786
  772SOL    HW1 2774  -0.085   1.347   5.755
  772SOL    HW2 2775   0.018   1.227   5.799
  773SOL     OW 2776   0.088   1.801   6.513
  773SOL    HW1 2777   0.046   1.715   6.486
  773SOL    HW2 2778   0.182   1.804   6.479
  774SOL     OW 2779   0.504   1.568   6.496
  774SOL    HW1 2780   0.570   1.642   6.505
  774SOL    HW2 2781   0.548   1.489   6.454
  775SOL     OW 2782   1.002   0.796   6.824
  775SOL    HW1 2783   1.043   0.764   6.910
  775SOL    HW2 2784   0.906   0.769   6.821
  776SOL     OW 2785   0.040   0.544   6.700
  776SOL    HW1 2786   0.125   0.511   6.659
  776SOL    HW2 2787   0.053   0.559   6.798
  777SOL     OW 2788   0.189   0.520   7.308
  777SOL    HW1 2789   0.248   0.480   7.238
  777SOL    HW2 2790   0.131   0.591   7.267
  778SOL     OW 2791   1.369   0.950   7.246
  778SOL    HW1 2792   1.408   1.039   7.266
  778SOL    HW2 2793   1.379   0.930   7.149
  779SOL     OW 2794   0.815   0.572   5.911
  779SOL    HW1 2795   0.822   0.483   5.865
  779SOL    HW2 2796   0.721   0.606   5.903
  780SOL     OW 2797   1.657   0.604   6.792
  780SOL    HW1 2798   1.619   0.535   6.854
  780SOL    HW2 2799   1.739   0.568   6.748
  781SOL     OW 2800   0.252   1.564   7.330
  781SOL    HW1 2801   0.222   1.621   7.406
  781SOL    HW2 2802   0.245   1.467   7.356
  782SOL     OW 2803   0.671   0.464   6.855
  782SOL    HW1 2804   0.637   0.375   6.825
  782SOL    HW2 2805   0.697   0.518   6.775
  783SOL     OW 2806   0.930   1.678   7.051
  783SOL    HW1 2807   0.906   1.660   6.956
  783SOL    HW2 2808   0.960   1.772   7.061
  784SOL     OW 2809   0.473   0.500   5.777
  784SOL    HW1 2810   0.534   0.580   5.781
  784SOL    HW2 2811   0.378   0.531   5.784
  785SOL     OW 2812   0.159   1.137   7.052
  785SOL    HW1 2813   0.181   1.076   7.128
  785SOL    HW2 2814   0.169   1.088   6.966
  786SOL     OW 2815   1.347   1.059   6.820
  786SOL    HW1 2816   1.371   0.996   6.746
  786SOL    HW2 2817   1.257   1.099   6.802
  787SOL     OW 2818   1.302   0.855   5.895
  787SOL    HW1 2819   1.216   0.824   5.937
  787SOL    HW2 2820   1.298   0.841   5.796
  788SOL     OW 2821   1.759   1.747   6.740
  788SOL    HW1 2822   1.820   1.777   6.667
  788SOL    HW2 2823   1.721   1.658   6.718
  789SOL     OW 2824   1.252   1.731   6.714
  789SOL    HW1 2825   1.336   1.736   6.660
  789SOL    HW2 2826   1.229   1.635   6.732
  790SOL     OW 2827   0.083   1.258   6.608
  790SOL    HW1 2828   0.078   1.257   6.708
  790SOL    HW2 2829   0.000   1.217   6.570
  791SOL     OW 2830   0.688   1.662   7.302
  791SOL    HW1 2831   0.632   1.743   7.311
  791SOL    HW2 2832   0.740   1.666   7.216
  792SOL     OW 2833   1.726   0.135   6.109
  792SOL    HW1 2834   1.799   0.118   6.042
  792SOL    HW2 2835   1.695   0.048   6.147
  793SOL     OW 2836   1.388   1.573   6.063
  793SOL    HW1 2837   1.455   1.585   5.989
  793SOL    HW2 2838   1.348   1.662   6.086
  794SOL     OW 2839   0.130   1.794   7.437
  794SOL    HW1 2840   0.089   1.720   7.490
  794SOL    HW2 2841   0.194   1.845   7.495
  795SOL     OW 2842   1.280   0.927   6.258
  795SOL    HW1 2843   1.340   0.846   6.260
  795SOL    HW2 2844   1.320   0.996   6.198
  796SOL     OW 2845   0.830   1.273   7.008
  796SOL    HW1 2846   0.825   1.306   7.103
  796SOL    HW2 2847   0.744   1.292   6.962
  797SOL     OW 2848   0.672   1.616   5.740
  797SOL    HW1 2849   0.681   1.626   5.641
  797SOL    HW2 2850   0.632   1.527   5.761
  798SOL     OW 2851   1.650   1.720   6.980
  798SOL    HW1 2852   1.703   1.730   6.896
  798SOL    HW2 2853   1.623   1.810   7.014
  799SOL     OW 2854   1.841   0.175   6.549
  799SOL    HW1 2855   1.880   0.090   6.513
  799SOL    HW2 2856   1.743   0.177   6.530
  800SOL     OW 2857   0.263   0.326   6.306
  800SOL    HW1 2858   0.184   0.377   6.272
  800SOL    HW2 2859   0.254   0.311   6.404
  801SOL     OW 2860   1.194   1.612   5.617
  801SOL    HW1 2861   1.200   1.519   5.654
  801SOL    HW2 2862   1.135   1.612   5.537
  802SOL     OW 2863   0.822   1.002   6.958
  802SOL    HW1 2864   0.862   1.001   6.866
  802SOL    HW2 2865   0.832   1.094   6.998
  803SOL     OW 2866   0.916   0.910   5.877
  803SOL    HW1 2867   0.979   0.948   5.809
  803SOL    HW2 2868   0.956   0.827   5.916
  804SOL     OW 2869   1.504   1.607   5.630
  804SOL    HW1 2870   1.412   1.644   5.637
  804SOL    HW2 2871   1.542   1.627   5.540
  805SOL     OW 2872   0.372   1.288   7.076
  805SOL    HW1 2873   0.359   1.381   7.042
  805SOL    HW2 2874   0.288   1.236   7.063
  806SOL     OW 2875   1.614   1.292   6.875
  806SOL    HW1 2876   1.674   1.295   6.955
  806SOL    HW2 2877   1.539   1.356   6.888
  807SOL     OW 2878   1.039   1.098   6.282
  807SOL    HW1 2879   0.969   1.051   6.336
  807SOL    HW2 2880   1.098   1.030   6.239
  808SOL     OW 2881   1.014   0.236   6.557
  808SOL    HW1 2882   1.006   0.200   6.464
  808SOL    HW2 2883   1.012   0.160   6.622
  809SOL     OW 2884   0.590   1.487   6.077
  809SOL    HW1 2885   0.632   1.429   6.007
  809SOL    HW2 2886   0.546   1.566   6.033
  810SOL     OW 2887   1.709   0.385   6.967
  810SOL    HW1 2888   1.782   0.454   6.971
  810SOL    HW2 2889   1.737   0.310   6.908
  811SOL     OW 2890   0.255   1.348   5.876
  811SOL    HW1 2891   0.159   1.349   5.849
  811SOL    HW2 2892   0.267   1.401   5.960
  812SOL     OW 2893   0.105   1.013   7.312
  812SOL    HW1 2894   0.028   0.980   7.366
  812SOL    HW2 2895   0.190   0.983   7.354
  813SOL     OW 2896   0.672   0.203   7.075
  813SOL    HW1 2897   0.762   0.187   7.035
  813SOL    HW2 2898   0.680   0.208   7.174
  814SOL     OW 2899   0.075   0.345   5.619
  814SOL    HW1 2900  -0.017   0.317   5.590
  814SOL    HW2 2901   0.106   0.422   5.563
  815SOL     OW 2902   1.440   0.856   6.984
  815SOL    HW1 2903   1.383   0.908   6.921
  815SOL    HW2 2904   1.536   0.868   6.960
  816SOL     OW 2905   0.072   0.166   5.904
  816SOL    HW1 2906   0.055   0.249   5.850
  816SOL    HW2 2907   0.162   0.129   5.882
  817SOL     OW 2908   1.183   1.335   5.705
  817SOL    HW1 2909   1.084   1.324   5.707
  817SOL    HW2 2910   1.217   1.350   5.798
  818SOL     OW 2911   0.613   0.842   7.017
  818SOL    HW1 2912   0.669   0.923   7.000
  818SOL    HW2 2913   0.672   0.762   7.020
  819SOL     OW 2914   1.493   1.767   6.545
  819SOL    HW1 2915   1.526   1.831   6.476
  819SOL    HW2 2916   1.559   1.761   6.620
  820SOL     OW 2917   0.716   0.565   7.294
  820SOL    HW1 2918   0.735   0.630   7.368
  820SOL    HW2 2919   0.776   0.485   7.303
  821SOL     OW 2920   1.450   1.220   7.219
  821SOL    HW1 2921   1.441   1.210   7.318
  821SOL    HW2 2922   1.546   1.213   7.193
  822SOL     OW 2923   0.390   1.741   7.146
  822SOL    HW1 2924   0.299   1.782   7.144
  822SOL    HW2 2925   0.383   1.647   7.178
  823SOL     OW 2926   1.674   0.883   6.840
  823SOL    HW1 2927   1.647   0.794   6.803
  823SOL    HW2 2928   1.675   0.951   6.767
  824SOL     OW 2929   1.225   0.325   6.035
  824SOL    HW1 2930   1.290   0.251   6.024
  824SOL    HW2 2931   1.245   0.375   6.119
  825SOL     OW 2932   0.594   0.745   6.238
  825SOL    HW1 2933   0.644   0.830   6.219
  825SOL    HW2 2934   0.506   0.747   6.190
  826SOL     OW 2935   1.777   0.342   7.228
  826SOL    HW1 2936   1.760   0.373   7.134
  826SOL    HW2 2937   1.693   0.305   7.266
  827SOL     OW 2938   1.730   0.934   7.103
  827SOL    HW1 2939   1.768   1.025   7.118
  827SOL    HW2 2940   1.722   0.917   7.004
  828SOL     OW 2941   0.859   1.374   5.602
  828SOL    HW1 2942   0.813   1.389   5.690
  828SOL    HW2 2943   0.903   1.459   5.572
  829SOL     OW 2944   0.661   1.790   6.539
  829SOL    HW1 2945   0.615   1.878   6.526
  829SOL    HW2 2946   0.760   1.802   6.532
  830SOL     OW 2947   0.859   0.956   6.447
  830SOL    HW1 2948   0.913   0.887   6.495
  830SOL    HW2 2949   0.827   1.025   6.513
  831SOL     OW 2950   1.083   0.984   5.673
  831SOL    HW1 2951   1.060   1.037   5.591
  831SOL    HW2 2952   1.164   0.928   5.654
  832SOL     OW 2953   1.861   1.569   6.437
  832SOL    HW1 2954   1.790   1.557   6.367
  832SOL    HW2 2955   1.862   1.490   6.497
  833SOL     OW 2956   0.221   1.314   7.430
  833SOL    HW1 2957   0.156   1.241   7.409
  833SOL    HW2 2958   0.225   1.328   7.528
  834SOL     OW 2959   0.079   1.240   6.239
  834SOL    HW1 2960   0.078   1.193   6.327
  834SOL    HW2 2961   0.161   1.212   6.188
  835SOL     OW 2962   0.672   1.391   7.210
  835SOL    HW1 2963   0.594   1.341   7.248
  835SOL    HW2 2964   0.669   1.486   7.241
  836SOL     OW 2965   1.824   0.192   6.813
  836SOL    HW1 2966   1.820   0.102   6.857
  836SOL    HW2 2967   1.827   0.181   6.714
  837SOL     OW 2968   0.428   0.424   6.106
  837SOL    HW1 2969   0.458   0.352   6.044
  837SOL    HW2 2970   0.389   0.384   6.189
  838SOL     OW 2971   1.705   1.487   6.690
  838SOL    HW1 2972   1.612   1.462   6.663
  838SOL    HW2 2973   1.731   1.437   6.772
  839SOL     OW 2974   0.317   0.547   6.866
  839SOL    HW1 2975   0.355   0.488   6.938
  839SOL    HW2 2976   0.357   0.521   6.778
  840SOL     OW 2977   0.812   1.586   6.273
  840SOL    HW1 2978   0.844   1.596   6.179
  840SOL    HW2 2979   0.733   1.524   6.275
  841SOL     OW 2980   1.424   0.214   6.698
  841SOL    HW1 2981   1.476   0.149   6.753
  841SOL    HW2 2982   1.375   0.277   6.759
  842SOL     OW 2983   1.001   0.034   6.740
  842SOL    HW1 2984   0.938  -0.038   6.709
  842SOL    HW2 2985   1.094  -0.002   6.740
  843SOL     OW 2986   0.770   1.330   5.887
  843SOL    HW1 2987   0.724   1.243   5.904
  843SOL    HW2 2988   0.861   1.327   5.928
  844SOL     OW 2989   0.618   1.567   6.870
  844SOL    HW1 2990   0.613   1.649   6.927
  844SOL    HW2 2991   0.707   1.564   6.825
  845SOL     OW 2992   1.352   0.052   5.754
  845SOL    HW1 2993   1.387   0.011   5.670
  845SOL    HW2 2994   1.262   0.014   5.774
  846SOL     OW 2995   1.300   0.453   6.277
  846SOL    HW1 2996   1.241   0.533   6.281
  846SOL    HW2 2997   1.315   0.418   6.370
  847SOL     OW 2998   1.593   0.221   6.468
  847SOL    HW1 2999   1.509   0.220   6.522
  847SOL    HW2 3000   1.595   0.304   6.412
  848SOL     OW 3001   0.039   1.077   5.886
  848SOL    HW1 3002   0.138   1.066   5.877
  848SOL    HW2 3003  -0.001   0.991   5.918
  849SOL     OW 3004   0.875   1.646   5.923
  849SOL    HW1 3005   0.798   1.611   5.869
  849SOL    HW2 3006   0.843   1.717   5.985
  850SOL     OW 3007   0.230   0.628   7.561
  850SOL    HW1 3008   0.137   0.626   7.598
  850SOL    HW2 3009   0.231   0.589   7.469
  851SOL     OW 3010   0.225   0.275   8.444
  851SOL    HW1 3011   0.260   0.258   8.536
  851SOL    HW2 3012   0.137   0.230   8.432
  852SOL     OW 3013   0.019   0.368   8.095
  852SOL    HW1 3014  -0.063   0.411   8.134
  852SOL    HW2 3015  -0.009   0.295   8.032
  853SOL     OW 3016   0.569   1.275   8.613
  853SOL    HW1 3017   0.476   1.268   8.576
  853SOL    HW2 3018   0.580   1.364   8.657
  854SOL     OW 3019   1.555   1.511   8.151
  854SOL    HW1 3020   1.498   1.495   8.232
  854SOL    HW2 3021   1.496   1.521   8.071
  855SOL     OW 3022   1.135   0.703   8.165
  855SOL    HW1 3023   1.192   0.781   8.140
  855SOL    HW2 3024   1.075   0.729   8.241
  856SOL     OW 3025   1.755   0.607   7.679
  856SOL    HW1 3026   1.743   0.594   7.580
  856SOL    HW2 3027   1.725   0.526   7.728
  857SOL     OW 3028   0.768   1.144   8.471
  857SOL    HW1 3029   0.690   1.161   8.531
  857SOL    HW2 3030   0.802   1.231   8.435
  858SOL     OW 3031   0.850   0.798   9.271
  858SOL    HW1 3032   0.846   0.874   9.336
  858SOL    HW2 3033   0.872   0.834   9.180
  859SOL     OW 3034   0.685   1.012   8.113
  859SOL    HW1 3035   0.754   0.996   8.183
  859SOL    HW2 3036   0.612   1.069   8.151
  860SOL     OW 3037   0.686   1.161   9.251
  860SOL    HW1 3038   0.746   1.240   9.265
  860SOL    HW2 3039   0.600   1.192   9.210
  861SOL     OW 3040   0.335   1.435   8.509
  861SOL    HW1 3041   0.257   1.404   8.456
  861SOL    HW2 3042   0.393   1.493   8.452
  862SOL     OW 3043   1.460   1.505   8.787
  862SOL    HW1 3044   1.484   1.599   8.813
  862SOL    HW2 3045   1.444   1.451   8.869
  863SOL     OW 3046   0.438   0.392   8.947
  863SOL    HW1 3047   0.520   0.336   8.956
  863SOL    HW2 3048   0.357   0.334   8.951
  864SOL     OW 3049   1.603   0.447   8.185
  864SOL    HW1 3050   1.529   0.493   8.135
  864SOL    HW2 3051   1.654   0.515   8.238
  865SOL     OW 3052   0.231   1.713   7.931
  865SOL    HW1 3053   0.265   1.790   7.985
  865SOL    HW2 3054   0.275   1.713   7.841
  866SOL     OW 3055   1.127   1.341   9.138
  866SOL    HW1 3056   1.174   1.341   9.226
  866SOL    HW2 3057   1.079   1.254   9.127
  867SOL     OW 3058   0.230   1.434   7.986
  867SOL    HW1 3059   0.204   1.530   7.986
  867SOL    HW2 3060   0.159   1.380   8.031
  868SOL     OW 3061   0.240   1.091   8.334
  868SOL    HW1 3062   0.254   1.007   8.386
  868SOL    HW2 3063   0.185   1.155   8.389
  869SOL     OW 3064   0.620   1.786   8.887
  869SOL    HW1 3065   0.528   1.769   8.922
  869SOL    HW2 3066   0.648   1.878   8.913
  870SOL     OW 3067   0.606   0.964   7.571
  870SOL    HW1 3068   0.613   1.048   7.517
  870SOL    HW2 3069   0.652   0.977   7.659
  871SOL     OW 3070   1.594   0.114   8.928
  871SOL    HW1 3071   1.576   0.181   8.856
  871SOL    HW2 3072   1.591   0.160   9.017
  872SOL     OW 3073   0.122   0.643   8.011
  872SOL    HW1 3074   0.077   0.555   8.028
  872SOL    HW2 3075   0.121   0.697   8.095
  873SOL     OW 3076   1.842   1.767   7.807
  873SOL    HW1 3077   1.896   1.738   7.887
  873SOL    HW2 3078   1.872   1.857   7.778
  874SOL     OW 3079   0.027   1.596   7.565
  874SOL    HW1 3080   0.008   1.500   7.586
  874SOL    HW2 3081  -0.006   1.654   7.640
  875SOL     OW 3082   1.689   0.922   8.060
  875SOL    HW1 3083   1.784   0.893   8.068
  875SOL    HW2 3084   1.681   0.987   7.985
  876SOL     OW 3085   1.641   1.108   7.880
  876SOL    HW1 3086   1.727   1.110   7.828
  876SOL    HW2 3087   1.655   1.155   7.968
  877SOL     OW 3088   0.113   0.737   9.045
  877SOL    HW1 3089   0.201   0.724   9.090
  877SOL    HW2 3090   0.100   0.834   9.023
  878SOL     OW 3091   0.613   1.365   8.174
  878SOL    HW1 3092   0.564   1.278   8.183
  878SOL    HW2 3093   0.590   1.408   8.087
  879SOL     OW 3094   1.293   1.228   8.871
  879SOL    HW1 3095   1.330   1.155   8.813
  879SOL    HW2 3096   1.345   1.233   8.956
  880SOL     OW 3097   0.809   0.004   7.950
  880SOL    HW1 3098   0.849   0.095   7.941
  880SOL    HW2 3099   0.709   0.012   7.956
  881SOL     OW 3100   0.197   0.976   8.712
  881SOL    HW1 3101   0.286   0.931   8.698
  881SOL    HW2 3102   0.124   0.911   8.693
  882SOL     OW 3103   1.525   0.999   7.638
  882SOL    HW1 3104   1.462   0.923   7.651
  882SOL    HW2 3105   1.573   1.017   7.724
  883SOL     OW 3106   1.187   1.792   9.064
  883SOL    HW1 3107   1.211   1.852   8.988
  883SOL    HW2 3108   1.194   1.697   9.034
  884SOL     OW 3109   0.317   0.251   9.249
  884SOL    HW1 3110   0.388   0.322   9.255
  884SOL    HW2 3111   0.229   0.290   9.277
  885SOL     OW 3112   1.466   1.417   8.401
  885SOL    HW1 3113   1.407   1.423   8.481
  885SOL    HW2 3114   1.451   1.329   8.355
  886SOL     OW 3115   1.667   1.714   8.020
  886SOL    HW1 3116   1.626   1.691   7.932
  886SOL    HW2 3117   1.649   1.640   8.085
  887SOL     OW 3118   0.598   0.729   7.718
  887SOL    HW1 3119   0.622   0.798   7.650
  887SOL    HW2 3120   0.520   0.762   7.772
  888SOL     OW 3121   1.281   0.345   8.392
  888SOL    HW1 3122   1.195   0.295   8.379
  888SOL    HW2 3123   1.343   0.291   8.448
  889SOL     OW 3124   1.576   1.662   7.755
  889SOL    HW1 3125   1.665   1.708   7.758
  889SOL    HW2 3126   1.555   1.638   7.660
  890SOL     OW 3127   0.807   0.605   8.913
  890SOL    HW1 3128   0.760   0.602   9.002
  890SOL    HW2 3129   0.756   0.550   8.847
  891SOL     OW 3130   1.394   0.469   9.122
  891SOL    HW1 3131   1.374   0.512   9.210
  891SOL    HW2 3132   1.472   0.407   9.131
  892SOL     OW 3133   0.973   0.890   9.020
  892SOL    HW1 3134   1.019   0.806   8.991
  892SOL    HW2 3135   0.917   0.924   8.945
  893SOL     OW 3136   0.991   0.410   8.690
  893SOL    HW1 3137   0.914   0.444   8.744
  893SOL    HW2 3138   0.957   0.359   8.611
  894SOL     OW 3139   1.041   0.701   7.877
  894SOL    HW1 3140   1.067   0.697   7.973
  894SOL    HW2 3141   0.956   0.650   7.863
  895SOL     OW 3142   0.076   0.811   8.237
  895SOL    HW1 3143   0.175   0.799   8.246
  895SOL    HW2 3144   0.052   0.906   8.258
  896SOL     OW 3145   0.130   1.821   9.019
  896SOL    HW1 3146   0.120   1.806   9.118
  896SOL    HW2 3147   0.044   1.857   8.983
  897SOL     OW 3148   0.865   0.348   7.643
  897SOL    HW1 3149   0.924   0.411   7.594
  897SOL    HW2 3150   0.884   0.254   7.614
  898SOL     OW 3151   1.719   0.585   9.279
  898SOL    HW1 3152   1.693   0.674   9.243
  898SOL    HW2 3153   1.717   0.517   9.206
  899SOL     OW 3154   1.362   1.144   7.993
  899SOL    HW1 3155   1.445   1.115   7.945
  899SOL    HW2 3156   1.313   1.211   7.937
  900SOL     OW 3157   0.550   0.196   8.333
  900SOL    HW1 3158   0.545   0.191   8.433
  900SOL    HW2 3159   0.552   0.292   8.304
  901SOL     OW 3160   1.008   1.456   7.925
  901SOL    HW1 3161   0.962   1.528   7.873
  901SOL    HW2 3162   1.004   1.476   8.023
  902SOL     OW 3163   0.351   1.801   8.301
  902SOL    HW1 3164   0.401   1.715   8.307
  902SOL    HW2 3165   0.416   1.878   8.298
  903SOL     OW 3166   1.795   1.066   8.321
  903SOL    HW1 3167   1.733   1.051   8.245
  903SOL    HW2 3168   1.743   1.077   8.406
  904SOL     OW 3169   1.227   1.550   8.954
  904SOL    HW1 3170   1.233   1.473   9.018
  904SOL    HW2 3171   1.175   1.524   8.874
  905SOL     OW 3172   0.321   0.943   7.690
  905SOL    HW1 3173   0.403   0.982   7.648
  905SOL    HW2 3174   0.294   0.861   7.641
  906SOL     OW 3175   1.458   0.735   8.176
  906SOL    HW1 3176   1.453   0.670   8.251
  906SOL    HW2 3177   1.538   0.794   8.189
  907SOL     OW 3178   0.461   1.266   9.175
  907SOL    HW1 3179   0.411   1.267   9.089
  907SOL    HW2 3180   0.398   1.248   9.251
  908SOL     OW 3181   1.111   1.776   7.685
  908SOL    HW1 3182   1.051   1.714   7.735
  908SOL    HW2 3183   1.142   1.732   7.600
  909SOL     OW 3184   0.202   0.285   8.946
  909SOL    HW1 3185   0.122   0.345   8.933
  909SOL    HW2 3186   0.192   0.236   9.032
  910SOL     OW 3187   1.632   1.377   7.529
  910SOL    HW1 3188   1.600   1.471   7.519
  910SOL    HW2 3189   1.556   1.314   7.517
  911SOL     OW 3190   0.464   1.743   7.771
  911SOL    HW1 3191   0.497   1.782   7.857
  911SOL    HW2 3192   0.540   1.736   7.706
  912SOL     OW 3193   1.400   0.107   7.874
  912SOL    HW1 3194   1.376   0.070   7.784
  912SOL    HW2 3195   1.499   0.123   7.878
  913SOL     OW 3196   0.249   1.785   8.689
  913SOL    HW1 3197   0.306   1.720   8.739
  913SOL    HW2 3198   0.233   1.752   8.596
  914SOL     OW 3199   0.940   1.698   8.352
  914SOL    HW1 3200   1.020   1.641   8.373
  914SOL    HW2 3201   0.891   1.658   8.275
  915SOL     OW 3202   0.382   0.700   7.928
  915SOL    HW1 3203   0.427   0.610   7.925
  915SOL    HW2 3204   0.288   0.689   7.961
  916SOL     OW 3205   1.547   0.222   9.177
  916SOL    HW1 3206   1.542   0.259   9.269
  916SOL    HW2 3207   1.475   0.153   9.165
  917SOL     OW 3208   0.614   0.122   7.565
  917SOL    HW1 3209   0.712   0.100   7.572
  917SOL    HW2 3210   0.583   0.105   7.472
  918SOL     OW 3211   0.781   0.264   9.197
  918SOL    HW1 3212   0.848   0.203   9.240
  918SOL    HW2 3213   0.708   0.283   9.262
  919SOL     OW 3214   0.888   1.514   8.643
  919SOL    HW1 3215   0.865   1.489   8.549
  919SOL    HW2 3216   0.949   1.445   8.682
  920SOL     OW 3217   1.351   0.590   8.881
  920SOL    HW1 3218   1.379   0.547   8.966
  920SOL    HW2 3219   1.376   0.686   8.882
  921SOL     OW 3220   0.803   1.402   8.372
  921SOL    HW1 3221   0.893   1.416   8.330
  921SOL    HW2 3222   0.732   1.404   8.301
  922SOL     OW 3223   0.922   0.503   8.347
  922SOL    HW1 3224   0.897   0.494   8.251
  922SOL    HW2 3225   0.970   0.421   8.378
  923SOL     OW 3226   0.539   0.064   7.960
  923SOL    HW1 3227   0.458   0.065   8.018
  923SOL    HW2 3228   0.542   0.147   7.905
  924SOL     OW 3229   1.434   1.188   7.489
  924SOL    HW1 3230   1.466   1.112   7.546
  924SOL    HW2 3231   1.342   1.215   7.519
  925SOL     OW 3232   0.297   0.035   7.619
  925SOL    HW1 3233   0.346   0.119   7.598
  925SOL    HW2 3234   0.359  -0.030   7.664
  926SOL     OW 3235   0.935   0.236   7.928
  926SOL    HW1 3236   0.887   0.277   7.850
  926SOL    HW2 3237   1.034   0.234   7.909
  927SOL     OW 3238   1.076   0.683   8.912
  927SOL    HW1 3239   0.996   0.622   8.915
  927SOL    HW2 3240   1.157   0.630   8.888
  928SOL     OW 3241   1.227   1.570   8.241
  928SOL    HW1 3242   1.248   1.644   8.176
  928SOL    HW2 3243   1.295   1.570   8.314
  929SOL     OW 3244   0.459   1.152   8.189
  929SOL    HW1 3245   0.388   1.125   8.254
  929SOL    HW2 3246   0.433   1.124   8.096
  930SOL     OW 3247   1.271   1.797   8.039
  930SOL    HW1 3248   1.315   1.861   7.975
  930SOL    HW2 3249   1.221   1.849   8.109
  931SOL     OW 3250   1.032   0.549   7.464
  931SOL    HW1 3251   0.991   0.631   7.425
  931SOL    HW2 3252   1.096   0.575   7.537
  932SOL     OW 3253   0.078   0.556   8.834
  932SOL    HW1 3254   0.170   0.555   8.793
  932SOL    HW2 3255   0.072   0.630   8.901
  933SOL     OW 3256   0.561   0.222   8.595
  933SOL    HW1 3257   0.599   0.138   8.632
  933SOL    HW2 3258   0.473   0.241   8.639
  934SOL     OW 3259   0.866   0.454   8.090
  934SOL    HW1 3260   0.834   0.526   8.028
  934SOL    HW2 3261   0.890   0.373   8.037
  935SOL     OW 3262   1.017   0.039   8.201
  935SOL    HW1 3263   0.945   0.044   8.132
  935SOL    HW2 3264   0.993  -0.030   8.270
  936SOL     OW 3265   1.429   1.173   8.315
  936SOL    HW1 3266   1.374   1.089   8.308
  936SOL    HW2 3267   1.455   1.202   8.223
  937SOL     OW 3268   1.466   0.590   8.440
  937SOL    HW1 3269   1.436   0.495   8.447
  937SOL    HW2 3270   1.539   0.606   8.506
  938SOL     OW 3271   1.857   0.833   7.825
  938SOL    HW1 3272   1.899   0.769   7.889
  938SOL    HW2 3273   1.819   0.782   7.747
  939SOL     OW 3274   0.488   1.385   7.622
  939SOL    HW1 3275   0.401   1.370   7.669
  939SOL    HW2 3276   0.471   1.411   7.527
  940SOL     OW 3277   1.664   1.280   8.105
  940SOL    HW1 3278   1.763   1.288   8.119
  940SOL    HW2 3279   1.619   1.364   8.136
  941SOL     OW 3280   1.390   0.575   7.526
  941SOL    HW1 3281   1.336   0.554   7.607
  941SOL    HW2 3282   1.481   0.534   7.535
  942SOL     OW 3283   0.527   0.256   7.776
  942SOL    HW1 3284   0.554   0.197   7.701
  942SOL    HW2 3285   0.527   0.351   7.745
  943SOL     OW 3286   1.754   1.223   9.036
  943SOL    HW1 3287   1.845   1.184   9.023
  943SOL    HW2 3288   1.762   1.319   9.060
  944SOL     OW 3289   1.064   1.347   8.788
  944SOL    HW1 3290   0.984   1.324   8.843
  944SOL    HW2 3291   1.147   1.321   8.837
  945SOL     OW 3292   1.592   1.629   9.073
  945SOL    HW1 3293   1.619   1.663   8.983
  945SOL    HW2 3294   1.671   1.591   9.119
  946SOL     OW 3295   1.111   1.195   8.548
  946SOL    HW1 3296   1.071   1.239   8.629
  946SOL    HW2 3297   1.070   1.232   8.465
  947SOL     OW 3298   1.638   1.099   8.527
  947SOL    HW1 3299   1.643   1.180   8.586
  947SOL    HW2 3300   1.552   1.101   8.476
  948SOL     OW 3301   0.915   0.089   8.850
  948SOL    HW1 3302   0.940   0.069   8.755
  948SOL    HW2 3303   0.987   0.145   8.892
  949SOL     OW 3304   0.980   1.116   9.167
  949SOL    HW1 3305   0.881   1.122   9.177
  949SOL    HW2 3306   1.003   1.036   9.111
  950SOL     OW 3307   0.705   1.050   7.816
  950SOL    HW1 3308   0.691   1.057   7.915
  950SOL    HW2 3309   0.789   0.999   7.798
  951SOL     OW 3310   0.410   0.813   8.699
  951SOL    HW1 3311   0.496   0.825   8.749
  951SOL    HW2 3312   0.368   0.726   8.726
  952SOL     OW 3313   1.274   0.386   8.710
  952SOL    HW1 3314   1.295   0.460   8.774
  952SOL    HW2 3315   1.185   0.403   8.667
  953SOL     OW 3316   0.064   1.564   8.779
  953SOL    HW1 3317   0.018   1.646   8.745
  953SOL    HW2 3318   0.162   1.583   8.788
  954SOL     OW 3319   0.367   1.100   7.949
  954SOL    HW1 3320   0.360   1.183   7.893
  954SOL    HW2 3321   0.371   1.020   7.889
  955SOL     OW 3322   0.566   0.537   8.313
  955SOL    HW1 3323   0.578   0.603   8.239
  955SOL    HW2 3324   0.612   0.571   8.396
  956SOL     OW 3325   1.252   1.348   7.836
  956SOL    HW1 3326   1.302   1.425   7.876
  956SOL    HW2 3327   1.157   1.350   7.868
  957SOL     OW 3328   1.272   1.445   8.590
  957SOL    HW1 3329   1.319   1.458   8.677
  957SOL    HW2 3330   1.206   1.371   8.599
  958SOL     OW 3331   1.582   0.639   7.920
  958SOL    HW1 3332   1.551   0.700   7.993
  958SOL    HW2 3333   1.632   0.691   7.851
  959SOL     OW 3334   0.354   1.510   8.777
  959SOL    HW1 3335   0.333   1.466   8.690
  959SOL    HW2 3336   0.451   1.536   8.780
  960SOL     OW 3337   0.402   0.751   9.046
  960SOL    HW1 3338   0.470   0.806   8.999
  960SOL    HW2 3339   0.442   0.663   9.073
  961SOL     OW 3340   1.587   0.779   9.118
  961SOL    HW1 3341   1.495   0.817   9.113
  961SOL    HW2 3342   1.647   0.826   9.053
  962SOL     OW 3343   1.013   0.105   9.218
  962SOL    HW1 3344   1.019   0.190   9.166
  962SOL    HW2 3345   1.045   0.029   9.161
  963SOL     OW 3346   0.504   0.050   9.188
  963SOL    HW1 3347   0.462  -0.007   9.118
  963SOL    HW2 3348   0.438   0.119   9.220
  964SOL     OW 3349   0.573   0.870   8.477
  964SOL    HW1 3350   0.617   0.959   8.468
  964SOL    HW2 3351   0.510   0.870   8.554
  965SOL     OW 3352   1.360   0.862   8.493
  965SOL    HW1 3353   1.285   0.862   8.427
  965SOL    HW2 3354   1.397   0.770   8.502
  966SOL     OW 3355   1.209   0.525   7.723
  966SOL    HW1 3356   1.222   0.441   7.777
  966SOL    HW2 3357   1.180   0.599   7.783
  967SOL     OW 3358   0.307   0.213   8.679
  967SOL    HW1 3359   0.284   0.250   8.769
  967SOL    HW2 3360   0.277   0.118   8.673
  968SOL     OW 3361   0.037   1.310   8.730
  968SOL    HW1 3362   0.090   1.261   8.798
  968SOL    HW2 3363   0.059   1.408   8.735
  969SOL     OW 3364   0.732   0.634   8.512
  969SOL    HW1 3365   0.791   0.608   8.436
  969SOL    HW2 3366   0.704   0.730   8.501
  970SOL     OW 3367   1.728   0.935   9.302
  970SOL    HW1 3368   1.682   0.928   9.213
  970SOL    HW2 3369   1.666   0.979   9.368
  971SOL     OW 3370   0.307   0.063   8.066
  971SOL    HW1 3371   0.296   0.157   8.099
  971SOL    HW2 3372   0.302   0.000   8.143
  972SOL     OW 3373   1.622   0.367   7.822
  972SOL    HW1 3374   1.624   0.291   7.886
  972SOL    HW2 3375   1.574   0.444   7.862
  973SOL     OW 3376   1.023   0.766   8.414
  973SOL    HW1 3377   1.038   0.787   8.510
  973SOL    HW2 3378   0.993   0.671   8.405
  974SOL     OW 3379   0.980   1.573   9.148
  974SOL    HW1 3380   0.960   1.617   9.060
  974SOL    HW2 3381   1.019   1.482   9.132
  975SOL     OW 3382   1.859   1.518   9.053
  975SOL    HW1 3383   1.873   1.545   8.958
  975SOL    HW2 3384   1.942   1.540   9.106
  976SOL     OW 3385   0.350   0.898   9.252
  976SOL    HW1 3386   0.426   0.942   9.300
  976SOL    HW2 3387   0.385   0.851   9.170
  977SOL     OW 3388   1.540   0.274   7.573
  977SOL    HW1 3389   1.479   0.199   7.596
  977SOL    HW2 3390   1.562   0.326   7.656
  978SOL     OW 3391   1.303   0.838   7.490
  978SOL    HW1 3392   1.337   0.745   7.505
  978SOL    HW2 3393   1.321   0.865   7.395
  979SOL     OW 3394   1.068   1.333   8.297
  979SOL    HW1 3395   1.075   1.249   8.242
  979SOL    HW2 3396   1.130   1.402   8.261
  980SOL     OW 3397   0.319   0.810   8.397
  980SOL    HW1 3398   0.412   0.846   8.402
  980SOL    HW2 3399   0.313   0.725   8.449
  981SOL     OW 3400   0.339   0.509   8.454
  981SOL    HW1 3401   0.287   0.426   8.437
  981SOL    HW2 3402   0.416   0.514   8.390
  982SOL     OW 3403   1.138   0.380   9.126
  982SOL    HW1 3404   1.093   0.443   9.190
  982SOL    HW2 3405   1.231   0.411   9.109
  983SOL     OW 3406   1.160   0.207   8.925
  983SOL    HW1 3407   1.160   0.271   9.002
  983SOL    HW2 3408   1.188   0.255   8.842
  984SOL     OW 3409   0.008   1.326   7.648
  984SOL    HW1 3410  -0.085   1.347   7.617
  984SOL    HW2 3411   0.018   1.227   7.661
  985SOL     OW 3412   0.088   1.801   8.375
  985SOL    HW1 3413   0.046   1.715   8.348
  985SOL    HW2 3414   0.182   1.804   8.341
  986SOL     OW 3415   0.504   1.568   8.358
  986SOL    HW1 3416   0.570   1.642   8.367
  986SOL    HW2 3417   0.548   1.489   8.316
  987SOL     OW 3418   1.002   0.796   8.686
  987SOL    HW1 3419   1.043   0.764   8.772
  987SOL    HW2 3420   0.906   0.769   8.683
  988SOL     OW 3421   0.040   0.544   8.562
  988SOL    HW1 3422   0.125   0.511   8.521
  988SOL    HW2 3423   0.053   0.559   8.660
  989SOL     OW 3424   0.189   0.520   9.170
  989SOL    HW1 3425   0.248   0.480   9.100
  989SOL    HW2 3426   0.131   0.591   9.129
  990SOL     OW 3427   1.369   0.950   9.108
  990SOL    HW1 3428   1.408   1.039   9.128
  990SOL    HW2 3429   1.379   0.930   9.011
  991SOL     OW 3430   0.815   0.572   7.773
  991SOL    HW1 3431   0.822   0.483   7.727
  991SOL    HW2 3432   0.721   0.606   7.765
  992SOL     OW 3433   1.657   0.604   8.654
  992SOL    HW1 3434   1.619   0.535   8.716
  992SOL    HW2 3435   1.739   0.568   8.610
  993SOL     OW 3436   0.252   1.564   9.192
  993SOL    HW1 3437   0.222   1.621   9.268
  993SOL    HW2 3438   0.245   1.467   9.218
  994SOL     OW 3439   0.671   0.464   8.717
  994SOL    HW1 3440   0.637   0.375   8.687
  994SOL    HW2 3441   0.697   0.518   8.637
  995SOL     OW 3442   0.930   1.678   8.913
  995SOL    HW1 3443   0.906   1.660   8.818
  995SOL    HW2 3444   0.960   1.772   8.923
  996SOL     OW 3445   0.473   0.500   7.639
  996SOL    HW1 3446   0.534   0.580   7.643
  996SOL    HW2 3447   0.378   0.531   7.646
  997SOL     OW 3448   0.159   1.137   8.914
  997SOL    HW1 3449   0.181   1.076   8.990
  997SOL    HW2 3450   0.169   1.088   8.828
  998SOL     OW 3451   1.347   1.059   8.682
  998SOL    HW1 3452   1.371   0.996   8.608
  998SOL    HW2 3453   1.257   1.099   8.664
  999SOL     OW 3454   1.302   0.855   7.757
  999SOL    HW1 3455   1.216   0.824   7.799
  999SOL    HW2 3456   1.298   0.841   7.658
 1000SOL     OW 3457   1.759   1.747   8.602
 1000SOL    HW1 3458   1.820   1.777   8.529
 1000SOL    HW2 3459   1.721   1.658   8.580
 1001SOL     OW 3460   1.252   1.731   8.576
 1001SOL    HW1 3461   1.336   1.736   8.522
 1001SOL    HW2 3462   1.229   1.635   8.594
 1002SOL     OW 3463   0.083   1.258   8.470
 1002SOL    HW1 3464   0.078   1.257   8.570
 1002SOL    HW2 3465   0.000   1.217   8.432
 1003SOL     OW 3466   0.688   1.662   9.164
 1003SOL    HW1 3467   0.632   1.743   9.173
 1003SOL    HW2 3468   0.740   1.666   9.078
 1004SOL     OW 3469   1.726   0.135   7.971
 1004SOL    HW1 3470   1.799   0.118   7.904
 1004SOL    HW2 3471   1.695   0.048   8.009
 1005SOL     OW 3472   1.388   1.573   7.925
 1005SOL    HW1 3473   1.455   1.585   7.851
 1005SOL    HW2 3474   1.348   1.662   7.948
 1006SOL     OW 3475   0.130   1.794   9.299
 1006SOL    HW1 3476   0.089   1.720   9.352
 1006SOL    HW2 3477   0.194   1.845   9.357
 1007SOL     OW 3478   1.280   0.927   8.120
 1007SOL    HW1 3479   1.340   0.846   8.122
 1007SOL    HW2 3480   1.320   0.996   8.060
 1008SOL     OW 3481   0.830   1.273   8.870
 1008SOL    HW1 3482   0.825   1.306   8.965
 1008SOL    HW2 3483   0.744   1.292   8.824
 1009SOL     OW 3484   0.672   1.616   7.602
 1009SOL    HW1 3485   0.681   1.626   7.503
 1009SOL    HW2 3486   0.632   1.527   7.623
 1010SOL     OW 3487   1.650   1.720   8.842
 1010SOL    HW1 3488   1.703   1.730   8.758
 1010SOL    HW2 3489   1.623   1.810   8.876
 1011SOL     OW 3490   1.841   0.175   8.411
 1011SOL    HW1 3491   1.880   0.090   8.375
 1011SOL    HW2 3492   1.743   0.177   8.392
 1012SOL     OW 3493   0.263   0.326   8.168
 1012SOL    HW1 3494   0.184   0.377   8.134
 1012SOL    HW2 3495   0.254   0.311   8.266
 1013SOL     OW 3496   1.194   1.612   7.479
 1013SOL    HW1 3497   1.200   1.519   7.516
 1013SOL    HW2 3498   1.135   1.612   7.399
 1014SOL     OW 3499   0.822   1.002   8.820
 1014SOL    HW1 3500   0.862   1.001   8.728
 1014SOL    HW2 3501   0.832   1.094   8.860
 1015SOL     OW 3502   0.916   0.910   7.739
 1015SOL    HW1 3503   0.979   0.948   7.671
 1015SOL    HW2 3504   0.956   0.827   7.778
 1016SOL     OW 3505   1.504   1.607   7.492
 1016SOL    HW1 3506   1.412   1.644   7.499
 1016SOL    HW2 3507   1.542   1.627   7.402
 1017SOL     OW 3508   0.372   1.288   8.938
 1017SOL    HW1 3509   0.359   1.381   8.904
 1017SOL    HW2 3510   0.288   1.236   8.925
 1018SOL     OW 3511   1.614   1.292   8.737
 1018SOL    HW1 3512   1.674   1.295   8.817
 1018SOL    HW2 3513   1.539   1.356   8.750
 1019SOL     OW 3514   1.039   1.098   8.144
 1019SOL    HW1 3515   0.969   1.051   8.198
 1019SOL    HW2 3516   1.098   1.030   8.101
 1020SOL     OW 3517   1.014   0.236   8.419
 1020SOL    HW1 3518   1.006   0.200   8.326
 1020SOL    HW2 3519   1.012   0.160   8.484
 1021SOL     OW 3520   0.590   1.487   7.939
 1021SOL    HW1 3521   0.632   1.429   7.869
 1021SOL    HW2 3522   0.546   1.566   7.895
 1022SOL     OW 3523   1.709   0.385   8.829
 1022SOL    HW1 3524   1.782   0.454   8.833
 1022SOL    HW2 3525   1.737   0.310   8.770
 1023SOL     OW 3526   0.255   1.348   7.738
 1023SOL    HW1 3527   0.159   1.349   7.711
 1023SOL    HW2 3528   0.267   1.401   7.822
 1024SOL     OW 3529   0.105   1.013   9.174
 1024SOL    HW1 3530   0.028   0.980   9.228
 1024SOL    HW2 3531   0.190   0.983   9.216
 1025SOL     OW 3532   0.672   0.203   8.937
 1025SOL    HW1 3533   0.762   0.187   8.897
 1025SOL    HW2 3534   0.680   0.208   9.036
 1026SOL     OW 3535   0.075   0.345   7.481
 1026SOL    HW1 3536  -0.017   0.317   7.452
 1026SOL    HW2 3537   0.106   0.422   7.425
 1027SOL     OW 3538   1.440   0.856   8.846
 1027SOL    HW1 3539   1.383   0.908   8.783
 1027SOL    HW2 3540   1.536   0.868   8.822
 1028SOL     OW 3541   0.072   0.166   7.766
 1028SOL    HW1 3542   0.055   0.249   7.712
 1028SOL    HW2 3543   0.162   0.129   7.744
 1029SOL     OW 3544   1.183   1.335   7.567
 1029SOL    HW1 3545   1.084   1.324   7.569
 1029SOL    HW2 3546   1.217   1.350   7.660
 1030SOL     OW 3547   0.613   0.842   8.879
 1030SOL    HW1 3548   0.669   0.923   8.862
 1030SOL    HW2 3549   0.672   0.762   8.882
 1031SOL     OW 3550   1.493   1.767   8.407
 1031SOL    HW1 3551   1.526   1.831   8.338
 1031SOL    HW2 3552   1.559   1.761   8.482
 1032SOL     OW 3553   0.716   0.565   9.156
 1032SOL    HW1 3554   0.735   0.630   9.230
 1032SOL    HW2 3555   0.776   0.485   9.165
 1033SOL     OW 3556   1.450   1.220   9.081
 1033SOL    HW1 3557   1.441   1.210   9.180
 1033SOL    HW2 3558   1.546   1.213   9.055
 1034SOL     OW 3559   0.390   1.741   9.008
 1034SOL    HW1 3560   0.299   1.782   9.006
 1034SOL    HW2 3561   0.383   1.647   9.040
 1035SOL     OW 3562   1.674   0.883   8.702
 1035SOL    HW1 3563   1.647   0.794   8.665
 1035SOL    HW2 3564   1.675   0.951   8.629
 1036SOL     OW 3565   1.225   0.325   7.897
 1036SOL    HW1 3566   1.290   0.251   7.886
 1036SOL    HW2 3567   1.245   0.375   7.981
 1037SOL     OW 3568   0.594   0.745   8.100
 1037SOL    HW1 3569   0.644   0.830   8.081
 1037SOL    HW2 3570   0.506   0.747   8.052
 1038SOL     OW 3571   1.777   0.342   9.090
 1038SOL    HW1 3572   1.760   0.373   8.996
 1038SOL    HW2 3573   1.693   0.305   9.128
 1039SOL     OW 3574   1.730   0.934   8.965
 1039SOL    HW1 3575   1.768   1.025   8.980
 1039SOL    HW2 3576   1.722   0.917   8.866
 1040SOL     OW 3577   0.859   1.374   7.464
 1040SOL    HW1 3578   0.813   1.389   7.552
 1040SOL    HW2 3579   0.903   1.459   7.434
 1041SOL     OW 3580   0.661   1.790   8.401
 1041SOL    HW1 3581   0.615   1.878   8.388
 1041SOL    HW2 3582   0.760   1.802   8.394
 1042SOL     OW 3583   0.859   0.956   8.309
 1042SOL    HW1 3584   0.913   0.887   8.357
 1042SOL    HW2 3585   0.827   1.025   8.375
 1043SOL     OW 3586   1.083   0.984   7.535
 1043SOL    HW1 3587   1.060   1.037   7.453
 1043SOL    HW2 3588   1.164   0.928   7.516
 1044SOL     OW 3589   1.861   1.569   8.299
 1044SOL    HW1 3590   1.790   1.557   8.229
 1044SOL    HW2 3591   1.862   1.490   8.359
 1045SOL     OW 3592   0.221   1.314   9.292
 1045SOL    HW1 3593   0.156   1.241   9.271
 1045SOL    HW2 3594   0.225   1.328   9.390
 1046SOL     OW 3595   0.079   1.240   8.101
 1046SOL    HW1 3596   0.078   1.193   8.189
 1046SOL    HW2 3597   0.161   1.212   8.050
 1047SOL     OW 3598   0.672   1.391   9.072
 1047SOL    HW1 3599   0.594   1.341   9.110
 1047SOL    HW2 3600   0.669   1.486   9.103
 1048SOL     OW 3601   1.824   0.192   8.675
 1048SOL    HW1 3602   1.820   0.102   8.719
 1048SOL    HW2 3603   1.827   0.181   8.576
 1049SOL     OW 3604   0.428   0.424   7.968
 1049SOL    HW1 3605   0.458   0.352   7.906
 1049SOL    HW2 3606   0.389   0.384   8.051
 1050SOL     OW 3607   1.705   1.487   8.552
 1050SOL    HW1 3608   1.612   1.462   8.525
 1050SOL    HW2 3609   1.731   1.437   8.634
 1051SOL     OW 3610   0.317   0.547   8.728
 1051SOL    HW1 3611   0.355   0.488   8.800
 1051SOL    HW2 3612   0.357   0.521   8.640
 1052SOL     OW 3613   0.812   1.586   8.135
 1052SOL    HW1 3614   0.844   1.596   8.041
 1052SOL    HW2 3615   0.733   1.524   8.137
 1053SOL     OW 3616   1.424   0.214   8.560
 1053SOL    HW1 3617   1.476   0.149   8.615
 1053SOL    HW2 3618   1.375   0.277   8.621
 1054SOL     OW 3619   1.001   0.034   8.602
 1054SOL    HW1 3620   0.938  -0.038   8.571
 1054SOL    HW2 3621   1.094  -0.002   8.602
 1055SOL     OW 3622   0.770   1.330   7.749
 1055SOL    HW1 3623   0.724   1.243   7.766
 1055SOL    HW2 3624   0.861   1.327   7.790
 1056SOL     OW 3625   0.618   1.567   8.732
 1056SOL    HW1 3626   0.613   1.649   8.789
 1056SOL    HW2 3627   0.707   1.564   8.687
 1057SOL     OW 3628   1.352   0.052   7.616
 1057SOL    HW1 3629   1.387   0.011   7.532
 1057SOL    HW2 3630   1.262   0.014   7.636
 1058SOL     OW 3631   1.300   0.453   8.139
 1058SOL    HW1 3632   1.241   0.533   8.143
 1058SOL    HW2 3633   1.315   0.418   8.232
 1059SOL     OW 3634   1.593   0.221   8.330
 1059SOL    HW1 3635   1.509   0.220   8.384
 1059SOL    HW2 3636   1.595   0.304   8.274
 1060SOL     OW 3637   0.039   1.077   7.748
 1060SOL    HW1 3638   0.138   1.066   7.739
 1060SOL    HW2 3639  -0.001   0.991   7.780
 1061SOL     OW 3640   0.875   1.646   7.785
 1061SOL    HW1 3641   0.798   1.611   7.731
 1061SOL    HW2 3642   0.843   1.717   7.847
 1062SOL     OW 3643   0.230   0.628   9.423
 1062SOL    HW1 3644   0.137   0.626   9.460
 1062SOL    HW2 3645   0.231   0.589   9.331
 1063SOL     OW 3646   0.225   0.275  10.306
 1063SOL    HW1 3647   0.260   0.258  10.398
 1063SOL    HW2 3648   0.137   0.230  10.294
 1064SOL     OW 3649   0.019   0.368   9.957
 1064SOL    HW1 3650  -0.063   0.411   9.996
 1064SOL    HW2 3651  -0.009   0.295   9.894
 1065SOL     OW 3652   0.569   1.275  10.475
 1065SOL    HW1 3653   0.476   1.268  10.438
 1065SOL    HW2 3654   0.580   1.364  10.519
 1066SOL     OW 3655   1.555   1.511  10.013
 1066SOL    HW1 3656   1.498   1.495  10.094
 1066SOL    HW2 3657   1.496   1.521   9.933
 1067SOL     OW 3658   1.135   0.703  10.027
 1067SOL    HW1 3659   1.192   0.781  10.002
 1067SOL    HW2 3660   1.075   0.729  10.103
 1068SOL     OW 3661   1.755   0.607   9.541
 1068SOL    HW1 3662   1.743   0.594   9.442
 1068SOL    HW2 3663   1.725   0.526   9.590
 1069SOL     OW 3664   0.768   1.144  10.333
 1069SOL    HW1 3665   0.690   1.161  10.393
 1069SOL    HW2 3666   0.802   1.231  10.297
 1070SOL     OW 3667   0.850   0.798  11.133
 1070SOL    HW1 3668   0.846   0.874  11.198
 1070SOL    HW2 3669   0.872   0.834  11.042
 1071SOL     OW 3670   0.685   1.012   9.975
 1071SOL    HW1 3671   0.754   0.996  10.045
 1071SOL    HW2 3672   0.612   1.069  10.013
 1072SOL     OW 3673   0.335   1.435  10.371
 1072SOL    HW1 3674   0.257   1.404  10.318
 1072SOL    HW2 3675   0.393   1.493  10.314
 1073SOL     OW 3676   1.460   1.505  10.649
 1073SOL    HW1 3677   1.484   1.599  10.675
 1073SOL    HW2 3678   1.444   1.451  10.731
 1074SOL     OW 3679   0.438   0.392  10.809
 1074SOL    HW1 3680   0.520   0.336  10.818
 1074SOL    HW2 3681   0.357   0.334  10.813
 1075SOL     OW 3682   1.603   0.447  10.047
 1075SOL    HW1 3683   1.529   0.493   9.997
 1075SOL    HW2 3684   1.654   0.515  10.100
 1076SOL     OW 3685   0.231   1.713   9.793
 1076SOL    HW1 3686   0.265   1.790   9.847
 1076SOL    HW2 3687   0.275   1.713   9.703
 1077SOL     OW 3688   0.230   1.434   9.848
 1077SOL    HW1 3689   0.204   1.530   9.848
 1077SOL    HW2 3690   0.159   1.380   9.893
 1078SOL     OW 3691   0.240   1.091  10.196
 1078SOL    HW1 3692   0.254   1.007  10.248
 1078SOL    HW2 3693   0.185   1.155  10.251
 1079SOL     OW 3694   0.620   1.786  10.749
 1079SOL    HW1 3695   0.528   1.769  10.784
 1079SOL    HW2 3696   0.648   1.878  10.775
 1080SOL     OW 3697   0.606   0.964   9.433
 1080SOL    HW1 3698   0.613   1.048   9.379
 1080SOL    HW2 3699   0.652   0.977   9.521
 1081SOL     OW 3700   1.594   0.114  10.790
 1081SOL    HW1 3701   1.576   0.181  10.718
 1081SOL    HW2 3702   1.591   0.160  10.879
 1082SOL     OW 3703   0.122   0.643   9.873
 1082SOL    HW1 3704   0.077   0.555   9.890
 1082SOL    HW2 3705   0.121   0.697   9.957
 1083SOL     OW 3706   1.842   1.767   9.669
 1083SOL    HW1 3707   1.896   1.738   9.749
 1083SOL    HW2 3708   1.872   1.857   9.640
 1084SOL     OW 3709   0.027   1.596   9.427
 1084SOL    HW1 3710   0.008   1.500   9.448
 1084SOL    HW2 3711  -0.006   1.654   9.502
 1085SOL     OW 3712   1.689   0.922   9.922
 1085SOL    HW1 3713   1.784   0.893   9.930
 1085SOL    HW2 3714   1.681   0.987   9.847
 1086SOL     OW 3715   1.641   1.108   9.742
 1086SOL    HW1 3716   1.727   1.110   9.690
 1086SOL    HW2 3717   1.655   1.155   9.830
 1087SOL     OW 3718   0.113   0.737  10.907
 1087SOL    HW1 3719   0.201   0.724  10.952
 1087SOL    HW2 3720   0.100   0.834  10.885
 1088SOL     OW 3721   0.613   1.365  10.036
 1088SOL    HW1 3722   0.564   1.278  10.045
 1088SOL    HW2 3723   0.590   1.408   9.949
 1089SOL     OW 3724   1.293   1.228  10.733
 1089SOL    HW1 3725   1.330   1.155  10.675
 1089SOL    HW2 3726   1.345   1.233  10.818
 1090SOL     OW 3727   0.809   0.004   9.812
 1090SOL    HW1 3728   0.849   0.095   9.803
 1090SOL    HW2 3729   0.709   0.012   9.818
 1091SOL     OW 3730   0.197   0.976  10.574
 1091SOL    HW1 3731   0.286   0.931  10.560
 1091SOL    HW2 3732   0.124   0.911  10.555
 1092SOL     OW 3733   1.525   0.999   9.500
 1092SOL    HW1 3734   1.462   0.923   9.513
 1092SOL    HW2 3735   1.573   1.017   9.586
 1093SOL     OW 3736   1.187   1.792  10.926
 1093SOL    HW1 3737   1.211   1.852  10.850
 1093SOL    HW2 3738   1.194   1.697  10.896
 1094SOL     OW 3739   0.317   0.251  11.111
 1094SOL    HW1 3740   0.388   0.322  11.117
 1094SOL    HW2 3741   0.229   0.290  11.139
 1095SOL     OW 3742   1.466   1.417  10.263
 1095SOL    HW1 3743   1.407   1.423  10.343
 1095SOL    HW2 3744   1.451   1.329  10.217
 1096SOL     OW 3745   1.667   1.714   9.882
 1096SOL    HW1 3746   1.626   1.691   9.794
 1096SOL    HW2 3747   1.649   1.640   9.947
 1097SOL     OW 3748   0.598   0.729   9.580
 1097SOL    HW1 3749   0.622   0.798   9.512
 1097SOL    HW2 3750   0.520   0.762   9.634
 1098SOL     OW 3751   1.281   0.345  10.254
 1098SOL    HW1 3752   1.195   0.295  10.241
 1098SOL    HW2 3753   1.343   0.291  10.310
 1099SOL     OW 3754   1.576   1.662   9.617
 1099SOL    HW1 3755   1.665   1.708   9.620
 1099SOL    HW2 3756   1.555   1.638   9.522
 1100SOL     OW 3757   0.807   0.605  10.775
 1100SOL    HW1 3758   0.760   0.602  10.864
 1100SOL    HW2 3759   0.756   0.550  10.709
 1101SOL     OW 3760   0.973   0.890  10.882
 1101SOL    HW1 3761   1.019   0.806  10.853
 1101SOL    HW2 3762   0.917   0.924  10.807
 1102SOL     OW 3763   0.991   0.410  10.552
 1102SOL    HW1 3764   0.914   0.444  10.606
 1102SOL    HW2 3765   0.957   0.359  10.473
 1103SOL     OW 3766   1.041   0.701   9.739
 1103SOL    HW1 3767   1.067   0.697   9.835
 1103SOL    HW2 3768   0.956   0.650   9.725
 1104SOL     OW 3769   0.076   0.811  10.099
 1104SOL    HW1 3770   0.175   0.799  10.108
 1104SOL    HW2 3771   0.052   0.906  10.120
 1105SOL     OW 3772   0.130   1.821  10.881
 1105SOL    HW1 3773   0.120   1.806  10.980
 1105SOL    HW2 3774   0.044   1.857  10.845
 1106SOL     OW 3775   0.865   0.348   9.505
 1106SOL    HW1 3776   0.924   0.411   9.456
 1106SOL    HW2 3777   0.884   0.254   9.476
 1107SOL     OW 3778   1.362   1.144   9.855
 1107SOL    HW1 3779   1.445   1.115   9.807
 1107SOL    HW2 3780   1.313   1.211   9.799
 1108SOL     OW 3781   0.550   0.196  10.195
 1108SOL    HW1 3782   0.545   0.191  10.295
 1108SOL    HW2 3783   0.552   0.292  10.166
 1109SOL     OW 3784   1.008   1.456   9.787
 1109SOL    HW1 3785   0.962   1.528   9.735
 1109SOL    HW2 3786   1.004   1.476   9.885
 1110SOL     OW 3787   0.351   1.801  10.163
 1110SOL    HW1 3788   0.401   1.715  10.169
 1110SOL    HW2 3789   0.416   1.878  10.160
 1111SOL     OW 3790   1.795   1.066  10.183
 1111SOL    HW1 3791   1.733   1.051  10.107
 1111SOL    HW2 3792   1.743   1.077  10.268
 1112SOL     OW 3793   1.227   1.550  10.816
 1112SOL    HW1 3794   1.233   1.473  10.880
 1112SOL    HW2 3795   1.175   1.524  10.736
 1113SOL     OW 3796   0.321   0.943   9.552
 1113SOL    HW1 3797   0.403   0.982   9.510
 1113SOL    HW2 3798   0.294   0.861   9.503
 1114SOL     OW 3799   1.458   0.735  10.038
 1114SOL    HW1 3800   1.453   0.670  10.113
 1114SOL    HW2 3801   1.538   0.794  10.051
 1115SOL     OW 3802   0.461   1.266  11.037
 1115SOL    HW1 3803   0.411   1.267  10.951
 1115SOL    HW2 3804   0.398   1.248  11.113
 1116SOL     OW 3805   1.111   1.776   9.547
 1116SOL    HW1 3806   1.051   1.714   9.597
 1116SOL    HW2 3807   1.142   1.732   9.462
 1117SOL     OW 3808   0.202   0.285  10.808
 1117SOL    HW1 3809   0.122   0.345  10.795
 1117SOL    HW2 3810   0.192   0.236  10.894
 1118SOL     OW 3811   1.632   1.377   9.391
 1118SOL    HW1 3812   1.600   1.471   9.381
 1118SOL    HW2 3813   1.556   1.314   9.379
 1119SOL     OW 3814   0.464   1.743   9.633
 1119SOL    HW1 3815   0.497   1.782   9.719
 1119SOL    HW2 3816   0.540   1.736   9.568
 1120SOL     OW 3817   1.400   0.107   9.736
 1120SOL    HW1 3818   1.376   0.070   9.646
 1120SOL    HW2 3819   1.499   0.123   9.740
 1121SOL     OW 3820   0.249   1.785  10.551
 1121SOL    HW1 3821   0.306   1.720  10.601
 1121SOL    HW2 3822   0.233   1.752  10.458
 1122SOL     OW 3823   0.940   1.698  10.214
 1122SOL    HW1 3824   1.020   1.641  10.235
 1122SOL    HW2 3825   0.891   1.658  10.137
 1123SOL     OW 3826   0.382   0.700   9.790
 1123SOL    HW1 3827   0.427   0.610   9.787
 1123SOL    HW2 3828   0.288   0.689   9.823
 1124SOL     OW 3829   0.614   0.122   9.427
 1124SOL    HW1 3830   0.712   0.100   9.434
 1124SOL    HW2 3831   0.583   0.105   9.334
 1125SOL     OW 3832   0.781   0.264  11.059
 1125SOL    HW1 3833   0.848   0.203  11.102
 1125SOL    HW2 3834   0.708   0.283  11.124
 1126SOL     OW 3835   0.888   1.514  10.505
 1126SOL    HW1 3836   0.865   1.489  10.411
 1126SOL    HW2 3837   0.949   1.445  10.544
 1127SOL     OW 3838   1.351   0.590  10.743
 1127SOL    HW1 3839   1.379   0.547  10.828
 1127SOL    HW2 3840   1.376   0.686  10.744
 1128SOL     OW 3841   0.803   1.402  10.234
 1128SOL    HW1 3842   0.893   1.416  10.192
 1128SOL    HW2 3843   0.732   1.404  10.163
 1129SOL     OW 3844   0.922   0.503  10.209
 1129SOL    HW1 3845   0.897   0.494  10.113
 1129SOL    HW2 3846   0.970   0.421  10.240
 1130SOL     OW 3847   0.539   0.064   9.822
 1130SOL    HW1 3848   0.458   0.065   9.880
 1130SOL    HW2 3849   0.542   0.147   9.767
 1131SOL     OW 3850   1.434   1.188   9.351
 1131SOL    HW1 3851   1.466   1.112   9.408
 1131SOL    HW2 3852   1.342   1.215   9.381
 1132SOL     OW 3853   0.297   0.035   9.481
 1132SOL    HW1 3854   0.346   0.119   9.460
 1132SOL    HW2 3855   0.359  -0.030   9.526
 1133SOL     OW 3856   0.935   0.236   9.790
 1133SOL    HW1 3857   0.887   0.277   9.712
 1133SOL    HW2 3858   1.034   0.234   9.771
 1134SOL     OW 3859   1.076   0.683  10.774
 1134SOL    HW1 3860   0.996   0.622  10.777
 1134SOL    HW2 3861   1.157   0.630  10.750
 1135SOL     OW 3862   1.227   1.570  10.103
 1135SOL    HW1 3863   1.248   1.644  10.038
 1135SOL    HW2 3864   1.295   1.570  10.176
 1136SOL     OW 3865   0.459   1.152  10.051
 1136SOL    HW1 3866   0.388   1.125  10.116
 1136SOL    HW2 3867   0.433   1.124   9.958
 1137SOL     OW 3868   1.271   1.797   9.901
 1137SOL    HW1 3869   1.315   1.861   9.837
 1137SOL    HW2 3870   1.221   1.849   9.971
 1138SOL     OW 3871   1.032   0.549   9.326
 1138SOL    HW1 3872   0.991   0.631   9.287
 1138SOL    HW2 3873   1.096   0.575   9.399
 1139SOL     OW 3874   0.078   0.556  10.696
 1139SOL    HW1 3875   0.170   0.555  10.655
 1139SOL    HW2 3876   0.072   0.630  10.763
 1140SOL     OW 3877   0.561   0.222  10.457
 1140SOL    HW1 3878   0.599   0.138  10.494
 1140SOL    HW2 3879   0.473   0.241  10.501
 1141SOL     OW 3880   0.866   0.454   9.952
 1141SOL    HW1 3881   0.834   0.526   9.890
 1141SOL    HW2 3882   0.890   0.373   9.899
 1142SOL     OW 3883   1.017   0.039  10.063
 1142SOL    HW1 3884   0.945   0.044   9.994
 1142SOL    HW2 3885   0.993  -0.030  10.132
 1143SOL     OW 3886   1.429   1.173  10.177
 1143SOL    HW1 3887   1.374   1.089  10.170
 1143SOL    HW2 3888   1.455   1.202  10.085
 1144SOL     OW 3889   1.466   0.590  10.302
 1144SOL    HW1 3890   1.436   0.495  10.309
 1144SOL    HW2 3891   1.539   0.606  10.368
 1145SOL     OW 3892   1.857   0.833   9.687
 1145SOL    HW1 3893   1.899   0.769   9.751
 1145SOL    HW2 3894   1.819   0.782   9.609
 1146SOL     OW 3895   0.488   1.385   9.484
 1146SOL    HW1 3896   0.401   1.370   9.531
 1146SOL    HW2 3897   0.471   1.411   9.389
 1147SOL     OW 3898   1.664   1.280   9.967
 1147SOL    HW1 3899   1.763   1.288   9.981
 1147SOL    HW2 3900   1.619   1.364   9.998
 1148SOL     OW 3901   1.390   0.575   9.388
 1148SOL    HW1 3902   1.336   0.554   9.469
 1148SOL    HW2 3903   1.481   0.534   9.397
 1149SOL     OW 3904   0.527   0.256   9.638
 1149SOL    HW1 3905   0.554   0.197   9.563
 1149SOL    HW2 3906   0.527   0.351   9.607
 1150SOL     OW 3907   1.754   1.223  10.898
 1150SOL    HW1 3908   1.845   1.184  10.885
 1150SOL    HW2 3909   1.762   1.319  10.922
 1151SOL     OW 3910   1.064   1.347  10.650
 1151SOL    HW1 3911   0.984   1.324  10.705
 1151SOL    HW2 3912   1.147   1.321  10.699
 1152SOL     OW 3913   1.111   1.195  10.410
 1152SOL    HW1 3914   1.071   1.239  10.491
 1152SOL    HW2 3915   1.070   1.232  10.327
 1153SOL     OW 3916   1.638   1.099  10.389
 1153SOL    HW1 3917   1.643   1.180  10.448
 1153SOL    HW2 3918   1.552   1.101  10.338
 1154SOL     OW 3919   0.915   0.089  10.712
 1154SOL    HW1 3920   0.940   0.069  10.617
 1154SOL    HW2 3921   0.987   0.145  10.754
 1155SOL     OW 3922   0.705   1.050   9.678
 1155SOL    HW1 3923   0.691   1.057   9.777
 1155SOL    HW2 3924   0.789   0.999   9.660
 1156SOL     OW 3925   0.410   0.813  10.561
 1156SOL    HW1 3926   0.496   0.825  10.611
 1156SOL    HW2 3927   0.368   0.726  10.588
 1157SOL     OW 3928   1.274   0.386  10.572
 1157SOL    HW1 3929   1.295   0.460  10.636
 1157SOL    HW2 3930   1.185   0.403  10.529
 1158SOL     OW 3931   0.064   1.564  10.641
 1158SOL    HW1 3932   0.018   1.646  10.607
 1158SOL    HW2 3933   0.162   1.583  10.650
 1159SOL     OW 3934   0.367   1.100   9.811
 1159SOL    HW1 3935   0.360   1.183   9.755
 1159SOL    HW2 3936   0.371   1.020   9.751
 1160SOL     OW 3937   0.566   0.537  10.175
 1160SOL    HW1 3938   0.578   0.603  10.101
 1160SOL    HW2 3939   0.612   0.571  10.258
 1161SOL     OW 3940   1.252   1.348   9.698
 1161SOL    HW1 3941   1.302   1.425   9.738
 1161SOL    HW2 3942   1.157   1.350   9.730
 1162SOL     OW 3943   1.272   1.445  10.452
 1162SOL    HW1 3944   1.319   1.458  10.539
 1162SOL    HW2 3945   1.206   1.371  10.461
 1163SOL     OW 3946   1.582   0.639   9.782
 1163SOL    HW1 3947   1.551   0.700   9.855
 1163SOL    HW2 3948   1.632   0.691   9.713
 1164SOL     OW 3949   0.354   1.510  10.639
 1164SOL    HW1 3950   0.333   1.466  10.552
 1164SOL    HW2 3951   0.451   1.536  10.642
 1165SOL     OW 3952   0.402   0.751  10.908
 1165SOL    HW1 3953   0.470   0.806  10.861
 1165SOL    HW2 3954   0.442   0.663  10.935
 1166SOL     OW 3955   1.587   0.779  10.980
 1166SOL    HW1 3956   1.495   0.817  10.975
 1166SOL    HW2 3957   1.647   0.826  10.915
 1167SOL     OW 3958   0.573   0.870  10.339
 1167SOL    HW1 3959   0.617   0.959  10.330
 1167SOL    HW2 3960   0.510   0.870  10.416
 1168SOL     OW 3961   1.360   0.862  10.355
 1168SOL    HW1 3962   1.285   0.862  10.289
 1168SOL    HW2 3963   1.397   0.770  10.364
 1169SOL     OW 3964   1.209   0.525   9.585
 1169SOL    HW1 3965   1.222   0.441   9.639
 1169SOL    HW2 3966   1.180   0.599   9.645
 1170SOL     OW 3967   0.307   0.213  10.541
 1170SOL    HW1 3968   0.284   0.250  10.631
 1170SOL    HW2 3969   0.277   0.118  10.535
 1171SOL     OW 3970   0.037   1.310  10.592
 1171SOL    HW1 3971   0.090   1.261  10.660
 1171SOL    HW2 3972   0.059   1.408  10.597
 1172SOL     OW 3973   0.732   0.634  10.374
 1172SOL    HW1 3974   0.791   0.608  10.298
 1172SOL    HW2 3975   0.704   0.730  10.363
 1173SOL     OW 3976   0.307   0.063   9.928
 1173SOL    HW1 3977   0.296   0.157   9.961
 1173SOL    HW2 3978   0.302   0.000  10.005
 1174SOL     OW 3979   1.622   0.367   9.684
 1174SOL    HW1 3980   1.624   0.291   9.748
 1174SOL    HW2 3981   1.574   0.444   9.724
 1175SOL     OW 3982   1.023   0.766  10.276
 1175SOL    HW1 3983   1.038   0.787  10.372
 1175SOL    HW2 3984   0.993   0.671  10.267
 1176SOL     OW 3985   0.980   1.573  11.010
 1176SOL    HW1 3986   0.960   1.617  10.922
 1176SOL    HW2 3987   1.019   1.482  10.994
 1177SOL     OW 3988   1.859   1.518  10.915
 1177SOL    HW1 3989   1.873   1.545  10.820
 1177SOL    HW2 3990   1.942   1.540  10.968
 1178SOL     OW 3991   0.350   0.898  11.114
 1178SOL    HW1 3992   0.426   0.942  11.162
 1178SOL    HW2 3993   0.385   0.851  11.032
 1179SOL     OW 3994   1.540   0.274   9.435
 1179SOL    HW1 3995   1.479   0.199   9.458
 1179SOL    HW2 3996   1.562   0.326   9.518
 1180SOL     OW 3997   1.303   0.838   9.352
 1180SOL    HW1 3998   1.337   0.745   9.367
 1180SOL    HW2 3999   1.321   0.865   9.257
 1181SOL     OW 4000   1.068   1.333  10.159
 1181SOL    HW1 4001   1.075   1.249  10.104
 1181SOL    HW2 4002   1.130   1.402  10.123
 1182SOL     OW 4003   0.319   0.810  10.259
 1182SOL    HW1 4004   0.412   0.846  10.264
 1182SOL    HW2 4005   0.313   0.725  10.311
 1183SOL     OW 4006   0.339   0.509  10.316
 1183SOL    HW1 4007   0.287   0.426  10.299
 1183SOL    HW2 4008   0.416   0.514  10.252
 1184SOL     OW 4009   1.160   0.207  10.787
 1184SOL    HW1 4010   1.160   0.271  10.864
 1184SOL    HW2 4011   1.188   0.255  10.704
 1185SOL     OW 4012   0.008   1.326   9.510
 1185SOL    HW1 4013  -0.085   1.347   9.479
 1185SOL    HW2 4014   0.018   1.227   9.523
 1186SOL     OW 4015   0.088   1.801  10.237
 1186SOL    HW1 4016   0.046   1.715  10.210
 1186SOL    HW2 4017   0.182   1.804  10.203
 1187SOL     OW 4018   0.504   1.568  10.220
 1187SOL    HW1 4019   0.570   1.642  10.229
 1187SOL    HW2 4020   0.548   1.489  10.178
 1188SOL     OW 4021   1.002   0.796  10.548
 1188SOL    HW1 4022   1.043   0.764  10.634
 1188SOL    HW2 4023   0.906   0.769  10.545
 1189SOL     OW 4024   0.040   0.544  10.424
 1189SOL    HW1 4025   0.125   0.511  10.383
 1189SOL    HW2 4026   0.053   0.559  10.522
 1190SOL     OW 4027   0.815   0.572   9.635
 1190SOL    HW1 4028   0.822   0.483   9.589
 1190SOL    HW2 4029   0.721   0.606   9.627
 1191SOL     OW 4030   1.657   0.604  10.516
 1191SOL    HW1 4031   1.619   0.535  10.578
 1191SOL    HW2 4032   1.739   0.568  10.472
 1192SOL     OW 4033   0.252   1.564  11.054
 1192SOL    HW1 4034   0.222   1.621  11.130
 1192SOL    HW2 4035   0.245   1.467  11.080
 1193SOL     OW 4036   0.671   0.464  10.579
 1193SOL    HW1 4037   0.637   0.375  10.549
 1193SOL    HW2 4038   0.697   0.518  10.499
 1194SOL     OW 4039   0.930   1.678  10.775
 1194SOL    HW1 4040   0.906   1.660  10.680
 1194SOL    HW2 4041   0.960   1.772  10.785
 1195SOL     OW 4042   0.473   0.500   9.501
 1195SOL    HW1 4043   0.534   0.580   9.505
 1195SOL    HW2 4044   0.378   0.531   9.508
 1196SOL     OW 4045   0.159   1.137  10.776
 1196SOL    HW1 4046   0.181   1.076  10.852
 1196SOL    HW2 4047   0.169   1.088  10.690
 1197SOL     OW 4048   1.347   1.059  10.544
 1197SOL    HW1 4049   1.371   0.996  10.470
 1197SOL    HW2 4050   1.257   1.099  10.526
 1198SOL     OW 4051   1.302   0.855   9.619
 1198SOL    HW1 4052   1.216   0.824   9.661
 1198SOL    HW2 4053   1.298   0.841   9.520
 1199SOL     OW 4054   1.759   1.747  10.464
 1199SOL    HW1 4055   1.820   1.777  10.391
 1199SOL    HW2 4056   1.721   1.658  10.442
 1200SOL     OW 4057   1.252   1.731  10.438
 1200SOL    HW1 4058   1.336   1.736  10.384
 1200SOL    HW2 4059   1.229   1.635  10.456
 1201SOL     OW 4060   0.083   1.258  10.332
 1201SOL    HW1 4061   0.078   1.257  10.432
 1201SOL    HW2 4062   0.000   1.217  10.294
 1202SOL     OW 4063   1.726   0.135   9.833
 1202SOL    HW1 4064   1.799   0.118   9.766
 1202SOL    HW2 4065   1.695   0.048   9.871
 1203SOL     OW 4066   1.388   1.573   9.787
 1203SOL    HW1 4067   1.455   1.585   9.713
 1203SOL    HW2 4068   1.348   1.662   9.810
 1204SOL     OW 4069   1.280   0.927   9.982
 1204SOL    HW1 4070   1.340   0.846   9.984
 1204SOL    HW2 4071   1.320   0.996   9.922
 1205SOL     OW 4072   0.830   1.273  10.732
 1205SOL    HW1 4073   0.825   1.306  10.827
 1205SOL    HW2 4074   0.744   1.292  10.686
 1206SOL     OW 4075   0.672   1.616   9.464
 1206SOL    HW1 4076   0.681   1.626   9.365
 1206SOL    HW2 4077   0.632   1.527   9.485
 1207SOL     OW 4078   1.650   1.720  10.704
 1207SOL    HW1 4079   1.703   1.730  10.620
 1207SOL    HW2 4080   1.623   1.810  10.738
 1208SOL     OW 4081   1.841   0.175  10.273
 1208SOL    HW1 4082   1.880   0.090  10.237
 1208SOL    HW2 4083   1.743   0.177  10.254
 1209SOL     OW 4084   0.263   0.326  10.030
 1209SOL    HW1 4085   0.184   0.377   9.996
 1209SOL    HW2 4086   0.254   0.311  10.128
 1210SOL     OW 4087   1.194   1.612   9.341
 1210SOL    HW1 4088   1.200   1.519   9.378
 1210SOL    HW2 4089   1.135   1.612   9.261
 1211SOL     OW 4090   0.822   1.002  10.682
 1211SOL    HW1 4091   0.862   1.001  10.590
 1211SOL    HW2 4092   0.832   1.094  10.722
 1212SOL     OW 4093   0.916   0.910   9.601
 1212SOL    HW1 4094   0.979   0.948   9.533
 1212SOL    HW2 4095   0.956   0.827   9.640
 1213SOL     OW 4096   1.504   1.607   9.354
 1213SOL    HW1 4097   1.412   1.644   9.361
 1213SOL    HW2 4098   1.542   1.627   9.264
 1214SOL     OW 4099   0.372   1.288  10.800
 1214SOL    HW1 4100   0.359   1.381  10.766
 1214SOL    HW2 4101   0.288   1.236  10.787
 1215SOL     OW 4102   1.614   1.292  10.599
 1215SOL    HW1 4103   1.674   1.295  10.679
 1215SOL    HW2 4104   1.539   1.356  10.612
 1216SOL     OW 4105   1.039   1.098  10.006
 1216SOL    HW1 4106   0.969   1.051  10.060
 1216SOL    HW2 4107   1.098   1.030   9.963
 1217SOL     OW 4108   1.014   0.236  10.281
 1217SOL    HW1 4109   1.006   0.200  10.188
 1217SOL    HW2 4110   1.012   0.160  10.346
 1218SOL     OW 4111   0.590   1.487   9.801
 1218SOL    HW1 4112   0.632   1.429   9.731
 1218SOL    HW2 4113   0.546   1.566   9.757
 1219SOL     OW 4114   1.709   0.385  10.691
 1219SOL    HW1 4115   1.782   0.454  10.695
 1219SOL    HW2 4116   1.737   0.310  10.632
 1220SOL     OW 4117   0.255   1.348   9.600
 1220SOL    HW1 4118   0.159   1.349   9.573
 1220SOL    HW2 4119   0.267   1.401   9.684
 1221SOL     OW 4120   0.105   1.013  11.036
 1221SOL    HW1 4121   0.028   0.980  11.090
 1221SOL    HW2 4122   0.190   0.983  11.078
 1222SOL     OW 4123   0.672   0.203  10.799
 1222SOL    HW1 4124   0.762   0.187  10.759
 1222SOL    HW2 4125   0.680   0.208  10.898
 1223SOL     OW 4126   0.075   0.345   9.343
 1223SOL    HW1 4127  -0.017   0.317   9.314
 1223SOL    HW2 4128   0.106   0.422   9.287
 1224SOL     OW 4129   1.440   0.856  10.708
 1224SOL    HW1 4130   1.383   0.908  10.645
 1224SOL    HW2 4131   1.536   0.868  10.684
 1225SOL     OW 4132   0.072   0.166   9.628
 1225SOL    HW1 4133   0.055   0.249   9.574
 1225SOL    HW2 4134   0.162   0.129   9.606
 1226SOL     OW 4135   1.183   1.335   9.429
 1226SOL    HW1 4136   1.084   1.324   9.431
 1226SOL    HW2 4137   1.217   1.350   9.522
 1227SOL     OW 4138   0.613   0.842  10.741
 1227SOL    HW1 4139   0.669   0.923  10.724
 1227SOL    HW2 4140   0.672   0.762  10.744
 1228SOL     OW 4141   1.493   1.767  10.269
 1228SOL    HW1 4142   1.526   1.831  10.200
 1228SOL    HW2 4143   1.559   1.761  10.344
 1229SOL     OW 4144   0.716   0.565  11.018
 1229SOL    HW1 4145   0.735   0.630  11.092
 1229SOL    HW2 4146   0.776   0.485  11.027
 1230SOL     OW 4147   0.390   1.741  10.870
 1230SOL    HW1 4148   0.299   1.782  10.868
 1230SOL    HW2 4149   0.383   1.647  10.902
 1231SOL     OW 4150   1.674   0.883  10.564
 1231SOL    HW1 4151   1.647   0.794  10.527
 1231SOL    HW2 4152   1.675   0.951  10.491
 1232SOL     OW 4153   1.225   0.325   9.759
 1232SOL    HW1 4154   1.290   0.251   9.748
 1232SOL    HW2 4155   1.245   0.375   9.843
 1233SOL     OW 4156   0.594   0.745   9.962
 1233SOL    HW1 4157   0.644   0.830   9.943
 1233SOL    HW2 4158   0.506   0.747   9.914
 1234SOL     OW 4159   1.777   0.342  10.952
 1234SOL    HW1 4160   1.760   0.373  10.858
 1234SOL    HW2 4161   1.693   0.305  10.990
 1235SOL     OW 4162   1.730   0.934  10.827
 1235SOL    HW1 4163   1.768   1.025  10.842
 1235SOL    HW2 4164   1.722   0.917  10.728
 1236SOL     OW 4165   0.859   1.374   9.326
 1236SOL    HW1 4166   0.813   1.389   9.414
 1236SOL    HW2 4167   0.903   1.459   9.296
 1237SOL     OW 4168   0.661   1.790  10.263
 1237SOL    HW1 4169   0.615   1.878  10.250
 1237SOL    HW2 4170   0.760   1.802  10.256
 1238SOL     OW 4171   0.859   0.956  10.171
 1238SOL    HW1 4172   0.913   0.887  10.219
 1238SOL    HW2 4173   0.827   1.025  10.237
 1239SOL     OW 4174   1.083   0.984   9.397
 1239SOL    HW1 4175   1.060   1.037   9.315
 1239SOL    HW2 4176   1.164   0.928   9.378
 1240SOL     OW 4177   1.861   1.569  10.161
 1240SOL    HW1 4178   1.790   1.557  10.091
 1240SOL    HW2 4179   1.862   1.490  10.221
 1241SOL     OW 4180   0.079   1.240   9.963
 1241SOL    HW1 4181   0.078   1.193  10.051
 1241SOL    HW2 4182   0.161   1.212   9.912
 1242SOL     OW 4183   0.672   1.391  10.934
 1242SOL    HW1 4184   0.594   1.341  10.972
 1242SOL    HW2 4185   0.669   1.486  10.965
 1243SOL     OW 4186   1.824   0.192  10.537
 1243SOL    HW1 4187   1.820   0.102  10.581
 1243SOL    HW2 4188   1.827   0.181  10.438
 1244SOL     OW 4189   0.428   0.424   9.830
 1244SOL    HW1 4190   0.458   0.352   9.768
 1244SOL    HW2 4191   0.389   0.384   9.913
 1245SOL     OW 4192   1.705   1.487  10.414
 1245SOL    HW1 4193   1.612   1.462  10.387
 1245SOL    HW2 4194   1.731   1.437  10.496
 1246SOL     OW 4195   0.317   0.547  10.590
 1246SOL    HW1 4196   0.355   0.488  10.662
 1246SOL    HW2 4197   0.357   0.521  10.502
 1247SOL     OW 4198   0.812   1.586   9.997
 1247SOL    HW1 4199   0.844   1.596   9.903
 1247SOL    HW2 4200   0.733   1.524   9.999
 1248SOL     OW 4201   1.424   0.214  10.422
 1248SOL    HW1 4202   1.476   0.149  10.477
 1248SOL    HW2 4203   1.375   0.277  10.483
 1249SOL     OW 4204   1.001   0.034  10.464
 1249SOL    HW1 4205   0.938  -0.038  10.433
 1249SOL    HW2 4206   1.094  -0.002  10.464
 1250SOL     OW 4207   0.770   1.330   9.611
 1250SOL    HW1 4208   0.724   1.243   9.628
 1250SOL    HW2 4209   0.861   1.327   9.652
 1251SOL     OW 4210   0.618   1.567  10.594
 1251SOL    HW1 4211   0.613   1.649  10.651
 1251SOL    HW2 4212   0.707   1.564  10.549
 1252SOL     OW 4213   1.352   0.052   9.478
 1252SOL    HW1 4214   1.387   0.011   9.394
 1252SOL    HW2 4215   1.262   0.014   9.498
 1253SOL     OW 4216   1.300   0.453  10.001
 1253SOL    HW1 4217   1.241   0.533  10.005
 1253SOL    HW2 4218   1.315   0.418  10.094
 1254SOL     OW 4219   1.593   0.221  10.192
 1254SOL    HW1 4220   1.509   0.220  10.246
 1254SOL    HW2 4221   1.595   0.304  10.136
 1255SOL     OW 4222   0.039   1.077   9.610
 1255SOL    HW1 4223   0.138   1.066   9.601
 1255SOL    HW2 4224  -0.001   0.991   9.642
 1256SOL     OW 4225   0.875   1.646   9.647
 1256SOL    HW1 4226   0.798   1.611   9.593
 1256SOL    HW2 4227   0.843   1.717   9.709
 1257SOL     OW 4228   0.230   2.490   0.113
 1257SOL    HW1 4229   0.137   2.488   0.150
 1257SOL    HW2 4230   0.231   2.451   0.021
 1258SOL     OW 4231   0.225   2.137   0.996
 1258SOL    HW1 4232   0.260   2.120   1.088
 1258SOL    HW2 4233   0.137   2.092   0.984
 1259SOL     OW 4234   0.019   2.230   0.647
 1259SOL    HW1 4235  -0.063   2.273   0.686
 1259SOL    HW2 4236  -0.009   2.157   0.584
 1260SOL     OW 4237   0.569   3.137   1.165
 1260SOL    HW1 4238   0.476   3.130   1.128
 1260SOL    HW2 4239   0.580   3.226   1.209
 1261SOL     OW 4240   1.555   3.373   0.703
 1261SOL    HW1 4241   1.498   3.357   0.784
 1261SOL    HW2 4242   1.496   3.383   0.623
 1262SOL     OW 4243   1.135   2.565   0.717
 1262SOL    HW1 4244   1.192   2.643   0.692
 1262SOL    HW2 4245   1.075   2.591   0.793
 1263SOL     OW 4246   1.755   2.469   0.231
 1263SOL    HW1 4247   1.743   2.456   0.132
 1263SOL    HW2 4248   1.725   2.388   0.280
 1264SOL     OW 4249   0.768   3.006   1.023
 1264SOL    HW1 4250   0.690   3.023   1.083
 1264SOL    HW2 4251   0.802   3.093   0.987
 1265SOL     OW 4252   0.850   2.660   1.823
 1265SOL    HW1 4253   0.846   2.736   1.888
 1265SOL    HW2 4254   0.872   2.696   1.732
 1266SOL     OW 4255   0.685   2.874   0.665
 1266SOL    HW1 4256   0.754   2.858   0.735
 1266SOL    HW2 4257   0.612   2.931   0.703
 1267SOL     OW 4258   0.686   3.023   1.803
 1267SOL    HW1 4259   0.746   3.102   1.817
 1267SOL    HW2 4260   0.600   3.054   1.762
 1268SOL     OW 4261   0.335   3.297   1.061
 1268SOL    HW1 4262   0.257   3.266   1.008
 1268SOL    HW2 4263   0.393   3.355   1.004
 1269SOL     OW 4264   1.460   3.367   1.339
 1269SOL    HW1 4265   1.484   3.461   1.365
 1269SOL    HW2 4266   1.444   3.313   1.421
 1270SOL     OW 4267   0.438   2.254   1.499
 1270SOL    HW1 4268   0.520   2.198   1.508
 1270SOL    HW2 4269   0.357   2.196   1.503
 1271SOL     OW 4270   1.603   2.309   0.737
 1271SOL    HW1 4271   1.529   2.355   0.687
 1271SOL    HW2 4272   1.654   2.377   0.790
 1272SOL     OW 4273   0.231   3.575   0.483
 1272SOL    HW1 4274   0.265   3.652   0.537
 1272SOL    HW2 4275   0.275   3.575   0.393
 1273SOL     OW 4276   1.127   3.203   1.690
 1273SOL    HW1 4277   1.174   3.203   1.778
 1273SOL    HW2 4278   1.079   3.116   1.679
 1274SOL     OW 4279   0.230   3.296   0.538
 1274SOL    HW1 4280   0.204   3.392   0.538
 1274SOL    HW2 4281   0.159   3.242   0.583
 1275SOL     OW 4282   0.240   2.953   0.886
 1275SOL    HW1 4283   0.254   2.869   0.938
 1275SOL    HW2 4284   0.185   3.017   0.941
 1276SOL     OW 4285   0.620   3.648   1.439
 1276SOL    HW1 4286   0.528   3.631   1.474
 1276SOL    HW2 4287   0.648   3.740   1.465
 1277SOL     OW 4288   0.606   2.826   0.123
 1277SOL    HW1 4289   0.613   2.910   0.069
 1277SOL    HW2 4290   0.652   2.839   0.211
 1278SOL     OW 4291   1.594   1.976   1.480
 1278SOL    HW1 4292   1.576   2.043   1.408
 1278SOL    HW2 4293   1.591   2.022   1.569
 1279SOL     OW 4294   0.122   2.505   0.563
 1279SOL    HW1 4295   0.077   2.417   0.580
 1279SOL    HW2 4296   0.121   2.559   0.647
 1280SOL     OW 4297   1.842   3.629   0.359
 1280SOL    HW1 4298   1.896   3.600   0.439
 1280SOL    HW2 4299   1.872   3.719   0.330
 1281SOL     OW 4300   0.027   3.458   0.117
 1281SOL    HW1 4301   0.008   3.362   0.138
 1281SOL    HW2 4302  -0.006   3.516   0.192
 1282SOL     OW 4303   1.689   2.784   0.612
 1282SOL    HW1 4304   1.784   2.755   0.620
 1282SOL    HW2 4305   1.681   2.849   0.537
 1283SOL     OW 4306   1.641   2.970   0.432
 1283SOL    HW1 4307   1.727   2.972   0.380
 1283SOL    HW2 4308   1.655   3.017   0.520
 1284SOL     OW 4309   0.113   2.599   1.597
 1284SOL    HW1 4310   0.201   2.586   1.642
 1284SOL    HW2 4311   0.100   2.696   1.575
 1285SOL     OW 4312   0.613   3.227   0.726
 1285SOL    HW1 4313   0.564   3.140   0.735
 1285SOL    HW2 4314   0.590   3.270   0.639
 1286SOL     OW 4315   1.293   3.090   1.423
 1286SOL    HW1 4316   1.330   3.017   1.365
 1286SOL    HW2 4317   1.345   3.095   1.508
 1287SOL     OW 4318   0.809   1.866   0.502
 1287SOL    HW1 4319   0.849   1.957   0.493
 1287SOL    HW2 4320   0.709   1.874   0.508
 1288SOL     OW 4321   0.197   2.838   1.264
 1288SOL    HW1 4322   0.286   2.793   1.250
 1288SOL    HW2 4323   0.124   2.773   1.245
 1289SOL     OW 4324   1.525   2.861   0.190
 1289SOL    HW1 4325   1.462   2.785   0.203
 1289SOL    HW2 4326   1.573   2.879   0.276
 1290SOL     OW 4327   1.187   3.654   1.616
 1290SOL    HW1 4328   1.211   3.714   1.540
 1290SOL    HW2 4329   1.194   3.559   1.586
 1291SOL     OW 4330   0.317   2.113   1.801
 1291SOL    HW1 4331   0.388   2.184   1.807
 1291SOL    HW2 4332   0.229   2.152   1.829
 1292SOL     OW 4333   1.466   3.279   0.953
 1292SOL    HW1 4334   1.407   3.285   1.033
 1292SOL    HW2 4335   1.451   3.191   0.907
 1293SOL     OW 4336   1.667   3.576   0.572
 1293SOL    HW1 4337   1.626   3.553   0.484
 1293SOL    HW2 4338   1.649   3.502   0.637
 1294SOL     OW 4339   0.598   2.591   0.270
 1294SOL    HW1 4340   0.622   2.660   0.202
 1294SOL    HW2 4341   0.520   2.624   0.324
 1295SOL     OW 4342   1.281   2.207   0.944
 1295SOL    HW1 4343   1.195   2.157   0.931
 1295SOL    HW2 4344   1.343   2.153   1.000
 1296SOL     OW 4345   1.576   3.524   0.307
 1296SOL    HW1 4346   1.665   3.570   0.310
 1296SOL    HW2 4347   1.555   3.500   0.212
 1297SOL     OW 4348   0.807   2.467   1.465
 1297SOL    HW1 4349   0.760   2.464   1.554
 1297SOL    HW2 4350   0.756   2.412   1.399
 1298SOL     OW 4351   1.394   2.331   1.674
 1298SOL    HW1 4352   1.374   2.374   1.762
 1298SOL    HW2 4353   1.472   2.269   1.683
 1299SOL     OW 4354   0.973   2.752   1.572
 1299SOL    HW1 4355   1.019   2.668   1.543
 1299SOL    HW2 4356   0.917   2.786   1.497
 1300SOL     OW 4357   0.991   2.272   1.242
 1300SOL    HW1 4358   0.914   2.306   1.296
 1300SOL    HW2 4359   0.957   2.221   1.163
 1301SOL     OW 4360   1.041   2.563   0.429
 1301SOL    HW1 4361   1.067   2.559   0.525
 1301SOL    HW2 4362   0.956   2.512   0.415
 1302SOL     OW 4363   0.076   2.673   0.789
 1302SOL    HW1 4364   0.175   2.661   0.798
 1302SOL    HW2 4365   0.052   2.768   0.810
 1303SOL     OW 4366   0.130   3.683   1.571
 1303SOL    HW1 4367   0.120   3.668   1.670
 1303SOL    HW2 4368   0.044   3.719   1.535
 1304SOL     OW 4369   0.865   2.210   0.195
 1304SOL    HW1 4370   0.924   2.273   0.146
 1304SOL    HW2 4371   0.884   2.116   0.166
 1305SOL     OW 4372   1.719   2.447   1.831
 1305SOL    HW1 4373   1.693   2.536   1.795
 1305SOL    HW2 4374   1.717   2.379   1.758
 1306SOL     OW 4375   1.362   3.006   0.545
 1306SOL    HW1 4376   1.445   2.977   0.497
 1306SOL    HW2 4377   1.313   3.073   0.489
 1307SOL     OW 4378   0.550   2.058   0.885
 1307SOL    HW1 4379   0.545   2.053   0.985
 1307SOL    HW2 4380   0.552   2.154   0.856
 1308SOL     OW 4381   1.008   3.318   0.477
 1308SOL    HW1 4382   0.962   3.390   0.425
 1308SOL    HW2 4383   1.004   3.338   0.575
 1309SOL     OW 4384   0.351   3.663   0.853
 1309SOL    HW1 4385   0.401   3.577   0.859
 1309SOL    HW2 4386   0.416   3.740   0.850
 1310SOL     OW 4387   1.795   2.928   0.873
 1310SOL    HW1 4388   1.733   2.913   0.797
 1310SOL    HW2 4389   1.743   2.939   0.958
 1311SOL     OW 4390   1.227   3.412   1.506
 1311SOL    HW1 4391   1.233   3.335   1.570
 1311SOL    HW2 4392   1.175   3.386   1.426
 1312SOL     OW 4393   0.321   2.805   0.242
 1312SOL    HW1 4394   0.403   2.844   0.200
 1312SOL    HW2 4395   0.294   2.723   0.193
 1313SOL     OW 4396   1.458   2.597   0.728
 1313SOL    HW1 4397   1.453   2.532   0.803
 1313SOL    HW2 4398   1.538   2.656   0.741
 1314SOL     OW 4399   0.461   3.128   1.727
 1314SOL    HW1 4400   0.411   3.129   1.641
 1314SOL    HW2 4401   0.398   3.110   1.803
 1315SOL     OW 4402   1.111   3.638   0.237
 1315SOL    HW1 4403   1.051   3.576   0.287
 1315SOL    HW2 4404   1.142   3.594   0.152
 1316SOL     OW 4405   0.202   2.147   1.498
 1316SOL    HW1 4406   0.122   2.207   1.485
 1316SOL    HW2 4407   0.192   2.098   1.584
 1317SOL     OW 4408   1.632   3.239   0.081
 1317SOL    HW1 4409   1.600   3.333   0.071
 1317SOL    HW2 4410   1.556   3.176   0.069
 1318SOL     OW 4411   0.464   3.605   0.323
 1318SOL    HW1 4412   0.497   3.644   0.409
 1318SOL    HW2 4413   0.540   3.598   0.258
 1319SOL     OW 4414   1.400   1.969   0.426
 1319SOL    HW1 4415   1.376   1.932   0.336
 1319SOL    HW2 4416   1.499   1.985   0.430
 1320SOL     OW 4417   0.249   3.647   1.241
 1320SOL    HW1 4418   0.306   3.582   1.291
 1320SOL    HW2 4419   0.233   3.614   1.148
 1321SOL     OW 4420   0.940   3.560   0.904
 1321SOL    HW1 4421   1.020   3.503   0.925
 1321SOL    HW2 4422   0.891   3.520   0.827
 1322SOL     OW 4423   0.382   2.562   0.480
 1322SOL    HW1 4424   0.427   2.472   0.477
 1322SOL    HW2 4425   0.288   2.551   0.513
 1323SOL     OW 4426   1.547   2.084   1.729
 1323SOL    HW1 4427   1.542   2.121   1.821
 1323SOL    HW2 4428   1.475   2.015   1.717
 1324SOL     OW 4429   0.614   1.984   0.117
 1324SOL    HW1 4430   0.712   1.962   0.124
 1324SOL    HW2 4431   0.583   1.967   0.024
 1325SOL     OW 4432   0.781   2.126   1.749
 1325SOL    HW1 4433   0.848   2.065   1.792
 1325SOL    HW2 4434   0.708   2.145   1.814
 1326SOL     OW 4435   0.888   3.376   1.195
 1326SOL    HW1 4436   0.865   3.351   1.101
 1326SOL    HW2 4437   0.949   3.307   1.234
 1327SOL     OW 4438   1.351   2.452   1.433
 1327SOL    HW1 4439   1.379   2.409   1.518
 1327SOL    HW2 4440   1.376   2.548   1.434
 1328SOL     OW 4441   0.803   3.264   0.924
 1328SOL    HW1 4442   0.893   3.278   0.882
 1328SOL    HW2 4443   0.732   3.266   0.853
 1329SOL     OW 4444   0.922   2.365   0.899
 1329SOL    HW1 4445   0.897   2.356   0.803
 1329SOL    HW2 4446   0.970   2.283   0.930
 1330SOL     OW 4447   0.539   1.926   0.512
 1330SOL    HW1 4448   0.458   1.927   0.570
 1330SOL    HW2 4449   0.542   2.009   0.457
 1331SOL     OW 4450   1.434   3.050   0.041
 1331SOL    HW1 4451   1.466   2.974   0.098
 1331SOL    HW2 4452   1.342   3.077   0.071
 1332SOL     OW 4453   0.297   1.897   0.171
 1332SOL    HW1 4454   0.346   1.981   0.150
 1332SOL    HW2 4455   0.359   1.832   0.216
 1333SOL     OW 4456   0.935   2.098   0.480
 1333SOL    HW1 4457   0.887   2.139   0.402
 1333SOL    HW2 4458   1.034   2.096   0.461
 1334SOL     OW 4459   1.076   2.545   1.464
 1334SOL    HW1 4460   0.996   2.484   1.467
 1334SOL    HW2 4461   1.157   2.492   1.440
 1335SOL     OW 4462   1.227   3.432   0.793
 1335SOL    HW1 4463   1.248   3.506   0.728
 1335SOL    HW2 4464   1.295   3.432   0.866
 1336SOL     OW 4465   0.459   3.014   0.741
 1336SOL    HW1 4466   0.388   2.987   0.806
 1336SOL    HW2 4467   0.433   2.986   0.648
 1337SOL     OW 4468   1.271   3.659   0.591
 1337SOL    HW1 4469   1.315   3.723   0.527
 1337SOL    HW2 4470   1.221   3.711   0.661
 1338SOL     OW 4471   1.032   2.411   0.016
 1338SOL    HW1 4472   0.991   2.493  -0.023
 1338SOL    HW2 4473   1.096   2.437   0.089
 1339SOL     OW 4474   0.078   2.418   1.386
 1339SOL    HW1 4475   0.170   2.417   1.345
 1339SOL    HW2 4476   0.072   2.492   1.453
 1340SOL     OW 4477   0.561   2.084   1.147
 1340SOL    HW1 4478   0.599   2.000   1.184
 1340SOL    HW2 4479   0.473   2.103   1.191
 1341SOL     OW 4480   0.866   2.316   0.642
 1341SOL    HW1 4481   0.834   2.388   0.580
 1341SOL    HW2 4482   0.890   2.235   0.589
 1342SOL     OW 4483   1.017   1.901   0.753
 1342SOL    HW1 4484   0.945   1.906   0.684
 1342SOL    HW2 4485   0.993   1.832   0.822
 1343SOL     OW 4486   1.429   3.035   0.867
 1343SOL    HW1 4487   1.374   2.951   0.860
 1343SOL    HW2 4488   1.455   3.064   0.775
 1344SOL     OW 4489   1.466   2.452   0.992
 1344SOL    HW1 4490   1.436   2.357   0.999
 1344SOL    HW2 4491   1.539   2.468   1.058
 1345SOL     OW 4492   1.857   2.695   0.377
 1345SOL    HW1 4493   1.899   2.631   0.441
 1345SOL    HW2 4494   1.819   2.644   0.299
 1346SOL     OW 4495   0.488   3.247   0.174
 1346SOL    HW1 4496   0.401   3.232   0.221
 1346SOL    HW2 4497   0.471   3.273   0.079
 1347SOL     OW 4498   1.664   3.142   0.657
 1347SOL    HW1 4499   1.763   3.150   0.671
 1347SOL    HW2 4500   1.619   3.226   0.688
 1348SOL     OW 4501   1.390   2.437   0.078
 1348SOL    HW1 4502   1.336   2.416   0.159
 1348SOL    HW2 4503   1.481   2.396   0.087
 1349SOL     OW 4504   0.527   2.118   0.328
 1349SOL    HW1 4505   0.554   2.059   0.253
 1349SOL    HW2 4506   0.527   2.213   0.297
 1350SOL     OW 4507   1.754   3.085   1.588
 1350SOL    HW1 4508   1.845   3.046   1.575
 1350SOL    HW2 4509   1.762   3.181   1.612
 1351SOL     OW 4510   1.064   3.209   1.340
 1351SOL    HW1 4511   0.984   3.186   1.395
 1351SOL    HW2 4512   1.147   3.183   1.389
 1352SOL     OW 4513   1.592   3.491   1.625
 1352SOL    HW1 4514   1.619   3.525   1.535
 1352SOL    HW2 4515   1.671   3.453   1.671
 1353SOL     OW 4516   1.111   3.057   1.100
 1353SOL    HW1 4517   1.071   3.101   1.181
 1353SOL    HW2 4518   1.070   3.094   1.017
 1354SOL     OW 4519   1.638   2.961   1.079
 1354SOL    HW1 4520   1.643   3.042   1.138
 1354SOL    HW2 4521   1.552   2.963   1.028
 1355SOL     OW 4522   0.915   1.951   1.402
 1355SOL    HW1 4523   0.940   1.931   1.307
 1355SOL    HW2 4524   0.987   2.007   1.444
 1356SOL     OW 4525   0.980   2.978   1.719
 1356SOL    HW1 4526   0.881   2.984   1.729
 1356SOL    HW2 4527   1.003   2.898   1.663
 1357SOL     OW 4528   0.705   2.912   0.368
 1357SOL    HW1 4529   0.691   2.919   0.467
 1357SOL    HW2 4530   0.789   2.861   0.350
 1358SOL     OW 4531   0.410   2.675   1.251
 1358SOL    HW1 4532   0.496   2.687   1.301
 1358SOL    HW2 4533   0.368   2.588   1.278
 1359SOL     OW 4534   1.274   2.248   1.262
 1359SOL    HW1 4535   1.295   2.322   1.326
 1359SOL    HW2 4536   1.185   2.265   1.219
 1360SOL     OW 4537   0.064   3.426   1.331
 1360SOL    HW1 4538   0.018   3.508   1.297
 1360SOL    HW2 4539   0.162   3.445   1.340
 1361SOL     OW 4540   0.367   2.962   0.501
 1361SOL    HW1 4541   0.360   3.045   0.445
 1361SOL    HW2 4542   0.371   2.882   0.441
 1362SOL     OW 4543   0.566   2.399   0.865
 1362SOL    HW1 4544   0.578   2.465   0.791
 1362SOL    HW2 4545   0.612   2.433   0.948
 1363SOL     OW 4546   1.252   3.210   0.388
 1363SOL    HW1 4547   1.302   3.287   0.428
 1363SOL    HW2 4548   1.157   3.212   0.420
 1364SOL     OW 4549   1.272   3.307   1.142
 1364SOL    HW1 4550   1.319   3.320   1.229
 1364SOL    HW2 4551   1.206   3.233   1.151
 1365SOL     OW 4552   1.582   2.501   0.472
 1365SOL    HW1 4553   1.551   2.562   0.545
 1365SOL    HW2 4554   1.632   2.553   0.403
 1366SOL     OW 4555   0.354   3.372   1.329
 1366SOL    HW1 4556   0.333   3.328   1.242
 1366SOL    HW2 4557   0.451   3.398   1.332
 1367SOL     OW 4558   0.402   2.613   1.598
 1367SOL    HW1 4559   0.470   2.668   1.551
 1367SOL    HW2 4560   0.442   2.525   1.625
 1368SOL     OW 4561   1.587   2.641   1.670
 1368SOL    HW1 4562   1.495   2.679   1.665
 1368SOL    HW2 4563   1.647   2.688   1.605
 1369SOL     OW 4564   1.013   1.967   1.770
 1369SOL    HW1 4565   1.019   2.052   1.718
 1369SOL    HW2 4566   1.045   1.891   1.713
 1370SOL     OW 4567   0.504   1.912   1.740
 1370SOL    HW1 4568   0.462   1.855   1.670
 1370SOL    HW2 4569   0.438   1.981   1.772
 1371SOL     OW 4570   0.573   2.732   1.029
 1371SOL    HW1 4571   0.617   2.821   1.020
 1371SOL    HW2 4572   0.510   2.732   1.106
 1372SOL     OW 4573   1.360   2.724   1.045
 1372SOL    HW1 4574   1.285   2.724   0.979
 1372SOL    HW2 4575   1.397   2.632   1.054
 1373SOL     OW 4576   1.209   2.387   0.275
 1373SOL    HW1 4577   1.222   2.303   0.329
 1373SOL    HW2 4578   1.180   2.461   0.335
 1374SOL     OW 4579   0.307   2.075   1.231
 1374SOL    HW1 4580   0.284   2.112   1.321
 1374SOL    HW2 4581   0.277   1.980   1.225
 1375SOL     OW 4582   0.037   3.172   1.282
 1375SOL    HW1 4583   0.090   3.123   1.350
 1375SOL    HW2 4584   0.059   3.270   1.287
 1376SOL     OW 4585   0.732   2.496   1.064
 1376SOL    HW1 4586   0.791   2.470   0.988
 1376SOL    HW2 4587   0.704   2.592   1.053
 1377SOL     OW 4588   1.728   2.797   1.854
 1377SOL    HW1 4589   1.682   2.790   1.765
 1377SOL    HW2 4590   1.666   2.841   1.920
 1378SOL     OW 4591   0.307   1.925   0.618
 1378SOL    HW1 4592   0.296   2.019   0.651
 1378SOL    HW2 4593   0.302   1.862   0.695
 1379SOL     OW 4594   1.622   2.229   0.374
 1379SOL    HW1 4595   1.624   2.153   0.438
 1379SOL    HW2 4596   1.574   2.306   0.414
 1380SOL     OW 4597   1.023   2.628   0.966
 1380SOL    HW1 4598   1.038   2.649   1.062
 1380SOL    HW2 4599   0.993   2.533   0.957
 1381SOL     OW 4600   0.980   3.435   1.700
 1381SOL    HW1 4601   0.960   3.479   1.612
 1381SOL    HW2 4602   1.019   3.344   1.684
 1382SOL     OW 4603   1.859   3.380   1.605
 1382SOL    HW1 4604   1.873   3.407   1.510
 1382SOL    HW2 4605   1.942   3.402   1.658
 1383SOL     OW 4606   0.350   2.760   1.804
 1383SOL    HW1 4607   0.426   2.804   1.852
 1383SOL    HW2 4608   0.385   2.713   1.722
 1384SOL     OW 4609   1.540   2.136   0.125
 1384SOL    HW1 4610   1.479   2.061   0.148
 1384SOL    HW2 4611   1.562   2.188   0.208
 1385SOL     OW 4612   1.303   2.700   0.042
 1385SOL    HW1 4613   1.337   2.607   0.057
 1385SOL    HW2 4614   1.321   2.727  -0.053
 1386SOL     OW 4615   1.068   3.195   0.849
 1386SOL    HW1 4616   1.075   3.111   0.794
 1386SOL    HW2 4617   1.130   3.264   0.813
 1387SOL     OW 4618   0.319   2.672   0.949
 1387SOL    HW1 4619   0.412   2.708   0.954
 1387SOL    HW2 4620   0.313   2.587   1.001
 1388SOL     OW 4621   0.339   2.371   1.006
 1388SOL    HW1 4622   0.287   2.288   0.989
 1388SOL    HW2 4623   0.416   2.376   0.942
 1389SOL     OW 4624   1.138   2.242   1.678
 1389SOL    HW1 4625   1.093   2.305   1.742
 1389SOL    HW2 4626   1.231   2.273   1.661
 1390SOL     OW 4627   1.160   2.069   1.477
 1390SOL    HW1 4628   1.160   2.133   1.554
 1390SOL    HW2 4629   1.188   2.117   1.394
 1391SOL     OW 4630   0.008   3.188   0.200
 1391SOL    HW1 4631  -0.085   3.209   0.169
 1391SOL    HW2 4632   0.018   3.089   0.213
 1392SOL     OW 4633   0.088   3.663   0.927
 1392SOL    HW1 4634   0.046   3.577   0.900
 1392SOL    HW2 4635   0.182   3.666   0.893
 1393SOL     OW 4636   0.504   3.430   0.910
 1393SOL    HW1 4637   0.570   3.504   0.919
 1393SOL    HW2 4638   0.548   3.351   0.868
 1394SOL     OW 4639   1.002   2.658   1.238
 1394SOL    HW1 4640   1.043   2.626   1.324
 1394SOL    HW2 4641   0.906   2.631   1.235
 1395SOL     OW 4642   0.040   2.406   1.114
 1395SOL    HW1 4643   0.125   2.373   1.073
 1395SOL    HW2 4644   0.053   2.421   1.212
 1396SOL     OW 4645   0.189   2.382   1.722
 1396SOL    HW1 4646   0.248   2.342   1.652
 1396SOL    HW2 4647   0.131   2.453   1.681
 1397SOL     OW 4648   1.369   2.812   1.660
 1397SOL    HW1 4649   1.408   2.901   1.680
 1397SOL    HW2 4650   1.379   2.792   1.563
 1398SOL     OW 4651   0.815   2.434   0.325
 1398SOL    HW1 4652   0.822   2.345   0.279
 1398SOL    HW2 4653   0.721   2.468   0.317
 1399SOL     OW 4654   1.657   2.466   1.206
 1399SOL    HW1 4655   1.619   2.397   1.268
 1399SOL    HW2 4656   1.739   2.430   1.162
 1400SOL     OW 4657   0.252   3.426   1.744
 1400SOL    HW1 4658   0.222   3.483   1.820
 1400SOL    HW2 4659   0.245   3.329   1.770
 1401SOL     OW 4660   0.671   2.326   1.269
 1401SOL    HW1 4661   0.637   2.237   1.239
 1401SOL    HW2 4662   0.697   2.380   1.189
 1402SOL     OW 4663   0.930   3.540   1.465
 1402SOL    HW1 4664   0.906   3.522   1.370
 1402SOL    HW2 4665   0.960   3.634   1.475
 1403SOL     OW 4666   0.473   2.362   0.191
 1403SOL    HW1 4667   0.534   2.442   0.195
 1403SOL    HW2 4668   0.378   2.393   0.198
 1404SOL     OW 4669   0.159   2.999   1.466
 1404SOL    HW1 4670   0.181   2.938   1.542
 1404SOL    HW2 4671   0.169   2.950   1.380
 1405SOL     OW 4672   1.347   2.921   1.234
 1405SOL    HW1 4673   1.371   2.858   1.160
 1405SOL    HW2 4674   1.257   2.961   1.216
 1406SOL     OW 4675   1.302   2.717   0.309
 1406SOL    HW1 4676   1.216   2.686   0.351
 1406SOL    HW2 4677   1.298   2.703   0.210
 1407SOL     OW 4678   1.759   3.609   1.154
 1407SOL    HW1 4679   1.820   3.639   1.081
 1407SOL    HW2 4680   1.721   3.520   1.132
 1408SOL     OW 4681   1.252   3.593   1.128
 1408SOL    HW1 4682   1.336   3.598   1.074
 1408SOL    HW2 4683   1.229   3.497   1.146
 1409SOL     OW 4684   0.083   3.120   1.022
 1409SOL    HW1 4685   0.078   3.119   1.122
 1409SOL    HW2 4686   0.000   3.079   0.984
 1410SOL     OW 4687   0.688   3.524   1.716
 1410SOL    HW1 4688   0.632   3.605   1.725
 1410SOL    HW2 4689   0.740   3.528   1.630
 1411SOL     OW 4690   0.903   1.948   0.133
 1411SOL    HW1 4691   0.954   1.949   0.047
 1411SOL    HW2 4692   0.959   1.906   0.204
 1412SOL     OW 4693   1.726   1.997   0.523
 1412SOL    HW1 4694   1.799   1.980   0.456
 1412SOL    HW2 4695   1.695   1.910   0.561
 1413SOL     OW 4696   1.388   3.435   0.477
 1413SOL    HW1 4697   1.455   3.447   0.403
 1413SOL    HW2 4698   1.348   3.524   0.500
 1414SOL     OW 4699   0.130   3.656   1.851
 1414SOL    HW1 4700   0.089   3.582   1.904
 1414SOL    HW2 4701   0.194   3.707   1.909
 1415SOL     OW 4702   1.280   2.789   0.672
 1415SOL    HW1 4703   1.340   2.708   0.674
 1415SOL    HW2 4704   1.320   2.858   0.612
 1416SOL     OW 4705   0.830   3.135   1.422
 1416SOL    HW1 4706   0.825   3.168   1.517
 1416SOL    HW2 4707   0.744   3.154   1.376
 1417SOL     OW 4708   0.672   3.478   0.154
 1417SOL    HW1 4709   0.681   3.488   0.055
 1417SOL    HW2 4710   0.632   3.389   0.175
 1418SOL     OW 4711   1.650   3.582   1.394
 1418SOL    HW1 4712   1.703   3.592   1.310
 1418SOL    HW2 4713   1.623   3.672   1.428
 1419SOL     OW 4714   1.841   2.037   0.963
 1419SOL    HW1 4715   1.880   1.952   0.927
 1419SOL    HW2 4716   1.743   2.039   0.944
 1420SOL     OW 4717   0.263   2.188   0.720
 1420SOL    HW1 4718   0.184   2.239   0.686
 1420SOL    HW2 4719   0.254   2.173   0.818
 1421SOL     OW 4720   1.194   3.474   0.031
 1421SOL    HW1 4721   1.200   3.381   0.068
 1421SOL    HW2 4722   1.135   3.474  -0.049
 1422SOL     OW 4723   0.822   2.864   1.372
 1422SOL    HW1 4724   0.862   2.863   1.280
 1422SOL    HW2 4725   0.832   2.956   1.412
 1423SOL     OW 4726   0.916   2.772   0.291
 1423SOL    HW1 4727   0.979   2.810   0.223
 1423SOL    HW2 4728   0.956   2.689   0.330
 1424SOL     OW 4729   1.504   3.469   0.044
 1424SOL    HW1 4730   1.412   3.506   0.051
 1424SOL    HW2 4731   1.542   3.489  -0.046
 1425SOL     OW 4732   0.372   3.150   1.490
 1425SOL    HW1 4733   0.359   3.243   1.456
 1425SOL    HW2 4734   0.288   3.098   1.477
 1426SOL     OW 4735   1.614   3.154   1.289
 1426SOL    HW1 4736   1.674   3.157   1.369
 1426SOL    HW2 4737   1.539   3.218   1.302
 1427SOL     OW 4738   1.039   2.960   0.696
 1427SOL    HW1 4739   0.969   2.913   0.750
 1427SOL    HW2 4740   1.098   2.892   0.653
 1428SOL     OW 4741   1.014   2.098   0.971
 1428SOL    HW1 4742   1.006   2.062   0.878
 1428SOL    HW2 4743   1.012   2.022   1.036
 1429SOL     OW 4744   0.590   3.349   0.491
 1429SOL    HW1 4745   0.632   3.291   0.421
 1429SOL    HW2 4746   0.546   3.428   0.447
 1430SOL     OW 4747   1.709   2.247   1.381
 1430SOL    HW1 4748   1.782   2.316   1.385
 1430SOL    HW2 4749   1.737   2.172   1.322
 1431SOL     OW 4750   0.255   3.210   0.290
 1431SOL    HW1 4751   0.159   3.211   0.263
 1431SOL    HW2 4752   0.267   3.263   0.374
 1432SOL     OW 4753   0.105   2.875   1.726
 1432SOL    HW1 4754   0.028   2.842   1.780
 1432SOL    HW2 4755   0.190   2.845   1.768
 1433SOL     OW 4756   0.672   2.065   1.489
 1433SOL    HW1 4757   0.762   2.049   1.449
 1433SOL    HW2 4758   0.680   2.070   1.588
 1434SOL     OW 4759   0.075   2.207   0.033
 1434SOL    HW1 4760  -0.017   2.179   0.004
 1434SOL    HW2 4761   0.106   2.284  -0.023
 1435SOL     OW 4762   1.440   2.718   1.398
 1435SOL    HW1 4763   1.383   2.770   1.335
 1435SOL    HW2 4764   1.536   2.730   1.374
 1436SOL     OW 4765   0.072   2.028   0.318
 1436SOL    HW1 4766   0.055   2.111   0.264
 1436SOL    HW2 4767   0.162   1.991   0.296
 1437SOL     OW 4768   1.183   3.197   0.119
 1437SOL    HW1 4769   1.084   3.186   0.121
 1437SOL    HW2 4770   1.217   3.212   0.212
 1438SOL     OW 4771   0.613   2.704   1.431
 1438SOL    HW1 4772   0.669   2.785   1.414
 1438SOL    HW2 4773   0.672   2.624   1.434
 1439SOL     OW 4774   1.493   3.629   0.959
 1439SOL    HW1 4775   1.526   3.693   0.890
 1439SOL    HW2 4776   1.559   3.623   1.034
 1440SOL     OW 4777   0.716   2.427   1.708
 1440SOL    HW1 4778   0.735   2.492   1.782
 1440SOL    HW2 4779   0.776   2.347   1.717
 1441SOL     OW 4780   1.450   3.082   1.633
 1441SOL    HW1 4781   1.441   3.072   1.732
 1441SOL    HW2 4782   1.546   3.075   1.607
 1442SOL     OW 4783   0.390   3.603   1.560
 1442SOL    HW1 4784   0.299   3.644   1.558
 1442SOL    HW2 4785   0.383   3.509   1.592
 1443SOL     OW 4786   1.674   2.745   1.254
 1443SOL    HW1 4787   1.647   2.656   1.217
 1443SOL    HW2 4788   1.675   2.813   1.181
 1444SOL     OW 4789   1.225   2.187   0.449
 1444SOL    HW1 4790   1.290   2.113   0.438
 1444SOL    HW2 4791   1.245   2.237   0.533
 1445SOL     OW 4792   0.594   2.607   0.652
 1445SOL    HW1 4793   0.644   2.692   0.633
 1445SOL    HW2 4794   0.506   2.609   0.604
 1446SOL     OW 4795   1.777   2.204   1.642
 1446SOL    HW1 4796   1.760   2.235   1.548
 1446SOL    HW2 4797   1.693   2.167   1.680
 1447SOL     OW 4798   1.730   2.796   1.517
 1447SOL    HW1 4799   1.768   2.887   1.532
 1447SOL    HW2 4800   1.722   2.779   1.418
 1448SOL     OW 4801   0.859   3.236   0.016
 1448SOL    HW1 4802   0.813   3.251   0.104
 1448SOL    HW2 4803   0.903   3.321  -0.014
 1449SOL     OW 4804   0.661   3.652   0.953
 1449SOL    HW1 4805   0.615   3.740   0.940
 1449SOL    HW2 4806   0.760   3.664   0.946
 1450SOL     OW 4807   0.859   2.818   0.861
 1450SOL    HW1 4808   0.913   2.749   0.909
 1450SOL    HW2 4809   0.827   2.887   0.927
 1451SOL     OW 4810   1.083   2.846   0.087
 1451SOL    HW1 4811   1.060   2.899   0.005
 1451SOL    HW2 4812   1.164   2.790   0.068
 1452SOL     OW 4813   1.861   3.431   0.851
 1452SOL    HW1 4814   1.790   3.419   0.781
 1452SOL    HW2 4815   1.862   3.352   0.911
 1453SOL     OW 4816   0.221   3.176   1.844
 1453SOL    HW1 4817   0.156   3.103   1.823
 1453SOL    HW2 4818   0.225   3.190   1.942
 1454SOL     OW 4819   0.079   3.102   0.653
 1454SOL    HW1 4820   0.078   3.055   0.741
 1454SOL    HW2 4821   0.161   3.074   0.602
 1455SOL     OW 4822   0.672   3.253   1.624
 1455SOL    HW1 4823   0.594   3.203   1.662
 1455SOL    HW2 4824   0.669   3.348   1.655
 1456SOL     OW 4825   1.824   2.054   1.227
 1456SOL    HW1 4826   1.820   1.964   1.271
 1456SOL    HW2 4827   1.827   2.043   1.128
 1457SOL     OW 4828   0.428   2.286   0.520
 1457SOL    HW1 4829   0.458   2.214   0.458
 1457SOL    HW2 4830   0.389   2.246   0.603
 1458SOL     OW 4831   1.705   3.349   1.104
 1458SOL    HW1 4832   1.612   3.324   1.077
 1458SOL    HW2 4833   1.731   3.299   1.186
 1459SOL     OW 4834   0.317   2.409   1.280
 1459SOL    HW1 4835   0.355   2.350   1.352
 1459SOL    HW2 4836   0.357   2.383   1.192
 1460SOL     OW 4837   0.812   3.448   0.687
 1460SOL    HW1 4838   0.844   3.458   0.593
 1460SOL    HW2 4839   0.733   3.386   0.689
 1461SOL     OW 4840   1.424   2.076   1.112
 1461SOL    HW1 4841   1.476   2.011   1.167
 1461SOL    HW2 4842   1.375   2.139   1.173
 1462SOL     OW 4843   1.001   1.896   1.154
 1462SOL    HW1 4844   0.938   1.824   1.123
 1462SOL    HW2 4845   1.094   1.860   1.154
 1463SOL     OW 4846   0.770   3.192   0.301
 1463SOL    HW1 4847   0.724   3.105   0.318
 1463SOL    HW2 4848   0.861   3.189   0.342
 1464SOL     OW 4849   0.618   3.429   1.284
 1464SOL    HW1 4850   0.613   3.511   1.341
 1464SOL    HW2 4851   0.707   3.426   1.239
 1465SOL     OW 4852   1.352   1.914   0.168
 1465SOL    HW1 4853   1.387   1.873   0.084
 1465SOL    HW2 4854   1.262   1.876   0.188
 1466SOL     OW 4855   1.300   2.315   0.691
 1466SOL    HW1 4856   1.241   2.395   0.695
 1466SOL    HW2 4857   1.315   2.280   0.784
 1467SOL     OW 4858   1.593   2.083   0.882
 1467SOL    HW1 4859   1.509   2.082   0.936
 1467SOL    HW2 4860   1.595   2.166   0.826
 1468SOL     OW 4861   0.039   2.939   0.300
 1468SOL    HW1 4862   0.138   2.928   0.291
 1468SOL    HW2 4863  -0.001   2.853   0.332
 1469SOL     OW 4864   0.875   3.508   0.337
 1469SOL    HW1 4865   0.798   3.473   0.283
 1469SOL    HW2 4866   0.843   3.579   0.399
 1470SOL     OW 4867   0.230   2.490   1.975
 1470SOL    HW1 4868   0.137   2.488   2.012
 1470SOL    HW2 4869   0.231   2.451   1.883
 1471SOL     OW 4870   0.225   2.137   2.858
 1471SOL    HW1 4871   0.260   2.120   2.950
 1471SOL    HW2 4872   0.137   2.092   2.846
 1472SOL     OW 4873   0.019   2.230   2.509
 1472SOL    HW1 4874  -0.063   2.273   2.548
 1472SOL    HW2 4875  -0.009   2.157   2.446
 1473SOL     OW 4876   0.569   3.137   3.027
 1473SOL    HW1 4877   0.476   3.130   2.990
 1473SOL    HW2 4878   0.580   3.226   3.071
 1474SOL     OW 4879   1.555   3.373   2.565
 1474SOL    HW1 4880   1.498   3.357   2.646
 1474SOL    HW2 4881   1.496   3.383   2.485
 1475SOL     OW 4882   1.135   2.565   2.579
 1475SOL    HW1 4883   1.192   2.643   2.554
 1475SOL    HW2 4884   1.075   2.591   2.655
 1476SOL     OW 4885   1.755   2.469   2.093
 1476SOL    HW1 4886   1.743   2.456   1.994
 1476SOL    HW2 4887   1.725   2.388   2.142
 1477SOL     OW 4888   0.768   3.006   2.885
 1477SOL    HW1 4889   0.690   3.023   2.945
 1477SOL    HW2 4890   0.802   3.093   2.849
 1478SOL     OW 4891   0.850   2.660   3.685
 1478SOL    HW1 4892   0.846   2.736   3.750
 1478SOL    HW2 4893   0.872   2.696   3.594
 1479SOL     OW 4894   0.685   2.874   2.527
 1479SOL    HW1 4895   0.754   2.858   2.597
 1479SOL    HW2 4896   0.612   2.931   2.565
 1480SOL     OW 4897   0.686   3.023   3.665
 1480SOL    HW1 4898   0.746   3.102   3.679
 1480SOL    HW2 4899   0.600   3.054   3.624
 1481SOL     OW 4900   0.335   3.297   2.923
 1481SOL    HW1 4901   0.257   3.266   2.870
 1481SOL    HW2 4902   0.393   3.355   2.866
 1482SOL     OW 4903   1.460   3.367   3.201
 1482SOL    HW1 4904   1.484   3.461   3.227
 1482SOL    HW2 4905   1.444   3.313   3.283
 1483SOL     OW 4906   0.438   2.254   3.361
 1483SOL    HW1 4907   0.520   2.198   3.370
 1483SOL    HW2 4908   0.357   2.196   3.365
 1484SOL     OW 4909   1.603   2.309   2.599
 1484SOL    HW1 4910   1.529   2.355   2.549
 1484SOL    HW2 4911   1.654   2.377   2.652
 1485SOL     OW 4912   0.231   3.575   2.345
 1485SOL    HW1 4913   0.265   3.652   2.399
 1485SOL    HW2 4914   0.275   3.575   2.255
 1486SOL     OW 4915   1.127   3.203   3.552
 1486SOL    HW1 4916   1.174   3.203   3.640
 1486SOL    HW2 4917   1.079   3.116   3.541
 1487SOL     OW 4918   0.230   3.296   2.400
 1487SOL    HW1 4919   0.204   3.392   2.400
 1487SOL    HW2 4920   0.159   3.242   2.445
 1488SOL     OW 4921   0.240   2.953   2.748
 1488SOL    HW1 4922   0.254   2.869   2.800
 1488SOL    HW2 4923   0.185   3.017   2.803
 1489SOL     OW 4924   0.620   3.648   3.301
 1489SOL    HW1 4925   0.528   3.631   3.336
 1489SOL    HW2 4926   0.648   3.740   3.327
 1490SOL     OW 4927   0.606   2.826   1.985
 1490SOL    HW1 4928   0.613   2.910   1.931
 1490SOL    HW2 4929   0.652   2.839   2.073
 1491SOL     OW 4930   1.594   1.976   3.342
 1491SOL    HW1 4931   1.576   2.043   3.270
 1491SOL    HW2 4932   1.591   2.022   3.431
 1492SOL     OW 4933   0.122   2.505   2.425
 1492SOL    HW1 4934   0.077   2.417   2.442
 1492SOL    HW2 4935   0.121   2.559   2.509
 1493SOL     OW 4936   1.842   3.629   2.221
 1493SOL    HW1 4937   1.896   3.600   2.301
 1493SOL    HW2 4938   1.872   3.719   2.192
 1494SOL     OW 4939   0.027   3.458   1.979
 1494SOL    HW1 4940   0.008   3.362   2.000
 1494SOL    HW2 4941  -0.006   3.516   2.054
 1495SOL     OW 4942   1.689   2.784   2.474
 1495SOL    HW1 4943   1.784   2.755   2.482
 1495SOL    HW2 4944   1.681   2.849   2.399
 1496SOL     OW 4945   1.641   2.970   2.294
 1496SOL    HW1 4946   1.727   2.972   2.242
 1496SOL    HW2 4947   1.655   3.017   2.382
 1497SOL     OW 4948   0.113   2.599   3.459
 1497SOL    HW1 4949   0.201   2.586   3.504
 1497SOL    HW2 4950   0.100   2.696   3.437
 1498SOL     OW 4951   0.613   3.227   2.588
 1498SOL    HW1 4952   0.564   3.140   2.597
 1498SOL    HW2 4953   0.590   3.270   2.501
 1499SOL     OW 4954   1.293   3.090   3.285
 1499SOL    HW1 4955   1.330   3.017   3.227
 1499SOL    HW2 4956   1.345   3.095   3.370
 1500SOL     OW 4957   0.809   1.866   2.364
 1500SOL    HW1 4958   0.849   1.957   2.355
 1500SOL    HW2 4959   0.709   1.874   2.370
 1501SOL     OW 4960   0.197   2.838   3.126
 1501SOL    HW1 4961   0.286   2.793   3.112
 1501SOL    HW2 4962   0.124   2.773   3.107
 1502SOL     OW 4963   1.525   2.861   2.052
 1502SOL    HW1 4964   1.462   2.785   2.065
 1502SOL    HW2 4965   1.573   2.879   2.138
 1503SOL     OW 4966   1.187   3.654   3.478
 1503SOL    HW1 4967   1.211   3.714   3.402
 1503SOL    HW2 4968   1.194   3.559   3.448
 1504SOL     OW 4969   0.317   2.113   3.663
 1504SOL    HW1 4970   0.388   2.184   3.669
 1504SOL    HW2 4971   0.229   2.152   3.691
 1505SOL     OW 4972   1.466   3.279   2.815
 1505SOL    HW1 4973   1.407   3.285   2.895
 1505SOL    HW2 4974   1.451   3.191   2.769
 1506SOL     OW 4975   1.667   3.576   2.434
 1506SOL    HW1 4976   1.626   3.553   2.346
 1506SOL    HW2 4977   1.649   3.502   2.499
 1507SOL     OW 4978   0.598   2.591   2.132
 1507SOL    HW1 4979   0.622   2.660   2.064
 1507SOL    HW2 4980   0.520   2.624   2.186
 1508SOL     OW 4981   1.281   2.207   2.806
 1508SOL    HW1 4982   1.195   2.157   2.793
 1508SOL    HW2 4983   1.343   2.153   2.862
 1509SOL     OW 4984   1.576   3.524   2.169
 1509SOL    HW1 4985   1.665   3.570   2.172
 1509SOL    HW2 4986   1.555   3.500   2.074
 1510SOL     OW 4987   0.807   2.467   3.327
 1510SOL    HW1 4988   0.760   2.464   3.416
 1510SOL    HW2 4989   0.756   2.412   3.261
 1511SOL     OW 4990   1.394   2.331   3.536
 1511SOL    HW1 4991   1.374   2.374   3.624
 1511SOL    HW2 4992   1.472   2.269   3.545
 1512SOL     OW 4993   0.973   2.752   3.434
 1512SOL    HW1 4994   1.019   2.668   3.405
 1512SOL    HW2 4995   0.917   2.786   3.359
 1513SOL     OW 4996   0.991   2.272   3.104
 1513SOL    HW1 4997   0.914   2.306   3.158
 1513SOL    HW2 4998   0.957   2.221   3.025
 1514SOL     OW 4999   1.041   2.563   2.291
 1514SOL    HW1 5000   1.067   2.559   2.387
 1514SOL    HW2 5001   0.956   2.512   2.277
 1515SOL     OW 5002   0.076   2.673   2.651
 1515SOL    HW1 5003   0.175   2.661   2.660
 1515SOL    HW2 5004   0.052   2.768   2.672
 1516SOL     OW 5005   0.130   3.683   3.433
 1516SOL    HW1 5006   0.120   3.668   3.532
 1516SOL    HW2 5007   0.044   3.719   3.397
 1517SOL     OW 5008   0.865   2.210   2.057
 1517SOL    HW1 5009   0.924   2.273   2.008
 1517SOL    HW2 5010   0.884   2.116   2.028
 1518SOL     OW 5011   1.719   2.447   3.693
 1518SOL    HW1 5012   1.693   2.536   3.657
 1518SOL    HW2 5013   1.717   2.379   3.620
 1519SOL     OW 5014   1.362   3.006   2.407
 1519SOL    HW1 5015   1.445   2.977   2.359
 1519SOL    HW2 5016   1.313   3.073   2.351
 1520SOL     OW 5017   0.550   2.058   2.747
 1520SOL    HW1 5018   0.545   2.053   2.847
 1520SOL    HW2 5019   0.552   2.154   2.718
 1521SOL     OW 5020   1.008   3.318   2.339
 1521SOL    HW1 5021   0.962   3.390   2.287
 1521SOL    HW2 5022   1.004   3.338   2.437
 1522SOL     OW 5023   0.351   3.663   2.715
 1522SOL    HW1 5024   0.401   3.577   2.721
 1522SOL    HW2 5025   0.416   3.740   2.712
 1523SOL     OW 5026   1.795   2.928   2.735
 1523SOL    HW1 5027   1.733   2.913   2.659
 1523SOL    HW2 5028   1.743   2.939   2.820
 1524SOL     OW 5029   1.227   3.412   3.368
 1524SOL    HW1 5030   1.233   3.335   3.432
 1524SOL    HW2 5031   1.175   3.386   3.288
 1525SOL     OW 5032   0.321   2.805   2.104
 1525SOL    HW1 5033   0.403   2.844   2.062
 1525SOL    HW2 5034   0.294   2.723   2.055
 1526SOL     OW 5035   1.458   2.597   2.590
 1526SOL    HW1 5036   1.453   2.532   2.665
 1526SOL    HW2 5037   1.538   2.656   2.603
 1527SOL     OW 5038   0.461   3.128   3.589
 1527SOL    HW1 5039   0.411   3.129   3.503
 1527SOL    HW2 5040   0.398   3.110   3.665
 1528SOL     OW 5041   1.111   3.638   2.099
 1528SOL    HW1 5042   1.051   3.576   2.149
 1528SOL    HW2 5043   1.142   3.594   2.014
 1529SOL     OW 5044   0.202   2.147   3.360
 1529SOL    HW1 5045   0.122   2.207   3.347
 1529SOL    HW2 5046   0.192   2.098   3.446
 1530SOL     OW 5047   1.632   3.239   1.943
 1530SOL    HW1 5048   1.600   3.333   1.933
 1530SOL    HW2 5049   1.556   3.176   1.931
 1531SOL     OW 5050   0.464   3.605   2.185
 1531SOL    HW1 5051   0.497   3.644   2.271
 1531SOL    HW2 5052   0.540   3.598   2.120
 1532SOL     OW 5053   1.400   1.969   2.288
 1532SOL    HW1 5054   1.376   1.932   2.198
 1532SOL    HW2 5055   1.499   1.985   2.292
 1533SOL     OW 5056   0.249   3.647   3.103
 1533SOL    HW1 5057   0.306   3.582   3.153
 1533SOL    HW2 5058   0.233   3.614   3.010
 1534SOL     OW 5059   0.940   3.560   2.766
 1534SOL    HW1 5060   1.020   3.503   2.787
 1534SOL    HW2 5061   0.891   3.520   2.689
 1535SOL     OW 5062   0.382   2.562   2.342
 1535SOL    HW1 5063   0.427   2.472   2.339
 1535SOL    HW2 5064   0.288   2.551   2.375
 1536SOL     OW 5065   1.547   2.084   3.591
 1536SOL    HW1 5066   1.542   2.121   3.683
 1536SOL    HW2 5067   1.475   2.015   3.579
 1537SOL     OW 5068   0.614   1.984   1.979
 1537SOL    HW1 5069   0.712   1.962   1.986
 1537SOL    HW2 5070   0.583   1.967   1.886
 1538SOL     OW 5071   0.781   2.126   3.611
 1538SOL    HW1 5072   0.848   2.065   3.654
 1538SOL    HW2 5073   0.708   2.145   3.676
 1539SOL     OW 5074   0.888   3.376   3.057
 1539SOL    HW1 5075   0.865   3.351   2.963
 1539SOL    HW2 5076   0.949   3.307   3.096
 1540SOL     OW 5077   1.351   2.452   3.295
 1540SOL    HW1 5078   1.379   2.409   3.380
 1540SOL    HW2 5079   1.376   2.548   3.296
 1541SOL     OW 5080   0.803   3.264   2.786
 1541SOL    HW1 5081   0.893   3.278   2.744
 1541SOL    HW2 5082   0.732   3.266   2.715
 1542SOL     OW 5083   0.922   2.365   2.761
 1542SOL    HW1 5084   0.897   2.356   2.665
 1542SOL    HW2 5085   0.970   2.283   2.792
 1543SOL     OW 5086   0.539   1.926   2.374
 1543SOL    HW1 5087   0.458   1.927   2.432
 1543SOL    HW2 5088   0.542   2.009   2.319
 1544SOL     OW 5089   1.434   3.050   1.903
 1544SOL    HW1 5090   1.466   2.974   1.960
 1544SOL    HW2 5091   1.342   3.077   1.933
 1545SOL     OW 5092   0.297   1.897   2.033
 1545SOL    HW1 5093   0.346   1.981   2.012
 1545SOL    HW2 5094   0.359   1.832   2.078
 1546SOL     OW 5095   0.935   2.098   2.342
 1546SOL    HW1 5096   0.887   2.139   2.264
 1546SOL    HW2 5097   1.034   2.096   2.323
 1547SOL     OW 5098   1.076   2.545   3.326
 1547SOL    HW1 5099   0.996   2.484   3.329
 1547SOL    HW2 5100   1.157   2.492   3.302
 1548SOL     OW 5101   1.227   3.432   2.655
 1548SOL    HW1 5102   1.248   3.506   2.590
 1548SOL    HW2 5103   1.295   3.432   2.728
 1549SOL     OW 5104   0.459   3.014   2.603
 1549SOL    HW1 5105   0.388   2.987   2.668
 1549SOL    HW2 5106   0.433   2.986   2.510
 1550SOL     OW 5107   1.271   3.659   2.453
 1550SOL    HW1 5108   1.315   3.723   2.389
 1550SOL    HW2 5109   1.221   3.711   2.523
 1551SOL     OW 5110   1.032   2.411   1.878
 1551SOL    HW1 5111   0.991   2.493   1.839
 1551SOL    HW2 5112   1.096   2.437   1.951
 1552SOL     OW 5113   0.078   2.418   3.248
 1552SOL    HW1 5114   0.170   2.417   3.207
 1552SOL    HW2 5115   0.072   2.492   3.315
 1553SOL     OW 5116   0.561   2.084   3.009
 1553SOL    HW1 5117   0.599   2.000   3.046
 1553SOL    HW2 5118   0.473   2.103   3.053
 1554SOL     OW 5119   0.866   2.316   2.504
 1554SOL    HW1 5120   0.834   2.388   2.442
 1554SOL    HW2 5121   0.890   2.235   2.451
 1555SOL     OW 5122   1.017   1.901   2.615
 1555SOL    HW1 5123   0.945   1.906   2.546
 1555SOL    HW2 5124   0.993   1.832   2.684
 1556SOL     OW 5125   1.429   3.035   2.729
 1556SOL    HW1 5126   1.374   2.951   2.722
 1556SOL    HW2 5127   1.455   3.064   2.637
 1557SOL     OW 5128   1.466   2.452   2.854
 1557SOL    HW1 5129   1.436   2.357   2.861
 1557SOL    HW2 5130   1.539   2.468   2.920
 1558SOL     OW 5131   1.857   2.695   2.239
 1558SOL    HW1 5132   1.899   2.631   2.303
 1558SOL    HW2 5133   1.819   2.644   2.161
 1559SOL     OW 5134   0.488   3.247   2.036
 1559SOL    HW1 5135   0.401   3.232   2.083
 1559SOL    HW2 5136   0.471   3.273   1.941
 1560SOL     OW 5137   1.664   3.142   2.519
 1560SOL    HW1 5138   1.763   3.150   2.533
 1560SOL    HW2 5139   1.619   3.226   2.550
 1561SOL     OW 5140   1.390   2.437   1.940
 1561SOL    HW1 5141   1.336   2.416   2.021
 1561SOL    HW2 5142   1.481   2.396   1.949
 1562SOL     OW 5143   0.527   2.118   2.190
 1562SOL    HW1 5144   0.554   2.059   2.115
 1562SOL    HW2 5145   0.527   2.213   2.159
 1563SOL     OW 5146   1.754   3.085   3.450
 1563SOL    HW1 5147   1.845   3.046   3.437
 1563SOL    HW2 5148   1.762   3.181   3.474
 1564SOL     OW 5149   1.064   3.209   3.202
 1564SOL    HW1 5150   0.984   3.186   3.257
 1564SOL    HW2 5151   1.147   3.183   3.251
 1565SOL     OW 5152   1.592   3.491   3.487
 1565SOL    HW1 5153   1.619   3.525   3.397
 1565SOL    HW2 5154   1.671   3.453   3.533
 1566SOL     OW 5155   1.111   3.057   2.962
 1566SOL    HW1 5156   1.071   3.101   3.043
 1566SOL    HW2 5157   1.070   3.094   2.879
 1567SOL     OW 5158   1.638   2.961   2.941
 1567SOL    HW1 5159   1.643   3.042   3.000
 1567SOL    HW2 5160   1.552   2.963   2.890
 1568SOL     OW 5161   0.915   1.951   3.264
 1568SOL    HW1 5162   0.940   1.931   3.169
 1568SOL    HW2 5163   0.987   2.007   3.306
 1569SOL     OW 5164   0.980   2.978   3.581
 1569SOL    HW1 5165   0.881   2.984   3.591
 1569SOL    HW2 5166   1.003   2.898   3.525
 1570SOL     OW 5167   0.705   2.912   2.230
 1570SOL    HW1 5168   0.691   2.919   2.329
 1570SOL    HW2 5169   0.789   2.861   2.212
 1571SOL     OW 5170   0.410   2.675   3.113
 1571SOL    HW1 5171   0.496   2.687   3.163
 1571SOL    HW2 5172   0.368   2.588   3.140
 1572SOL     OW 5173   1.274   2.248   3.124
 1572SOL    HW1 5174   1.295   2.322   3.188
 1572SOL    HW2 5175   1.185   2.265   3.081
 1573SOL     OW 5176   0.064   3.426   3.193
 1573SOL    HW1 5177   0.018   3.508   3.159
 1573SOL    HW2 5178   0.162   3.445   3.202
 1574SOL     OW 5179   0.367   2.962   2.363
 1574SOL    HW1 5180   0.360   3.045   2.307
 1574SOL    HW2 5181   0.371   2.882   2.303
 1575SOL     OW 5182   0.566   2.399   2.727
 1575SOL    HW1 5183   0.578   2.465   2.653
 1575SOL    HW2 5184   0.612   2.433   2.810
 1576SOL     OW 5185   1.252   3.210   2.250
 1576SOL    HW1 5186   1.302   3.287   2.290
 1576SOL    HW2 5187   1.157   3.212   2.282
 1577SOL     OW 5188   1.272   3.307   3.004
 1577SOL    HW1 5189   1.319   3.320   3.091
 1577SOL    HW2 5190   1.206   3.233   3.013
 1578SOL     OW 5191   1.582   2.501   2.334
 1578SOL    HW1 5192   1.551   2.562   2.407
 1578SOL    HW2 5193   1.632   2.553   2.265
 1579SOL     OW 5194   0.354   3.372   3.191
 1579SOL    HW1 5195   0.333   3.328   3.104
 1579SOL    HW2 5196   0.451   3.398   3.194
 1580SOL     OW 5197   0.402   2.613   3.460
 1580SOL    HW1 5198   0.470   2.668   3.413
 1580SOL    HW2 5199   0.442   2.525   3.487
 1581SOL     OW 5200   1.587   2.641   3.532
 1581SOL    HW1 5201   1.495   2.679   3.527
 1581SOL    HW2 5202   1.647   2.688   3.467
 1582SOL     OW 5203   1.013   1.967   3.632
 1582SOL    HW1 5204   1.019   2.052   3.580
 1582SOL    HW2 5205   1.045   1.891   3.575
 1583SOL     OW 5206   0.504   1.912   3.602
 1583SOL    HW1 5207   0.462   1.855   3.532
 1583SOL    HW2 5208   0.438   1.981   3.634
 1584SOL     OW 5209   0.573   2.732   2.891
 1584SOL    HW1 5210   0.617   2.821   2.882
 1584SOL    HW2 5211   0.510   2.732   2.968
 1585SOL     OW 5212   1.360   2.724   2.907
 1585SOL    HW1 5213   1.285   2.724   2.841
 1585SOL    HW2 5214   1.397   2.632   2.916
 1586SOL     OW 5215   1.209   2.387   2.137
 1586SOL    HW1 5216   1.222   2.303   2.191
 1586SOL    HW2 5217   1.180   2.461   2.197
 1587SOL     OW 5218   0.307   2.075   3.093
 1587SOL    HW1 5219   0.284   2.112   3.183
 1587SOL    HW2 5220   0.277   1.980   3.087
 1588SOL     OW 5221   0.037   3.172   3.144
 1588SOL    HW1 5222   0.090   3.123   3.212
 1588SOL    HW2 5223   0.059   3.270   3.149
 1589SOL     OW 5224   0.732   2.496   2.926
 1589SOL    HW1 5225   0.791   2.470   2.850
 1589SOL    HW2 5226   0.704   2.592   2.915
 1590SOL     OW 5227   1.728   2.797   3.716
 1590SOL    HW1 5228   1.682   2.790   3.627
 1590SOL    HW2 5229   1.666   2.841   3.782
 1591SOL     OW 5230   0.307   1.925   2.480
 1591SOL    HW1 5231   0.296   2.019   2.513
 1591SOL    HW2 5232   0.302   1.862   2.557
 1592SOL     OW 5233   1.622   2.229   2.236
 1592SOL    HW1 5234   1.624   2.153   2.300
 1592SOL    HW2 5235   1.574   2.306   2.276
 1593SOL     OW 5236   1.023   2.628   2.828
 1593SOL    HW1 5237   1.038   2.649   2.924
 1593SOL    HW2 5238   0.993   2.533   2.819
 1594SOL     OW 5239   0.980   3.435   3.562
 1594SOL    HW1 5240   0.960   3.479   3.474
 1594SOL    HW2 5241   1.019   3.344   3.546
 1595SOL     OW 5242   1.859   3.380   3.467
 1595SOL    HW1 5243   1.873   3.407   3.372
 1595SOL    HW2 5244   1.942   3.402   3.520
 1596SOL     OW 5245   0.350   2.760   3.666
 1596SOL    HW1 5246   0.426   2.804   3.714
 1596SOL    HW2 5247   0.385   2.713   3.584
 1597SOL     OW 5248   1.540   2.136   1.987
 1597SOL    HW1 5249   1.479   2.061   2.010
 1597SOL    HW2 5250   1.562   2.188   2.070
 1598SOL     OW 5251   1.303   2.700   1.904
 1598SOL    HW1 5252   1.337   2.607   1.919
 1598SOL    HW2 5253   1.321   2.727   1.809
 1599SOL     OW 5254   1.068   3.195   2.711
 1599SOL    HW1 5255   1.075   3.111   2.656
 1599SOL    HW2 5256   1.130   3.264   2.675
 1600SOL     OW 5257   0.319   2.672   2.811
 1600SOL    HW1 5258   0.412   2.708   2.816
 1600SOL    HW2 5259   0.313   2.587   2.863
 1601SOL     OW 5260   0.339   2.371   2.868
 1601SOL    HW1 5261   0.287   2.288   2.851
 1601SOL    HW2 5262   0.416   2.376   2.804
 1602SOL     OW 5263   1.138   2.242   3.540
 1602SOL    HW1 5264   1.093   2.305   3.604
 1602SOL    HW2 5265   1.231   2.273   3.523
 1603SOL     OW 5266   1.160   2.069   3.339
 1603SOL    HW1 5267   1.160   2.133   3.416
 1603SOL    HW2 5268   1.188   2.117   3.256
 1604SOL     OW 5269   0.008   3.188   2.062
 1604SOL    HW1 5270  -0.085   3.209   2.031
 1604SOL    HW2 5271   0.018   3.089   2.075
 1605SOL     OW 5272   0.088   3.663   2.789
 1605SOL    HW1 5273   0.046   3.577   2.762
 1605SOL    HW2 5274   0.182   3.666   2.755
 1606SOL     OW 5275   0.504   3.430   2.772
 1606SOL    HW1 5276   0.570   3.504   2.781
 1606SOL    HW2 5277   0.548   3.351   2.730
 1607SOL     OW 5278   1.002   2.658   3.100
 1607SOL    HW1 5279   1.043   2.626   3.186
 1607SOL    HW2 5280   0.906   2.631   3.097
 1608SOL     OW 5281   0.040   2.406   2.976
 1608SOL    HW1 5282   0.125   2.373   2.935
 1608SOL    HW2 5283   0.053   2.421   3.074
 1609SOL     OW 5284   0.189   2.382   3.584
 1609SOL    HW1 5285   0.248   2.342   3.514
 1609SOL    HW2 5286   0.131   2.453   3.543
 1610SOL     OW 5287   1.369   2.812   3.522
 1610SOL    HW1 5288   1.408   2.901   3.542
 1610SOL    HW2 5289   1.379   2.792   3.425
 1611SOL     OW 5290   0.815   2.434   2.187
 1611SOL    HW1 5291   0.822   2.345   2.141
 1611SOL    HW2 5292   0.721   2.468   2.179
 1612SOL     OW 5293   1.657   2.466   3.068
 1612SOL    HW1 5294   1.619   2.397   3.130
 1612SOL    HW2 5295   1.739   2.430   3.024
 1613SOL     OW 5296   0.252   3.426   3.606
 1613SOL    HW1 5297   0.222   3.483   3.682
 1613SOL    HW2 5298   0.245   3.329   3.632
 1614SOL     OW 5299   0.671   2.326   3.131
 1614SOL    HW1 5300   0.637   2.237   3.101
 1614SOL    HW2 5301   0.697   2.380   3.051
 1615SOL     OW 5302   0.930   3.540   3.327
 1615SOL    HW1 5303   0.906   3.522   3.232
 1615SOL    HW2 5304   0.960   3.634   3.337
 1616SOL     OW 5305   0.473   2.362   2.053
 1616SOL    HW1 5306   0.534   2.442   2.057
 1616SOL    HW2 5307   0.378   2.393   2.060
 1617SOL     OW 5308   0.159   2.999   3.328
 1617SOL    HW1 5309   0.181   2.938   3.404
 1617SOL    HW2 5310   0.169   2.950   3.242
 1618SOL     OW 5311   1.347   2.921   3.096
 1618SOL    HW1 5312   1.371   2.858   3.022
 1618SOL    HW2 5313   1.257   2.961   3.078
 1619SOL     OW 5314   1.302   2.717   2.171
 1619SOL    HW1 5315   1.216   2.686   2.213
 1619SOL    HW2 5316   1.298   2.703   2.072
 1620SOL     OW 5317   1.759   3.609   3.016
 1620SOL    HW1 5318   1.820   3.639   2.943
 1620SOL    HW2 5319   1.721   3.520   2.994
 1621SOL     OW 5320   1.252   3.593   2.990
 1621SOL    HW1 5321   1.336   3.598   2.936
 1621SOL    HW2 5322   1.229   3.497   3.008
 1622SOL     OW 5323   0.083   3.120   2.884
 1622SOL    HW1 5324   0.078   3.119   2.984
 1622SOL    HW2 5325   0.000   3.079   2.846
 1623SOL     OW 5326   0.688   3.524   3.578
 1623SOL    HW1 5327   0.632   3.605   3.587
 1623SOL    HW2 5328   0.740   3.528   3.492
 1624SOL     OW 5329   1.726   1.997   2.385
 1624SOL    HW1 5330   1.799   1.980   2.318
 1624SOL    HW2 5331   1.695   1.910   2.423
 1625SOL     OW 5332   1.388   3.435   2.339
 1625SOL    HW1 5333   1.455   3.447   2.265
 1625SOL    HW2 5334   1.348   3.524   2.362
 1626SOL     OW 5335   0.130   3.656   3.713
 1626SOL    HW1 5336   0.089   3.582   3.766
 1626SOL    HW2 5337   0.194   3.707   3.771
 1627SOL     OW 5338   1.280   2.789   2.534
 1627SOL    HW1 5339   1.340   2.708   2.536
 1627SOL    HW2 5340   1.320   2.858   2.474
 1628SOL     OW 5341   0.830   3.135   3.284
 1628SOL    HW1 5342   0.825   3.168   3.379
 1628SOL    HW2 5343   0.744   3.154   3.238
 1629SOL     OW 5344   0.672   3.478   2.016
 1629SOL    HW1 5345   0.681   3.488   1.917
 1629SOL    HW2 5346   0.632   3.389   2.037
 1630SOL     OW 5347   1.650   3.582   3.256
 1630SOL    HW1 5348   1.703   3.592   3.172
 1630SOL    HW2 5349   1.623   3.672   3.290
 1631SOL     OW 5350   1.841   2.037   2.825
 1631SOL    HW1 5351   1.880   1.952   2.789
 1631SOL    HW2 5352   1.743   2.039   2.806
 1632SOL     OW 5353   0.263   2.188   2.582
 1632SOL    HW1 5354   0.184   2.239   2.548
 1632SOL    HW2 5355   0.254   2.173   2.680
 1633SOL     OW 5356   1.194   3.474   1.893
 1633SOL    HW1 5357   1.200   3.381   1.930
 1633SOL    HW2 5358   1.135   3.474   1.813
 1634SOL     OW 5359   0.822   2.864   3.234
 1634SOL    HW1 5360   0.862   2.863   3.142
 1634SOL    HW2 5361   0.832   2.956   3.274
 1635SOL     OW 5362   0.916   2.772   2.153
 1635SOL    HW1 5363   0.979   2.810   2.085
 1635SOL    HW2 5364   0.956   2.689   2.192
 1636SOL     OW 5365   1.504   3.469   1.906
 1636SOL    HW1 5366   1.412   3.506   1.913
 1636SOL    HW2 5367   1.542   3.489   1.816
 1637SOL     OW 5368   0.372   3.150   3.352
 1637SOL    HW1 5369   0.359   3.243   3.318
 1637SOL    HW2 5370   0.288   3.098   3.339
 1638SOL     OW 5371   1.614   3.154   3.151
 1638SOL    HW1 5372   1.674   3.157   3.231
 1638SOL    HW2 5373   1.539   3.218   3.164
 1639SOL     OW 5374   1.039   2.960   2.558
 1639SOL    HW1 5375   0.969   2.913   2.612
 1639SOL    HW2 5376   1.098   2.892   2.515
 1640SOL     OW 5377   1.014   2.098   2.833
 1640SOL    HW1 5378   1.006   2.062   2.740
 1640SOL    HW2 5379   1.012   2.022   2.898
 1641SOL     OW 5380   0.590   3.349   2.353
 1641SOL    HW1 5381   0.632   3.291   2.283
 1641SOL    HW2 5382   0.546   3.428   2.309
 1642SOL     OW 5383   1.709   2.247   3.243
 1642SOL    HW1 5384   1.782   2.316   3.247
 1642SOL    HW2 5385   1.737   2.172   3.184
 1643SOL     OW 5386   0.255   3.210   2.152
 1643SOL    HW1 5387   0.159   3.211   2.125
 1643SOL    HW2 5388   0.267   3.263   2.236
 1644SOL     OW 5389   0.105   2.875   3.588
 1644SOL    HW1 5390   0.028   2.842   3.642
 1644SOL    HW2 5391   0.190   2.845   3.630
 1645SOL     OW 5392   0.672   2.065   3.351
 1645SOL    HW1 5393   0.762   2.049   3.311
 1645SOL    HW2 5394   0.680   2.070   3.450
 1646SOL     OW 5395   0.075   2.207   1.895
 1646SOL    HW1 5396  -0.017   2.179   1.866
 1646SOL    HW2 5397   0.106   2.284   1.839
 1647SOL     OW 5398   1.440   2.718   3.260
 1647SOL    HW1 5399   1.383   2.770   3.197
 1647SOL    HW2 5400   1.536   2.730   3.236
 1648SOL     OW 5401   0.072   2.028   2.180
 1648SOL    HW1 5402   0.055   2.111   2.126
 1648SOL    HW2 5403   0.162   1.991   2.158
 1649SOL     OW 5404   1.183   3.197   1.981
 1649SOL    HW1 5405   1.084   3.186   1.983
 1649SOL    HW2 5406   1.217   3.212   2.074
 1650SOL     OW 5407   0.613   2.704   3.293
 1650SOL    HW1 5408   0.669   2.785   3.276
 1650SOL    HW2 5409   0.672   2.624   3.296
 1651SOL     OW 5410   1.493   3.629   2.821
 1651SOL    HW1 5411   1.526   3.693   2.752
 1651SOL    HW2 5412   1.559   3.623   2.896
 1652SOL     OW 5413   0.716   2.427   3.570
 1652SOL    HW1 5414   0.735   2.492   3.644
 1652SOL    HW2 5415   0.776   2.347   3.579
 1653SOL     OW 5416   1.450   3.082   3.495
 1653SOL    HW1 5417   1.441   3.072   3.594
 1653SOL    HW2 5418   1.546   3.075   3.469
 1654SOL     OW 5419   0.390   3.603   3.422
 1654SOL    HW1 5420   0.299   3.644   3.420
 1654SOL    HW2 5421   0.383   3.509   3.454
 1655SOL     OW 5422   1.674   2.745   3.116
 1655SOL    HW1 5423   1.647   2.656   3.079
 1655SOL    HW2 5424   1.675   2.813   3.043
 1656SOL     OW 5425   1.225   2.187   2.311
 1656SOL    HW1 5426   1.290   2.113   2.300
 1656SOL    HW2 5427   1.245   2.237   2.395
 1657SOL     OW 5428   0.594   2.607   2.514
 1657SOL    HW1 5429   0.644   2.692   2.495
 1657SOL    HW2 5430   0.506   2.609   2.466
 1658SOL     OW 5431   1.777   2.204   3.504
 1658SOL    HW1 5432   1.760   2.235   3.410
 1658SOL    HW2 5433   1.693   2.167   3.542
 1659SOL     OW 5434   1.730   2.796   3.379
 1659SOL    HW1 5435   1.768   2.887   3.394
 1659SOL    HW2 5436   1.722   2.779   3.280
 1660SOL     OW 5437   0.859   3.236   1.878
 1660SOL    HW1 5438   0.813   3.251   1.966
 1660SOL    HW2 5439   0.903   3.321   1.848
 1661SOL     OW 5440   0.661   3.652   2.815
 1661SOL    HW1 5441   0.615   3.740   2.802
 1661SOL    HW2 5442   0.760   3.664   2.808
 1662SOL     OW 5443   0.859   2.818   2.723
 1662SOL    HW1 5444   0.913   2.749   2.771
 1662SOL    HW2 5445   0.827   2.887   2.789
 1663SOL     OW 5446   1.083   2.846   1.949
 1663SOL    HW1 5447   1.060   2.899   1.867
 1663SOL    HW2 5448   1.164   2.790   1.930
 1664SOL     OW 5449   1.861   3.431   2.713
 1664SOL    HW1 5450   1.790   3.419   2.643
 1664SOL    HW2 5451   1.862   3.352   2.773
 1665SOL     OW 5452   0.221   3.176   3.706
 1665SOL    HW1 5453   0.156   3.103   3.685
 1665SOL    HW2 5454   0.225   3.190   3.804
 1666SOL     OW 5455   0.079   3.102   2.515
 1666SOL    HW1 5456   0.078   3.055   2.603
 1666SOL    HW2 5457   0.161   3.074   2.464
 1667SOL     OW 5458   0.672   3.253   3.486
 1667SOL    HW1 5459   0.594   3.203   3.524
 1667SOL    HW2 5460   0.669   3.348   3.517
 1668SOL     OW 5461   1.824   2.054   3.089
 1668SOL    HW1 5462   1.820   1.964   3.133
 1668SOL    HW2 5463   1.827   2.043   2.990
 1669SOL     OW 5464   0.428   2.286   2.382
 1669SOL    HW1 5465   0.458   2.214   2.320
 1669SOL    HW2 5466   0.389   2.246   2.465
 1670SOL     OW 5467   1.705   3.349   2.966
 1670SOL    HW1 5468   1.612   3.324   2.939
 1670SOL    HW2 5469   1.731   3.299   3.048
 1671SOL     OW 5470   0.317   2.409   3.142
 1671SOL    HW1 5471   0.355   2.350   3.214
 1671SOL    HW2 5472   0.357   2.383   3.054
 1672SOL     OW 5473   0.812   3.448   2.549
 1672SOL    HW1 5474   0.844   3.458   2.455
 1672SOL    HW2 5475   0.733   3.386   2.551
 1673SOL     OW 5476   1.424   2.076   2.974
 1673SOL    HW1 5477   1.476   2.011   3.029
 1673SOL    HW2 5478   1.375   2.139   3.035
 1674SOL     OW 5479   1.001   1.896   3.016
 1674SOL    HW1 5480   0.938   1.824   2.985
 1674SOL    HW2 5481   1.094   1.860   3.016
 1675SOL     OW 5482   0.770   3.192   2.163
 1675SOL    HW1 5483   0.724   3.105   2.180
 1675SOL    HW2 5484   0.861   3.189   2.204
 1676SOL     OW 5485   0.618   3.429   3.146
 1676SOL    HW1 5486   0.613   3.511   3.203
 1676SOL    HW2 5487   0.707   3.426   3.101
 1677SOL     OW 5488   1.352   1.914   2.030
 1677SOL    HW1 5489   1.387   1.873   1.946
 1677SOL    HW2 5490   1.262   1.876   2.050
 1678SOL     OW 5491   1.300   2.315   2.553
 1678SOL    HW1 5492   1.241   2.395   2.557
 1678SOL    HW2 5493   1.315   2.280   2.646
 1679SOL     OW 5494   1.593   2.083   2.744
 1679SOL    HW1 5495   1.509   2.082   2.798
 1679SOL    HW2 5496   1.595   2.166   2.688
 1680SOL     OW 5497   0.039   2.939   2.162
 1680SOL    HW1 5498   0.138   2.928   2.153
 1680SOL    HW2 5499  -0.001   2.853   2.194
 1681SOL     OW 5500   0.875   3.508   2.199
 1681SOL    HW1 5501   0.798   3.473   2.145
 1681SOL    HW2 5502   0.843   3.579   2.261
 1682SOL     OW 5503   0.230   2.490   3.837
 1682SOL    HW1 5504   0.137   2.488   3.874
 1682SOL    HW2 5505   0.231   2.451   3.745
 1683SOL     OW 5506   0.225   2.137   4.720
 1683SOL    HW1 5507   0.260   2.120   4.812
 1683SOL    HW2 5508   0.137   2.092   4.708
 1684SOL     OW 5509   0.019   2.230   4.371
 1684SOL    HW1 5510  -0.063   2.273   4.410
 1684SOL    HW2 5511  -0.009   2.157   4.308
 1685SOL     OW 5512   0.569   3.137   4.889
 1685SOL    HW1 5513   0.476   3.130   4.852
 1685SOL    HW2 5514   0.580   3.226   4.933
 1686SOL     OW 5515   1.555   3.373   4.427
 1686SOL    HW1 5516   1.498   3.357   4.508
 1686SOL    HW2 5517   1.496   3.383   4.347
 1687SOL     OW 5518   1.135   2.565   4.441
 1687SOL    HW1 5519   1.192   2.643   4.416
 1687SOL    HW2 5520   1.075   2.591   4.517
 1688SOL     OW 5521   1.755   2.469   3.955
 1688SOL    HW1 5522   1.743   2.456   3.856
 1688SOL    HW2 5523   1.725   2.388   4.004
 1689SOL     OW 5524   0.768   3.006   4.747
 1689SOL    HW1 5525   0.690   3.023   4.807
 1689SOL    HW2 5526   0.802   3.093   4.711
 1690SOL     OW 5527   0.850   2.660   5.547
 1690SOL    HW1 5528   0.846   2.736   5.612
 1690SOL    HW2 5529   0.872   2.696   5.456
 1691SOL     OW 5530   0.685   2.874   4.389
 1691SOL    HW1 5531   0.754   2.858   4.459
 1691SOL    HW2 5532   0.612   2.931   4.427
 1692SOL     OW 5533   0.686   3.023   5.527
 1692SOL    HW1 5534   0.746   3.102   5.541
 1692SOL    HW2 5535   0.600   3.054   5.486
 1693SOL     OW 5536   0.335   3.297   4.785
 1693SOL    HW1 5537   0.257   3.266   4.732
 1693SOL    HW2 5538   0.393   3.355   4.728
 1694SOL     OW 5539   1.460   3.367   5.063
 1694SOL    HW1 5540   1.484   3.461   5.089
 1694SOL    HW2 5541   1.444   3.313   5.145
 1695SOL     OW 5542   0.438   2.254   5.223
 1695SOL    HW1 5543   0.520   2.198   5.232
 1695SOL    HW2 5544   0.357   2.196   5.227
 1696SOL     OW 5545   1.603   2.309   4.461
 1696SOL    HW1 5546   1.529   2.355   4.411
 1696SOL    HW2 5547   1.654   2.377   4.514
 1697SOL     OW 5548   0.231   3.575   4.207
 1697SOL    HW1 5549   0.265   3.652   4.261
 1697SOL    HW2 5550   0.275   3.575   4.117
 1698SOL     OW 5551   1.127   3.203   5.414
 1698SOL    HW1 5552   1.174   3.203   5.502
 1698SOL    HW2 5553   1.079   3.116   5.403
 1699SOL     OW 5554   0.230   3.296   4.262
 1699SOL    HW1 5555   0.204   3.392   4.262
 1699SOL    HW2 5556   0.159   3.242   4.307
 1700SOL     OW 5557   0.240   2.953   4.610
 1700SOL    HW1 5558   0.254   2.869   4.662
 1700SOL    HW2 5559   0.185   3.017   4.665
 1701SOL     OW 5560   0.620   3.648   5.163
 1701SOL    HW1 5561   0.528   3.631   5.198
 1701SOL    HW2 5562   0.648   3.740   5.189
 1702SOL     OW 5563   0.606   2.826   3.847
 1702SOL    HW1 5564   0.613   2.910   3.793
 1702SOL    HW2 5565   0.652   2.839   3.935
 1703SOL     OW 5566   0.122   2.505   4.287
 1703SOL    HW1 5567   0.077   2.417   4.304
 1703SOL    HW2 5568   0.121   2.559   4.371
 1704SOL     OW 5569   1.842   3.629   4.083
 1704SOL    HW1 5570   1.896   3.600   4.163
 1704SOL    HW2 5571   1.872   3.719   4.054
 1705SOL     OW 5572   0.027   3.458   3.841
 1705SOL    HW1 5573   0.008   3.362   3.862
 1705SOL    HW2 5574  -0.006   3.516   3.916
 1706SOL     OW 5575   1.689   2.784   4.336
 1706SOL    HW1 5576   1.784   2.755   4.344
 1706SOL    HW2 5577   1.681   2.849   4.261
 1707SOL     OW 5578   1.641   2.970   4.156
 1707SOL    HW1 5579   1.727   2.972   4.104
 1707SOL    HW2 5580   1.655   3.017   4.244
 1708SOL     OW 5581   0.113   2.599   5.321
 1708SOL    HW1 5582   0.201   2.586   5.366
 1708SOL    HW2 5583   0.100   2.696   5.299
 1709SOL     OW 5584   0.613   3.227   4.450
 1709SOL    HW1 5585   0.564   3.140   4.459
 1709SOL    HW2 5586   0.590   3.270   4.363
 1710SOL     OW 5587   1.293   3.090   5.147
 1710SOL    HW1 5588   1.330   3.017   5.089
 1710SOL    HW2 5589   1.345   3.095   5.232
 1711SOL     OW 5590   0.809   1.866   4.226
 1711SOL    HW1 5591   0.849   1.957   4.217
 1711SOL    HW2 5592   0.709   1.874   4.232
 1712SOL     OW 5593   0.197   2.838   4.988
 1712SOL    HW1 5594   0.286   2.793   4.974
 1712SOL    HW2 5595   0.124   2.773   4.969
 1713SOL     OW 5596   1.525   2.861   3.914
 1713SOL    HW1 5597   1.462   2.785   3.927
 1713SOL    HW2 5598   1.573   2.879   4.000
 1714SOL     OW 5599   1.187   3.654   5.340
 1714SOL    HW1 5600   1.211   3.714   5.264
 1714SOL    HW2 5601   1.194   3.559   5.310
 1715SOL     OW 5602   0.317   2.113   5.525
 1715SOL    HW1 5603   0.388   2.184   5.531
 1715SOL    HW2 5604   0.229   2.152   5.553
 1716SOL     OW 5605   1.466   3.279   4.677
 1716SOL    HW1 5606   1.407   3.285   4.757
 1716SOL    HW2 5607   1.451   3.191   4.631
 1717SOL     OW 5608   1.667   3.576   4.296
 1717SOL    HW1 5609   1.626   3.553   4.208
 1717SOL    HW2 5610   1.649   3.502   4.361
 1718SOL     OW 5611   0.598   2.591   3.994
 1718SOL    HW1 5612   0.622   2.660   3.926
 1718SOL    HW2 5613   0.520   2.624   4.048
 1719SOL     OW 5614   1.281   2.207   4.668
 1719SOL    HW1 5615   1.195   2.157   4.655
 1719SOL    HW2 5616   1.343   2.153   4.724
 1720SOL     OW 5617   1.576   3.524   4.031
 1720SOL    HW1 5618   1.665   3.570   4.034
 1720SOL    HW2 5619   1.555   3.500   3.936
 1721SOL     OW 5620   0.807   2.467   5.189
 1721SOL    HW1 5621   0.760   2.464   5.278
 1721SOL    HW2 5622   0.756   2.412   5.123
 1722SOL     OW 5623   1.394   2.331   5.398
 1722SOL    HW1 5624   1.374   2.374   5.486
 1722SOL    HW2 5625   1.472   2.269   5.407
 1723SOL     OW 5626   0.973   2.752   5.296
 1723SOL    HW1 5627   1.019   2.668   5.267
 1723SOL    HW2 5628   0.917   2.786   5.221
 1724SOL     OW 5629   0.991   2.272   4.966
 1724SOL    HW1 5630   0.914   2.306   5.020
 1724SOL    HW2 5631   0.957   2.221   4.887
 1725SOL     OW 5632   1.041   2.563   4.153
 1725SOL    HW1 5633   1.067   2.559   4.249
 1725SOL    HW2 5634   0.956   2.512   4.139
 1726SOL     OW 5635   0.076   2.673   4.513
 1726SOL    HW1 5636   0.175   2.661   4.522
 1726SOL    HW2 5637   0.052   2.768   4.534
 1727SOL     OW 5638   0.130   3.683   5.295
 1727SOL    HW1 5639   0.120   3.668   5.394
 1727SOL    HW2 5640   0.044   3.719   5.259
 1728SOL     OW 5641   0.865   2.210   3.919
 1728SOL    HW1 5642   0.924   2.273   3.870
 1728SOL    HW2 5643   0.884   2.116   3.890
 1729SOL     OW 5644   1.719   2.447   5.555
 1729SOL    HW1 5645   1.693   2.536   5.519
 1729SOL    HW2 5646   1.717   2.379   5.482
 1730SOL     OW 5647   1.362   3.006   4.269
 1730SOL    HW1 5648   1.445   2.977   4.221
 1730SOL    HW2 5649   1.313   3.073   4.213
 1731SOL     OW 5650   0.550   2.058   4.609
 1731SOL    HW1 5651   0.545   2.053   4.709
 1731SOL    HW2 5652   0.552   2.154   4.580
 1732SOL     OW 5653   1.008   3.318   4.201
 1732SOL    HW1 5654   0.962   3.390   4.149
 1732SOL    HW2 5655   1.004   3.338   4.299
 1733SOL     OW 5656   0.351   3.663   4.577
 1733SOL    HW1 5657   0.401   3.577   4.583
 1733SOL    HW2 5658   0.416   3.740   4.574
 1734SOL     OW 5659   1.795   2.928   4.597
 1734SOL    HW1 5660   1.733   2.913   4.521
 1734SOL    HW2 5661   1.743   2.939   4.682
 1735SOL     OW 5662   1.227   3.412   5.230
 1735SOL    HW1 5663   1.233   3.335   5.294
 1735SOL    HW2 5664   1.175   3.386   5.150
 1736SOL     OW 5665   0.321   2.805   3.966
 1736SOL    HW1 5666   0.403   2.844   3.924
 1736SOL    HW2 5667   0.294   2.723   3.917
 1737SOL     OW 5668   1.458   2.597   4.452
 1737SOL    HW1 5669   1.453   2.532   4.527
 1737SOL    HW2 5670   1.538   2.656   4.465
 1738SOL     OW 5671   0.461   3.128   5.451
 1738SOL    HW1 5672   0.411   3.129   5.365
 1738SOL    HW2 5673   0.398   3.110   5.527
 1739SOL     OW 5674   1.111   3.638   3.961
 1739SOL    HW1 5675   1.051   3.576   4.011
 1739SOL    HW2 5676   1.142   3.594   3.876
 1740SOL     OW 5677   0.202   2.147   5.222
 1740SOL    HW1 5678   0.122   2.207   5.209
 1740SOL    HW2 5679   0.192   2.098   5.308
 1741SOL     OW 5680   1.632   3.239   3.805
 1741SOL    HW1 5681   1.600   3.333   3.795
 1741SOL    HW2 5682   1.556   3.176   3.793
 1742SOL     OW 5683   0.464   3.605   4.047
 1742SOL    HW1 5684   0.497   3.644   4.133
 1742SOL    HW2 5685   0.540   3.598   3.982
 1743SOL     OW 5686   1.400   1.969   4.150
 1743SOL    HW1 5687   1.376   1.932   4.060
 1743SOL    HW2 5688   1.499   1.985   4.154
 1744SOL     OW 5689   0.249   3.647   4.965
 1744SOL    HW1 5690   0.306   3.582   5.015
 1744SOL    HW2 5691   0.233   3.614   4.872
 1745SOL     OW 5692   0.940   3.560   4.628
 1745SOL    HW1 5693   1.020   3.503   4.649
 1745SOL    HW2 5694   0.891   3.520   4.551
 1746SOL     OW 5695   0.382   2.562   4.204
 1746SOL    HW1 5696   0.427   2.472   4.201
 1746SOL    HW2 5697   0.288   2.551   4.237
 1747SOL     OW 5698   1.547   2.084   5.453
 1747SOL    HW1 5699   1.542   2.121   5.545
 1747SOL    HW2 5700   1.475   2.015   5.441
 1748SOL     OW 5701   0.614   1.984   3.841
 1748SOL    HW1 5702   0.712   1.962   3.848
 1748SOL    HW2 5703   0.583   1.967   3.748
 1749SOL     OW 5704   0.781   2.126   5.473
 1749SOL    HW1 5705   0.848   2.065   5.516
 1749SOL    HW2 5706   0.708   2.145   5.538
 1750SOL     OW 5707   0.888   3.376   4.919
 1750SOL    HW1 5708   0.865   3.351   4.825
 1750SOL    HW2 5709   0.949   3.307   4.958
 1751SOL     OW 5710   1.351   2.452   5.157
 1751SOL    HW1 5711   1.379   2.409   5.242
 1751SOL    HW2 5712   1.376   2.548   5.158
 1752SOL     OW 5713   0.803   3.264   4.648
 1752SOL    HW1 5714   0.893   3.278   4.606
 1752SOL    HW2 5715   0.732   3.266   4.577
 1753SOL     OW 5716   0.922   2.365   4.623
 1753SOL    HW1 5717   0.897   2.356   4.527
 1753SOL    HW2 5718   0.970   2.283   4.654
 1754SOL     OW 5719   0.539   1.926   4.236
 1754SOL    HW1 5720   0.458   1.927   4.294
 1754SOL    HW2 5721   0.542   2.009   4.181
 1755SOL     OW 5722   1.434   3.050   3.765
 1755SOL    HW1 5723   1.466   2.974   3.822
 1755SOL    HW2 5724   1.342   3.077   3.795
 1756SOL     OW 5725   0.297   1.897   3.895
 1756SOL    HW1 5726   0.346   1.981   3.874
 1756SOL    HW2 5727   0.359   1.832   3.940
 1757SOL     OW 5728   0.935   2.098   4.204
 1757SOL    HW1 5729   0.887   2.139   4.126
 1757SOL    HW2 5730   1.034   2.096   4.185
 1758SOL     OW 5731   1.076   2.545   5.188
 1758SOL    HW1 5732   0.996   2.484   5.191
 1758SOL    HW2 5733   1.157   2.492   5.164
 1759SOL     OW 5734   1.227   3.432   4.517
 1759SOL    HW1 5735   1.248   3.506   4.452
 1759SOL    HW2 5736   1.295   3.432   4.590
 1760SOL     OW 5737   0.459   3.014   4.465
 1760SOL    HW1 5738   0.388   2.987   4.530
 1760SOL    HW2 5739   0.433   2.986   4.372
 1761SOL     OW 5740   1.271   3.659   4.315
 1761SOL    HW1 5741   1.315   3.723   4.251
 1761SOL    HW2 5742   1.221   3.711   4.385
 1762SOL     OW 5743   1.032   2.411   3.740
 1762SOL    HW1 5744   0.991   2.493   3.701
 1762SOL    HW2 5745   1.096   2.437   3.813
 1763SOL     OW 5746   0.078   2.418   5.110
 1763SOL    HW1 5747   0.170   2.417   5.069
 1763SOL    HW2 5748   0.072   2.492   5.177
 1764SOL     OW 5749   0.561   2.084   4.871
 1764SOL    HW1 5750   0.599   2.000   4.908
 1764SOL    HW2 5751   0.473   2.103   4.915
 1765SOL     OW 5752   0.866   2.316   4.366
 1765SOL    HW1 5753   0.834   2.388   4.304
 1765SOL    HW2 5754   0.890   2.235   4.313
 1766SOL     OW 5755   1.017   1.901   4.477
 1766SOL    HW1 5756   0.945   1.906   4.408
 1766SOL    HW2 5757   0.993   1.832   4.546
 1767SOL     OW 5758   1.429   3.035   4.591
 1767SOL    HW1 5759   1.374   2.951   4.584
 1767SOL    HW2 5760   1.455   3.064   4.499
 1768SOL     OW 5761   1.466   2.452   4.716
 1768SOL    HW1 5762   1.436   2.357   4.723
 1768SOL    HW2 5763   1.539   2.468   4.782
 1769SOL     OW 5764   1.857   2.695   4.101
 1769SOL    HW1 5765   1.899   2.631   4.165
 1769SOL    HW2 5766   1.819   2.644   4.023
 1770SOL     OW 5767   0.488   3.247   3.898
 1770SOL    HW1 5768   0.401   3.232   3.945
 1770SOL    HW2 5769   0.471   3.273   3.803
 1771SOL     OW 5770   1.664   3.142   4.381
 1771SOL    HW1 5771   1.763   3.150   4.395
 1771SOL    HW2 5772   1.619   3.226   4.412
 1772SOL     OW 5773   1.390   2.437   3.802
 1772SOL    HW1 5774   1.336   2.416   3.883
 1772SOL    HW2 5775   1.481   2.396   3.811
 1773SOL     OW 5776   0.527   2.118   4.052
 1773SOL    HW1 5777   0.554   2.059   3.977
 1773SOL    HW2 5778   0.527   2.213   4.021
 1774SOL     OW 5779   1.754   3.085   5.312
 1774SOL    HW1 5780   1.845   3.046   5.299
 1774SOL    HW2 5781   1.762   3.181   5.336
 1775SOL     OW 5782   1.064   3.209   5.064
 1775SOL    HW1 5783   0.984   3.186   5.119
 1775SOL    HW2 5784   1.147   3.183   5.113
 1776SOL     OW 5785   1.592   3.491   5.349
 1776SOL    HW1 5786   1.619   3.525   5.259
 1776SOL    HW2 5787   1.671   3.453   5.395
 1777SOL     OW 5788   1.111   3.057   4.824
 1777SOL    HW1 5789   1.071   3.101   4.905
 1777SOL    HW2 5790   1.070   3.094   4.741
 1778SOL     OW 5791   1.638   2.961   4.803
 1778SOL    HW1 5792   1.643   3.042   4.862
 1778SOL    HW2 5793   1.552   2.963   4.752
 1779SOL     OW 5794   0.915   1.951   5.126
 1779SOL    HW1 5795   0.940   1.931   5.031
 1779SOL    HW2 5796   0.987   2.007   5.168
 1780SOL     OW 5797   0.980   2.978   5.443
 1780SOL    HW1 5798   0.881   2.984   5.453
 1780SOL    HW2 5799   1.003   2.898   5.387
 1781SOL     OW 5800   0.705   2.912   4.092
 1781SOL    HW1 5801   0.691   2.919   4.191
 1781SOL    HW2 5802   0.789   2.861   4.074
 1782SOL     OW 5803   0.410   2.675   4.975
 1782SOL    HW1 5804   0.496   2.687   5.025
 1782SOL    HW2 5805   0.368   2.588   5.002
 1783SOL     OW 5806   1.274   2.248   4.986
 1783SOL    HW1 5807   1.295   2.322   5.050
 1783SOL    HW2 5808   1.185   2.265   4.943
 1784SOL     OW 5809   0.064   3.426   5.055
 1784SOL    HW1 5810   0.018   3.508   5.021
 1784SOL    HW2 5811   0.162   3.445   5.064
 1785SOL     OW 5812   0.367   2.962   4.225
 1785SOL    HW1 5813   0.360   3.045   4.169
 1785SOL    HW2 5814   0.371   2.882   4.165
 1786SOL     OW 5815   0.566   2.399   4.589
 1786SOL    HW1 5816   0.578   2.465   4.515
 1786SOL    HW2 5817   0.612   2.433   4.672
 1787SOL     OW 5818   1.252   3.210   4.112
 1787SOL    HW1 5819   1.302   3.287   4.152
 1787SOL    HW2 5820   1.157   3.212   4.144
 1788SOL     OW 5821   1.272   3.307   4.866
 1788SOL    HW1 5822   1.319   3.320   4.953
 1788SOL    HW2 5823   1.206   3.233   4.875
 1789SOL     OW 5824   1.582   2.501   4.196
 1789SOL    HW1 5825   1.551   2.562   4.269
 1789SOL    HW2 5826   1.632   2.553   4.127
 1790SOL     OW 5827   0.354   3.372   5.053
 1790SOL    HW1 5828   0.333   3.328   4.966
 1790SOL    HW2 5829   0.451   3.398   5.056
 1791SOL     OW 5830   0.402   2.613   5.322
 1791SOL    HW1 5831   0.470   2.668   5.275
 1791SOL    HW2 5832   0.442   2.525   5.349
 1792SOL     OW 5833   1.587   2.641   5.394
 1792SOL    HW1 5834   1.495   2.679   5.389
 1792SOL    HW2 5835   1.647   2.688   5.329
 1793SOL     OW 5836   1.013   1.967   5.494
 1793SOL    HW1 5837   1.019   2.052   5.442
 1793SOL    HW2 5838   1.045   1.891   5.437
 1794SOL     OW 5839   0.504   1.912   5.464
 1794SOL    HW1 5840   0.462   1.855   5.394
 1794SOL    HW2 5841   0.438   1.981   5.496
 1795SOL     OW 5842   0.573   2.732   4.753
 1795SOL    HW1 5843   0.617   2.821   4.744
 1795SOL    HW2 5844   0.510   2.732   4.830
 1796SOL     OW 5845   1.360   2.724   4.769
 1796SOL    HW1 5846   1.285   2.724   4.703
 1796SOL    HW2 5847   1.397   2.632   4.778
 1797SOL     OW 5848   1.209   2.387   3.999
 1797SOL    HW1 5849   1.222   2.303   4.053
 1797SOL    HW2 5850   1.180   2.461   4.059
 1798SOL     OW 5851   0.307   2.075   4.955
 1798SOL    HW1 5852   0.284   2.112   5.045
 1798SOL    HW2 5853   0.277   1.980   4.949
 1799SOL     OW 5854   0.037   3.172   5.006
 1799SOL    HW1 5855   0.090   3.123   5.074
 1799SOL    HW2 5856   0.059   3.270   5.011
 1800SOL     OW 5857   0.732   2.496   4.788
 1800SOL    HW1 5858   0.791   2.470   4.712
 1800SOL    HW2 5859   0.704   2.592   4.777
 1801SOL     OW 5860   1.728   2.797   5.578
 1801SOL    HW1 5861   1.682   2.790   5.489
 1801SOL    HW2 5862   1.666   2.841   5.644
 1802SOL     OW 5863   0.307   1.925   4.342
 1802SOL    HW1 5864   0.296   2.019   4.375
 1802SOL    HW2 5865   0.302   1.862   4.419
 1803SOL     OW 5866   1.622   2.229   4.098
 1803SOL    HW1 5867   1.624   2.153   4.162
 1803SOL    HW2 5868   1.574   2.306   4.138
 1804SOL     OW 5869   1.023   2.628   4.690
 1804SOL    HW1 5870   1.038   2.649   4.786
 1804SOL    HW2 5871   0.993   2.533   4.681
 1805SOL     OW 5872   0.980   3.435   5.424
 1805SOL    HW1 5873   0.960   3.479   5.336
 1805SOL    HW2 5874   1.019   3.344   5.408
 1806SOL     OW 5875   1.859   3.380   5.329
 1806SOL    HW1 5876   1.873   3.407   5.234
 1806SOL    HW2 5877   1.942   3.402   5.382
 1807SOL     OW 5878   0.350   2.760   5.528
 1807SOL    HW1 5879   0.426   2.804   5.576
 1807SOL    HW2 5880   0.385   2.713   5.446
 1808SOL     OW 5881   1.540   2.136   3.849
 1808SOL    HW1 5882   1.479   2.061   3.872
 1808SOL    HW2 5883   1.562   2.188   3.932
 1809SOL     OW 5884   1.303   2.700   3.766
 1809SOL    HW1 5885   1.337   2.607   3.781
 1809SOL    HW2 5886   1.321   2.727   3.671
 1810SOL     OW 5887   1.068   3.195   4.573
 1810SOL    HW1 5888   1.075   3.111   4.518
 1810SOL    HW2 5889   1.130   3.264   4.537
 1811SOL     OW 5890   0.319   2.672   4.673
 1811SOL    HW1 5891   0.412   2.708   4.678
 1811SOL    HW2 5892   0.313   2.587   4.725
 1812SOL     OW 5893   0.339   2.371   4.730
 1812SOL    HW1 5894   0.287   2.288   4.713
 1812SOL    HW2 5895   0.416   2.376   4.666
 1813SOL     OW 5896   1.138   2.242   5.402
 1813SOL    HW1 5897   1.093   2.305   5.466
 1813SOL    HW2 5898   1.231   2.273   5.385
 1814SOL     OW 5899   1.160   2.069   5.201
 1814SOL    HW1 5900   1.160   2.133   5.278
 1814SOL    HW2 5901   1.188   2.117   5.118
 1815SOL     OW 5902   0.008   3.188   3.924
 1815SOL    HW1 5903  -0.085   3.209   3.893
 1815SOL    HW2 5904   0.018   3.089   3.937
 1816SOL     OW 5905   0.088   3.663   4.651
 1816SOL    HW1 5906   0.046   3.577   4.624
 1816SOL    HW2 5907   0.182   3.666   4.617
 1817SOL     OW 5908   0.504   3.430   4.634
 1817SOL    HW1 5909   0.570   3.504   4.643
 1817SOL    HW2 5910   0.548   3.351   4.592
 1818SOL     OW 5911   1.002   2.658   4.962
 1818SOL    HW1 5912   1.043   2.626   5.048
 1818SOL    HW2 5913   0.906   2.631   4.959
 1819SOL     OW 5914   0.040   2.406   4.838
 1819SOL    HW1 5915   0.125   2.373   4.797
 1819SOL    HW2 5916   0.053   2.421   4.936
 1820SOL     OW 5917   0.189   2.382   5.446
 1820SOL    HW1 5918   0.248   2.342   5.376
 1820SOL    HW2 5919   0.131   2.453   5.405
 1821SOL     OW 5920   1.369   2.812   5.384
 1821SOL    HW1 5921   1.408   2.901   5.404
 1821SOL    HW2 5922   1.379   2.792   5.287
 1822SOL     OW 5923   0.815   2.434   4.049
 1822SOL    HW1 5924   0.822   2.345   4.003
 1822SOL    HW2 5925   0.721   2.468   4.041
 1823SOL     OW 5926   0.252   3.426   5.468
 1823SOL    HW1 5927   0.222   3.483   5.544
 1823SOL    HW2 5928   0.245   3.329   5.494
 1824SOL     OW 5929   0.671   2.326   4.993
 1824SOL    HW1 5930   0.637   2.237   4.963
 1824SOL    HW2 5931   0.697   2.380   4.913
 1825SOL     OW 5932   0.930   3.540   5.189
 1825SOL    HW1 5933   0.906   3.522   5.094
 1825SOL    HW2 5934   0.960   3.634   5.199
 1826SOL     OW 5935   0.473   2.362   3.915
 1826SOL    HW1 5936   0.534   2.442   3.919
 1826SOL    HW2 5937   0.378   2.393   3.922
 1827SOL     OW 5938   0.159   2.999   5.190
 1827SOL    HW1 5939   0.181   2.938   5.266
 1827SOL    HW2 5940   0.169   2.950   5.104
 1828SOL     OW 5941   1.347   2.921   4.958
 1828SOL    HW1 5942   1.371   2.858   4.884
 1828SOL    HW2 5943   1.257   2.961   4.940
 1829SOL     OW 5944   1.302   2.717   4.033
 1829SOL    HW1 5945   1.216   2.686   4.075
 1829SOL    HW2 5946   1.298   2.703   3.934
 1830SOL     OW 5947   1.759   3.609   4.878
 1830SOL    HW1 5948   1.820   3.639   4.805
 1830SOL    HW2 5949   1.721   3.520   4.856
 1831SOL     OW 5950   1.252   3.593   4.852
 1831SOL    HW1 5951   1.336   3.598   4.798
 1831SOL    HW2 5952   1.229   3.497   4.870
 1832SOL     OW 5953   0.083   3.120   4.746
 1832SOL    HW1 5954   0.078   3.119   4.846
 1832SOL    HW2 5955   0.000   3.079   4.708
 1833SOL     OW 5956   0.688   3.524   5.440
 1833SOL    HW1 5957   0.632   3.605   5.449
 1833SOL    HW2 5958   0.740   3.528   5.354
 1834SOL     OW 5959   1.726   1.997   4.247
 1834SOL    HW1 5960   1.799   1.980   4.180
 1834SOL    HW2 5961   1.695   1.910   4.285
 1835SOL     OW 5962   1.388   3.435   4.201
 1835SOL    HW1 5963   1.455   3.447   4.127
 1835SOL    HW2 5964   1.348   3.524   4.224
 1836SOL     OW 5965   0.130   3.656   5.575
 1836SOL    HW1 5966   0.089   3.582   5.628
 1836SOL    HW2 5967   0.194   3.707   5.633
 1837SOL     OW 5968   1.280   2.789   4.396
 1837SOL    HW1 5969   1.340   2.708   4.398
 1837SOL    HW2 5970   1.320   2.858   4.336
 1838SOL     OW 5971   0.830   3.135   5.146
 1838SOL    HW1 5972   0.825   3.168   5.241
 1838SOL    HW2 5973   0.744   3.154   5.100
 1839SOL     OW 5974   0.672   3.478   3.878
 1839SOL    HW1 5975   0.681   3.488   3.779
 1839SOL    HW2 5976   0.632   3.389   3.899
 1840SOL     OW 5977   1.650   3.582   5.118
 1840SOL    HW1 5978   1.703   3.592   5.034
 1840SOL    HW2 5979   1.623   3.672   5.152
 1841SOL     OW 5980   0.263   2.188   4.444
 1841SOL    HW1 5981   0.184   2.239   4.410
 1841SOL    HW2 5982   0.254   2.173   4.542
 1842SOL     OW 5983   1.194   3.474   3.755
 1842SOL    HW1 5984   1.200   3.381   3.792
 1842SOL    HW2 5985   1.135   3.474   3.675
 1843SOL     OW 5986   0.822   2.864   5.096
 1843SOL    HW1 5987   0.862   2.863   5.004
 1843SOL    HW2 5988   0.832   2.956   5.136
 1844SOL     OW 5989   0.916   2.772   4.015
 1844SOL    HW1 5990   0.979   2.810   3.947
 1844SOL    HW2 5991   0.956   2.689   4.054
 1845SOL     OW 5992   1.504   3.469   3.768
 1845SOL    HW1 5993   1.412   3.506   3.775
 1845SOL    HW2 5994   1.542   3.489   3.678
 1846SOL     OW 5995   0.372   3.150   5.214
 1846SOL    HW1 5996   0.359   3.243   5.180
 1846SOL    HW2 5997   0.288   3.098   5.201
 1847SOL     OW 5998   1.614   3.154   5.013
 1847SOL    HW1 5999   1.674   3.157   5.093
 1847SOL    HW2 6000   1.539   3.218   5.026
 1848SOL     OW 6001   1.039   2.960   4.420
 1848SOL    HW1 6002   0.969   2.913   4.474
 1848SOL    HW2 6003   1.098   2.892   4.377
 1849SOL     OW 6004   1.014   2.098   4.695
 1849SOL    HW1 6005   1.006   2.062   4.602
 1849SOL    HW2 6006   1.012   2.022   4.760
 1850SOL     OW 6007   0.590   3.349   4.215
 1850SOL    HW1 6008   0.632   3.291   4.145
 1850SOL    HW2 6009   0.546   3.428   4.171
 1851SOL     OW 6010   0.255   3.210   4.014
 1851SOL    HW1 6011   0.159   3.211   3.987
 1851SOL    HW2 6012   0.267   3.263   4.098
 1852SOL     OW 6013   0.105   2.875   5.450
 1852SOL    HW1 6014   0.028   2.842   5.504
 1852SOL    HW2 6015   0.190   2.845   5.492
 1853SOL     OW 6016   0.672   2.065   5.213
 1853SOL    HW1 6017   0.762   2.049   5.173
 1853SOL    HW2 6018   0.680   2.070   5.312
 1854SOL     OW 6019   0.075   2.207   3.757
 1854SOL    HW1 6020  -0.017   2.179   3.728
 1854SOL    HW2 6021   0.106   2.284   3.701
 1855SOL     OW 6022   1.440   2.718   5.122
 1855SOL    HW1 6023   1.383   2.770   5.059
 1855SOL    HW2 6024   1.536   2.730   5.098
 1856SOL     OW 6025   0.072   2.028   4.042
 1856SOL    HW1 6026   0.055   2.111   3.988
 1856SOL    HW2 6027   0.162   1.991   4.020
 1857SOL     OW 6028   1.183   3.197   3.843
 1857SOL    HW1 6029   1.084   3.186   3.845
 1857SOL    HW2 6030   1.217   3.212   3.936
 1858SOL     OW 6031   0.613   2.704   5.155
 1858SOL    HW1 6032   0.669   2.785   5.138
 1858SOL    HW2 6033   0.672   2.624   5.158
 1859SOL     OW 6034   1.493   3.629   4.683
 1859SOL    HW1 6035   1.526   3.693   4.614
 1859SOL    HW2 6036   1.559   3.623   4.758
 1860SOL     OW 6037   0.716   2.427   5.432
 1860SOL    HW1 6038   0.735   2.492   5.506
 1860SOL    HW2 6039   0.776   2.347   5.441
 1861SOL     OW 6040   1.450   3.082   5.357
 1861SOL    HW1 6041   1.441   3.072   5.456
 1861SOL    HW2 6042   1.546   3.075   5.331
 1862SOL     OW 6043   0.390   3.603   5.284
 1862SOL    HW1 6044   0.299   3.644   5.282
 1862SOL    HW2 6045   0.383   3.509   5.316
 1863SOL     OW 6046   1.674   2.745   4.978
 1863SOL    HW1 6047   1.647   2.656   4.941
 1863SOL    HW2 6048   1.675   2.813   4.905
 1864SOL     OW 6049   1.225   2.187   4.173
 1864SOL    HW1 6050   1.290   2.113   4.162
 1864SOL    HW2 6051   1.245   2.237   4.257
 1865SOL     OW 6052   0.594   2.607   4.376
 1865SOL    HW1 6053   0.644   2.692   4.357
 1865SOL    HW2 6054   0.506   2.609   4.328
 1866SOL     OW 6055   0.859   3.236   3.740
 1866SOL    HW1 6056   0.813   3.251   3.828
 1866SOL    HW2 6057   0.903   3.321   3.710
 1867SOL     OW 6058   0.661   3.652   4.677
 1867SOL    HW1 6059   0.615   3.740   4.664
 1867SOL    HW2 6060   0.760   3.664   4.670
 1868SOL     OW 6061   0.859   2.818   4.585
 1868SOL    HW1 6062   0.913   2.749   4.633
 1868SOL    HW2 6063   0.827   2.887   4.651
 1869SOL     OW 6064   1.083   2.846   3.811
 1869SOL    HW1 6065   1.060   2.899   3.729
 1869SOL    HW2 6066   1.164   2.790   3.792
 1870SOL     OW 6067   1.861   3.431   4.575
 1870SOL    HW1 6068   1.790   3.419   4.505
 1870SOL    HW2 6069   1.862   3.352   4.635
 1871SOL     OW 6070   0.221   3.176   5.568
 1871SOL    HW1 6071   0.156   3.103   5.547
 1871SOL    HW2 6072   0.225   3.190   5.666
 1872SOL     OW 6073   0.079   3.102   4.377
 1872SOL    HW1 6074   0.078   3.055   4.465
 1872SOL    HW2 6075   0.161   3.074   4.326
 1873SOL     OW 6076   0.672   3.253   5.348
 1873SOL    HW1 6077   0.594   3.203   5.386
 1873SOL    HW2 6078   0.669   3.348   5.379
 1874SOL     OW 6079   0.428   2.286   4.244
 1874SOL    HW1 6080   0.458   2.214   4.182
 1874SOL    HW2 6081   0.389   2.246   4.327
 1875SOL     OW 6082   1.705   3.349   4.828
 1875SOL    HW1 6083   1.612   3.324   4.801
 1875SOL    HW2 6084   1.731   3.299   4.910
 1876SOL     OW 6085   0.317   2.409   5.004
 1876SOL    HW1 6086   0.355   2.350   5.076
 1876SOL    HW2 6087   0.357   2.383   4.916
 1877SOL     OW 6088   0.812   3.448   4.411
 1877SOL    HW1 6089   0.844   3.458   4.317
 1877SOL    HW2 6090   0.733   3.386   4.413
 1878SOL     OW 6091   1.424   2.076   4.836
 1878SOL    HW1 6092   1.476   2.011   4.891
 1878SOL    HW2 6093   1.375   2.139   4.897
 1879SOL     OW 6094   1.001   1.896   4.878
 1879SOL    HW1 6095   0.938   1.824   4.847
 1879SOL    HW2 6096   1.094   1.860   4.878
 1880SOL     OW 6097   0.770   3.192   4.025
 1880SOL    HW1 6098   0.724   3.105   4.042
 1880SOL    HW2 6099   0.861   3.189   4.066
 1881SOL     OW 6100   0.618   3.429   5.008
 1881SOL    HW1 6101   0.613   3.511   5.065
 1881SOL    HW2 6102   0.707   3.426   4.963
 1882SOL     OW 6103   1.352   1.914   3.892
 1882SOL    HW1 6104   1.387   1.873   3.808
 1882SOL    HW2 6105   1.262   1.876   3.912
 1883SOL     OW 6106   1.300   2.315   4.415
 1883SOL    HW1 6107   1.241   2.395   4.419
 1883SOL    HW2 6108   1.315   2.280   4.508
 1884SOL     OW 6109   1.593   2.083   4.606
 1884SOL    HW1 6110   1.509   2.082   4.660
 1884SOL    HW2 6111   1.595   2.166   4.550
 1885SOL     OW 6112   0.039   2.939   4.024
 1885SOL    HW1 6113   0.138   2.928   4.015
 1885SOL    HW2 6114  -0.001   2.853   4.056
 1886SOL     OW 6115   0.875   3.508   4.061
 1886SOL    HW1 6116   0.798   3.473   4.007
 1886SOL    HW2 6117   0.843   3.579   4.123
 1887SOL     OW 6118   0.230   2.490   5.699
 1887SOL    HW1 6119   0.137   2.488   5.736
 1887SOL    HW2 6120   0.231   2.451   5.607
 1888SOL     OW 6121   0.225   2.137   6.582
 1888SOL    HW1 6122   0.260   2.120   6.674
 1888SOL    HW2 6123   0.137   2.092   6.570
 1889SOL     OW 6124   0.019   2.230   6.233
 1889SOL    HW1 6125  -0.063   2.273   6.272
 1889SOL    HW2 6126  -0.009   2.157   6.170
 1890SOL     OW 6127   0.569   3.137   6.751
 1890SOL    HW1 6128   0.476   3.130   6.714
 1890SOL    HW2 6129   0.580   3.226   6.795
 1891SOL     OW 6130   1.555   3.373   6.289
 1891SOL    HW1 6131   1.498   3.357   6.370
 1891SOL    HW2 6132   1.496   3.383   6.209
 1892SOL     OW 6133   1.135   2.565   6.303
 1892SOL    HW1 6134   1.192   2.643   6.278
 1892SOL    HW2 6135   1.075   2.591   6.379
 1893SOL     OW 6136   0.768   3.006   6.609
 1893SOL    HW1 6137   0.690   3.023   6.669
 1893SOL    HW2 6138   0.802   3.093   6.573
 1894SOL     OW 6139   0.850   2.660   7.409
 1894SOL    HW1 6140   0.846   2.736   7.474
 1894SOL    HW2 6141   0.872   2.696   7.318
 1895SOL     OW 6142   0.685   2.874   6.251
 1895SOL    HW1 6143   0.754   2.858   6.321
 1895SOL    HW2 6144   0.612   2.931   6.289
 1896SOL     OW 6145   0.686   3.023   7.389
 1896SOL    HW1 6146   0.746   3.102   7.403
 1896SOL    HW2 6147   0.600   3.054   7.348
 1897SOL     OW 6148   0.335   3.297   6.647
 1897SOL    HW1 6149   0.257   3.266   6.594
 1897SOL    HW2 6150   0.393   3.355   6.590
 1898SOL     OW 6151   1.460   3.367   6.925
 1898SOL    HW1 6152   1.484   3.461   6.951
 1898SOL    HW2 6153   1.444   3.313   7.007
 1899SOL     OW 6154   0.438   2.254   7.085
 1899SOL    HW1 6155   0.520   2.198   7.094
 1899SOL    HW2 6156   0.357   2.196   7.089
 1900SOL     OW 6157   1.603   2.309   6.323
 1900SOL    HW1 6158   1.529   2.355   6.273
 1900SOL    HW2 6159   1.654   2.377   6.376
 1901SOL     OW 6160   0.231   3.575   6.069
 1901SOL    HW1 6161   0.265   3.652   6.123
 1901SOL    HW2 6162   0.275   3.575   5.979
 1902SOL     OW 6163   1.127   3.203   7.276
 1902SOL    HW1 6164   1.174   3.203   7.364
 1902SOL    HW2 6165   1.079   3.116   7.265
 1903SOL     OW 6166   0.230   3.296   6.124
 1903SOL    HW1 6167   0.204   3.392   6.124
 1903SOL    HW2 6168   0.159   3.242   6.169
 1904SOL     OW 6169   0.240   2.953   6.472
 1904SOL    HW1 6170   0.254   2.869   6.524
 1904SOL    HW2 6171   0.185   3.017   6.527
 1905SOL     OW 6172   0.620   3.648   7.025
 1905SOL    HW1 6173   0.528   3.631   7.060
 1905SOL    HW2 6174   0.648   3.740   7.051
 1906SOL     OW 6175   0.606   2.826   5.709
 1906SOL    HW1 6176   0.613   2.910   5.655
 1906SOL    HW2 6177   0.652   2.839   5.797
 1907SOL     OW 6178   1.594   1.976   7.066
 1907SOL    HW1 6179   1.576   2.043   6.994
 1907SOL    HW2 6180   1.591   2.022   7.155
 1908SOL     OW 6181   0.122   2.505   6.149
 1908SOL    HW1 6182   0.077   2.417   6.166
 1908SOL    HW2 6183   0.121   2.559   6.233
 1909SOL     OW 6184   1.842   3.629   5.945
 1909SOL    HW1 6185   1.896   3.600   6.025
 1909SOL    HW2 6186   1.872   3.719   5.916
 1910SOL     OW 6187   0.027   3.458   5.703
 1910SOL    HW1 6188   0.008   3.362   5.724
 1910SOL    HW2 6189  -0.006   3.516   5.778
 1911SOL     OW 6190   1.689   2.784   6.198
 1911SOL    HW1 6191   1.784   2.755   6.206
 1911SOL    HW2 6192   1.681   2.849   6.123
 1912SOL     OW 6193   1.641   2.970   6.018
 1912SOL    HW1 6194   1.727   2.972   5.966
 1912SOL    HW2 6195   1.655   3.017   6.106
 1913SOL     OW 6196   0.113   2.599   7.183
 1913SOL    HW1 6197   0.201   2.586   7.228
 1913SOL    HW2 6198   0.100   2.696   7.161
 1914SOL     OW 6199   0.613   3.227   6.312
 1914SOL    HW1 6200   0.564   3.140   6.321
 1914SOL    HW2 6201   0.590   3.270   6.225
 1915SOL     OW 6202   1.293   3.090   7.009
 1915SOL    HW1 6203   1.330   3.017   6.951
 1915SOL    HW2 6204   1.345   3.095   7.094
 1916SOL     OW 6205   0.809   1.866   6.088
 1916SOL    HW1 6206   0.849   1.957   6.079
 1916SOL    HW2 6207   0.709   1.874   6.094
 1917SOL     OW 6208   0.197   2.838   6.850
 1917SOL    HW1 6209   0.286   2.793   6.836
 1917SOL    HW2 6210   0.124   2.773   6.831
 1918SOL     OW 6211   1.525   2.861   5.776
 1918SOL    HW1 6212   1.462   2.785   5.789
 1918SOL    HW2 6213   1.573   2.879   5.862
 1919SOL     OW 6214   1.187   3.654   7.202
 1919SOL    HW1 6215   1.211   3.714   7.126
 1919SOL    HW2 6216   1.194   3.559   7.172
 1920SOL     OW 6217   0.317   2.113   7.387
 1920SOL    HW1 6218   0.388   2.184   7.393
 1920SOL    HW2 6219   0.229   2.152   7.415
 1921SOL     OW 6220   1.466   3.279   6.539
 1921SOL    HW1 6221   1.407   3.285   6.619
 1921SOL    HW2 6222   1.451   3.191   6.493
 1922SOL     OW 6223   1.667   3.576   6.158
 1922SOL    HW1 6224   1.626   3.553   6.070
 1922SOL    HW2 6225   1.649   3.502   6.223
 1923SOL     OW 6226   0.598   2.591   5.856
 1923SOL    HW1 6227   0.622   2.660   5.788
 1923SOL    HW2 6228   0.520   2.624   5.910
 1924SOL     OW 6229   1.281   2.207   6.530
 1924SOL    HW1 6230   1.195   2.157   6.517
 1924SOL    HW2 6231   1.343   2.153   6.586
 1925SOL     OW 6232   1.576   3.524   5.893
 1925SOL    HW1 6233   1.665   3.570   5.896
 1925SOL    HW2 6234   1.555   3.500   5.798
 1926SOL     OW 6235   0.807   2.467   7.051
 1926SOL    HW1 6236   0.760   2.464   7.140
 1926SOL    HW2 6237   0.756   2.412   6.985
 1927SOL     OW 6238   1.394   2.331   7.260
 1927SOL    HW1 6239   1.374   2.374   7.348
 1927SOL    HW2 6240   1.472   2.269   7.269
 1928SOL     OW 6241   0.973   2.752   7.158
 1928SOL    HW1 6242   1.019   2.668   7.129
 1928SOL    HW2 6243   0.917   2.786   7.083
 1929SOL     OW 6244   0.991   2.272   6.828
 1929SOL    HW1 6245   0.914   2.306   6.882
 1929SOL    HW2 6246   0.957   2.221   6.749
 1930SOL     OW 6247   1.041   2.563   6.015
 1930SOL    HW1 6248   1.067   2.559   6.111
 1930SOL    HW2 6249   0.956   2.512   6.001
 1931SOL     OW 6250   0.076   2.673   6.375
 1931SOL    HW1 6251   0.175   2.661   6.384
 1931SOL    HW2 6252   0.052   2.768   6.396
 1932SOL     OW 6253   0.130   3.683   7.157
 1932SOL    HW1 6254   0.120   3.668   7.256
 1932SOL    HW2 6255   0.044   3.719   7.121
 1933SOL     OW 6256   0.865   2.210   5.781
 1933SOL    HW1 6257   0.924   2.273   5.732
 1933SOL    HW2 6258   0.884   2.116   5.752
 1934SOL     OW 6259   1.719   2.447   7.417
 1934SOL    HW1 6260   1.693   2.536   7.381
 1934SOL    HW2 6261   1.717   2.379   7.344
 1935SOL     OW 6262   1.362   3.006   6.131
 1935SOL    HW1 6263   1.445   2.977   6.083
 1935SOL    HW2 6264   1.313   3.073   6.075
 1936SOL     OW 6265   0.550   2.058   6.471
 1936SOL    HW1 6266   0.545   2.053   6.571
 1936SOL    HW2 6267   0.552   2.154   6.442
 1937SOL     OW 6268   1.008   3.318   6.063
 1937SOL    HW1 6269   0.962   3.390   6.011
 1937SOL    HW2 6270   1.004   3.338   6.161
 1938SOL     OW 6271   0.351   3.663   6.439
 1938SOL    HW1 6272   0.401   3.577   6.445
 1938SOL    HW2 6273   0.416   3.740   6.436
 1939SOL     OW 6274   1.795   2.928   6.459
 1939SOL    HW1 6275   1.733   2.913   6.383
 1939SOL    HW2 6276   1.743   2.939   6.544
 1940SOL     OW 6277   1.227   3.412   7.092
 1940SOL    HW1 6278   1.233   3.335   7.156
 1940SOL    HW2 6279   1.175   3.386   7.012
 1941SOL     OW 6280   0.321   2.805   5.828
 1941SOL    HW1 6281   0.403   2.844   5.786
 1941SOL    HW2 6282   0.294   2.723   5.779
 1942SOL     OW 6283   1.458   2.597   6.314
 1942SOL    HW1 6284   1.453   2.532   6.389
 1942SOL    HW2 6285   1.538   2.656   6.327
 1943SOL     OW 6286   0.461   3.128   7.313
 1943SOL    HW1 6287   0.411   3.129   7.227
 1943SOL    HW2 6288   0.398   3.110   7.389
 1944SOL     OW 6289   1.111   3.638   5.823
 1944SOL    HW1 6290   1.051   3.576   5.873
 1944SOL    HW2 6291   1.142   3.594   5.738
 1945SOL     OW 6292   0.202   2.147   7.084
 1945SOL    HW1 6293   0.122   2.207   7.071
 1945SOL    HW2 6294   0.192   2.098   7.170
 1946SOL     OW 6295   1.632   3.239   5.667
 1946SOL    HW1 6296   1.600   3.333   5.657
 1946SOL    HW2 6297   1.556   3.176   5.655
 1947SOL     OW 6298   0.464   3.605   5.909
 1947SOL    HW1 6299   0.497   3.644   5.995
 1947SOL    HW2 6300   0.540   3.598   5.844
 1948SOL     OW 6301   1.400   1.969   6.012
 1948SOL    HW1 6302   1.376   1.932   5.922
 1948SOL    HW2 6303   1.499   1.985   6.016
 1949SOL     OW 6304   0.249   3.647   6.827
 1949SOL    HW1 6305   0.306   3.582   6.877
 1949SOL    HW2 6306   0.233   3.614   6.734
 1950SOL     OW 6307   0.940   3.560   6.490
 1950SOL    HW1 6308   1.020   3.503   6.511
 1950SOL    HW2 6309   0.891   3.520   6.413
 1951SOL     OW 6310   0.382   2.562   6.066
 1951SOL    HW1 6311   0.427   2.472   6.063
 1951SOL    HW2 6312   0.288   2.551   6.099
 1952SOL     OW 6313   1.547   2.084   7.315
 1952SOL    HW1 6314   1.542   2.121   7.407
 1952SOL    HW2 6315   1.475   2.015   7.303
 1953SOL     OW 6316   0.614   1.984   5.703
 1953SOL    HW1 6317   0.712   1.962   5.710
 1953SOL    HW2 6318   0.583   1.967   5.610
 1954SOL     OW 6319   0.781   2.126   7.335
 1954SOL    HW1 6320   0.848   2.065   7.378
 1954SOL    HW2 6321   0.708   2.145   7.400
 1955SOL     OW 6322   0.888   3.376   6.781
 1955SOL    HW1 6323   0.865   3.351   6.687
 1955SOL    HW2 6324   0.949   3.307   6.820
 1956SOL     OW 6325   1.351   2.452   7.019
 1956SOL    HW1 6326   1.379   2.409   7.104
 1956SOL    HW2 6327   1.376   2.548   7.020
 1957SOL     OW 6328   0.803   3.264   6.510
 1957SOL    HW1 6329   0.893   3.278   6.468
 1957SOL    HW2 6330   0.732   3.266   6.439
 1958SOL     OW 6331   0.922   2.365   6.485
 1958SOL    HW1 6332   0.897   2.356   6.389
 1958SOL    HW2 6333   0.970   2.283   6.516
 1959SOL     OW 6334   0.539   1.926   6.098
 1959SOL    HW1 6335   0.458   1.927   6.156
 1959SOL    HW2 6336   0.542   2.009   6.043
 1960SOL     OW 6337   1.434   3.050   5.627
 1960SOL    HW1 6338   1.466   2.974   5.684
 1960SOL    HW2 6339   1.342   3.077   5.657
 1961SOL     OW 6340   0.297   1.897   5.757
 1961SOL    HW1 6341   0.346   1.981   5.736
 1961SOL    HW2 6342   0.359   1.832   5.802
 1962SOL     OW 6343   0.935   2.098   6.066
 1962SOL    HW1 6344   0.887   2.139   5.988
 1962SOL    HW2 6345   1.034   2.096   6.047
 1963SOL     OW 6346   1.076   2.545   7.050
 1963SOL    HW1 6347   0.996   2.484   7.053
 1963SOL    HW2 6348   1.157   2.492   7.026
 1964SOL     OW 6349   1.227   3.432   6.379
 1964SOL    HW1 6350   1.248   3.506   6.314
 1964SOL    HW2 6351   1.295   3.432   6.452
 1965SOL     OW 6352   0.459   3.014   6.327
 1965SOL    HW1 6353   0.388   2.987   6.392
 1965SOL    HW2 6354   0.433   2.986   6.234
 1966SOL     OW 6355   1.271   3.659   6.177
 1966SOL    HW1 6356   1.315   3.723   6.113
 1966SOL    HW2 6357   1.221   3.711   6.247
 1967SOL     OW 6358   1.032   2.411   5.602
 1967SOL    HW1 6359   0.991   2.493   5.563
 1967SOL    HW2 6360   1.096   2.437   5.675
 1968SOL     OW 6361   0.078   2.418   6.972
 1968SOL    HW1 6362   0.170   2.417   6.931
 1968SOL    HW2 6363   0.072   2.492   7.039
 1969SOL     OW 6364   0.561   2.084   6.733
 1969SOL    HW1 6365   0.599   2.000   6.770
 1969SOL    HW2 6366   0.473   2.103   6.777
 1970SOL     OW 6367   0.866   2.316   6.228
 1970SOL    HW1 6368   0.834   2.388   6.166
 1970SOL    HW2 6369   0.890   2.235   6.175
 1971SOL     OW 6370   1.017   1.901   6.339
 1971SOL    HW1 6371   0.945   1.906   6.270
 1971SOL    HW2 6372   0.993   1.832   6.408
 1972SOL     OW 6373   1.429   3.035   6.453
 1972SOL    HW1 6374   1.374   2.951   6.446
 1972SOL    HW2 6375   1.455   3.064   6.361
 1973SOL     OW 6376   1.466   2.452   6.578
 1973SOL    HW1 6377   1.436   2.357   6.585
 1973SOL    HW2 6378   1.539   2.468   6.644
 1974SOL     OW 6379   0.488   3.247   5.760
 1974SOL    HW1 6380   0.401   3.232   5.807
 1974SOL    HW2 6381   0.471   3.273   5.665
 1975SOL     OW 6382   1.664   3.142   6.243
 1975SOL    HW1 6383   1.763   3.150   6.257
 1975SOL    HW2 6384   1.619   3.226   6.274
 1976SOL     OW 6385   1.390   2.437   5.664
 1976SOL    HW1 6386   1.336   2.416   5.745
 1976SOL    HW2 6387   1.481   2.396   5.673
 1977SOL     OW 6388   0.527   2.118   5.914
 1977SOL    HW1 6389   0.554   2.059   5.839
 1977SOL    HW2 6390   0.527   2.213   5.883
 1978SOL     OW 6391   1.754   3.085   7.174
 1978SOL    HW1 6392   1.845   3.046   7.161
 1978SOL    HW2 6393   1.762   3.181   7.198
 1979SOL     OW 6394   1.064   3.209   6.926
 1979SOL    HW1 6395   0.984   3.186   6.981
 1979SOL    HW2 6396   1.147   3.183   6.975
 1980SOL     OW 6397   1.592   3.491   7.211
 1980SOL    HW1 6398   1.619   3.525   7.121
 1980SOL    HW2 6399   1.671   3.453   7.257
 1981SOL     OW 6400   1.111   3.057   6.686
 1981SOL    HW1 6401   1.071   3.101   6.767
 1981SOL    HW2 6402   1.070   3.094   6.603
 1982SOL     OW 6403   1.638   2.961   6.665
 1982SOL    HW1 6404   1.643   3.042   6.724
 1982SOL    HW2 6405   1.552   2.963   6.614
 1983SOL     OW 6406   0.915   1.951   6.988
 1983SOL    HW1 6407   0.940   1.931   6.893
 1983SOL    HW2 6408   0.987   2.007   7.030
 1984SOL     OW 6409   0.980   2.978   7.305
 1984SOL    HW1 6410   0.881   2.984   7.315
 1984SOL    HW2 6411   1.003   2.898   7.249
 1985SOL     OW 6412   0.705   2.912   5.954
 1985SOL    HW1 6413   0.691   2.919   6.053
 1985SOL    HW2 6414   0.789   2.861   5.936
 1986SOL     OW 6415   0.410   2.675   6.837
 1986SOL    HW1 6416   0.496   2.687   6.887
 1986SOL    HW2 6417   0.368   2.588   6.864
 1987SOL     OW 6418   1.274   2.248   6.848
 1987SOL    HW1 6419   1.295   2.322   6.912
 1987SOL    HW2 6420   1.185   2.265   6.805
 1988SOL     OW 6421   0.064   3.426   6.917
 1988SOL    HW1 6422   0.018   3.508   6.883
 1988SOL    HW2 6423   0.162   3.445   6.926
 1989SOL     OW 6424   0.367   2.962   6.087
 1989SOL    HW1 6425   0.360   3.045   6.031
 1989SOL    HW2 6426   0.371   2.882   6.027
 1990SOL     OW 6427   0.566   2.399   6.451
 1990SOL    HW1 6428   0.578   2.465   6.377
 1990SOL    HW2 6429   0.612   2.433   6.534
 1991SOL     OW 6430   1.252   3.210   5.974
 1991SOL    HW1 6431   1.302   3.287   6.014
 1991SOL    HW2 6432   1.157   3.212   6.006
 1992SOL     OW 6433   1.272   3.307   6.728
 1992SOL    HW1 6434   1.319   3.320   6.815
 1992SOL    HW2 6435   1.206   3.233   6.737
 1993SOL     OW 6436   1.582   2.501   6.058
 1993SOL    HW1 6437   1.551   2.562   6.131
 1993SOL    HW2 6438   1.632   2.553   5.989
 1994SOL     OW 6439   0.354   3.372   6.915
 1994SOL    HW1 6440   0.333   3.328   6.828
 1994SOL    HW2 6441   0.451   3.398   6.918
 1995SOL     OW 6442   0.402   2.613   7.184
 1995SOL    HW1 6443   0.470   2.668   7.137
 1995SOL    HW2 6444   0.442   2.525   7.211
 1996SOL     OW 6445   1.587   2.641   7.256
 1996SOL    HW1 6446   1.495   2.679   7.251
 1996SOL    HW2 6447   1.647   2.688   7.191
 1997SOL     OW 6448   1.013   1.967   7.356
 1997SOL    HW1 6449   1.019   2.052   7.304
 1997SOL    HW2 6450   1.045   1.891   7.299
 1998SOL     OW 6451   0.504   1.912   7.326
 1998SOL    HW1 6452   0.462   1.855   7.256
 1998SOL    HW2 6453   0.438   1.981   7.358
 1999SOL     OW 6454   0.573   2.732   6.615
 1999SOL    HW1 6455   0.617   2.821   6.606
 1999SOL    HW2 6456   0.510   2.732   6.692
 2000SOL     OW 6457   1.360   2.724   6.631
 2000SOL    HW1 6458   1.285   2.724   6.565
 2000SOL    HW2 6459   1.397   2.632   6.640
 2001SOL     OW 6460   1.209   2.387   5.861
 2001SOL    HW1 6461   1.222   2.303   5.915
 2001SOL    HW2 6462   1.180   2.461   5.921
 2002SOL     OW 6463   0.307   2.075   6.817
 2002SOL    HW1 6464   0.284   2.112   6.907
 2002SOL    HW2 6465   0.277   1.980   6.811
 2003SOL     OW 6466   0.037   3.172   6.868
 2003SOL    HW1 6467   0.090   3.123   6.936
 2003SOL    HW2 6468   0.059   3.270   6.873
 2004SOL     OW 6469   0.732   2.496   6.650
 2004SOL    HW1 6470   0.791   2.470   6.574
 2004SOL    HW2 6471   0.704   2.592   6.639
 2005SOL     OW 6472   1.728   2.797   7.440
 2005SOL    HW1 6473   1.682   2.790   7.351
 2005SOL    HW2 6474   1.666   2.841   7.506
 2006SOL     OW 6475   0.307   1.925   6.204
 2006SOL    HW1 6476   0.296   2.019   6.237
 2006SOL    HW2 6477   0.302   1.862   6.281
 2007SOL     OW 6478   1.023   2.628   6.552
 2007SOL    HW1 6479   1.038   2.649   6.648
 2007SOL    HW2 6480   0.993   2.533   6.543
 2008SOL     OW 6481   0.980   3.435   7.286
 2008SOL    HW1 6482   0.960   3.479   7.198
 2008SOL    HW2 6483   1.019   3.344   7.270
 2009SOL     OW 6484   1.859   3.380   7.191
 2009SOL    HW1 6485   1.873   3.407   7.096
 2009SOL    HW2 6486   1.942   3.402   7.244
 2010SOL     OW 6487   0.350   2.760   7.390
 2010SOL    HW1 6488   0.426   2.804   7.438
 2010SOL    HW2 6489   0.385   2.713   7.308
 2011SOL     OW 6490   1.303   2.700   5.628
 2011SOL    HW1 6491   1.337   2.607   5.643
 2011SOL    HW2 6492   1.321   2.727   5.533
 2012SOL     OW 6493   1.068   3.195   6.435
 2012SOL    HW1 6494   1.075   3.111   6.380
 2012SOL    HW2 6495   1.130   3.264   6.399
 2013SOL     OW 6496   0.319   2.672   6.535
 2013SOL    HW1 6497   0.412   2.708   6.540
 2013SOL    HW2 6498   0.313   2.587   6.587
 2014SOL     OW 6499   0.339   2.371   6.592
 2014SOL    HW1 6500   0.287   2.288   6.575
 2014SOL    HW2 6501   0.416   2.376   6.528
 2015SOL     OW 6502   1.138   2.242   7.264
 2015SOL    HW1 6503   1.093   2.305   7.328
 2015SOL    HW2 6504   1.231   2.273   7.247
 2016SOL     OW 6505   1.160   2.069   7.063
 2016SOL    HW1 6506   1.160   2.133   7.140
 2016SOL    HW2 6507   1.188   2.117   6.980
 2017SOL     OW 6508   0.008   3.188   5.786
 2017SOL    HW1 6509  -0.085   3.209   5.755
 2017SOL    HW2 6510   0.018   3.089   5.799
 2018SOL     OW 6511   0.088   3.663   6.513
 2018SOL    HW1 6512   0.046   3.577   6.486
 2018SOL    HW2 6513   0.182   3.666   6.479
 2019SOL     OW 6514   0.504   3.430   6.496
 2019SOL    HW1 6515   0.570   3.504   6.505
 2019SOL    HW2 6516   0.548   3.351   6.454
 2020SOL     OW 6517   1.002   2.658   6.824
 2020SOL    HW1 6518   1.043   2.626   6.910
 2020SOL    HW2 6519   0.906   2.631   6.821
 2021SOL     OW 6520   0.040   2.406   6.700
 2021SOL    HW1 6521   0.125   2.373   6.659
 2021SOL    HW2 6522   0.053   2.421   6.798
 2022SOL     OW 6523   0.189   2.382   7.308
 2022SOL    HW1 6524   0.248   2.342   7.238
 2022SOL    HW2 6525   0.131   2.453   7.267
 2023SOL     OW 6526   1.369   2.812   7.246
 2023SOL    HW1 6527   1.408   2.901   7.266
 2023SOL    HW2 6528   1.379   2.792   7.149
 2024SOL     OW 6529   0.815   2.434   5.911
 2024SOL    HW1 6530   0.822   2.345   5.865
 2024SOL    HW2 6531   0.721   2.468   5.903
 2025SOL     OW 6532   1.657   2.466   6.792
 2025SOL    HW1 6533   1.619   2.397   6.854
 2025SOL    HW2 6534   1.739   2.430   6.748
 2026SOL     OW 6535   0.252   3.426   7.330
 2026SOL    HW1 6536   0.222   3.483   7.406
 2026SOL    HW2 6537   0.245   3.329   7.356
 2027SOL     OW 6538   0.671   2.326   6.855
 2027SOL    HW1 6539   0.637   2.237   6.825
 2027SOL    HW2 6540   0.697   2.380   6.775
 2028SOL     OW 6541   0.930   3.540   7.051
 2028SOL    HW1 6542   0.906   3.522   6.956
 2028SOL    HW2 6543   0.960   3.634   7.061
 2029SOL     OW 6544   0.473   2.362   5.777
 2029SOL    HW1 6545   0.534   2.442   5.781
 2029SOL    HW2 6546   0.378   2.393   5.784
 2030SOL     OW 6547   0.159   2.999   7.052
 2030SOL    HW1 6548   0.181   2.938   7.128
 2030SOL    HW2 6549   0.169   2.950   6.966
 2031SOL     OW 6550   1.347   2.921   6.820
 2031SOL    HW1 6551   1.371   2.858   6.746
 2031SOL    HW2 6552   1.257   2.961   6.802
 2032SOL     OW 6553   1.302   2.717   5.895
 2032SOL    HW1 6554   1.216   2.686   5.937
 2032SOL    HW2 6555   1.298   2.703   5.796
 2033SOL     OW 6556   1.759   3.609   6.740
 2033SOL    HW1 6557   1.820   3.639   6.667
 2033SOL    HW2 6558   1.721   3.520   6.718
 2034SOL     OW 6559   1.252   3.593   6.714
 2034SOL    HW1 6560   1.336   3.598   6.660
 2034SOL    HW2 6561   1.229   3.497   6.732
 2035SOL     OW 6562   0.083   3.120   6.608
 2035SOL    HW1 6563   0.078   3.119   6.708
 2035SOL    HW2 6564   0.000   3.079   6.570
 2036SOL     OW 6565   0.688   3.524   7.302
 2036SOL    HW1 6566   0.632   3.605   7.311
 2036SOL    HW2 6567   0.740   3.528   7.216
 2037SOL     OW 6568   1.388   3.435   6.063
 2037SOL    HW1 6569   1.455   3.447   5.989
 2037SOL    HW2 6570   1.348   3.524   6.086
 2038SOL     OW 6571   0.130   3.656   7.437
 2038SOL    HW1 6572   0.089   3.582   7.490
 2038SOL    HW2 6573   0.194   3.707   7.495
 2039SOL     OW 6574   1.280   2.789   6.258
 2039SOL    HW1 6575   1.340   2.708   6.260
 2039SOL    HW2 6576   1.320   2.858   6.198
 2040SOL     OW 6577   0.830   3.135   7.008
 2040SOL    HW1 6578   0.825   3.168   7.103
 2040SOL    HW2 6579   0.744   3.154   6.962
 2041SOL     OW 6580   0.672   3.478   5.740
 2041SOL    HW1 6581   0.681   3.488   5.641
 2041SOL    HW2 6582   0.632   3.389   5.761
 2042SOL     OW 6583   1.650   3.582   6.980
 2042SOL    HW1 6584   1.703   3.592   6.896
 2042SOL    HW2 6585   1.623   3.672   7.014
 2043SOL     OW 6586   1.841   2.037   6.549
 2043SOL    HW1 6587   1.880   1.952   6.513
 2043SOL    HW2 6588   1.743   2.039   6.530
 2044SOL     OW 6589   0.263   2.188   6.306
 2044SOL    HW1 6590   0.184   2.239   6.272
 2044SOL    HW2 6591   0.254   2.173   6.404
 2045SOL     OW 6592   1.194   3.474   5.617
 2045SOL    HW1 6593   1.200   3.381   5.654
 2045SOL    HW2 6594   1.135   3.474   5.537
 2046SOL     OW 6595   0.822   2.864   6.958
 2046SOL    HW1 6596   0.862   2.863   6.866
 2046SOL    HW2 6597   0.832   2.956   6.998
 2047SOL     OW 6598   0.916   2.772   5.877
 2047SOL    HW1 6599   0.979   2.810   5.809
 2047SOL    HW2 6600   0.956   2.689   5.916
 2048SOL     OW 6601   1.504   3.469   5.630
 2048SOL    HW1 6602   1.412   3.506   5.637
 2048SOL    HW2 6603   1.542   3.489   5.540
 2049SOL     OW 6604   0.372   3.150   7.076
 2049SOL    HW1 6605   0.359   3.243   7.042
 2049SOL    HW2 6606   0.288   3.098   7.063
 2050SOL     OW 6607   1.614   3.154   6.875
 2050SOL    HW1 6608   1.674   3.157   6.955
 2050SOL    HW2 6609   1.539   3.218   6.888
 2051SOL     OW 6610   1.039   2.960   6.282
 2051SOL    HW1 6611   0.969   2.913   6.336
 2051SOL    HW2 6612   1.098   2.892   6.239
 2052SOL     OW 6613   1.014   2.098   6.557
 2052SOL    HW1 6614   1.006   2.062   6.464
 2052SOL    HW2 6615   1.012   2.022   6.622
 2053SOL     OW 6616   0.590   3.349   6.077
 2053SOL    HW1 6617   0.632   3.291   6.007
 2053SOL    HW2 6618   0.546   3.428   6.033
 2054SOL     OW 6619   1.709   2.247   6.967
 2054SOL    HW1 6620   1.782   2.316   6.971
 2054SOL    HW2 6621   1.737   2.172   6.908
 2055SOL     OW 6622   0.255   3.210   5.876
 2055SOL    HW1 6623   0.159   3.211   5.849
 2055SOL    HW2 6624   0.267   3.263   5.960
 2056SOL     OW 6625   0.105   2.875   7.312
 2056SOL    HW1 6626   0.028   2.842   7.366
 2056SOL    HW2 6627   0.190   2.845   7.354
 2057SOL     OW 6628   0.672   2.065   7.075
 2057SOL    HW1 6629   0.762   2.049   7.035
 2057SOL    HW2 6630   0.680   2.070   7.174
 2058SOL     OW 6631   0.075   2.207   5.619
 2058SOL    HW1 6632  -0.017   2.179   5.590
 2058SOL    HW2 6633   0.106   2.284   5.563
 2059SOL     OW 6634   1.440   2.718   6.984
 2059SOL    HW1 6635   1.383   2.770   6.921
 2059SOL    HW2 6636   1.536   2.730   6.960
 2060SOL     OW 6637   0.072   2.028   5.904
 2060SOL    HW1 6638   0.055   2.111   5.850
 2060SOL    HW2 6639   0.162   1.991   5.882
 2061SOL     OW 6640   1.183   3.197   5.705
 2061SOL    HW1 6641   1.084   3.186   5.707
 2061SOL    HW2 6642   1.217   3.212   5.798
 2062SOL     OW 6643   0.613   2.704   7.017
 2062SOL    HW1 6644   0.669   2.785   7.000
 2062SOL    HW2 6645   0.672   2.624   7.020
 2063SOL     OW 6646   1.493   3.629   6.545
 2063SOL    HW1 6647   1.526   3.693   6.476
 2063SOL    HW2 6648   1.559   3.623   6.620
 2064SOL     OW 6649   0.716   2.427   7.294
 2064SOL    HW1 6650   0.735   2.492   7.368
 2064SOL    HW2 6651   0.776   2.347   7.303
 2065SOL     OW 6652   1.450   3.082   7.219
 2065SOL    HW1 6653   1.441   3.072   7.318
 2065SOL    HW2 6654   1.546   3.075   7.193
 2066SOL     OW 6655   0.390   3.603   7.146
 2066SOL    HW1 6656   0.299   3.644   7.144
 2066SOL    HW2 6657   0.383   3.509   7.178
 2067SOL     OW 6658   1.674   2.745   6.840
 2067SOL    HW1 6659   1.647   2.656   6.803
 2067SOL    HW2 6660   1.675   2.813   6.767
 2068SOL     OW 6661   1.225   2.187   6.035
 2068SOL    HW1 6662   1.290   2.113   6.024
 2068SOL    HW2 6663   1.245   2.237   6.119
 2069SOL     OW 6664   0.594   2.607   6.238
 2069SOL    HW1 6665   0.644   2.692   6.219
 2069SOL    HW2 6666   0.506   2.609   6.190
 2070SOL     OW 6667   1.777   2.204   7.228
 2070SOL    HW1 6668   1.760   2.235   7.134
 2070SOL    HW2 6669   1.693   2.167   7.266
 2071SOL     OW 6670   1.730   2.796   7.103
 2071SOL    HW1 6671   1.768   2.887   7.118
 2071SOL    HW2 6672   1.722   2.779   7.004
 2072SOL     OW 6673   0.859   3.236   5.602
 2072SOL    HW1 6674   0.813   3.251   5.690
 2072SOL    HW2 6675   0.903   3.321   5.572
 2073SOL     OW 6676   0.661   3.652   6.539
 2073SOL    HW1 6677   0.615   3.740   6.526
 2073SOL    HW2 6678   0.760   3.664   6.532
 2074SOL     OW 6679   0.859   2.818   6.447
 2074SOL    HW1 6680   0.913   2.749   6.495
 2074SOL    HW2 6681   0.827   2.887   6.513
 2075SOL     OW 6682   1.083   2.846   5.673
 2075SOL    HW1 6683   1.060   2.899   5.591
 2075SOL    HW2 6684   1.164   2.790   5.654
 2076SOL     OW 6685   1.861   3.431   6.437
 2076SOL    HW1 6686   1.790   3.419   6.367
 2076SOL    HW2 6687   1.862   3.352   6.497
 2077SOL     OW 6688   0.221   3.176   7.430
 2077SOL    HW1 6689   0.156   3.103   7.409
 2077SOL    HW2 6690   0.225   3.190   7.528
 2078SOL     OW 6691   0.079   3.102   6.239
 2078SOL    HW1 6692   0.078   3.055   6.327
 2078SOL    HW2 6693   0.161   3.074   6.188
 2079SOL     OW 6694   0.672   3.253   7.210
 2079SOL    HW1 6695   0.594   3.203   7.248
 2079SOL    HW2 6696   0.669   3.348   7.241
 2080SOL     OW 6697   1.824   2.054   6.813
 2080SOL    HW1 6698   1.820   1.964   6.857
 2080SOL    HW2 6699   1.827   2.043   6.714
 2081SOL     OW 6700   0.428   2.286   6.106
 2081SOL    HW1 6701   0.458   2.214   6.044
 2081SOL    HW2 6702   0.389   2.246   6.189
 2082SOL     OW 6703   1.705   3.349   6.690
 2082SOL    HW1 6704   1.612   3.324   6.663
 2082SOL    HW2 6705   1.731   3.299   6.772
 2083SOL     OW 6706   0.317   2.409   6.866
 2083SOL    HW1 6707   0.355   2.350   6.938
 2083SOL    HW2 6708   0.357   2.383   6.778
 2084SOL     OW 6709   0.812   3.448   6.273
 2084SOL    HW1 6710   0.844   3.458   6.179
 2084SOL    HW2 6711   0.733   3.386   6.275
 2085SOL     OW 6712   1.424   2.076   6.698
 2085SOL    HW1 6713   1.476   2.011   6.753
 2085SOL    HW2 6714   1.375   2.139   6.759
 2086SOL     OW 6715   1.001   1.896   6.740
 2086SOL    HW1 6716   0.938   1.824   6.709
 2086SOL    HW2 6717   1.094   1.860   6.740
 2087SOL     OW 6718   0.770   3.192   5.887
 2087SOL    HW1 6719   0.724   3.105   5.904
 2087SOL    HW2 6720   0.861   3.189   5.928
 2088SOL     OW 6721   0.618   3.429   6.870
 2088SOL    HW1 6722   0.613   3.511   6.927
 2088SOL    HW2 6723   0.707   3.426   6.825
 2089SOL     OW 6724   1.352   1.914   5.754
 2089SOL    HW1 6725   1.387   1.873   5.670
 2089SOL    HW2 6726   1.262   1.876   5.774
 2090SOL     OW 6727   1.300   2.315   6.277
 2090SOL    HW1 6728   1.241   2.395   6.281
 2090SOL    HW2 6729   1.315   2.280   6.370
 2091SOL     OW 6730   0.039   2.939   5.886
 2091SOL    HW1 6731   0.138   2.928   5.877
 2091SOL    HW2 6732  -0.001   2.853   5.918
 2092SOL     OW 6733   0.875   3.508   5.923
 2092SOL    HW1 6734   0.798   3.473   5.869
 2092SOL    HW2 6735   0.843   3.579   5.985
 2093SOL     OW 6736   0.230   2.490   7.561
 2093SOL    HW1 6737   0.137   2.488   7.598
 2093SOL    HW2 6738   0.231   2.451   7.469
 2094SOL     OW 6739   0.225   2.137   8.444
 2094SOL    HW1 6740   0.260   2.120   8.536
 2094SOL    HW2 6741   0.137   2.092   8.432
 2095SOL     OW 6742   0.019   2.230   8.095
 2095SOL    HW1 6743  -0.063   2.273   8.134
 2095SOL    HW2 6744  -0.009   2.157   8.032
 2096SOL     OW 6745   0.569   3.137   8.613
 2096SOL    HW1 6746   0.476   3.130   8.576
 2096SOL    HW2 6747   0.580   3.226   8.657
 2097SOL     OW 6748   1.555   3.373   8.151
 2097SOL    HW1 6749   1.498   3.357   8.232
 2097SOL    HW2 6750   1.496   3.383   8.071
 2098SOL     OW 6751   1.135   2.565   8.165
 2098SOL    HW1 6752   1.192   2.643   8.140
 2098SOL    HW2 6753   1.075   2.591   8.241
 2099SOL     OW 6754   1.755   2.469   7.679
 2099SOL    HW1 6755   1.743   2.456   7.580
 2099SOL    HW2 6756   1.725   2.388   7.728
 2100SOL     OW 6757   0.768   3.006   8.471
 2100SOL    HW1 6758   0.690   3.023   8.531
 2100SOL    HW2 6759   0.802   3.093   8.435
 2101SOL     OW 6760   0.850   2.660   9.271
 2101SOL    HW1 6761   0.846   2.736   9.336
 2101SOL    HW2 6762   0.872   2.696   9.180
 2102SOL     OW 6763   0.685   2.874   8.113
 2102SOL    HW1 6764   0.754   2.858   8.183
 2102SOL    HW2 6765   0.612   2.931   8.151
 2103SOL     OW 6766   0.686   3.023   9.251
 2103SOL    HW1 6767   0.746   3.102   9.265
 2103SOL    HW2 6768   0.600   3.054   9.210
 2104SOL     OW 6769   0.335   3.297   8.509
 2104SOL    HW1 6770   0.257   3.266   8.456
 2104SOL    HW2 6771   0.393   3.355   8.452
 2105SOL     OW 6772   1.460   3.367   8.787
 2105SOL    HW1 6773   1.484   3.461   8.813
 2105SOL    HW2 6774   1.444   3.313   8.869
 2106SOL     OW 6775   0.438   2.254   8.947
 2106SOL    HW1 6776   0.520   2.198   8.956
 2106SOL    HW2 6777   0.357   2.196   8.951
 2107SOL     OW 6778   1.603   2.309   8.185
 2107SOL    HW1 6779   1.529   2.355   8.135
 2107SOL    HW2 6780   1.654   2.377   8.238
 2108SOL     OW 6781   0.231   3.575   7.931
 2108SOL    HW1 6782   0.265   3.652   7.985
 2108SOL    HW2 6783   0.275   3.575   7.841
 2109SOL     OW 6784   1.127   3.203   9.138
 2109SOL    HW1 6785   1.174   3.203   9.226
 2109SOL    HW2 6786   1.079   3.116   9.127
 2110SOL     OW 6787   0.230   3.296   7.986
 2110SOL    HW1 6788   0.204   3.392   7.986
 2110SOL    HW2 6789   0.159   3.242   8.031
 2111SOL     OW 6790   0.240   2.953   8.334
 2111SOL    HW1 6791   0.254   2.869   8.386
 2111SOL    HW2 6792   0.185   3.017   8.389
 2112SOL     OW 6793   0.620   3.648   8.887
 2112SOL    HW1 6794   0.528   3.631   8.922
 2112SOL    HW2 6795   0.648   3.740   8.913
 2113SOL     OW 6796   0.606   2.826   7.571
 2113SOL    HW1 6797   0.613   2.910   7.517
 2113SOL    HW2 6798   0.652   2.839   7.659
 2114SOL     OW 6799   1.594   1.976   8.928
 2114SOL    HW1 6800   1.576   2.043   8.856
 2114SOL    HW2 6801   1.591   2.022   9.017
 2115SOL     OW 6802   0.122   2.505   8.011
 2115SOL    HW1 6803   0.077   2.417   8.028
 2115SOL    HW2 6804   0.121   2.559   8.095
 2116SOL     OW 6805   1.842   3.629   7.807
 2116SOL    HW1 6806   1.896   3.600   7.887
 2116SOL    HW2 6807   1.872   3.719   7.778
 2117SOL     OW 6808   0.027   3.458   7.565
 2117SOL    HW1 6809   0.008   3.362   7.586
 2117SOL    HW2 6810  -0.006   3.516   7.640
 2118SOL     OW 6811   1.689   2.784   8.060
 2118SOL    HW1 6812   1.784   2.755   8.068
 2118SOL    HW2 6813   1.681   2.849   7.985
 2119SOL     OW 6814   1.641   2.970   7.880
 2119SOL    HW1 6815   1.727   2.972   7.828
 2119SOL    HW2 6816   1.655   3.017   7.968
 2120SOL     OW 6817   0.113   2.599   9.045
 2120SOL    HW1 6818   0.201   2.586   9.090
 2120SOL    HW2 6819   0.100   2.696   9.023
 2121SOL     OW 6820   0.613   3.227   8.174
 2121SOL    HW1 6821   0.564   3.140   8.183
 2121SOL    HW2 6822   0.590   3.270   8.087
 2122SOL     OW 6823   1.293   3.090   8.871
 2122SOL    HW1 6824   1.330   3.017   8.813
 2122SOL    HW2 6825   1.345   3.095   8.956
 2123SOL     OW 6826   0.809   1.866   7.950
 2123SOL    HW1 6827   0.849   1.957   7.941
 2123SOL    HW2 6828   0.709   1.874   7.956
 2124SOL     OW 6829   0.197   2.838   8.712
 2124SOL    HW1 6830   0.286   2.793   8.698
 2124SOL    HW2 6831   0.124   2.773   8.693
 2125SOL     OW 6832   1.525   2.861   7.638
 2125SOL    HW1 6833   1.462   2.785   7.651
 2125SOL    HW2 6834   1.573   2.879   7.724
 2126SOL     OW 6835   1.187   3.654   9.064
 2126SOL    HW1 6836   1.211   3.714   8.988
 2126SOL    HW2 6837   1.194   3.559   9.034
 2127SOL     OW 6838   0.317   2.113   9.249
 2127SOL    HW1 6839   0.388   2.184   9.255
 2127SOL    HW2 6840   0.229   2.152   9.277
 2128SOL     OW 6841   1.466   3.279   8.401
 2128SOL    HW1 6842   1.407   3.285   8.481
 2128SOL    HW2 6843   1.451   3.191   8.355
 2129SOL     OW 6844   1.667   3.576   8.020
 2129SOL    HW1 6845   1.626   3.553   7.932
 2129SOL    HW2 6846   1.649   3.502   8.085
 2130SOL     OW 6847   0.598   2.591   7.718
 2130SOL    HW1 6848   0.622   2.660   7.650
 2130SOL    HW2 6849   0.520   2.624   7.772
 2131SOL     OW 6850   1.281   2.207   8.392
 2131SOL    HW1 6851   1.195   2.157   8.379
 2131SOL    HW2 6852   1.343   2.153   8.448
 2132SOL     OW 6853   1.576   3.524   7.755
 2132SOL    HW1 6854   1.665   3.570   7.758
 2132SOL    HW2 6855   1.555   3.500   7.660
 2133SOL     OW 6856   0.807   2.467   8.913
 2133SOL    HW1 6857   0.760   2.464   9.002
 2133SOL    HW2 6858   0.756   2.412   8.847
 2134SOL     OW 6859   1.394   2.331   9.122
 2134SOL    HW1 6860   1.374   2.374   9.210
 2134SOL    HW2 6861   1.472   2.269   9.131
 2135SOL     OW 6862   0.973   2.752   9.020
 2135SOL    HW1 6863   1.019   2.668   8.991
 2135SOL    HW2 6864   0.917   2.786   8.945
 2136SOL     OW 6865   0.991   2.272   8.690
 2136SOL    HW1 6866   0.914   2.306   8.744
 2136SOL    HW2 6867   0.957   2.221   8.611
 2137SOL     OW 6868   1.041   2.563   7.877
 2137SOL    HW1 6869   1.067   2.559   7.973
 2137SOL    HW2 6870   0.956   2.512   7.863
 2138SOL     OW 6871   0.076   2.673   8.237
 2138SOL    HW1 6872   0.175   2.661   8.246
 2138SOL    HW2 6873   0.052   2.768   8.258
 2139SOL     OW 6874   0.130   3.683   9.019
 2139SOL    HW1 6875   0.120   3.668   9.118
 2139SOL    HW2 6876   0.044   3.719   8.983
 2140SOL     OW 6877   0.865   2.210   7.643
 2140SOL    HW1 6878   0.924   2.273   7.594
 2140SOL    HW2 6879   0.884   2.116   7.614
 2141SOL     OW 6880   1.719   2.447   9.279
 2141SOL    HW1 6881   1.693   2.536   9.243
 2141SOL    HW2 6882   1.717   2.379   9.206
 2142SOL     OW 6883   1.362   3.006   7.993
 2142SOL    HW1 6884   1.445   2.977   7.945
 2142SOL    HW2 6885   1.313   3.073   7.937
 2143SOL     OW 6886   0.550   2.058   8.333
 2143SOL    HW1 6887   0.545   2.053   8.433
 2143SOL    HW2 6888   0.552   2.154   8.304
 2144SOL     OW 6889   1.008   3.318   7.925
 2144SOL    HW1 6890   0.962   3.390   7.873
 2144SOL    HW2 6891   1.004   3.338   8.023
 2145SOL     OW 6892   0.351   3.663   8.301
 2145SOL    HW1 6893   0.401   3.577   8.307
 2145SOL    HW2 6894   0.416   3.740   8.298
 2146SOL     OW 6895   1.795   2.928   8.321
 2146SOL    HW1 6896   1.733   2.913   8.245
 2146SOL    HW2 6897   1.743   2.939   8.406
 2147SOL     OW 6898   1.227   3.412   8.954
 2147SOL    HW1 6899   1.233   3.335   9.018
 2147SOL    HW2 6900   1.175   3.386   8.874
 2148SOL     OW 6901   0.321   2.805   7.690
 2148SOL    HW1 6902   0.403   2.844   7.648
 2148SOL    HW2 6903   0.294   2.723   7.641
 2149SOL     OW 6904   1.458   2.597   8.176
 2149SOL    HW1 6905   1.453   2.532   8.251
 2149SOL    HW2 6906   1.538   2.656   8.189
 2150SOL     OW 6907   0.461   3.128   9.175
 2150SOL    HW1 6908   0.411   3.129   9.089
 2150SOL    HW2 6909   0.398   3.110   9.251
 2151SOL     OW 6910   1.111   3.638   7.685
 2151SOL    HW1 6911   1.051   3.576   7.735
 2151SOL    HW2 6912   1.142   3.594   7.600
 2152SOL     OW 6913   0.202   2.147   8.946
 2152SOL    HW1 6914   0.122   2.207   8.933
 2152SOL    HW2 6915   0.192   2.098   9.032
 2153SOL     OW 6916   1.632   3.239   7.529
 2153SOL    HW1 6917   1.600   3.333   7.519
 2153SOL    HW2 6918   1.556   3.176   7.517
 2154SOL     OW 6919   0.464   3.605   7.771
 2154SOL    HW1 6920   0.497   3.644   7.857
 2154SOL    HW2 6921   0.540   3.598   7.706
 2155SOL     OW 6922   1.400   1.969   7.874
 2155SOL    HW1 6923   1.376   1.932   7.784
 2155SOL    HW2 6924   1.499   1.985   7.878
 2156SOL     OW 6925   0.249   3.647   8.689
 2156SOL    HW1 6926   0.306   3.582   8.739
 2156SOL    HW2 6927   0.233   3.614   8.596
 2157SOL     OW 6928   0.940   3.560   8.352
 2157SOL    HW1 6929   1.020   3.503   8.373
 2157SOL    HW2 6930   0.891   3.520   8.275
 2158SOL     OW 6931   0.382   2.562   7.928
 2158SOL    HW1 6932   0.427   2.472   7.925
 2158SOL    HW2 6933   0.288   2.551   7.961
 2159SOL     OW 6934   1.547   2.084   9.177
 2159SOL    HW1 6935   1.542   2.121   9.269
 2159SOL    HW2 6936   1.475   2.015   9.165
 2160SOL     OW 6937   0.614   1.984   7.565
 2160SOL    HW1 6938   0.712   1.962   7.572
 2160SOL    HW2 6939   0.583   1.967   7.472
 2161SOL     OW 6940   0.781   2.126   9.197
 2161SOL    HW1 6941   0.848   2.065   9.240
 2161SOL    HW2 6942   0.708   2.145   9.262
 2162SOL     OW 6943   0.888   3.376   8.643
 2162SOL    HW1 6944   0.865   3.351   8.549
 2162SOL    HW2 6945   0.949   3.307   8.682
 2163SOL     OW 6946   1.351   2.452   8.881
 2163SOL    HW1 6947   1.379   2.409   8.966
 2163SOL    HW2 6948   1.376   2.548   8.882
 2164SOL     OW 6949   0.803   3.264   8.372
 2164SOL    HW1 6950   0.893   3.278   8.330
 2164SOL    HW2 6951   0.732   3.266   8.301
 2165SOL     OW 6952   0.922   2.365   8.347
 2165SOL    HW1 6953   0.897   2.356   8.251
 2165SOL    HW2 6954   0.970   2.283   8.378
 2166SOL     OW 6955   0.539   1.926   7.960
 2166SOL    HW1 6956   0.458   1.927   8.018
 2166SOL    HW2 6957   0.542   2.009   7.905
 2167SOL     OW 6958   1.434   3.050   7.489
 2167SOL    HW1 6959   1.466   2.974   7.546
 2167SOL    HW2 6960   1.342   3.077   7.519
 2168SOL     OW 6961   0.297   1.897   7.619
 2168SOL    HW1 6962   0.346   1.981   7.598
 2168SOL    HW2 6963   0.359   1.832   7.664
 2169SOL     OW 6964   0.935   2.098   7.928
 2169SOL    HW1 6965   0.887   2.139   7.850
 2169SOL    HW2 6966   1.034   2.096   7.909
 2170SOL     OW 6967   1.076   2.545   8.912
 2170SOL    HW1 6968   0.996   2.484   8.915
 2170SOL    HW2 6969   1.157   2.492   8.888
 2171SOL     OW 6970   1.227   3.432   8.241
 2171SOL    HW1 6971   1.248   3.506   8.176
 2171SOL    HW2 6972   1.295   3.432   8.314
 2172SOL     OW 6973   0.459   3.014   8.189
 2172SOL    HW1 6974   0.388   2.987   8.254
 2172SOL    HW2 6975   0.433   2.986   8.096
 2173SOL     OW 6976   1.271   3.659   8.039
 2173SOL    HW1 6977   1.315   3.723   7.975
 2173SOL    HW2 6978   1.221   3.711   8.109
 2174SOL     OW 6979   1.032   2.411   7.464
 2174SOL    HW1 6980   0.991   2.493   7.425
 2174SOL    HW2 6981   1.096   2.437   7.537
 2175SOL     OW 6982   0.078   2.418   8.834
 2175SOL    HW1 6983   0.170   2.417   8.793
 2175SOL    HW2 6984   0.072   2.492   8.901
 2176SOL     OW 6985   0.561   2.084   8.595
 2176SOL    HW1 6986   0.599   2.000   8.632
 2176SOL    HW2 6987   0.473   2.103   8.639
 2177SOL     OW 6988   0.866   2.316   8.090
 2177SOL    HW1 6989   0.834   2.388   8.028
 2177SOL    HW2 6990   0.890   2.235   8.037
 2178SOL     OW 6991   1.017   1.901   8.201
 2178SOL    HW1 6992   0.945   1.906   8.132
 2178SOL    HW2 6993   0.993   1.832   8.270
 2179SOL     OW 6994   1.429   3.035   8.315
 2179SOL    HW1 6995   1.374   2.951   8.308
 2179SOL    HW2 6996   1.455   3.064   8.223
 2180SOL     OW 6997   1.466   2.452   8.440
 2180SOL    HW1 6998   1.436   2.357   8.447
 2180SOL    HW2 6999   1.539   2.468   8.506
 2181SOL     OW 7000   1.857   2.695   7.825
 2181SOL    HW1 7001   1.899   2.631   7.889
 2181SOL    HW2 7002   1.819   2.644   7.747
 2182SOL     OW 7003   0.488   3.247   7.622
 2182SOL    HW1 7004   0.401   3.232   7.669
 2182SOL    HW2 7005   0.471   3.273   7.527
 2183SOL     OW 7006   1.664   3.142   8.105
 2183SOL    HW1 7007   1.763   3.150   8.119
 2183SOL    HW2 7008   1.619   3.226   8.136
 2184SOL     OW 7009   1.390   2.437   7.526
 2184SOL    HW1 7010   1.336   2.416   7.607
 2184SOL    HW2 7011   1.481   2.396   7.535
 2185SOL     OW 7012   0.527   2.118   7.776
 2185SOL    HW1 7013   0.554   2.059   7.701
 2185SOL    HW2 7014   0.527   2.213   7.745
 2186SOL     OW 7015   1.754   3.085   9.036
 2186SOL    HW1 7016   1.845   3.046   9.023
 2186SOL    HW2 7017   1.762   3.181   9.060
 2187SOL     OW 7018   1.064   3.209   8.788
 2187SOL    HW1 7019   0.984   3.186   8.843
 2187SOL    HW2 7020   1.147   3.183   8.837
 2188SOL     OW 7021   1.592   3.491   9.073
 2188SOL    HW1 7022   1.619   3.525   8.983
 2188SOL    HW2 7023   1.671   3.453   9.119
 2189SOL     OW 7024   1.111   3.057   8.548
 2189SOL    HW1 7025   1.071   3.101   8.629
 2189SOL    HW2 7026   1.070   3.094   8.465
 2190SOL     OW 7027   1.638   2.961   8.527
 2190SOL    HW1 7028   1.643   3.042   8.586
 2190SOL    HW2 7029   1.552   2.963   8.476
 2191SOL     OW 7030   0.915   1.951   8.850
 2191SOL    HW1 7031   0.940   1.931   8.755
 2191SOL    HW2 7032   0.987   2.007   8.892
 2192SOL     OW 7033   0.980   2.978   9.167
 2192SOL    HW1 7034   0.881   2.984   9.177
 2192SOL    HW2 7035   1.003   2.898   9.111
 2193SOL     OW 7036   0.705   2.912   7.816
 2193SOL    HW1 7037   0.691   2.919   7.915
 2193SOL    HW2 7038   0.789   2.861   7.798
 2194SOL     OW 7039   0.410   2.675   8.699
 2194SOL    HW1 7040   0.496   2.687   8.749
 2194SOL    HW2 7041   0.368   2.588   8.726
 2195SOL     OW 7042   1.274   2.248   8.710
 2195SOL    HW1 7043   1.295   2.322   8.774
 2195SOL    HW2 7044   1.185   2.265   8.667
 2196SOL     OW 7045   0.064   3.426   8.779
 2196SOL    HW1 7046   0.018   3.508   8.745
 2196SOL    HW2 7047   0.162   3.445   8.788
 2197SOL     OW 7048   0.367   2.962   7.949
 2197SOL    HW1 7049   0.360   3.045   7.893
 2197SOL    HW2 7050   0.371   2.882   7.889
 2198SOL     OW 7051   0.566   2.399   8.313
 2198SOL    HW1 7052   0.578   2.465   8.239
 2198SOL    HW2 7053   0.612   2.433   8.396
 2199SOL     OW 7054   1.252   3.210   7.836
 2199SOL    HW1 7055   1.302   3.287   7.876
 2199SOL    HW2 7056   1.157   3.212   7.868
 2200SOL     OW 7057   1.272   3.307   8.590
 2200SOL    HW1 7058   1.319   3.320   8.677
 2200SOL    HW2 7059   1.206   3.233   8.599
 2201SOL     OW 7060   1.582   2.501   7.920
 2201SOL    HW1 7061   1.551   2.562   7.993
 2201SOL    HW2 7062   1.632   2.553   7.851
 2202SOL     OW 7063   0.354   3.372   8.777
 2202SOL    HW1 7064   0.333   3.328   8.690
 2202SOL    HW2 7065   0.451   3.398   8.780
 2203SOL     OW 7066   0.402   2.613   9.046
 2203SOL    HW1 7067   0.470   2.668   8.999
 2203SOL    HW2 7068   0.442   2.525   9.073
 2204SOL     OW 7069   1.587   2.641   9.118
 2204SOL    HW1 7070   1.495   2.679   9.113
 2204SOL    HW2 7071   1.647   2.688   9.053
 2205SOL     OW 7072   1.013   1.967   9.218
 2205SOL    HW1 7073   1.019   2.052   9.166
 2205SOL    HW2 7074   1.045   1.891   9.161
 2206SOL     OW 7075   0.504   1.912   9.188
 2206SOL    HW1 7076   0.462   1.855   9.118
 2206SOL    HW2 7077   0.438   1.981   9.220
 2207SOL     OW 7078   0.573   2.732   8.477
 2207SOL    HW1 7079   0.617   2.821   8.468
 2207SOL    HW2 7080   0.510   2.732   8.554
 2208SOL     OW 7081   1.360   2.724   8.493
 2208SOL    HW1 7082   1.285   2.724   8.427
 2208SOL    HW2 7083   1.397   2.632   8.502
 2209SOL     OW 7084   1.209   2.387   7.723
 2209SOL    HW1 7085   1.222   2.303   7.777
 2209SOL    HW2 7086   1.180   2.461   7.783
 2210SOL     OW 7087   0.307   2.075   8.679
 2210SOL    HW1 7088   0.284   2.112   8.769
 2210SOL    HW2 7089   0.277   1.980   8.673
 2211SOL     OW 7090   0.037   3.172   8.730
 2211SOL    HW1 7091   0.090   3.123   8.798
 2211SOL    HW2 7092   0.059   3.270   8.735
 2212SOL     OW 7093   0.732   2.496   8.512
 2212SOL    HW1 7094   0.791   2.470   8.436
 2212SOL    HW2 7095   0.704   2.592   8.501
 2213SOL     OW 7096   1.728   2.797   9.302
 2213SOL    HW1 7097   1.682   2.790   9.213
 2213SOL    HW2 7098   1.666   2.841   9.368
 2214SOL     OW 7099   0.307   1.925   8.066
 2214SOL    HW1 7100   0.296   2.019   8.099
 2214SOL    HW2 7101   0.302   1.862   8.143
 2215SOL     OW 7102   1.622   2.229   7.822
 2215SOL    HW1 7103   1.624   2.153   7.886
 2215SOL    HW2 7104   1.574   2.306   7.862
 2216SOL     OW 7105   1.023   2.628   8.414
 2216SOL    HW1 7106   1.038   2.649   8.510
 2216SOL    HW2 7107   0.993   2.533   8.405
 2217SOL     OW 7108   0.980   3.435   9.148
 2217SOL    HW1 7109   0.960   3.479   9.060
 2217SOL    HW2 7110   1.019   3.344   9.132
 2218SOL     OW 7111   1.859   3.380   9.053
 2218SOL    HW1 7112   1.873   3.407   8.958
 2218SOL    HW2 7113   1.942   3.402   9.106
 2219SOL     OW 7114   0.350   2.760   9.252
 2219SOL    HW1 7115   0.426   2.804   9.300
 2219SOL    HW2 7116   0.385   2.713   9.170
 2220SOL     OW 7117   1.540   2.136   7.573
 2220SOL    HW1 7118   1.479   2.061   7.596
 2220SOL    HW2 7119   1.562   2.188   7.656
 2221SOL     OW 7120   1.303   2.700   7.490
 2221SOL    HW1 7121   1.337   2.607   7.505
 2221SOL    HW2 7122   1.321   2.727   7.395
 2222SOL     OW 7123   1.068   3.195   8.297
 2222SOL    HW1 7124   1.075   3.111   8.242
 2222SOL    HW2 7125   1.130   3.264   8.261
 2223SOL     OW 7126   0.319   2.672   8.397
 2223SOL    HW1 7127   0.412   2.708   8.402
 2223SOL    HW2 7128   0.313   2.587   8.449
 2224SOL     OW 7129   0.339   2.371   8.454
 2224SOL    HW1 7130   0.287   2.288   8.437
 2224SOL    HW2 7131   0.416   2.376   8.390
 2225SOL     OW 7132   1.138   2.242   9.126
 2225SOL    HW1 7133   1.093   2.305   9.190
 2225SOL    HW2 7134   1.231   2.273   9.109
 2226SOL     OW 7135   1.160   2.069   8.925
 2226SOL    HW1 7136   1.160   2.133   9.002
 2226SOL    HW2 7137   1.188   2.117   8.842
 2227SOL     OW 7138   0.008   3.188   7.648
 2227SOL    HW1 7139  -0.085   3.209   7.617
 2227SOL    HW2 7140   0.018   3.089   7.661
 2228SOL     OW 7141   0.088   3.663   8.375
 2228SOL    HW1 7142   0.046   3.577   8.348
 2228SOL    HW2 7143   0.182   3.666   8.341
 2229SOL     OW 7144   0.504   3.430   8.358
 2229SOL    HW1 7145   0.570   3.504   8.367
 2229SOL    HW2 7146   0.548   3.351   8.316
 2230SOL     OW 7147   1.002   2.658   8.686
 2230SOL    HW1 7148   1.043   2.626   8.772
 2230SOL    HW2 7149   0.906   2.631   8.683
 2231SOL     OW 7150   0.040   2.406   8.562
 2231SOL    HW1 7151   0.125   2.373   8.521
 2231SOL    HW2 7152   0.053   2.421   8.660
 2232SOL     OW 7153   0.189   2.382   9.170
 2232SOL    HW1 7154   0.248   2.342   9.100
 2232SOL    HW2 7155   0.131   2.453   9.129
 2233SOL     OW 7156   1.369   2.812   9.108
 2233SOL    HW1 7157   1.408   2.901   9.128
 2233SOL    HW2 7158   1.379   2.792   9.011
 2234SOL     OW 7159   0.815   2.434   7.773
 2234SOL    HW1 7160   0.822   2.345   7.727
 2234SOL    HW2 7161   0.721   2.468   7.765
 2235SOL     OW 7162   1.657   2.466   8.654
 2235SOL    HW1 7163   1.619   2.397   8.716
 2235SOL    HW2 7164   1.739   2.430   8.610
 2236SOL     OW 7165   0.252   3.426   9.192
 2236SOL    HW1 7166   0.222   3.483   9.268
 2236SOL    HW2 7167   0.245   3.329   9.218
 2237SOL     OW 7168   0.671   2.326   8.717
 2237SOL    HW1 7169   0.637   2.237   8.687
 2237SOL    HW2 7170   0.697   2.380   8.637
 2238SOL     OW 7171   0.930   3.540   8.913
 2238SOL    HW1 7172   0.906   3.522   8.818
 2238SOL    HW2 7173   0.960   3.634   8.923
 2239SOL     OW 7174   0.473   2.362   7.639
 2239SOL    HW1 7175   0.534   2.442   7.643
 2239SOL    HW2 7176   0.378   2.393   7.646
 2240SOL     OW 7177   0.159   2.999   8.914
 2240SOL    HW1 7178   0.181   2.938   8.990
 2240SOL    HW2 7179   0.169   2.950   8.828
 2241SOL     OW 7180   1.347   2.921   8.682
 2241SOL    HW1 7181   1.371   2.858   8.608
 2241SOL    HW2 7182   1.257   2.961   8.664
 2242SOL     OW 7183   1.302   2.717   7.757
 2242SOL    HW1 7184   1.216   2.686   7.799
 2242SOL    HW2 7185   1.298   2.703   7.658
 2243SOL     OW 7186   1.759   3.609   8.602
 2243SOL    HW1 7187   1.820   3.639   8.529
 2243SOL    HW2 7188   1.721   3.520   8.580
 2244SOL     OW 7189   1.252   3.593   8.576
 2244SOL    HW1 7190   1.336   3.598   8.522
 2244SOL    HW2 7191   1.229   3.497   8.594
 2245SOL     OW 7192   0.083   3.120   8.470
 2245SOL    HW1 7193   0.078   3.119   8.570
 2245SOL    HW2 7194   0.000   3.079   8.432
 2246SOL     OW 7195   0.688   3.524   9.164
 2246SOL    HW1 7196   0.632   3.605   9.173
 2246SOL    HW2 7197   0.740   3.528   9.078
 2247SOL     OW 7198   1.726   1.997   7.971
 2247SOL    HW1 7199   1.799   1.980   7.904
 2247SOL    HW2 7200   1.695   1.910   8.009
 2248SOL     OW 7201   1.388   3.435   7.925
 2248SOL    HW1 7202   1.455   3.447   7.851
 2248SOL    HW2 7203   1.348   3.524   7.948
 2249SOL     OW 7204   0.130   3.656   9.299
 2249SOL    HW1 7205   0.089   3.582   9.352
 2249SOL    HW2 7206   0.194   3.707   9.357
 2250SOL     OW 7207   1.280   2.789   8.120
 2250SOL    HW1 7208   1.340   2.708   8.122
 2250SOL    HW2 7209   1.320   2.858   8.060
 2251SOL     OW 7210   0.830   3.135   8.870
 2251SOL    HW1 7211   0.825   3.168   8.965
 2251SOL    HW2 7212   0.744   3.154   8.824
 2252SOL     OW 7213   0.672   3.478   7.602
 2252SOL    HW1 7214   0.681   3.488   7.503
 2252SOL    HW2 7215   0.632   3.389   7.623
 2253SOL     OW 7216   1.650   3.582   8.842
 2253SOL    HW1 7217   1.703   3.592   8.758
 2253SOL    HW2 7218   1.623   3.672   8.876
 2254SOL     OW 7219   1.841   2.037   8.411
 2254SOL    HW1 7220   1.880   1.952   8.375
 2254SOL    HW2 7221   1.743   2.039   8.392
 2255SOL     OW 7222   0.263   2.188   8.168
 2255SOL    HW1 7223   0.184   2.239   8.134
 2255SOL    HW2 7224   0.254   2.173   8.266
 2256SOL     OW 7225   1.194   3.474   7.479
 2256SOL    HW1 7226   1.200   3.381   7.516
 2256SOL    HW2 7227   1.135   3.474   7.399
 2257SOL     OW 7228   0.822   2.864   8.820
 2257SOL    HW1 7229   0.862   2.863   8.728
 2257SOL    HW2 7230   0.832   2.956   8.860
 2258SOL     OW 7231   0.916   2.772   7.739
 2258SOL    HW1 7232   0.979   2.810   7.671
 2258SOL    HW2 7233   0.956   2.689   7.778
 2259SOL     OW 7234   1.504   3.469   7.492
 2259SOL    HW1 7235   1.412   3.506   7.499
 2259SOL    HW2 7236   1.542   3.489   7.402
 2260SOL     OW 7237   0.372   3.150   8.938
 2260SOL    HW1 7238   0.359   3.243   8.904
 2260SOL    HW2 7239   0.288   3.098   8.925
 2261SOL     OW 7240   1.614   3.154   8.737
 2261SOL    HW1 7241   1.674   3.157   8.817
 2261SOL    HW2 7242   1.539   3.218   8.750
 2262SOL     OW 7243   1.039   2.960   8.144
 2262SOL    HW1 7244   0.969   2.913   8.198
 2262SOL    HW2 7245   1.098   2.892   8.101
 2263SOL     OW 7246   1.014   2.098   8.419
 2263SOL    HW1 7247   1.006   2.062   8.326
 2263SOL    HW2 7248   1.012   2.022   8.484
 2264SOL     OW 7249   0.590   3.349   7.939
 2264SOL    HW1 7250   0.632   3.291   7.869
 2264SOL    HW2 7251   0.546   3.428   7.895
 2265SOL     OW 7252   1.709   2.247   8.829
 2265SOL    HW1 7253   1.782   2.316   8.833
 2265SOL    HW2 7254   1.737   2.172   8.770
 2266SOL     OW 7255   0.255   3.210   7.738
 2266SOL    HW1 7256   0.159   3.211   7.711
 2266SOL    HW2 7257   0.267   3.263   7.822
 2267SOL     OW 7258   0.105   2.875   9.174
 2267SOL    HW1 7259   0.028   2.842   9.228
 2267SOL    HW2 7260   0.190   2.845   9.216
 2268SOL     OW 7261   0.672   2.065   8.937
 2268SOL    HW1 7262   0.762   2.049   8.897
 2268SOL    HW2 7263   0.680   2.070   9.036
 2269SOL     OW 7264   0.075   2.207   7.481
 2269SOL    HW1 7265  -0.017   2.179   7.452
 2269SOL    HW2 7266   0.106   2.284   7.425
 2270SOL     OW 7267   1.440   2.718   8.846
 2270SOL    HW1 7268   1.383   2.770   8.783
 2270SOL    HW2 7269   1.536   2.730   8.822
 2271SOL     OW 7270   0.072   2.028   7.766
 2271SOL    HW1 7271   0.055   2.111   7.712
 2271SOL    HW2 7272   0.162   1.991   7.744
 2272SOL     OW 7273   1.183   3.197   7.567
 2272SOL    HW1 7274   1.084   3.186   7.569
 2272SOL    HW2 7275   1.217   3.212   7.660
 2273SOL     OW 7276   0.613   2.704   8.879
 2273SOL    HW1 7277   0.669   2.785   8.862
 2273SOL    HW2 7278   0.672   2.624   8.882
 2274SOL     OW 7279   1.493   3.629   8.407
 2274SOL    HW1 7280   1.526   3.693   8.338
 2274SOL    HW2 7281   1.559   3.623   8.482
 2275SOL     OW 7282   0.716   2.427   9.156
 2275SOL    HW1 7283   0.735   2.492   9.230
 2275SOL    HW2 7284   0.776   2.347   9.165
 2276SOL     OW 7285   1.450   3.082   9.081
 2276SOL    HW1 7286   1.441   3.072   9.180
 2276SOL    HW2 7287   1.546   3.075   9.055
 2277SOL     OW 7288   0.390   3.603   9.008
 2277SOL    HW1 7289   0.299   3.644   9.006
 2277SOL    HW2 7290   0.383   3.509   9.040
 2278SOL     OW 7291   1.674   2.745   8.702
 2278SOL    HW1 7292   1.647   2.656   8.665
 2278SOL    HW2 7293   1.675   2.813   8.629
 2279SOL     OW 7294   1.225   2.187   7.897
 2279SOL    HW1 7295   1.290   2.113   7.886
 2279SOL    HW2 7296   1.245   2.237   7.981
 2280SOL     OW 7297   0.594   2.607   8.100
 2280SOL    HW1 7298   0.644   2.692   8.081
 2280SOL    HW2 7299   0.506   2.609   8.052
 2281SOL     OW 7300   1.777   2.204   9.090
 2281SOL    HW1 7301   1.760   2.235   8.996
 2281SOL    HW2 7302   1.693   2.167   9.128
 2282SOL     OW 7303   1.730   2.796   8.965
 2282SOL    HW1 7304   1.768   2.887   8.980
 2282SOL    HW2 7305   1.722   2.779   8.866
 2283SOL     OW 7306   0.859   3.236   7.464
 2283SOL    HW1 7307   0.813   3.251   7.552
 2283SOL    HW2 7308   0.903   3.321   7.434
 2284SOL     OW 7309   0.661   3.652   8.401
 2284SOL    HW1 7310   0.615   3.740   8.388
 2284SOL    HW2 7311   0.760   3.664   8.394
 2285SOL     OW 7312   0.859   2.818   8.309
 2285SOL    HW1 7313   0.913   2.749   8.357
 2285SOL    HW2 7314   0.827   2.887   8.375
 2286SOL     OW 7315   1.083   2.846   7.535
 2286SOL    HW1 7316   1.060   2.899   7.453
 2286SOL    HW2 7317   1.164   2.790   7.516
 2287SOL     OW 7318   1.861   3.431   8.299
 2287SOL    HW1 7319   1.790   3.419   8.229
 2287SOL    HW2 7320   1.862   3.352   8.359
 2288SOL     OW 7321   0.221   3.176   9.292
 2288SOL    HW1 7322   0.156   3.103   9.271
 2288SOL    HW2 7323   0.225   3.190   9.390
 2289SOL     OW 7324   0.079   3.102   8.101
 2289SOL    HW1 7325   0.078   3.055   8.189
 2289SOL    HW2 7326   0.161   3.074   8.050
 2290SOL     OW 7327   0.672   3.253   9.072
 2290SOL    HW1 7328   0.594   3.203   9.110
 2290SOL    HW2 7329   0.669   3.348   9.103
 2291SOL     OW 7330   1.824   2.054   8.675
 2291SOL    HW1 7331   1.820   1.964   8.719
 2291SOL    HW2 7332   1.827   2.043   8.576
 2292SOL     OW 7333   0.428   2.286   7.968
 2292SOL    HW1 7334   0.458   2.214   7.906
 2292SOL    HW2 7335   0.389   2.246   8.051
 2293SOL     OW 7336   1.705   3.349   8.552
 2293SOL    HW1 7337   1.612   3.324   8.525
 2293SOL    HW2 7338   1.731   3.299   8.634
 2294SOL     OW 7339   0.317   2.409   8.728
 2294SOL    HW1 7340   0.355   2.350   8.800
 2294SOL    HW2 7341   0.357   2.383   8.640
 2295SOL     OW 7342   0.812   3.448   8.135
 2295SOL    HW1 7343   0.844   3.458   8.041
 2295SOL    HW2 7344   0.733   3.386   8.137
 2296SOL     OW 7345   1.424   2.076   8.560
 2296SOL    HW1 7346   1.476   2.011   8.615
 2296SOL    HW2 7347   1.375   2.139   8.621
 2297SOL     OW 7348   1.001   1.896   8.602
 2297SOL    HW1 7349   0.938   1.824   8.571
 2297SOL    HW2 7350   1.094   1.860   8.602
 2298SOL     OW 7351   0.770   3.192   7.749
 2298SOL    HW1 7352   0.724   3.105   7.766
 2298SOL    HW2 7353   0.861   3.189   7.790
 2299SOL     OW 7354   0.618   3.429   8.732
 2299SOL    HW1 7355   0.613   3.511   8.789
 2299SOL    HW2 7356   0.707   3.426   8.687
 2300SOL     OW 7357   1.352   1.914   7.616
 2300SOL    HW1 7358   1.387   1.873   7.532
 2300SOL    HW2 7359   1.262   1.876   7.636
 2301SOL     OW 7360   1.300   2.315   8.139
 2301SOL    HW1 7361   1.241   2.395   8.143
 2301SOL    HW2 7362   1.315   2.280   8.232
 2302SOL     OW 7363   1.593   2.083   8.330
 2302SOL    HW1 7364   1.509   2.082   8.384
 2302SOL    HW2 7365   1.595   2.166   8.274
 2303SOL     OW 7366   0.039   2.939   7.748
 2303SOL    HW1 7367   0.138   2.928   7.739
 2303SOL    HW2 7368  -0.001   2.853   7.780
 2304SOL     OW 7369   0.875   3.508   7.785
 2304SOL    HW1 7370   0.798   3.473   7.731
 2304SOL    HW2 7371   0.843   3.579   7.847
 2305SOL     OW 7372   0.230   2.490   9.423
 2305SOL    HW1 7373   0.137   2.488   9.460
 2305SOL    HW2 7374   0.231   2.451   9.331
 2306SOL     OW 7375   0.225   2.137  10.306
 2306SOL    HW1 7376   0.260   2.120  10.398
 2306SOL    HW2 7377   0.137   2.092  10.294
 2307SOL     OW 7378   0.019   2.230   9.957
 2307SOL    HW1 7379  -0.063   2.273   9.996
 2307SOL    HW2 7380  -0.009   2.157   9.894
 2308SOL     OW 7381   0.569   3.137  10.475
 2308SOL    HW1 7382   0.476   3.130  10.438
 2308SOL    HW2 7383   0.580   3.226  10.519
 2309SOL     OW 7384   1.555   3.373  10.013
 2309SOL    HW1 7385   1.498   3.357  10.094
 2309SOL    HW2 7386   1.496   3.383   9.933
 2310SOL     OW 7387   1.135   2.565  10.027
 2310SOL    HW1 7388   1.192   2.643  10.002
 2310SOL    HW2 7389   1.075   2.591  10.103
 2311SOL     OW 7390   1.755   2.469   9.541
 2311SOL    HW1 7391   1.743   2.456   9.442
 2311SOL    HW2 7392   1.725   2.388   9.590
 2312SOL     OW 7393   0.768   3.006  10.333
 2312SOL    HW1 7394   0.690   3.023  10.393
 2312SOL    HW2 7395   0.802   3.093  10.297
 2313SOL     OW 7396   0.850   2.660  11.133
 2313SOL    HW1 7397   0.846   2.736  11.198
 2313SOL    HW2 7398   0.872   2.696  11.042
 2314SOL     OW 7399   0.685   2.874   9.975
 2314SOL    HW1 7400   0.754   2.858  10.045
 2314SOL    HW2 7401   0.612   2.931  10.013
 2315SOL     OW 7402   0.335   3.297  10.371
 2315SOL    HW1 7403   0.257   3.266  10.318
 2315SOL    HW2 7404   0.393   3.355  10.314
 2316SOL     OW 7405   1.460   3.367  10.649
 2316SOL    HW1 7406   1.484   3.461  10.675
 2316SOL    HW2 7407   1.444   3.313  10.731
 2317SOL     OW 7408   0.438   2.254  10.809
 2317SOL    HW1 7409   0.520   2.198  10.818
 2317SOL    HW2 7410   0.357   2.196  10.813
 2318SOL     OW 7411   1.603   2.309  10.047
 2318SOL    HW1 7412   1.529   2.355   9.997
 2318SOL    HW2 7413   1.654   2.377  10.100
 2319SOL     OW 7414   0.231   3.575   9.793
 2319SOL    HW1 7415   0.265   3.652   9.847
 2319SOL    HW2 7416   0.275   3.575   9.703
 2320SOL     OW 7417   0.230   3.296   9.848
 2320SOL    HW1 7418   0.204   3.392   9.848
 2320SOL    HW2 7419   0.159   3.242   9.893
 2321SOL     OW 7420   0.240   2.953  10.196
 2321SOL    HW1 7421   0.254   2.869  10.248
 2321SOL    HW2 7422   0.185   3.017  10.251
 2322SOL     OW 7423   0.620   3.648  10.749
 2322SOL    HW1 7424   0.528   3.631  10.784
 2322SOL    HW2 7425   0.648   3.740  10.775
 2323SOL     OW 7426   0.606   2.826   9.433
 2323SOL    HW1 7427   0.613   2.910   9.379
 2323SOL    HW2 7428   0.652   2.839   9.521
 2324SOL     OW 7429   1.594   1.976  10.790
 2324SOL    HW1 7430   1.576   2.043  10.718
 2324SOL    HW2 7431   1.591   2.022  10.879
 2325SOL     OW 7432   0.122   2.505   9.873
 2325SOL    HW1 7433   0.077   2.417   9.890
 2325SOL    HW2 7434   0.121   2.559   9.957
 2326SOL     OW 7435   1.842   3.629   9.669
 2326SOL    HW1 7436   1.896   3.600   9.749
 2326SOL    HW2 7437   1.872   3.719   9.640
 2327SOL     OW 7438   0.027   3.458   9.427
 2327SOL    HW1 7439   0.008   3.362   9.448
 2327SOL    HW2 7440  -0.006   3.516   9.502
 2328SOL     OW 7441   1.689   2.784   9.922
 2328SOL    HW1 7442   1.784   2.755   9.930
 2328SOL    HW2 7443   1.681   2.849   9.847
 2329SOL     OW 7444   1.641   2.970   9.742
 2329SOL    HW1 7445   1.727   2.972   9.690
 2329SOL    HW2 7446   1.655   3.017   9.830
 2330SOL     OW 7447   0.113   2.599  10.907
 2330SOL    HW1 7448   0.201   2.586  10.952
 2330SOL    HW2 7449   0.100   2.696  10.885
 2331SOL     OW 7450   0.613   3.227  10.036
 2331SOL    HW1 7451   0.564   3.140  10.045
 2331SOL    HW2 7452   0.590   3.270   9.949
 2332SOL     OW 7453   1.293   3.090  10.733
 2332SOL    HW1 7454   1.330   3.017  10.675
 2332SOL    HW2 7455   1.345   3.095  10.818
 2333SOL     OW 7456   0.809   1.866   9.812
 2333SOL    HW1 7457   0.849   1.957   9.803
 2333SOL    HW2 7458   0.709   1.874   9.818
 2334SOL     OW 7459   0.197   2.838  10.574
 2334SOL    HW1 7460   0.286   2.793  10.560
 2334SOL    HW2 7461   0.124   2.773  10.555
 2335SOL     OW 7462   1.525   2.861   9.500
 2335SOL    HW1 7463   1.462   2.785   9.513
 2335SOL    HW2 7464   1.573   2.879   9.586
 2336SOL     OW 7465   1.187   3.654  10.926
 2336SOL    HW1 7466   1.211   3.714  10.850
 2336SOL    HW2 7467   1.194   3.559  10.896
 2337SOL     OW 7468   0.317   2.113  11.111
 2337SOL    HW1 7469   0.388   2.184  11.117
 2337SOL    HW2 7470   0.229   2.152  11.139
 2338SOL     OW 7471   1.466   3.279  10.263
 2338SOL    HW1 7472   1.407   3.285  10.343
 2338SOL    HW2 7473   1.451   3.191  10.217
 2339SOL     OW 7474   1.667   3.576   9.882
 2339SOL    HW1 7475   1.626   3.553   9.794
 2339SOL    HW2 7476   1.649   3.502   9.947
 2340SOL     OW 7477   0.598   2.591   9.580
 2340SOL    HW1 7478   0.622   2.660   9.512
 2340SOL    HW2 7479   0.520   2.624   9.634
 2341SOL     OW 7480   1.281   2.207  10.254
 2341SOL    HW1 7481   1.195   2.157  10.241
 2341SOL    HW2 7482   1.343   2.153  10.310
 2342SOL     OW 7483   1.576   3.524   9.617
 2342SOL    HW1 7484   1.665   3.570   9.620
 2342SOL    HW2 7485   1.555   3.500   9.522
 2343SOL     OW 7486   0.807   2.467  10.775
 2343SOL    HW1 7487   0.760   2.464  10.864
 2343SOL    HW2 7488   0.756   2.412  10.709
 2344SOL     OW 7489   0.973   2.752  10.882
 2344SOL    HW1 7490   1.019   2.668  10.853
 2344SOL    HW2 7491   0.917   2.786  10.807
 2345SOL     OW 7492   0.991   2.272  10.552
 2345SOL    HW1 7493   0.914   2.306  10.606
 2345SOL    HW2 7494   0.957   2.221  10.473
 2346SOL     OW 7495   1.041   2.563   9.739
 2346SOL    HW1 7496   1.067   2.559   9.835
 2346SOL    HW2 7497   0.956   2.512   9.725
 2347SOL     OW 7498   0.076   2.673  10.099
 2347SOL    HW1 7499   0.175   2.661  10.108
 2347SOL    HW2 7500   0.052   2.768  10.120
 2348SOL     OW 7501   0.130   3.683  10.881
 2348SOL    HW1 7502   0.120   3.668  10.980
 2348SOL    HW2 7503   0.044   3.719  10.845
 2349SOL     OW 7504   0.865   2.210   9.505
 2349SOL    HW1 7505   0.924   2.273   9.456
 2349SOL    HW2 7506   0.884   2.116   9.476
 2350SOL     OW 7507   1.362   3.006   9.855
 2350SOL    HW1 7508   1.445   2.977   9.807
 2350SOL    HW2 7509   1.313   3.073   9.799
 2351SOL     OW 7510   0.550   2.058  10.195
 2351SOL    HW1 7511   0.545   2.053  10.295
 2351SOL    HW2 7512   0.552   2.154  10.166
 2352SOL     OW 7513   1.008   3.318   9.787
 2352SOL    HW1 7514   0.962   3.390   9.735
 2352SOL    HW2 7515   1.004   3.338   9.885
 2353SOL     OW 7516   0.351   3.663  10.163
 2353SOL    HW1 7517   0.401   3.577  10.169
 2353SOL    HW2 7518   0.416   3.740  10.160
 2354SOL     OW 7519   1.795   2.928  10.183
 2354SOL    HW1 7520   1.733   2.913  10.107
 2354SOL    HW2 7521   1.743   2.939  10.268
 2355SOL     OW 7522   1.227   3.412  10.816
 2355SOL    HW1 7523   1.233   3.335  10.880
 2355SOL    HW2 7524   1.175   3.386  10.736
 2356SOL     OW 7525   0.321   2.805   9.552
 2356SOL    HW1 7526   0.403   2.844   9.510
 2356SOL    HW2 7527   0.294   2.723   9.503
 2357SOL     OW 7528   1.458   2.597  10.038
 2357SOL    HW1 7529   1.453   2.532  10.113
 2357SOL    HW2 7530   1.538   2.656  10.051
 2358SOL     OW 7531   0.461   3.128  11.037
 2358SOL    HW1 7532   0.411   3.129  10.951
 2358SOL    HW2 7533   0.398   3.110  11.113
 2359SOL     OW 7534   1.111   3.638   9.547
 2359SOL    HW1 7535   1.051   3.576   9.597
 2359SOL    HW2 7536   1.142   3.594   9.462
 2360SOL     OW 7537   0.202   2.147  10.808
 2360SOL    HW1 7538   0.122   2.207  10.795
 2360SOL    HW2 7539   0.192   2.098  10.894
 2361SOL     OW 7540   1.632   3.239   9.391
 2361SOL    HW1 7541   1.600   3.333   9.381
 2361SOL    HW2 7542   1.556   3.176   9.379
 2362SOL     OW 7543   0.464   3.605   9.633
 2362SOL    HW1 7544   0.497   3.644   9.719
 2362SOL    HW2 7545   0.540   3.598   9.568
 2363SOL     OW 7546   1.400   1.969   9.736
 2363SOL    HW1 7547   1.376   1.932   9.646
 2363SOL    HW2 7548   1.499   1.985   9.740
 2364SOL     OW 7549   0.249   3.647  10.551
 2364SOL    HW1 7550   0.306   3.582  10.601
 2364SOL    HW2 7551   0.233   3.614  10.458
 2365SOL     OW 7552   0.940   3.560  10.214
 2365SOL    HW1 7553   1.020   3.503  10.235
 2365SOL    HW2 7554   0.891   3.520  10.137
 2366SOL     OW 7555   0.382   2.562   9.790
 2366SOL    HW1 7556   0.427   2.472   9.787
 2366SOL    HW2 7557   0.288   2.551   9.823
 2367SOL     OW 7558   0.614   1.984   9.427
 2367SOL    HW1 7559   0.712   1.962   9.434
 2367SOL    HW2 7560   0.583   1.967   9.334
 2368SOL     OW 7561   0.781   2.126  11.059
 2368SOL    HW1 7562   0.848   2.065  11.102
 2368SOL    HW2 7563   0.708   2.145  11.124
 2369SOL     OW 7564   0.888   3.376  10.505
 2369SOL    HW1 7565   0.865   3.351  10.411
 2369SOL    HW2 7566   0.949   3.307  10.544
 2370SOL     OW 7567   1.351   2.452  10.743
 2370SOL    HW1 7568   1.379   2.409  10.828
 2370SOL    HW2 7569   1.376   2.548  10.744
 2371SOL     OW 7570   0.803   3.264  10.234
 2371SOL    HW1 7571   0.893   3.278  10.192
 2371SOL    HW2 7572   0.732   3.266  10.163
 2372SOL     OW 7573   0.922   2.365  10.209
 2372SOL    HW1 7574   0.897   2.356  10.113
 2372SOL    HW2 7575   0.970   2.283  10.240
 2373SOL     OW 7576   0.539   1.926   9.822
 2373SOL    HW1 7577   0.458   1.927   9.880
 2373SOL    HW2 7578   0.542   2.009   9.767
 2374SOL     OW 7579   1.434   3.050   9.351
 2374SOL    HW1 7580   1.466   2.974   9.408
 2374SOL    HW2 7581   1.342   3.077   9.381
 2375SOL     OW 7582   0.297   1.897   9.481
 2375SOL    HW1 7583   0.346   1.981   9.460
 2375SOL    HW2 7584   0.359   1.832   9.526
 2376SOL     OW 7585   0.935   2.098   9.790
 2376SOL    HW1 7586   0.887   2.139   9.712
 2376SOL    HW2 7587   1.034   2.096   9.771
 2377SOL     OW 7588   1.076   2.545  10.774
 2377SOL    HW1 7589   0.996   2.484  10.777
 2377SOL    HW2 7590   1.157   2.492  10.750
 2378SOL     OW 7591   1.227   3.432  10.103
 2378SOL    HW1 7592   1.248   3.506  10.038
 2378SOL    HW2 7593   1.295   3.432  10.176
 2379SOL     OW 7594   0.459   3.014  10.051
 2379SOL    HW1 7595   0.388   2.987  10.116
 2379SOL    HW2 7596   0.433   2.986   9.958
 2380SOL     OW 7597   1.271   3.659   9.901
 2380SOL    HW1 7598   1.315   3.723   9.837
 2380SOL    HW2 7599   1.221   3.711   9.971
 2381SOL     OW 7600   1.032   2.411   9.326
 2381SOL    HW1 7601   0.991   2.493   9.287
 2381SOL    HW2 7602   1.096   2.437   9.399
 2382SOL     OW 7603   0.078   2.418  10.696
 2382SOL    HW1 7604   0.170   2.417  10.655
 2382SOL    HW2 7605   0.072   2.492  10.763
 2383SOL     OW 7606   0.561   2.084  10.457
 2383SOL    HW1 7607   0.599   2.000  10.494
 2383SOL    HW2 7608   0.473   2.103  10.501
 2384SOL     OW 7609   0.866   2.316   9.952
 2384SOL    HW1 7610   0.834   2.388   9.890
 2384SOL    HW2 7611   0.890   2.235   9.899
 2385SOL     OW 7612   1.017   1.901  10.063
 2385SOL    HW1 7613   0.945   1.906   9.994
 2385SOL    HW2 7614   0.993   1.832  10.132
 2386SOL     OW 7615   1.429   3.035  10.177
 2386SOL    HW1 7616   1.374   2.951  10.170
 2386SOL    HW2 7617   1.455   3.064  10.085
 2387SOL     OW 7618   1.466   2.452  10.302
 2387SOL    HW1 7619   1.436   2.357  10.309
 2387SOL    HW2 7620   1.539   2.468  10.368
 2388SOL     OW 7621   1.857   2.695   9.687
 2388SOL    HW1 7622   1.899   2.631   9.751
 2388SOL    HW2 7623   1.819   2.644   9.609
 2389SOL     OW 7624   0.488   3.247   9.484
 2389SOL    HW1 7625   0.401   3.232   9.531
 2389SOL    HW2 7626   0.471   3.273   9.389
 2390SOL     OW 7627   1.664   3.142   9.967
 2390SOL    HW1 7628   1.763   3.150   9.981
 2390SOL    HW2 7629   1.619   3.226   9.998
 2391SOL     OW 7630   1.390   2.437   9.388
 2391SOL    HW1 7631   1.336   2.416   9.469
 2391SOL    HW2 7632   1.481   2.396   9.397
 2392SOL     OW 7633   0.527   2.118   9.638
 2392SOL    HW1 7634   0.554   2.059   9.563
 2392SOL    HW2 7635   0.527   2.213   9.607
 2393SOL     OW 7636   1.754   3.085  10.898
 2393SOL    HW1 7637   1.845   3.046  10.885
 2393SOL    HW2 7638   1.762   3.181  10.922
 2394SOL     OW 7639   1.064   3.209  10.650
 2394SOL    HW1 7640   0.984   3.186  10.705
 2394SOL    HW2 7641   1.147   3.183  10.699
 2395SOL     OW 7642   1.111   3.057  10.410
 2395SOL    HW1 7643   1.071   3.101  10.491
 2395SOL    HW2 7644   1.070   3.094  10.327
 2396SOL     OW 7645   1.638   2.961  10.389
 2396SOL    HW1 7646   1.643   3.042  10.448
 2396SOL    HW2 7647   1.552   2.963  10.338
 2397SOL     OW 7648   0.915   1.951  10.712
 2397SOL    HW1 7649   0.940   1.931  10.617
 2397SOL    HW2 7650   0.987   2.007  10.754
 2398SOL     OW 7651   0.705   2.912   9.678
 2398SOL    HW1 7652   0.691   2.919   9.777
 2398SOL    HW2 7653   0.789   2.861   9.660
 2399SOL     OW 7654   0.410   2.675  10.561
 2399SOL    HW1 7655   0.496   2.687  10.611
 2399SOL    HW2 7656   0.368   2.588  10.588
 2400SOL     OW 7657   1.274   2.248  10.572
 2400SOL    HW1 7658   1.295   2.322  10.636
 2400SOL    HW2 7659   1.185   2.265  10.529
 2401SOL     OW 7660   0.064   3.426  10.641
 2401SOL    HW1 7661   0.018   3.508  10.607
 2401SOL    HW2 7662   0.162   3.445  10.650
 2402SOL     OW 7663   0.367   2.962   9.811
 2402SOL    HW1 7664   0.360   3.045   9.755
 2402SOL    HW2 7665   0.371   2.882   9.751
 2403SOL     OW 7666   0.566   2.399  10.175
 2403SOL    HW1 7667   0.578   2.465  10.101
 2403SOL    HW2 7668   0.612   2.433  10.258
 2404SOL     OW 7669   1.252   3.210   9.698
 2404SOL    HW1 7670   1.302   3.287   9.738
 2404SOL    HW2 7671   1.157   3.212   9.730
 2405SOL     OW 7672   1.272   3.307  10.452
 2405SOL    HW1 7673   1.319   3.320  10.539
 2405SOL    HW2 7674   1.206   3.233  10.461
 2406SOL     OW 7675   1.582   2.501   9.782
 2406SOL    HW1 7676   1.551   2.562   9.855
 2406SOL    HW2 7677   1.632   2.553   9.713
 2407SOL     OW 7678   0.354   3.372  10.639
 2407SOL    HW1 7679   0.333   3.328  10.552
 2407SOL    HW2 7680   0.451   3.398  10.642
 2408SOL     OW 7681   0.402   2.613  10.908
 2408SOL    HW1 7682   0.470   2.668  10.861
 2408SOL    HW2 7683   0.442   2.525  10.935
 2409SOL     OW 7684   1.587   2.641  10.980
 2409SOL    HW1 7685   1.495   2.679  10.975
 2409SOL    HW2 7686   1.647   2.688  10.915
 2410SOL     OW 7687   0.573   2.732  10.339
 2410SOL    HW1 7688   0.617   2.821  10.330
 2410SOL    HW2 7689   0.510   2.732  10.416
 2411SOL     OW 7690   1.360   2.724  10.355
 2411SOL    HW1 7691   1.285   2.724  10.289
 2411SOL    HW2 7692   1.397   2.632  10.364
 2412SOL     OW 7693   1.209   2.387   9.585
 2412SOL    HW1 7694   1.222   2.303   9.639
 2412SOL    HW2 7695   1.180   2.461   9.645
 2413SOL     OW 7696   0.307   2.075  10.541
 2413SOL    HW1 7697   0.284   2.112  10.631
 2413SOL    HW2 7698   0.277   1.980  10.535
 2414SOL     OW 7699   0.037   3.172  10.592
 2414SOL    HW1 7700   0.090   3.123  10.660
 2414SOL    HW2 7701   0.059   3.270  10.597
 2415SOL     OW 7702   0.732   2.496  10.374
 2415SOL    HW1 7703   0.791   2.470  10.298
 2415SOL    HW2 7704   0.704   2.592  10.363
 2416SOL     OW 7705   0.307   1.925   9.928
 2416SOL    HW1 7706   0.296   2.019   9.961
 2416SOL    HW2 7707   0.302   1.862  10.005
 2417SOL     OW 7708   1.622   2.229   9.684
 2417SOL    HW1 7709   1.624   2.153   9.748
 2417SOL    HW2 7710   1.574   2.306   9.724
 2418SOL     OW 7711   1.023   2.628  10.276
 2418SOL    HW1 7712   1.038   2.649  10.372
 2418SOL    HW2 7713   0.993   2.533  10.267
 2419SOL     OW 7714   0.980   3.435  11.010
 2419SOL    HW1 7715   0.960   3.479  10.922
 2419SOL    HW2 7716   1.019   3.344  10.994
 2420SOL     OW 7717   1.859   3.380  10.915
 2420SOL    HW1 7718   1.873   3.407  10.820
 2420SOL    HW2 7719   1.942   3.402  10.968
 2421SOL     OW 7720   0.350   2.760  11.114
 2421SOL    HW1 7721   0.426   2.804  11.162
 2421SOL    HW2 7722   0.385   2.713  11.032
 2422SOL     OW 7723   1.540   2.136   9.435
 2422SOL    HW1 7724   1.479   2.061   9.458
 2422SOL    HW2 7725   1.562   2.188   9.518
 2423SOL     OW 7726   1.303   2.700   9.352
 2423SOL    HW1 7727   1.337   2.607   9.367
 2423SOL    HW2 7728   1.321   2.727   9.257
 2424SOL     OW 7729   1.068   3.195  10.159
 2424SOL    HW1 7730   1.075   3.111  10.104
 2424SOL    HW2 7731   1.130   3.264  10.123
 2425SOL     OW 7732   0.319   2.672  10.259
 2425SOL    HW1 7733   0.412   2.708  10.264
 2425SOL    HW2 7734   0.313   2.587  10.311
 2426SOL     OW 7735   0.339   2.371  10.316
 2426SOL    HW1 7736   0.287   2.288  10.299
 2426SOL    HW2 7737   0.416   2.376  10.252
 2427SOL     OW 7738   1.160   2.069  10.787
 2427SOL    HW1 7739   1.160   2.133  10.864
 2427SOL    HW2 7740   1.188   2.117  10.704
 2428SOL     OW 7741   0.008   3.188   9.510
 2428SOL    HW1 7742  -0.085   3.209   9.479
 2428SOL    HW2 7743   0.018   3.089   9.523
 2429SOL     OW 7744   0.088   3.663  10.237
 2429SOL    HW1 7745   0.046   3.577  10.210
 2429SOL    HW2 7746   0.182   3.666  10.203
 2430SOL     OW 7747   0.504   3.430  10.220
 2430SOL    HW1 7748   0.570   3.504  10.229
 2430SOL    HW2 7749   0.548   3.351  10.178
 2431SOL     OW 7750   1.002   2.658  10.548
 2431SOL    HW1 7751   1.043   2.626  10.634
 2431SOL    HW2 7752   0.906   2.631  10.545
 2432SOL     OW 7753   0.040   2.406  10.424
 2432SOL    HW1 7754   0.125   2.373  10.383
 2432SOL    HW2 7755   0.053   2.421  10.522
 2433SOL     OW 7756   0.815   2.434   9.635
 2433SOL    HW1 7757   0.822   2.345   9.589
 2433SOL    HW2 7758   0.721   2.468   9.627
 2434SOL     OW 7759   1.657   2.466  10.516
 2434SOL    HW1 7760   1.619   2.397  10.578
 2434SOL    HW2 7761   1.739   2.430  10.472
 2435SOL     OW 7762   0.252   3.426  11.054
 2435SOL    HW1 7763   0.222   3.483  11.130
 2435SOL    HW2 7764   0.245   3.329  11.080
 2436SOL     OW 7765   0.671   2.326  10.579
 2436SOL    HW1 7766   0.637   2.237  10.549
 2436SOL    HW2 7767   0.697   2.380  10.499
 2437SOL     OW 7768   0.930   3.540  10.775
 2437SOL    HW1 7769   0.906   3.522  10.680
 2437SOL    HW2 7770   0.960   3.634  10.785
 2438SOL     OW 7771   0.473   2.362   9.501
 2438SOL    HW1 7772   0.534   2.442   9.505
 2438SOL    HW2 7773   0.378   2.393   9.508
 2439SOL     OW 7774   0.159   2.999  10.776
 2439SOL    HW1 7775   0.181   2.938  10.852
 2439SOL    HW2 7776   0.169   2.950  10.690
 2440SOL     OW 7777   1.347   2.921  10.544
 2440SOL    HW1 7778   1.371   2.858  10.470
 2440SOL    HW2 7779   1.257   2.961  10.526
 2441SOL     OW 7780   1.302   2.717   9.619
 2441SOL    HW1 7781   1.216   2.686   9.661
 2441SOL    HW2 7782   1.298   2.703   9.520
 2442SOL     OW 7783   1.759   3.609  10.464
 2442SOL    HW1 7784   1.820   3.639  10.391
 2442SOL    HW2 7785   1.721   3.520  10.442
 2443SOL     OW 7786   1.252   3.593  10.438
 2443SOL    HW1 7787   1.336   3.598  10.384
 2443SOL    HW2 7788   1.229   3.497  10.456
 2444SOL     OW 7789   0.083   3.120  10.332
 2444SOL    HW1 7790   0.078   3.119  10.432
 2444SOL    HW2 7791   0.000   3.079  10.294
 2445SOL     OW 7792   1.726   1.997   9.833
 2445SOL    HW1 7793   1.799   1.980   9.766
 2445SOL    HW2 7794   1.695   1.910   9.871
 2446SOL     OW 7795   1.388   3.435   9.787
 2446SOL    HW1 7796   1.455   3.447   9.713
 2446SOL    HW2 7797   1.348   3.524   9.810
 2447SOL     OW 7798   1.280   2.789   9.982
 2447SOL    HW1 7799   1.340   2.708   9.984
 2447SOL    HW2 7800   1.320   2.858   9.922
 2448SOL     OW 7801   0.830   3.135  10.732
 2448SOL    HW1 7802   0.825   3.168  10.827
 2448SOL    HW2 7803   0.744   3.154  10.686
 2449SOL     OW 7804   0.672   3.478   9.464
 2449SOL    HW1 7805   0.681   3.488   9.365
 2449SOL    HW2 7806   0.632   3.389   9.485
 2450SOL     OW 7807   1.650   3.582  10.704
 2450SOL    HW1 7808   1.703   3.592  10.620
 2450SOL    HW2 7809   1.623   3.672  10.738
 2451SOL     OW 7810   1.841   2.037  10.273
 2451SOL    HW1 7811   1.880   1.952  10.237
 2451SOL    HW2 7812   1.743   2.039  10.254
 2452SOL     OW 7813   0.263   2.188  10.030
 2452SOL    HW1 7814   0.184   2.239   9.996
 2452SOL    HW2 7815   0.254   2.173  10.128
 2453SOL     OW 7816   1.194   3.474   9.341
 2453SOL    HW1 7817   1.200   3.381   9.378
 2453SOL    HW2 7818   1.135   3.474   9.261
 2454SOL     OW 7819   0.822   2.864  10.682
 2454SOL    HW1 7820   0.862   2.863  10.590
 2454SOL    HW2 7821   0.832   2.956  10.722
 2455SOL     OW 7822   0.916   2.772   9.601
 2455SOL    HW1 7823   0.979   2.810   9.533
 2455SOL    HW2 7824   0.956   2.689   9.640
 2456SOL     OW 7825   1.504   3.469   9.354
 2456SOL    HW1 7826   1.412   3.506   9.361
 2456SOL    HW2 7827   1.542   3.489   9.264
 2457SOL     OW 7828   0.372   3.150  10.800
 2457SOL    HW1 7829   0.359   3.243  10.766
 2457SOL    HW2 7830   0.288   3.098  10.787
 2458SOL     OW 7831   1.614   3.154  10.599
 2458SOL    HW1 7832   1.674   3.157  10.679
 2458SOL    HW2 7833   1.539   3.218  10.612
 2459SOL     OW 7834   1.039   2.960  10.006
 2459SOL    HW1 7835   0.969   2.913  10.060
 2459SOL    HW2 7836   1.098   2.892   9.963
 2460SOL     OW 7837   1.014   2.098  10.281
 2460SOL    HW1 7838   1.006   2.062  10.188
 2460SOL    HW2 7839   1.012   2.022  10.346
 2461SOL     OW 7840   0.590   3.349   9.801
 2461SOL    HW1 7841   0.632   3.291   9.731
 2461SOL    HW2 7842   0.546   3.428   9.757
 2462SOL     OW 7843   1.709   2.247  10.691
 2462SOL    HW1 7844   1.782   2.316  10.695
 2462SOL    HW2 7845   1.737   2.172  10.632
 2463SOL     OW 7846   0.255   3.210   9.600
 2463SOL    HW1 7847   0.159   3.211   9.573
 2463SOL    HW2 7848   0.267   3.263   9.684
 2464SOL     OW 7849   0.105   2.875  11.036
 2464SOL    HW1 7850   0.028   2.842  11.090
 2464SOL    HW2 7851   0.190   2.845  11.078
 2465SOL     OW 7852   0.672   2.065  10.799
 2465SOL    HW1 7853   0.762   2.049  10.759
 2465SOL    HW2 7854   0.680   2.070  10.898
 2466SOL     OW 7855   0.075   2.207   9.343
 2466SOL    HW1 7856  -0.017   2.179   9.314
 2466SOL    HW2 7857   0.106   2.284   9.287
 2467SOL     OW 7858   1.440   2.718  10.708
 2467SOL    HW1 7859   1.383   2.770  10.645
 2467SOL    HW2 7860   1.536   2.730  10.684
 2468SOL     OW 7861   0.072   2.028   9.628
 2468SOL    HW1 7862   0.055   2.111   9.574
 2468SOL    HW2 7863   0.162   1.991   9.606
 2469SOL     OW 7864   1.183   3.197   9.429
 2469SOL    HW1 7865   1.084   3.186   9.431
 2469SOL    HW2 7866   1.217   3.212   9.522
 2470SOL     OW 7867   0.613   2.704  10.741
 2470SOL    HW1 7868   0.669   2.785  10.724
 2470SOL    HW2 7869   0.672   2.624  10.744
 2471SOL     OW 7870   1.493   3.629  10.269
 2471SOL    HW1 7871   1.526   3.693  10.200
 2471SOL    HW2 7872   1.559   3.623  10.344
 2472SOL     OW 7873   0.716   2.427  11.018
 2472SOL    HW1 7874   0.735   2.492  11.092
 2472SOL    HW2 7875   0.776   2.347  11.027
 2473SOL     OW 7876   0.390   3.603  10.870
 2473SOL    HW1 7877   0.299   3.644  10.868
 2473SOL    HW2 7878   0.383   3.509  10.902
 2474SOL     OW 7879   1.674   2.745  10.564
 2474SOL    HW1 7880   1.647   2.656  10.527
 2474SOL    HW2 7881   1.675   2.813  10.491
 2475SOL     OW 7882   1.225   2.187   9.759
 2475SOL    HW1 7883   1.290   2.113   9.748
 2475SOL    HW2 7884   1.245   2.237   9.843
 2476SOL     OW 7885   0.594   2.607   9.962
 2476SOL    HW1 7886   0.644   2.692   9.943
 2476SOL    HW2 7887   0.506   2.609   9.914
 2477SOL     OW 7888   1.777   2.204  10.952
 2477SOL    HW1 7889   1.760   2.235  10.858
 2477SOL    HW2 7890   1.693   2.167  10.990
 2478SOL     OW 7891   1.730   2.796  10.827
 2478SOL    HW1 7892   1.768   2.887  10.842
 2478SOL    HW2 7893   1.722   2.779  10.728
 2479SOL     OW 7894   0.859   3.236   9.326
 2479SOL    HW1 7895   0.813   3.251   9.414
 2479SOL    HW2 7896   0.903   3.321   9.296
 2480SOL     OW 7897   0.661   3.652  10.263
 2480SOL    HW1 7898   0.615   3.740  10.250
 2480SOL    HW2 7899   0.760   3.664  10.256
 2481SOL     OW 7900   0.859   2.818  10.171
 2481SOL    HW1 7901   0.913   2.749  10.219
 2481SOL    HW2 7902   0.827   2.887  10.237
 2482SOL     OW 7903   1.083   2.846   9.397
 2482SOL    HW1 7904   1.060   2.899   9.315
 2482SOL    HW2 7905   1.164   2.790   9.378
 2483SOL     OW 7906   1.861   3.431  10.161
 2483SOL    HW1 7907   1.790   3.419  10.091
 2483SOL    HW2 7908   1.862   3.352  10.221
 2484SOL     OW 7909   0.079   3.102   9.963
 2484SOL    HW1 7910   0.078   3.055  10.051
 2484SOL    HW2 7911   0.161   3.074   9.912
 2485SOL     OW 7912   0.672   3.253  10.934
 2485SOL    HW1 7913   0.594   3.203  10.972
 2485SOL    HW2 7914   0.669   3.348  10.965
 2486SOL     OW 7915   1.824   2.054  10.537
 2486SOL    HW1 7916   1.820   1.964  10.581
 2486SOL    HW2 7917   1.827   2.043  10.438
 2487SOL     OW 7918   0.428   2.286   9.830
 2487SOL    HW1 7919   0.458   2.214   9.768
 2487SOL    HW2 7920   0.389   2.246   9.913
 2488SOL     OW 7921   1.705   3.349  10.414
 2488SOL    HW1 7922   1.612   3.324  10.387
 2488SOL    HW2 7923   1.731   3.299  10.496
 2489SOL     OW 7924   0.317   2.409  10.590
 2489SOL    HW1 7925   0.355   2.350  10.662
 2489SOL    HW2 7926   0.357   2.383  10.502
 2490SOL     OW 7927   0.812   3.448   9.997
 2490SOL    HW1 7928   0.844   3.458   9.903
 2490SOL    HW2 7929   0.733   3.386   9.999
 2491SOL     OW 7930   1.424   2.076  10.422
 2491SOL    HW1 7931   1.476   2.011  10.477
 2491SOL    HW2 7932   1.375   2.139  10.483
 2492SOL     OW 7933   1.001   1.896  10.464
 2492SOL    HW1 7934   0.938   1.824  10.433
 2492SOL    HW2 7935   1.094   1.860  10.464
 2493SOL     OW 7936   0.770   3.192   9.611
 2493SOL    HW1 7937   0.724   3.105   9.628
 2493SOL    HW2 7938   0.861   3.189   9.652
 2494SOL     OW 7939   0.618   3.429  10.594
 2494SOL    HW1 7940   0.613   3.511  10.651
 2494SOL    HW2 7941   0.707   3.426  10.549
 2495SOL     OW 7942   1.352   1.914   9.478
 2495SOL    HW1 7943   1.387   1.873   9.394
 2495SOL    HW2 7944   1.262   1.876   9.498
 2496SOL     OW 7945   1.300   2.315  10.001
 2496SOL    HW1 7946   1.241   2.395  10.005
 2496SOL    HW2 7947   1.315   2.280  10.094
 2497SOL     OW 7948   1.593   2.083  10.192
 2497SOL    HW1 7949   1.509   2.082  10.246
 2497SOL    HW2 7950   1.595   2.166  10.136
 2498SOL     OW 7951   0.039   2.939   9.610
 2498SOL    HW1 7952   0.138   2.928   9.601
 2498SOL    HW2 7953  -0.001   2.853   9.642
 2499SOL     OW 7954   0.875   3.508   9.647
 2499SOL    HW1 7955   0.798   3.473   9.593
 2499SOL    HW2 7956   0.843   3.579   9.709
 2500SOL     OW 7957   0.230   4.352   0.113
 2500SOL    HW1 7958   0.137   4.350   0.150
 2500SOL    HW2 7959   0.231   4.313   0.021
 2501SOL     OW 7960   0.225   3.999   0.996
 2501SOL    HW1 7961   0.260   3.982   1.088
 2501SOL    HW2 7962   0.137   3.954   0.984
 2502SOL     OW 7963   0.019   4.092   0.647
 2502SOL    HW1 7964  -0.063   4.135   0.686
 2502SOL    HW2 7965  -0.009   4.019   0.584
 2503SOL     OW 7966   1.755   4.331   0.231
 2503SOL    HW1 7967   1.743   4.318   0.132
 2503SOL    HW2 7968   1.725   4.250   0.280
 2504SOL     OW 7969   0.685   4.736   0.665
 2504SOL    HW1 7970   0.754   4.720   0.735
 2504SOL    HW2 7971   0.612   4.793   0.703
 2505SOL     OW 7972   0.438   4.116   1.499
 2505SOL    HW1 7973   0.520   4.060   1.508
 2505SOL    HW2 7974   0.357   4.058   1.503
 2506SOL     OW 7975   1.603   4.171   0.737
 2506SOL    HW1 7976   1.529   4.217   0.687
 2506SOL    HW2 7977   1.654   4.239   0.790
 2507SOL     OW 7978   1.594   3.838   1.480
 2507SOL    HW1 7979   1.576   3.905   1.408
 2507SOL    HW2 7980   1.591   3.884   1.569
 2508SOL     OW 7981   0.122   4.367   0.563
 2508SOL    HW1 7982   0.077   4.279   0.580
 2508SOL    HW2 7983   0.121   4.421   0.647
 2509SOL     OW 7984   0.113   4.461   1.597
 2509SOL    HW1 7985   0.201   4.448   1.642
 2509SOL    HW2 7986   0.100   4.558   1.575
 2510SOL     OW 7987   0.809   3.728   0.502
 2510SOL    HW1 7988   0.849   3.819   0.493
 2510SOL    HW2 7989   0.709   3.736   0.508
 2511SOL     OW 7990   0.317   3.975   1.801
 2511SOL    HW1 7991   0.388   4.046   1.807
 2511SOL    HW2 7992   0.229   4.014   1.829
 2512SOL     OW 7993   1.281   4.069   0.944
 2512SOL    HW1 7994   1.195   4.019   0.931
 2512SOL    HW2 7995   1.343   4.015   1.000
 2513SOL     OW 7996   0.807   4.329   1.465
 2513SOL    HW1 7997   0.760   4.326   1.554
 2513SOL    HW2 7998   0.756   4.274   1.399
 2514SOL     OW 7999   1.394   4.193   1.674
 2514SOL    HW1 8000   1.374   4.236   1.762
 2514SOL    HW2 8001   1.472   4.131   1.683
 2515SOL     OW 8002   0.991   4.134   1.242
 2515SOL    HW1 8003   0.914   4.168   1.296
 2515SOL    HW2 8004   0.957   4.083   1.163
 2516SOL     OW 8005   1.041   4.425   0.429
 2516SOL    HW1 8006   1.067   4.421   0.525
 2516SOL    HW2 8007   0.956   4.374   0.415
 2517SOL     OW 8008   0.076   4.535   0.789
 2517SOL    HW1 8009   0.175   4.523   0.798
 2517SOL    HW2 8010   0.052   4.630   0.810
 2518SOL     OW 8011   0.865   4.072   0.195
 2518SOL    HW1 8012   0.924   4.135   0.146
 2518SOL    HW2 8013   0.884   3.978   0.166
 2519SOL     OW 8014   1.719   4.309   1.831
 2519SOL    HW1 8015   1.693   4.398   1.795
 2519SOL    HW2 8016   1.717   4.241   1.758
 2520SOL     OW 8017   0.550   3.920   0.885
 2520SOL    HW1 8018   0.545   3.915   0.985
 2520SOL    HW2 8019   0.552   4.016   0.856
 2521SOL     OW 8020   1.458   4.459   0.728
 2521SOL    HW1 8021   1.453   4.394   0.803
 2521SOL    HW2 8022   1.538   4.518   0.741
 2522SOL     OW 8023   0.202   4.009   1.498
 2522SOL    HW1 8024   0.122   4.069   1.485
 2522SOL    HW2 8025   0.192   3.960   1.584
 2523SOL     OW 8026   1.400   3.831   0.426
 2523SOL    HW1 8027   1.376   3.794   0.336
 2523SOL    HW2 8028   1.499   3.847   0.430
 2524SOL     OW 8029   0.382   4.424   0.480
 2524SOL    HW1 8030   0.427   4.334   0.477
 2524SOL    HW2 8031   0.288   4.413   0.513
 2525SOL     OW 8032   1.547   3.946   1.729
 2525SOL    HW1 8033   1.542   3.983   1.821
 2525SOL    HW2 8034   1.475   3.877   1.717
 2526SOL     OW 8035   0.614   3.846   0.117
 2526SOL    HW1 8036   0.712   3.824   0.124
 2526SOL    HW2 8037   0.583   3.829   0.024
 2527SOL     OW 8038   0.781   3.988   1.749
 2527SOL    HW1 8039   0.848   3.927   1.792
 2527SOL    HW2 8040   0.708   4.007   1.814
 2528SOL     OW 8041   1.351   4.314   1.433
 2528SOL    HW1 8042   1.379   4.271   1.518
 2528SOL    HW2 8043   1.376   4.410   1.434
 2529SOL     OW 8044   0.922   4.227   0.899
 2529SOL    HW1 8045   0.897   4.218   0.803
 2529SOL    HW2 8046   0.970   4.145   0.930
 2530SOL     OW 8047   0.539   3.788   0.512
 2530SOL    HW1 8048   0.458   3.789   0.570
 2530SOL    HW2 8049   0.542   3.871   0.457
 2531SOL     OW 8050   0.297   3.759   0.171
 2531SOL    HW1 8051   0.346   3.843   0.150
 2531SOL    HW2 8052   0.359   3.694   0.216
 2532SOL     OW 8053   0.935   3.960   0.480
 2532SOL    HW1 8054   0.887   4.001   0.402
 2532SOL    HW2 8055   1.034   3.958   0.461
 2533SOL     OW 8056   1.076   4.407   1.464
 2533SOL    HW1 8057   0.996   4.346   1.467
 2533SOL    HW2 8058   1.157   4.354   1.440
 2534SOL     OW 8059   1.032   4.273   0.016
 2534SOL    HW1 8060   0.991   4.355  -0.023
 2534SOL    HW2 8061   1.096   4.299   0.089
 2535SOL     OW 8062   0.078   4.280   1.386
 2535SOL    HW1 8063   0.170   4.279   1.345
 2535SOL    HW2 8064   0.072   4.354   1.453
 2536SOL     OW 8065   0.561   3.946   1.147
 2536SOL    HW1 8066   0.599   3.862   1.184
 2536SOL    HW2 8067   0.473   3.965   1.191
 2537SOL     OW 8068   0.866   4.178   0.642
 2537SOL    HW1 8069   0.834   4.250   0.580
 2537SOL    HW2 8070   0.890   4.097   0.589
 2538SOL     OW 8071   1.017   3.763   0.753
 2538SOL    HW1 8072   0.945   3.768   0.684
 2538SOL    HW2 8073   0.993   3.694   0.822
 2539SOL     OW 8074   1.466   4.314   0.992
 2539SOL    HW1 8075   1.436   4.219   0.999
 2539SOL    HW2 8076   1.539   4.330   1.058
 2540SOL     OW 8077   1.390   4.299   0.078
 2540SOL    HW1 8078   1.336   4.278   0.159
 2540SOL    HW2 8079   1.481   4.258   0.087
 2541SOL     OW 8080   0.527   3.980   0.328
 2541SOL    HW1 8081   0.554   3.921   0.253
 2541SOL    HW2 8082   0.527   4.075   0.297
 2542SOL     OW 8083   0.915   3.813   1.402
 2542SOL    HW1 8084   0.940   3.793   1.307
 2542SOL    HW2 8085   0.987   3.869   1.444
 2543SOL     OW 8086   0.410   4.537   1.251
 2543SOL    HW1 8087   0.496   4.549   1.301
 2543SOL    HW2 8088   0.368   4.450   1.278
 2544SOL     OW 8089   1.274   4.110   1.262
 2544SOL    HW1 8090   1.295   4.184   1.326
 2544SOL    HW2 8091   1.185   4.127   1.219
 2545SOL     OW 8092   0.566   4.261   0.865
 2545SOL    HW1 8093   0.578   4.327   0.791
 2545SOL    HW2 8094   0.612   4.295   0.948
 2546SOL     OW 8095   1.582   4.363   0.472
 2546SOL    HW1 8096   1.551   4.424   0.545
 2546SOL    HW2 8097   1.632   4.415   0.403
 2547SOL     OW 8098   1.013   3.829   1.770
 2547SOL    HW1 8099   1.019   3.914   1.718
 2547SOL    HW2 8100   1.045   3.753   1.713
 2548SOL     OW 8101   0.504   3.774   1.740
 2548SOL    HW1 8102   0.462   3.717   1.670
 2548SOL    HW2 8103   0.438   3.843   1.772
 2549SOL     OW 8104   1.209   4.249   0.275
 2549SOL    HW1 8105   1.222   4.165   0.329
 2549SOL    HW2 8106   1.180   4.323   0.335
 2550SOL     OW 8107   0.307   3.937   1.231
 2550SOL    HW1 8108   0.284   3.974   1.321
 2550SOL    HW2 8109   0.277   3.842   1.225
 2551SOL     OW 8110   0.732   4.358   1.064
 2551SOL    HW1 8111   0.791   4.332   0.988
 2551SOL    HW2 8112   0.704   4.454   1.053
 2552SOL     OW 8113   1.728   4.659   1.854
 2552SOL    HW1 8114   1.682   4.652   1.765
 2552SOL    HW2 8115   1.666   4.703   1.920
 2553SOL     OW 8116   0.307   3.787   0.618
 2553SOL    HW1 8117   0.296   3.881   0.651
 2553SOL    HW2 8118   0.302   3.724   0.695
 2554SOL     OW 8119   1.622   4.091   0.374
 2554SOL    HW1 8120   1.624   4.015   0.438
 2554SOL    HW2 8121   1.574   4.168   0.414
 2555SOL     OW 8122   1.540   3.998   0.125
 2555SOL    HW1 8123   1.479   3.923   0.148
 2555SOL    HW2 8124   1.562   4.050   0.208
 2556SOL     OW 8125   0.319   4.534   0.949
 2556SOL    HW1 8126   0.412   4.570   0.954
 2556SOL    HW2 8127   0.313   4.449   1.001
 2557SOL     OW 8128   0.339   4.233   1.006
 2557SOL    HW1 8129   0.287   4.150   0.989
 2557SOL    HW2 8130   0.416   4.238   0.942
 2558SOL     OW 8131   1.138   4.104   1.678
 2558SOL    HW1 8132   1.093   4.167   1.742
 2558SOL    HW2 8133   1.231   4.135   1.661
 2559SOL     OW 8134   1.160   3.931   1.477
 2559SOL    HW1 8135   1.160   3.995   1.554
 2559SOL    HW2 8136   1.188   3.979   1.394
 2560SOL     OW 8137   0.040   4.268   1.114
 2560SOL    HW1 8138   0.125   4.235   1.073
 2560SOL    HW2 8139   0.053   4.283   1.212
 2561SOL     OW 8140   0.189   4.244   1.722
 2561SOL    HW1 8141   0.248   4.204   1.652
 2561SOL    HW2 8142   0.131   4.315   1.681
 2562SOL     OW 8143   0.815   4.296   0.325
 2562SOL    HW1 8144   0.822   4.207   0.279
 2562SOL    HW2 8145   0.721   4.330   0.317
 2563SOL     OW 8146   1.657   4.328   1.206
 2563SOL    HW1 8147   1.619   4.259   1.268
 2563SOL    HW2 8148   1.739   4.292   1.162
 2564SOL     OW 8149   0.671   4.188   1.269
 2564SOL    HW1 8150   0.637   4.099   1.239
 2564SOL    HW2 8151   0.697   4.242   1.189
 2565SOL     OW 8152   0.473   4.224   0.191
 2565SOL    HW1 8153   0.534   4.304   0.195
 2565SOL    HW2 8154   0.378   4.255   0.198
 2566SOL     OW 8155   0.903   3.810   0.133
 2566SOL    HW1 8156   0.954   3.811   0.047
 2566SOL    HW2 8157   0.959   3.768   0.204
 2567SOL     OW 8158   1.726   3.859   0.523
 2567SOL    HW1 8159   1.799   3.842   0.456
 2567SOL    HW2 8160   1.695   3.772   0.561
 2568SOL     OW 8161   1.280   4.651   0.672
 2568SOL    HW1 8162   1.340   4.570   0.674
 2568SOL    HW2 8163   1.320   4.720   0.612
 2569SOL     OW 8164   1.841   3.899   0.963
 2569SOL    HW1 8165   1.880   3.814   0.927
 2569SOL    HW2 8166   1.743   3.901   0.944
 2570SOL     OW 8167   0.263   4.050   0.720
 2570SOL    HW1 8168   0.184   4.101   0.686
 2570SOL    HW2 8169   0.254   4.035   0.818
 2571SOL     OW 8170   1.039   4.822   0.696
 2571SOL    HW1 8171   0.969   4.775   0.750
 2571SOL    HW2 8172   1.098   4.754   0.653
 2572SOL     OW 8173   1.014   3.960   0.971
 2572SOL    HW1 8174   1.006   3.924   0.878
 2572SOL    HW2 8175   1.012   3.884   1.036
 2573SOL     OW 8176   1.709   4.109   1.381
 2573SOL    HW1 8177   1.782   4.178   1.385
 2573SOL    HW2 8178   1.737   4.034   1.322
 2574SOL     OW 8179   0.672   3.927   1.489
 2574SOL    HW1 8180   0.762   3.911   1.449
 2574SOL    HW2 8181   0.680   3.932   1.588
 2575SOL     OW 8182   0.075   4.069   0.033
 2575SOL    HW1 8183  -0.017   4.041   0.004
 2575SOL    HW2 8184   0.106   4.146  -0.023
 2576SOL     OW 8185   0.072   3.890   0.318
 2576SOL    HW1 8186   0.055   3.973   0.264
 2576SOL    HW2 8187   0.162   3.853   0.296
 2577SOL     OW 8188   0.716   4.289   1.708
 2577SOL    HW1 8189   0.735   4.354   1.782
 2577SOL    HW2 8190   0.776   4.209   1.717
 2578SOL     OW 8191   1.225   4.049   0.449
 2578SOL    HW1 8192   1.290   3.975   0.438
 2578SOL    HW2 8193   1.245   4.099   0.533
 2579SOL     OW 8194   1.777   4.066   1.642
 2579SOL    HW1 8195   1.760   4.097   1.548
 2579SOL    HW2 8196   1.693   4.029   1.680
 2580SOL     OW 8197   1.083   4.708   0.087
 2580SOL    HW1 8198   1.060   4.761   0.005
 2580SOL    HW2 8199   1.164   4.652   0.068
 2581SOL     OW 8200   1.824   3.916   1.227
 2581SOL    HW1 8201   1.820   3.826   1.271
 2581SOL    HW2 8202   1.827   3.905   1.128
 2582SOL     OW 8203   0.428   4.148   0.520
 2582SOL    HW1 8204   0.458   4.076   0.458
 2582SOL    HW2 8205   0.389   4.108   0.603
 2583SOL     OW 8206   0.317   4.271   1.280
 2583SOL    HW1 8207   0.355   4.212   1.352
 2583SOL    HW2 8208   0.357   4.245   1.192
 2584SOL     OW 8209   1.424   3.938   1.112
 2584SOL    HW1 8210   1.476   3.873   1.167
 2584SOL    HW2 8211   1.375   4.001   1.173
 2585SOL     OW 8212   1.001   3.758   1.154
 2585SOL    HW1 8213   0.938   3.686   1.123
 2585SOL    HW2 8214   1.094   3.722   1.154
 2586SOL     OW 8215   1.352   3.776   0.168
 2586SOL    HW1 8216   1.387   3.735   0.084
 2586SOL    HW2 8217   1.262   3.738   0.188
 2587SOL     OW 8218   1.300   4.177   0.691
 2587SOL    HW1 8219   1.241   4.257   0.695
 2587SOL    HW2 8220   1.315   4.142   0.784
 2588SOL     OW 8221   1.593   3.945   0.882
 2588SOL    HW1 8222   1.509   3.944   0.936
 2588SOL    HW2 8223   1.595   4.028   0.826
 2589SOL     OW 8224   0.230   4.352   1.975
 2589SOL    HW1 8225   0.137   4.350   2.012
 2589SOL    HW2 8226   0.231   4.313   1.883
 2590SOL     OW 8227   0.225   3.999   2.858
 2590SOL    HW1 8228   0.260   3.982   2.950
 2590SOL    HW2 8229   0.137   3.954   2.846
 2591SOL     OW 8230   0.019   4.092   2.509
 2591SOL    HW1 8231  -0.063   4.135   2.548
 2591SOL    HW2 8232  -0.009   4.019   2.446
 2592SOL     OW 8233   1.755   4.331   2.093
 2592SOL    HW1 8234   1.743   4.318   1.994
 2592SOL    HW2 8235   1.725   4.250   2.142
 2593SOL     OW 8236   0.685   4.736   2.527
 2593SOL    HW1 8237   0.754   4.720   2.597
 2593SOL    HW2 8238   0.612   4.793   2.565
 2594SOL     OW 8239   0.438   4.116   3.361
 2594SOL    HW1 8240   0.520   4.060   3.370
 2594SOL    HW2 8241   0.357   4.058   3.365
 2595SOL     OW 8242   1.603   4.171   2.599
 2595SOL    HW1 8243   1.529   4.217   2.549
 2595SOL    HW2 8244   1.654   4.239   2.652
 2596SOL     OW 8245   1.594   3.838   3.342
 2596SOL    HW1 8246   1.576   3.905   3.270
 2596SOL    HW2 8247   1.591   3.884   3.431
 2597SOL     OW 8248   0.122   4.367   2.425
 2597SOL    HW1 8249   0.077   4.279   2.442
 2597SOL    HW2 8250   0.121   4.421   2.509
 2598SOL     OW 8251   0.113   4.461   3.459
 2598SOL    HW1 8252   0.201   4.448   3.504
 2598SOL    HW2 8253   0.100   4.558   3.437
 2599SOL     OW 8254   0.809   3.728   2.364
 2599SOL    HW1 8255   0.849   3.819   2.355
 2599SOL    HW2 8256   0.709   3.736   2.370
 2600SOL     OW 8257   0.317   3.975   3.663
 2600SOL    HW1 8258   0.388   4.046   3.669
 2600SOL    HW2 8259   0.229   4.014   3.691
 2601SOL     OW 8260   1.281   4.069   2.806
 2601SOL    HW1 8261   1.195   4.019   2.793
 2601SOL    HW2 8262   1.343   4.015   2.862
 2602SOL     OW 8263   0.807   4.329   3.327
 2602SOL    HW1 8264   0.760   4.326   3.416
 2602SOL    HW2 8265   0.756   4.274   3.261
 2603SOL     OW 8266   1.394   4.193   3.536
 2603SOL    HW1 8267   1.374   4.236   3.624
 2603SOL    HW2 8268   1.472   4.131   3.545
 2604SOL     OW 8269   0.991   4.134   3.104
 2604SOL    HW1 8270   0.914   4.168   3.158
 2604SOL    HW2 8271   0.957   4.083   3.025
 2605SOL     OW 8272   1.041   4.425   2.291
 2605SOL    HW1 8273   1.067   4.421   2.387
 2605SOL    HW2 8274   0.956   4.374   2.277
 2606SOL     OW 8275   0.076   4.535   2.651
 2606SOL    HW1 8276   0.175   4.523   2.660
 2606SOL    HW2 8277   0.052   4.630   2.672
 2607SOL     OW 8278   0.865   4.072   2.057
 2607SOL    HW1 8279   0.924   4.135   2.008
 2607SOL    HW2 8280   0.884   3.978   2.028
 2608SOL     OW 8281   1.719   4.309   3.693
 2608SOL    HW1 8282   1.693   4.398   3.657
 2608SOL    HW2 8283   1.717   4.241   3.620
 2609SOL     OW 8284   0.550   3.920   2.747
 2609SOL    HW1 8285   0.545   3.915   2.847
 2609SOL    HW2 8286   0.552   4.016   2.718
 2610SOL     OW 8287   1.458   4.459   2.590
 2610SOL    HW1 8288   1.453   4.394   2.665
 2610SOL    HW2 8289   1.538   4.518   2.603
 2611SOL     OW 8290   0.202   4.009   3.360
 2611SOL    HW1 8291   0.122   4.069   3.347
 2611SOL    HW2 8292   0.192   3.960   3.446
 2612SOL     OW 8293   1.400   3.831   2.288
 2612SOL    HW1 8294   1.376   3.794   2.198
 2612SOL    HW2 8295   1.499   3.847   2.292
 2613SOL     OW 8296   0.382   4.424   2.342
 2613SOL    HW1 8297   0.427   4.334   2.339
 2613SOL    HW2 8298   0.288   4.413   2.375
 2614SOL     OW 8299   1.547   3.946   3.591
 2614SOL    HW1 8300   1.542   3.983   3.683
 2614SOL    HW2 8301   1.475   3.877   3.579
 2615SOL     OW 8302   0.614   3.846   1.979
 2615SOL    HW1 8303   0.712   3.824   1.986
 2615SOL    HW2 8304   0.583   3.829   1.886
 2616SOL     OW 8305   0.781   3.988   3.611
 2616SOL    HW1 8306   0.848   3.927   3.654
 2616SOL    HW2 8307   0.708   4.007   3.676
 2617SOL     OW 8308   1.351   4.314   3.295
 2617SOL    HW1 8309   1.379   4.271   3.380
 2617SOL    HW2 8310   1.376   4.410   3.296
 2618SOL     OW 8311   0.922   4.227   2.761
 2618SOL    HW1 8312   0.897   4.218   2.665
 2618SOL    HW2 8313   0.970   4.145   2.792
 2619SOL     OW 8314   0.539   3.788   2.374
 2619SOL    HW1 8315   0.458   3.789   2.432
 2619SOL    HW2 8316   0.542   3.871   2.319
 2620SOL     OW 8317   0.297   3.759   2.033
 2620SOL    HW1 8318   0.346   3.843   2.012
 2620SOL    HW2 8319   0.359   3.694   2.078
 2621SOL     OW 8320   0.935   3.960   2.342
 2621SOL    HW1 8321   0.887   4.001   2.264
 2621SOL    HW2 8322   1.034   3.958   2.323
 2622SOL     OW 8323   1.076   4.407   3.326
 2622SOL    HW1 8324   0.996   4.346   3.329
 2622SOL    HW2 8325   1.157   4.354   3.302
 2623SOL     OW 8326   1.032   4.273   1.878
 2623SOL    HW1 8327   0.991   4.355   1.839
 2623SOL    HW2 8328   1.096   4.299   1.951
 2624SOL     OW 8329   0.078   4.280   3.248
 2624SOL    HW1 8330   0.170   4.279   3.207
 2624SOL    HW2 8331   0.072   4.354   3.315
 2625SOL     OW 8332   0.561   3.946   3.009
 2625SOL    HW1 8333   0.599   3.862   3.046
 2625SOL    HW2 8334   0.473   3.965   3.053
 2626SOL     OW 8335   0.866   4.178   2.504
 2626SOL    HW1 8336   0.834   4.250   2.442
 2626SOL    HW2 8337   0.890   4.097   2.451
 2627SOL     OW 8338   1.017   3.763   2.615
 2627SOL    HW1 8339   0.945   3.768   2.546
 2627SOL    HW2 8340   0.993   3.694   2.684
 2628SOL     OW 8341   1.466   4.314   2.854
 2628SOL    HW1 8342   1.436   4.219   2.861
 2628SOL    HW2 8343   1.539   4.330   2.920
 2629SOL     OW 8344   1.390   4.299   1.940
 2629SOL    HW1 8345   1.336   4.278   2.021
 2629SOL    HW2 8346   1.481   4.258   1.949
 2630SOL     OW 8347   0.527   3.980   2.190
 2630SOL    HW1 8348   0.554   3.921   2.115
 2630SOL    HW2 8349   0.527   4.075   2.159
 2631SOL     OW 8350   0.915   3.813   3.264
 2631SOL    HW1 8351   0.940   3.793   3.169
 2631SOL    HW2 8352   0.987   3.869   3.306
 2632SOL     OW 8353   0.410   4.537   3.113
 2632SOL    HW1 8354   0.496   4.549   3.163
 2632SOL    HW2 8355   0.368   4.450   3.140
 2633SOL     OW 8356   1.274   4.110   3.124
 2633SOL    HW1 8357   1.295   4.184   3.188
 2633SOL    HW2 8358   1.185   4.127   3.081
 2634SOL     OW 8359   0.566   4.261   2.727
 2634SOL    HW1 8360   0.578   4.327   2.653
 2634SOL    HW2 8361   0.612   4.295   2.810
 2635SOL     OW 8362   1.582   4.363   2.334
 2635SOL    HW1 8363   1.551   4.424   2.407
 2635SOL    HW2 8364   1.632   4.415   2.265
 2636SOL     OW 8365   1.013   3.829   3.632
 2636SOL    HW1 8366   1.019   3.914   3.580
 2636SOL    HW2 8367   1.045   3.753   3.575
 2637SOL     OW 8368   0.504   3.774   3.602
 2637SOL    HW1 8369   0.462   3.717   3.532
 2637SOL    HW2 8370   0.438   3.843   3.634
 2638SOL     OW 8371   1.209   4.249   2.137
 2638SOL    HW1 8372   1.222   4.165   2.191
 2638SOL    HW2 8373   1.180   4.323   2.197
 2639SOL     OW 8374   0.307   3.937   3.093
 2639SOL    HW1 8375   0.284   3.974   3.183
 2639SOL    HW2 8376   0.277   3.842   3.087
 2640SOL     OW 8377   0.732   4.358   2.926
 2640SOL    HW1 8378   0.791   4.332   2.850
 2640SOL    HW2 8379   0.704   4.454   2.915
 2641SOL     OW 8380   1.728   4.659   3.716
 2641SOL    HW1 8381   1.682   4.652   3.627
 2641SOL    HW2 8382   1.666   4.703   3.782
 2642SOL     OW 8383   0.307   3.787   2.480
 2642SOL    HW1 8384   0.296   3.881   2.513
 2642SOL    HW2 8385   0.302   3.724   2.557
 2643SOL     OW 8386   1.622   4.091   2.236
 2643SOL    HW1 8387   1.624   4.015   2.300
 2643SOL    HW2 8388   1.574   4.168   2.276
 2644SOL     OW 8389   1.540   3.998   1.987
 2644SOL    HW1 8390   1.479   3.923   2.010
 2644SOL    HW2 8391   1.562   4.050   2.070
 2645SOL     OW 8392   0.319   4.534   2.811
 2645SOL    HW1 8393   0.412   4.570   2.816
 2645SOL    HW2 8394   0.313   4.449   2.863
 2646SOL     OW 8395   0.339   4.233   2.868
 2646SOL    HW1 8396   0.287   4.150   2.851
 2646SOL    HW2 8397   0.416   4.238   2.804
 2647SOL     OW 8398   1.138   4.104   3.540
 2647SOL    HW1 8399   1.093   4.167   3.604
 2647SOL    HW2 8400   1.231   4.135   3.523
 2648SOL     OW 8401   1.160   3.931   3.339
 2648SOL    HW1 8402   1.160   3.995   3.416
 2648SOL    HW2 8403   1.188   3.979   3.256
 2649SOL     OW 8404   0.040   4.268   2.976
 2649SOL    HW1 8405   0.125   4.235   2.935
 2649SOL    HW2 8406   0.053   4.283   3.074
 2650SOL     OW 8407   0.189   4.244   3.584
 2650SOL    HW1 8408   0.248   4.204   3.514
 2650SOL    HW2 8409   0.131   4.315   3.543
 2651SOL     OW 8410   0.815   4.296   2.187
 2651SOL    HW1 8411   0.822   4.207   2.141
 2651SOL    HW2 8412   0.721   4.330   2.179
 2652SOL     OW 8413   1.657   4.328   3.068
 2652SOL    HW1 8414   1.619   4.259   3.130
 2652SOL    HW2 8415   1.739   4.292   3.024
 2653SOL     OW 8416   0.671   4.188   3.131
 2653SOL    HW1 8417   0.637   4.099   3.101
 2653SOL    HW2 8418   0.697   4.242   3.051
 2654SOL     OW 8419   0.473   4.224   2.053
 2654SOL    HW1 8420   0.534   4.304   2.057
 2654SOL    HW2 8421   0.378   4.255   2.060
 2655SOL     OW 8422   1.726   3.859   2.385
 2655SOL    HW1 8423   1.799   3.842   2.318
 2655SOL    HW2 8424   1.695   3.772   2.423
 2656SOL     OW 8425   1.280   4.651   2.534
 2656SOL    HW1 8426   1.340   4.570   2.536
 2656SOL    HW2 8427   1.320   4.720   2.474
 2657SOL     OW 8428   1.841   3.899   2.825
 2657SOL    HW1 8429   1.880   3.814   2.789
 2657SOL    HW2 8430   1.743   3.901   2.806
 2658SOL     OW 8431   0.263   4.050   2.582
 2658SOL    HW1 8432   0.184   4.101   2.548
 2658SOL    HW2 8433   0.254   4.035   2.680
 2659SOL     OW 8434   0.916   4.634   2.153
 2659SOL    HW1 8435   0.979   4.672   2.085
 2659SOL    HW2 8436   0.956   4.551   2.192
 2660SOL     OW 8437   1.039   4.822   2.558
 2660SOL    HW1 8438   0.969   4.775   2.612
 2660SOL    HW2 8439   1.098   4.754   2.515
 2661SOL     OW 8440   1.014   3.960   2.833
 2661SOL    HW1 8441   1.006   3.924   2.740
 2661SOL    HW2 8442   1.012   3.884   2.898
 2662SOL     OW 8443   1.709   4.109   3.243
 2662SOL    HW1 8444   1.782   4.178   3.247
 2662SOL    HW2 8445   1.737   4.034   3.184
 2663SOL     OW 8446   0.672   3.927   3.351
 2663SOL    HW1 8447   0.762   3.911   3.311
 2663SOL    HW2 8448   0.680   3.932   3.450
 2664SOL     OW 8449   0.075   4.069   1.895
 2664SOL    HW1 8450  -0.017   4.041   1.866
 2664SOL    HW2 8451   0.106   4.146   1.839
 2665SOL     OW 8452   0.072   3.890   2.180
 2665SOL    HW1 8453   0.055   3.973   2.126
 2665SOL    HW2 8454   0.162   3.853   2.158
 2666SOL     OW 8455   0.716   4.289   3.570
 2666SOL    HW1 8456   0.735   4.354   3.644
 2666SOL    HW2 8457   0.776   4.209   3.579
 2667SOL     OW 8458   1.225   4.049   2.311
 2667SOL    HW1 8459   1.290   3.975   2.300
 2667SOL    HW2 8460   1.245   4.099   2.395
 2668SOL     OW 8461   1.777   4.066   3.504
 2668SOL    HW1 8462   1.760   4.097   3.410
 2668SOL    HW2 8463   1.693   4.029   3.542
 2669SOL     OW 8464   1.083   4.708   1.949
 2669SOL    HW1 8465   1.060   4.761   1.867
 2669SOL    HW2 8466   1.164   4.652   1.930
 2670SOL     OW 8467   1.824   3.916   3.089
 2670SOL    HW1 8468   1.820   3.826   3.133
 2670SOL    HW2 8469   1.827   3.905   2.990
 2671SOL     OW 8470   0.428   4.148   2.382
 2671SOL    HW1 8471   0.458   4.076   2.320
 2671SOL    HW2 8472   0.389   4.108   2.465
 2672SOL     OW 8473   0.317   4.271   3.142
 2672SOL    HW1 8474   0.355   4.212   3.214
 2672SOL    HW2 8475   0.357   4.245   3.054
 2673SOL     OW 8476   1.424   3.938   2.974
 2673SOL    HW1 8477   1.476   3.873   3.029
 2673SOL    HW2 8478   1.375   4.001   3.035
 2674SOL     OW 8479   1.001   3.758   3.016
 2674SOL    HW1 8480   0.938   3.686   2.985
 2674SOL    HW2 8481   1.094   3.722   3.016
 2675SOL     OW 8482   1.352   3.776   2.030
 2675SOL    HW1 8483   1.387   3.735   1.946
 2675SOL    HW2 8484   1.262   3.738   2.050
 2676SOL     OW 8485   1.300   4.177   2.553
 2676SOL    HW1 8486   1.241   4.257   2.557
 2676SOL    HW2 8487   1.315   4.142   2.646
 2677SOL     OW 8488   1.593   3.945   2.744
 2677SOL    HW1 8489   1.509   3.944   2.798
 2677SOL    HW2 8490   1.595   4.028   2.688
 2678SOL     OW 8491   0.230   4.352   3.837
 2678SOL    HW1 8492   0.137   4.350   3.874
 2678SOL    HW2 8493   0.231   4.313   3.745
 2679SOL     OW 8494   0.225   3.999   4.720
 2679SOL    HW1 8495   0.260   3.982   4.812
 2679SOL    HW2 8496   0.137   3.954   4.708
 2680SOL     OW 8497   0.019   4.092   4.371
 2680SOL    HW1 8498  -0.063   4.135   4.410
 2680SOL    HW2 8499  -0.009   4.019   4.308
 2681SOL     OW 8500   1.755   4.331   3.955
 2681SOL    HW1 8501   1.743   4.318   3.856
 2681SOL    HW2 8502   1.725   4.250   4.004
 2682SOL     OW 8503   0.685   4.736   4.389
 2682SOL    HW1 8504   0.754   4.720   4.459
 2682SOL    HW2 8505   0.612   4.793   4.427
 2683SOL     OW 8506   0.438   4.116   5.223
 2683SOL    HW1 8507   0.520   4.060   5.232
 2683SOL    HW2 8508   0.357   4.058   5.227
 2684SOL     OW 8509   1.603   4.171   4.461
 2684SOL    HW1 8510   1.529   4.217   4.411
 2684SOL    HW2 8511   1.654   4.239   4.514
 2685SOL     OW 8512   1.594   3.838   5.204
 2685SOL    HW1 8513   1.576   3.905   5.132
 2685SOL    HW2 8514   1.591   3.884   5.293
 2686SOL     OW 8515   0.122   4.367   4.287
 2686SOL    HW1 8516   0.077   4.279   4.304
 2686SOL    HW2 8517   0.121   4.421   4.371
 2687SOL     OW 8518   0.113   4.461   5.321
 2687SOL    HW1 8519   0.201   4.448   5.366
 2687SOL    HW2 8520   0.100   4.558   5.299
 2688SOL     OW 8521   0.809   3.728   4.226
 2688SOL    HW1 8522   0.849   3.819   4.217
 2688SOL    HW2 8523   0.709   3.736   4.232
 2689SOL     OW 8524   0.317   3.975   5.525
 2689SOL    HW1 8525   0.388   4.046   5.531
 2689SOL    HW2 8526   0.229   4.014   5.553
 2690SOL     OW 8527   1.281   4.069   4.668
 2690SOL    HW1 8528   1.195   4.019   4.655
 2690SOL    HW2 8529   1.343   4.015   4.724
 2691SOL     OW 8530   0.807   4.329   5.189
 2691SOL    HW1 8531   0.760   4.326   5.278
 2691SOL    HW2 8532   0.756   4.274   5.123
 2692SOL     OW 8533   1.394   4.193   5.398
 2692SOL    HW1 8534   1.374   4.236   5.486
 2692SOL    HW2 8535   1.472   4.131   5.407
 2693SOL     OW 8536   0.991   4.134   4.966
 2693SOL    HW1 8537   0.914   4.168   5.020
 2693SOL    HW2 8538   0.957   4.083   4.887
 2694SOL     OW 8539   1.041   4.425   4.153
 2694SOL    HW1 8540   1.067   4.421   4.249
 2694SOL    HW2 8541   0.956   4.374   4.139
 2695SOL     OW 8542   0.076   4.535   4.513
 2695SOL    HW1 8543   0.175   4.523   4.522
 2695SOL    HW2 8544   0.052   4.630   4.534
 2696SOL     OW 8545   0.865   4.072   3.919
 2696SOL    HW1 8546   0.924   4.135   3.870
 2696SOL    HW2 8547   0.884   3.978   3.890
 2697SOL     OW 8548   1.719   4.309   5.555
 2697SOL    HW1 8549   1.693   4.398   5.519
 2697SOL    HW2 8550   1.717   4.241   5.482
 2698SOL     OW 8551   0.550   3.920   4.609
 2698SOL    HW1 8552   0.545   3.915   4.709
 2698SOL    HW2 8553   0.552   4.016   4.580
 2699SOL     OW 8554   1.458   4.459   4.452
 2699SOL    HW1 8555   1.453   4.394   4.527
 2699SOL    HW2 8556   1.538   4.518   4.465
 2700SOL     OW 8557   0.202   4.009   5.222
 2700SOL    HW1 8558   0.122   4.069   5.209
 2700SOL    HW2 8559   0.192   3.960   5.308
 2701SOL     OW 8560   1.400   3.831   4.150
 2701SOL    HW1 8561   1.376   3.794   4.060
 2701SOL    HW2 8562   1.499   3.847   4.154
 2702SOL     OW 8563   0.382   4.424   4.204
 2702SOL    HW1 8564   0.427   4.334   4.201
 2702SOL    HW2 8565   0.288   4.413   4.237
 2703SOL     OW 8566   1.547   3.946   5.453
 2703SOL    HW1 8567   1.542   3.983   5.545
 2703SOL    HW2 8568   1.475   3.877   5.441
 2704SOL     OW 8569   0.614   3.846   3.841
 2704SOL    HW1 8570   0.712   3.824   3.848
 2704SOL    HW2 8571   0.583   3.829   3.748
 2705SOL     OW 8572   0.781   3.988   5.473
 2705SOL    HW1 8573   0.848   3.927   5.516
 2705SOL    HW2 8574   0.708   4.007   5.538
 2706SOL     OW 8575   1.351   4.314   5.157
 2706SOL    HW1 8576   1.379   4.271   5.242
 2706SOL    HW2 8577   1.376   4.410   5.158
 2707SOL     OW 8578   0.922   4.227   4.623
 2707SOL    HW1 8579   0.897   4.218   4.527
 2707SOL    HW2 8580   0.970   4.145   4.654
 2708SOL     OW 8581   0.539   3.788   4.236
 2708SOL    HW1 8582   0.458   3.789   4.294
 2708SOL    HW2 8583   0.542   3.871   4.181
 2709SOL     OW 8584   0.297   3.759   3.895
 2709SOL    HW1 8585   0.346   3.843   3.874
 2709SOL    HW2 8586   0.359   3.694   3.940
 2710SOL     OW 8587   0.935   3.960   4.204
 2710SOL    HW1 8588   0.887   4.001   4.126
 2710SOL    HW2 8589   1.034   3.958   4.185
 2711SOL     OW 8590   1.076   4.407   5.188
 2711SOL    HW1 8591   0.996   4.346   5.191
 2711SOL    HW2 8592   1.157   4.354   5.164
 2712SOL     OW 8593   1.032   4.273   3.740
 2712SOL    HW1 8594   0.991   4.355   3.701
 2712SOL    HW2 8595   1.096   4.299   3.813
 2713SOL     OW 8596   0.078   4.280   5.110
 2713SOL    HW1 8597   0.170   4.279   5.069
 2713SOL    HW2 8598   0.072   4.354   5.177
 2714SOL     OW 8599   0.561   3.946   4.871
 2714SOL    HW1 8600   0.599   3.862   4.908
 2714SOL    HW2 8601   0.473   3.965   4.915
 2715SOL     OW 8602   0.866   4.178   4.366
 2715SOL    HW1 8603   0.834   4.250   4.304
 2715SOL    HW2 8604   0.890   4.097   4.313
 2716SOL     OW 8605   1.017   3.763   4.477
 2716SOL    HW1 8606   0.945   3.768   4.408
 2716SOL    HW2 8607   0.993   3.694   4.546
 2717SOL     OW 8608   1.466   4.314   4.716
 2717SOL    HW1 8609   1.436   4.219   4.723
 2717SOL    HW2 8610   1.539   4.330   4.782
 2718SOL     OW 8611   1.390   4.299   3.802
 2718SOL    HW1 8612   1.336   4.278   3.883
 2718SOL    HW2 8613   1.481   4.258   3.811
 2719SOL     OW 8614   0.527   3.980   4.052
 2719SOL    HW1 8615   0.554   3.921   3.977
 2719SOL    HW2 8616   0.527   4.075   4.021
 2720SOL     OW 8617   0.915   3.813   5.126
 2720SOL    HW1 8618   0.940   3.793   5.031
 2720SOL    HW2 8619   0.987   3.869   5.168
 2721SOL     OW 8620   0.410   4.537   4.975
 2721SOL    HW1 8621   0.496   4.549   5.025
 2721SOL    HW2 8622   0.368   4.450   5.002
 2722SOL     OW 8623   1.274   4.110   4.986
 2722SOL    HW1 8624   1.295   4.184   5.050
 2722SOL    HW2 8625   1.185   4.127   4.943
 2723SOL     OW 8626   0.566   4.261   4.589
 2723SOL    HW1 8627   0.578   4.327   4.515
 2723SOL    HW2 8628   0.612   4.295   4.672
 2724SOL     OW 8629   1.582   4.363   4.196
 2724SOL    HW1 8630   1.551   4.424   4.269
 2724SOL    HW2 8631   1.632   4.415   4.127
 2725SOL     OW 8632   1.013   3.829   5.494
 2725SOL    HW1 8633   1.019   3.914   5.442
 2725SOL    HW2 8634   1.045   3.753   5.437
 2726SOL     OW 8635   0.504   3.774   5.464
 2726SOL    HW1 8636   0.462   3.717   5.394
 2726SOL    HW2 8637   0.438   3.843   5.496
 2727SOL     OW 8638   1.209   4.249   3.999
 2727SOL    HW1 8639   1.222   4.165   4.053
 2727SOL    HW2 8640   1.180   4.323   4.059
 2728SOL     OW 8641   0.307   3.937   4.955
 2728SOL    HW1 8642   0.284   3.974   5.045
 2728SOL    HW2 8643   0.277   3.842   4.949
 2729SOL     OW 8644   0.732   4.358   4.788
 2729SOL    HW1 8645   0.791   4.332   4.712
 2729SOL    HW2 8646   0.704   4.454   4.777
 2730SOL     OW 8647   1.728   4.659   5.578
 2730SOL    HW1 8648   1.682   4.652   5.489
 2730SOL    HW2 8649   1.666   4.703   5.644
 2731SOL     OW 8650   0.307   3.787   4.342
 2731SOL    HW1 8651   0.296   3.881   4.375
 2731SOL    HW2 8652   0.302   3.724   4.419
 2732SOL     OW 8653   1.622   4.091   4.098
 2732SOL    HW1 8654   1.624   4.015   4.162
 2732SOL    HW2 8655   1.574   4.168   4.138
 2733SOL     OW 8656   1.540   3.998   3.849
 2733SOL    HW1 8657   1.479   3.923   3.872
 2733SOL    HW2 8658   1.562   4.050   3.932
 2734SOL     OW 8659   0.319   4.534   4.673
 2734SOL    HW1 8660   0.412   4.570   4.678
 2734SOL    HW2 8661   0.313   4.449   4.725
 2735SOL     OW 8662   0.339   4.233   4.730
 2735SOL    HW1 8663   0.287   4.150   4.713
 2735SOL    HW2 8664   0.416   4.238   4.666
 2736SOL     OW 8665   1.138   4.104   5.402
 2736SOL    HW1 8666   1.093   4.167   5.466
 2736SOL    HW2 8667   1.231   4.135   5.385
 2737SOL     OW 8668   1.160   3.931   5.201
 2737SOL    HW1 8669   1.160   3.995   5.278
 2737SOL    HW2 8670   1.188   3.979   5.118
 2738SOL     OW 8671   0.040   4.268   4.838
 2738SOL    HW1 8672   0.125   4.235   4.797
 2738SOL    HW2 8673   0.053   4.283   4.936
 2739SOL     OW 8674   0.189   4.244   5.446
 2739SOL    HW1 8675   0.248   4.204   5.376
 2739SOL    HW2 8676   0.131   4.315   5.405
 2740SOL     OW 8677   0.815   4.296   4.049
 2740SOL    HW1 8678   0.822   4.207   4.003
 2740SOL    HW2 8679   0.721   4.330   4.041
 2741SOL     OW 8680   1.657   4.328   4.930
 2741SOL    HW1 8681   1.619   4.259   4.992
 2741SOL    HW2 8682   1.739   4.292   4.886
 2742SOL     OW 8683   0.671   4.188   4.993
 2742SOL    HW1 8684   0.637   4.099   4.963
 2742SOL    HW2 8685   0.697   4.242   4.913
 2743SOL     OW 8686   0.473   4.224   3.915
 2743SOL    HW1 8687   0.534   4.304   3.919
 2743SOL    HW2 8688   0.378   4.255   3.922
 2744SOL     OW 8689   1.726   3.859   4.247
 2744SOL    HW1 8690   1.799   3.842   4.180
 2744SOL    HW2 8691   1.695   3.772   4.285
 2745SOL     OW 8692   1.280   4.651   4.396
 2745SOL    HW1 8693   1.340   4.570   4.398
 2745SOL    HW2 8694   1.320   4.720   4.336
 2746SOL     OW 8695   1.841   3.899   4.687
 2746SOL    HW1 8696   1.880   3.814   4.651
 2746SOL    HW2 8697   1.743   3.901   4.668
 2747SOL     OW 8698   0.263   4.050   4.444
 2747SOL    HW1 8699   0.184   4.101   4.410
 2747SOL    HW2 8700   0.254   4.035   4.542
 2748SOL     OW 8701   0.916   4.634   4.015
 2748SOL    HW1 8702   0.979   4.672   3.947
 2748SOL    HW2 8703   0.956   4.551   4.054
 2749SOL     OW 8704   1.039   4.822   4.420
 2749SOL    HW1 8705   0.969   4.775   4.474
 2749SOL    HW2 8706   1.098   4.754   4.377
 2750SOL     OW 8707   1.014   3.960   4.695
 2750SOL    HW1 8708   1.006   3.924   4.602
 2750SOL    HW2 8709   1.012   3.884   4.760
 2751SOL     OW 8710   1.709   4.109   5.105
 2751SOL    HW1 8711   1.782   4.178   5.109
 2751SOL    HW2 8712   1.737   4.034   5.046
 2752SOL     OW 8713   0.672   3.927   5.213
 2752SOL    HW1 8714   0.762   3.911   5.173
 2752SOL    HW2 8715   0.680   3.932   5.312
 2753SOL     OW 8716   0.075   4.069   3.757
 2753SOL    HW1 8717  -0.017   4.041   3.728
 2753SOL    HW2 8718   0.106   4.146   3.701
 2754SOL     OW 8719   0.072   3.890   4.042
 2754SOL    HW1 8720   0.055   3.973   3.988
 2754SOL    HW2 8721   0.162   3.853   4.020
 2755SOL     OW 8722   0.716   4.289   5.432
 2755SOL    HW1 8723   0.735   4.354   5.506
 2755SOL    HW2 8724   0.776   4.209   5.441
 2756SOL     OW 8725   1.225   4.049   4.173
 2756SOL    HW1 8726   1.290   3.975   4.162
 2756SOL    HW2 8727   1.245   4.099   4.257
 2757SOL     OW 8728   1.777   4.066   5.366
 2757SOL    HW1 8729   1.760   4.097   5.272
 2757SOL    HW2 8730   1.693   4.029   5.404
 2758SOL     OW 8731   1.083   4.708   3.811
 2758SOL    HW1 8732   1.060   4.761   3.729
 2758SOL    HW2 8733   1.164   4.652   3.792
 2759SOL     OW 8734   1.824   3.916   4.951
 2759SOL    HW1 8735   1.820   3.826   4.995
 2759SOL    HW2 8736   1.827   3.905   4.852
 2760SOL     OW 8737   0.428   4.148   4.244
 2760SOL    HW1 8738   0.458   4.076   4.182
 2760SOL    HW2 8739   0.389   4.108   4.327
 2761SOL     OW 8740   0.317   4.271   5.004
 2761SOL    HW1 8741   0.355   4.212   5.076
 2761SOL    HW2 8742   0.357   4.245   4.916
 2762SOL     OW 8743   1.424   3.938   4.836
 2762SOL    HW1 8744   1.476   3.873   4.891
 2762SOL    HW2 8745   1.375   4.001   4.897
 2763SOL     OW 8746   1.001   3.758   4.878
 2763SOL    HW1 8747   0.938   3.686   4.847
 2763SOL    HW2 8748   1.094   3.722   4.878
 2764SOL     OW 8749   1.352   3.776   3.892
 2764SOL    HW1 8750   1.387   3.735   3.808
 2764SOL    HW2 8751   1.262   3.738   3.912
 2765SOL     OW 8752   1.300   4.177   4.415
 2765SOL    HW1 8753   1.241   4.257   4.419
 2765SOL    HW2 8754   1.315   4.142   4.508
 2766SOL     OW 8755   1.593   3.945   4.606
 2766SOL    HW1 8756   1.509   3.944   4.660
 2766SOL    HW2 8757   1.595   4.028   4.550
 2767SOL     OW 8758   0.230   4.352   5.699
 2767SOL    HW1 8759   0.137   4.350   5.736
 2767SOL    HW2 8760   0.231   4.313   5.607
 2768SOL     OW 8761   0.225   3.999   6.582
 2768SOL    HW1 8762   0.260   3.982   6.674
 2768SOL    HW2 8763   0.137   3.954   6.570
 2769SOL     OW 8764   0.019   4.092   6.233
 2769SOL    HW1 8765  -0.063   4.135   6.272
 2769SOL    HW2 8766  -0.009   4.019   6.170
 2770SOL     OW 8767   1.755   4.331   5.817
 2770SOL    HW1 8768   1.743   4.318   5.718
 2770SOL    HW2 8769   1.725   4.250   5.866
 2771SOL     OW 8770   0.685   4.736   6.251
 2771SOL    HW1 8771   0.754   4.720   6.321
 2771SOL    HW2 8772   0.612   4.793   6.289
 2772SOL     OW 8773   0.438   4.116   7.085
 2772SOL    HW1 8774   0.520   4.060   7.094
 2772SOL    HW2 8775   0.357   4.058   7.089
 2773SOL     OW 8776   1.603   4.171   6.323
 2773SOL    HW1 8777   1.529   4.217   6.273
 2773SOL    HW2 8778   1.654   4.239   6.376
 2774SOL     OW 8779   1.594   3.838   7.066
 2774SOL    HW1 8780   1.576   3.905   6.994
 2774SOL    HW2 8781   1.591   3.884   7.155
 2775SOL     OW 8782   0.122   4.367   6.149
 2775SOL    HW1 8783   0.077   4.279   6.166
 2775SOL    HW2 8784   0.121   4.421   6.233
 2776SOL     OW 8785   0.113   4.461   7.183
 2776SOL    HW1 8786   0.201   4.448   7.228
 2776SOL    HW2 8787   0.100   4.558   7.161
 2777SOL     OW 8788   0.809   3.728   6.088
 2777SOL    HW1 8789   0.849   3.819   6.079
 2777SOL    HW2 8790   0.709   3.736   6.094
 2778SOL     OW 8791   0.317   3.975   7.387
 2778SOL    HW1 8792   0.388   4.046   7.393
 2778SOL    HW2 8793   0.229   4.014   7.415
 2779SOL     OW 8794   1.281   4.069   6.530
 2779SOL    HW1 8795   1.195   4.019   6.517
 2779SOL    HW2 8796   1.343   4.015   6.586
 2780SOL     OW 8797   0.807   4.329   7.051
 2780SOL    HW1 8798   0.760   4.326   7.140
 2780SOL    HW2 8799   0.756   4.274   6.985
 2781SOL     OW 8800   1.394   4.193   7.260
 2781SOL    HW1 8801   1.374   4.236   7.348
 2781SOL    HW2 8802   1.472   4.131   7.269
 2782SOL     OW 8803   0.991   4.134   6.828
 2782SOL    HW1 8804   0.914   4.168   6.882
 2782SOL    HW2 8805   0.957   4.083   6.749
 2783SOL     OW 8806   1.041   4.425   6.015
 2783SOL    HW1 8807   1.067   4.421   6.111
 2783SOL    HW2 8808   0.956   4.374   6.001
 2784SOL     OW 8809   0.076   4.535   6.375
 2784SOL    HW1 8810   0.175   4.523   6.384
 2784SOL    HW2 8811   0.052   4.630   6.396
 2785SOL     OW 8812   0.865   4.072   5.781
 2785SOL    HW1 8813   0.924   4.135   5.732
 2785SOL    HW2 8814   0.884   3.978   5.752
 2786SOL     OW 8815   1.719   4.309   7.417
 2786SOL    HW1 8816   1.693   4.398   7.381
 2786SOL    HW2 8817   1.717   4.241   7.344
 2787SOL     OW 8818   0.550   3.920   6.471
 2787SOL    HW1 8819   0.545   3.915   6.571
 2787SOL    HW2 8820   0.552   4.016   6.442
 2788SOL     OW 8821   1.458   4.459   6.314
 2788SOL    HW1 8822   1.453   4.394   6.389
 2788SOL    HW2 8823   1.538   4.518   6.327
 2789SOL     OW 8824   0.202   4.009   7.084
 2789SOL    HW1 8825   0.122   4.069   7.071
 2789SOL    HW2 8826   0.192   3.960   7.170
 2790SOL     OW 8827   1.400   3.831   6.012
 2790SOL    HW1 8828   1.376   3.794   5.922
 2790SOL    HW2 8829   1.499   3.847   6.016
 2791SOL     OW 8830   0.382   4.424   6.066
 2791SOL    HW1 8831   0.427   4.334   6.063
 2791SOL    HW2 8832   0.288   4.413   6.099
 2792SOL     OW 8833   1.547   3.946   7.315
 2792SOL    HW1 8834   1.542   3.983   7.407
 2792SOL    HW2 8835   1.475   3.877   7.303
 2793SOL     OW 8836   0.614   3.846   5.703
 2793SOL    HW1 8837   0.712   3.824   5.710
 2793SOL    HW2 8838   0.583   3.829   5.610
 2794SOL     OW 8839   0.781   3.988   7.335
 2794SOL    HW1 8840   0.848   3.927   7.378
 2794SOL    HW2 8841   0.708   4.007   7.400
 2795SOL     OW 8842   1.351   4.314   7.019
 2795SOL    HW1 8843   1.379   4.271   7.104
 2795SOL    HW2 8844   1.376   4.410   7.020
 2796SOL     OW 8845   0.922   4.227   6.485
 2796SOL    HW1 8846   0.897   4.218   6.389
 2796SOL    HW2 8847   0.970   4.145   6.516
 2797SOL     OW 8848   0.539   3.788   6.098
 2797SOL    HW1 8849   0.458   3.789   6.156
 2797SOL    HW2 8850   0.542   3.871   6.043
 2798SOL     OW 8851   0.297   3.759   5.757
 2798SOL    HW1 8852   0.346   3.843   5.736
 2798SOL    HW2 8853   0.359   3.694   5.802
 2799SOL     OW 8854   0.935   3.960   6.066
 2799SOL    HW1 8855   0.887   4.001   5.988
 2799SOL    HW2 8856   1.034   3.958   6.047
 2800SOL     OW 8857   1.076   4.407   7.050
 2800SOL    HW1 8858   0.996   4.346   7.053
 2800SOL    HW2 8859   1.157   4.354   7.026
 2801SOL     OW 8860   1.032   4.273   5.602
 2801SOL    HW1 8861   0.991   4.355   5.563
 2801SOL    HW2 8862   1.096   4.299   5.675
 2802SOL     OW 8863   0.078   4.280   6.972
 2802SOL    HW1 8864   0.170   4.279   6.931
 2802SOL    HW2 8865   0.072   4.354   7.039
 2803SOL     OW 8866   0.561   3.946   6.733
 2803SOL    HW1 8867   0.599   3.862   6.770
 2803SOL    HW2 8868   0.473   3.965   6.777
 2804SOL     OW 8869   0.866   4.178   6.228
 2804SOL    HW1 8870   0.834   4.250   6.166
 2804SOL    HW2 8871   0.890   4.097   6.175
 2805SOL     OW 8872   1.017   3.763   6.339
 2805SOL    HW1 8873   0.945   3.768   6.270
 2805SOL    HW2 8874   0.993   3.694   6.408
 2806SOL     OW 8875   1.466   4.314   6.578
 2806SOL    HW1 8876   1.436   4.219   6.585
 2806SOL    HW2 8877   1.539   4.330   6.644
 2807SOL     OW 8878   1.390   4.299   5.664
 2807SOL    HW1 8879   1.336   4.278   5.745
 2807SOL    HW2 8880   1.481   4.258   5.673
 2808SOL     OW 8881   0.527   3.980   5.914
 2808SOL    HW1 8882   0.554   3.921   5.839
 2808SOL    HW2 8883   0.527   4.075   5.883
 2809SOL     OW 8884   0.915   3.813   6.988
 2809SOL    HW1 8885   0.940   3.793   6.893
 2809SOL    HW2 8886   0.987   3.869   7.030
 2810SOL     OW 8887   0.410   4.537   6.837
 2810SOL    HW1 8888   0.496   4.549   6.887
 2810SOL    HW2 8889   0.368   4.450   6.864
 2811SOL     OW 8890   1.274   4.110   6.848
 2811SOL    HW1 8891   1.295   4.184   6.912
 2811SOL    HW2 8892   1.185   4.127   6.805
 2812SOL     OW 8893   0.566   4.261   6.451
 2812SOL    HW1 8894   0.578   4.327   6.377
 2812SOL    HW2 8895   0.612   4.295   6.534
 2813SOL     OW 8896   1.582   4.363   6.058
 2813SOL    HW1 8897   1.551   4.424   6.131
 2813SOL    HW2 8898   1.632   4.415   5.989
 2814SOL     OW 8899   1.013   3.829   7.356
 2814SOL    HW1 8900   1.019   3.914   7.304
 2814SOL    HW2 8901   1.045   3.753   7.299
 2815SOL     OW 8902   0.504   3.774   7.326
 2815SOL    HW1 8903   0.462   3.717   7.256
 2815SOL    HW2 8904   0.438   3.843   7.358
 2816SOL     OW 8905   1.209   4.249   5.861
 2816SOL    HW1 8906   1.222   4.165   5.915
 2816SOL    HW2 8907   1.180   4.323   5.921
 2817SOL     OW 8908   0.307   3.937   6.817
 2817SOL    HW1 8909   0.284   3.974   6.907
 2817SOL    HW2 8910   0.277   3.842   6.811
 2818SOL     OW 8911   0.732   4.358   6.650
 2818SOL    HW1 8912   0.791   4.332   6.574
 2818SOL    HW2 8913   0.704   4.454   6.639
 2819SOL     OW 8914   1.728   4.659   7.440
 2819SOL    HW1 8915   1.682   4.652   7.351
 2819SOL    HW2 8916   1.666   4.703   7.506
 2820SOL     OW 8917   0.307   3.787   6.204
 2820SOL    HW1 8918   0.296   3.881   6.237
 2820SOL    HW2 8919   0.302   3.724   6.281
 2821SOL     OW 8920   1.622   4.091   5.960
 2821SOL    HW1 8921   1.624   4.015   6.024
 2821SOL    HW2 8922   1.574   4.168   6.000
 2822SOL     OW 8923   1.540   3.998   5.711
 2822SOL    HW1 8924   1.479   3.923   5.734
 2822SOL    HW2 8925   1.562   4.050   5.794
 2823SOL     OW 8926   0.319   4.534   6.535
 2823SOL    HW1 8927   0.412   4.570   6.540
 2823SOL    HW2 8928   0.313   4.449   6.587
 2824SOL     OW 8929   0.339   4.233   6.592
 2824SOL    HW1 8930   0.287   4.150   6.575
 2824SOL    HW2 8931   0.416   4.238   6.528
 2825SOL     OW 8932   1.138   4.104   7.264
 2825SOL    HW1 8933   1.093   4.167   7.328
 2825SOL    HW2 8934   1.231   4.135   7.247
 2826SOL     OW 8935   1.160   3.931   7.063
 2826SOL    HW1 8936   1.160   3.995   7.140
 2826SOL    HW2 8937   1.188   3.979   6.980
 2827SOL     OW 8938   0.040   4.268   6.700
 2827SOL    HW1 8939   0.125   4.235   6.659
 2827SOL    HW2 8940   0.053   4.283   6.798
 2828SOL     OW 8941   0.189   4.244   7.308
 2828SOL    HW1 8942   0.248   4.204   7.238
 2828SOL    HW2 8943   0.131   4.315   7.267
 2829SOL     OW 8944   0.815   4.296   5.911
 2829SOL    HW1 8945   0.822   4.207   5.865
 2829SOL    HW2 8946   0.721   4.330   5.903
 2830SOL     OW 8947   1.657   4.328   6.792
 2830SOL    HW1 8948   1.619   4.259   6.854
 2830SOL    HW2 8949   1.739   4.292   6.748
 2831SOL     OW 8950   0.671   4.188   6.855
 2831SOL    HW1 8951   0.637   4.099   6.825
 2831SOL    HW2 8952   0.697   4.242   6.775
 2832SOL     OW 8953   0.473   4.224   5.777
 2832SOL    HW1 8954   0.534   4.304   5.781
 2832SOL    HW2 8955   0.378   4.255   5.784
 2833SOL     OW 8956   1.726   3.859   6.109
 2833SOL    HW1 8957   1.799   3.842   6.042
 2833SOL    HW2 8958   1.695   3.772   6.147
 2834SOL     OW 8959   1.280   4.651   6.258
 2834SOL    HW1 8960   1.340   4.570   6.260
 2834SOL    HW2 8961   1.320   4.720   6.198
 2835SOL     OW 8962   1.841   3.899   6.549
 2835SOL    HW1 8963   1.880   3.814   6.513
 2835SOL    HW2 8964   1.743   3.901   6.530
 2836SOL     OW 8965   0.263   4.050   6.306
 2836SOL    HW1 8966   0.184   4.101   6.272
 2836SOL    HW2 8967   0.254   4.035   6.404
 2837SOL     OW 8968   0.916   4.634   5.877
 2837SOL    HW1 8969   0.979   4.672   5.809
 2837SOL    HW2 8970   0.956   4.551   5.916
 2838SOL     OW 8971   1.039   4.822   6.282
 2838SOL    HW1 8972   0.969   4.775   6.336
 2838SOL    HW2 8973   1.098   4.754   6.239
 2839SOL     OW 8974   1.014   3.960   6.557
 2839SOL    HW1 8975   1.006   3.924   6.464
 2839SOL    HW2 8976   1.012   3.884   6.622
 2840SOL     OW 8977   1.709   4.109   6.967
 2840SOL    HW1 8978   1.782   4.178   6.971
 2840SOL    HW2 8979   1.737   4.034   6.908
 2841SOL     OW 8980   0.672   3.927   7.075
 2841SOL    HW1 8981   0.762   3.911   7.035
 2841SOL    HW2 8982   0.680   3.932   7.174
 2842SOL     OW 8983   0.075   4.069   5.619
 2842SOL    HW1 8984  -0.017   4.041   5.590
 2842SOL    HW2 8985   0.106   4.146   5.563
 2843SOL     OW 8986   0.072   3.890   5.904
 2843SOL    HW1 8987   0.055   3.973   5.850
 2843SOL    HW2 8988   0.162   3.853   5.882
 2844SOL     OW 8989   0.716   4.289   7.294
 2844SOL    HW1 8990   0.735   4.354   7.368
 2844SOL    HW2 8991   0.776   4.209   7.303
 2845SOL     OW 8992   1.225   4.049   6.035
 2845SOL    HW1 8993   1.290   3.975   6.024
 2845SOL    HW2 8994   1.245   4.099   6.119
 2846SOL     OW 8995   1.777   4.066   7.228
 2846SOL    HW1 8996   1.760   4.097   7.134
 2846SOL    HW2 8997   1.693   4.029   7.266
 2847SOL     OW 8998   1.083   4.708   5.673
 2847SOL    HW1 8999   1.060   4.761   5.591
 2847SOL    HW2 9000   1.164   4.652   5.654
 2848SOL     OW 9001   1.824   3.916   6.813
 2848SOL    HW1 9002   1.820   3.826   6.857
 2848SOL    HW2 9003   1.827   3.905   6.714
 2849SOL     OW 9004   0.428   4.148   6.106
 2849SOL    HW1 9005   0.458   4.076   6.044
 2849SOL    HW2 9006   0.389   4.108   6.189
 2850SOL     OW 9007   0.317   4.271   6.866
 2850SOL    HW1 9008   0.355   4.212   6.938
 2850SOL    HW2 9009   0.357   4.245   6.778
 2851SOL     OW 9010   1.424   3.938   6.698
 2851SOL    HW1 9011   1.476   3.873   6.753
 2851SOL    HW2 9012   1.375   4.001   6.759
 2852SOL     OW 9013   1.001   3.758   6.740
 2852SOL    HW1 9014   0.938   3.686   6.709
 2852SOL    HW2 9015   1.094   3.722   6.740
 2853SOL     OW 9016   1.352   3.776   5.754
 2853SOL    HW1 9017   1.387   3.735   5.670
 2853SOL    HW2 9018   1.262   3.738   5.774
 2854SOL     OW 9019   1.300   4.177   6.277
 2854SOL    HW1 9020   1.241   4.257   6.281
 2854SOL    HW2 9021   1.315   4.142   6.370
 2855SOL     OW 9022   1.593   3.945   6.468
 2855SOL    HW1 9023   1.509   3.944   6.522
 2855SOL    HW2 9024   1.595   4.028   6.412
 2856SOL     OW 9025   0.230   4.352   7.561
 2856SOL    HW1 9026   0.137   4.350   7.598
 2856SOL    HW2 9027   0.231   4.313   7.469
 2857SOL     OW 9028   0.225   3.999   8.444
 2857SOL    HW1 9029   0.260   3.982   8.536
 2857SOL    HW2 9030   0.137   3.954   8.432
 2858SOL     OW 9031   0.019   4.092   8.095
 2858SOL    HW1 9032  -0.063   4.135   8.134
 2858SOL    HW2 9033  -0.009   4.019   8.032
 2859SOL     OW 9034   1.755   4.331   7.679
 2859SOL    HW1 9035   1.743   4.318   7.580
 2859SOL    HW2 9036   1.725   4.250   7.728
 2860SOL     OW 9037   0.685   4.736   8.113
 2860SOL    HW1 9038   0.754   4.720   8.183
 2860SOL    HW2 9039   0.612   4.793   8.151
 2861SOL     OW 9040   0.438   4.116   8.947
 2861SOL    HW1 9041   0.520   4.060   8.956
 2861SOL    HW2 9042   0.357   4.058   8.951
 2862SOL     OW 9043   1.603   4.171   8.185
 2862SOL    HW1 9044   1.529   4.217   8.135
 2862SOL    HW2 9045   1.654   4.239   8.238
 2863SOL     OW 9046   1.594   3.838   8.928
 2863SOL    HW1 9047   1.576   3.905   8.856
 2863SOL    HW2 9048   1.591   3.884   9.017
 2864SOL     OW 9049   0.122   4.367   8.011
 2864SOL    HW1 9050   0.077   4.279   8.028
 2864SOL    HW2 9051   0.121   4.421   8.095
 2865SOL     OW 9052   0.113   4.461   9.045
 2865SOL    HW1 9053   0.201   4.448   9.090
 2865SOL    HW2 9054   0.100   4.558   9.023
 2866SOL     OW 9055   0.809   3.728   7.950
 2866SOL    HW1 9056   0.849   3.819   7.941
 2866SOL    HW2 9057   0.709   3.736   7.956
 2867SOL     OW 9058   0.317   3.975   9.249
 2867SOL    HW1 9059   0.388   4.046   9.255
 2867SOL    HW2 9060   0.229   4.014   9.277
 2868SOL     OW 9061   1.281   4.069   8.392
 2868SOL    HW1 9062   1.195   4.019   8.379
 2868SOL    HW2 9063   1.343   4.015   8.448
 2869SOL     OW 9064   0.807   4.329   8.913
 2869SOL    HW1 9065   0.760   4.326   9.002
 2869SOL    HW2 9066   0.756   4.274   8.847
 2870SOL     OW 9067   1.394   4.193   9.122
 2870SOL    HW1 9068   1.374   4.236   9.210
 2870SOL    HW2 9069   1.472   4.131   9.131
 2871SOL     OW 9070   0.991   4.134   8.690
 2871SOL    HW1 9071   0.914   4.168   8.744
 2871SOL    HW2 9072   0.957   4.083   8.611
 2872SOL     OW 9073   1.041   4.425   7.877
 2872SOL    HW1 9074   1.067   4.421   7.973
 2872SOL    HW2 9075   0.956   4.374   7.863
 2873SOL     OW 9076   0.076   4.535   8.237
 2873SOL    HW1 9077   0.175   4.523   8.246
 2873SOL    HW2 9078   0.052   4.630   8.258
 2874SOL     OW 9079   0.865   4.072   7.643
 2874SOL    HW1 9080   0.924   4.135   7.594
 2874SOL    HW2 9081   0.884   3.978   7.614
 2875SOL     OW 9082   1.719   4.309   9.279
 2875SOL    HW1 9083   1.693   4.398   9.243
 2875SOL    HW2 9084   1.717   4.241   9.206
 2876SOL     OW 9085   0.550   3.920   8.333
 2876SOL    HW1 9086   0.545   3.915   8.433
 2876SOL    HW2 9087   0.552   4.016   8.304
 2877SOL     OW 9088   1.458   4.459   8.176
 2877SOL    HW1 9089   1.453   4.394   8.251
 2877SOL    HW2 9090   1.538   4.518   8.189
 2878SOL     OW 9091   0.202   4.009   8.946
 2878SOL    HW1 9092   0.122   4.069   8.933
 2878SOL    HW2 9093   0.192   3.960   9.032
 2879SOL     OW 9094   1.400   3.831   7.874
 2879SOL    HW1 9095   1.376   3.794   7.784
 2879SOL    HW2 9096   1.499   3.847   7.878
 2880SOL     OW 9097   0.382   4.424   7.928
 2880SOL    HW1 9098   0.427   4.334   7.925
 2880SOL    HW2 9099   0.288   4.413   7.961
 2881SOL     OW 9100   1.547   3.946   9.177
 2881SOL    HW1 9101   1.542   3.983   9.269
 2881SOL    HW2 9102   1.475   3.877   9.165
 2882SOL     OW 9103   0.614   3.846   7.565
 2882SOL    HW1 9104   0.712   3.824   7.572
 2882SOL    HW2 9105   0.583   3.829   7.472
 2883SOL     OW 9106   0.781   3.988   9.197
 2883SOL    HW1 9107   0.848   3.927   9.240
 2883SOL    HW2 9108   0.708   4.007   9.262
 2884SOL     OW 9109   1.351   4.314   8.881
 2884SOL    HW1 9110   1.379   4.271   8.966
 2884SOL    HW2 9111   1.376   4.410   8.882
 2885SOL     OW 9112   0.922   4.227   8.347
 2885SOL    HW1 9113   0.897   4.218   8.251
 2885SOL    HW2 9114   0.970   4.145   8.378
 2886SOL     OW 9115   0.539   3.788   7.960
 2886SOL    HW1 9116   0.458   3.789   8.018
 2886SOL    HW2 9117   0.542   3.871   7.905
 2887SOL     OW 9118   0.297   3.759   7.619
 2887SOL    HW1 9119   0.346   3.843   7.598
 2887SOL    HW2 9120   0.359   3.694   7.664
 2888SOL     OW 9121   0.935   3.960   7.928
 2888SOL    HW1 9122   0.887   4.001   7.850
 2888SOL    HW2 9123   1.034   3.958   7.909
 2889SOL     OW 9124   1.076   4.407   8.912
 2889SOL    HW1 9125   0.996   4.346   8.915
 2889SOL    HW2 9126   1.157   4.354   8.888
 2890SOL     OW 9127   1.032   4.273   7.464
 2890SOL    HW1 9128   0.991   4.355   7.425
 2890SOL    HW2 9129   1.096   4.299   7.537
 2891SOL     OW 9130   0.078   4.280   8.834
 2891SOL    HW1 9131   0.170   4.279   8.793
 2891SOL    HW2 9132   0.072   4.354   8.901
 2892SOL     OW 9133   0.561   3.946   8.595
 2892SOL    HW1 9134   0.599   3.862   8.632
 2892SOL    HW2 9135   0.473   3.965   8.639
 2893SOL     OW 9136   0.866   4.178   8.090
 2893SOL    HW1 9137   0.834   4.250   8.028
 2893SOL    HW2 9138   0.890   4.097   8.037
 2894SOL     OW 9139   1.017   3.763   8.201
 2894SOL    HW1 9140   0.945   3.768   8.132
 2894SOL    HW2 9141   0.993   3.694   8.270
 2895SOL     OW 9142   1.466   4.314   8.440
 2895SOL    HW1 9143   1.436   4.219   8.447
 2895SOL    HW2 9144   1.539   4.330   8.506
 2896SOL     OW 9145   1.390   4.299   7.526
 2896SOL    HW1 9146   1.336   4.278   7.607
 2896SOL    HW2 9147   1.481   4.258   7.535
 2897SOL     OW 9148   0.527   3.980   7.776
 2897SOL    HW1 9149   0.554   3.921   7.701
 2897SOL    HW2 9150   0.527   4.075   7.745
 2898SOL     OW 9151   0.915   3.813   8.850
 2898SOL    HW1 9152   0.940   3.793   8.755
 2898SOL    HW2 9153   0.987   3.869   8.892
 2899SOL     OW 9154   0.410   4.537   8.699
 2899SOL    HW1 9155   0.496   4.549   8.749
 2899SOL    HW2 9156   0.368   4.450   8.726
 2900SOL     OW 9157   1.274   4.110   8.710
 2900SOL    HW1 9158   1.295   4.184   8.774
 2900SOL    HW2 9159   1.185   4.127   8.667
 2901SOL     OW 9160   0.566   4.261   8.313
 2901SOL    HW1 9161   0.578   4.327   8.239
 2901SOL    HW2 9162   0.612   4.295   8.396
 2902SOL     OW 9163   1.582   4.363   7.920
 2902SOL    HW1 9164   1.551   4.424   7.993
 2902SOL    HW2 9165   1.632   4.415   7.851
 2903SOL     OW 9166   1.013   3.829   9.218
 2903SOL    HW1 9167   1.019   3.914   9.166
 2903SOL    HW2 9168   1.045   3.753   9.161
 2904SOL     OW 9169   0.504   3.774   9.188
 2904SOL    HW1 9170   0.462   3.717   9.118
 2904SOL    HW2 9171   0.438   3.843   9.220
 2905SOL     OW 9172   1.209   4.249   7.723
 2905SOL    HW1 9173   1.222   4.165   7.777
 2905SOL    HW2 9174   1.180   4.323   7.783
 2906SOL     OW 9175   0.307   3.937   8.679
 2906SOL    HW1 9176   0.284   3.974   8.769
 2906SOL    HW2 9177   0.277   3.842   8.673
 2907SOL     OW 9178   0.732   4.358   8.512
 2907SOL    HW1 9179   0.791   4.332   8.436
 2907SOL    HW2 9180   0.704   4.454   8.501
 2908SOL     OW 9181   1.728   4.659   9.302
 2908SOL    HW1 9182   1.682   4.652   9.213
 2908SOL    HW2 9183   1.666   4.703   9.368
 2909SOL     OW 9184   0.307   3.787   8.066
 2909SOL    HW1 9185   0.296   3.881   8.099
 2909SOL    HW2 9186   0.302   3.724   8.143
 2910SOL     OW 9187   1.622   4.091   7.822
 2910SOL    HW1 9188   1.624   4.015   7.886
 2910SOL    HW2 9189   1.574   4.168   7.862
 2911SOL     OW 9190   1.540   3.998   7.573
 2911SOL    HW1 9191   1.479   3.923   7.596
 2911SOL    HW2 9192   1.562   4.050   7.656
 2912SOL     OW 9193   0.319   4.534   8.397
 2912SOL    HW1 9194   0.412   4.570   8.402
 2912SOL    HW2 9195   0.313   4.449   8.449
 2913SOL     OW 9196   0.339   4.233   8.454
 2913SOL    HW1 9197   0.287   4.150   8.437
 2913SOL    HW2 9198   0.416   4.238   8.390
 2914SOL     OW 9199   1.138   4.104   9.126
 2914SOL    HW1 9200   1.093   4.167   9.190
 2914SOL    HW2 9201   1.231   4.135   9.109
 2915SOL     OW 9202   1.160   3.931   8.925
 2915SOL    HW1 9203   1.160   3.995   9.002
 2915SOL    HW2 9204   1.188   3.979   8.842
 2916SOL     OW 9205   0.040   4.268   8.562
 2916SOL    HW1 9206   0.125   4.235   8.521
 2916SOL    HW2 9207   0.053   4.283   8.660
 2917SOL     OW 9208   0.189   4.244   9.170
 2917SOL    HW1 9209   0.248   4.204   9.100
 2917SOL    HW2 9210   0.131   4.315   9.129
 2918SOL     OW 9211   0.815   4.296   7.773
 2918SOL    HW1 9212   0.822   4.207   7.727
 2918SOL    HW2 9213   0.721   4.330   7.765
 2919SOL     OW 9214   1.657   4.328   8.654
 2919SOL    HW1 9215   1.619   4.259   8.716
 2919SOL    HW2 9216   1.739   4.292   8.610
 2920SOL     OW 9217   0.671   4.188   8.717
 2920SOL    HW1 9218   0.637   4.099   8.687
 2920SOL    HW2 9219   0.697   4.242   8.637
 2921SOL     OW 9220   0.473   4.224   7.639
 2921SOL    HW1 9221   0.534   4.304   7.643
 2921SOL    HW2 9222   0.378   4.255   7.646
 2922SOL     OW 9223   1.726   3.859   7.971
 2922SOL    HW1 9224   1.799   3.842   7.904
 2922SOL    HW2 9225   1.695   3.772   8.009
 2923SOL     OW 9226   1.280   4.651   8.120
 2923SOL    HW1 9227   1.340   4.570   8.122
 2923SOL    HW2 9228   1.320   4.720   8.060
 2924SOL     OW 9229   1.841   3.899   8.411
 2924SOL    HW1 9230   1.880   3.814   8.375
 2924SOL    HW2 9231   1.743   3.901   8.392
 2925SOL     OW 9232   0.263   4.050   8.168
 2925SOL    HW1 9233   0.184   4.101   8.134
 2925SOL    HW2 9234   0.254   4.035   8.266
 2926SOL     OW 9235   0.916   4.634   7.739
 2926SOL    HW1 9236   0.979   4.672   7.671
 2926SOL    HW2 9237   0.956   4.551   7.778
 2927SOL     OW 9238   1.039   4.822   8.144
 2927SOL    HW1 9239   0.969   4.775   8.198
 2927SOL    HW2 9240   1.098   4.754   8.101
 2928SOL     OW 9241   1.014   3.960   8.419
 2928SOL    HW1 9242   1.006   3.924   8.326
 2928SOL    HW2 9243   1.012   3.884   8.484
 2929SOL     OW 9244   1.709   4.109   8.829
 2929SOL    HW1 9245   1.782   4.178   8.833
 2929SOL    HW2 9246   1.737   4.034   8.770
 2930SOL     OW 9247   0.672   3.927   8.937
 2930SOL    HW1 9248   0.762   3.911   8.897
 2930SOL    HW2 9249   0.680   3.932   9.036
 2931SOL     OW 9250   0.075   4.069   7.481
 2931SOL    HW1 9251  -0.017   4.041   7.452
 2931SOL    HW2 9252   0.106   4.146   7.425
 2932SOL     OW 9253   0.072   3.890   7.766
 2932SOL    HW1 9254   0.055   3.973   7.712
 2932SOL    HW2 9255   0.162   3.853   7.744
 2933SOL     OW 9256   0.716   4.289   9.156
 2933SOL    HW1 9257   0.735   4.354   9.230
 2933SOL    HW2 9258   0.776   4.209   9.165
 2934SOL     OW 9259   1.225   4.049   7.897
 2934SOL    HW1 9260   1.290   3.975   7.886
 2934SOL    HW2 9261   1.245   4.099   7.981
 2935SOL     OW 9262   1.777   4.066   9.090
 2935SOL    HW1 9263   1.760   4.097   8.996
 2935SOL    HW2 9264   1.693   4.029   9.128
 2936SOL     OW 9265   1.083   4.708   7.535
 2936SOL    HW1 9266   1.060   4.761   7.453
 2936SOL    HW2 9267   1.164   4.652   7.516
 2937SOL     OW 9268   1.824   3.916   8.675
 2937SOL    HW1 9269   1.820   3.826   8.719
 2937SOL    HW2 9270   1.827   3.905   8.576
 2938SOL     OW 9271   0.428   4.148   7.968
 2938SOL    HW1 9272   0.458   4.076   7.906
 2938SOL    HW2 9273   0.389   4.108   8.051
 2939SOL     OW 9274   0.317   4.271   8.728
 2939SOL    HW1 9275   0.355   4.212   8.800
 2939SOL    HW2 9276   0.357   4.245   8.640
 2940SOL     OW 9277   1.424   3.938   8.560
 2940SOL    HW1 9278   1.476   3.873   8.615
 2940SOL    HW2 9279   1.375   4.001   8.621
 2941SOL     OW 9280   1.001   3.758   8.602
 2941SOL    HW1 9281   0.938   3.686   8.571
 2941SOL    HW2 9282   1.094   3.722   8.602
 2942SOL     OW 9283   1.352   3.776   7.616
 2942SOL    HW1 9284   1.387   3.735   7.532
 2942SOL    HW2 9285   1.262   3.738   7.636
 2943SOL     OW 9286   1.300   4.177   8.139
 2943SOL    HW1 9287   1.241   4.257   8.143
 2943SOL    HW2 9288   1.315   4.142   8.232
 2944SOL     OW 9289   1.593   3.945   8.330
 2944SOL    HW1 9290   1.509   3.944   8.384
 2944SOL    HW2 9291   1.595   4.028   8.274
 2945SOL     OW 9292   0.230   4.352   9.423
 2945SOL    HW1 9293   0.137   4.350   9.460
 2945SOL    HW2 9294   0.231   4.313   9.331
 2946SOL     OW 9295   0.225   3.999  10.306
 2946SOL    HW1 9296   0.260   3.982  10.398
 2946SOL    HW2 9297   0.137   3.954  10.294
 2947SOL     OW 9298   0.019   4.092   9.957
 2947SOL    HW1 9299  -0.063   4.135   9.996
 2947SOL    HW2 9300  -0.009   4.019   9.894
 2948SOL     OW 9301   1.755   4.331   9.541
 2948SOL    HW1 9302   1.743   4.318   9.442
 2948SOL    HW2 9303   1.725   4.250   9.590
 2949SOL     OW 9304   0.685   4.736   9.975
 2949SOL    HW1 9305   0.754   4.720  10.045
 2949SOL    HW2 9306   0.612   4.793  10.013
 2950SOL     OW 9307   0.438   4.116  10.809
 2950SOL    HW1 9308   0.520   4.060  10.818
 2950SOL    HW2 9309   0.357   4.058  10.813
 2951SOL     OW 9310   1.603   4.171  10.047
 2951SOL    HW1 9311   1.529   4.217   9.997
 2951SOL    HW2 9312   1.654   4.239  10.100
 2952SOL     OW 9313   1.594   3.838  10.790
 2952SOL    HW1 9314   1.576   3.905  10.718
 2952SOL    HW2 9315   1.591   3.884  10.879
 2953SOL     OW 9316   0.122   4.367   9.873
 2953SOL    HW1 9317   0.077   4.279   9.890
 2953SOL    HW2 9318   0.121   4.421   9.957
 2954SOL     OW 9319   0.113   4.461  10.907
 2954SOL    HW1 9320   0.201   4.448  10.952
 2954SOL    HW2 9321   0.100   4.558  10.885
 2955SOL     OW 9322   0.809   3.728   9.812
 2955SOL    HW1 9323   0.849   3.819   9.803
 2955SOL    HW2 9324   0.709   3.736   9.818
 2956SOL     OW 9325   0.317   3.975  11.111
 2956SOL    HW1 9326   0.388   4.046  11.117
 2956SOL    HW2 9327   0.229   4.014  11.139
 2957SOL     OW 9328   1.281   4.069  10.254
 2957SOL    HW1 9329   1.195   4.019  10.241
 2957SOL    HW2 9330   1.343   4.015  10.310
 2958SOL     OW 9331   0.807   4.329  10.775
 2958SOL    HW1 9332   0.760   4.326  10.864
 2958SOL    HW2 9333   0.756   4.274  10.709
 2959SOL     OW 9334   0.991   4.134  10.552
 2959SOL    HW1 9335   0.914   4.168  10.606
 2959SOL    HW2 9336   0.957   4.083  10.473
 2960SOL     OW 9337   1.041   4.425   9.739
 2960SOL    HW1 9338   1.067   4.421   9.835
 2960SOL    HW2 9339   0.956   4.374   9.725
 2961SOL     OW 9340   0.076   4.535  10.099
 2961SOL    HW1 9341   0.175   4.523  10.108
 2961SOL    HW2 9342   0.052   4.630  10.120
 2962SOL     OW 9343   0.865   4.072   9.505
 2962SOL    HW1 9344   0.924   4.135   9.456
 2962SOL    HW2 9345   0.884   3.978   9.476
 2963SOL     OW 9346   0.550   3.920  10.195
 2963SOL    HW1 9347   0.545   3.915  10.295
 2963SOL    HW2 9348   0.552   4.016  10.166
 2964SOL     OW 9349   1.458   4.459  10.038
 2964SOL    HW1 9350   1.453   4.394  10.113
 2964SOL    HW2 9351   1.538   4.518  10.051
 2965SOL     OW 9352   0.202   4.009  10.808
 2965SOL    HW1 9353   0.122   4.069  10.795
 2965SOL    HW2 9354   0.192   3.960  10.894
 2966SOL     OW 9355   1.400   3.831   9.736
 2966SOL    HW1 9356   1.376   3.794   9.646
 2966SOL    HW2 9357   1.499   3.847   9.740
 2967SOL     OW 9358   0.382   4.424   9.790
 2967SOL    HW1 9359   0.427   4.334   9.787
 2967SOL    HW2 9360   0.288   4.413   9.823
 2968SOL     OW 9361   0.614   3.846   9.427
 2968SOL    HW1 9362   0.712   3.824   9.434
 2968SOL    HW2 9363   0.583   3.829   9.334
 2969SOL     OW 9364   0.781   3.988  11.059
 2969SOL    HW1 9365   0.848   3.927  11.102
 2969SOL    HW2 9366   0.708   4.007  11.124
 2970SOL     OW 9367   1.351   4.314  10.743
 2970SOL    HW1 9368   1.379   4.271  10.828
 2970SOL    HW2 9369   1.376   4.410  10.744
 2971SOL     OW 9370   0.922   4.227  10.209
 2971SOL    HW1 9371   0.897   4.218  10.113
 2971SOL    HW2 9372   0.970   4.145  10.240
 2972SOL     OW 9373   0.539   3.788   9.822
 2972SOL    HW1 9374   0.458   3.789   9.880
 2972SOL    HW2 9375   0.542   3.871   9.767
 2973SOL     OW 9376   0.297   3.759   9.481
 2973SOL    HW1 9377   0.346   3.843   9.460
 2973SOL    HW2 9378   0.359   3.694   9.526
 2974SOL     OW 9379   0.935   3.960   9.790
 2974SOL    HW1 9380   0.887   4.001   9.712
 2974SOL    HW2 9381   1.034   3.958   9.771
 2975SOL     OW 9382   1.076   4.407  10.774
 2975SOL    HW1 9383   0.996   4.346  10.777
 2975SOL    HW2 9384   1.157   4.354  10.750
 2976SOL     OW 9385   1.032   4.273   9.326
 2976SOL    HW1 9386   0.991   4.355   9.287
 2976SOL    HW2 9387   1.096   4.299   9.399
 2977SOL     OW 9388   0.078   4.280  10.696
 2977SOL    HW1 9389   0.170   4.279  10.655
 2977SOL    HW2 9390   0.072   4.354  10.763
 2978SOL     OW 9391   0.561   3.946  10.457
 2978SOL    HW1 9392   0.599   3.862  10.494
 2978SOL    HW2 9393   0.473   3.965  10.501
 2979SOL     OW 9394   0.866   4.178   9.952
 2979SOL    HW1 9395   0.834   4.250   9.890
 2979SOL    HW2 9396   0.890   4.097   9.899
 2980SOL     OW 9397   1.017   3.763  10.063
 2980SOL    HW1 9398   0.945   3.768   9.994
 2980SOL    HW2 9399   0.993   3.694  10.132
 2981SOL     OW 9400   1.466   4.314  10.302
 2981SOL    HW1 9401   1.436   4.219  10.309
 2981SOL    HW2 9402   1.539   4.330  10.368
 2982SOL     OW 9403   1.390   4.299   9.388
 2982SOL    HW1 9404   1.336   4.278   9.469
 2982SOL    HW2 9405   1.481   4.258   9.397
 2983SOL     OW 9406   0.527   3.980   9.638
 2983SOL    HW1 9407   0.554   3.921   9.563
 2983SOL    HW2 9408   0.527   4.075   9.607
 2984SOL     OW 9409   0.915   3.813  10.712
 2984SOL    HW1 9410   0.940   3.793  10.617
 2984SOL    HW2 9411   0.987   3.869  10.754
 2985SOL     OW 9412   0.410   4.537  10.561
 2985SOL    HW1 9413   0.496   4.549  10.611
 2985SOL    HW2 9414   0.368   4.450  10.588
 2986SOL     OW 9415   1.274   4.110  10.572
 2986SOL    HW1 9416   1.295   4.184  10.636
 2986SOL    HW2 9417   1.185   4.127  10.529
 2987SOL     OW 9418   0.566   4.261  10.175
 2987SOL    HW1 9419   0.578   4.327  10.101
 2987SOL    HW2 9420   0.612   4.295  10.258
 2988SOL     OW 9421   1.582   4.363   9.782
 2988SOL    HW1 9422   1.551   4.424   9.855
 2988SOL    HW2 9423   1.632   4.415   9.713
 2989SOL     OW 9424   0.402   4.475  10.908
 2989SOL    HW1 9425   0.470   4.530  10.861
 2989SOL    HW2 9426   0.442   4.387  10.935
 2990SOL     OW 9427   1.209   4.249   9.585
 2990SOL    HW1 9428   1.222   4.165   9.639
 2990SOL    HW2 9429   1.180   4.323   9.645
 2991SOL     OW 9430   0.307   3.937  10.541
 2991SOL    HW1 9431   0.284   3.974  10.631
 2991SOL    HW2 9432   0.277   3.842  10.535
 2992SOL     OW 9433   0.732   4.358  10.374
 2992SOL    HW1 9434   0.791   4.332  10.298
 2992SOL    HW2 9435   0.704   4.454  10.363
 2993SOL     OW 9436   0.307   3.787   9.928
 2993SOL    HW1 9437   0.296   3.881   9.961
 2993SOL    HW2 9438   0.302   3.724  10.005
 2994SOL     OW 9439   1.622   4.091   9.684
 2994SOL    HW1 9440   1.624   4.015   9.748
 2994SOL    HW2 9441   1.574   4.168   9.724
 2995SOL     OW 9442   1.540   3.998   9.435
 2995SOL    HW1 9443   1.479   3.923   9.458
 2995SOL    HW2 9444   1.562   4.050   9.518
 2996SOL     OW 9445   0.319   4.534  10.259
 2996SOL    HW1 9446   0.412   4.570  10.264
 2996SOL    HW2 9447   0.313   4.449  10.311
 2997SOL     OW 9448   0.339   4.233  10.316
 2997SOL    HW1 9449   0.287   4.150  10.299
 2997SOL    HW2 9450   0.416   4.238  10.252
 2998SOL     OW 9451   1.160   3.931  10.787
 2998SOL    HW1 9452   1.160   3.995  10.864
 2998SOL    HW2 9453   1.188   3.979  10.704
 2999SOL     OW 9454   0.040   4.268  10.424
 2999SOL    HW1 9455   0.125   4.235  10.383
 2999SOL    HW2 9456   0.053   4.283  10.522
 3000SOL     OW 9457   1.369   4.674  10.970
 3000SOL    HW1 9458   1.408   4.763  10.990
 3000SOL    HW2 9459   1.379   4.654  10.873
 3001SOL     OW 9460   0.815   4.296   9.635
 3001SOL    HW1 9461   0.822   4.207   9.589
 3001SOL    HW2 9462   0.721   4.330   9.627
 3002SOL     OW 9463   1.657   4.328  10.516
 3002SOL    HW1 9464   1.619   4.259  10.578
 3002SOL    HW2 9465   1.739   4.292  10.472
 3003SOL     OW 9466   0.671   4.188  10.579
 3003SOL    HW1 9467   0.637   4.099  10.549
 3003SOL    HW2 9468   0.697   4.242  10.499
 3004SOL     OW 9469   0.473   4.224   9.501
 3004SOL    HW1 9470   0.534   4.304   9.505
 3004SOL    HW2 9471   0.378   4.255   9.508
 3005SOL     OW 9472   1.726   3.859   9.833
 3005SOL    HW1 9473   1.799   3.842   9.766
 3005SOL    HW2 9474   1.695   3.772   9.871
 3006SOL     OW 9475   1.280   4.651   9.982
 3006SOL    HW1 9476   1.340   4.570   9.984
 3006SOL    HW2 9477   1.320   4.720   9.922
 3007SOL     OW 9478   1.841   3.899  10.273
 3007SOL    HW1 9479   1.880   3.814  10.237
 3007SOL    HW2 9480   1.743   3.901  10.254
 3008SOL     OW 9481   0.263   4.050  10.030
 3008SOL    HW1 9482   0.184   4.101   9.996
 3008SOL    HW2 9483   0.254   4.035  10.128
 3009SOL     OW 9484   0.916   4.634   9.601
 3009SOL    HW1 9485   0.979   4.672   9.533
 3009SOL    HW2 9486   0.956   4.551   9.640
 3010SOL     OW 9487   1.039   4.822  10.006
 3010SOL    HW1 9488   0.969   4.775  10.060
 3010SOL    HW2 9489   1.098   4.754   9.963
 3011SOL     OW 9490   1.014   3.960  10.281
 3011SOL    HW1 9491   1.006   3.924  10.188
 3011SOL    HW2 9492   1.012   3.884  10.346
 3012SOL     OW 9493   1.709   4.109  10.691
 3012SOL    HW1 9494   1.782   4.178  10.695
 3012SOL    HW2 9495   1.737   4.034  10.632
 3013SOL     OW 9496   0.672   3.927  10.799
 3013SOL    HW1 9497   0.762   3.911  10.759
 3013SOL    HW2 9498   0.680   3.932  10.898
 3014SOL     OW 9499   0.075   4.069   9.343
 3014SOL    HW1 9500  -0.017   4.041   9.314
 3014SOL    HW2 9501   0.106   4.146   9.287
 3015SOL     OW 9502   0.072   3.890   9.628
 3015SOL    HW1 9503   0.055   3.973   9.574
 3015SOL    HW2 9504   0.162   3.853   9.606
 3016SOL     OW 9505   0.716   4.289  11.018
 3016SOL    HW1 9506   0.735   4.354  11.092
 3016SOL    HW2 9507   0.776   4.209  11.027
 3017SOL     OW 9508   1.225   4.049   9.759
 3017SOL    HW1 9509   1.290   3.975   9.748
 3017SOL    HW2 9510   1.245   4.099   9.843
 3018SOL     OW 9511   1.777   4.066  10.952
 3018SOL    HW1 9512   1.760   4.097  10.858
 3018SOL    HW2 9513   1.693   4.029  10.990
 3019SOL     OW 9514   1.083   4.708   9.397
 3019SOL    HW1 9515   1.060   4.761   9.315
 3019SOL    HW2 9516   1.164   4.652   9.378
 3020SOL     OW 9517   1.824   3.916  10.537
 3020SOL    HW1 9518   1.820   3.826  10.581
 3020SOL    HW2 9519   1.827   3.905  10.438
 3021SOL     OW 9520   0.428   4.148   9.830
 3021SOL    HW1 9521   0.458   4.076   9.768
 3021SOL    HW2 9522   0.389   4.108   9.913
 3022SOL     OW 9523   0.317   4.271  10.590
 3022SOL    HW1 9524   0.355   4.212  10.662
 3022SOL    HW2 9525   0.357   4.245  10.502
 3023SOL     OW 9526   1.424   3.938  10.422
 3023SOL    HW1 9527   1.476   3.873  10.477
 3023SOL    HW2 9528   1.375   4.001  10.483
 3024SOL     OW 9529   1.001   3.758  10.464
 3024SOL    HW1 9530   0.938   3.686  10.433
 3024SOL    HW2 9531   1.094   3.722  10.464
 3025SOL     OW 9532   1.352   3.776   9.478
 3025SOL    HW1 9533   1.387   3.735   9.394
 3025SOL    HW2 9534   1.262   3.738   9.498
 3026SOL     OW 9535   1.300   4.177  10.001
 3026SOL    HW1 9536   1.241   4.257  10.005
 3026SOL    HW2 9537   1.315   4.142  10.094
 3027SOL     OW 9538   1.593   3.945  10.192
 3027SOL    HW1 9539   1.509   3.944  10.246
 3027SOL    HW2 9540   1.595   4.028  10.136
 3028SOL     OW 9541   2.092   0.628   0.113
 3028SOL    HW1 9542   1.999   0.626   0.150
 3028SOL    HW2 9543   2.093   0.589   0.021
 3029SOL     OW 9544   2.087   0.275   0.996
 3029SOL    HW1 9545   2.122   0.258   1.088
 3029SOL    HW2 9546   1.999   0.230   0.984
 3030SOL     OW 9547   1.881   0.368   0.647
 3030SOL    HW1 9548   1.799   0.411   0.686
 3030SOL    HW2 9549   1.853   0.295   0.584
 3031SOL     OW 9550   2.431   1.275   1.165
 3031SOL    HW1 9551   2.338   1.268   1.128
 3031SOL    HW2 9552   2.442   1.364   1.209
 3032SOL     OW 9553   3.417   1.511   0.703
 3032SOL    HW1 9554   3.360   1.495   0.784
 3032SOL    HW2 9555   3.358   1.521   0.623
 3033SOL     OW 9556   2.997   0.703   0.717
 3033SOL    HW1 9557   3.054   0.781   0.692
 3033SOL    HW2 9558   2.937   0.729   0.793
 3034SOL     OW 9559   3.617   0.607   0.231
 3034SOL    HW1 9560   3.605   0.594   0.132
 3034SOL    HW2 9561   3.587   0.526   0.280
 3035SOL     OW 9562   2.630   1.144   1.023
 3035SOL    HW1 9563   2.552   1.161   1.083
 3035SOL    HW2 9564   2.664   1.231   0.987
 3036SOL     OW 9565   2.712   0.798   1.823
 3036SOL    HW1 9566   2.708   0.874   1.888
 3036SOL    HW2 9567   2.734   0.834   1.732
 3037SOL     OW 9568   2.547   1.012   0.665
 3037SOL    HW1 9569   2.616   0.996   0.735
 3037SOL    HW2 9570   2.474   1.069   0.703
 3038SOL     OW 9571   2.548   1.161   1.803
 3038SOL    HW1 9572   2.608   1.240   1.817
 3038SOL    HW2 9573   2.462   1.192   1.762
 3039SOL     OW 9574   2.197   1.435   1.061
 3039SOL    HW1 9575   2.119   1.404   1.008
 3039SOL    HW2 9576   2.255   1.493   1.004
 3040SOL     OW 9577   3.322   1.505   1.339
 3040SOL    HW1 9578   3.346   1.599   1.365
 3040SOL    HW2 9579   3.306   1.451   1.421
 3041SOL     OW 9580   2.300   0.392   1.499
 3041SOL    HW1 9581   2.382   0.336   1.508
 3041SOL    HW2 9582   2.219   0.334   1.503
 3042SOL     OW 9583   3.465   0.447   0.737
 3042SOL    HW1 9584   3.391   0.493   0.687
 3042SOL    HW2 9585   3.516   0.515   0.790
 3043SOL     OW 9586   2.093   1.713   0.483
 3043SOL    HW1 9587   2.127   1.790   0.537
 3043SOL    HW2 9588   2.137   1.713   0.393
 3044SOL     OW 9589   2.989   1.341   1.690
 3044SOL    HW1 9590   3.036   1.341   1.778
 3044SOL    HW2 9591   2.941   1.254   1.679
 3045SOL     OW 9592   2.092   1.434   0.538
 3045SOL    HW1 9593   2.066   1.530   0.538
 3045SOL    HW2 9594   2.021   1.380   0.583
 3046SOL     OW 9595   2.102   1.091   0.886
 3046SOL    HW1 9596   2.116   1.007   0.938
 3046SOL    HW2 9597   2.047   1.155   0.941
 3047SOL     OW 9598   2.482   1.786   1.439
 3047SOL    HW1 9599   2.390   1.769   1.474
 3047SOL    HW2 9600   2.510   1.878   1.465
 3048SOL     OW 9601   2.468   0.964   0.123
 3048SOL    HW1 9602   2.475   1.048   0.069
 3048SOL    HW2 9603   2.514   0.977   0.211
 3049SOL     OW 9604   3.456   0.114   1.480
 3049SOL    HW1 9605   3.438   0.181   1.408
 3049SOL    HW2 9606   3.453   0.160   1.569
 3050SOL     OW 9607   1.984   0.643   0.563
 3050SOL    HW1 9608   1.939   0.555   0.580
 3050SOL    HW2 9609   1.983   0.697   0.647
 3051SOL     OW 9610   3.704   1.767   0.359
 3051SOL    HW1 9611   3.758   1.738   0.439
 3051SOL    HW2 9612   3.734   1.857   0.330
 3052SOL     OW 9613   1.889   1.596   0.117
 3052SOL    HW1 9614   1.870   1.500   0.138
 3052SOL    HW2 9615   1.856   1.654   0.192
 3053SOL     OW 9616   3.551   0.922   0.612
 3053SOL    HW1 9617   3.646   0.893   0.620
 3053SOL    HW2 9618   3.543   0.987   0.537
 3054SOL     OW 9619   3.503   1.108   0.432
 3054SOL    HW1 9620   3.589   1.110   0.380
 3054SOL    HW2 9621   3.517   1.155   0.520
 3055SOL     OW 9622   1.975   0.737   1.597
 3055SOL    HW1 9623   2.063   0.724   1.642
 3055SOL    HW2 9624   1.962   0.834   1.575
 3056SOL     OW 9625   2.475   1.365   0.726
 3056SOL    HW1 9626   2.426   1.278   0.735
 3056SOL    HW2 9627   2.452   1.408   0.639
 3057SOL     OW 9628   3.155   1.228   1.423
 3057SOL    HW1 9629   3.192   1.155   1.365
 3057SOL    HW2 9630   3.207   1.233   1.508
 3058SOL     OW 9631   2.671   0.004   0.502
 3058SOL    HW1 9632   2.711   0.095   0.493
 3058SOL    HW2 9633   2.571   0.012   0.508
 3059SOL     OW 9634   2.059   0.976   1.264
 3059SOL    HW1 9635   2.148   0.931   1.250
 3059SOL    HW2 9636   1.986   0.911   1.245
 3060SOL     OW 9637   3.387   0.999   0.190
 3060SOL    HW1 9638   3.324   0.923   0.203
 3060SOL    HW2 9639   3.435   1.017   0.276
 3061SOL     OW 9640   3.049   1.792   1.616
 3061SOL    HW1 9641   3.073   1.852   1.540
 3061SOL    HW2 9642   3.056   1.697   1.586
 3062SOL     OW 9643   2.179   0.251   1.801
 3062SOL    HW1 9644   2.250   0.322   1.807
 3062SOL    HW2 9645   2.091   0.290   1.829
 3063SOL     OW 9646   3.328   1.417   0.953
 3063SOL    HW1 9647   3.269   1.423   1.033
 3063SOL    HW2 9648   3.313   1.329   0.907
 3064SOL     OW 9649   3.529   1.714   0.572
 3064SOL    HW1 9650   3.488   1.691   0.484
 3064SOL    HW2 9651   3.511   1.640   0.637
 3065SOL     OW 9652   2.460   0.729   0.270
 3065SOL    HW1 9653   2.484   0.798   0.202
 3065SOL    HW2 9654   2.382   0.762   0.324
 3066SOL     OW 9655   3.143   0.345   0.944
 3066SOL    HW1 9656   3.057   0.295   0.931
 3066SOL    HW2 9657   3.205   0.291   1.000
 3067SOL     OW 9658   3.438   1.662   0.307
 3067SOL    HW1 9659   3.527   1.708   0.310
 3067SOL    HW2 9660   3.417   1.638   0.212
 3068SOL     OW 9661   2.669   0.605   1.465
 3068SOL    HW1 9662   2.622   0.602   1.554
 3068SOL    HW2 9663   2.618   0.550   1.399
 3069SOL     OW 9664   3.256   0.469   1.674
 3069SOL    HW1 9665   3.236   0.512   1.762
 3069SOL    HW2 9666   3.334   0.407   1.683
 3070SOL     OW 9667   2.835   0.890   1.572
 3070SOL    HW1 9668   2.881   0.806   1.543
 3070SOL    HW2 9669   2.779   0.924   1.497
 3071SOL     OW 9670   2.853   0.410   1.242
 3071SOL    HW1 9671   2.776   0.444   1.296
 3071SOL    HW2 9672   2.819   0.359   1.163
 3072SOL     OW 9673   2.903   0.701   0.429
 3072SOL    HW1 9674   2.929   0.697   0.525
 3072SOL    HW2 9675   2.818   0.650   0.415
 3073SOL     OW 9676   1.938   0.811   0.789
 3073SOL    HW1 9677   2.037   0.799   0.798
 3073SOL    HW2 9678   1.914   0.906   0.810
 3074SOL     OW 9679   1.992   1.821   1.571
 3074SOL    HW1 9680   1.982   1.806   1.670
 3074SOL    HW2 9681   1.906   1.857   1.535
 3075SOL     OW 9682   2.727   0.348   0.195
 3075SOL    HW1 9683   2.786   0.411   0.146
 3075SOL    HW2 9684   2.746   0.254   0.166
 3076SOL     OW 9685   3.581   0.585   1.831
 3076SOL    HW1 9686   3.555   0.674   1.795
 3076SOL    HW2 9687   3.579   0.517   1.758
 3077SOL     OW 9688   3.224   1.144   0.545
 3077SOL    HW1 9689   3.307   1.115   0.497
 3077SOL    HW2 9690   3.175   1.211   0.489
 3078SOL     OW 9691   2.412   0.196   0.885
 3078SOL    HW1 9692   2.407   0.191   0.985
 3078SOL    HW2 9693   2.414   0.292   0.856
 3079SOL     OW 9694   2.870   1.456   0.477
 3079SOL    HW1 9695   2.824   1.528   0.425
 3079SOL    HW2 9696   2.866   1.476   0.575
 3080SOL     OW 9697   2.213   1.801   0.853
 3080SOL    HW1 9698   2.263   1.715   0.859
 3080SOL    HW2 9699   2.278   1.878   0.850
 3081SOL     OW 9700   3.657   1.066   0.873
 3081SOL    HW1 9701   3.595   1.051   0.797
 3081SOL    HW2 9702   3.605   1.077   0.958
 3082SOL     OW 9703   3.089   1.550   1.506
 3082SOL    HW1 9704   3.095   1.473   1.570
 3082SOL    HW2 9705   3.037   1.524   1.426
 3083SOL     OW 9706   2.183   0.943   0.242
 3083SOL    HW1 9707   2.265   0.982   0.200
 3083SOL    HW2 9708   2.156   0.861   0.193
 3084SOL     OW 9709   3.320   0.735   0.728
 3084SOL    HW1 9710   3.315   0.670   0.803
 3084SOL    HW2 9711   3.400   0.794   0.741
 3085SOL     OW 9712   2.323   1.266   1.727
 3085SOL    HW1 9713   2.273   1.267   1.641
 3085SOL    HW2 9714   2.260   1.248   1.803
 3086SOL     OW 9715   2.973   1.776   0.237
 3086SOL    HW1 9716   2.913   1.714   0.287
 3086SOL    HW2 9717   3.004   1.732   0.152
 3087SOL     OW 9718   2.064   0.285   1.498
 3087SOL    HW1 9719   1.984   0.345   1.485
 3087SOL    HW2 9720   2.054   0.236   1.584
 3088SOL     OW 9721   3.494   1.377   0.081
 3088SOL    HW1 9722   3.462   1.471   0.071
 3088SOL    HW2 9723   3.418   1.314   0.069
 3089SOL     OW 9724   2.326   1.743   0.323
 3089SOL    HW1 9725   2.359   1.782   0.409
 3089SOL    HW2 9726   2.402   1.736   0.258
 3090SOL     OW 9727   3.262   0.107   0.426
 3090SOL    HW1 9728   3.238   0.070   0.336
 3090SOL    HW2 9729   3.361   0.123   0.430
 3091SOL     OW 9730   2.111   1.785   1.241
 3091SOL    HW1 9731   2.168   1.720   1.291
 3091SOL    HW2 9732   2.095   1.752   1.148
 3092SOL     OW 9733   2.802   1.698   0.904
 3092SOL    HW1 9734   2.882   1.641   0.925
 3092SOL    HW2 9735   2.753   1.658   0.827
 3093SOL     OW 9736   2.244   0.700   0.480
 3093SOL    HW1 9737   2.289   0.610   0.477
 3093SOL    HW2 9738   2.150   0.689   0.513
 3094SOL     OW 9739   3.409   0.222   1.729
 3094SOL    HW1 9740   3.404   0.259   1.821
 3094SOL    HW2 9741   3.337   0.153   1.717
 3095SOL     OW 9742   2.476   0.122   0.117
 3095SOL    HW1 9743   2.574   0.100   0.124
 3095SOL    HW2 9744   2.445   0.105   0.024
 3096SOL     OW 9745   2.643   0.264   1.749
 3096SOL    HW1 9746   2.710   0.203   1.792
 3096SOL    HW2 9747   2.570   0.283   1.814
 3097SOL     OW 9748   2.750   1.514   1.195
 3097SOL    HW1 9749   2.727   1.489   1.101
 3097SOL    HW2 9750   2.811   1.445   1.234
 3098SOL     OW 9751   3.213   0.590   1.433
 3098SOL    HW1 9752   3.241   0.547   1.518
 3098SOL    HW2 9753   3.238   0.686   1.434
 3099SOL     OW 9754   2.665   1.402   0.924
 3099SOL    HW1 9755   2.755   1.416   0.882
 3099SOL    HW2 9756   2.594   1.404   0.853
 3100SOL     OW 9757   2.784   0.503   0.899
 3100SOL    HW1 9758   2.759   0.494   0.803
 3100SOL    HW2 9759   2.832   0.421   0.930
 3101SOL     OW 9760   2.401   0.064   0.512
 3101SOL    HW1 9761   2.320   0.065   0.570
 3101SOL    HW2 9762   2.404   0.147   0.457
 3102SOL     OW 9763   3.296   1.188   0.041
 3102SOL    HW1 9764   3.328   1.112   0.098
 3102SOL    HW2 9765   3.204   1.215   0.071
 3103SOL     OW 9766   2.159   0.035   0.171
 3103SOL    HW1 9767   2.208   0.119   0.150
 3103SOL    HW2 9768   2.221  -0.030   0.216
 3104SOL     OW 9769   2.797   0.236   0.480
 3104SOL    HW1 9770   2.749   0.277   0.402
 3104SOL    HW2 9771   2.896   0.234   0.461
 3105SOL     OW 9772   2.938   0.683   1.464
 3105SOL    HW1 9773   2.858   0.622   1.467
 3105SOL    HW2 9774   3.019   0.630   1.440
 3106SOL     OW 9775   3.089   1.570   0.793
 3106SOL    HW1 9776   3.110   1.644   0.728
 3106SOL    HW2 9777   3.157   1.570   0.866
 3107SOL     OW 9778   2.321   1.152   0.741
 3107SOL    HW1 9779   2.250   1.125   0.806
 3107SOL    HW2 9780   2.295   1.124   0.648
 3108SOL     OW 9781   3.133   1.797   0.591
 3108SOL    HW1 9782   3.177   1.861   0.527
 3108SOL    HW2 9783   3.083   1.849   0.661
 3109SOL     OW 9784   2.894   0.549   0.016
 3109SOL    HW1 9785   2.853   0.631  -0.023
 3109SOL    HW2 9786   2.958   0.575   0.089
 3110SOL     OW 9787   1.940   0.556   1.386
 3110SOL    HW1 9788   2.032   0.555   1.345
 3110SOL    HW2 9789   1.934   0.630   1.453
 3111SOL     OW 9790   2.423   0.222   1.147
 3111SOL    HW1 9791   2.461   0.138   1.184
 3111SOL    HW2 9792   2.335   0.241   1.191
 3112SOL     OW 9793   2.728   0.454   0.642
 3112SOL    HW1 9794   2.696   0.526   0.580
 3112SOL    HW2 9795   2.752   0.373   0.589
 3113SOL     OW 9796   2.879   0.039   0.753
 3113SOL    HW1 9797   2.807   0.044   0.684
 3113SOL    HW2 9798   2.855  -0.030   0.822
 3114SOL     OW 9799   3.291   1.173   0.867
 3114SOL    HW1 9800   3.236   1.089   0.860
 3114SOL    HW2 9801   3.317   1.202   0.775
 3115SOL     OW 9802   3.328   0.590   0.992
 3115SOL    HW1 9803   3.298   0.495   0.999
 3115SOL    HW2 9804   3.401   0.606   1.058
 3116SOL     OW 9805   3.719   0.833   0.377
 3116SOL    HW1 9806   3.761   0.769   0.441
 3116SOL    HW2 9807   3.681   0.782   0.299
 3117SOL     OW 9808   2.350   1.385   0.174
 3117SOL    HW1 9809   2.263   1.370   0.221
 3117SOL    HW2 9810   2.333   1.411   0.079
 3118SOL     OW 9811   3.526   1.280   0.657
 3118SOL    HW1 9812   3.625   1.288   0.671
 3118SOL    HW2 9813   3.481   1.364   0.688
 3119SOL     OW 9814   3.252   0.575   0.078
 3119SOL    HW1 9815   3.198   0.554   0.159
 3119SOL    HW2 9816   3.343   0.534   0.087
 3120SOL     OW 9817   2.389   0.256   0.328
 3120SOL    HW1 9818   2.416   0.197   0.253
 3120SOL    HW2 9819   2.389   0.351   0.297
 3121SOL     OW 9820   3.616   1.223   1.588
 3121SOL    HW1 9821   3.707   1.184   1.575
 3121SOL    HW2 9822   3.624   1.319   1.612
 3122SOL     OW 9823   2.926   1.347   1.340
 3122SOL    HW1 9824   2.846   1.324   1.395
 3122SOL    HW2 9825   3.009   1.321   1.389
 3123SOL     OW 9826   3.454   1.629   1.625
 3123SOL    HW1 9827   3.481   1.663   1.535
 3123SOL    HW2 9828   3.533   1.591   1.671
 3124SOL     OW 9829   2.973   1.195   1.100
 3124SOL    HW1 9830   2.933   1.239   1.181
 3124SOL    HW2 9831   2.932   1.232   1.017
 3125SOL     OW 9832   3.500   1.099   1.079
 3125SOL    HW1 9833   3.505   1.180   1.138
 3125SOL    HW2 9834   3.414   1.101   1.028
 3126SOL     OW 9835   2.777   0.089   1.402
 3126SOL    HW1 9836   2.802   0.069   1.307
 3126SOL    HW2 9837   2.849   0.145   1.444
 3127SOL     OW 9838   2.842   1.116   1.719
 3127SOL    HW1 9839   2.743   1.122   1.729
 3127SOL    HW2 9840   2.865   1.036   1.663
 3128SOL     OW 9841   2.567   1.050   0.368
 3128SOL    HW1 9842   2.553   1.057   0.467
 3128SOL    HW2 9843   2.651   0.999   0.350
 3129SOL     OW 9844   2.272   0.813   1.251
 3129SOL    HW1 9845   2.358   0.825   1.301
 3129SOL    HW2 9846   2.230   0.726   1.278
 3130SOL     OW 9847   3.136   0.386   1.262
 3130SOL    HW1 9848   3.157   0.460   1.326
 3130SOL    HW2 9849   3.047   0.403   1.219
 3131SOL     OW 9850   1.926   1.564   1.331
 3131SOL    HW1 9851   1.880   1.646   1.297
 3131SOL    HW2 9852   2.024   1.583   1.340
 3132SOL     OW 9853   2.229   1.100   0.501
 3132SOL    HW1 9854   2.222   1.183   0.445
 3132SOL    HW2 9855   2.233   1.020   0.441
 3133SOL     OW 9856   2.428   0.537   0.865
 3133SOL    HW1 9857   2.440   0.603   0.791
 3133SOL    HW2 9858   2.474   0.571   0.948
 3134SOL     OW 9859   3.114   1.348   0.388
 3134SOL    HW1 9860   3.164   1.425   0.428
 3134SOL    HW2 9861   3.019   1.350   0.420
 3135SOL     OW 9862   3.134   1.445   1.142
 3135SOL    HW1 9863   3.181   1.458   1.229
 3135SOL    HW2 9864   3.068   1.371   1.151
 3136SOL     OW 9865   3.444   0.639   0.472
 3136SOL    HW1 9866   3.413   0.700   0.545
 3136SOL    HW2 9867   3.494   0.691   0.403
 3137SOL     OW 9868   2.216   1.510   1.329
 3137SOL    HW1 9869   2.195   1.466   1.242
 3137SOL    HW2 9870   2.313   1.536   1.332
 3138SOL     OW 9871   2.264   0.751   1.598
 3138SOL    HW1 9872   2.332   0.806   1.551
 3138SOL    HW2 9873   2.304   0.663   1.625
 3139SOL     OW 9874   3.449   0.779   1.670
 3139SOL    HW1 9875   3.357   0.817   1.665
 3139SOL    HW2 9876   3.509   0.826   1.605
 3140SOL     OW 9877   2.875   0.105   1.770
 3140SOL    HW1 9878   2.881   0.190   1.718
 3140SOL    HW2 9879   2.907   0.029   1.713
 3141SOL     OW 9880   2.366   0.050   1.740
 3141SOL    HW1 9881   2.324  -0.007   1.670
 3141SOL    HW2 9882   2.300   0.119   1.772
 3142SOL     OW 9883   2.435   0.870   1.029
 3142SOL    HW1 9884   2.479   0.959   1.020
 3142SOL    HW2 9885   2.372   0.870   1.106
 3143SOL     OW 9886   3.222   0.862   1.045
 3143SOL    HW1 9887   3.147   0.862   0.979
 3143SOL    HW2 9888   3.259   0.770   1.054
 3144SOL     OW 9889   3.071   0.525   0.275
 3144SOL    HW1 9890   3.084   0.441   0.329
 3144SOL    HW2 9891   3.042   0.599   0.335
 3145SOL     OW 9892   2.169   0.213   1.231
 3145SOL    HW1 9893   2.146   0.250   1.321
 3145SOL    HW2 9894   2.139   0.118   1.225
 3146SOL     OW 9895   1.899   1.310   1.282
 3146SOL    HW1 9896   1.952   1.261   1.350
 3146SOL    HW2 9897   1.921   1.408   1.287
 3147SOL     OW 9898   2.594   0.634   1.064
 3147SOL    HW1 9899   2.653   0.608   0.988
 3147SOL    HW2 9900   2.566   0.730   1.053
 3148SOL     OW 9901   3.590   0.935   1.854
 3148SOL    HW1 9902   3.544   0.928   1.765
 3148SOL    HW2 9903   3.528   0.979   1.920
 3149SOL     OW 9904   2.169   0.063   0.618
 3149SOL    HW1 9905   2.158   0.157   0.651
 3149SOL    HW2 9906   2.164   0.000   0.695
 3150SOL     OW 9907   3.484   0.367   0.374
 3150SOL    HW1 9908   3.486   0.291   0.438
 3150SOL    HW2 9909   3.436   0.444   0.414
 3151SOL     OW 9910   2.885   0.766   0.966
 3151SOL    HW1 9911   2.900   0.787   1.062
 3151SOL    HW2 9912   2.855   0.671   0.957
 3152SOL     OW 9913   2.842   1.573   1.700
 3152SOL    HW1 9914   2.822   1.617   1.612
 3152SOL    HW2 9915   2.881   1.482   1.684
 3153SOL     OW 9916   3.721   1.518   1.605
 3153SOL    HW1 9917   3.735   1.545   1.510
 3153SOL    HW2 9918   3.804   1.540   1.658
 3154SOL     OW 9919   2.212   0.898   1.804
 3154SOL    HW1 9920   2.288   0.942   1.852
 3154SOL    HW2 9921   2.247   0.851   1.722
 3155SOL     OW 9922   3.402   0.274   0.125
 3155SOL    HW1 9923   3.341   0.199   0.148
 3155SOL    HW2 9924   3.424   0.326   0.208
 3156SOL     OW 9925   3.165   0.838   0.042
 3156SOL    HW1 9926   3.199   0.745   0.057
 3156SOL    HW2 9927   3.183   0.865  -0.053
 3157SOL     OW 9928   2.930   1.333   0.849
 3157SOL    HW1 9929   2.937   1.249   0.794
 3157SOL    HW2 9930   2.992   1.402   0.813
 3158SOL     OW 9931   2.181   0.810   0.949
 3158SOL    HW1 9932   2.274   0.846   0.954
 3158SOL    HW2 9933   2.175   0.725   1.001
 3159SOL     OW 9934   2.201   0.509   1.006
 3159SOL    HW1 9935   2.149   0.426   0.989
 3159SOL    HW2 9936   2.278   0.514   0.942
 3160SOL     OW 9937   3.000   0.380   1.678
 3160SOL    HW1 9938   2.955   0.443   1.742
 3160SOL    HW2 9939   3.093   0.411   1.661
 3161SOL     OW 9940   3.022   0.207   1.477
 3161SOL    HW1 9941   3.022   0.271   1.554
 3161SOL    HW2 9942   3.050   0.255   1.394
 3162SOL     OW 9943   1.870   1.326   0.200
 3162SOL    HW1 9944   1.777   1.347   0.169
 3162SOL    HW2 9945   1.880   1.227   0.213
 3163SOL     OW 9946   1.950   1.801   0.927
 3163SOL    HW1 9947   1.908   1.715   0.900
 3163SOL    HW2 9948   2.044   1.804   0.893
 3164SOL     OW 9949   2.366   1.568   0.910
 3164SOL    HW1 9950   2.432   1.642   0.919
 3164SOL    HW2 9951   2.410   1.489   0.868
 3165SOL     OW 9952   2.864   0.796   1.238
 3165SOL    HW1 9953   2.905   0.764   1.324
 3165SOL    HW2 9954   2.768   0.769   1.235
 3166SOL     OW 9955   1.902   0.544   1.114
 3166SOL    HW1 9956   1.987   0.511   1.073
 3166SOL    HW2 9957   1.915   0.559   1.212
 3167SOL     OW 9958   2.051   0.520   1.722
 3167SOL    HW1 9959   2.110   0.480   1.652
 3167SOL    HW2 9960   1.993   0.591   1.681
 3168SOL     OW 9961   3.231   0.950   1.660
 3168SOL    HW1 9962   3.270   1.039   1.680
 3168SOL    HW2 9963   3.241   0.930   1.563
 3169SOL     OW 9964   2.677   0.572   0.325
 3169SOL    HW1 9965   2.684   0.483   0.279
 3169SOL    HW2 9966   2.583   0.606   0.317
 3170SOL     OW 9967   3.519   0.604   1.206
 3170SOL    HW1 9968   3.481   0.535   1.268
 3170SOL    HW2 9969   3.601   0.568   1.162
 3171SOL     OW 9970   2.114   1.564   1.744
 3171SOL    HW1 9971   2.084   1.621   1.820
 3171SOL    HW2 9972   2.107   1.467   1.770
 3172SOL     OW 9973   2.533   0.464   1.269
 3172SOL    HW1 9974   2.499   0.375   1.239
 3172SOL    HW2 9975   2.559   0.518   1.189
 3173SOL     OW 9976   2.792   1.678   1.465
 3173SOL    HW1 9977   2.768   1.660   1.370
 3173SOL    HW2 9978   2.822   1.772   1.475
 3174SOL     OW 9979   2.335   0.500   0.191
 3174SOL    HW1 9980   2.396   0.580   0.195
 3174SOL    HW2 9981   2.240   0.531   0.198
 3175SOL     OW 9982   2.021   1.137   1.466
 3175SOL    HW1 9983   2.043   1.076   1.542
 3175SOL    HW2 9984   2.031   1.088   1.380
 3176SOL     OW 9985   3.209   1.059   1.234
 3176SOL    HW1 9986   3.233   0.996   1.160
 3176SOL    HW2 9987   3.119   1.099   1.216
 3177SOL     OW 9988   3.164   0.855   0.309
 3177SOL    HW1 9989   3.078   0.824   0.351
 3177SOL    HW2 9990   3.160   0.841   0.210
 3178SOL     OW 9991   3.621   1.747   1.154
 3178SOL    HW1 9992   3.682   1.777   1.081
 3178SOL    HW2 9993   3.583   1.658   1.132
 3179SOL     OW 9994   3.114   1.731   1.128
 3179SOL    HW1 9995   3.198   1.736   1.074
 3179SOL    HW2 9996   3.091   1.635   1.146
 3180SOL     OW 9997   1.945   1.258   1.022
 3180SOL    HW1 9998   1.940   1.257   1.122
 3180SOL    HW2 9999   1.862   1.217   0.984
 3181SOL     OW10000   2.550   1.662   1.716
 3181SOL    HW110001   2.494   1.743   1.725
 3181SOL    HW210002   2.602   1.666   1.630
 3182SOL     OW10003   2.765   0.086   0.133
 3182SOL    HW110004   2.816   0.087   0.047
 3182SOL    HW210005   2.821   0.044   0.204
 3183SOL     OW10006   3.588   0.135   0.523
 3183SOL    HW110007   3.661   0.118   0.456
 3183SOL    HW210008   3.557   0.048   0.561
 3184SOL     OW10009   3.250   1.573   0.477
 3184SOL    HW110010   3.317   1.585   0.403
 3184SOL    HW210011   3.210   1.662   0.500
 3185SOL     OW10012   1.992   1.794   1.851
 3185SOL    HW110013   1.951   1.720   1.904
 3185SOL    HW210014   2.056   1.845   1.909
 3186SOL     OW10015   3.142   0.927   0.672
 3186SOL    HW110016   3.202   0.846   0.674
 3186SOL    HW210017   3.182   0.996   0.612
 3187SOL     OW10018   2.692   1.273   1.422
 3187SOL    HW110019   2.687   1.306   1.517
 3187SOL    HW210020   2.606   1.292   1.376
 3188SOL     OW10021   2.534   1.616   0.154
 3188SOL    HW110022   2.543   1.626   0.055
 3188SOL    HW210023   2.494   1.527   0.175
 3189SOL     OW10024   3.512   1.720   1.394
 3189SOL    HW110025   3.565   1.730   1.310
 3189SOL    HW210026   3.485   1.810   1.428
 3190SOL     OW10027   3.703   0.175   0.963
 3190SOL    HW110028   3.742   0.090   0.927
 3190SOL    HW210029   3.605   0.177   0.944
 3191SOL     OW10030   2.125   0.326   0.720
 3191SOL    HW110031   2.046   0.377   0.686
 3191SOL    HW210032   2.116   0.311   0.818
 3192SOL     OW10033   3.056   1.612   0.031
 3192SOL    HW110034   3.062   1.519   0.068
 3192SOL    HW210035   2.997   1.612  -0.049
 3193SOL     OW10036   2.684   1.002   1.372
 3193SOL    HW110037   2.724   1.001   1.280
 3193SOL    HW210038   2.694   1.094   1.412
 3194SOL     OW10039   2.778   0.910   0.291
 3194SOL    HW110040   2.841   0.948   0.223
 3194SOL    HW210041   2.818   0.827   0.330
 3195SOL     OW10042   3.366   1.607   0.044
 3195SOL    HW110043   3.274   1.644   0.051
 3195SOL    HW210044   3.404   1.627  -0.046
 3196SOL     OW10045   2.234   1.288   1.490
 3196SOL    HW110046   2.221   1.381   1.456
 3196SOL    HW210047   2.150   1.236   1.477
 3197SOL     OW10048   3.476   1.292   1.289
 3197SOL    HW110049   3.536   1.295   1.369
 3197SOL    HW210050   3.401   1.356   1.302
 3198SOL     OW10051   2.901   1.098   0.696
 3198SOL    HW110052   2.831   1.051   0.750
 3198SOL    HW210053   2.960   1.030   0.653
 3199SOL     OW10054   2.876   0.236   0.971
 3199SOL    HW110055   2.868   0.200   0.878
 3199SOL    HW210056   2.874   0.160   1.036
 3200SOL     OW10057   2.452   1.487   0.491
 3200SOL    HW110058   2.494   1.429   0.421
 3200SOL    HW210059   2.408   1.566   0.447
 3201SOL     OW10060   3.571   0.385   1.381
 3201SOL    HW110061   3.644   0.454   1.385
 3201SOL    HW210062   3.599   0.310   1.322
 3202SOL     OW10063   2.117   1.348   0.290
 3202SOL    HW110064   2.021   1.349   0.263
 3202SOL    HW210065   2.129   1.401   0.374
 3203SOL     OW10066   1.967   1.013   1.726
 3203SOL    HW110067   1.890   0.980   1.780
 3203SOL    HW210068   2.052   0.983   1.768
 3204SOL     OW10069   2.534   0.203   1.489
 3204SOL    HW110070   2.624   0.187   1.449
 3204SOL    HW210071   2.542   0.208   1.588
 3205SOL     OW10072   1.937   0.345   0.033
 3205SOL    HW110073   1.845   0.317   0.004
 3205SOL    HW210074   1.968   0.422  -0.023
 3206SOL     OW10075   3.302   0.856   1.398
 3206SOL    HW110076   3.245   0.908   1.335
 3206SOL    HW210077   3.398   0.868   1.374
 3207SOL     OW10078   1.934   0.166   0.318
 3207SOL    HW110079   1.917   0.249   0.264
 3207SOL    HW210080   2.024   0.129   0.296
 3208SOL     OW10081   3.045   1.335   0.119
 3208SOL    HW110082   2.946   1.324   0.121
 3208SOL    HW210083   3.079   1.350   0.212
 3209SOL     OW10084   2.475   0.842   1.431
 3209SOL    HW110085   2.531   0.923   1.414
 3209SOL    HW210086   2.534   0.762   1.434
 3210SOL     OW10087   3.355   1.767   0.959
 3210SOL    HW110088   3.388   1.831   0.890
 3210SOL    HW210089   3.421   1.761   1.034
 3211SOL     OW10090   2.578   0.565   1.708
 3211SOL    HW110091   2.597   0.630   1.782
 3211SOL    HW210092   2.638   0.485   1.717
 3212SOL     OW10093   3.312   1.220   1.633
 3212SOL    HW110094   3.303   1.210   1.732
 3212SOL    HW210095   3.408   1.213   1.607
 3213SOL     OW10096   2.252   1.741   1.560
 3213SOL    HW110097   2.161   1.782   1.558
 3213SOL    HW210098   2.245   1.647   1.592
 3214SOL     OW10099   3.536   0.883   1.254
 3214SOL    HW110100   3.509   0.794   1.217
 3214SOL    HW210101   3.537   0.951   1.181
 3215SOL     OW10102   3.087   0.325   0.449
 3215SOL    HW110103   3.152   0.251   0.438
 3215SOL    HW210104   3.107   0.375   0.533
 3216SOL     OW10105   2.456   0.745   0.652
 3216SOL    HW110106   2.506   0.830   0.633
 3216SOL    HW210107   2.368   0.747   0.604
 3217SOL     OW10108   3.639   0.342   1.642
 3217SOL    HW110109   3.622   0.373   1.548
 3217SOL    HW210110   3.555   0.305   1.680
 3218SOL     OW10111   3.592   0.934   1.517
 3218SOL    HW110112   3.630   1.025   1.532
 3218SOL    HW210113   3.584   0.917   1.418
 3219SOL     OW10114   2.721   1.374   0.016
 3219SOL    HW110115   2.675   1.389   0.104
 3219SOL    HW210116   2.765   1.459  -0.014
 3220SOL     OW10117   2.523   1.790   0.953
 3220SOL    HW110118   2.477   1.878   0.940
 3220SOL    HW210119   2.622   1.802   0.946
 3221SOL     OW10120   2.721   0.956   0.861
 3221SOL    HW110121   2.775   0.887   0.909
 3221SOL    HW210122   2.689   1.025   0.927
 3222SOL     OW10123   2.945   0.984   0.087
 3222SOL    HW110124   2.922   1.037   0.005
 3222SOL    HW210125   3.026   0.928   0.068
 3223SOL     OW10126   3.723   1.569   0.851
 3223SOL    HW110127   3.652   1.557   0.781
 3223SOL    HW210128   3.724   1.490   0.911
 3224SOL     OW10129   2.083   1.314   1.844
 3224SOL    HW110130   2.018   1.241   1.823
 3224SOL    HW210131   2.087   1.328   1.942
 3225SOL     OW10132   1.941   1.240   0.653
 3225SOL    HW110133   1.940   1.193   0.741
 3225SOL    HW210134   2.023   1.212   0.602
 3226SOL     OW10135   2.534   1.391   1.624
 3226SOL    HW110136   2.456   1.341   1.662
 3226SOL    HW210137   2.531   1.486   1.655
 3227SOL     OW10138   3.686   0.192   1.227
 3227SOL    HW110139   3.682   0.102   1.271
 3227SOL    HW210140   3.689   0.181   1.128
 3228SOL     OW10141   2.290   0.424   0.520
 3228SOL    HW110142   2.320   0.352   0.458
 3228SOL    HW210143   2.251   0.384   0.603
 3229SOL     OW10144   3.567   1.487   1.104
 3229SOL    HW110145   3.474   1.462   1.077
 3229SOL    HW210146   3.593   1.437   1.186
 3230SOL     OW10147   2.179   0.547   1.280
 3230SOL    HW110148   2.217   0.488   1.352
 3230SOL    HW210149   2.219   0.521   1.192
 3231SOL     OW10150   2.674   1.586   0.687
 3231SOL    HW110151   2.706   1.596   0.593
 3231SOL    HW210152   2.595   1.524   0.689
 3232SOL     OW10153   3.286   0.214   1.112
 3232SOL    HW110154   3.338   0.149   1.167
 3232SOL    HW210155   3.237   0.277   1.173
 3233SOL     OW10156   2.863   0.034   1.154
 3233SOL    HW110157   2.800  -0.038   1.123
 3233SOL    HW210158   2.956  -0.002   1.154
 3234SOL     OW10159   2.632   1.330   0.301
 3234SOL    HW110160   2.586   1.243   0.318
 3234SOL    HW210161   2.723   1.327   0.342
 3235SOL     OW10162   2.480   1.567   1.284
 3235SOL    HW110163   2.475   1.649   1.341
 3235SOL    HW210164   2.569   1.564   1.239
 3236SOL     OW10165   3.214   0.052   0.168
 3236SOL    HW110166   3.249   0.011   0.084
 3236SOL    HW210167   3.124   0.014   0.188
 3237SOL     OW10168   3.162   0.453   0.691
 3237SOL    HW110169   3.103   0.533   0.695
 3237SOL    HW210170   3.177   0.418   0.784
 3238SOL     OW10171   3.455   0.221   0.882
 3238SOL    HW110172   3.371   0.220   0.936
 3238SOL    HW210173   3.457   0.304   0.826
 3239SOL     OW10174   1.901   1.077   0.300
 3239SOL    HW110175   2.000   1.066   0.291
 3239SOL    HW210176   1.861   0.991   0.332
 3240SOL     OW10177   2.737   1.646   0.337
 3240SOL    HW110178   2.660   1.611   0.283
 3240SOL    HW210179   2.705   1.717   0.399
 3241SOL     OW10180   2.092   0.628   1.975
 3241SOL    HW110181   1.999   0.626   2.012
 3241SOL    HW210182   2.093   0.589   1.883
 3242SOL     OW10183   2.087   0.275   2.858
 3242SOL    HW110184   2.122   0.258   2.950
 3242SOL    HW210185   1.999   0.230   2.846
 3243SOL     OW10186   1.881   0.368   2.509
 3243SOL    HW110187   1.799   0.411   2.548
 3243SOL    HW210188   1.853   0.295   2.446
 3244SOL     OW10189   2.431   1.275   3.027
 3244SOL    HW110190   2.338   1.268   2.990
 3244SOL    HW210191   2.442   1.364   3.071
 3245SOL     OW10192   3.417   1.511   2.565
 3245SOL    HW110193   3.360   1.495   2.646
 3245SOL    HW210194   3.358   1.521   2.485
 3246SOL     OW10195   2.997   0.703   2.579
 3246SOL    HW110196   3.054   0.781   2.554
 3246SOL    HW210197   2.937   0.729   2.655
 3247SOL     OW10198   3.617   0.607   2.093
 3247SOL    HW110199   3.605   0.594   1.994
 3247SOL    HW210200   3.587   0.526   2.142
 3248SOL     OW10201   2.630   1.144   2.885
 3248SOL    HW110202   2.552   1.161   2.945
 3248SOL    HW210203   2.664   1.231   2.849
 3249SOL     OW10204   2.712   0.798   3.685
 3249SOL    HW110205   2.708   0.874   3.750
 3249SOL    HW210206   2.734   0.834   3.594
 3250SOL     OW10207   2.547   1.012   2.527
 3250SOL    HW110208   2.616   0.996   2.597
 3250SOL    HW210209   2.474   1.069   2.565
 3251SOL     OW10210   2.548   1.161   3.665
 3251SOL    HW110211   2.608   1.240   3.679
 3251SOL    HW210212   2.462   1.192   3.624
 3252SOL     OW10213   2.197   1.435   2.923
 3252SOL    HW110214   2.119   1.404   2.870
 3252SOL    HW210215   2.255   1.493   2.866
 3253SOL     OW10216   3.322   1.505   3.201
 3253SOL    HW110217   3.346   1.599   3.227
 3253SOL    HW210218   3.306   1.451   3.283
 3254SOL     OW10219   2.300   0.392   3.361
 3254SOL    HW110220   2.382   0.336   3.370
 3254SOL    HW210221   2.219   0.334   3.365
 3255SOL     OW10222   3.465   0.447   2.599
 3255SOL    HW110223   3.391   0.493   2.549
 3255SOL    HW210224   3.516   0.515   2.652
 3256SOL     OW10225   2.093   1.713   2.345
 3256SOL    HW110226   2.127   1.790   2.399
 3256SOL    HW210227   2.137   1.713   2.255
 3257SOL     OW10228   2.989   1.341   3.552
 3257SOL    HW110229   3.036   1.341   3.640
 3257SOL    HW210230   2.941   1.254   3.541
 3258SOL     OW10231   2.092   1.434   2.400
 3258SOL    HW110232   2.066   1.530   2.400
 3258SOL    HW210233   2.021   1.380   2.445
 3259SOL     OW10234   2.102   1.091   2.748
 3259SOL    HW110235   2.116   1.007   2.800
 3259SOL    HW210236   2.047   1.155   2.803
 3260SOL     OW10237   2.482   1.786   3.301
 3260SOL    HW110238   2.390   1.769   3.336
 3260SOL    HW210239   2.510   1.878   3.327
 3261SOL     OW10240   2.468   0.964   1.985
 3261SOL    HW110241   2.475   1.048   1.931
 3261SOL    HW210242   2.514   0.977   2.073
 3262SOL     OW10243   3.456   0.114   3.342
 3262SOL    HW110244   3.438   0.181   3.270
 3262SOL    HW210245   3.453   0.160   3.431
 3263SOL     OW10246   1.984   0.643   2.425
 3263SOL    HW110247   1.939   0.555   2.442
 3263SOL    HW210248   1.983   0.697   2.509
 3264SOL     OW10249   3.704   1.767   2.221
 3264SOL    HW110250   3.758   1.738   2.301
 3264SOL    HW210251   3.734   1.857   2.192
 3265SOL     OW10252   1.889   1.596   1.979
 3265SOL    HW110253   1.870   1.500   2.000
 3265SOL    HW210254   1.856   1.654   2.054
 3266SOL     OW10255   3.551   0.922   2.474
 3266SOL    HW110256   3.646   0.893   2.482
 3266SOL    HW210257   3.543   0.987   2.399
 3267SOL     OW10258   3.503   1.108   2.294
 3267SOL    HW110259   3.589   1.110   2.242
 3267SOL    HW210260   3.517   1.155   2.382
 3268SOL     OW10261   1.975   0.737   3.459
 3268SOL    HW110262   2.063   0.724   3.504
 3268SOL    HW210263   1.962   0.834   3.437
 3269SOL     OW10264   2.475   1.365   2.588
 3269SOL    HW110265   2.426   1.278   2.597
 3269SOL    HW210266   2.452   1.408   2.501
 3270SOL     OW10267   3.155   1.228   3.285
 3270SOL    HW110268   3.192   1.155   3.227
 3270SOL    HW210269   3.207   1.233   3.370
 3271SOL     OW10270   2.671   0.004   2.364
 3271SOL    HW110271   2.711   0.095   2.355
 3271SOL    HW210272   2.571   0.012   2.370
 3272SOL     OW10273   2.059   0.976   3.126
 3272SOL    HW110274   2.148   0.931   3.112
 3272SOL    HW210275   1.986   0.911   3.107
 3273SOL     OW10276   3.387   0.999   2.052
 3273SOL    HW110277   3.324   0.923   2.065
 3273SOL    HW210278   3.435   1.017   2.138
 3274SOL     OW10279   3.049   1.792   3.478
 3274SOL    HW110280   3.073   1.852   3.402
 3274SOL    HW210281   3.056   1.697   3.448
 3275SOL     OW10282   2.179   0.251   3.663
 3275SOL    HW110283   2.250   0.322   3.669
 3275SOL    HW210284   2.091   0.290   3.691
 3276SOL     OW10285   3.328   1.417   2.815
 3276SOL    HW110286   3.269   1.423   2.895
 3276SOL    HW210287   3.313   1.329   2.769
 3277SOL     OW10288   3.529   1.714   2.434
 3277SOL    HW110289   3.488   1.691   2.346
 3277SOL    HW210290   3.511   1.640   2.499
 3278SOL     OW10291   2.460   0.729   2.132
 3278SOL    HW110292   2.484   0.798   2.064
 3278SOL    HW210293   2.382   0.762   2.186
 3279SOL     OW10294   3.143   0.345   2.806
 3279SOL    HW110295   3.057   0.295   2.793
 3279SOL    HW210296   3.205   0.291   2.862
 3280SOL     OW10297   3.438   1.662   2.169
 3280SOL    HW110298   3.527   1.708   2.172
 3280SOL    HW210299   3.417   1.638   2.074
 3281SOL     OW10300   2.669   0.605   3.327
 3281SOL    HW110301   2.622   0.602   3.416
 3281SOL    HW210302   2.618   0.550   3.261
 3282SOL     OW10303   3.256   0.469   3.536
 3282SOL    HW110304   3.236   0.512   3.624
 3282SOL    HW210305   3.334   0.407   3.545
 3283SOL     OW10306   2.835   0.890   3.434
 3283SOL    HW110307   2.881   0.806   3.405
 3283SOL    HW210308   2.779   0.924   3.359
 3284SOL     OW10309   2.853   0.410   3.104
 3284SOL    HW110310   2.776   0.444   3.158
 3284SOL    HW210311   2.819   0.359   3.025
 3285SOL     OW10312   2.903   0.701   2.291
 3285SOL    HW110313   2.929   0.697   2.387
 3285SOL    HW210314   2.818   0.650   2.277
 3286SOL     OW10315   1.938   0.811   2.651
 3286SOL    HW110316   2.037   0.799   2.660
 3286SOL    HW210317   1.914   0.906   2.672
 3287SOL     OW10318   1.992   1.821   3.433
 3287SOL    HW110319   1.982   1.806   3.532
 3287SOL    HW210320   1.906   1.857   3.397
 3288SOL     OW10321   2.727   0.348   2.057
 3288SOL    HW110322   2.786   0.411   2.008
 3288SOL    HW210323   2.746   0.254   2.028
 3289SOL     OW10324   3.581   0.585   3.693
 3289SOL    HW110325   3.555   0.674   3.657
 3289SOL    HW210326   3.579   0.517   3.620
 3290SOL     OW10327   3.224   1.144   2.407
 3290SOL    HW110328   3.307   1.115   2.359
 3290SOL    HW210329   3.175   1.211   2.351
 3291SOL     OW10330   2.412   0.196   2.747
 3291SOL    HW110331   2.407   0.191   2.847
 3291SOL    HW210332   2.414   0.292   2.718
 3292SOL     OW10333   2.870   1.456   2.339
 3292SOL    HW110334   2.824   1.528   2.287
 3292SOL    HW210335   2.866   1.476   2.437
 3293SOL     OW10336   2.213   1.801   2.715
 3293SOL    HW110337   2.263   1.715   2.721
 3293SOL    HW210338   2.278   1.878   2.712
 3294SOL     OW10339   3.657   1.066   2.735
 3294SOL    HW110340   3.595   1.051   2.659
 3294SOL    HW210341   3.605   1.077   2.820
 3295SOL     OW10342   3.089   1.550   3.368
 3295SOL    HW110343   3.095   1.473   3.432
 3295SOL    HW210344   3.037   1.524   3.288
 3296SOL     OW10345   2.183   0.943   2.104
 3296SOL    HW110346   2.265   0.982   2.062
 3296SOL    HW210347   2.156   0.861   2.055
 3297SOL     OW10348   3.320   0.735   2.590
 3297SOL    HW110349   3.315   0.670   2.665
 3297SOL    HW210350   3.400   0.794   2.603
 3298SOL     OW10351   2.323   1.266   3.589
 3298SOL    HW110352   2.273   1.267   3.503
 3298SOL    HW210353   2.260   1.248   3.665
 3299SOL     OW10354   2.973   1.776   2.099
 3299SOL    HW110355   2.913   1.714   2.149
 3299SOL    HW210356   3.004   1.732   2.014
 3300SOL     OW10357   2.064   0.285   3.360
 3300SOL    HW110358   1.984   0.345   3.347
 3300SOL    HW210359   2.054   0.236   3.446
 3301SOL     OW10360   3.494   1.377   1.943
 3301SOL    HW110361   3.462   1.471   1.933
 3301SOL    HW210362   3.418   1.314   1.931
 3302SOL     OW10363   2.326   1.743   2.185
 3302SOL    HW110364   2.359   1.782   2.271
 3302SOL    HW210365   2.402   1.736   2.120
 3303SOL     OW10366   3.262   0.107   2.288
 3303SOL    HW110367   3.238   0.070   2.198
 3303SOL    HW210368   3.361   0.123   2.292
 3304SOL     OW10369   2.111   1.785   3.103
 3304SOL    HW110370   2.168   1.720   3.153
 3304SOL    HW210371   2.095   1.752   3.010
 3305SOL     OW10372   2.802   1.698   2.766
 3305SOL    HW110373   2.882   1.641   2.787
 3305SOL    HW210374   2.753   1.658   2.689
 3306SOL     OW10375   2.244   0.700   2.342
 3306SOL    HW110376   2.289   0.610   2.339
 3306SOL    HW210377   2.150   0.689   2.375
 3307SOL     OW10378   3.409   0.222   3.591
 3307SOL    HW110379   3.404   0.259   3.683
 3307SOL    HW210380   3.337   0.153   3.579
 3308SOL     OW10381   2.476   0.122   1.979
 3308SOL    HW110382   2.574   0.100   1.986
 3308SOL    HW210383   2.445   0.105   1.886
 3309SOL     OW10384   2.643   0.264   3.611
 3309SOL    HW110385   2.710   0.203   3.654
 3309SOL    HW210386   2.570   0.283   3.676
 3310SOL     OW10387   2.750   1.514   3.057
 3310SOL    HW110388   2.727   1.489   2.963
 3310SOL    HW210389   2.811   1.445   3.096
 3311SOL     OW10390   3.213   0.590   3.295
 3311SOL    HW110391   3.241   0.547   3.380
 3311SOL    HW210392   3.238   0.686   3.296
 3312SOL     OW10393   2.665   1.402   2.786
 3312SOL    HW110394   2.755   1.416   2.744
 3312SOL    HW210395   2.594   1.404   2.715
 3313SOL     OW10396   2.784   0.503   2.761
 3313SOL    HW110397   2.759   0.494   2.665
 3313SOL    HW210398   2.832   0.421   2.792
 3314SOL     OW10399   2.401   0.064   2.374
 3314SOL    HW110400   2.320   0.065   2.432
 3314SOL    HW210401   2.404   0.147   2.319
 3315SOL     OW10402   3.296   1.188   1.903
 3315SOL    HW110403   3.328   1.112   1.960
 3315SOL    HW210404   3.204   1.215   1.933
 3316SOL     OW10405   2.159   0.035   2.033
 3316SOL    HW110406   2.208   0.119   2.012
 3316SOL    HW210407   2.221  -0.030   2.078
 3317SOL     OW10408   2.797   0.236   2.342
 3317SOL    HW110409   2.749   0.277   2.264
 3317SOL    HW210410   2.896   0.234   2.323
 3318SOL     OW10411   2.938   0.683   3.326
 3318SOL    HW110412   2.858   0.622   3.329
 3318SOL    HW210413   3.019   0.630   3.302
 3319SOL     OW10414   3.089   1.570   2.655
 3319SOL    HW110415   3.110   1.644   2.590
 3319SOL    HW210416   3.157   1.570   2.728
 3320SOL     OW10417   2.321   1.152   2.603
 3320SOL    HW110418   2.250   1.125   2.668
 3320SOL    HW210419   2.295   1.124   2.510
 3321SOL     OW10420   3.133   1.797   2.453
 3321SOL    HW110421   3.177   1.861   2.389
 3321SOL    HW210422   3.083   1.849   2.523
 3322SOL     OW10423   2.894   0.549   1.878
 3322SOL    HW110424   2.853   0.631   1.839
 3322SOL    HW210425   2.958   0.575   1.951
 3323SOL     OW10426   1.940   0.556   3.248
 3323SOL    HW110427   2.032   0.555   3.207
 3323SOL    HW210428   1.934   0.630   3.315
 3324SOL     OW10429   2.423   0.222   3.009
 3324SOL    HW110430   2.461   0.138   3.046
 3324SOL    HW210431   2.335   0.241   3.053
 3325SOL     OW10432   2.728   0.454   2.504
 3325SOL    HW110433   2.696   0.526   2.442
 3325SOL    HW210434   2.752   0.373   2.451
 3326SOL     OW10435   2.879   0.039   2.615
 3326SOL    HW110436   2.807   0.044   2.546
 3326SOL    HW210437   2.855  -0.030   2.684
 3327SOL     OW10438   3.291   1.173   2.729
 3327SOL    HW110439   3.236   1.089   2.722
 3327SOL    HW210440   3.317   1.202   2.637
 3328SOL     OW10441   3.328   0.590   2.854
 3328SOL    HW110442   3.298   0.495   2.861
 3328SOL    HW210443   3.401   0.606   2.920
 3329SOL     OW10444   3.719   0.833   2.239
 3329SOL    HW110445   3.761   0.769   2.303
 3329SOL    HW210446   3.681   0.782   2.161
 3330SOL     OW10447   2.350   1.385   2.036
 3330SOL    HW110448   2.263   1.370   2.083
 3330SOL    HW210449   2.333   1.411   1.941
 3331SOL     OW10450   3.526   1.280   2.519
 3331SOL    HW110451   3.625   1.288   2.533
 3331SOL    HW210452   3.481   1.364   2.550
 3332SOL     OW10453   3.252   0.575   1.940
 3332SOL    HW110454   3.198   0.554   2.021
 3332SOL    HW210455   3.343   0.534   1.949
 3333SOL     OW10456   2.389   0.256   2.190
 3333SOL    HW110457   2.416   0.197   2.115
 3333SOL    HW210458   2.389   0.351   2.159
 3334SOL     OW10459   3.616   1.223   3.450
 3334SOL    HW110460   3.707   1.184   3.437
 3334SOL    HW210461   3.624   1.319   3.474
 3335SOL     OW10462   2.926   1.347   3.202
 3335SOL    HW110463   2.846   1.324   3.257
 3335SOL    HW210464   3.009   1.321   3.251
 3336SOL     OW10465   3.454   1.629   3.487
 3336SOL    HW110466   3.481   1.663   3.397
 3336SOL    HW210467   3.533   1.591   3.533
 3337SOL     OW10468   2.973   1.195   2.962
 3337SOL    HW110469   2.933   1.239   3.043
 3337SOL    HW210470   2.932   1.232   2.879
 3338SOL     OW10471   3.500   1.099   2.941
 3338SOL    HW110472   3.505   1.180   3.000
 3338SOL    HW210473   3.414   1.101   2.890
 3339SOL     OW10474   2.777   0.089   3.264
 3339SOL    HW110475   2.802   0.069   3.169
 3339SOL    HW210476   2.849   0.145   3.306
 3340SOL     OW10477   2.842   1.116   3.581
 3340SOL    HW110478   2.743   1.122   3.591
 3340SOL    HW210479   2.865   1.036   3.525
 3341SOL     OW10480   2.567   1.050   2.230
 3341SOL    HW110481   2.553   1.057   2.329
 3341SOL    HW210482   2.651   0.999   2.212
 3342SOL     OW10483   2.272   0.813   3.113
 3342SOL    HW110484   2.358   0.825   3.163
 3342SOL    HW210485   2.230   0.726   3.140
 3343SOL     OW10486   3.136   0.386   3.124
 3343SOL    HW110487   3.157   0.460   3.188
 3343SOL    HW210488   3.047   0.403   3.081
 3344SOL     OW10489   1.926   1.564   3.193
 3344SOL    HW110490   1.880   1.646   3.159
 3344SOL    HW210491   2.024   1.583   3.202
 3345SOL     OW10492   2.229   1.100   2.363
 3345SOL    HW110493   2.222   1.183   2.307
 3345SOL    HW210494   2.233   1.020   2.303
 3346SOL     OW10495   2.428   0.537   2.727
 3346SOL    HW110496   2.440   0.603   2.653
 3346SOL    HW210497   2.474   0.571   2.810
 3347SOL     OW10498   3.114   1.348   2.250
 3347SOL    HW110499   3.164   1.425   2.290
 3347SOL    HW210500   3.019   1.350   2.282
 3348SOL     OW10501   3.134   1.445   3.004
 3348SOL    HW110502   3.181   1.458   3.091
 3348SOL    HW210503   3.068   1.371   3.013
 3349SOL     OW10504   3.444   0.639   2.334
 3349SOL    HW110505   3.413   0.700   2.407
 3349SOL    HW210506   3.494   0.691   2.265
 3350SOL     OW10507   2.216   1.510   3.191
 3350SOL    HW110508   2.195   1.466   3.104
 3350SOL    HW210509   2.313   1.536   3.194
 3351SOL     OW10510   2.264   0.751   3.460
 3351SOL    HW110511   2.332   0.806   3.413
 3351SOL    HW210512   2.304   0.663   3.487
 3352SOL     OW10513   3.449   0.779   3.532
 3352SOL    HW110514   3.357   0.817   3.527
 3352SOL    HW210515   3.509   0.826   3.467
 3353SOL     OW10516   2.875   0.105   3.632
 3353SOL    HW110517   2.881   0.190   3.580
 3353SOL    HW210518   2.907   0.029   3.575
 3354SOL     OW10519   2.366   0.050   3.602
 3354SOL    HW110520   2.324  -0.007   3.532
 3354SOL    HW210521   2.300   0.119   3.634
 3355SOL     OW10522   2.435   0.870   2.891
 3355SOL    HW110523   2.479   0.959   2.882
 3355SOL    HW210524   2.372   0.870   2.968
 3356SOL     OW10525   3.222   0.862   2.907
 3356SOL    HW110526   3.147   0.862   2.841
 3356SOL    HW210527   3.259   0.770   2.916
 3357SOL     OW10528   3.071   0.525   2.137
 3357SOL    HW110529   3.084   0.441   2.191
 3357SOL    HW210530   3.042   0.599   2.197
 3358SOL     OW10531   2.169   0.213   3.093
 3358SOL    HW110532   2.146   0.250   3.183
 3358SOL    HW210533   2.139   0.118   3.087
 3359SOL     OW10534   1.899   1.310   3.144
 3359SOL    HW110535   1.952   1.261   3.212
 3359SOL    HW210536   1.921   1.408   3.149
 3360SOL     OW10537   2.594   0.634   2.926
 3360SOL    HW110538   2.653   0.608   2.850
 3360SOL    HW210539   2.566   0.730   2.915
 3361SOL     OW10540   3.590   0.935   3.716
 3361SOL    HW110541   3.544   0.928   3.627
 3361SOL    HW210542   3.528   0.979   3.782
 3362SOL     OW10543   2.169   0.063   2.480
 3362SOL    HW110544   2.158   0.157   2.513
 3362SOL    HW210545   2.164   0.000   2.557
 3363SOL     OW10546   3.484   0.367   2.236
 3363SOL    HW110547   3.486   0.291   2.300
 3363SOL    HW210548   3.436   0.444   2.276
 3364SOL     OW10549   2.885   0.766   2.828
 3364SOL    HW110550   2.900   0.787   2.924
 3364SOL    HW210551   2.855   0.671   2.819
 3365SOL     OW10552   2.842   1.573   3.562
 3365SOL    HW110553   2.822   1.617   3.474
 3365SOL    HW210554   2.881   1.482   3.546
 3366SOL     OW10555   3.721   1.518   3.467
 3366SOL    HW110556   3.735   1.545   3.372
 3366SOL    HW210557   3.804   1.540   3.520
 3367SOL     OW10558   2.212   0.898   3.666
 3367SOL    HW110559   2.288   0.942   3.714
 3367SOL    HW210560   2.247   0.851   3.584
 3368SOL     OW10561   3.402   0.274   1.987
 3368SOL    HW110562   3.341   0.199   2.010
 3368SOL    HW210563   3.424   0.326   2.070
 3369SOL     OW10564   3.165   0.838   1.904
 3369SOL    HW110565   3.199   0.745   1.919
 3369SOL    HW210566   3.183   0.865   1.809
 3370SOL     OW10567   2.930   1.333   2.711
 3370SOL    HW110568   2.937   1.249   2.656
 3370SOL    HW210569   2.992   1.402   2.675
 3371SOL     OW10570   2.181   0.810   2.811
 3371SOL    HW110571   2.274   0.846   2.816
 3371SOL    HW210572   2.175   0.725   2.863
 3372SOL     OW10573   2.201   0.509   2.868
 3372SOL    HW110574   2.149   0.426   2.851
 3372SOL    HW210575   2.278   0.514   2.804
 3373SOL     OW10576   3.000   0.380   3.540
 3373SOL    HW110577   2.955   0.443   3.604
 3373SOL    HW210578   3.093   0.411   3.523
 3374SOL     OW10579   3.022   0.207   3.339
 3374SOL    HW110580   3.022   0.271   3.416
 3374SOL    HW210581   3.050   0.255   3.256
 3375SOL     OW10582   1.870   1.326   2.062
 3375SOL    HW110583   1.777   1.347   2.031
 3375SOL    HW210584   1.880   1.227   2.075
 3376SOL     OW10585   1.950   1.801   2.789
 3376SOL    HW110586   1.908   1.715   2.762
 3376SOL    HW210587   2.044   1.804   2.755
 3377SOL     OW10588   2.366   1.568   2.772
 3377SOL    HW110589   2.432   1.642   2.781
 3377SOL    HW210590   2.410   1.489   2.730
 3378SOL     OW10591   2.864   0.796   3.100
 3378SOL    HW110592   2.905   0.764   3.186
 3378SOL    HW210593   2.768   0.769   3.097
 3379SOL     OW10594   1.902   0.544   2.976
 3379SOL    HW110595   1.987   0.511   2.935
 3379SOL    HW210596   1.915   0.559   3.074
 3380SOL     OW10597   2.051   0.520   3.584
 3380SOL    HW110598   2.110   0.480   3.514
 3380SOL    HW210599   1.993   0.591   3.543
 3381SOL     OW10600   3.231   0.950   3.522
 3381SOL    HW110601   3.270   1.039   3.542
 3381SOL    HW210602   3.241   0.930   3.425
 3382SOL     OW10603   2.677   0.572   2.187
 3382SOL    HW110604   2.684   0.483   2.141
 3382SOL    HW210605   2.583   0.606   2.179
 3383SOL     OW10606   3.519   0.604   3.068
 3383SOL    HW110607   3.481   0.535   3.130
 3383SOL    HW210608   3.601   0.568   3.024
 3384SOL     OW10609   2.114   1.564   3.606
 3384SOL    HW110610   2.084   1.621   3.682
 3384SOL    HW210611   2.107   1.467   3.632
 3385SOL     OW10612   2.533   0.464   3.131
 3385SOL    HW110613   2.499   0.375   3.101
 3385SOL    HW210614   2.559   0.518   3.051
 3386SOL     OW10615   2.792   1.678   3.327
 3386SOL    HW110616   2.768   1.660   3.232
 3386SOL    HW210617   2.822   1.772   3.337
 3387SOL     OW10618   2.335   0.500   2.053
 3387SOL    HW110619   2.396   0.580   2.057
 3387SOL    HW210620   2.240   0.531   2.060
 3388SOL     OW10621   2.021   1.137   3.328
 3388SOL    HW110622   2.043   1.076   3.404
 3388SOL    HW210623   2.031   1.088   3.242
 3389SOL     OW10624   3.209   1.059   3.096
 3389SOL    HW110625   3.233   0.996   3.022
 3389SOL    HW210626   3.119   1.099   3.078
 3390SOL     OW10627   3.164   0.855   2.171
 3390SOL    HW110628   3.078   0.824   2.213
 3390SOL    HW210629   3.160   0.841   2.072
 3391SOL     OW10630   3.621   1.747   3.016
 3391SOL    HW110631   3.682   1.777   2.943
 3391SOL    HW210632   3.583   1.658   2.994
 3392SOL     OW10633   3.114   1.731   2.990
 3392SOL    HW110634   3.198   1.736   2.936
 3392SOL    HW210635   3.091   1.635   3.008
 3393SOL     OW10636   1.945   1.258   2.884
 3393SOL    HW110637   1.940   1.257   2.984
 3393SOL    HW210638   1.862   1.217   2.846
 3394SOL     OW10639   2.550   1.662   3.578
 3394SOL    HW110640   2.494   1.743   3.587
 3394SOL    HW210641   2.602   1.666   3.492
 3395SOL     OW10642   3.588   0.135   2.385
 3395SOL    HW110643   3.661   0.118   2.318
 3395SOL    HW210644   3.557   0.048   2.423
 3396SOL     OW10645   3.250   1.573   2.339
 3396SOL    HW110646   3.317   1.585   2.265
 3396SOL    HW210647   3.210   1.662   2.362
 3397SOL     OW10648   1.992   1.794   3.713
 3397SOL    HW110649   1.951   1.720   3.766
 3397SOL    HW210650   2.056   1.845   3.771
 3398SOL     OW10651   3.142   0.927   2.534
 3398SOL    HW110652   3.202   0.846   2.536
 3398SOL    HW210653   3.182   0.996   2.474
 3399SOL     OW10654   2.692   1.273   3.284
 3399SOL    HW110655   2.687   1.306   3.379
 3399SOL    HW210656   2.606   1.292   3.238
 3400SOL     OW10657   2.534   1.616   2.016
 3400SOL    HW110658   2.543   1.626   1.917
 3400SOL    HW210659   2.494   1.527   2.037
 3401SOL     OW10660   3.512   1.720   3.256
 3401SOL    HW110661   3.565   1.730   3.172
 3401SOL    HW210662   3.485   1.810   3.290
 3402SOL     OW10663   3.703   0.175   2.825
 3402SOL    HW110664   3.742   0.090   2.789
 3402SOL    HW210665   3.605   0.177   2.806
 3403SOL     OW10666   2.125   0.326   2.582
 3403SOL    HW110667   2.046   0.377   2.548
 3403SOL    HW210668   2.116   0.311   2.680
 3404SOL     OW10669   3.056   1.612   1.893
 3404SOL    HW110670   3.062   1.519   1.930
 3404SOL    HW210671   2.997   1.612   1.813
 3405SOL     OW10672   2.684   1.002   3.234
 3405SOL    HW110673   2.724   1.001   3.142
 3405SOL    HW210674   2.694   1.094   3.274
 3406SOL     OW10675   2.778   0.910   2.153
 3406SOL    HW110676   2.841   0.948   2.085
 3406SOL    HW210677   2.818   0.827   2.192
 3407SOL     OW10678   3.366   1.607   1.906
 3407SOL    HW110679   3.274   1.644   1.913
 3407SOL    HW210680   3.404   1.627   1.816
 3408SOL     OW10681   2.234   1.288   3.352
 3408SOL    HW110682   2.221   1.381   3.318
 3408SOL    HW210683   2.150   1.236   3.339
 3409SOL     OW10684   3.476   1.292   3.151
 3409SOL    HW110685   3.536   1.295   3.231
 3409SOL    HW210686   3.401   1.356   3.164
 3410SOL     OW10687   2.901   1.098   2.558
 3410SOL    HW110688   2.831   1.051   2.612
 3410SOL    HW210689   2.960   1.030   2.515
 3411SOL     OW10690   2.876   0.236   2.833
 3411SOL    HW110691   2.868   0.200   2.740
 3411SOL    HW210692   2.874   0.160   2.898
 3412SOL     OW10693   2.452   1.487   2.353
 3412SOL    HW110694   2.494   1.429   2.283
 3412SOL    HW210695   2.408   1.566   2.309
 3413SOL     OW10696   3.571   0.385   3.243
 3413SOL    HW110697   3.644   0.454   3.247
 3413SOL    HW210698   3.599   0.310   3.184
 3414SOL     OW10699   2.117   1.348   2.152
 3414SOL    HW110700   2.021   1.349   2.125
 3414SOL    HW210701   2.129   1.401   2.236
 3415SOL     OW10702   1.967   1.013   3.588
 3415SOL    HW110703   1.890   0.980   3.642
 3415SOL    HW210704   2.052   0.983   3.630
 3416SOL     OW10705   2.534   0.203   3.351
 3416SOL    HW110706   2.624   0.187   3.311
 3416SOL    HW210707   2.542   0.208   3.450
 3417SOL     OW10708   1.937   0.345   1.895
 3417SOL    HW110709   1.845   0.317   1.866
 3417SOL    HW210710   1.968   0.422   1.839
 3418SOL     OW10711   3.302   0.856   3.260
 3418SOL    HW110712   3.245   0.908   3.197
 3418SOL    HW210713   3.398   0.868   3.236
 3419SOL     OW10714   1.934   0.166   2.180
 3419SOL    HW110715   1.917   0.249   2.126
 3419SOL    HW210716   2.024   0.129   2.158
 3420SOL     OW10717   3.045   1.335   1.981
 3420SOL    HW110718   2.946   1.324   1.983
 3420SOL    HW210719   3.079   1.350   2.074
 3421SOL     OW10720   2.475   0.842   3.293
 3421SOL    HW110721   2.531   0.923   3.276
 3421SOL    HW210722   2.534   0.762   3.296
 3422SOL     OW10723   3.355   1.767   2.821
 3422SOL    HW110724   3.388   1.831   2.752
 3422SOL    HW210725   3.421   1.761   2.896
 3423SOL     OW10726   2.578   0.565   3.570
 3423SOL    HW110727   2.597   0.630   3.644
 3423SOL    HW210728   2.638   0.485   3.579
 3424SOL     OW10729   3.312   1.220   3.495
 3424SOL    HW110730   3.303   1.210   3.594
 3424SOL    HW210731   3.408   1.213   3.469
 3425SOL     OW10732   2.252   1.741   3.422
 3425SOL    HW110733   2.161   1.782   3.420
 3425SOL    HW210734   2.245   1.647   3.454
 3426SOL     OW10735   3.536   0.883   3.116
 3426SOL    HW110736   3.509   0.794   3.079
 3426SOL    HW210737   3.537   0.951   3.043
 3427SOL     OW10738   3.087   0.325   2.311
 3427SOL    HW110739   3.152   0.251   2.300
 3427SOL    HW210740   3.107   0.375   2.395
 3428SOL     OW10741   2.456   0.745   2.514
 3428SOL    HW110742   2.506   0.830   2.495
 3428SOL    HW210743   2.368   0.747   2.466
 3429SOL     OW10744   3.639   0.342   3.504
 3429SOL    HW110745   3.622   0.373   3.410
 3429SOL    HW210746   3.555   0.305   3.542
 3430SOL     OW10747   3.592   0.934   3.379
 3430SOL    HW110748   3.630   1.025   3.394
 3430SOL    HW210749   3.584   0.917   3.280
 3431SOL     OW10750   2.721   1.374   1.878
 3431SOL    HW110751   2.675   1.389   1.966
 3431SOL    HW210752   2.765   1.459   1.848
 3432SOL     OW10753   2.523   1.790   2.815
 3432SOL    HW110754   2.477   1.878   2.802
 3432SOL    HW210755   2.622   1.802   2.808
 3433SOL     OW10756   2.721   0.956   2.723
 3433SOL    HW110757   2.775   0.887   2.771
 3433SOL    HW210758   2.689   1.025   2.789
 3434SOL     OW10759   2.945   0.984   1.949
 3434SOL    HW110760   2.922   1.037   1.867
 3434SOL    HW210761   3.026   0.928   1.930
 3435SOL     OW10762   3.723   1.569   2.713
 3435SOL    HW110763   3.652   1.557   2.643
 3435SOL    HW210764   3.724   1.490   2.773
 3436SOL     OW10765   2.083   1.314   3.706
 3436SOL    HW110766   2.018   1.241   3.685
 3436SOL    HW210767   2.087   1.328   3.804
 3437SOL     OW10768   1.941   1.240   2.515
 3437SOL    HW110769   1.940   1.193   2.603
 3437SOL    HW210770   2.023   1.212   2.464
 3438SOL     OW10771   2.534   1.391   3.486
 3438SOL    HW110772   2.456   1.341   3.524
 3438SOL    HW210773   2.531   1.486   3.517
 3439SOL     OW10774   3.686   0.192   3.089
 3439SOL    HW110775   3.682   0.102   3.133
 3439SOL    HW210776   3.689   0.181   2.990
 3440SOL     OW10777   2.290   0.424   2.382
 3440SOL    HW110778   2.320   0.352   2.320
 3440SOL    HW210779   2.251   0.384   2.465
 3441SOL     OW10780   3.567   1.487   2.966
 3441SOL    HW110781   3.474   1.462   2.939
 3441SOL    HW210782   3.593   1.437   3.048
 3442SOL     OW10783   2.179   0.547   3.142
 3442SOL    HW110784   2.217   0.488   3.214
 3442SOL    HW210785   2.219   0.521   3.054
 3443SOL     OW10786   2.674   1.586   2.549
 3443SOL    HW110787   2.706   1.596   2.455
 3443SOL    HW210788   2.595   1.524   2.551
 3444SOL     OW10789   3.286   0.214   2.974
 3444SOL    HW110790   3.338   0.149   3.029
 3444SOL    HW210791   3.237   0.277   3.035
 3445SOL     OW10792   2.863   0.034   3.016
 3445SOL    HW110793   2.800  -0.038   2.985
 3445SOL    HW210794   2.956  -0.002   3.016
 3446SOL     OW10795   2.632   1.330   2.163
 3446SOL    HW110796   2.586   1.243   2.180
 3446SOL    HW210797   2.723   1.327   2.204
 3447SOL     OW10798   2.480   1.567   3.146
 3447SOL    HW110799   2.475   1.649   3.203
 3447SOL    HW210800   2.569   1.564   3.101
 3448SOL     OW10801   3.214   0.052   2.030
 3448SOL    HW110802   3.249   0.011   1.946
 3448SOL    HW210803   3.124   0.014   2.050
 3449SOL     OW10804   3.162   0.453   2.553
 3449SOL    HW110805   3.103   0.533   2.557
 3449SOL    HW210806   3.177   0.418   2.646
 3450SOL     OW10807   3.455   0.221   2.744
 3450SOL    HW110808   3.371   0.220   2.798
 3450SOL    HW210809   3.457   0.304   2.688
 3451SOL     OW10810   1.901   1.077   2.162
 3451SOL    HW110811   2.000   1.066   2.153
 3451SOL    HW210812   1.861   0.991   2.194
 3452SOL     OW10813   2.737   1.646   2.199
 3452SOL    HW110814   2.660   1.611   2.145
 3452SOL    HW210815   2.705   1.717   2.261
 3453SOL     OW10816   2.092   0.628   3.837
 3453SOL    HW110817   1.999   0.626   3.874
 3453SOL    HW210818   2.093   0.589   3.745
 3454SOL     OW10819   2.087   0.275   4.720
 3454SOL    HW110820   2.122   0.258   4.812
 3454SOL    HW210821   1.999   0.230   4.708
 3455SOL     OW10822   1.881   0.368   4.371
 3455SOL    HW110823   1.799   0.411   4.410
 3455SOL    HW210824   1.853   0.295   4.308
 3456SOL     OW10825   2.431   1.275   4.889
 3456SOL    HW110826   2.338   1.268   4.852
 3456SOL    HW210827   2.442   1.364   4.933
 3457SOL     OW10828   3.417   1.511   4.427
 3457SOL    HW110829   3.360   1.495   4.508
 3457SOL    HW210830   3.358   1.521   4.347
 3458SOL     OW10831   2.997   0.703   4.441
 3458SOL    HW110832   3.054   0.781   4.416
 3458SOL    HW210833   2.937   0.729   4.517
 3459SOL     OW10834   3.617   0.607   3.955
 3459SOL    HW110835   3.605   0.594   3.856
 3459SOL    HW210836   3.587   0.526   4.004
 3460SOL     OW10837   2.630   1.144   4.747
 3460SOL    HW110838   2.552   1.161   4.807
 3460SOL    HW210839   2.664   1.231   4.711
 3461SOL     OW10840   2.712   0.798   5.547
 3461SOL    HW110841   2.708   0.874   5.612
 3461SOL    HW210842   2.734   0.834   5.456
 3462SOL     OW10843   2.547   1.012   4.389
 3462SOL    HW110844   2.616   0.996   4.459
 3462SOL    HW210845   2.474   1.069   4.427
 3463SOL     OW10846   2.548   1.161   5.527
 3463SOL    HW110847   2.608   1.240   5.541
 3463SOL    HW210848   2.462   1.192   5.486
 3464SOL     OW10849   2.197   1.435   4.785
 3464SOL    HW110850   2.119   1.404   4.732
 3464SOL    HW210851   2.255   1.493   4.728
 3465SOL     OW10852   3.322   1.505   5.063
 3465SOL    HW110853   3.346   1.599   5.089
 3465SOL    HW210854   3.306   1.451   5.145
 3466SOL     OW10855   2.300   0.392   5.223
 3466SOL    HW110856   2.382   0.336   5.232
 3466SOL    HW210857   2.219   0.334   5.227
 3467SOL     OW10858   3.465   0.447   4.461
 3467SOL    HW110859   3.391   0.493   4.411
 3467SOL    HW210860   3.516   0.515   4.514
 3468SOL     OW10861   2.093   1.713   4.207
 3468SOL    HW110862   2.127   1.790   4.261
 3468SOL    HW210863   2.137   1.713   4.117
 3469SOL     OW10864   2.989   1.341   5.414
 3469SOL    HW110865   3.036   1.341   5.502
 3469SOL    HW210866   2.941   1.254   5.403
 3470SOL     OW10867   2.092   1.434   4.262
 3470SOL    HW110868   2.066   1.530   4.262
 3470SOL    HW210869   2.021   1.380   4.307
 3471SOL     OW10870   2.102   1.091   4.610
 3471SOL    HW110871   2.116   1.007   4.662
 3471SOL    HW210872   2.047   1.155   4.665
 3472SOL     OW10873   2.468   0.964   3.847
 3472SOL    HW110874   2.475   1.048   3.793
 3472SOL    HW210875   2.514   0.977   3.935
 3473SOL     OW10876   3.456   0.114   5.204
 3473SOL    HW110877   3.438   0.181   5.132
 3473SOL    HW210878   3.453   0.160   5.293
 3474SOL     OW10879   1.984   0.643   4.287
 3474SOL    HW110880   1.939   0.555   4.304
 3474SOL    HW210881   1.983   0.697   4.371
 3475SOL     OW10882   3.704   1.767   4.083
 3475SOL    HW110883   3.758   1.738   4.163
 3475SOL    HW210884   3.734   1.857   4.054
 3476SOL     OW10885   1.889   1.596   3.841
 3476SOL    HW110886   1.870   1.500   3.862
 3476SOL    HW210887   1.856   1.654   3.916
 3477SOL     OW10888   3.551   0.922   4.336
 3477SOL    HW110889   3.646   0.893   4.344
 3477SOL    HW210890   3.543   0.987   4.261
 3478SOL     OW10891   3.503   1.108   4.156
 3478SOL    HW110892   3.589   1.110   4.104
 3478SOL    HW210893   3.517   1.155   4.244
 3479SOL     OW10894   1.975   0.737   5.321
 3479SOL    HW110895   2.063   0.724   5.366
 3479SOL    HW210896   1.962   0.834   5.299
 3480SOL     OW10897   2.475   1.365   4.450
 3480SOL    HW110898   2.426   1.278   4.459
 3480SOL    HW210899   2.452   1.408   4.363
 3481SOL     OW10900   3.155   1.228   5.147
 3481SOL    HW110901   3.192   1.155   5.089
 3481SOL    HW210902   3.207   1.233   5.232
 3482SOL     OW10903   2.671   0.004   4.226
 3482SOL    HW110904   2.711   0.095   4.217
 3482SOL    HW210905   2.571   0.012   4.232
 3483SOL     OW10906   2.059   0.976   4.988
 3483SOL    HW110907   2.148   0.931   4.974
 3483SOL    HW210908   1.986   0.911   4.969
 3484SOL     OW10909   3.387   0.999   3.914
 3484SOL    HW110910   3.324   0.923   3.927
 3484SOL    HW210911   3.435   1.017   4.000
 3485SOL     OW10912   3.049   1.792   5.340
 3485SOL    HW110913   3.073   1.852   5.264
 3485SOL    HW210914   3.056   1.697   5.310
 3486SOL     OW10915   2.179   0.251   5.525
 3486SOL    HW110916   2.250   0.322   5.531
 3486SOL    HW210917   2.091   0.290   5.553
 3487SOL     OW10918   3.328   1.417   4.677
 3487SOL    HW110919   3.269   1.423   4.757
 3487SOL    HW210920   3.313   1.329   4.631
 3488SOL     OW10921   3.529   1.714   4.296
 3488SOL    HW110922   3.488   1.691   4.208
 3488SOL    HW210923   3.511   1.640   4.361
 3489SOL     OW10924   2.460   0.729   3.994
 3489SOL    HW110925   2.484   0.798   3.926
 3489SOL    HW210926   2.382   0.762   4.048
 3490SOL     OW10927   3.143   0.345   4.668
 3490SOL    HW110928   3.057   0.295   4.655
 3490SOL    HW210929   3.205   0.291   4.724
 3491SOL     OW10930   3.438   1.662   4.031
 3491SOL    HW110931   3.527   1.708   4.034
 3491SOL    HW210932   3.417   1.638   3.936
 3492SOL     OW10933   2.669   0.605   5.189
 3492SOL    HW110934   2.622   0.602   5.278
 3492SOL    HW210935   2.618   0.550   5.123
 3493SOL     OW10936   3.256   0.469   5.398
 3493SOL    HW110937   3.236   0.512   5.486
 3493SOL    HW210938   3.334   0.407   5.407
 3494SOL     OW10939   2.835   0.890   5.296
 3494SOL    HW110940   2.881   0.806   5.267
 3494SOL    HW210941   2.779   0.924   5.221
 3495SOL     OW10942   2.853   0.410   4.966
 3495SOL    HW110943   2.776   0.444   5.020
 3495SOL    HW210944   2.819   0.359   4.887
 3496SOL     OW10945   2.903   0.701   4.153
 3496SOL    HW110946   2.929   0.697   4.249
 3496SOL    HW210947   2.818   0.650   4.139
 3497SOL     OW10948   1.938   0.811   4.513
 3497SOL    HW110949   2.037   0.799   4.522
 3497SOL    HW210950   1.914   0.906   4.534
 3498SOL     OW10951   2.727   0.348   3.919
 3498SOL    HW110952   2.786   0.411   3.870
 3498SOL    HW210953   2.746   0.254   3.890
 3499SOL     OW10954   3.581   0.585   5.555
 3499SOL    HW110955   3.555   0.674   5.519
 3499SOL    HW210956   3.579   0.517   5.482
 3500SOL     OW10957   3.224   1.144   4.269
 3500SOL    HW110958   3.307   1.115   4.221
 3500SOL    HW210959   3.175   1.211   4.213
 3501SOL     OW10960   2.412   0.196   4.609
 3501SOL    HW110961   2.407   0.191   4.709
 3501SOL    HW210962   2.414   0.292   4.580
 3502SOL     OW10963   2.870   1.456   4.201
 3502SOL    HW110964   2.824   1.528   4.149
 3502SOL    HW210965   2.866   1.476   4.299
 3503SOL     OW10966   3.657   1.066   4.597
 3503SOL    HW110967   3.595   1.051   4.521
 3503SOL    HW210968   3.605   1.077   4.682
 3504SOL     OW10969   3.089   1.550   5.230
 3504SOL    HW110970   3.095   1.473   5.294
 3504SOL    HW210971   3.037   1.524   5.150
 3505SOL     OW10972   2.183   0.943   3.966
 3505SOL    HW110973   2.265   0.982   3.924
 3505SOL    HW210974   2.156   0.861   3.917
 3506SOL     OW10975   3.320   0.735   4.452
 3506SOL    HW110976   3.315   0.670   4.527
 3506SOL    HW210977   3.400   0.794   4.465
 3507SOL     OW10978   2.323   1.266   5.451
 3507SOL    HW110979   2.273   1.267   5.365
 3507SOL    HW210980   2.260   1.248   5.527
 3508SOL     OW10981   2.973   1.776   3.961
 3508SOL    HW110982   2.913   1.714   4.011
 3508SOL    HW210983   3.004   1.732   3.876
 3509SOL     OW10984   2.064   0.285   5.222
 3509SOL    HW110985   1.984   0.345   5.209
 3509SOL    HW210986   2.054   0.236   5.308
 3510SOL     OW10987   3.494   1.377   3.805
 3510SOL    HW110988   3.462   1.471   3.795
 3510SOL    HW210989   3.418   1.314   3.793
 3511SOL     OW10990   2.326   1.743   4.047
 3511SOL    HW110991   2.359   1.782   4.133
 3511SOL    HW210992   2.402   1.736   3.982
 3512SOL     OW10993   3.262   0.107   4.150
 3512SOL    HW110994   3.238   0.070   4.060
 3512SOL    HW210995   3.361   0.123   4.154
 3513SOL     OW10996   2.802   1.698   4.628
 3513SOL    HW110997   2.882   1.641   4.649
 3513SOL    HW210998   2.753   1.658   4.551
 3514SOL     OW10999   2.244   0.700   4.204
 3514SOL    HW111000   2.289   0.610   4.201
 3514SOL    HW211001   2.150   0.689   4.237
 3515SOL     OW11002   3.409   0.222   5.453
 3515SOL    HW111003   3.404   0.259   5.545
 3515SOL    HW211004   3.337   0.153   5.441
 3516SOL     OW11005   2.476   0.122   3.841
 3516SOL    HW111006   2.574   0.100   3.848
 3516SOL    HW211007   2.445   0.105   3.748
 3517SOL     OW11008   2.643   0.264   5.473
 3517SOL    HW111009   2.710   0.203   5.516
 3517SOL    HW211010   2.570   0.283   5.538
 3518SOL     OW11011   2.750   1.514   4.919
 3518SOL    HW111012   2.727   1.489   4.825
 3518SOL    HW211013   2.811   1.445   4.958
 3519SOL     OW11014   3.213   0.590   5.157
 3519SOL    HW111015   3.241   0.547   5.242
 3519SOL    HW211016   3.238   0.686   5.158
 3520SOL     OW11017   2.665   1.402   4.648
 3520SOL    HW111018   2.755   1.416   4.606
 3520SOL    HW211019   2.594   1.404   4.577
 3521SOL     OW11020   2.784   0.503   4.623
 3521SOL    HW111021   2.759   0.494   4.527
 3521SOL    HW211022   2.832   0.421   4.654
 3522SOL     OW11023   2.401   0.064   4.236
 3522SOL    HW111024   2.320   0.065   4.294
 3522SOL    HW211025   2.404   0.147   4.181
 3523SOL     OW11026   3.296   1.188   3.765
 3523SOL    HW111027   3.328   1.112   3.822
 3523SOL    HW211028   3.204   1.215   3.795
 3524SOL     OW11029   2.159   0.035   3.895
 3524SOL    HW111030   2.208   0.119   3.874
 3524SOL    HW211031   2.221  -0.030   3.940
 3525SOL     OW11032   2.797   0.236   4.204
 3525SOL    HW111033   2.749   0.277   4.126
 3525SOL    HW211034   2.896   0.234   4.185
 3526SOL     OW11035   2.938   0.683   5.188
 3526SOL    HW111036   2.858   0.622   5.191
 3526SOL    HW211037   3.019   0.630   5.164
 3527SOL     OW11038   3.089   1.570   4.517
 3527SOL    HW111039   3.110   1.644   4.452
 3527SOL    HW211040   3.157   1.570   4.590
 3528SOL     OW11041   2.321   1.152   4.465
 3528SOL    HW111042   2.250   1.125   4.530
 3528SOL    HW211043   2.295   1.124   4.372
 3529SOL     OW11044   3.133   1.797   4.315
 3529SOL    HW111045   3.177   1.861   4.251
 3529SOL    HW211046   3.083   1.849   4.385
 3530SOL     OW11047   2.894   0.549   3.740
 3530SOL    HW111048   2.853   0.631   3.701
 3530SOL    HW211049   2.958   0.575   3.813
 3531SOL     OW11050   1.940   0.556   5.110
 3531SOL    HW111051   2.032   0.555   5.069
 3531SOL    HW211052   1.934   0.630   5.177
 3532SOL     OW11053   2.423   0.222   4.871
 3532SOL    HW111054   2.461   0.138   4.908
 3532SOL    HW211055   2.335   0.241   4.915
 3533SOL     OW11056   2.728   0.454   4.366
 3533SOL    HW111057   2.696   0.526   4.304
 3533SOL    HW211058   2.752   0.373   4.313
 3534SOL     OW11059   2.879   0.039   4.477
 3534SOL    HW111060   2.807   0.044   4.408
 3534SOL    HW211061   2.855  -0.030   4.546
 3535SOL     OW11062   3.291   1.173   4.591
 3535SOL    HW111063   3.236   1.089   4.584
 3535SOL    HW211064   3.317   1.202   4.499
 3536SOL     OW11065   3.328   0.590   4.716
 3536SOL    HW111066   3.298   0.495   4.723
 3536SOL    HW211067   3.401   0.606   4.782
 3537SOL     OW11068   3.719   0.833   4.101
 3537SOL    HW111069   3.761   0.769   4.165
 3537SOL    HW211070   3.681   0.782   4.023
 3538SOL     OW11071   2.350   1.385   3.898
 3538SOL    HW111072   2.263   1.370   3.945
 3538SOL    HW211073   2.333   1.411   3.803
 3539SOL     OW11074   3.526   1.280   4.381
 3539SOL    HW111075   3.625   1.288   4.395
 3539SOL    HW211076   3.481   1.364   4.412
 3540SOL     OW11077   3.252   0.575   3.802
 3540SOL    HW111078   3.198   0.554   3.883
 3540SOL    HW211079   3.343   0.534   3.811
 3541SOL     OW11080   2.389   0.256   4.052
 3541SOL    HW111081   2.416   0.197   3.977
 3541SOL    HW211082   2.389   0.351   4.021
 3542SOL     OW11083   3.616   1.223   5.312
 3542SOL    HW111084   3.707   1.184   5.299
 3542SOL    HW211085   3.624   1.319   5.336
 3543SOL     OW11086   2.926   1.347   5.064
 3543SOL    HW111087   2.846   1.324   5.119
 3543SOL    HW211088   3.009   1.321   5.113
 3544SOL     OW11089   3.454   1.629   5.349
 3544SOL    HW111090   3.481   1.663   5.259
 3544SOL    HW211091   3.533   1.591   5.395
 3545SOL     OW11092   2.973   1.195   4.824
 3545SOL    HW111093   2.933   1.239   4.905
 3545SOL    HW211094   2.932   1.232   4.741
 3546SOL     OW11095   3.500   1.099   4.803
 3546SOL    HW111096   3.505   1.180   4.862
 3546SOL    HW211097   3.414   1.101   4.752
 3547SOL     OW11098   2.777   0.089   5.126
 3547SOL    HW111099   2.802   0.069   5.031
 3547SOL    HW211100   2.849   0.145   5.168
 3548SOL     OW11101   2.842   1.116   5.443
 3548SOL    HW111102   2.743   1.122   5.453
 3548SOL    HW211103   2.865   1.036   5.387
 3549SOL     OW11104   2.567   1.050   4.092
 3549SOL    HW111105   2.553   1.057   4.191
 3549SOL    HW211106   2.651   0.999   4.074
 3550SOL     OW11107   2.272   0.813   4.975
 3550SOL    HW111108   2.358   0.825   5.025
 3550SOL    HW211109   2.230   0.726   5.002
 3551SOL     OW11110   3.136   0.386   4.986
 3551SOL    HW111111   3.157   0.460   5.050
 3551SOL    HW211112   3.047   0.403   4.943
 3552SOL     OW11113   2.229   1.100   4.225
 3552SOL    HW111114   2.222   1.183   4.169
 3552SOL    HW211115   2.233   1.020   4.165
 3553SOL     OW11116   2.428   0.537   4.589
 3553SOL    HW111117   2.440   0.603   4.515
 3553SOL    HW211118   2.474   0.571   4.672
 3554SOL     OW11119   3.114   1.348   4.112
 3554SOL    HW111120   3.164   1.425   4.152
 3554SOL    HW211121   3.019   1.350   4.144
 3555SOL     OW11122   3.134   1.445   4.866
 3555SOL    HW111123   3.181   1.458   4.953
 3555SOL    HW211124   3.068   1.371   4.875
 3556SOL     OW11125   3.444   0.639   4.196
 3556SOL    HW111126   3.413   0.700   4.269
 3556SOL    HW211127   3.494   0.691   4.127
 3557SOL     OW11128   2.216   1.510   5.053
 3557SOL    HW111129   2.195   1.466   4.966
 3557SOL    HW211130   2.313   1.536   5.056
 3558SOL     OW11131   2.264   0.751   5.322
 3558SOL    HW111132   2.332   0.806   5.275
 3558SOL    HW211133   2.304   0.663   5.349
 3559SOL     OW11134   3.449   0.779   5.394
 3559SOL    HW111135   3.357   0.817   5.389
 3559SOL    HW211136   3.509   0.826   5.329
 3560SOL     OW11137   2.875   0.105   5.494
 3560SOL    HW111138   2.881   0.190   5.442
 3560SOL    HW211139   2.907   0.029   5.437
 3561SOL     OW11140   2.366   0.050   5.464
 3561SOL    HW111141   2.324  -0.007   5.394
 3561SOL    HW211142   2.300   0.119   5.496
 3562SOL     OW11143   2.435   0.870   4.753
 3562SOL    HW111144   2.479   0.959   4.744
 3562SOL    HW211145   2.372   0.870   4.830
 3563SOL     OW11146   3.222   0.862   4.769
 3563SOL    HW111147   3.147   0.862   4.703
 3563SOL    HW211148   3.259   0.770   4.778
 3564SOL     OW11149   3.071   0.525   3.999
 3564SOL    HW111150   3.084   0.441   4.053
 3564SOL    HW211151   3.042   0.599   4.059
 3565SOL     OW11152   2.169   0.213   4.955
 3565SOL    HW111153   2.146   0.250   5.045
 3565SOL    HW211154   2.139   0.118   4.949
 3566SOL     OW11155   1.899   1.310   5.006
 3566SOL    HW111156   1.952   1.261   5.074
 3566SOL    HW211157   1.921   1.408   5.011
 3567SOL     OW11158   2.594   0.634   4.788
 3567SOL    HW111159   2.653   0.608   4.712
 3567SOL    HW211160   2.566   0.730   4.777
 3568SOL     OW11161   3.590   0.935   5.578
 3568SOL    HW111162   3.544   0.928   5.489
 3568SOL    HW211163   3.528   0.979   5.644
 3569SOL     OW11164   2.169   0.063   4.342
 3569SOL    HW111165   2.158   0.157   4.375
 3569SOL    HW211166   2.164   0.000   4.419
 3570SOL     OW11167   3.484   0.367   4.098
 3570SOL    HW111168   3.486   0.291   4.162
 3570SOL    HW211169   3.436   0.444   4.138
 3571SOL     OW11170   2.885   0.766   4.690
 3571SOL    HW111171   2.900   0.787   4.786
 3571SOL    HW211172   2.855   0.671   4.681
 3572SOL     OW11173   2.842   1.573   5.424
 3572SOL    HW111174   2.822   1.617   5.336
 3572SOL    HW211175   2.881   1.482   5.408
 3573SOL     OW11176   3.721   1.518   5.329
 3573SOL    HW111177   3.735   1.545   5.234
 3573SOL    HW211178   3.804   1.540   5.382
 3574SOL     OW11179   2.212   0.898   5.528
 3574SOL    HW111180   2.288   0.942   5.576
 3574SOL    HW211181   2.247   0.851   5.446
 3575SOL     OW11182   3.402   0.274   3.849
 3575SOL    HW111183   3.341   0.199   3.872
 3575SOL    HW211184   3.424   0.326   3.932
 3576SOL     OW11185   3.165   0.838   3.766
 3576SOL    HW111186   3.199   0.745   3.781
 3576SOL    HW211187   3.183   0.865   3.671
 3577SOL     OW11188   2.930   1.333   4.573
 3577SOL    HW111189   2.937   1.249   4.518
 3577SOL    HW211190   2.992   1.402   4.537
 3578SOL     OW11191   2.181   0.810   4.673
 3578SOL    HW111192   2.274   0.846   4.678
 3578SOL    HW211193   2.175   0.725   4.725
 3579SOL     OW11194   2.201   0.509   4.730
 3579SOL    HW111195   2.149   0.426   4.713
 3579SOL    HW211196   2.278   0.514   4.666
 3580SOL     OW11197   3.000   0.380   5.402
 3580SOL    HW111198   2.955   0.443   5.466
 3580SOL    HW211199   3.093   0.411   5.385
 3581SOL     OW11200   3.022   0.207   5.201
 3581SOL    HW111201   3.022   0.271   5.278
 3581SOL    HW211202   3.050   0.255   5.118
 3582SOL     OW11203   1.870   1.326   3.924
 3582SOL    HW111204   1.777   1.347   3.893
 3582SOL    HW211205   1.880   1.227   3.937
 3583SOL     OW11206   1.950   1.801   4.651
 3583SOL    HW111207   1.908   1.715   4.624
 3583SOL    HW211208   2.044   1.804   4.617
 3584SOL     OW11209   2.366   1.568   4.634
 3584SOL    HW111210   2.432   1.642   4.643
 3584SOL    HW211211   2.410   1.489   4.592
 3585SOL     OW11212   2.864   0.796   4.962
 3585SOL    HW111213   2.905   0.764   5.048
 3585SOL    HW211214   2.768   0.769   4.959
 3586SOL     OW11215   1.902   0.544   4.838
 3586SOL    HW111216   1.987   0.511   4.797
 3586SOL    HW211217   1.915   0.559   4.936
 3587SOL     OW11218   2.051   0.520   5.446
 3587SOL    HW111219   2.110   0.480   5.376
 3587SOL    HW211220   1.993   0.591   5.405
 3588SOL     OW11221   3.231   0.950   5.384
 3588SOL    HW111222   3.270   1.039   5.404
 3588SOL    HW211223   3.241   0.930   5.287
 3589SOL     OW11224   2.677   0.572   4.049
 3589SOL    HW111225   2.684   0.483   4.003
 3589SOL    HW211226   2.583   0.606   4.041
 3590SOL     OW11227   3.519   0.604   4.930
 3590SOL    HW111228   3.481   0.535   4.992
 3590SOL    HW211229   3.601   0.568   4.886
 3591SOL     OW11230   2.114   1.564   5.468
 3591SOL    HW111231   2.084   1.621   5.544
 3591SOL    HW211232   2.107   1.467   5.494
 3592SOL     OW11233   2.533   0.464   4.993
 3592SOL    HW111234   2.499   0.375   4.963
 3592SOL    HW211235   2.559   0.518   4.913
 3593SOL     OW11236   2.335   0.500   3.915
 3593SOL    HW111237   2.396   0.580   3.919
 3593SOL    HW211238   2.240   0.531   3.922
 3594SOL     OW11239   2.021   1.137   5.190
 3594SOL    HW111240   2.043   1.076   5.266
 3594SOL    HW211241   2.031   1.088   5.104
 3595SOL     OW11242   3.209   1.059   4.958
 3595SOL    HW111243   3.233   0.996   4.884
 3595SOL    HW211244   3.119   1.099   4.940
 3596SOL     OW11245   3.164   0.855   4.033
 3596SOL    HW111246   3.078   0.824   4.075
 3596SOL    HW211247   3.160   0.841   3.934
 3597SOL     OW11248   3.621   1.747   4.878
 3597SOL    HW111249   3.682   1.777   4.805
 3597SOL    HW211250   3.583   1.658   4.856
 3598SOL     OW11251   3.114   1.731   4.852
 3598SOL    HW111252   3.198   1.736   4.798
 3598SOL    HW211253   3.091   1.635   4.870
 3599SOL     OW11254   1.945   1.258   4.746
 3599SOL    HW111255   1.940   1.257   4.846
 3599SOL    HW211256   1.862   1.217   4.708
 3600SOL     OW11257   3.588   0.135   4.247
 3600SOL    HW111258   3.661   0.118   4.180
 3600SOL    HW211259   3.557   0.048   4.285
 3601SOL     OW11260   3.250   1.573   4.201
 3601SOL    HW111261   3.317   1.585   4.127
 3601SOL    HW211262   3.210   1.662   4.224
 3602SOL     OW11263   1.992   1.794   5.575
 3602SOL    HW111264   1.951   1.720   5.628
 3602SOL    HW211265   2.056   1.845   5.633
 3603SOL     OW11266   3.142   0.927   4.396
 3603SOL    HW111267   3.202   0.846   4.398
 3603SOL    HW211268   3.182   0.996   4.336
 3604SOL     OW11269   2.692   1.273   5.146
 3604SOL    HW111270   2.687   1.306   5.241
 3604SOL    HW211271   2.606   1.292   5.100
 3605SOL     OW11272   2.534   1.616   3.878
 3605SOL    HW111273   2.543   1.626   3.779
 3605SOL    HW211274   2.494   1.527   3.899
 3606SOL     OW11275   3.512   1.720   5.118
 3606SOL    HW111276   3.565   1.730   5.034
 3606SOL    HW211277   3.485   1.810   5.152
 3607SOL     OW11278   3.703   0.175   4.687
 3607SOL    HW111279   3.742   0.090   4.651
 3607SOL    HW211280   3.605   0.177   4.668
 3608SOL     OW11281   2.125   0.326   4.444
 3608SOL    HW111282   2.046   0.377   4.410
 3608SOL    HW211283   2.116   0.311   4.542
 3609SOL     OW11284   3.056   1.612   3.755
 3609SOL    HW111285   3.062   1.519   3.792
 3609SOL    HW211286   2.997   1.612   3.675
 3610SOL     OW11287   2.684   1.002   5.096
 3610SOL    HW111288   2.724   1.001   5.004
 3610SOL    HW211289   2.694   1.094   5.136
 3611SOL     OW11290   2.778   0.910   4.015
 3611SOL    HW111291   2.841   0.948   3.947
 3611SOL    HW211292   2.818   0.827   4.054
 3612SOL     OW11293   3.366   1.607   3.768
 3612SOL    HW111294   3.274   1.644   3.775
 3612SOL    HW211295   3.404   1.627   3.678
 3613SOL     OW11296   2.234   1.288   5.214
 3613SOL    HW111297   2.221   1.381   5.180
 3613SOL    HW211298   2.150   1.236   5.201
 3614SOL     OW11299   3.476   1.292   5.013
 3614SOL    HW111300   3.536   1.295   5.093
 3614SOL    HW211301   3.401   1.356   5.026
 3615SOL     OW11302   2.901   1.098   4.420
 3615SOL    HW111303   2.831   1.051   4.474
 3615SOL    HW211304   2.960   1.030   4.377
 3616SOL     OW11305   2.876   0.236   4.695
 3616SOL    HW111306   2.868   0.200   4.602
 3616SOL    HW211307   2.874   0.160   4.760
 3617SOL     OW11308   2.452   1.487   4.215
 3617SOL    HW111309   2.494   1.429   4.145
 3617SOL    HW211310   2.408   1.566   4.171
 3618SOL     OW11311   3.571   0.385   5.105
 3618SOL    HW111312   3.644   0.454   5.109
 3618SOL    HW211313   3.599   0.310   5.046
 3619SOL     OW11314   2.117   1.348   4.014
 3619SOL    HW111315   2.021   1.349   3.987
 3619SOL    HW211316   2.129   1.401   4.098
 3620SOL     OW11317   1.967   1.013   5.450
 3620SOL    HW111318   1.890   0.980   5.504
 3620SOL    HW211319   2.052   0.983   5.492
 3621SOL     OW11320   2.534   0.203   5.213
 3621SOL    HW111321   2.624   0.187   5.173
 3621SOL    HW211322   2.542   0.208   5.312
 3622SOL     OW11323   1.937   0.345   3.757
 3622SOL    HW111324   1.845   0.317   3.728
 3622SOL    HW211325   1.968   0.422   3.701
 3623SOL     OW11326   3.302   0.856   5.122
 3623SOL    HW111327   3.245   0.908   5.059
 3623SOL    HW211328   3.398   0.868   5.098
 3624SOL     OW11329   1.934   0.166   4.042
 3624SOL    HW111330   1.917   0.249   3.988
 3624SOL    HW211331   2.024   0.129   4.020
 3625SOL     OW11332   3.045   1.335   3.843
 3625SOL    HW111333   2.946   1.324   3.845
 3625SOL    HW211334   3.079   1.350   3.936
 3626SOL     OW11335   2.475   0.842   5.155
 3626SOL    HW111336   2.531   0.923   5.138
 3626SOL    HW211337   2.534   0.762   5.158
 3627SOL     OW11338   3.355   1.767   4.683
 3627SOL    HW111339   3.388   1.831   4.614
 3627SOL    HW211340   3.421   1.761   4.758
 3628SOL     OW11341   2.578   0.565   5.432
 3628SOL    HW111342   2.597   0.630   5.506
 3628SOL    HW211343   2.638   0.485   5.441
 3629SOL     OW11344   3.312   1.220   5.357
 3629SOL    HW111345   3.303   1.210   5.456
 3629SOL    HW211346   3.408   1.213   5.331
 3630SOL     OW11347   3.536   0.883   4.978
 3630SOL    HW111348   3.509   0.794   4.941
 3630SOL    HW211349   3.537   0.951   4.905
 3631SOL     OW11350   3.087   0.325   4.173
 3631SOL    HW111351   3.152   0.251   4.162
 3631SOL    HW211352   3.107   0.375   4.257
 3632SOL     OW11353   2.456   0.745   4.376
 3632SOL    HW111354   2.506   0.830   4.357
 3632SOL    HW211355   2.368   0.747   4.328
 3633SOL     OW11356   3.639   0.342   5.366
 3633SOL    HW111357   3.622   0.373   5.272
 3633SOL    HW211358   3.555   0.305   5.404
 3634SOL     OW11359   3.592   0.934   5.241
 3634SOL    HW111360   3.630   1.025   5.256
 3634SOL    HW211361   3.584   0.917   5.142
 3635SOL     OW11362   2.721   1.374   3.740
 3635SOL    HW111363   2.675   1.389   3.828
 3635SOL    HW211364   2.765   1.459   3.710
 3636SOL     OW11365   2.523   1.790   4.677
 3636SOL    HW111366   2.477   1.878   4.664
 3636SOL    HW211367   2.622   1.802   4.670
 3637SOL     OW11368   2.721   0.956   4.585
 3637SOL    HW111369   2.775   0.887   4.633
 3637SOL    HW211370   2.689   1.025   4.651
 3638SOL     OW11371   2.945   0.984   3.811
 3638SOL    HW111372   2.922   1.037   3.729
 3638SOL    HW211373   3.026   0.928   3.792
 3639SOL     OW11374   3.723   1.569   4.575
 3639SOL    HW111375   3.652   1.557   4.505
 3639SOL    HW211376   3.724   1.490   4.635
 3640SOL     OW11377   2.083   1.314   5.568
 3640SOL    HW111378   2.018   1.241   5.547
 3640SOL    HW211379   2.087   1.328   5.666
 3641SOL     OW11380   1.941   1.240   4.377
 3641SOL    HW111381   1.940   1.193   4.465
 3641SOL    HW211382   2.023   1.212   4.326
 3642SOL     OW11383   2.534   1.391   5.348
 3642SOL    HW111384   2.456   1.341   5.386
 3642SOL    HW211385   2.531   1.486   5.379
 3643SOL     OW11386   3.686   0.192   4.951
 3643SOL    HW111387   3.682   0.102   4.995
 3643SOL    HW211388   3.689   0.181   4.852
 3644SOL     OW11389   2.290   0.424   4.244
 3644SOL    HW111390   2.320   0.352   4.182
 3644SOL    HW211391   2.251   0.384   4.327
 3645SOL     OW11392   3.567   1.487   4.828
 3645SOL    HW111393   3.474   1.462   4.801
 3645SOL    HW211394   3.593   1.437   4.910
 3646SOL     OW11395   2.179   0.547   5.004
 3646SOL    HW111396   2.217   0.488   5.076
 3646SOL    HW211397   2.219   0.521   4.916
 3647SOL     OW11398   2.674   1.586   4.411
 3647SOL    HW111399   2.706   1.596   4.317
 3647SOL    HW211400   2.595   1.524   4.413
 3648SOL     OW11401   3.286   0.214   4.836
 3648SOL    HW111402   3.338   0.149   4.891
 3648SOL    HW211403   3.237   0.277   4.897
 3649SOL     OW11404   2.863   0.034   4.878
 3649SOL    HW111405   2.800  -0.038   4.847
 3649SOL    HW211406   2.956  -0.002   4.878
 3650SOL     OW11407   2.632   1.330   4.025
 3650SOL    HW111408   2.586   1.243   4.042
 3650SOL    HW211409   2.723   1.327   4.066
 3651SOL     OW11410   3.214   0.052   3.892
 3651SOL    HW111411   3.249   0.011   3.808
 3651SOL    HW211412   3.124   0.014   3.912
 3652SOL     OW11413   3.162   0.453   4.415
 3652SOL    HW111414   3.103   0.533   4.419
 3652SOL    HW211415   3.177   0.418   4.508
 3653SOL     OW11416   3.455   0.221   4.606
 3653SOL    HW111417   3.371   0.220   4.660
 3653SOL    HW211418   3.457   0.304   4.550
 3654SOL     OW11419   1.901   1.077   4.024
 3654SOL    HW111420   2.000   1.066   4.015
 3654SOL    HW211421   1.861   0.991   4.056
 3655SOL     OW11422   2.737   1.646   4.061
 3655SOL    HW111423   2.660   1.611   4.007
 3655SOL    HW211424   2.705   1.717   4.123
 3656SOL     OW11425   2.092   0.628   5.699
 3656SOL    HW111426   1.999   0.626   5.736
 3656SOL    HW211427   2.093   0.589   5.607
 3657SOL     OW11428   2.087   0.275   6.582
 3657SOL    HW111429   2.122   0.258   6.674
 3657SOL    HW211430   1.999   0.230   6.570
 3658SOL     OW11431   1.881   0.368   6.233
 3658SOL    HW111432   1.799   0.411   6.272
 3658SOL    HW211433   1.853   0.295   6.170
 3659SOL     OW11434   2.431   1.275   6.751
 3659SOL    HW111435   2.338   1.268   6.714
 3659SOL    HW211436   2.442   1.364   6.795
 3660SOL     OW11437   3.417   1.511   6.289
 3660SOL    HW111438   3.360   1.495   6.370
 3660SOL    HW211439   3.358   1.521   6.209
 3661SOL     OW11440   2.997   0.703   6.303
 3661SOL    HW111441   3.054   0.781   6.278
 3661SOL    HW211442   2.937   0.729   6.379
 3662SOL     OW11443   3.617   0.607   5.817
 3662SOL    HW111444   3.605   0.594   5.718
 3662SOL    HW211445   3.587   0.526   5.866
 3663SOL     OW11446   2.630   1.144   6.609
 3663SOL    HW111447   2.552   1.161   6.669
 3663SOL    HW211448   2.664   1.231   6.573
 3664SOL     OW11449   2.712   0.798   7.409
 3664SOL    HW111450   2.708   0.874   7.474
 3664SOL    HW211451   2.734   0.834   7.318
 3665SOL     OW11452   2.547   1.012   6.251
 3665SOL    HW111453   2.616   0.996   6.321
 3665SOL    HW211454   2.474   1.069   6.289
 3666SOL     OW11455   2.548   1.161   7.389
 3666SOL    HW111456   2.608   1.240   7.403
 3666SOL    HW211457   2.462   1.192   7.348
 3667SOL     OW11458   2.197   1.435   6.647
 3667SOL    HW111459   2.119   1.404   6.594
 3667SOL    HW211460   2.255   1.493   6.590
 3668SOL     OW11461   3.322   1.505   6.925
 3668SOL    HW111462   3.346   1.599   6.951
 3668SOL    HW211463   3.306   1.451   7.007
 3669SOL     OW11464   2.300   0.392   7.085
 3669SOL    HW111465   2.382   0.336   7.094
 3669SOL    HW211466   2.219   0.334   7.089
 3670SOL     OW11467   3.465   0.447   6.323
 3670SOL    HW111468   3.391   0.493   6.273
 3670SOL    HW211469   3.516   0.515   6.376
 3671SOL     OW11470   2.989   1.341   7.276
 3671SOL    HW111471   3.036   1.341   7.364
 3671SOL    HW211472   2.941   1.254   7.265
 3672SOL     OW11473   2.092   1.434   6.124
 3672SOL    HW111474   2.066   1.530   6.124
 3672SOL    HW211475   2.021   1.380   6.169
 3673SOL     OW11476   2.102   1.091   6.472
 3673SOL    HW111477   2.116   1.007   6.524
 3673SOL    HW211478   2.047   1.155   6.527
 3674SOL     OW11479   2.482   1.786   7.025
 3674SOL    HW111480   2.390   1.769   7.060
 3674SOL    HW211481   2.510   1.878   7.051
 3675SOL     OW11482   2.468   0.964   5.709
 3675SOL    HW111483   2.475   1.048   5.655
 3675SOL    HW211484   2.514   0.977   5.797
 3676SOL     OW11485   3.456   0.114   7.066
 3676SOL    HW111486   3.438   0.181   6.994
 3676SOL    HW211487   3.453   0.160   7.155
 3677SOL     OW11488   1.984   0.643   6.149
 3677SOL    HW111489   1.939   0.555   6.166
 3677SOL    HW211490   1.983   0.697   6.233
 3678SOL     OW11491   3.704   1.767   5.945
 3678SOL    HW111492   3.758   1.738   6.025
 3678SOL    HW211493   3.734   1.857   5.916
 3679SOL     OW11494   3.551   0.922   6.198
 3679SOL    HW111495   3.646   0.893   6.206
 3679SOL    HW211496   3.543   0.987   6.123
 3680SOL     OW11497   3.503   1.108   6.018
 3680SOL    HW111498   3.589   1.110   5.966
 3680SOL    HW211499   3.517   1.155   6.106
 3681SOL     OW11500   1.975   0.737   7.183
 3681SOL    HW111501   2.063   0.724   7.228
 3681SOL    HW211502   1.962   0.834   7.161
 3682SOL     OW11503   2.475   1.365   6.312
 3682SOL    HW111504   2.426   1.278   6.321
 3682SOL    HW211505   2.452   1.408   6.225
 3683SOL     OW11506   3.155   1.228   7.009
 3683SOL    HW111507   3.192   1.155   6.951
 3683SOL    HW211508   3.207   1.233   7.094
 3684SOL     OW11509   2.671   0.004   6.088
 3684SOL    HW111510   2.711   0.095   6.079
 3684SOL    HW211511   2.571   0.012   6.094
 3685SOL     OW11512   2.059   0.976   6.850
 3685SOL    HW111513   2.148   0.931   6.836
 3685SOL    HW211514   1.986   0.911   6.831
 3686SOL     OW11515   3.387   0.999   5.776
 3686SOL    HW111516   3.324   0.923   5.789
 3686SOL    HW211517   3.435   1.017   5.862
 3687SOL     OW11518   3.049   1.792   7.202
 3687SOL    HW111519   3.073   1.852   7.126
 3687SOL    HW211520   3.056   1.697   7.172
 3688SOL     OW11521   2.179   0.251   7.387
 3688SOL    HW111522   2.250   0.322   7.393
 3688SOL    HW211523   2.091   0.290   7.415
 3689SOL     OW11524   3.328   1.417   6.539
 3689SOL    HW111525   3.269   1.423   6.619
 3689SOL    HW211526   3.313   1.329   6.493
 3690SOL     OW11527   3.529   1.714   6.158
 3690SOL    HW111528   3.488   1.691   6.070
 3690SOL    HW211529   3.511   1.640   6.223
 3691SOL     OW11530   2.460   0.729   5.856
 3691SOL    HW111531   2.484   0.798   5.788
 3691SOL    HW211532   2.382   0.762   5.910
 3692SOL     OW11533   3.143   0.345   6.530
 3692SOL    HW111534   3.057   0.295   6.517
 3692SOL    HW211535   3.205   0.291   6.586
 3693SOL     OW11536   3.438   1.662   5.893
 3693SOL    HW111537   3.527   1.708   5.896
 3693SOL    HW211538   3.417   1.638   5.798
 3694SOL     OW11539   2.669   0.605   7.051
 3694SOL    HW111540   2.622   0.602   7.140
 3694SOL    HW211541   2.618   0.550   6.985
 3695SOL     OW11542   3.256   0.469   7.260
 3695SOL    HW111543   3.236   0.512   7.348
 3695SOL    HW211544   3.334   0.407   7.269
 3696SOL     OW11545   2.835   0.890   7.158
 3696SOL    HW111546   2.881   0.806   7.129
 3696SOL    HW211547   2.779   0.924   7.083
 3697SOL     OW11548   2.853   0.410   6.828
 3697SOL    HW111549   2.776   0.444   6.882
 3697SOL    HW211550   2.819   0.359   6.749
 3698SOL     OW11551   2.903   0.701   6.015
 3698SOL    HW111552   2.929   0.697   6.111
 3698SOL    HW211553   2.818   0.650   6.001
 3699SOL     OW11554   1.938   0.811   6.375
 3699SOL    HW111555   2.037   0.799   6.384
 3699SOL    HW211556   1.914   0.906   6.396
 3700SOL     OW11557   1.992   1.821   7.157
 3700SOL    HW111558   1.982   1.806   7.256
 3700SOL    HW211559   1.906   1.857   7.121
 3701SOL     OW11560   2.727   0.348   5.781
 3701SOL    HW111561   2.786   0.411   5.732
 3701SOL    HW211562   2.746   0.254   5.752
 3702SOL     OW11563   3.581   0.585   7.417
 3702SOL    HW111564   3.555   0.674   7.381
 3702SOL    HW211565   3.579   0.517   7.344
 3703SOL     OW11566   3.224   1.144   6.131
 3703SOL    HW111567   3.307   1.115   6.083
 3703SOL    HW211568   3.175   1.211   6.075
 3704SOL     OW11569   2.412   0.196   6.471
 3704SOL    HW111570   2.407   0.191   6.571
 3704SOL    HW211571   2.414   0.292   6.442
 3705SOL     OW11572   2.870   1.456   6.063
 3705SOL    HW111573   2.824   1.528   6.011
 3705SOL    HW211574   2.866   1.476   6.161
 3706SOL     OW11575   3.657   1.066   6.459
 3706SOL    HW111576   3.595   1.051   6.383
 3706SOL    HW211577   3.605   1.077   6.544
 3707SOL     OW11578   3.089   1.550   7.092
 3707SOL    HW111579   3.095   1.473   7.156
 3707SOL    HW211580   3.037   1.524   7.012
 3708SOL     OW11581   2.183   0.943   5.828
 3708SOL    HW111582   2.265   0.982   5.786
 3708SOL    HW211583   2.156   0.861   5.779
 3709SOL     OW11584   3.320   0.735   6.314
 3709SOL    HW111585   3.315   0.670   6.389
 3709SOL    HW211586   3.400   0.794   6.327
 3710SOL     OW11587   2.323   1.266   7.313
 3710SOL    HW111588   2.273   1.267   7.227
 3710SOL    HW211589   2.260   1.248   7.389
 3711SOL     OW11590   2.973   1.776   5.823
 3711SOL    HW111591   2.913   1.714   5.873
 3711SOL    HW211592   3.004   1.732   5.738
 3712SOL     OW11593   2.064   0.285   7.084
 3712SOL    HW111594   1.984   0.345   7.071
 3712SOL    HW211595   2.054   0.236   7.170
 3713SOL     OW11596   3.494   1.377   5.667
 3713SOL    HW111597   3.462   1.471   5.657
 3713SOL    HW211598   3.418   1.314   5.655
 3714SOL     OW11599   3.262   0.107   6.012
 3714SOL    HW111600   3.238   0.070   5.922
 3714SOL    HW211601   3.361   0.123   6.016
 3715SOL     OW11602   2.111   1.785   6.827
 3715SOL    HW111603   2.168   1.720   6.877
 3715SOL    HW211604   2.095   1.752   6.734
 3716SOL     OW11605   2.802   1.698   6.490
 3716SOL    HW111606   2.882   1.641   6.511
 3716SOL    HW211607   2.753   1.658   6.413
 3717SOL     OW11608   2.244   0.700   6.066
 3717SOL    HW111609   2.289   0.610   6.063
 3717SOL    HW211610   2.150   0.689   6.099
 3718SOL     OW11611   3.409   0.222   7.315
 3718SOL    HW111612   3.404   0.259   7.407
 3718SOL    HW211613   3.337   0.153   7.303
 3719SOL     OW11614   2.476   0.122   5.703
 3719SOL    HW111615   2.574   0.100   5.710
 3719SOL    HW211616   2.445   0.105   5.610
 3720SOL     OW11617   2.643   0.264   7.335
 3720SOL    HW111618   2.710   0.203   7.378
 3720SOL    HW211619   2.570   0.283   7.400
 3721SOL     OW11620   2.750   1.514   6.781
 3721SOL    HW111621   2.727   1.489   6.687
 3721SOL    HW211622   2.811   1.445   6.820
 3722SOL     OW11623   3.213   0.590   7.019
 3722SOL    HW111624   3.241   0.547   7.104
 3722SOL    HW211625   3.238   0.686   7.020
 3723SOL     OW11626   2.665   1.402   6.510
 3723SOL    HW111627   2.755   1.416   6.468
 3723SOL    HW211628   2.594   1.404   6.439
 3724SOL     OW11629   2.784   0.503   6.485
 3724SOL    HW111630   2.759   0.494   6.389
 3724SOL    HW211631   2.832   0.421   6.516
 3725SOL     OW11632   2.401   0.064   6.098
 3725SOL    HW111633   2.320   0.065   6.156
 3725SOL    HW211634   2.404   0.147   6.043
 3726SOL     OW11635   3.296   1.188   5.627
 3726SOL    HW111636   3.328   1.112   5.684
 3726SOL    HW211637   3.204   1.215   5.657
 3727SOL     OW11638   2.159   0.035   5.757
 3727SOL    HW111639   2.208   0.119   5.736
 3727SOL    HW211640   2.221  -0.030   5.802
 3728SOL     OW11641   2.797   0.236   6.066
 3728SOL    HW111642   2.749   0.277   5.988
 3728SOL    HW211643   2.896   0.234   6.047
 3729SOL     OW11644   2.938   0.683   7.050
 3729SOL    HW111645   2.858   0.622   7.053
 3729SOL    HW211646   3.019   0.630   7.026
 3730SOL     OW11647   3.089   1.570   6.379
 3730SOL    HW111648   3.110   1.644   6.314
 3730SOL    HW211649   3.157   1.570   6.452
 3731SOL     OW11650   2.321   1.152   6.327
 3731SOL    HW111651   2.250   1.125   6.392
 3731SOL    HW211652   2.295   1.124   6.234
 3732SOL     OW11653   3.133   1.797   6.177
 3732SOL    HW111654   3.177   1.861   6.113
 3732SOL    HW211655   3.083   1.849   6.247
 3733SOL     OW11656   2.894   0.549   5.602
 3733SOL    HW111657   2.853   0.631   5.563
 3733SOL    HW211658   2.958   0.575   5.675
 3734SOL     OW11659   1.940   0.556   6.972
 3734SOL    HW111660   2.032   0.555   6.931
 3734SOL    HW211661   1.934   0.630   7.039
 3735SOL     OW11662   2.423   0.222   6.733
 3735SOL    HW111663   2.461   0.138   6.770
 3735SOL    HW211664   2.335   0.241   6.777
 3736SOL     OW11665   2.728   0.454   6.228
 3736SOL    HW111666   2.696   0.526   6.166
 3736SOL    HW211667   2.752   0.373   6.175
 3737SOL     OW11668   2.879   0.039   6.339
 3737SOL    HW111669   2.807   0.044   6.270
 3737SOL    HW211670   2.855  -0.030   6.408
 3738SOL     OW11671   3.291   1.173   6.453
 3738SOL    HW111672   3.236   1.089   6.446
 3738SOL    HW211673   3.317   1.202   6.361
 3739SOL     OW11674   3.328   0.590   6.578
 3739SOL    HW111675   3.298   0.495   6.585
 3739SOL    HW211676   3.401   0.606   6.644
 3740SOL     OW11677   3.719   0.833   5.963
 3740SOL    HW111678   3.761   0.769   6.027
 3740SOL    HW211679   3.681   0.782   5.885
 3741SOL     OW11680   2.350   1.385   5.760
 3741SOL    HW111681   2.263   1.370   5.807
 3741SOL    HW211682   2.333   1.411   5.665
 3742SOL     OW11683   3.526   1.280   6.243
 3742SOL    HW111684   3.625   1.288   6.257
 3742SOL    HW211685   3.481   1.364   6.274
 3743SOL     OW11686   3.252   0.575   5.664
 3743SOL    HW111687   3.198   0.554   5.745
 3743SOL    HW211688   3.343   0.534   5.673
 3744SOL     OW11689   2.389   0.256   5.914
 3744SOL    HW111690   2.416   0.197   5.839
 3744SOL    HW211691   2.389   0.351   5.883
 3745SOL     OW11692   3.616   1.223   7.174
 3745SOL    HW111693   3.707   1.184   7.161
 3745SOL    HW211694   3.624   1.319   7.198
 3746SOL     OW11695   2.926   1.347   6.926
 3746SOL    HW111696   2.846   1.324   6.981
 3746SOL    HW211697   3.009   1.321   6.975
 3747SOL     OW11698   3.454   1.629   7.211
 3747SOL    HW111699   3.481   1.663   7.121
 3747SOL    HW211700   3.533   1.591   7.257
 3748SOL     OW11701   2.973   1.195   6.686
 3748SOL    HW111702   2.933   1.239   6.767
 3748SOL    HW211703   2.932   1.232   6.603
 3749SOL     OW11704   3.500   1.099   6.665
 3749SOL    HW111705   3.505   1.180   6.724
 3749SOL    HW211706   3.414   1.101   6.614
 3750SOL     OW11707   2.777   0.089   6.988
 3750SOL    HW111708   2.802   0.069   6.893
 3750SOL    HW211709   2.849   0.145   7.030
 3751SOL     OW11710   2.842   1.116   7.305
 3751SOL    HW111711   2.743   1.122   7.315
 3751SOL    HW211712   2.865   1.036   7.249
 3752SOL     OW11713   2.567   1.050   5.954
 3752SOL    HW111714   2.553   1.057   6.053
 3752SOL    HW211715   2.651   0.999   5.936
 3753SOL     OW11716   2.272   0.813   6.837
 3753SOL    HW111717   2.358   0.825   6.887
 3753SOL    HW211718   2.230   0.726   6.864
 3754SOL     OW11719   3.136   0.386   6.848
 3754SOL    HW111720   3.157   0.460   6.912
 3754SOL    HW211721   3.047   0.403   6.805
 3755SOL     OW11722   1.926   1.564   6.917
 3755SOL    HW111723   1.880   1.646   6.883
 3755SOL    HW211724   2.024   1.583   6.926
 3756SOL     OW11725   2.229   1.100   6.087
 3756SOL    HW111726   2.222   1.183   6.031
 3756SOL    HW211727   2.233   1.020   6.027
 3757SOL     OW11728   2.428   0.537   6.451
 3757SOL    HW111729   2.440   0.603   6.377
 3757SOL    HW211730   2.474   0.571   6.534
 3758SOL     OW11731   3.114   1.348   5.974
 3758SOL    HW111732   3.164   1.425   6.014
 3758SOL    HW211733   3.019   1.350   6.006
 3759SOL     OW11734   3.134   1.445   6.728
 3759SOL    HW111735   3.181   1.458   6.815
 3759SOL    HW211736   3.068   1.371   6.737
 3760SOL     OW11737   3.444   0.639   6.058
 3760SOL    HW111738   3.413   0.700   6.131
 3760SOL    HW211739   3.494   0.691   5.989
 3761SOL     OW11740   2.216   1.510   6.915
 3761SOL    HW111741   2.195   1.466   6.828
 3761SOL    HW211742   2.313   1.536   6.918
 3762SOL     OW11743   2.264   0.751   7.184
 3762SOL    HW111744   2.332   0.806   7.137
 3762SOL    HW211745   2.304   0.663   7.211
 3763SOL     OW11746   3.449   0.779   7.256
 3763SOL    HW111747   3.357   0.817   7.251
 3763SOL    HW211748   3.509   0.826   7.191
 3764SOL     OW11749   2.875   0.105   7.356
 3764SOL    HW111750   2.881   0.190   7.304
 3764SOL    HW211751   2.907   0.029   7.299
 3765SOL     OW11752   2.366   0.050   7.326
 3765SOL    HW111753   2.324  -0.007   7.256
 3765SOL    HW211754   2.300   0.119   7.358
 3766SOL     OW11755   2.435   0.870   6.615
 3766SOL    HW111756   2.479   0.959   6.606
 3766SOL    HW211757   2.372   0.870   6.692
 3767SOL     OW11758   3.222   0.862   6.631
 3767SOL    HW111759   3.147   0.862   6.565
 3767SOL    HW211760   3.259   0.770   6.640
 3768SOL     OW11761   3.071   0.525   5.861
 3768SOL    HW111762   3.084   0.441   5.915
 3768SOL    HW211763   3.042   0.599   5.921
 3769SOL     OW11764   2.169   0.213   6.817
 3769SOL    HW111765   2.146   0.250   6.907
 3769SOL    HW211766   2.139   0.118   6.811
 3770SOL     OW11767   1.899   1.310   6.868
 3770SOL    HW111768   1.952   1.261   6.936
 3770SOL    HW211769   1.921   1.408   6.873
 3771SOL     OW11770   2.594   0.634   6.650
 3771SOL    HW111771   2.653   0.608   6.574
 3771SOL    HW211772   2.566   0.730   6.639
 3772SOL     OW11773   3.590   0.935   7.440
 3772SOL    HW111774   3.544   0.928   7.351
 3772SOL    HW211775   3.528   0.979   7.506
 3773SOL     OW11776   2.169   0.063   6.204
 3773SOL    HW111777   2.158   0.157   6.237
 3773SOL    HW211778   2.164   0.000   6.281
 3774SOL     OW11779   3.484   0.367   5.960
 3774SOL    HW111780   3.486   0.291   6.024
 3774SOL    HW211781   3.436   0.444   6.000
 3775SOL     OW11782   2.885   0.766   6.552
 3775SOL    HW111783   2.900   0.787   6.648
 3775SOL    HW211784   2.855   0.671   6.543
 3776SOL     OW11785   2.842   1.573   7.286
 3776SOL    HW111786   2.822   1.617   7.198
 3776SOL    HW211787   2.881   1.482   7.270
 3777SOL     OW11788   3.721   1.518   7.191
 3777SOL    HW111789   3.735   1.545   7.096
 3777SOL    HW211790   3.804   1.540   7.244
 3778SOL     OW11791   2.212   0.898   7.390
 3778SOL    HW111792   2.288   0.942   7.438
 3778SOL    HW211793   2.247   0.851   7.308
 3779SOL     OW11794   3.402   0.274   5.711
 3779SOL    HW111795   3.341   0.199   5.734
 3779SOL    HW211796   3.424   0.326   5.794
 3780SOL     OW11797   3.165   0.838   5.628
 3780SOL    HW111798   3.199   0.745   5.643
 3780SOL    HW211799   3.183   0.865   5.533
 3781SOL     OW11800   2.930   1.333   6.435
 3781SOL    HW111801   2.937   1.249   6.380
 3781SOL    HW211802   2.992   1.402   6.399
 3782SOL     OW11803   2.181   0.810   6.535
 3782SOL    HW111804   2.274   0.846   6.540
 3782SOL    HW211805   2.175   0.725   6.587
 3783SOL     OW11806   2.201   0.509   6.592
 3783SOL    HW111807   2.149   0.426   6.575
 3783SOL    HW211808   2.278   0.514   6.528
 3784SOL     OW11809   3.000   0.380   7.264
 3784SOL    HW111810   2.955   0.443   7.328
 3784SOL    HW211811   3.093   0.411   7.247
 3785SOL     OW11812   3.022   0.207   7.063
 3785SOL    HW111813   3.022   0.271   7.140
 3785SOL    HW211814   3.050   0.255   6.980
 3786SOL     OW11815   1.870   1.326   5.786
 3786SOL    HW111816   1.777   1.347   5.755
 3786SOL    HW211817   1.880   1.227   5.799
 3787SOL     OW11818   1.950   1.801   6.513
 3787SOL    HW111819   1.908   1.715   6.486
 3787SOL    HW211820   2.044   1.804   6.479
 3788SOL     OW11821   2.366   1.568   6.496
 3788SOL    HW111822   2.432   1.642   6.505
 3788SOL    HW211823   2.410   1.489   6.454
 3789SOL     OW11824   2.864   0.796   6.824
 3789SOL    HW111825   2.905   0.764   6.910
 3789SOL    HW211826   2.768   0.769   6.821
 3790SOL     OW11827   1.902   0.544   6.700
 3790SOL    HW111828   1.987   0.511   6.659
 3790SOL    HW211829   1.915   0.559   6.798
 3791SOL     OW11830   2.051   0.520   7.308
 3791SOL    HW111831   2.110   0.480   7.238
 3791SOL    HW211832   1.993   0.591   7.267
 3792SOL     OW11833   3.231   0.950   7.246
 3792SOL    HW111834   3.270   1.039   7.266
 3792SOL    HW211835   3.241   0.930   7.149
 3793SOL     OW11836   2.677   0.572   5.911
 3793SOL    HW111837   2.684   0.483   5.865
 3793SOL    HW211838   2.583   0.606   5.903
 3794SOL     OW11839   3.519   0.604   6.792
 3794SOL    HW111840   3.481   0.535   6.854
 3794SOL    HW211841   3.601   0.568   6.748
 3795SOL     OW11842   2.114   1.564   7.330
 3795SOL    HW111843   2.084   1.621   7.406
 3795SOL    HW211844   2.107   1.467   7.356
 3796SOL     OW11845   2.533   0.464   6.855
 3796SOL    HW111846   2.499   0.375   6.825
 3796SOL    HW211847   2.559   0.518   6.775
 3797SOL     OW11848   2.792   1.678   7.051
 3797SOL    HW111849   2.768   1.660   6.956
 3797SOL    HW211850   2.822   1.772   7.061
 3798SOL     OW11851   2.335   0.500   5.777
 3798SOL    HW111852   2.396   0.580   5.781
 3798SOL    HW211853   2.240   0.531   5.784
 3799SOL     OW11854   2.021   1.137   7.052
 3799SOL    HW111855   2.043   1.076   7.128
 3799SOL    HW211856   2.031   1.088   6.966
 3800SOL     OW11857   3.209   1.059   6.820
 3800SOL    HW111858   3.233   0.996   6.746
 3800SOL    HW211859   3.119   1.099   6.802
 3801SOL     OW11860   3.164   0.855   5.895
 3801SOL    HW111861   3.078   0.824   5.937
 3801SOL    HW211862   3.160   0.841   5.796
 3802SOL     OW11863   3.621   1.747   6.740
 3802SOL    HW111864   3.682   1.777   6.667
 3802SOL    HW211865   3.583   1.658   6.718
 3803SOL     OW11866   3.114   1.731   6.714
 3803SOL    HW111867   3.198   1.736   6.660
 3803SOL    HW211868   3.091   1.635   6.732
 3804SOL     OW11869   1.945   1.258   6.608
 3804SOL    HW111870   1.940   1.257   6.708
 3804SOL    HW211871   1.862   1.217   6.570
 3805SOL     OW11872   2.550   1.662   7.302
 3805SOL    HW111873   2.494   1.743   7.311
 3805SOL    HW211874   2.602   1.666   7.216
 3806SOL     OW11875   3.588   0.135   6.109
 3806SOL    HW111876   3.661   0.118   6.042
 3806SOL    HW211877   3.557   0.048   6.147
 3807SOL     OW11878   3.250   1.573   6.063
 3807SOL    HW111879   3.317   1.585   5.989
 3807SOL    HW211880   3.210   1.662   6.086
 3808SOL     OW11881   1.992   1.794   7.437
 3808SOL    HW111882   1.951   1.720   7.490
 3808SOL    HW211883   2.056   1.845   7.495
 3809SOL     OW11884   3.142   0.927   6.258
 3809SOL    HW111885   3.202   0.846   6.260
 3809SOL    HW211886   3.182   0.996   6.198
 3810SOL     OW11887   2.692   1.273   7.008
 3810SOL    HW111888   2.687   1.306   7.103
 3810SOL    HW211889   2.606   1.292   6.962
 3811SOL     OW11890   3.512   1.720   6.980
 3811SOL    HW111891   3.565   1.730   6.896
 3811SOL    HW211892   3.485   1.810   7.014
 3812SOL     OW11893   3.703   0.175   6.549
 3812SOL    HW111894   3.742   0.090   6.513
 3812SOL    HW211895   3.605   0.177   6.530
 3813SOL     OW11896   2.125   0.326   6.306
 3813SOL    HW111897   2.046   0.377   6.272
 3813SOL    HW211898   2.116   0.311   6.404
 3814SOL     OW11899   3.056   1.612   5.617
 3814SOL    HW111900   3.062   1.519   5.654
 3814SOL    HW211901   2.997   1.612   5.537
 3815SOL     OW11902   2.684   1.002   6.958
 3815SOL    HW111903   2.724   1.001   6.866
 3815SOL    HW211904   2.694   1.094   6.998
 3816SOL     OW11905   2.778   0.910   5.877
 3816SOL    HW111906   2.841   0.948   5.809
 3816SOL    HW211907   2.818   0.827   5.916
 3817SOL     OW11908   3.366   1.607   5.630
 3817SOL    HW111909   3.274   1.644   5.637
 3817SOL    HW211910   3.404   1.627   5.540
 3818SOL     OW11911   2.234   1.288   7.076
 3818SOL    HW111912   2.221   1.381   7.042
 3818SOL    HW211913   2.150   1.236   7.063
 3819SOL     OW11914   3.476   1.292   6.875
 3819SOL    HW111915   3.536   1.295   6.955
 3819SOL    HW211916   3.401   1.356   6.888
 3820SOL     OW11917   2.901   1.098   6.282
 3820SOL    HW111918   2.831   1.051   6.336
 3820SOL    HW211919   2.960   1.030   6.239
 3821SOL     OW11920   2.876   0.236   6.557
 3821SOL    HW111921   2.868   0.200   6.464
 3821SOL    HW211922   2.874   0.160   6.622
 3822SOL     OW11923   3.571   0.385   6.967
 3822SOL    HW111924   3.644   0.454   6.971
 3822SOL    HW211925   3.599   0.310   6.908
 3823SOL     OW11926   2.117   1.348   5.876
 3823SOL    HW111927   2.021   1.349   5.849
 3823SOL    HW211928   2.129   1.401   5.960
 3824SOL     OW11929   1.967   1.013   7.312
 3824SOL    HW111930   1.890   0.980   7.366
 3824SOL    HW211931   2.052   0.983   7.354
 3825SOL     OW11932   2.534   0.203   7.075
 3825SOL    HW111933   2.624   0.187   7.035
 3825SOL    HW211934   2.542   0.208   7.174
 3826SOL     OW11935   1.937   0.345   5.619
 3826SOL    HW111936   1.845   0.317   5.590
 3826SOL    HW211937   1.968   0.422   5.563
 3827SOL     OW11938   3.302   0.856   6.984
 3827SOL    HW111939   3.245   0.908   6.921
 3827SOL    HW211940   3.398   0.868   6.960
 3828SOL     OW11941   1.934   0.166   5.904
 3828SOL    HW111942   1.917   0.249   5.850
 3828SOL    HW211943   2.024   0.129   5.882
 3829SOL     OW11944   3.045   1.335   5.705
 3829SOL    HW111945   2.946   1.324   5.707
 3829SOL    HW211946   3.079   1.350   5.798
 3830SOL     OW11947   2.475   0.842   7.017
 3830SOL    HW111948   2.531   0.923   7.000
 3830SOL    HW211949   2.534   0.762   7.020
 3831SOL     OW11950   3.355   1.767   6.545
 3831SOL    HW111951   3.388   1.831   6.476
 3831SOL    HW211952   3.421   1.761   6.620
 3832SOL     OW11953   2.578   0.565   7.294
 3832SOL    HW111954   2.597   0.630   7.368
 3832SOL    HW211955   2.638   0.485   7.303
 3833SOL     OW11956   3.312   1.220   7.219
 3833SOL    HW111957   3.303   1.210   7.318
 3833SOL    HW211958   3.408   1.213   7.193
 3834SOL     OW11959   2.252   1.741   7.146
 3834SOL    HW111960   2.161   1.782   7.144
 3834SOL    HW211961   2.245   1.647   7.178
 3835SOL     OW11962   3.536   0.883   6.840
 3835SOL    HW111963   3.509   0.794   6.803
 3835SOL    HW211964   3.537   0.951   6.767
 3836SOL     OW11965   3.087   0.325   6.035
 3836SOL    HW111966   3.152   0.251   6.024
 3836SOL    HW211967   3.107   0.375   6.119
 3837SOL     OW11968   2.456   0.745   6.238
 3837SOL    HW111969   2.506   0.830   6.219
 3837SOL    HW211970   2.368   0.747   6.190
 3838SOL     OW11971   3.639   0.342   7.228
 3838SOL    HW111972   3.622   0.373   7.134
 3838SOL    HW211973   3.555   0.305   7.266
 3839SOL     OW11974   3.592   0.934   7.103
 3839SOL    HW111975   3.630   1.025   7.118
 3839SOL    HW211976   3.584   0.917   7.004
 3840SOL     OW11977   2.721   1.374   5.602
 3840SOL    HW111978   2.675   1.389   5.690
 3840SOL    HW211979   2.765   1.459   5.572
 3841SOL     OW11980   2.523   1.790   6.539
 3841SOL    HW111981   2.477   1.878   6.526
 3841SOL    HW211982   2.622   1.802   6.532
 3842SOL     OW11983   2.721   0.956   6.447
 3842SOL    HW111984   2.775   0.887   6.495
 3842SOL    HW211985   2.689   1.025   6.513
 3843SOL     OW11986   2.945   0.984   5.673
 3843SOL    HW111987   2.922   1.037   5.591
 3843SOL    HW211988   3.026   0.928   5.654
 3844SOL     OW11989   3.723   1.569   6.437
 3844SOL    HW111990   3.652   1.557   6.367
 3844SOL    HW211991   3.724   1.490   6.497
 3845SOL     OW11992   2.083   1.314   7.430
 3845SOL    HW111993   2.018   1.241   7.409
 3845SOL    HW211994   2.087   1.328   7.528
 3846SOL     OW11995   1.941   1.240   6.239
 3846SOL    HW111996   1.940   1.193   6.327
 3846SOL    HW211997   2.023   1.212   6.188
 3847SOL     OW11998   2.534   1.391   7.210
 3847SOL    HW111999   2.456   1.341   7.248
 3847SOL    HW212000   2.531   1.486   7.241
 3848SOL     OW12001   3.686   0.192   6.813
 3848SOL    HW112002   3.682   0.102   6.857
 3848SOL    HW212003   3.689   0.181   6.714
 3849SOL     OW12004   2.290   0.424   6.106
 3849SOL    HW112005   2.320   0.352   6.044
 3849SOL    HW212006   2.251   0.384   6.189
 3850SOL     OW12007   3.567   1.487   6.690
 3850SOL    HW112008   3.474   1.462   6.663
 3850SOL    HW212009   3.593   1.437   6.772
 3851SOL     OW12010   2.179   0.547   6.866
 3851SOL    HW112011   2.217   0.488   6.938
 3851SOL    HW212012   2.219   0.521   6.778
 3852SOL     OW12013   2.674   1.586   6.273
 3852SOL    HW112014   2.706   1.596   6.179
 3852SOL    HW212015   2.595   1.524   6.275
 3853SOL     OW12016   3.286   0.214   6.698
 3853SOL    HW112017   3.338   0.149   6.753
 3853SOL    HW212018   3.237   0.277   6.759
 3854SOL     OW12019   2.863   0.034   6.740
 3854SOL    HW112020   2.800  -0.038   6.709
 3854SOL    HW212021   2.956  -0.002   6.740
 3855SOL     OW12022   2.632   1.330   5.887
 3855SOL    HW112023   2.586   1.243   5.904
 3855SOL    HW212024   2.723   1.327   5.928
 3856SOL     OW12025   2.480   1.567   6.870
 3856SOL    HW112026   2.475   1.649   6.927
 3856SOL    HW212027   2.569   1.564   6.825
 3857SOL     OW12028   3.214   0.052   5.754
 3857SOL    HW112029   3.249   0.011   5.670
 3857SOL    HW212030   3.124   0.014   5.774
 3858SOL     OW12031   3.162   0.453   6.277
 3858SOL    HW112032   3.103   0.533   6.281
 3858SOL    HW212033   3.177   0.418   6.370
 3859SOL     OW12034   3.455   0.221   6.468
 3859SOL    HW112035   3.371   0.220   6.522
 3859SOL    HW212036   3.457   0.304   6.412
 3860SOL     OW12037   1.901   1.077   5.886
 3860SOL    HW112038   2.000   1.066   5.877
 3860SOL    HW212039   1.861   0.991   5.918
 3861SOL     OW12040   2.092   0.628   7.561
 3861SOL    HW112041   1.999   0.626   7.598
 3861SOL    HW212042   2.093   0.589   7.469
 3862SOL     OW12043   2.087   0.275   8.444
 3862SOL    HW112044   2.122   0.258   8.536
 3862SOL    HW212045   1.999   0.230   8.432
 3863SOL     OW12046   1.881   0.368   8.095
 3863SOL    HW112047   1.799   0.411   8.134
 3863SOL    HW212048   1.853   0.295   8.032
 3864SOL     OW12049   2.431   1.275   8.613
 3864SOL    HW112050   2.338   1.268   8.576
 3864SOL    HW212051   2.442   1.364   8.657
 3865SOL     OW12052   3.417   1.511   8.151
 3865SOL    HW112053   3.360   1.495   8.232
 3865SOL    HW212054   3.358   1.521   8.071
 3866SOL     OW12055   2.997   0.703   8.165
 3866SOL    HW112056   3.054   0.781   8.140
 3866SOL    HW212057   2.937   0.729   8.241
 3867SOL     OW12058   3.617   0.607   7.679
 3867SOL    HW112059   3.605   0.594   7.580
 3867SOL    HW212060   3.587   0.526   7.728
 3868SOL     OW12061   2.630   1.144   8.471
 3868SOL    HW112062   2.552   1.161   8.531
 3868SOL    HW212063   2.664   1.231   8.435
 3869SOL     OW12064   2.712   0.798   9.271
 3869SOL    HW112065   2.708   0.874   9.336
 3869SOL    HW212066   2.734   0.834   9.180
 3870SOL     OW12067   2.547   1.012   8.113
 3870SOL    HW112068   2.616   0.996   8.183
 3870SOL    HW212069   2.474   1.069   8.151
 3871SOL     OW12070   2.548   1.161   9.251
 3871SOL    HW112071   2.608   1.240   9.265
 3871SOL    HW212072   2.462   1.192   9.210
 3872SOL     OW12073   2.197   1.435   8.509
 3872SOL    HW112074   2.119   1.404   8.456
 3872SOL    HW212075   2.255   1.493   8.452
 3873SOL     OW12076   3.322   1.505   8.787
 3873SOL    HW112077   3.346   1.599   8.813
 3873SOL    HW212078   3.306   1.451   8.869
 3874SOL     OW12079   2.300   0.392   8.947
 3874SOL    HW112080   2.382   0.336   8.956
 3874SOL    HW212081   2.219   0.334   8.951
 3875SOL     OW12082   3.465   0.447   8.185
 3875SOL    HW112083   3.391   0.493   8.135
 3875SOL    HW212084   3.516   0.515   8.238
 3876SOL     OW12085   2.093   1.713   7.931
 3876SOL    HW112086   2.127   1.790   7.985
 3876SOL    HW212087   2.137   1.713   7.841
 3877SOL     OW12088   2.989   1.341   9.138
 3877SOL    HW112089   3.036   1.341   9.226
 3877SOL    HW212090   2.941   1.254   9.127
 3878SOL     OW12091   2.092   1.434   7.986
 3878SOL    HW112092   2.066   1.530   7.986
 3878SOL    HW212093   2.021   1.380   8.031
 3879SOL     OW12094   2.102   1.091   8.334
 3879SOL    HW112095   2.116   1.007   8.386
 3879SOL    HW212096   2.047   1.155   8.389
 3880SOL     OW12097   2.482   1.786   8.887
 3880SOL    HW112098   2.390   1.769   8.922
 3880SOL    HW212099   2.510   1.878   8.913
 3881SOL     OW12100   2.468   0.964   7.571
 3881SOL    HW112101   2.475   1.048   7.517
 3881SOL    HW212102   2.514   0.977   7.659
 3882SOL     OW12103   3.456   0.114   8.928
 3882SOL    HW112104   3.438   0.181   8.856
 3882SOL    HW212105   3.453   0.160   9.017
 3883SOL     OW12106   1.984   0.643   8.011
 3883SOL    HW112107   1.939   0.555   8.028
 3883SOL    HW212108   1.983   0.697   8.095
 3884SOL     OW12109   3.704   1.767   7.807
 3884SOL    HW112110   3.758   1.738   7.887
 3884SOL    HW212111   3.734   1.857   7.778
 3885SOL     OW12112   1.889   1.596   7.565
 3885SOL    HW112113   1.870   1.500   7.586
 3885SOL    HW212114   1.856   1.654   7.640
 3886SOL     OW12115   3.551   0.922   8.060
 3886SOL    HW112116   3.646   0.893   8.068
 3886SOL    HW212117   3.543   0.987   7.985
 3887SOL     OW12118   3.503   1.108   7.880
 3887SOL    HW112119   3.589   1.110   7.828
 3887SOL    HW212120   3.517   1.155   7.968
 3888SOL     OW12121   1.975   0.737   9.045
 3888SOL    HW112122   2.063   0.724   9.090
 3888SOL    HW212123   1.962   0.834   9.023
 3889SOL     OW12124   2.475   1.365   8.174
 3889SOL    HW112125   2.426   1.278   8.183
 3889SOL    HW212126   2.452   1.408   8.087
 3890SOL     OW12127   3.155   1.228   8.871
 3890SOL    HW112128   3.192   1.155   8.813
 3890SOL    HW212129   3.207   1.233   8.956
 3891SOL     OW12130   2.671   0.004   7.950
 3891SOL    HW112131   2.711   0.095   7.941
 3891SOL    HW212132   2.571   0.012   7.956
 3892SOL     OW12133   2.059   0.976   8.712
 3892SOL    HW112134   2.148   0.931   8.698
 3892SOL    HW212135   1.986   0.911   8.693
 3893SOL     OW12136   3.387   0.999   7.638
 3893SOL    HW112137   3.324   0.923   7.651
 3893SOL    HW212138   3.435   1.017   7.724
 3894SOL     OW12139   3.049   1.792   9.064
 3894SOL    HW112140   3.073   1.852   8.988
 3894SOL    HW212141   3.056   1.697   9.034
 3895SOL     OW12142   2.179   0.251   9.249
 3895SOL    HW112143   2.250   0.322   9.255
 3895SOL    HW212144   2.091   0.290   9.277
 3896SOL     OW12145   3.328   1.417   8.401
 3896SOL    HW112146   3.269   1.423   8.481
 3896SOL    HW212147   3.313   1.329   8.355
 3897SOL     OW12148   3.529   1.714   8.020
 3897SOL    HW112149   3.488   1.691   7.932
 3897SOL    HW212150   3.511   1.640   8.085
 3898SOL     OW12151   2.460   0.729   7.718
 3898SOL    HW112152   2.484   0.798   7.650
 3898SOL    HW212153   2.382   0.762   7.772
 3899SOL     OW12154   3.143   0.345   8.392
 3899SOL    HW112155   3.057   0.295   8.379
 3899SOL    HW212156   3.205   0.291   8.448
 3900SOL     OW12157   3.438   1.662   7.755
 3900SOL    HW112158   3.527   1.708   7.758
 3900SOL    HW212159   3.417   1.638   7.660
 3901SOL     OW12160   2.669   0.605   8.913
 3901SOL    HW112161   2.622   0.602   9.002
 3901SOL    HW212162   2.618   0.550   8.847
 3902SOL     OW12163   3.256   0.469   9.122
 3902SOL    HW112164   3.236   0.512   9.210
 3902SOL    HW212165   3.334   0.407   9.131
 3903SOL     OW12166   2.835   0.890   9.020
 3903SOL    HW112167   2.881   0.806   8.991
 3903SOL    HW212168   2.779   0.924   8.945
 3904SOL     OW12169   2.853   0.410   8.690
 3904SOL    HW112170   2.776   0.444   8.744
 3904SOL    HW212171   2.819   0.359   8.611
 3905SOL     OW12172   2.903   0.701   7.877
 3905SOL    HW112173   2.929   0.697   7.973
 3905SOL    HW212174   2.818   0.650   7.863
 3906SOL     OW12175   1.938   0.811   8.237
 3906SOL    HW112176   2.037   0.799   8.246
 3906SOL    HW212177   1.914   0.906   8.258
 3907SOL     OW12178   1.992   1.821   9.019
 3907SOL    HW112179   1.982   1.806   9.118
 3907SOL    HW212180   1.906   1.857   8.983
 3908SOL     OW12181   2.727   0.348   7.643
 3908SOL    HW112182   2.786   0.411   7.594
 3908SOL    HW212183   2.746   0.254   7.614
 3909SOL     OW12184   3.581   0.585   9.279
 3909SOL    HW112185   3.555   0.674   9.243
 3909SOL    HW212186   3.579   0.517   9.206
 3910SOL     OW12187   3.224   1.144   7.993
 3910SOL    HW112188   3.307   1.115   7.945
 3910SOL    HW212189   3.175   1.211   7.937
 3911SOL     OW12190   2.412   0.196   8.333
 3911SOL    HW112191   2.407   0.191   8.433
 3911SOL    HW212192   2.414   0.292   8.304
 3912SOL     OW12193   2.870   1.456   7.925
 3912SOL    HW112194   2.824   1.528   7.873
 3912SOL    HW212195   2.866   1.476   8.023
 3913SOL     OW12196   2.213   1.801   8.301
 3913SOL    HW112197   2.263   1.715   8.307
 3913SOL    HW212198   2.278   1.878   8.298
 3914SOL     OW12199   3.657   1.066   8.321
 3914SOL    HW112200   3.595   1.051   8.245
 3914SOL    HW212201   3.605   1.077   8.406
 3915SOL     OW12202   3.089   1.550   8.954
 3915SOL    HW112203   3.095   1.473   9.018
 3915SOL    HW212204   3.037   1.524   8.874
 3916SOL     OW12205   2.183   0.943   7.690
 3916SOL    HW112206   2.265   0.982   7.648
 3916SOL    HW212207   2.156   0.861   7.641
 3917SOL     OW12208   3.320   0.735   8.176
 3917SOL    HW112209   3.315   0.670   8.251
 3917SOL    HW212210   3.400   0.794   8.189
 3918SOL     OW12211   2.323   1.266   9.175
 3918SOL    HW112212   2.273   1.267   9.089
 3918SOL    HW212213   2.260   1.248   9.251
 3919SOL     OW12214   2.973   1.776   7.685
 3919SOL    HW112215   2.913   1.714   7.735
 3919SOL    HW212216   3.004   1.732   7.600
 3920SOL     OW12217   2.064   0.285   8.946
 3920SOL    HW112218   1.984   0.345   8.933
 3920SOL    HW212219   2.054   0.236   9.032
 3921SOL     OW12220   3.494   1.377   7.529
 3921SOL    HW112221   3.462   1.471   7.519
 3921SOL    HW212222   3.418   1.314   7.517
 3922SOL     OW12223   2.326   1.743   7.771
 3922SOL    HW112224   2.359   1.782   7.857
 3922SOL    HW212225   2.402   1.736   7.706
 3923SOL     OW12226   3.262   0.107   7.874
 3923SOL    HW112227   3.238   0.070   7.784
 3923SOL    HW212228   3.361   0.123   7.878
 3924SOL     OW12229   2.111   1.785   8.689
 3924SOL    HW112230   2.168   1.720   8.739
 3924SOL    HW212231   2.095   1.752   8.596
 3925SOL     OW12232   2.802   1.698   8.352
 3925SOL    HW112233   2.882   1.641   8.373
 3925SOL    HW212234   2.753   1.658   8.275
 3926SOL     OW12235   2.244   0.700   7.928
 3926SOL    HW112236   2.289   0.610   7.925
 3926SOL    HW212237   2.150   0.689   7.961
 3927SOL     OW12238   3.409   0.222   9.177
 3927SOL    HW112239   3.404   0.259   9.269
 3927SOL    HW212240   3.337   0.153   9.165
 3928SOL     OW12241   2.476   0.122   7.565
 3928SOL    HW112242   2.574   0.100   7.572
 3928SOL    HW212243   2.445   0.105   7.472
 3929SOL     OW12244   2.643   0.264   9.197
 3929SOL    HW112245   2.710   0.203   9.240
 3929SOL    HW212246   2.570   0.283   9.262
 3930SOL     OW12247   2.750   1.514   8.643
 3930SOL    HW112248   2.727   1.489   8.549
 3930SOL    HW212249   2.811   1.445   8.682
 3931SOL     OW12250   3.213   0.590   8.881
 3931SOL    HW112251   3.241   0.547   8.966
 3931SOL    HW212252   3.238   0.686   8.882
 3932SOL     OW12253   2.665   1.402   8.372
 3932SOL    HW112254   2.755   1.416   8.330
 3932SOL    HW212255   2.594   1.404   8.301
 3933SOL     OW12256   2.784   0.503   8.347
 3933SOL    HW112257   2.759   0.494   8.251
 3933SOL    HW212258   2.832   0.421   8.378
 3934SOL     OW12259   2.401   0.064   7.960
 3934SOL    HW112260   2.320   0.065   8.018
 3934SOL    HW212261   2.404   0.147   7.905
 3935SOL     OW12262   3.296   1.188   7.489
 3935SOL    HW112263   3.328   1.112   7.546
 3935SOL    HW212264   3.204   1.215   7.519
 3936SOL     OW12265   2.159   0.035   7.619
 3936SOL    HW112266   2.208   0.119   7.598
 3936SOL    HW212267   2.221  -0.030   7.664
 3937SOL     OW12268   2.797   0.236   7.928
 3937SOL    HW112269   2.749   0.277   7.850
 3937SOL    HW212270   2.896   0.234   7.909
 3938SOL     OW12271   2.938   0.683   8.912
 3938SOL    HW112272   2.858   0.622   8.915
 3938SOL    HW212273   3.019   0.630   8.888
 3939SOL     OW12274   3.089   1.570   8.241
 3939SOL    HW112275   3.110   1.644   8.176
 3939SOL    HW212276   3.157   1.570   8.314
 3940SOL     OW12277   2.321   1.152   8.189
 3940SOL    HW112278   2.250   1.125   8.254
 3940SOL    HW212279   2.295   1.124   8.096
 3941SOL     OW12280   3.133   1.797   8.039
 3941SOL    HW112281   3.177   1.861   7.975
 3941SOL    HW212282   3.083   1.849   8.109
 3942SOL     OW12283   2.894   0.549   7.464
 3942SOL    HW112284   2.853   0.631   7.425
 3942SOL    HW212285   2.958   0.575   7.537
 3943SOL     OW12286   1.940   0.556   8.834
 3943SOL    HW112287   2.032   0.555   8.793
 3943SOL    HW212288   1.934   0.630   8.901
 3944SOL     OW12289   2.423   0.222   8.595
 3944SOL    HW112290   2.461   0.138   8.632
 3944SOL    HW212291   2.335   0.241   8.639
 3945SOL     OW12292   2.728   0.454   8.090
 3945SOL    HW112293   2.696   0.526   8.028
 3945SOL    HW212294   2.752   0.373   8.037
 3946SOL     OW12295   2.879   0.039   8.201
 3946SOL    HW112296   2.807   0.044   8.132
 3946SOL    HW212297   2.855  -0.030   8.270
 3947SOL     OW12298   3.291   1.173   8.315
 3947SOL    HW112299   3.236   1.089   8.308
 3947SOL    HW212300   3.317   1.202   8.223
 3948SOL     OW12301   3.328   0.590   8.440
 3948SOL    HW112302   3.298   0.495   8.447
 3948SOL    HW212303   3.401   0.606   8.506
 3949SOL     OW12304   3.719   0.833   7.825
 3949SOL    HW112305   3.761   0.769   7.889
 3949SOL    HW212306   3.681   0.782   7.747
 3950SOL     OW12307   2.350   1.385   7.622
 3950SOL    HW112308   2.263   1.370   7.669
 3950SOL    HW212309   2.333   1.411   7.527
 3951SOL     OW12310   3.526   1.280   8.105
 3951SOL    HW112311   3.625   1.288   8.119
 3951SOL    HW212312   3.481   1.364   8.136
 3952SOL     OW12313   3.252   0.575   7.526
 3952SOL    HW112314   3.198   0.554   7.607
 3952SOL    HW212315   3.343   0.534   7.535
 3953SOL     OW12316   2.389   0.256   7.776
 3953SOL    HW112317   2.416   0.197   7.701
 3953SOL    HW212318   2.389   0.351   7.745
 3954SOL     OW12319   3.616   1.223   9.036
 3954SOL    HW112320   3.707   1.184   9.023
 3954SOL    HW212321   3.624   1.319   9.060
 3955SOL     OW12322   2.926   1.347   8.788
 3955SOL    HW112323   2.846   1.324   8.843
 3955SOL    HW212324   3.009   1.321   8.837
 3956SOL     OW12325   3.454   1.629   9.073
 3956SOL    HW112326   3.481   1.663   8.983
 3956SOL    HW212327   3.533   1.591   9.119
 3957SOL     OW12328   2.973   1.195   8.548
 3957SOL    HW112329   2.933   1.239   8.629
 3957SOL    HW212330   2.932   1.232   8.465
 3958SOL     OW12331   3.500   1.099   8.527
 3958SOL    HW112332   3.505   1.180   8.586
 3958SOL    HW212333   3.414   1.101   8.476
 3959SOL     OW12334   2.777   0.089   8.850
 3959SOL    HW112335   2.802   0.069   8.755
 3959SOL    HW212336   2.849   0.145   8.892
 3960SOL     OW12337   2.842   1.116   9.167
 3960SOL    HW112338   2.743   1.122   9.177
 3960SOL    HW212339   2.865   1.036   9.111
 3961SOL     OW12340   2.567   1.050   7.816
 3961SOL    HW112341   2.553   1.057   7.915
 3961SOL    HW212342   2.651   0.999   7.798
 3962SOL     OW12343   2.272   0.813   8.699
 3962SOL    HW112344   2.358   0.825   8.749
 3962SOL    HW212345   2.230   0.726   8.726
 3963SOL     OW12346   3.136   0.386   8.710
 3963SOL    HW112347   3.157   0.460   8.774
 3963SOL    HW212348   3.047   0.403   8.667
 3964SOL     OW12349   1.926   1.564   8.779
 3964SOL    HW112350   1.880   1.646   8.745
 3964SOL    HW212351   2.024   1.583   8.788
 3965SOL     OW12352   2.229   1.100   7.949
 3965SOL    HW112353   2.222   1.183   7.893
 3965SOL    HW212354   2.233   1.020   7.889
 3966SOL     OW12355   2.428   0.537   8.313
 3966SOL    HW112356   2.440   0.603   8.239
 3966SOL    HW212357   2.474   0.571   8.396
 3967SOL     OW12358   3.114   1.348   7.836
 3967SOL    HW112359   3.164   1.425   7.876
 3967SOL    HW212360   3.019   1.350   7.868
 3968SOL     OW12361   3.134   1.445   8.590
 3968SOL    HW112362   3.181   1.458   8.677
 3968SOL    HW212363   3.068   1.371   8.599
 3969SOL     OW12364   3.444   0.639   7.920
 3969SOL    HW112365   3.413   0.700   7.993
 3969SOL    HW212366   3.494   0.691   7.851
 3970SOL     OW12367   2.216   1.510   8.777
 3970SOL    HW112368   2.195   1.466   8.690
 3970SOL    HW212369   2.313   1.536   8.780
 3971SOL     OW12370   2.264   0.751   9.046
 3971SOL    HW112371   2.332   0.806   8.999
 3971SOL    HW212372   2.304   0.663   9.073
 3972SOL     OW12373   3.449   0.779   9.118
 3972SOL    HW112374   3.357   0.817   9.113
 3972SOL    HW212375   3.509   0.826   9.053
 3973SOL     OW12376   2.875   0.105   9.218
 3973SOL    HW112377   2.881   0.190   9.166
 3973SOL    HW212378   2.907   0.029   9.161
 3974SOL     OW12379   2.366   0.050   9.188
 3974SOL    HW112380   2.324  -0.007   9.118
 3974SOL    HW212381   2.300   0.119   9.220
 3975SOL     OW12382   2.435   0.870   8.477
 3975SOL    HW112383   2.479   0.959   8.468
 3975SOL    HW212384   2.372   0.870   8.554
 3976SOL     OW12385   3.222   0.862   8.493
 3976SOL    HW112386   3.147   0.862   8.427
 3976SOL    HW212387   3.259   0.770   8.502
 3977SOL     OW12388   3.071   0.525   7.723
 3977SOL    HW112389   3.084   0.441   7.777
 3977SOL    HW212390   3.042   0.599   7.783
 3978SOL     OW12391   2.169   0.213   8.679
 3978SOL    HW112392   2.146   0.250   8.769
 3978SOL    HW212393   2.139   0.118   8.673
 3979SOL     OW12394   1.899   1.310   8.730
 3979SOL    HW112395   1.952   1.261   8.798
 3979SOL    HW212396   1.921   1.408   8.735
 3980SOL     OW12397   2.594   0.634   8.512
 3980SOL    HW112398   2.653   0.608   8.436
 3980SOL    HW212399   2.566   0.730   8.501
 3981SOL     OW12400   3.590   0.935   9.302
 3981SOL    HW112401   3.544   0.928   9.213
 3981SOL    HW212402   3.528   0.979   9.368
 3982SOL     OW12403   2.169   0.063   8.066
 3982SOL    HW112404   2.158   0.157   8.099
 3982SOL    HW212405   2.164   0.000   8.143
 3983SOL     OW12406   3.484   0.367   7.822
 3983SOL    HW112407   3.486   0.291   7.886
 3983SOL    HW212408   3.436   0.444   7.862
 3984SOL     OW12409   2.885   0.766   8.414
 3984SOL    HW112410   2.900   0.787   8.510
 3984SOL    HW212411   2.855   0.671   8.405
 3985SOL     OW12412   2.842   1.573   9.148
 3985SOL    HW112413   2.822   1.617   9.060
 3985SOL    HW212414   2.881   1.482   9.132
 3986SOL     OW12415   3.721   1.518   9.053
 3986SOL    HW112416   3.735   1.545   8.958
 3986SOL    HW212417   3.804   1.540   9.106
 3987SOL     OW12418   2.212   0.898   9.252
 3987SOL    HW112419   2.288   0.942   9.300
 3987SOL    HW212420   2.247   0.851   9.170
 3988SOL     OW12421   3.402   0.274   7.573
 3988SOL    HW112422   3.341   0.199   7.596
 3988SOL    HW212423   3.424   0.326   7.656
 3989SOL     OW12424   3.165   0.838   7.490
 3989SOL    HW112425   3.199   0.745   7.505
 3989SOL    HW212426   3.183   0.865   7.395
 3990SOL     OW12427   2.930   1.333   8.297
 3990SOL    HW112428   2.937   1.249   8.242
 3990SOL    HW212429   2.992   1.402   8.261
 3991SOL     OW12430   2.181   0.810   8.397
 3991SOL    HW112431   2.274   0.846   8.402
 3991SOL    HW212432   2.175   0.725   8.449
 3992SOL     OW12433   2.201   0.509   8.454
 3992SOL    HW112434   2.149   0.426   8.437
 3992SOL    HW212435   2.278   0.514   8.390
 3993SOL     OW12436   3.000   0.380   9.126
 3993SOL    HW112437   2.955   0.443   9.190
 3993SOL    HW212438   3.093   0.411   9.109
 3994SOL     OW12439   3.022   0.207   8.925
 3994SOL    HW112440   3.022   0.271   9.002
 3994SOL    HW212441   3.050   0.255   8.842
 3995SOL     OW12442   1.870   1.326   7.648
 3995SOL    HW112443   1.777   1.347   7.617
 3995SOL    HW212444   1.880   1.227   7.661
 3996SOL     OW12445   1.950   1.801   8.375
 3996SOL    HW112446   1.908   1.715   8.348
 3996SOL    HW212447   2.044   1.804   8.341
 3997SOL     OW12448   2.366   1.568   8.358
 3997SOL    HW112449   2.432   1.642   8.367
 3997SOL    HW212450   2.410   1.489   8.316
 3998SOL     OW12451   2.864   0.796   8.686
 3998SOL    HW112452   2.905   0.764   8.772
 3998SOL    HW212453   2.768   0.769   8.683
 3999SOL     OW12454   1.902   0.544   8.562
 3999SOL    HW112455   1.987   0.511   8.521
 3999SOL    HW212456   1.915   0.559   8.660
 4000SOL     OW12457   2.051   0.520   9.170
 4000SOL    HW112458   2.110   0.480   9.100
 4000SOL    HW212459   1.993   0.591   9.129
 4001SOL     OW12460   3.231   0.950   9.108
 4001SOL    HW112461   3.270   1.039   9.128
 4001SOL    HW212462   3.241   0.930   9.011
 4002SOL     OW12463   2.677   0.572   7.773
 4002SOL    HW112464   2.684   0.483   7.727
 4002SOL    HW212465   2.583   0.606   7.765
 4003SOL     OW12466   3.519   0.604   8.654
 4003SOL    HW112467   3.481   0.535   8.716
 4003SOL    HW212468   3.601   0.568   8.610
 4004SOL     OW12469   2.114   1.564   9.192
 4004SOL    HW112470   2.084   1.621   9.268
 4004SOL    HW212471   2.107   1.467   9.218
 4005SOL     OW12472   2.533   0.464   8.717
 4005SOL    HW112473   2.499   0.375   8.687
 4005SOL    HW212474   2.559   0.518   8.637
 4006SOL     OW12475   2.792   1.678   8.913
 4006SOL    HW112476   2.768   1.660   8.818
 4006SOL    HW212477   2.822   1.772   8.923
 4007SOL     OW12478   2.335   0.500   7.639
 4007SOL    HW112479   2.396   0.580   7.643
 4007SOL    HW212480   2.240   0.531   7.646
 4008SOL     OW12481   2.021   1.137   8.914
 4008SOL    HW112482   2.043   1.076   8.990
 4008SOL    HW212483   2.031   1.088   8.828
 4009SOL     OW12484   3.209   1.059   8.682
 4009SOL    HW112485   3.233   0.996   8.608
 4009SOL    HW212486   3.119   1.099   8.664
 4010SOL     OW12487   3.164   0.855   7.757
 4010SOL    HW112488   3.078   0.824   7.799
 4010SOL    HW212489   3.160   0.841   7.658
 4011SOL     OW12490   3.621   1.747   8.602
 4011SOL    HW112491   3.682   1.777   8.529
 4011SOL    HW212492   3.583   1.658   8.580
 4012SOL     OW12493   3.114   1.731   8.576
 4012SOL    HW112494   3.198   1.736   8.522
 4012SOL    HW212495   3.091   1.635   8.594
 4013SOL     OW12496   1.945   1.258   8.470
 4013SOL    HW112497   1.940   1.257   8.570
 4013SOL    HW212498   1.862   1.217   8.432
 4014SOL     OW12499   2.550   1.662   9.164
 4014SOL    HW112500   2.494   1.743   9.173
 4014SOL    HW212501   2.602   1.666   9.078
 4015SOL     OW12502   3.588   0.135   7.971
 4015SOL    HW112503   3.661   0.118   7.904
 4015SOL    HW212504   3.557   0.048   8.009
 4016SOL     OW12505   3.250   1.573   7.925
 4016SOL    HW112506   3.317   1.585   7.851
 4016SOL    HW212507   3.210   1.662   7.948
 4017SOL     OW12508   1.992   1.794   9.299
 4017SOL    HW112509   1.951   1.720   9.352
 4017SOL    HW212510   2.056   1.845   9.357
 4018SOL     OW12511   3.142   0.927   8.120
 4018SOL    HW112512   3.202   0.846   8.122
 4018SOL    HW212513   3.182   0.996   8.060
 4019SOL     OW12514   2.692   1.273   8.870
 4019SOL    HW112515   2.687   1.306   8.965
 4019SOL    HW212516   2.606   1.292   8.824
 4020SOL     OW12517   2.534   1.616   7.602
 4020SOL    HW112518   2.543   1.626   7.503
 4020SOL    HW212519   2.494   1.527   7.623
 4021SOL     OW12520   3.512   1.720   8.842
 4021SOL    HW112521   3.565   1.730   8.758
 4021SOL    HW212522   3.485   1.810   8.876
 4022SOL     OW12523   3.703   0.175   8.411
 4022SOL    HW112524   3.742   0.090   8.375
 4022SOL    HW212525   3.605   0.177   8.392
 4023SOL     OW12526   2.125   0.326   8.168
 4023SOL    HW112527   2.046   0.377   8.134
 4023SOL    HW212528   2.116   0.311   8.266
 4024SOL     OW12529   3.056   1.612   7.479
 4024SOL    HW112530   3.062   1.519   7.516
 4024SOL    HW212531   2.997   1.612   7.399
 4025SOL     OW12532   2.684   1.002   8.820
 4025SOL    HW112533   2.724   1.001   8.728
 4025SOL    HW212534   2.694   1.094   8.860
 4026SOL     OW12535   2.778   0.910   7.739
 4026SOL    HW112536   2.841   0.948   7.671
 4026SOL    HW212537   2.818   0.827   7.778
 4027SOL     OW12538   3.366   1.607   7.492
 4027SOL    HW112539   3.274   1.644   7.499
 4027SOL    HW212540   3.404   1.627   7.402
 4028SOL     OW12541   2.234   1.288   8.938
 4028SOL    HW112542   2.221   1.381   8.904
 4028SOL    HW212543   2.150   1.236   8.925
 4029SOL     OW12544   3.476   1.292   8.737
 4029SOL    HW112545   3.536   1.295   8.817
 4029SOL    HW212546   3.401   1.356   8.750
 4030SOL     OW12547   2.901   1.098   8.144
 4030SOL    HW112548   2.831   1.051   8.198
 4030SOL    HW212549   2.960   1.030   8.101
 4031SOL     OW12550   2.876   0.236   8.419
 4031SOL    HW112551   2.868   0.200   8.326
 4031SOL    HW212552   2.874   0.160   8.484
 4032SOL     OW12553   2.452   1.487   7.939
 4032SOL    HW112554   2.494   1.429   7.869
 4032SOL    HW212555   2.408   1.566   7.895
 4033SOL     OW12556   3.571   0.385   8.829
 4033SOL    HW112557   3.644   0.454   8.833
 4033SOL    HW212558   3.599   0.310   8.770
 4034SOL     OW12559   2.117   1.348   7.738
 4034SOL    HW112560   2.021   1.349   7.711
 4034SOL    HW212561   2.129   1.401   7.822
 4035SOL     OW12562   1.967   1.013   9.174
 4035SOL    HW112563   1.890   0.980   9.228
 4035SOL    HW212564   2.052   0.983   9.216
 4036SOL     OW12565   2.534   0.203   8.937
 4036SOL    HW112566   2.624   0.187   8.897
 4036SOL    HW212567   2.542   0.208   9.036
 4037SOL     OW12568   1.937   0.345   7.481
 4037SOL    HW112569   1.845   0.317   7.452
 4037SOL    HW212570   1.968   0.422   7.425
 4038SOL     OW12571   3.302   0.856   8.846
 4038SOL    HW112572   3.245   0.908   8.783
 4038SOL    HW212573   3.398   0.868   8.822
 4039SOL     OW12574   1.934   0.166   7.766
 4039SOL    HW112575   1.917   0.249   7.712
 4039SOL    HW212576   2.024   0.129   7.744
 4040SOL     OW12577   3.045   1.335   7.567
 4040SOL    HW112578   2.946   1.324   7.569
 4040SOL    HW212579   3.079   1.350   7.660
 4041SOL     OW12580   2.475   0.842   8.879
 4041SOL    HW112581   2.531   0.923   8.862
 4041SOL    HW212582   2.534   0.762   8.882
 4042SOL     OW12583   3.355   1.767   8.407
 4042SOL    HW112584   3.388   1.831   8.338
 4042SOL    HW212585   3.421   1.761   8.482
 4043SOL     OW12586   2.578   0.565   9.156
 4043SOL    HW112587   2.597   0.630   9.230
 4043SOL    HW212588   2.638   0.485   9.165
 4044SOL     OW12589   3.312   1.220   9.081
 4044SOL    HW112590   3.303   1.210   9.180
 4044SOL    HW212591   3.408   1.213   9.055
 4045SOL     OW12592   2.252   1.741   9.008
 4045SOL    HW112593   2.161   1.782   9.006
 4045SOL    HW212594   2.245   1.647   9.040
 4046SOL     OW12595   3.536   0.883   8.702
 4046SOL    HW112596   3.509   0.794   8.665
 4046SOL    HW212597   3.537   0.951   8.629
 4047SOL     OW12598   3.087   0.325   7.897
 4047SOL    HW112599   3.152   0.251   7.886
 4047SOL    HW212600   3.107   0.375   7.981
 4048SOL     OW12601   2.456   0.745   8.100
 4048SOL    HW112602   2.506   0.830   8.081
 4048SOL    HW212603   2.368   0.747   8.052
 4049SOL     OW12604   3.639   0.342   9.090
 4049SOL    HW112605   3.622   0.373   8.996
 4049SOL    HW212606   3.555   0.305   9.128
 4050SOL     OW12607   3.592   0.934   8.965
 4050SOL    HW112608   3.630   1.025   8.980
 4050SOL    HW212609   3.584   0.917   8.866
 4051SOL     OW12610   2.721   1.374   7.464
 4051SOL    HW112611   2.675   1.389   7.552
 4051SOL    HW212612   2.765   1.459   7.434
 4052SOL     OW12613   2.523   1.790   8.401
 4052SOL    HW112614   2.477   1.878   8.388
 4052SOL    HW212615   2.622   1.802   8.394
 4053SOL     OW12616   2.721   0.956   8.309
 4053SOL    HW112617   2.775   0.887   8.357
 4053SOL    HW212618   2.689   1.025   8.375
 4054SOL     OW12619   2.945   0.984   7.535
 4054SOL    HW112620   2.922   1.037   7.453
 4054SOL    HW212621   3.026   0.928   7.516
 4055SOL     OW12622   3.723   1.569   8.299
 4055SOL    HW112623   3.652   1.557   8.229
 4055SOL    HW212624   3.724   1.490   8.359
 4056SOL     OW12625   2.083   1.314   9.292
 4056SOL    HW112626   2.018   1.241   9.271
 4056SOL    HW212627   2.087   1.328   9.390
 4057SOL     OW12628   1.941   1.240   8.101
 4057SOL    HW112629   1.940   1.193   8.189
 4057SOL    HW212630   2.023   1.212   8.050
 4058SOL     OW12631   2.534   1.391   9.072
 4058SOL    HW112632   2.456   1.341   9.110
 4058SOL    HW212633   2.531   1.486   9.103
 4059SOL     OW12634   3.686   0.192   8.675
 4059SOL    HW112635   3.682   0.102   8.719
 4059SOL    HW212636   3.689   0.181   8.576
 4060SOL     OW12637   2.290   0.424   7.968
 4060SOL    HW112638   2.320   0.352   7.906
 4060SOL    HW212639   2.251   0.384   8.051
 4061SOL     OW12640   3.567   1.487   8.552
 4061SOL    HW112641   3.474   1.462   8.525
 4061SOL    HW212642   3.593   1.437   8.634
 4062SOL     OW12643   2.179   0.547   8.728
 4062SOL    HW112644   2.217   0.488   8.800
 4062SOL    HW212645   2.219   0.521   8.640
 4063SOL     OW12646   2.674   1.586   8.135
 4063SOL    HW112647   2.706   1.596   8.041
 4063SOL    HW212648   2.595   1.524   8.137
 4064SOL     OW12649   3.286   0.214   8.560
 4064SOL    HW112650   3.338   0.149   8.615
 4064SOL    HW212651   3.237   0.277   8.621
 4065SOL     OW12652   2.863   0.034   8.602
 4065SOL    HW112653   2.800  -0.038   8.571
 4065SOL    HW212654   2.956  -0.002   8.602
 4066SOL     OW12655   2.632   1.330   7.749
 4066SOL    HW112656   2.586   1.243   7.766
 4066SOL    HW212657   2.723   1.327   7.790
 4067SOL     OW12658   2.480   1.567   8.732
 4067SOL    HW112659   2.475   1.649   8.789
 4067SOL    HW212660   2.569   1.564   8.687
 4068SOL     OW12661   3.214   0.052   7.616
 4068SOL    HW112662   3.249   0.011   7.532
 4068SOL    HW212663   3.124   0.014   7.636
 4069SOL     OW12664   3.162   0.453   8.139
 4069SOL    HW112665   3.103   0.533   8.143
 4069SOL    HW212666   3.177   0.418   8.232
 4070SOL     OW12667   3.455   0.221   8.330
 4070SOL    HW112668   3.371   0.220   8.384
 4070SOL    HW212669   3.457   0.304   8.274
 4071SOL     OW12670   1.901   1.077   7.748
 4071SOL    HW112671   2.000   1.066   7.739
 4071SOL    HW212672   1.861   0.991   7.780
 4072SOL     OW12673   2.737   1.646   7.785
 4072SOL    HW112674   2.660   1.611   7.731
 4072SOL    HW212675   2.705   1.717   7.847
 4073SOL     OW12676   2.092   0.628   9.423
 4073SOL    HW112677   1.999   0.626   9.460
 4073SOL    HW212678   2.093   0.589   9.331
 4074SOL     OW12679   2.087   0.275  10.306
 4074SOL    HW112680   2.122   0.258  10.398
 4074SOL    HW212681   1.999   0.230  10.294
 4075SOL     OW12682   1.881   0.368   9.957
 4075SOL    HW112683   1.799   0.411   9.996
 4075SOL    HW212684   1.853   0.295   9.894
 4076SOL     OW12685   2.431   1.275  10.475
 4076SOL    HW112686   2.338   1.268  10.438
 4076SOL    HW212687   2.442   1.364  10.519
 4077SOL     OW12688   3.417   1.511  10.013
 4077SOL    HW112689   3.360   1.495  10.094
 4077SOL    HW212690   3.358   1.521   9.933
 4078SOL     OW12691   2.997   0.703  10.027
 4078SOL    HW112692   3.054   0.781  10.002
 4078SOL    HW212693   2.937   0.729  10.103
 4079SOL     OW12694   3.617   0.607   9.541
 4079SOL    HW112695   3.605   0.594   9.442
 4079SOL    HW212696   3.587   0.526   9.590
 4080SOL     OW12697   2.630   1.144  10.333
 4080SOL    HW112698   2.552   1.161  10.393
 4080SOL    HW212699   2.664   1.231  10.297
 4081SOL     OW12700   2.712   0.798  11.133
 4081SOL    HW112701   2.708   0.874  11.198
 4081SOL    HW212702   2.734   0.834  11.042
 4082SOL     OW12703   2.547   1.012   9.975
 4082SOL    HW112704   2.616   0.996  10.045
 4082SOL    HW212705   2.474   1.069  10.013
 4083SOL     OW12706   2.197   1.435  10.371
 4083SOL    HW112707   2.119   1.404  10.318
 4083SOL    HW212708   2.255   1.493  10.314
 4084SOL     OW12709   3.322   1.505  10.649
 4084SOL    HW112710   3.346   1.599  10.675
 4084SOL    HW212711   3.306   1.451  10.731
 4085SOL     OW12712   2.300   0.392  10.809
 4085SOL    HW112713   2.382   0.336  10.818
 4085SOL    HW212714   2.219   0.334  10.813
 4086SOL     OW12715   3.465   0.447  10.047
 4086SOL    HW112716   3.391   0.493   9.997
 4086SOL    HW212717   3.516   0.515  10.100
 4087SOL     OW12718   2.093   1.713   9.793
 4087SOL    HW112719   2.127   1.790   9.847
 4087SOL    HW212720   2.137   1.713   9.703
 4088SOL     OW12721   2.092   1.434   9.848
 4088SOL    HW112722   2.066   1.530   9.848
 4088SOL    HW212723   2.021   1.380   9.893
 4089SOL     OW12724   2.102   1.091  10.196
 4089SOL    HW112725   2.116   1.007  10.248
 4089SOL    HW212726   2.047   1.155  10.251
 4090SOL     OW12727   2.482   1.786  10.749
 4090SOL    HW112728   2.390   1.769  10.784
 4090SOL    HW212729   2.510   1.878  10.775
 4091SOL     OW12730   2.468   0.964   9.433
 4091SOL    HW112731   2.475   1.048   9.379
 4091SOL    HW212732   2.514   0.977   9.521
 4092SOL     OW12733   3.456   0.114  10.790
 4092SOL    HW112734   3.438   0.181  10.718
 4092SOL    HW212735   3.453   0.160  10.879
 4093SOL     OW12736   1.984   0.643   9.873
 4093SOL    HW112737   1.939   0.555   9.890
 4093SOL    HW212738   1.983   0.697   9.957
 4094SOL     OW12739   3.704   1.767   9.669
 4094SOL    HW112740   3.758   1.738   9.749
 4094SOL    HW212741   3.734   1.857   9.640
 4095SOL     OW12742   1.889   1.596   9.427
 4095SOL    HW112743   1.870   1.500   9.448
 4095SOL    HW212744   1.856   1.654   9.502
 4096SOL     OW12745   3.551   0.922   9.922
 4096SOL    HW112746   3.646   0.893   9.930
 4096SOL    HW212747   3.543   0.987   9.847
 4097SOL     OW12748   3.503   1.108   9.742
 4097SOL    HW112749   3.589   1.110   9.690
 4097SOL    HW212750   3.517   1.155   9.830
 4098SOL     OW12751   1.975   0.737  10.907
 4098SOL    HW112752   2.063   0.724  10.952
 4098SOL    HW212753   1.962   0.834  10.885
 4099SOL     OW12754   2.475   1.365  10.036
 4099SOL    HW112755   2.426   1.278  10.045
 4099SOL    HW212756   2.452   1.408   9.949
 4100SOL     OW12757   3.155   1.228  10.733
 4100SOL    HW112758   3.192   1.155  10.675
 4100SOL    HW212759   3.207   1.233  10.818
 4101SOL     OW12760   2.671   0.004   9.812
 4101SOL    HW112761   2.711   0.095   9.803
 4101SOL    HW212762   2.571   0.012   9.818
 4102SOL     OW12763   2.059   0.976  10.574
 4102SOL    HW112764   2.148   0.931  10.560
 4102SOL    HW212765   1.986   0.911  10.555
 4103SOL     OW12766   3.387   0.999   9.500
 4103SOL    HW112767   3.324   0.923   9.513
 4103SOL    HW212768   3.435   1.017   9.586
 4104SOL     OW12769   3.049   1.792  10.926
 4104SOL    HW112770   3.073   1.852  10.850
 4104SOL    HW212771   3.056   1.697  10.896
 4105SOL     OW12772   2.179   0.251  11.111
 4105SOL    HW112773   2.250   0.322  11.117
 4105SOL    HW212774   2.091   0.290  11.139
 4106SOL     OW12775   3.328   1.417  10.263
 4106SOL    HW112776   3.269   1.423  10.343
 4106SOL    HW212777   3.313   1.329  10.217
 4107SOL     OW12778   3.529   1.714   9.882
 4107SOL    HW112779   3.488   1.691   9.794
 4107SOL    HW212780   3.511   1.640   9.947
 4108SOL     OW12781   2.460   0.729   9.580
 4108SOL    HW112782   2.484   0.798   9.512
 4108SOL    HW212783   2.382   0.762   9.634
 4109SOL     OW12784   3.143   0.345  10.254
 4109SOL    HW112785   3.057   0.295  10.241
 4109SOL    HW212786   3.205   0.291  10.310
 4110SOL     OW12787   3.438   1.662   9.617
 4110SOL    HW112788   3.527   1.708   9.620
 4110SOL    HW212789   3.417   1.638   9.522
 4111SOL     OW12790   2.669   0.605  10.775
 4111SOL    HW112791   2.622   0.602  10.864
 4111SOL    HW212792   2.618   0.550  10.709
 4112SOL     OW12793   2.835   0.890  10.882
 4112SOL    HW112794   2.881   0.806  10.853
 4112SOL    HW212795   2.779   0.924  10.807
 4113SOL     OW12796   2.853   0.410  10.552
 4113SOL    HW112797   2.776   0.444  10.606
 4113SOL    HW212798   2.819   0.359  10.473
 4114SOL     OW12799   2.903   0.701   9.739
 4114SOL    HW112800   2.929   0.697   9.835
 4114SOL    HW212801   2.818   0.650   9.725
 4115SOL     OW12802   1.938   0.811  10.099
 4115SOL    HW112803   2.037   0.799  10.108
 4115SOL    HW212804   1.914   0.906  10.120
 4116SOL     OW12805   1.992   1.821  10.881
 4116SOL    HW112806   1.982   1.806  10.980
 4116SOL    HW212807   1.906   1.857  10.845
 4117SOL     OW12808   2.727   0.348   9.505
 4117SOL    HW112809   2.786   0.411   9.456
 4117SOL    HW212810   2.746   0.254   9.476
 4118SOL     OW12811   3.224   1.144   9.855
 4118SOL    HW112812   3.307   1.115   9.807
 4118SOL    HW212813   3.175   1.211   9.799
 4119SOL     OW12814   2.412   0.196  10.195
 4119SOL    HW112815   2.407   0.191  10.295
 4119SOL    HW212816   2.414   0.292  10.166
 4120SOL     OW12817   2.870   1.456   9.787
 4120SOL    HW112818   2.824   1.528   9.735
 4120SOL    HW212819   2.866   1.476   9.885
 4121SOL     OW12820   2.213   1.801  10.163
 4121SOL    HW112821   2.263   1.715  10.169
 4121SOL    HW212822   2.278   1.878  10.160
 4122SOL     OW12823   3.657   1.066  10.183
 4122SOL    HW112824   3.595   1.051  10.107
 4122SOL    HW212825   3.605   1.077  10.268
 4123SOL     OW12826   3.089   1.550  10.816
 4123SOL    HW112827   3.095   1.473  10.880
 4123SOL    HW212828   3.037   1.524  10.736
 4124SOL     OW12829   2.183   0.943   9.552
 4124SOL    HW112830   2.265   0.982   9.510
 4124SOL    HW212831   2.156   0.861   9.503
 4125SOL     OW12832   3.320   0.735  10.038
 4125SOL    HW112833   3.315   0.670  10.113
 4125SOL    HW212834   3.400   0.794  10.051
 4126SOL     OW12835   2.323   1.266  11.037
 4126SOL    HW112836   2.273   1.267  10.951
 4126SOL    HW212837   2.260   1.248  11.113
 4127SOL     OW12838   2.973   1.776   9.547
 4127SOL    HW112839   2.913   1.714   9.597
 4127SOL    HW212840   3.004   1.732   9.462
 4128SOL     OW12841   2.064   0.285  10.808
 4128SOL    HW112842   1.984   0.345  10.795
 4128SOL    HW212843   2.054   0.236  10.894
 4129SOL     OW12844   3.494   1.377   9.391
 4129SOL    HW112845   3.462   1.471   9.381
 4129SOL    HW212846   3.418   1.314   9.379
 4130SOL     OW12847   2.326   1.743   9.633
 4130SOL    HW112848   2.359   1.782   9.719
 4130SOL    HW212849   2.402   1.736   9.568
 4131SOL     OW12850   3.262   0.107   9.736
 4131SOL    HW112851   3.238   0.070   9.646
 4131SOL    HW212852   3.361   0.123   9.740
 4132SOL     OW12853   2.111   1.785  10.551
 4132SOL    HW112854   2.168   1.720  10.601
 4132SOL    HW212855   2.095   1.752  10.458
 4133SOL     OW12856   2.802   1.698  10.214
 4133SOL    HW112857   2.882   1.641  10.235
 4133SOL    HW212858   2.753   1.658  10.137
 4134SOL     OW12859   2.244   0.700   9.790
 4134SOL    HW112860   2.289   0.610   9.787
 4134SOL    HW212861   2.150   0.689   9.823
 4135SOL     OW12862   2.476   0.122   9.427
 4135SOL    HW112863   2.574   0.100   9.434
 4135SOL    HW212864   2.445   0.105   9.334
 4136SOL     OW12865   2.643   0.264  11.059
 4136SOL    HW112866   2.710   0.203  11.102
 4136SOL    HW212867   2.570   0.283  11.124
 4137SOL     OW12868   2.750   1.514  10.505
 4137SOL    HW112869   2.727   1.489  10.411
 4137SOL    HW212870   2.811   1.445  10.544
 4138SOL     OW12871   3.213   0.590  10.743
 4138SOL    HW112872   3.241   0.547  10.828
 4138SOL    HW212873   3.238   0.686  10.744
 4139SOL     OW12874   2.665   1.402  10.234
 4139SOL    HW112875   2.755   1.416  10.192
 4139SOL    HW212876   2.594   1.404  10.163
 4140SOL     OW12877   2.784   0.503  10.209
 4140SOL    HW112878   2.759   0.494  10.113
 4140SOL    HW212879   2.832   0.421  10.240
 4141SOL     OW12880   2.401   0.064   9.822
 4141SOL    HW112881   2.320   0.065   9.880
 4141SOL    HW212882   2.404   0.147   9.767
 4142SOL     OW12883   3.296   1.188   9.351
 4142SOL    HW112884   3.328   1.112   9.408
 4142SOL    HW212885   3.204   1.215   9.381
 4143SOL     OW12886   2.159   0.035   9.481
 4143SOL    HW112887   2.208   0.119   9.460
 4143SOL    HW212888   2.221  -0.030   9.526
 4144SOL     OW12889   2.797   0.236   9.790
 4144SOL    HW112890   2.749   0.277   9.712
 4144SOL    HW212891   2.896   0.234   9.771
 4145SOL     OW12892   2.938   0.683  10.774
 4145SOL    HW112893   2.858   0.622  10.777
 4145SOL    HW212894   3.019   0.630  10.750
 4146SOL     OW12895   3.089   1.570  10.103
 4146SOL    HW112896   3.110   1.644  10.038
 4146SOL    HW212897   3.157   1.570  10.176
 4147SOL     OW12898   2.321   1.152  10.051
 4147SOL    HW112899   2.250   1.125  10.116
 4147SOL    HW212900   2.295   1.124   9.958
 4148SOL     OW12901   3.133   1.797   9.901
 4148SOL    HW112902   3.177   1.861   9.837
 4148SOL    HW212903   3.083   1.849   9.971
 4149SOL     OW12904   2.894   0.549   9.326
 4149SOL    HW112905   2.853   0.631   9.287
 4149SOL    HW212906   2.958   0.575   9.399
 4150SOL     OW12907   1.940   0.556  10.696
 4150SOL    HW112908   2.032   0.555  10.655
 4150SOL    HW212909   1.934   0.630  10.763
 4151SOL     OW12910   2.423   0.222  10.457
 4151SOL    HW112911   2.461   0.138  10.494
 4151SOL    HW212912   2.335   0.241  10.501
 4152SOL     OW12913   2.728   0.454   9.952
 4152SOL    HW112914   2.696   0.526   9.890
 4152SOL    HW212915   2.752   0.373   9.899
 4153SOL     OW12916   2.879   0.039  10.063
 4153SOL    HW112917   2.807   0.044   9.994
 4153SOL    HW212918   2.855  -0.030  10.132
 4154SOL     OW12919   3.291   1.173  10.177
 4154SOL    HW112920   3.236   1.089  10.170
 4154SOL    HW212921   3.317   1.202  10.085
 4155SOL     OW12922   3.328   0.590  10.302
 4155SOL    HW112923   3.298   0.495  10.309
 4155SOL    HW212924   3.401   0.606  10.368
 4156SOL     OW12925   3.719   0.833   9.687
 4156SOL    HW112926   3.761   0.769   9.751
 4156SOL    HW212927   3.681   0.782   9.609
 4157SOL     OW12928   2.350   1.385   9.484
 4157SOL    HW112929   2.263   1.370   9.531
 4157SOL    HW212930   2.333   1.411   9.389
 4158SOL     OW12931   3.526   1.280   9.967
 4158SOL    HW112932   3.625   1.288   9.981
 4158SOL    HW212933   3.481   1.364   9.998
 4159SOL     OW12934   3.252   0.575   9.388
 4159SOL    HW112935   3.198   0.554   9.469
 4159SOL    HW212936   3.343   0.534   9.397
 4160SOL     OW12937   2.389   0.256   9.638
 4160SOL    HW112938   2.416   0.197   9.563
 4160SOL    HW212939   2.389   0.351   9.607
 4161SOL     OW12940   3.616   1.223  10.898
 4161SOL    HW112941   3.707   1.184  10.885
 4161SOL    HW212942   3.624   1.319  10.922
 4162SOL     OW12943   2.926   1.347  10.650
 4162SOL    HW112944   2.846   1.324  10.705
 4162SOL    HW212945   3.009   1.321  10.699
 4163SOL     OW12946   2.973   1.195  10.410
 4163SOL    HW112947   2.933   1.239  10.491
 4163SOL    HW212948   2.932   1.232  10.327
 4164SOL     OW12949   3.500   1.099  10.389
 4164SOL    HW112950   3.505   1.180  10.448
 4164SOL    HW212951   3.414   1.101  10.338
 4165SOL     OW12952   2.777   0.089  10.712
 4165SOL    HW112953   2.802   0.069  10.617
 4165SOL    HW212954   2.849   0.145  10.754
 4166SOL     OW12955   2.567   1.050   9.678
 4166SOL    HW112956   2.553   1.057   9.777
 4166SOL    HW212957   2.651   0.999   9.660
 4167SOL     OW12958   2.272   0.813  10.561
 4167SOL    HW112959   2.358   0.825  10.611
 4167SOL    HW212960   2.230   0.726  10.588
 4168SOL     OW12961   3.136   0.386  10.572
 4168SOL    HW112962   3.157   0.460  10.636
 4168SOL    HW212963   3.047   0.403  10.529
 4169SOL     OW12964   1.926   1.564  10.641
 4169SOL    HW112965   1.880   1.646  10.607
 4169SOL    HW212966   2.024   1.583  10.650
 4170SOL     OW12967   2.229   1.100   9.811
 4170SOL    HW112968   2.222   1.183   9.755
 4170SOL    HW212969   2.233   1.020   9.751
 4171SOL     OW12970   2.428   0.537  10.175
 4171SOL    HW112971   2.440   0.603  10.101
 4171SOL    HW212972   2.474   0.571  10.258
 4172SOL     OW12973   3.114   1.348   9.698
 4172SOL    HW112974   3.164   1.425   9.738
 4172SOL    HW212975   3.019   1.350   9.730
 4173SOL     OW12976   3.134   1.445  10.452
 4173SOL    HW112977   3.181   1.458  10.539
 4173SOL    HW212978   3.068   1.371  10.461
 4174SOL     OW12979   3.444   0.639   9.782
 4174SOL    HW112980   3.413   0.700   9.855
 4174SOL    HW212981   3.494   0.691   9.713
 4175SOL     OW12982   2.216   1.510  10.639
 4175SOL    HW112983   2.195   1.466  10.552
 4175SOL    HW212984   2.313   1.536  10.642
 4176SOL     OW12985   2.264   0.751  10.908
 4176SOL    HW112986   2.332   0.806  10.861
 4176SOL    HW212987   2.304   0.663  10.935
 4177SOL     OW12988   3.449   0.779  10.980
 4177SOL    HW112989   3.357   0.817  10.975
 4177SOL    HW212990   3.509   0.826  10.915
 4178SOL     OW12991   2.435   0.870  10.339
 4178SOL    HW112992   2.479   0.959  10.330
 4178SOL    HW212993   2.372   0.870  10.416
 4179SOL     OW12994   3.222   0.862  10.355
 4179SOL    HW112995   3.147   0.862  10.289
 4179SOL    HW212996   3.259   0.770  10.364
 4180SOL     OW12997   3.071   0.525   9.585
 4180SOL    HW112998   3.084   0.441   9.639
 4180SOL    HW212999   3.042   0.599   9.645
 4181SOL     OW13000   2.169   0.213  10.541
 4181SOL    HW113001   2.146   0.250  10.631
 4181SOL    HW213002   2.139   0.118  10.535
 4182SOL     OW13003   1.899   1.310  10.592
 4182SOL    HW113004   1.952   1.261  10.660
 4182SOL    HW213005   1.921   1.408  10.597
 4183SOL     OW13006   2.594   0.634  10.374
 4183SOL    HW113007   2.653   0.608  10.298
 4183SOL    HW213008   2.566   0.730  10.363
 4184SOL     OW13009   2.169   0.063   9.928
 4184SOL    HW113010   2.158   0.157   9.961
 4184SOL    HW213011   2.164   0.000  10.005
 4185SOL     OW13012   3.484   0.367   9.684
 4185SOL    HW113013   3.486   0.291   9.748
 4185SOL    HW213014   3.436   0.444   9.724
 4186SOL     OW13015   2.885   0.766  10.276
 4186SOL    HW113016   2.900   0.787  10.372
 4186SOL    HW213017   2.855   0.671  10.267
 4187SOL     OW13018   2.842   1.573  11.010
 4187SOL    HW113019   2.822   1.617  10.922
 4187SOL    HW213020   2.881   1.482  10.994
 4188SOL     OW13021   3.721   1.518  10.915
 4188SOL    HW113022   3.735   1.545  10.820
 4188SOL    HW213023   3.804   1.540  10.968
 4189SOL     OW13024   2.212   0.898  11.114
 4189SOL    HW113025   2.288   0.942  11.162
 4189SOL    HW213026   2.247   0.851  11.032
 4190SOL     OW13027   3.402   0.274   9.435
 4190SOL    HW113028   3.341   0.199   9.458
 4190SOL    HW213029   3.424   0.326   9.518
 4191SOL     OW13030   3.165   0.838   9.352
 4191SOL    HW113031   3.199   0.745   9.367
 4191SOL    HW213032   3.183   0.865   9.257
 4192SOL     OW13033   2.930   1.333  10.159
 4192SOL    HW113034   2.937   1.249  10.104
 4192SOL    HW213035   2.992   1.402  10.123
 4193SOL     OW13036   2.181   0.810  10.259
 4193SOL    HW113037   2.274   0.846  10.264
 4193SOL    HW213038   2.175   0.725  10.311
 4194SOL     OW13039   2.201   0.509  10.316
 4194SOL    HW113040   2.149   0.426  10.299
 4194SOL    HW213041   2.278   0.514  10.252
 4195SOL     OW13042   3.022   0.207  10.787
 4195SOL    HW113043   3.022   0.271  10.864
 4195SOL    HW213044   3.050   0.255  10.704
 4196SOL     OW13045   1.870   1.326   9.510
 4196SOL    HW113046   1.777   1.347   9.479
 4196SOL    HW213047   1.880   1.227   9.523
 4197SOL     OW13048   1.950   1.801  10.237
 4197SOL    HW113049   1.908   1.715  10.210
 4197SOL    HW213050   2.044   1.804  10.203
 4198SOL     OW13051   2.366   1.568  10.220
 4198SOL    HW113052   2.432   1.642  10.229
 4198SOL    HW213053   2.410   1.489  10.178
 4199SOL     OW13054   2.864   0.796  10.548
 4199SOL    HW113055   2.905   0.764  10.634
 4199SOL    HW213056   2.768   0.769  10.545
 4200SOL     OW13057   1.902   0.544  10.424
 4200SOL    HW113058   1.987   0.511  10.383
 4200SOL    HW213059   1.915   0.559  10.522
 4201SOL     OW13060   2.677   0.572   9.635
 4201SOL    HW113061   2.684   0.483   9.589
 4201SOL    HW213062   2.583   0.606   9.627
 4202SOL     OW13063   3.519   0.604  10.516
 4202SOL    HW113064   3.481   0.535  10.578
 4202SOL    HW213065   3.601   0.568  10.472
 4203SOL     OW13066   2.114   1.564  11.054
 4203SOL    HW113067   2.084   1.621  11.130
 4203SOL    HW213068   2.107   1.467  11.080
 4204SOL     OW13069   2.533   0.464  10.579
 4204SOL    HW113070   2.499   0.375  10.549
 4204SOL    HW213071   2.559   0.518  10.499
 4205SOL     OW13072   2.792   1.678  10.775
 4205SOL    HW113073   2.768   1.660  10.680
 4205SOL    HW213074   2.822   1.772  10.785
 4206SOL     OW13075   2.335   0.500   9.501
 4206SOL    HW113076   2.396   0.580   9.505
 4206SOL    HW213077   2.240   0.531   9.508
 4207SOL     OW13078   2.021   1.137  10.776
 4207SOL    HW113079   2.043   1.076  10.852
 4207SOL    HW213080   2.031   1.088  10.690
 4208SOL     OW13081   3.209   1.059  10.544
 4208SOL    HW113082   3.233   0.996  10.470
 4208SOL    HW213083   3.119   1.099  10.526
 4209SOL     OW13084   3.164   0.855   9.619
 4209SOL    HW113085   3.078   0.824   9.661
 4209SOL    HW213086   3.160   0.841   9.520
 4210SOL     OW13087   3.621   1.747  10.464
 4210SOL    HW113088   3.682   1.777  10.391
 4210SOL    HW213089   3.583   1.658  10.442
 4211SOL     OW13090   3.114   1.731  10.438
 4211SOL    HW113091   3.198   1.736  10.384
 4211SOL    HW213092   3.091   1.635  10.456
 4212SOL     OW13093   1.945   1.258  10.332
 4212SOL    HW113094   1.940   1.257  10.432
 4212SOL    HW213095   1.862   1.217  10.294
 4213SOL     OW13096   3.588   0.135   9.833
 4213SOL    HW113097   3.661   0.118   9.766
 4213SOL    HW213098   3.557   0.048   9.871
 4214SOL     OW13099   3.250   1.573   9.787
 4214SOL    HW113100   3.317   1.585   9.713
 4214SOL    HW213101   3.210   1.662   9.810
 4215SOL     OW13102   3.142   0.927   9.982
 4215SOL    HW113103   3.202   0.846   9.984
 4215SOL    HW213104   3.182   0.996   9.922
 4216SOL     OW13105   2.692   1.273  10.732
 4216SOL    HW113106   2.687   1.306  10.827
 4216SOL    HW213107   2.606   1.292  10.686
 4217SOL     OW13108   2.534   1.616   9.464
 4217SOL    HW113109   2.543   1.626   9.365
 4217SOL    HW213110   2.494   1.527   9.485
 4218SOL     OW13111   3.512   1.720  10.704
 4218SOL    HW113112   3.565   1.730  10.620
 4218SOL    HW213113   3.485   1.810  10.738
 4219SOL     OW13114   3.703   0.175  10.273
 4219SOL    HW113115   3.742   0.090  10.237
 4219SOL    HW213116   3.605   0.177  10.254
 4220SOL     OW13117   2.125   0.326  10.030
 4220SOL    HW113118   2.046   0.377   9.996
 4220SOL    HW213119   2.116   0.311  10.128
 4221SOL     OW13120   3.056   1.612   9.341
 4221SOL    HW113121   3.062   1.519   9.378
 4221SOL    HW213122   2.997   1.612   9.261
 4222SOL     OW13123   2.684   1.002  10.682
 4222SOL    HW113124   2.724   1.001  10.590
 4222SOL    HW213125   2.694   1.094  10.722
 4223SOL     OW13126   2.778   0.910   9.601
 4223SOL    HW113127   2.841   0.948   9.533
 4223SOL    HW213128   2.818   0.827   9.640
 4224SOL     OW13129   3.366   1.607   9.354
 4224SOL    HW113130   3.274   1.644   9.361
 4224SOL    HW213131   3.404   1.627   9.264
 4225SOL     OW13132   2.234   1.288  10.800
 4225SOL    HW113133   2.221   1.381  10.766
 4225SOL    HW213134   2.150   1.236  10.787
 4226SOL     OW13135   3.476   1.292  10.599
 4226SOL    HW113136   3.536   1.295  10.679
 4226SOL    HW213137   3.401   1.356  10.612
 4227SOL     OW13138   2.901   1.098  10.006
 4227SOL    HW113139   2.831   1.051  10.060
 4227SOL    HW213140   2.960   1.030   9.963
 4228SOL     OW13141   2.876   0.236  10.281
 4228SOL    HW113142   2.868   0.200  10.188
 4228SOL    HW213143   2.874   0.160  10.346
 4229SOL     OW13144   2.452   1.487   9.801
 4229SOL    HW113145   2.494   1.429   9.731
 4229SOL    HW213146   2.408   1.566   9.757
 4230SOL     OW13147   3.571   0.385  10.691
 4230SOL    HW113148   3.644   0.454  10.695
 4230SOL    HW213149   3.599   0.310  10.632
 4231SOL     OW13150   2.117   1.348   9.600
 4231SOL    HW113151   2.021   1.349   9.573
 4231SOL    HW213152   2.129   1.401   9.684
 4232SOL     OW13153   1.967   1.013  11.036
 4232SOL    HW113154   1.890   0.980  11.090
 4232SOL    HW213155   2.052   0.983  11.078
 4233SOL     OW13156   2.534   0.203  10.799
 4233SOL    HW113157   2.624   0.187  10.759
 4233SOL    HW213158   2.542   0.208  10.898
 4234SOL     OW13159   1.937   0.345   9.343
 4234SOL    HW113160   1.845   0.317   9.314
 4234SOL    HW213161   1.968   0.422   9.287
 4235SOL     OW13162   3.302   0.856  10.708
 4235SOL    HW113163   3.245   0.908  10.645
 4235SOL    HW213164   3.398   0.868  10.684
 4236SOL     OW13165   1.934   0.166   9.628
 4236SOL    HW113166   1.917   0.249   9.574
 4236SOL    HW213167   2.024   0.129   9.606
 4237SOL     OW13168   3.045   1.335   9.429
 4237SOL    HW113169   2.946   1.324   9.431
 4237SOL    HW213170   3.079   1.350   9.522
 4238SOL     OW13171   2.475   0.842  10.741
 4238SOL    HW113172   2.531   0.923  10.724
 4238SOL    HW213173   2.534   0.762  10.744
 4239SOL     OW13174   3.355   1.767  10.269
 4239SOL    HW113175   3.388   1.831  10.200
 4239SOL    HW213176   3.421   1.761  10.344
 4240SOL     OW13177   2.578   0.565  11.018
 4240SOL    HW113178   2.597   0.630  11.092
 4240SOL    HW213179   2.638   0.485  11.027
 4241SOL     OW13180   2.252   1.741  10.870
 4241SOL    HW113181   2.161   1.782  10.868
 4241SOL    HW213182   2.245   1.647  10.902
 4242SOL     OW13183   3.536   0.883  10.564
 4242SOL    HW113184   3.509   0.794  10.527
 4242SOL    HW213185   3.537   0.951  10.491
 4243SOL     OW13186   3.087   0.325   9.759
 4243SOL    HW113187   3.152   0.251   9.748
 4243SOL    HW213188   3.107   0.375   9.843
 4244SOL     OW13189   2.456   0.745   9.962
 4244SOL    HW113190   2.506   0.830   9.943
 4244SOL    HW213191   2.368   0.747   9.914
 4245SOL     OW13192   3.639   0.342  10.952
 4245SOL    HW113193   3.622   0.373  10.858
 4245SOL    HW213194   3.555   0.305  10.990
 4246SOL     OW13195   3.592   0.934  10.827
 4246SOL    HW113196   3.630   1.025  10.842
 4246SOL    HW213197   3.584   0.917  10.728
 4247SOL     OW13198   2.721   1.374   9.326
 4247SOL    HW113199   2.675   1.389   9.414
 4247SOL    HW213200   2.765   1.459   9.296
 4248SOL     OW13201   2.523   1.790  10.263
 4248SOL    HW113202   2.477   1.878  10.250
 4248SOL    HW213203   2.622   1.802  10.256
 4249SOL     OW13204   2.721   0.956  10.171
 4249SOL    HW113205   2.775   0.887  10.219
 4249SOL    HW213206   2.689   1.025  10.237
 4250SOL     OW13207   2.945   0.984   9.397
 4250SOL    HW113208   2.922   1.037   9.315
 4250SOL    HW213209   3.026   0.928   9.378
 4251SOL     OW13210   3.723   1.569  10.161
 4251SOL    HW113211   3.652   1.557  10.091
 4251SOL    HW213212   3.724   1.490  10.221
 4252SOL     OW13213   1.941   1.240   9.963
 4252SOL    HW113214   1.940   1.193  10.051
 4252SOL    HW213215   2.023   1.212   9.912
 4253SOL     OW13216   2.534   1.391  10.934
 4253SOL    HW113217   2.456   1.341  10.972
 4253SOL    HW213218   2.531   1.486  10.965
 4254SOL     OW13219   3.686   0.192  10.537
 4254SOL    HW113220   3.682   0.102  10.581
 4254SOL    HW213221   3.689   0.181  10.438
 4255SOL     OW13222   2.290   0.424   9.830
 4255SOL    HW113223   2.320   0.352   9.768
 4255SOL    HW213224   2.251   0.384   9.913
 4256SOL     OW13225   3.567   1.487  10.414
 4256SOL    HW113226   3.474   1.462  10.387
 4256SOL    HW213227   3.593   1.437  10.496
 4257SOL     OW13228   2.179   0.547  10.590
 4257SOL    HW113229   2.217   0.488  10.662
 4257SOL    HW213230   2.219   0.521  10.502
 4258SOL     OW13231   2.674   1.586   9.997
 4258SOL    HW113232   2.706   1.596   9.903
 4258SOL    HW213233   2.595   1.524   9.999
 4259SOL     OW13234   3.286   0.214  10.422
 4259SOL    HW113235   3.338   0.149  10.477
 4259SOL    HW213236   3.237   0.277  10.483
 4260SOL     OW13237   2.863   0.034  10.464
 4260SOL    HW113238   2.800  -0.038  10.433
 4260SOL    HW213239   2.956  -0.002  10.464
 4261SOL     OW13240   2.632   1.330   9.611
 4261SOL    HW113241   2.586   1.243   9.628
 4261SOL    HW213242   2.723   1.327   9.652
 4262SOL     OW13243   2.480   1.567  10.594
 4262SOL    HW113244   2.475   1.649  10.651
 4262SOL    HW213245   2.569   1.564  10.549
 4263SOL     OW13246   3.214   0.052   9.478
 4263SOL    HW113247   3.249   0.011   9.394
 4263SOL    HW213248   3.124   0.014   9.498
 4264SOL     OW13249   3.162   0.453  10.001
 4264SOL    HW113250   3.103   0.533  10.005
 4264SOL    HW213251   3.177   0.418  10.094
 4265SOL     OW13252   3.455   0.221  10.192
 4265SOL    HW113253   3.371   0.220  10.246
 4265SOL    HW213254   3.457   0.304  10.136
 4266SOL     OW13255   1.901   1.077   9.610
 4266SOL    HW113256   2.000   1.066   9.601
 4266SOL    HW213257   1.861   0.991   9.642
 4267SOL     OW13258   2.737   1.646   9.647
 4267SOL    HW113259   2.660   1.611   9.593
 4267SOL    HW213260   2.705   1.717   9.709
 4268SOL     OW13261   2.092   2.490   0.113
 4268SOL    HW113262   1.999   2.488   0.150
 4268SOL    HW213263   2.093   2.451   0.021
 4269SOL     OW13264   1.881   2.230   0.647
 4269SOL    HW113265   1.799   2.273   0.686
 4269SOL    HW213266   1.853   2.157   0.584
 4270SOL     OW13267   2.431   3.137   1.165
 4270SOL    HW113268   2.338   3.130   1.128
 4270SOL    HW213269   2.442   3.226   1.209
 4271SOL     OW13270   3.417   3.373   0.703
 4271SOL    HW113271   3.360   3.357   0.784
 4271SOL    HW213272   3.358   3.383   0.623
 4272SOL     OW13273   2.997   2.565   0.717
 4272SOL    HW113274   3.054   2.643   0.692
 4272SOL    HW213275   2.937   2.591   0.793
 4273SOL     OW13276   3.617   2.469   0.231
 4273SOL    HW113277   3.605   2.456   0.132
 4273SOL    HW213278   3.587   2.388   0.280
 4274SOL     OW13279   2.630   3.006   1.023
 4274SOL    HW113280   2.552   3.023   1.083
 4274SOL    HW213281   2.664   3.093   0.987
 4275SOL     OW13282   2.712   2.660   1.823
 4275SOL    HW113283   2.708   2.736   1.888
 4275SOL    HW213284   2.734   2.696   1.732
 4276SOL     OW13285   2.547   2.874   0.665
 4276SOL    HW113286   2.616   2.858   0.735
 4276SOL    HW213287   2.474   2.931   0.703
 4277SOL     OW13288   2.548   3.023   1.803
 4277SOL    HW113289   2.608   3.102   1.817
 4277SOL    HW213290   2.462   3.054   1.762
 4278SOL     OW13291   2.197   3.297   1.061
 4278SOL    HW113292   2.119   3.266   1.008
 4278SOL    HW213293   2.255   3.355   1.004
 4279SOL     OW13294   3.322   3.367   1.339
 4279SOL    HW113295   3.346   3.461   1.365
 4279SOL    HW213296   3.306   3.313   1.421
 4280SOL     OW13297   3.465   2.309   0.737
 4280SOL    HW113298   3.391   2.355   0.687
 4280SOL    HW213299   3.516   2.377   0.790
 4281SOL     OW13300   2.093   3.575   0.483
 4281SOL    HW113301   2.127   3.652   0.537
 4281SOL    HW213302   2.137   3.575   0.393
 4282SOL     OW13303   2.989   3.203   1.690
 4282SOL    HW113304   3.036   3.203   1.778
 4282SOL    HW213305   2.941   3.116   1.679
 4283SOL     OW13306   2.092   3.296   0.538
 4283SOL    HW113307   2.066   3.392   0.538
 4283SOL    HW213308   2.021   3.242   0.583
 4284SOL     OW13309   2.102   2.953   0.886
 4284SOL    HW113310   2.116   2.869   0.938
 4284SOL    HW213311   2.047   3.017   0.941
 4285SOL     OW13312   2.482   3.648   1.439
 4285SOL    HW113313   2.390   3.631   1.474
 4285SOL    HW213314   2.510   3.740   1.465
 4286SOL     OW13315   2.468   2.826   0.123
 4286SOL    HW113316   2.475   2.910   0.069
 4286SOL    HW213317   2.514   2.839   0.211
 4287SOL     OW13318   3.456   1.976   1.480
 4287SOL    HW113319   3.438   2.043   1.408
 4287SOL    HW213320   3.453   2.022   1.569
 4288SOL     OW13321   1.984   2.505   0.563
 4288SOL    HW113322   1.939   2.417   0.580
 4288SOL    HW213323   1.983   2.559   0.647
 4289SOL     OW13324   3.704   3.629   0.359
 4289SOL    HW113325   3.758   3.600   0.439
 4289SOL    HW213326   3.734   3.719   0.330
 4290SOL     OW13327   1.889   3.458   0.117
 4290SOL    HW113328   1.870   3.362   0.138
 4290SOL    HW213329   1.856   3.516   0.192
 4291SOL     OW13330   3.551   2.784   0.612
 4291SOL    HW113331   3.646   2.755   0.620
 4291SOL    HW213332   3.543   2.849   0.537
 4292SOL     OW13333   3.503   2.970   0.432
 4292SOL    HW113334   3.589   2.972   0.380
 4292SOL    HW213335   3.517   3.017   0.520
 4293SOL     OW13336   1.975   2.599   1.597
 4293SOL    HW113337   2.063   2.586   1.642
 4293SOL    HW213338   1.962   2.696   1.575
 4294SOL     OW13339   2.475   3.227   0.726
 4294SOL    HW113340   2.426   3.140   0.735
 4294SOL    HW213341   2.452   3.270   0.639
 4295SOL     OW13342   3.155   3.090   1.423
 4295SOL    HW113343   3.192   3.017   1.365
 4295SOL    HW213344   3.207   3.095   1.508
 4296SOL     OW13345   2.671   1.866   0.502
 4296SOL    HW113346   2.711   1.957   0.493
 4296SOL    HW213347   2.571   1.874   0.508
 4297SOL     OW13348   2.059   2.838   1.264
 4297SOL    HW113349   2.148   2.793   1.250
 4297SOL    HW213350   1.986   2.773   1.245
 4298SOL     OW13351   3.387   2.861   0.190
 4298SOL    HW113352   3.324   2.785   0.203
 4298SOL    HW213353   3.435   2.879   0.276
 4299SOL     OW13354   3.049   3.654   1.616
 4299SOL    HW113355   3.073   3.714   1.540
 4299SOL    HW213356   3.056   3.559   1.586
 4300SOL     OW13357   3.328   3.279   0.953
 4300SOL    HW113358   3.269   3.285   1.033
 4300SOL    HW213359   3.313   3.191   0.907
 4301SOL     OW13360   3.529   3.576   0.572
 4301SOL    HW113361   3.488   3.553   0.484
 4301SOL    HW213362   3.511   3.502   0.637
 4302SOL     OW13363   2.460   2.591   0.270
 4302SOL    HW113364   2.484   2.660   0.202
 4302SOL    HW213365   2.382   2.624   0.324
 4303SOL     OW13366   3.143   2.207   0.944
 4303SOL    HW113367   3.057   2.157   0.931
 4303SOL    HW213368   3.205   2.153   1.000
 4304SOL     OW13369   3.438   3.524   0.307
 4304SOL    HW113370   3.527   3.570   0.310
 4304SOL    HW213371   3.417   3.500   0.212
 4305SOL     OW13372   2.669   2.467   1.465
 4305SOL    HW113373   2.622   2.464   1.554
 4305SOL    HW213374   2.618   2.412   1.399
 4306SOL     OW13375   3.256   2.331   1.674
 4306SOL    HW113376   3.236   2.374   1.762
 4306SOL    HW213377   3.334   2.269   1.683
 4307SOL     OW13378   2.835   2.752   1.572
 4307SOL    HW113379   2.881   2.668   1.543
 4307SOL    HW213380   2.779   2.786   1.497
 4308SOL     OW13381   2.853   2.272   1.242
 4308SOL    HW113382   2.776   2.306   1.296
 4308SOL    HW213383   2.819   2.221   1.163
 4309SOL     OW13384   2.903   2.563   0.429
 4309SOL    HW113385   2.929   2.559   0.525
 4309SOL    HW213386   2.818   2.512   0.415
 4310SOL     OW13387   1.938   2.673   0.789
 4310SOL    HW113388   2.037   2.661   0.798
 4310SOL    HW213389   1.914   2.768   0.810
 4311SOL     OW13390   1.992   3.683   1.571
 4311SOL    HW113391   1.982   3.668   1.670
 4311SOL    HW213392   1.906   3.719   1.535
 4312SOL     OW13393   2.727   2.210   0.195
 4312SOL    HW113394   2.786   2.273   0.146
 4312SOL    HW213395   2.746   2.116   0.166
 4313SOL     OW13396   3.581   2.447   1.831
 4313SOL    HW113397   3.555   2.536   1.795
 4313SOL    HW213398   3.579   2.379   1.758
 4314SOL     OW13399   3.224   3.006   0.545
 4314SOL    HW113400   3.307   2.977   0.497
 4314SOL    HW213401   3.175   3.073   0.489
 4315SOL     OW13402   2.870   3.318   0.477
 4315SOL    HW113403   2.824   3.390   0.425
 4315SOL    HW213404   2.866   3.338   0.575
 4316SOL     OW13405   2.213   3.663   0.853
 4316SOL    HW113406   2.263   3.577   0.859
 4316SOL    HW213407   2.278   3.740   0.850
 4317SOL     OW13408   3.657   2.928   0.873
 4317SOL    HW113409   3.595   2.913   0.797
 4317SOL    HW213410   3.605   2.939   0.958
 4318SOL     OW13411   3.089   3.412   1.506
 4318SOL    HW113412   3.095   3.335   1.570
 4318SOL    HW213413   3.037   3.386   1.426
 4319SOL     OW13414   2.183   2.805   0.242
 4319SOL    HW113415   2.265   2.844   0.200
 4319SOL    HW213416   2.156   2.723   0.193
 4320SOL     OW13417   3.320   2.597   0.728
 4320SOL    HW113418   3.315   2.532   0.803
 4320SOL    HW213419   3.400   2.656   0.741
 4321SOL     OW13420   2.323   3.128   1.727
 4321SOL    HW113421   2.273   3.129   1.641
 4321SOL    HW213422   2.260   3.110   1.803
 4322SOL     OW13423   2.973   3.638   0.237
 4322SOL    HW113424   2.913   3.576   0.287
 4322SOL    HW213425   3.004   3.594   0.152
 4323SOL     OW13426   2.064   2.147   1.498
 4323SOL    HW113427   1.984   2.207   1.485
 4323SOL    HW213428   2.054   2.098   1.584
 4324SOL     OW13429   3.494   3.239   0.081
 4324SOL    HW113430   3.462   3.333   0.071
 4324SOL    HW213431   3.418   3.176   0.069
 4325SOL     OW13432   2.326   3.605   0.323
 4325SOL    HW113433   2.359   3.644   0.409
 4325SOL    HW213434   2.402   3.598   0.258
 4326SOL     OW13435   3.262   1.969   0.426
 4326SOL    HW113436   3.238   1.932   0.336
 4326SOL    HW213437   3.361   1.985   0.430
 4327SOL     OW13438   2.111   3.647   1.241
 4327SOL    HW113439   2.168   3.582   1.291
 4327SOL    HW213440   2.095   3.614   1.148
 4328SOL     OW13441   2.802   3.560   0.904
 4328SOL    HW113442   2.882   3.503   0.925
 4328SOL    HW213443   2.753   3.520   0.827
 4329SOL     OW13444   2.244   2.562   0.480
 4329SOL    HW113445   2.289   2.472   0.477
 4329SOL    HW213446   2.150   2.551   0.513
 4330SOL     OW13447   3.409   2.084   1.729
 4330SOL    HW113448   3.404   2.121   1.821
 4330SOL    HW213449   3.337   2.015   1.717
 4331SOL     OW13450   2.476   1.984   0.117
 4331SOL    HW113451   2.574   1.962   0.124
 4331SOL    HW213452   2.445   1.967   0.024
 4332SOL     OW13453   2.643   2.126   1.749
 4332SOL    HW113454   2.710   2.065   1.792
 4332SOL    HW213455   2.570   2.145   1.814
 4333SOL     OW13456   2.750   3.376   1.195
 4333SOL    HW113457   2.727   3.351   1.101
 4333SOL    HW213458   2.811   3.307   1.234
 4334SOL     OW13459   3.213   2.452   1.433
 4334SOL    HW113460   3.241   2.409   1.518
 4334SOL    HW213461   3.238   2.548   1.434
 4335SOL     OW13462   2.665   3.264   0.924
 4335SOL    HW113463   2.755   3.278   0.882
 4335SOL    HW213464   2.594   3.266   0.853
 4336SOL     OW13465   2.784   2.365   0.899
 4336SOL    HW113466   2.759   2.356   0.803
 4336SOL    HW213467   2.832   2.283   0.930
 4337SOL     OW13468   2.401   1.926   0.512
 4337SOL    HW113469   2.320   1.927   0.570
 4337SOL    HW213470   2.404   2.009   0.457
 4338SOL     OW13471   3.296   3.050   0.041
 4338SOL    HW113472   3.328   2.974   0.098
 4338SOL    HW213473   3.204   3.077   0.071
 4339SOL     OW13474   2.159   1.897   0.171
 4339SOL    HW113475   2.208   1.981   0.150
 4339SOL    HW213476   2.221   1.832   0.216
 4340SOL     OW13477   2.797   2.098   0.480
 4340SOL    HW113478   2.749   2.139   0.402
 4340SOL    HW213479   2.896   2.096   0.461
 4341SOL     OW13480   2.938   2.545   1.464
 4341SOL    HW113481   2.858   2.484   1.467
 4341SOL    HW213482   3.019   2.492   1.440
 4342SOL     OW13483   3.089   3.432   0.793
 4342SOL    HW113484   3.110   3.506   0.728
 4342SOL    HW213485   3.157   3.432   0.866
 4343SOL     OW13486   2.321   3.014   0.741
 4343SOL    HW113487   2.250   2.987   0.806
 4343SOL    HW213488   2.295   2.986   0.648
 4344SOL     OW13489   3.133   3.659   0.591
 4344SOL    HW113490   3.177   3.723   0.527
 4344SOL    HW213491   3.083   3.711   0.661
 4345SOL     OW13492   2.894   2.411   0.016
 4345SOL    HW113493   2.853   2.493  -0.023
 4345SOL    HW213494   2.958   2.437   0.089
 4346SOL     OW13495   1.940   2.418   1.386
 4346SOL    HW113496   2.032   2.417   1.345
 4346SOL    HW213497   1.934   2.492   1.453
 4347SOL     OW13498   2.423   2.084   1.147
 4347SOL    HW113499   2.461   2.000   1.184
 4347SOL    HW213500   2.335   2.103   1.191
 4348SOL     OW13501   2.728   2.316   0.642
 4348SOL    HW113502   2.696   2.388   0.580
 4348SOL    HW213503   2.752   2.235   0.589
 4349SOL     OW13504   2.879   1.901   0.753
 4349SOL    HW113505   2.807   1.906   0.684
 4349SOL    HW213506   2.855   1.832   0.822
 4350SOL     OW13507   3.291   3.035   0.867
 4350SOL    HW113508   3.236   2.951   0.860
 4350SOL    HW213509   3.317   3.064   0.775
 4351SOL     OW13510   3.328   2.452   0.992
 4351SOL    HW113511   3.298   2.357   0.999
 4351SOL    HW213512   3.401   2.468   1.058
 4352SOL     OW13513   3.719   2.695   0.377
 4352SOL    HW113514   3.761   2.631   0.441
 4352SOL    HW213515   3.681   2.644   0.299
 4353SOL     OW13516   2.350   3.247   0.174
 4353SOL    HW113517   2.263   3.232   0.221
 4353SOL    HW213518   2.333   3.273   0.079
 4354SOL     OW13519   3.526   3.142   0.657
 4354SOL    HW113520   3.625   3.150   0.671
 4354SOL    HW213521   3.481   3.226   0.688
 4355SOL     OW13522   3.252   2.437   0.078
 4355SOL    HW113523   3.198   2.416   0.159
 4355SOL    HW213524   3.343   2.396   0.087
 4356SOL     OW13525   3.616   3.085   1.588
 4356SOL    HW113526   3.707   3.046   1.575
 4356SOL    HW213527   3.624   3.181   1.612
 4357SOL     OW13528   2.926   3.209   1.340
 4357SOL    HW113529   2.846   3.186   1.395
 4357SOL    HW213530   3.009   3.183   1.389
 4358SOL     OW13531   3.454   3.491   1.625
 4358SOL    HW113532   3.481   3.525   1.535
 4358SOL    HW213533   3.533   3.453   1.671
 4359SOL     OW13534   2.973   3.057   1.100
 4359SOL    HW113535   2.933   3.101   1.181
 4359SOL    HW213536   2.932   3.094   1.017
 4360SOL     OW13537   3.500   2.961   1.079
 4360SOL    HW113538   3.505   3.042   1.138
 4360SOL    HW213539   3.414   2.963   1.028
 4361SOL     OW13540   2.777   1.951   1.402
 4361SOL    HW113541   2.802   1.931   1.307
 4361SOL    HW213542   2.849   2.007   1.444
 4362SOL     OW13543   2.842   2.978   1.719
 4362SOL    HW113544   2.743   2.984   1.729
 4362SOL    HW213545   2.865   2.898   1.663
 4363SOL     OW13546   2.567   2.912   0.368
 4363SOL    HW113547   2.553   2.919   0.467
 4363SOL    HW213548   2.651   2.861   0.350
 4364SOL     OW13549   2.272   2.675   1.251
 4364SOL    HW113550   2.358   2.687   1.301
 4364SOL    HW213551   2.230   2.588   1.278
 4365SOL     OW13552   3.136   2.248   1.262
 4365SOL    HW113553   3.157   2.322   1.326
 4365SOL    HW213554   3.047   2.265   1.219
 4366SOL     OW13555   1.926   3.426   1.331
 4366SOL    HW113556   1.880   3.508   1.297
 4366SOL    HW213557   2.024   3.445   1.340
 4367SOL     OW13558   2.229   2.962   0.501
 4367SOL    HW113559   2.222   3.045   0.445
 4367SOL    HW213560   2.233   2.882   0.441
 4368SOL     OW13561   3.114   3.210   0.388
 4368SOL    HW113562   3.164   3.287   0.428
 4368SOL    HW213563   3.019   3.212   0.420
 4369SOL     OW13564   3.134   3.307   1.142
 4369SOL    HW113565   3.181   3.320   1.229
 4369SOL    HW213566   3.068   3.233   1.151
 4370SOL     OW13567   3.444   2.501   0.472
 4370SOL    HW113568   3.413   2.562   0.545
 4370SOL    HW213569   3.494   2.553   0.403
 4371SOL     OW13570   2.216   3.372   1.329
 4371SOL    HW113571   2.195   3.328   1.242
 4371SOL    HW213572   2.313   3.398   1.332
 4372SOL     OW13573   2.264   2.613   1.598
 4372SOL    HW113574   2.332   2.668   1.551
 4372SOL    HW213575   2.304   2.525   1.625
 4373SOL     OW13576   3.449   2.641   1.670
 4373SOL    HW113577   3.357   2.679   1.665
 4373SOL    HW213578   3.509   2.688   1.605
 4374SOL     OW13579   2.875   1.967   1.770
 4374SOL    HW113580   2.881   2.052   1.718
 4374SOL    HW213581   2.907   1.891   1.713
 4375SOL     OW13582   2.366   1.912   1.740
 4375SOL    HW113583   2.324   1.855   1.670
 4375SOL    HW213584   2.300   1.981   1.772
 4376SOL     OW13585   2.435   2.732   1.029
 4376SOL    HW113586   2.479   2.821   1.020
 4376SOL    HW213587   2.372   2.732   1.106
 4377SOL     OW13588   3.222   2.724   1.045
 4377SOL    HW113589   3.147   2.724   0.979
 4377SOL    HW213590   3.259   2.632   1.054
 4378SOL     OW13591   3.071   2.387   0.275
 4378SOL    HW113592   3.084   2.303   0.329
 4378SOL    HW213593   3.042   2.461   0.335
 4379SOL     OW13594   1.899   3.172   1.282
 4379SOL    HW113595   1.952   3.123   1.350
 4379SOL    HW213596   1.921   3.270   1.287
 4380SOL     OW13597   2.594   2.496   1.064
 4380SOL    HW113598   2.653   2.470   0.988
 4380SOL    HW213599   2.566   2.592   1.053
 4381SOL     OW13600   3.590   2.797   1.854
 4381SOL    HW113601   3.544   2.790   1.765
 4381SOL    HW213602   3.528   2.841   1.920
 4382SOL     OW13603   2.169   1.925   0.618
 4382SOL    HW113604   2.158   2.019   0.651
 4382SOL    HW213605   2.164   1.862   0.695
 4383SOL     OW13606   3.484   2.229   0.374
 4383SOL    HW113607   3.486   2.153   0.438
 4383SOL    HW213608   3.436   2.306   0.414
 4384SOL     OW13609   2.885   2.628   0.966
 4384SOL    HW113610   2.900   2.649   1.062
 4384SOL    HW213611   2.855   2.533   0.957
 4385SOL     OW13612   2.842   3.435   1.700
 4385SOL    HW113613   2.822   3.479   1.612
 4385SOL    HW213614   2.881   3.344   1.684
 4386SOL     OW13615   3.721   3.380   1.605
 4386SOL    HW113616   3.735   3.407   1.510
 4386SOL    HW213617   3.804   3.402   1.658
 4387SOL     OW13618   2.212   2.760   1.804
 4387SOL    HW113619   2.288   2.804   1.852
 4387SOL    HW213620   2.247   2.713   1.722
 4388SOL     OW13621   3.402   2.136   0.125
 4388SOL    HW113622   3.341   2.061   0.148
 4388SOL    HW213623   3.424   2.188   0.208
 4389SOL     OW13624   3.165   2.700   0.042
 4389SOL    HW113625   3.199   2.607   0.057
 4389SOL    HW213626   3.183   2.727  -0.053
 4390SOL     OW13627   2.930   3.195   0.849
 4390SOL    HW113628   2.937   3.111   0.794
 4390SOL    HW213629   2.992   3.264   0.813
 4391SOL     OW13630   2.181   2.672   0.949
 4391SOL    HW113631   2.274   2.708   0.954
 4391SOL    HW213632   2.175   2.587   1.001
 4392SOL     OW13633   3.000   2.242   1.678
 4392SOL    HW113634   2.955   2.305   1.742
 4392SOL    HW213635   3.093   2.273   1.661
 4393SOL     OW13636   3.022   2.069   1.477
 4393SOL    HW113637   3.022   2.133   1.554
 4393SOL    HW213638   3.050   2.117   1.394
 4394SOL     OW13639   1.870   3.188   0.200
 4394SOL    HW113640   1.777   3.209   0.169
 4394SOL    HW213641   1.880   3.089   0.213
 4395SOL     OW13642   1.950   3.663   0.927
 4395SOL    HW113643   1.908   3.577   0.900
 4395SOL    HW213644   2.044   3.666   0.893
 4396SOL     OW13645   2.366   3.430   0.910
 4396SOL    HW113646   2.432   3.504   0.919
 4396SOL    HW213647   2.410   3.351   0.868
 4397SOL     OW13648   2.864   2.658   1.238
 4397SOL    HW113649   2.905   2.626   1.324
 4397SOL    HW213650   2.768   2.631   1.235
 4398SOL     OW13651   1.902   2.406   1.114
 4398SOL    HW113652   1.987   2.373   1.073
 4398SOL    HW213653   1.915   2.421   1.212
 4399SOL     OW13654   3.231   2.812   1.660
 4399SOL    HW113655   3.270   2.901   1.680
 4399SOL    HW213656   3.241   2.792   1.563
 4400SOL     OW13657   2.677   2.434   0.325
 4400SOL    HW113658   2.684   2.345   0.279
 4400SOL    HW213659   2.583   2.468   0.317
 4401SOL     OW13660   3.519   2.466   1.206
 4401SOL    HW113661   3.481   2.397   1.268
 4401SOL    HW213662   3.601   2.430   1.162
 4402SOL     OW13663   2.114   3.426   1.744
 4402SOL    HW113664   2.084   3.483   1.820
 4402SOL    HW213665   2.107   3.329   1.770
 4403SOL     OW13666   2.533   2.326   1.269
 4403SOL    HW113667   2.499   2.237   1.239
 4403SOL    HW213668   2.559   2.380   1.189
 4404SOL     OW13669   2.792   3.540   1.465
 4404SOL    HW113670   2.768   3.522   1.370
 4404SOL    HW213671   2.822   3.634   1.475
 4405SOL     OW13672   2.021   2.999   1.466
 4405SOL    HW113673   2.043   2.938   1.542
 4405SOL    HW213674   2.031   2.950   1.380
 4406SOL     OW13675   3.209   2.921   1.234
 4406SOL    HW113676   3.233   2.858   1.160
 4406SOL    HW213677   3.119   2.961   1.216
 4407SOL     OW13678   3.164   2.717   0.309
 4407SOL    HW113679   3.078   2.686   0.351
 4407SOL    HW213680   3.160   2.703   0.210
 4408SOL     OW13681   3.621   3.609   1.154
 4408SOL    HW113682   3.682   3.639   1.081
 4408SOL    HW213683   3.583   3.520   1.132
 4409SOL     OW13684   3.114   3.593   1.128
 4409SOL    HW113685   3.198   3.598   1.074
 4409SOL    HW213686   3.091   3.497   1.146
 4410SOL     OW13687   1.945   3.120   1.022
 4410SOL    HW113688   1.940   3.119   1.122
 4410SOL    HW213689   1.862   3.079   0.984
 4411SOL     OW13690   2.550   3.524   1.716
 4411SOL    HW113691   2.494   3.605   1.725
 4411SOL    HW213692   2.602   3.528   1.630
 4412SOL     OW13693   2.765   1.948   0.133
 4412SOL    HW113694   2.816   1.949   0.047
 4412SOL    HW213695   2.821   1.906   0.204
 4413SOL     OW13696   3.588   1.997   0.523
 4413SOL    HW113697   3.661   1.980   0.456
 4413SOL    HW213698   3.557   1.910   0.561
 4414SOL     OW13699   3.250   3.435   0.477
 4414SOL    HW113700   3.317   3.447   0.403
 4414SOL    HW213701   3.210   3.524   0.500
 4415SOL     OW13702   1.992   3.656   1.851
 4415SOL    HW113703   1.951   3.582   1.904
 4415SOL    HW213704   2.056   3.707   1.909
 4416SOL     OW13705   3.142   2.789   0.672
 4416SOL    HW113706   3.202   2.708   0.674
 4416SOL    HW213707   3.182   2.858   0.612
 4417SOL     OW13708   2.692   3.135   1.422
 4417SOL    HW113709   2.687   3.168   1.517
 4417SOL    HW213710   2.606   3.154   1.376
 4418SOL     OW13711   2.534   3.478   0.154
 4418SOL    HW113712   2.543   3.488   0.055
 4418SOL    HW213713   2.494   3.389   0.175
 4419SOL     OW13714   3.512   3.582   1.394
 4419SOL    HW113715   3.565   3.592   1.310
 4419SOL    HW213716   3.485   3.672   1.428
 4420SOL     OW13717   3.703   2.037   0.963
 4420SOL    HW113718   3.742   1.952   0.927
 4420SOL    HW213719   3.605   2.039   0.944
 4421SOL     OW13720   3.056   3.474   0.031
 4421SOL    HW113721   3.062   3.381   0.068
 4421SOL    HW213722   2.997   3.474  -0.049
 4422SOL     OW13723   2.684   2.864   1.372
 4422SOL    HW113724   2.724   2.863   1.280
 4422SOL    HW213725   2.694   2.956   1.412
 4423SOL     OW13726   2.778   2.772   0.291
 4423SOL    HW113727   2.841   2.810   0.223
 4423SOL    HW213728   2.818   2.689   0.330
 4424SOL     OW13729   3.366   3.469   0.044
 4424SOL    HW113730   3.274   3.506   0.051
 4424SOL    HW213731   3.404   3.489  -0.046
 4425SOL     OW13732   2.234   3.150   1.490
 4425SOL    HW113733   2.221   3.243   1.456
 4425SOL    HW213734   2.150   3.098   1.477
 4426SOL     OW13735   3.476   3.154   1.289
 4426SOL    HW113736   3.536   3.157   1.369
 4426SOL    HW213737   3.401   3.218   1.302
 4427SOL     OW13738   2.901   2.960   0.696
 4427SOL    HW113739   2.831   2.913   0.750
 4427SOL    HW213740   2.960   2.892   0.653
 4428SOL     OW13741   2.876   2.098   0.971
 4428SOL    HW113742   2.868   2.062   0.878
 4428SOL    HW213743   2.874   2.022   1.036
 4429SOL     OW13744   2.452   3.349   0.491
 4429SOL    HW113745   2.494   3.291   0.421
 4429SOL    HW213746   2.408   3.428   0.447
 4430SOL     OW13747   3.571   2.247   1.381
 4430SOL    HW113748   3.644   2.316   1.385
 4430SOL    HW213749   3.599   2.172   1.322
 4431SOL     OW13750   2.117   3.210   0.290
 4431SOL    HW113751   2.021   3.211   0.263
 4431SOL    HW213752   2.129   3.263   0.374
 4432SOL     OW13753   1.967   2.875   1.726
 4432SOL    HW113754   1.890   2.842   1.780
 4432SOL    HW213755   2.052   2.845   1.768
 4433SOL     OW13756   2.534   2.065   1.489
 4433SOL    HW113757   2.624   2.049   1.449
 4433SOL    HW213758   2.542   2.070   1.588
 4434SOL     OW13759   1.937   2.207   0.033
 4434SOL    HW113760   1.845   2.179   0.004
 4434SOL    HW213761   1.968   2.284  -0.023
 4435SOL     OW13762   3.302   2.718   1.398
 4435SOL    HW113763   3.245   2.770   1.335
 4435SOL    HW213764   3.398   2.730   1.374
 4436SOL     OW13765   1.934   2.028   0.318
 4436SOL    HW113766   1.917   2.111   0.264
 4436SOL    HW213767   2.024   1.991   0.296
 4437SOL     OW13768   3.045   3.197   0.119
 4437SOL    HW113769   2.946   3.186   0.121
 4437SOL    HW213770   3.079   3.212   0.212
 4438SOL     OW13771   2.475   2.704   1.431
 4438SOL    HW113772   2.531   2.785   1.414
 4438SOL    HW213773   2.534   2.624   1.434
 4439SOL     OW13774   3.355   3.629   0.959
 4439SOL    HW113775   3.388   3.693   0.890
 4439SOL    HW213776   3.421   3.623   1.034
 4440SOL     OW13777   2.578   2.427   1.708
 4440SOL    HW113778   2.597   2.492   1.782
 4440SOL    HW213779   2.638   2.347   1.717
 4441SOL     OW13780   3.312   3.082   1.633
 4441SOL    HW113781   3.303   3.072   1.732
 4441SOL    HW213782   3.408   3.075   1.607
 4442SOL     OW13783   2.252   3.603   1.560
 4442SOL    HW113784   2.161   3.644   1.558
 4442SOL    HW213785   2.245   3.509   1.592
 4443SOL     OW13786   3.536   2.745   1.254
 4443SOL    HW113787   3.509   2.656   1.217
 4443SOL    HW213788   3.537   2.813   1.181
 4444SOL     OW13789   3.087   2.187   0.449
 4444SOL    HW113790   3.152   2.113   0.438
 4444SOL    HW213791   3.107   2.237   0.533
 4445SOL     OW13792   2.456   2.607   0.652
 4445SOL    HW113793   2.506   2.692   0.633
 4445SOL    HW213794   2.368   2.609   0.604
 4446SOL     OW13795   3.639   2.204   1.642
 4446SOL    HW113796   3.622   2.235   1.548
 4446SOL    HW213797   3.555   2.167   1.680
 4447SOL     OW13798   3.592   2.796   1.517
 4447SOL    HW113799   3.630   2.887   1.532
 4447SOL    HW213800   3.584   2.779   1.418
 4448SOL     OW13801   2.721   3.236   0.016
 4448SOL    HW113802   2.675   3.251   0.104
 4448SOL    HW213803   2.765   3.321  -0.014
 4449SOL     OW13804   2.523   3.652   0.953
 4449SOL    HW113805   2.477   3.740   0.940
 4449SOL    HW213806   2.622   3.664   0.946
 4450SOL     OW13807   2.721   2.818   0.861
 4450SOL    HW113808   2.775   2.749   0.909
 4450SOL    HW213809   2.689   2.887   0.927
 4451SOL     OW13810   2.945   2.846   0.087
 4451SOL    HW113811   2.922   2.899   0.005
 4451SOL    HW213812   3.026   2.790   0.068
 4452SOL     OW13813   3.723   3.431   0.851
 4452SOL    HW113814   3.652   3.419   0.781
 4452SOL    HW213815   3.724   3.352   0.911
 4453SOL     OW13816   2.083   3.176   1.844
 4453SOL    HW113817   2.018   3.103   1.823
 4453SOL    HW213818   2.087   3.190   1.942
 4454SOL     OW13819   1.941   3.102   0.653
 4454SOL    HW113820   1.940   3.055   0.741
 4454SOL    HW213821   2.023   3.074   0.602
 4455SOL     OW13822   2.534   3.253   1.624
 4455SOL    HW113823   2.456   3.203   1.662
 4455SOL    HW213824   2.531   3.348   1.655
 4456SOL     OW13825   3.686   2.054   1.227
 4456SOL    HW113826   3.682   1.964   1.271
 4456SOL    HW213827   3.689   2.043   1.128
 4457SOL     OW13828   3.567   3.349   1.104
 4457SOL    HW113829   3.474   3.324   1.077
 4457SOL    HW213830   3.593   3.299   1.186
 4458SOL     OW13831   2.674   3.448   0.687
 4458SOL    HW113832   2.706   3.458   0.593
 4458SOL    HW213833   2.595   3.386   0.689
 4459SOL     OW13834   3.286   2.076   1.112
 4459SOL    HW113835   3.338   2.011   1.167
 4459SOL    HW213836   3.237   2.139   1.173
 4460SOL     OW13837   2.863   1.896   1.154
 4460SOL    HW113838   2.800   1.824   1.123
 4460SOL    HW213839   2.956   1.860   1.154
 4461SOL     OW13840   2.632   3.192   0.301
 4461SOL    HW113841   2.586   3.105   0.318
 4461SOL    HW213842   2.723   3.189   0.342
 4462SOL     OW13843   2.480   3.429   1.284
 4462SOL    HW113844   2.475   3.511   1.341
 4462SOL    HW213845   2.569   3.426   1.239
 4463SOL     OW13846   3.214   1.914   0.168
 4463SOL    HW113847   3.249   1.873   0.084
 4463SOL    HW213848   3.124   1.876   0.188
 4464SOL     OW13849   3.162   2.315   0.691
 4464SOL    HW113850   3.103   2.395   0.695
 4464SOL    HW213851   3.177   2.280   0.784
 4465SOL     OW13852   3.455   2.083   0.882
 4465SOL    HW113853   3.371   2.082   0.936
 4465SOL    HW213854   3.457   2.166   0.826
 4466SOL     OW13855   1.901   2.939   0.300
 4466SOL    HW113856   2.000   2.928   0.291
 4466SOL    HW213857   1.861   2.853   0.332
 4467SOL     OW13858   2.737   3.508   0.337
 4467SOL    HW113859   2.660   3.473   0.283
 4467SOL    HW213860   2.705   3.579   0.399
 4468SOL     OW13861   2.092   2.490   1.975
 4468SOL    HW113862   1.999   2.488   2.012
 4468SOL    HW213863   2.093   2.451   1.883
 4469SOL     OW13864   2.087   2.137   2.858
 4469SOL    HW113865   2.122   2.120   2.950
 4469SOL    HW213866   1.999   2.092   2.846
 4470SOL     OW13867   1.881   2.230   2.509
 4470SOL    HW113868   1.799   2.273   2.548
 4470SOL    HW213869   1.853   2.157   2.446
 4471SOL     OW13870   2.431   3.137   3.027
 4471SOL    HW113871   2.338   3.130   2.990
 4471SOL    HW213872   2.442   3.226   3.071
 4472SOL     OW13873   3.417   3.373   2.565
 4472SOL    HW113874   3.360   3.357   2.646
 4472SOL    HW213875   3.358   3.383   2.485
 4473SOL     OW13876   2.997   2.565   2.579
 4473SOL    HW113877   3.054   2.643   2.554
 4473SOL    HW213878   2.937   2.591   2.655
 4474SOL     OW13879   3.617   2.469   2.093
 4474SOL    HW113880   3.605   2.456   1.994
 4474SOL    HW213881   3.587   2.388   2.142
 4475SOL     OW13882   2.630   3.006   2.885
 4475SOL    HW113883   2.552   3.023   2.945
 4475SOL    HW213884   2.664   3.093   2.849
 4476SOL     OW13885   2.712   2.660   3.685
 4476SOL    HW113886   2.708   2.736   3.750
 4476SOL    HW213887   2.734   2.696   3.594
 4477SOL     OW13888   2.547   2.874   2.527
 4477SOL    HW113889   2.616   2.858   2.597
 4477SOL    HW213890   2.474   2.931   2.565
 4478SOL     OW13891   2.548   3.023   3.665
 4478SOL    HW113892   2.608   3.102   3.679
 4478SOL    HW213893   2.462   3.054   3.624
 4479SOL     OW13894   2.197   3.297   2.923
 4479SOL    HW113895   2.119   3.266   2.870
 4479SOL    HW213896   2.255   3.355   2.866
 4480SOL     OW13897   3.322   3.367   3.201
 4480SOL    HW113898   3.346   3.461   3.227
 4480SOL    HW213899   3.306   3.313   3.283
 4481SOL     OW13900   3.465   2.309   2.599
 4481SOL    HW113901   3.391   2.355   2.549
 4481SOL    HW213902   3.516   2.377   2.652
 4482SOL     OW13903   2.093   3.575   2.345
 4482SOL    HW113904   2.127   3.652   2.399
 4482SOL    HW213905   2.137   3.575   2.255
 4483SOL     OW13906   2.989   3.203   3.552
 4483SOL    HW113907   3.036   3.203   3.640
 4483SOL    HW213908   2.941   3.116   3.541
 4484SOL     OW13909   2.092   3.296   2.400
 4484SOL    HW113910   2.066   3.392   2.400
 4484SOL    HW213911   2.021   3.242   2.445
 4485SOL     OW13912   2.102   2.953   2.748
 4485SOL    HW113913   2.116   2.869   2.800
 4485SOL    HW213914   2.047   3.017   2.803
 4486SOL     OW13915   2.482   3.648   3.301
 4486SOL    HW113916   2.390   3.631   3.336
 4486SOL    HW213917   2.510   3.740   3.327
 4487SOL     OW13918   2.468   2.826   1.985
 4487SOL    HW113919   2.475   2.910   1.931
 4487SOL    HW213920   2.514   2.839   2.073
 4488SOL     OW13921   3.456   1.976   3.342
 4488SOL    HW113922   3.438   2.043   3.270
 4488SOL    HW213923   3.453   2.022   3.431
 4489SOL     OW13924   1.984   2.505   2.425
 4489SOL    HW113925   1.939   2.417   2.442
 4489SOL    HW213926   1.983   2.559   2.509
 4490SOL     OW13927   3.704   3.629   2.221
 4490SOL    HW113928   3.758   3.600   2.301
 4490SOL    HW213929   3.734   3.719   2.192
 4491SOL     OW13930   1.889   3.458   1.979
 4491SOL    HW113931   1.870   3.362   2.000
 4491SOL    HW213932   1.856   3.516   2.054
 4492SOL     OW13933   3.551   2.784   2.474
 4492SOL    HW113934   3.646   2.755   2.482
 4492SOL    HW213935   3.543   2.849   2.399
 4493SOL     OW13936   3.503   2.970   2.294
 4493SOL    HW113937   3.589   2.972   2.242
 4493SOL    HW213938   3.517   3.017   2.382
 4494SOL     OW13939   1.975   2.599   3.459
 4494SOL    HW113940   2.063   2.586   3.504
 4494SOL    HW213941   1.962   2.696   3.437
 4495SOL     OW13942   2.475   3.227   2.588
 4495SOL    HW113943   2.426   3.140   2.597
 4495SOL    HW213944   2.452   3.270   2.501
 4496SOL     OW13945   3.155   3.090   3.285
 4496SOL    HW113946   3.192   3.017   3.227
 4496SOL    HW213947   3.207   3.095   3.370
 4497SOL     OW13948   2.671   1.866   2.364
 4497SOL    HW113949   2.711   1.957   2.355
 4497SOL    HW213950   2.571   1.874   2.370
 4498SOL     OW13951   2.059   2.838   3.126
 4498SOL    HW113952   2.148   2.793   3.112
 4498SOL    HW213953   1.986   2.773   3.107
 4499SOL     OW13954   3.387   2.861   2.052
 4499SOL    HW113955   3.324   2.785   2.065
 4499SOL    HW213956   3.435   2.879   2.138
 4500SOL     OW13957   3.049   3.654   3.478
 4500SOL    HW113958   3.073   3.714   3.402
 4500SOL    HW213959   3.056   3.559   3.448
 4501SOL     OW13960   3.328   3.279   2.815
 4501SOL    HW113961   3.269   3.285   2.895
 4501SOL    HW213962   3.313   3.191   2.769
 4502SOL     OW13963   3.529   3.576   2.434
 4502SOL    HW113964   3.488   3.553   2.346
 4502SOL    HW213965   3.511   3.502   2.499
 4503SOL     OW13966   2.460   2.591   2.132
 4503SOL    HW113967   2.484   2.660   2.064
 4503SOL    HW213968   2.382   2.624   2.186
 4504SOL     OW13969   3.143   2.207   2.806
 4504SOL    HW113970   3.057   2.157   2.793
 4504SOL    HW213971   3.205   2.153   2.862
 4505SOL     OW13972   3.438   3.524   2.169
 4505SOL    HW113973   3.527   3.570   2.172
 4505SOL    HW213974   3.417   3.500   2.074
 4506SOL     OW13975   2.669   2.467   3.327
 4506SOL    HW113976   2.622   2.464   3.416
 4506SOL    HW213977   2.618   2.412   3.261
 4507SOL     OW13978   3.256   2.331   3.536
 4507SOL    HW113979   3.236   2.374   3.624
 4507SOL    HW213980   3.334   2.269   3.545
 4508SOL     OW13981   2.835   2.752   3.434
 4508SOL    HW113982   2.881   2.668   3.405
 4508SOL    HW213983   2.779   2.786   3.359
 4509SOL     OW13984   2.853   2.272   3.104
 4509SOL    HW113985   2.776   2.306   3.158
 4509SOL    HW213986   2.819   2.221   3.025
 4510SOL     OW13987   2.903   2.563   2.291
 4510SOL    HW113988   2.929   2.559   2.387
 4510SOL    HW213989   2.818   2.512   2.277
 4511SOL     OW13990   1.938   2.673   2.651
 4511SOL    HW113991   2.037   2.661   2.660
 4511SOL    HW213992   1.914   2.768   2.672
 4512SOL     OW13993   1.992   3.683   3.433
 4512SOL    HW113994   1.982   3.668   3.532
 4512SOL    HW213995   1.906   3.719   3.397
 4513SOL     OW13996   2.727   2.210   2.057
 4513SOL    HW113997   2.786   2.273   2.008
 4513SOL    HW213998   2.746   2.116   2.028
 4514SOL     OW13999   3.581   2.447   3.693
 4514SOL    HW114000   3.555   2.536   3.657
 4514SOL    HW214001   3.579   2.379   3.620
 4515SOL     OW14002   3.224   3.006   2.407
 4515SOL    HW114003   3.307   2.977   2.359
 4515SOL    HW214004   3.175   3.073   2.351
 4516SOL     OW14005   2.412   2.058   2.747
 4516SOL    HW114006   2.407   2.053   2.847
 4516SOL    HW214007   2.414   2.154   2.718
 4517SOL     OW14008   2.870   3.318   2.339
 4517SOL    HW114009   2.824   3.390   2.287
 4517SOL    HW214010   2.866   3.338   2.437
 4518SOL     OW14011   2.213   3.663   2.715
 4518SOL    HW114012   2.263   3.577   2.721
 4518SOL    HW214013   2.278   3.740   2.712
 4519SOL     OW14014   3.657   2.928   2.735
 4519SOL    HW114015   3.595   2.913   2.659
 4519SOL    HW214016   3.605   2.939   2.820
 4520SOL     OW14017   3.089   3.412   3.368
 4520SOL    HW114018   3.095   3.335   3.432
 4520SOL    HW214019   3.037   3.386   3.288
 4521SOL     OW14020   2.183   2.805   2.104
 4521SOL    HW114021   2.265   2.844   2.062
 4521SOL    HW214022   2.156   2.723   2.055
 4522SOL     OW14023   3.320   2.597   2.590
 4522SOL    HW114024   3.315   2.532   2.665
 4522SOL    HW214025   3.400   2.656   2.603
 4523SOL     OW14026   2.323   3.128   3.589
 4523SOL    HW114027   2.273   3.129   3.503
 4523SOL    HW214028   2.260   3.110   3.665
 4524SOL     OW14029   2.973   3.638   2.099
 4524SOL    HW114030   2.913   3.576   2.149
 4524SOL    HW214031   3.004   3.594   2.014
 4525SOL     OW14032   2.064   2.147   3.360
 4525SOL    HW114033   1.984   2.207   3.347
 4525SOL    HW214034   2.054   2.098   3.446
 4526SOL     OW14035   3.494   3.239   1.943
 4526SOL    HW114036   3.462   3.333   1.933
 4526SOL    HW214037   3.418   3.176   1.931
 4527SOL     OW14038   2.326   3.605   2.185
 4527SOL    HW114039   2.359   3.644   2.271
 4527SOL    HW214040   2.402   3.598   2.120
 4528SOL     OW14041   3.262   1.969   2.288
 4528SOL    HW114042   3.238   1.932   2.198
 4528SOL    HW214043   3.361   1.985   2.292
 4529SOL     OW14044   2.111   3.647   3.103
 4529SOL    HW114045   2.168   3.582   3.153
 4529SOL    HW214046   2.095   3.614   3.010
 4530SOL     OW14047   2.802   3.560   2.766
 4530SOL    HW114048   2.882   3.503   2.787
 4530SOL    HW214049   2.753   3.520   2.689
 4531SOL     OW14050   3.409   2.084   3.591
 4531SOL    HW114051   3.404   2.121   3.683
 4531SOL    HW214052   3.337   2.015   3.579
 4532SOL     OW14053   2.476   1.984   1.979
 4532SOL    HW114054   2.574   1.962   1.986
 4532SOL    HW214055   2.445   1.967   1.886
 4533SOL     OW14056   2.643   2.126   3.611
 4533SOL    HW114057   2.710   2.065   3.654
 4533SOL    HW214058   2.570   2.145   3.676
 4534SOL     OW14059   2.750   3.376   3.057
 4534SOL    HW114060   2.727   3.351   2.963
 4534SOL    HW214061   2.811   3.307   3.096
 4535SOL     OW14062   3.213   2.452   3.295
 4535SOL    HW114063   3.241   2.409   3.380
 4535SOL    HW214064   3.238   2.548   3.296
 4536SOL     OW14065   2.665   3.264   2.786
 4536SOL    HW114066   2.755   3.278   2.744
 4536SOL    HW214067   2.594   3.266   2.715
 4537SOL     OW14068   2.784   2.365   2.761
 4537SOL    HW114069   2.759   2.356   2.665
 4537SOL    HW214070   2.832   2.283   2.792
 4538SOL     OW14071   2.401   1.926   2.374
 4538SOL    HW114072   2.320   1.927   2.432
 4538SOL    HW214073   2.404   2.009   2.319
 4539SOL     OW14074   3.296   3.050   1.903
 4539SOL    HW114075   3.328   2.974   1.960
 4539SOL    HW214076   3.204   3.077   1.933
 4540SOL     OW14077   2.797   2.098   2.342
 4540SOL    HW114078   2.749   2.139   2.264
 4540SOL    HW214079   2.896   2.096   2.323
 4541SOL     OW14080   2.938   2.545   3.326
 4541SOL    HW114081   2.858   2.484   3.329
 4541SOL    HW214082   3.019   2.492   3.302
 4542SOL     OW14083   3.089   3.432   2.655
 4542SOL    HW114084   3.110   3.506   2.590
 4542SOL    HW214085   3.157   3.432   2.728
 4543SOL     OW14086   2.321   3.014   2.603
 4543SOL    HW114087   2.250   2.987   2.668
 4543SOL    HW214088   2.295   2.986   2.510
 4544SOL     OW14089   3.133   3.659   2.453
 4544SOL    HW114090   3.177   3.723   2.389
 4544SOL    HW214091   3.083   3.711   2.523
 4545SOL     OW14092   2.894   2.411   1.878
 4545SOL    HW114093   2.853   2.493   1.839
 4545SOL    HW214094   2.958   2.437   1.951
 4546SOL     OW14095   1.940   2.418   3.248
 4546SOL    HW114096   2.032   2.417   3.207
 4546SOL    HW214097   1.934   2.492   3.315
 4547SOL     OW14098   2.423   2.084   3.009
 4547SOL    HW114099   2.461   2.000   3.046
 4547SOL    HW214100   2.335   2.103   3.053
 4548SOL     OW14101   2.728   2.316   2.504
 4548SOL    HW114102   2.696   2.388   2.442
 4548SOL    HW214103   2.752   2.235   2.451
 4549SOL     OW14104   2.879   1.901   2.615
 4549SOL    HW114105   2.807   1.906   2.546
 4549SOL    HW214106   2.855   1.832   2.684
 4550SOL     OW14107   3.291   3.035   2.729
 4550SOL    HW114108   3.236   2.951   2.722
 4550SOL    HW214109   3.317   3.064   2.637
 4551SOL     OW14110   3.328   2.452   2.854
 4551SOL    HW114111   3.298   2.357   2.861
 4551SOL    HW214112   3.401   2.468   2.920
 4552SOL     OW14113   3.719   2.695   2.239
 4552SOL    HW114114   3.761   2.631   2.303
 4552SOL    HW214115   3.681   2.644   2.161
 4553SOL     OW14116   2.350   3.247   2.036
 4553SOL    HW114117   2.263   3.232   2.083
 4553SOL    HW214118   2.333   3.273   1.941
 4554SOL     OW14119   3.526   3.142   2.519
 4554SOL    HW114120   3.625   3.150   2.533
 4554SOL    HW214121   3.481   3.226   2.550
 4555SOL     OW14122   3.252   2.437   1.940
 4555SOL    HW114123   3.198   2.416   2.021
 4555SOL    HW214124   3.343   2.396   1.949
 4556SOL     OW14125   3.616   3.085   3.450
 4556SOL    HW114126   3.707   3.046   3.437
 4556SOL    HW214127   3.624   3.181   3.474
 4557SOL     OW14128   2.926   3.209   3.202
 4557SOL    HW114129   2.846   3.186   3.257
 4557SOL    HW214130   3.009   3.183   3.251
 4558SOL     OW14131   3.454   3.491   3.487
 4558SOL    HW114132   3.481   3.525   3.397
 4558SOL    HW214133   3.533   3.453   3.533
 4559SOL     OW14134   2.973   3.057   2.962
 4559SOL    HW114135   2.933   3.101   3.043
 4559SOL    HW214136   2.932   3.094   2.879
 4560SOL     OW14137   3.500   2.961   2.941
 4560SOL    HW114138   3.505   3.042   3.000
 4560SOL    HW214139   3.414   2.963   2.890
 4561SOL     OW14140   2.777   1.951   3.264
 4561SOL    HW114141   2.802   1.931   3.169
 4561SOL    HW214142   2.849   2.007   3.306
 4562SOL     OW14143   2.842   2.978   3.581
 4562SOL    HW114144   2.743   2.984   3.591
 4562SOL    HW214145   2.865   2.898   3.525
 4563SOL     OW14146   2.567   2.912   2.230
 4563SOL    HW114147   2.553   2.919   2.329
 4563SOL    HW214148   2.651   2.861   2.212
 4564SOL     OW14149   2.272   2.675   3.113
 4564SOL    HW114150   2.358   2.687   3.163
 4564SOL    HW214151   2.230   2.588   3.140
 4565SOL     OW14152   3.136   2.248   3.124
 4565SOL    HW114153   3.157   2.322   3.188
 4565SOL    HW214154   3.047   2.265   3.081
 4566SOL     OW14155   1.926   3.426   3.193
 4566SOL    HW114156   1.880   3.508   3.159
 4566SOL    HW214157   2.024   3.445   3.202
 4567SOL     OW14158   2.229   2.962   2.363
 4567SOL    HW114159   2.222   3.045   2.307
 4567SOL    HW214160   2.233   2.882   2.303
 4568SOL     OW14161   2.428   2.399   2.727
 4568SOL    HW114162   2.440   2.465   2.653
 4568SOL    HW214163   2.474   2.433   2.810
 4569SOL     OW14164   3.114   3.210   2.250
 4569SOL    HW114165   3.164   3.287   2.290
 4569SOL    HW214166   3.019   3.212   2.282
 4570SOL     OW14167   3.134   3.307   3.004
 4570SOL    HW114168   3.181   3.320   3.091
 4570SOL    HW214169   3.068   3.233   3.013
 4571SOL     OW14170   3.444   2.501   2.334
 4571SOL    HW114171   3.413   2.562   2.407
 4571SOL    HW214172   3.494   2.553   2.265
 4572SOL     OW14173   2.216   3.372   3.191
 4572SOL    HW114174   2.195   3.328   3.104
 4572SOL    HW214175   2.313   3.398   3.194
 4573SOL     OW14176   2.264   2.613   3.460
 4573SOL    HW114177   2.332   2.668   3.413
 4573SOL    HW214178   2.304   2.525   3.487
 4574SOL     OW14179   3.449   2.641   3.532
 4574SOL    HW114180   3.357   2.679   3.527
 4574SOL    HW214181   3.509   2.688   3.467
 4575SOL     OW14182   2.875   1.967   3.632
 4575SOL    HW114183   2.881   2.052   3.580
 4575SOL    HW214184   2.907   1.891   3.575
 4576SOL     OW14185   2.366   1.912   3.602
 4576SOL    HW114186   2.324   1.855   3.532
 4576SOL    HW214187   2.300   1.981   3.634
 4577SOL     OW14188   2.435   2.732   2.891
 4577SOL    HW114189   2.479   2.821   2.882
 4577SOL    HW214190   2.372   2.732   2.968
 4578SOL     OW14191   3.222   2.724   2.907
 4578SOL    HW114192   3.147   2.724   2.841
 4578SOL    HW214193   3.259   2.632   2.916
 4579SOL     OW14194   3.071   2.387   2.137
 4579SOL    HW114195   3.084   2.303   2.191
 4579SOL    HW214196   3.042   2.461   2.197
 4580SOL     OW14197   1.899   3.172   3.144
 4580SOL    HW114198   1.952   3.123   3.212
 4580SOL    HW214199   1.921   3.270   3.149
 4581SOL     OW14200   2.594   2.496   2.926
 4581SOL    HW114201   2.653   2.470   2.850
 4581SOL    HW214202   2.566   2.592   2.915
 4582SOL     OW14203   3.590   2.797   3.716
 4582SOL    HW114204   3.544   2.790   3.627
 4582SOL    HW214205   3.528   2.841   3.782
 4583SOL     OW14206   3.484   2.229   2.236
 4583SOL    HW114207   3.486   2.153   2.300
 4583SOL    HW214208   3.436   2.306   2.276
 4584SOL     OW14209   2.885   2.628   2.828
 4584SOL    HW114210   2.900   2.649   2.924
 4584SOL    HW214211   2.855   2.533   2.819
 4585SOL     OW14212   2.842   3.435   3.562
 4585SOL    HW114213   2.822   3.479   3.474
 4585SOL    HW214214   2.881   3.344   3.546
 4586SOL     OW14215   3.721   3.380   3.467
 4586SOL    HW114216   3.735   3.407   3.372
 4586SOL    HW214217   3.804   3.402   3.520
 4587SOL     OW14218   2.212   2.760   3.666
 4587SOL    HW114219   2.288   2.804   3.714
 4587SOL    HW214220   2.247   2.713   3.584
 4588SOL     OW14221   3.402   2.136   1.987
 4588SOL    HW114222   3.341   2.061   2.010
 4588SOL    HW214223   3.424   2.188   2.070
 4589SOL     OW14224   3.165   2.700   1.904
 4589SOL    HW114225   3.199   2.607   1.919
 4589SOL    HW214226   3.183   2.727   1.809
 4590SOL     OW14227   2.930   3.195   2.711
 4590SOL    HW114228   2.937   3.111   2.656
 4590SOL    HW214229   2.992   3.264   2.675
 4591SOL     OW14230   2.181   2.672   2.811
 4591SOL    HW114231   2.274   2.708   2.816
 4591SOL    HW214232   2.175   2.587   2.863
 4592SOL     OW14233   3.000   2.242   3.540
 4592SOL    HW114234   2.955   2.305   3.604
 4592SOL    HW214235   3.093   2.273   3.523
 4593SOL     OW14236   3.022   2.069   3.339
 4593SOL    HW114237   3.022   2.133   3.416
 4593SOL    HW214238   3.050   2.117   3.256
 4594SOL     OW14239   1.870   3.188   2.062
 4594SOL    HW114240   1.777   3.209   2.031
 4594SOL    HW214241   1.880   3.089   2.075
 4595SOL     OW14242   1.950   3.663   2.789
 4595SOL    HW114243   1.908   3.577   2.762
 4595SOL    HW214244   2.044   3.666   2.755
 4596SOL     OW14245   2.366   3.430   2.772
 4596SOL    HW114246   2.432   3.504   2.781
 4596SOL    HW214247   2.410   3.351   2.730
 4597SOL     OW14248   2.864   2.658   3.100
 4597SOL    HW114249   2.905   2.626   3.186
 4597SOL    HW214250   2.768   2.631   3.097
 4598SOL     OW14251   1.902   2.406   2.976
 4598SOL    HW114252   1.987   2.373   2.935
 4598SOL    HW214253   1.915   2.421   3.074
 4599SOL     OW14254   3.231   2.812   3.522
 4599SOL    HW114255   3.270   2.901   3.542
 4599SOL    HW214256   3.241   2.792   3.425
 4600SOL     OW14257   2.677   2.434   2.187
 4600SOL    HW114258   2.684   2.345   2.141
 4600SOL    HW214259   2.583   2.468   2.179
 4601SOL     OW14260   3.519   2.466   3.068
 4601SOL    HW114261   3.481   2.397   3.130
 4601SOL    HW214262   3.601   2.430   3.024
 4602SOL     OW14263   2.114   3.426   3.606
 4602SOL    HW114264   2.084   3.483   3.682
 4602SOL    HW214265   2.107   3.329   3.632
 4603SOL     OW14266   2.792   3.540   3.327
 4603SOL    HW114267   2.768   3.522   3.232
 4603SOL    HW214268   2.822   3.634   3.337
 4604SOL     OW14269   2.021   2.999   3.328
 4604SOL    HW114270   2.043   2.938   3.404
 4604SOL    HW214271   2.031   2.950   3.242
 4605SOL     OW14272   3.209   2.921   3.096
 4605SOL    HW114273   3.233   2.858   3.022
 4605SOL    HW214274   3.119   2.961   3.078
 4606SOL     OW14275   3.164   2.717   2.171
 4606SOL    HW114276   3.078   2.686   2.213
 4606SOL    HW214277   3.160   2.703   2.072
 4607SOL     OW14278   3.621   3.609   3.016
 4607SOL    HW114279   3.682   3.639   2.943
 4607SOL    HW214280   3.583   3.520   2.994
 4608SOL     OW14281   3.114   3.593   2.990
 4608SOL    HW114282   3.198   3.598   2.936
 4608SOL    HW214283   3.091   3.497   3.008
 4609SOL     OW14284   1.945   3.120   2.884
 4609SOL    HW114285   1.940   3.119   2.984
 4609SOL    HW214286   1.862   3.079   2.846
 4610SOL     OW14287   2.550   3.524   3.578
 4610SOL    HW114288   2.494   3.605   3.587
 4610SOL    HW214289   2.602   3.528   3.492
 4611SOL     OW14290   3.588   1.997   2.385
 4611SOL    HW114291   3.661   1.980   2.318
 4611SOL    HW214292   3.557   1.910   2.423
 4612SOL     OW14293   3.250   3.435   2.339
 4612SOL    HW114294   3.317   3.447   2.265
 4612SOL    HW214295   3.210   3.524   2.362
 4613SOL     OW14296   1.992   3.656   3.713
 4613SOL    HW114297   1.951   3.582   3.766
 4613SOL    HW214298   2.056   3.707   3.771
 4614SOL     OW14299   3.142   2.789   2.534
 4614SOL    HW114300   3.202   2.708   2.536
 4614SOL    HW214301   3.182   2.858   2.474
 4615SOL     OW14302   2.692   3.135   3.284
 4615SOL    HW114303   2.687   3.168   3.379
 4615SOL    HW214304   2.606   3.154   3.238
 4616SOL     OW14305   2.534   3.478   2.016
 4616SOL    HW114306   2.543   3.488   1.917
 4616SOL    HW214307   2.494   3.389   2.037
 4617SOL     OW14308   3.512   3.582   3.256
 4617SOL    HW114309   3.565   3.592   3.172
 4617SOL    HW214310   3.485   3.672   3.290
 4618SOL     OW14311   3.703   2.037   2.825
 4618SOL    HW114312   3.742   1.952   2.789
 4618SOL    HW214313   3.605   2.039   2.806
 4619SOL     OW14314   3.056   3.474   1.893
 4619SOL    HW114315   3.062   3.381   1.930
 4619SOL    HW214316   2.997   3.474   1.813
 4620SOL     OW14317   2.684   2.864   3.234
 4620SOL    HW114318   2.724   2.863   3.142
 4620SOL    HW214319   2.694   2.956   3.274
 4621SOL     OW14320   2.778   2.772   2.153
 4621SOL    HW114321   2.841   2.810   2.085
 4621SOL    HW214322   2.818   2.689   2.192
 4622SOL     OW14323   3.366   3.469   1.906
 4622SOL    HW114324   3.274   3.506   1.913
 4622SOL    HW214325   3.404   3.489   1.816
 4623SOL     OW14326   2.234   3.150   3.352
 4623SOL    HW114327   2.221   3.243   3.318
 4623SOL    HW214328   2.150   3.098   3.339
 4624SOL     OW14329   3.476   3.154   3.151
 4624SOL    HW114330   3.536   3.157   3.231
 4624SOL    HW214331   3.401   3.218   3.164
 4625SOL     OW14332   2.901   2.960   2.558
 4625SOL    HW114333   2.831   2.913   2.612
 4625SOL    HW214334   2.960   2.892   2.515
 4626SOL     OW14335   2.876   2.098   2.833
 4626SOL    HW114336   2.868   2.062   2.740
 4626SOL    HW214337   2.874   2.022   2.898
 4627SOL     OW14338   2.452   3.349   2.353
 4627SOL    HW114339   2.494   3.291   2.283
 4627SOL    HW214340   2.408   3.428   2.309
 4628SOL     OW14341   3.571   2.247   3.243
 4628SOL    HW114342   3.644   2.316   3.247
 4628SOL    HW214343   3.599   2.172   3.184
 4629SOL     OW14344   2.117   3.210   2.152
 4629SOL    HW114345   2.021   3.211   2.125
 4629SOL    HW214346   2.129   3.263   2.236
 4630SOL     OW14347   1.967   2.875   3.588
 4630SOL    HW114348   1.890   2.842   3.642
 4630SOL    HW214349   2.052   2.845   3.630
 4631SOL     OW14350   2.534   2.065   3.351
 4631SOL    HW114351   2.624   2.049   3.311
 4631SOL    HW214352   2.542   2.070   3.450
 4632SOL     OW14353   1.937   2.207   1.895
 4632SOL    HW114354   1.845   2.179   1.866
 4632SOL    HW214355   1.968   2.284   1.839
 4633SOL     OW14356   3.302   2.718   3.260
 4633SOL    HW114357   3.245   2.770   3.197
 4633SOL    HW214358   3.398   2.730   3.236
 4634SOL     OW14359   1.934   2.028   2.180
 4634SOL    HW114360   1.917   2.111   2.126
 4634SOL    HW214361   2.024   1.991   2.158
 4635SOL     OW14362   3.045   3.197   1.981
 4635SOL    HW114363   2.946   3.186   1.983
 4635SOL    HW214364   3.079   3.212   2.074
 4636SOL     OW14365   2.475   2.704   3.293
 4636SOL    HW114366   2.531   2.785   3.276
 4636SOL    HW214367   2.534   2.624   3.296
 4637SOL     OW14368   3.355   3.629   2.821
 4637SOL    HW114369   3.388   3.693   2.752
 4637SOL    HW214370   3.421   3.623   2.896
 4638SOL     OW14371   2.578   2.427   3.570
 4638SOL    HW114372   2.597   2.492   3.644
 4638SOL    HW214373   2.638   2.347   3.579
 4639SOL     OW14374   3.312   3.082   3.495
 4639SOL    HW114375   3.303   3.072   3.594
 4639SOL    HW214376   3.408   3.075   3.469
 4640SOL     OW14377   2.252   3.603   3.422
 4640SOL    HW114378   2.161   3.644   3.420
 4640SOL    HW214379   2.245   3.509   3.454
 4641SOL     OW14380   3.536   2.745   3.116
 4641SOL    HW114381   3.509   2.656   3.079
 4641SOL    HW214382   3.537   2.813   3.043
 4642SOL     OW14383   3.087   2.187   2.311
 4642SOL    HW114384   3.152   2.113   2.300
 4642SOL    HW214385   3.107   2.237   2.395
 4643SOL     OW14386   2.456   2.607   2.514
 4643SOL    HW114387   2.506   2.692   2.495
 4643SOL    HW214388   2.368   2.609   2.466
 4644SOL     OW14389   3.639   2.204   3.504
 4644SOL    HW114390   3.622   2.235   3.410
 4644SOL    HW214391   3.555   2.167   3.542
 4645SOL     OW14392   3.592   2.796   3.379
 4645SOL    HW114393   3.630   2.887   3.394
 4645SOL    HW214394   3.584   2.779   3.280
 4646SOL     OW14395   2.721   3.236   1.878
 4646SOL    HW114396   2.675   3.251   1.966
 4646SOL    HW214397   2.765   3.321   1.848
 4647SOL     OW14398   2.523   3.652   2.815
 4647SOL    HW114399   2.477   3.740   2.802
 4647SOL    HW214400   2.622   3.664   2.808
 4648SOL     OW14401   2.721   2.818   2.723
 4648SOL    HW114402   2.775   2.749   2.771
 4648SOL    HW214403   2.689   2.887   2.789
 4649SOL     OW14404   2.945   2.846   1.949
 4649SOL    HW114405   2.922   2.899   1.867
 4649SOL    HW214406   3.026   2.790   1.930
 4650SOL     OW14407   3.723   3.431   2.713
 4650SOL    HW114408   3.652   3.419   2.643
 4650SOL    HW214409   3.724   3.352   2.773
 4651SOL     OW14410   2.083   3.176   3.706
 4651SOL    HW114411   2.018   3.103   3.685
 4651SOL    HW214412   2.087   3.190   3.804
 4652SOL     OW14413   1.941   3.102   2.515
 4652SOL    HW114414   1.940   3.055   2.603
 4652SOL    HW214415   2.023   3.074   2.464
 4653SOL     OW14416   2.534   3.253   3.486
 4653SOL    HW114417   2.456   3.203   3.524
 4653SOL    HW214418   2.531   3.348   3.517
 4654SOL     OW14419   3.686   2.054   3.089
 4654SOL    HW114420   3.682   1.964   3.133
 4654SOL    HW214421   3.689   2.043   2.990
 4655SOL     OW14422   3.567   3.349   2.966
 4655SOL    HW114423   3.474   3.324   2.939
 4655SOL    HW214424   3.593   3.299   3.048
 4656SOL     OW14425   2.674   3.448   2.549
 4656SOL    HW114426   2.706   3.458   2.455
 4656SOL    HW214427   2.595   3.386   2.551
 4657SOL     OW14428   3.286   2.076   2.974
 4657SOL    HW114429   3.338   2.011   3.029
 4657SOL    HW214430   3.237   2.139   3.035
 4658SOL     OW14431   2.863   1.896   3.016
 4658SOL    HW114432   2.800   1.824   2.985
 4658SOL    HW214433   2.956   1.860   3.016
 4659SOL     OW14434   2.632   3.192   2.163
 4659SOL    HW114435   2.586   3.105   2.180
 4659SOL    HW214436   2.723   3.189   2.204
 4660SOL     OW14437   2.480   3.429   3.146
 4660SOL    HW114438   2.475   3.511   3.203
 4660SOL    HW214439   2.569   3.426   3.101
 4661SOL     OW14440   3.214   1.914   2.030
 4661SOL    HW114441   3.249   1.873   1.946
 4661SOL    HW214442   3.124   1.876   2.050
 4662SOL     OW14443   3.162   2.315   2.553
 4662SOL    HW114444   3.103   2.395   2.557
 4662SOL    HW214445   3.177   2.280   2.646
 4663SOL     OW14446   3.455   2.083   2.744
 4663SOL    HW114447   3.371   2.082   2.798
 4663SOL    HW214448   3.457   2.166   2.688
 4664SOL     OW14449   1.901   2.939   2.162
 4664SOL    HW114450   2.000   2.928   2.153
 4664SOL    HW214451   1.861   2.853   2.194
 4665SOL     OW14452   2.737   3.508   2.199
 4665SOL    HW114453   2.660   3.473   2.145
 4665SOL    HW214454   2.705   3.579   2.261
 4666SOL     OW14455   2.092   2.490   3.837
 4666SOL    HW114456   1.999   2.488   3.874
 4666SOL    HW214457   2.093   2.451   3.745
 4667SOL     OW14458   1.881   2.230   4.371
 4667SOL    HW114459   1.799   2.273   4.410
 4667SOL    HW214460   1.853   2.157   4.308
 4668SOL     OW14461   2.431   3.137   4.889
 4668SOL    HW114462   2.338   3.130   4.852
 4668SOL    HW214463   2.442   3.226   4.933
 4669SOL     OW14464   3.417   3.373   4.427
 4669SOL    HW114465   3.360   3.357   4.508
 4669SOL    HW214466   3.358   3.383   4.347
 4670SOL     OW14467   2.997   2.565   4.441
 4670SOL    HW114468   3.054   2.643   4.416
 4670SOL    HW214469   2.937   2.591   4.517
 4671SOL     OW14470   3.617   2.469   3.955
 4671SOL    HW114471   3.605   2.456   3.856
 4671SOL    HW214472   3.587   2.388   4.004
 4672SOL     OW14473   2.630   3.006   4.747
 4672SOL    HW114474   2.552   3.023   4.807
 4672SOL    HW214475   2.664   3.093   4.711
 4673SOL     OW14476   2.712   2.660   5.547
 4673SOL    HW114477   2.708   2.736   5.612
 4673SOL    HW214478   2.734   2.696   5.456
 4674SOL     OW14479   2.547   2.874   4.389
 4674SOL    HW114480   2.616   2.858   4.459
 4674SOL    HW214481   2.474   2.931   4.427
 4675SOL     OW14482   2.548   3.023   5.527
 4675SOL    HW114483   2.608   3.102   5.541
 4675SOL    HW214484   2.462   3.054   5.486
 4676SOL     OW14485   2.197   3.297   4.785
 4676SOL    HW114486   2.119   3.266   4.732
 4676SOL    HW214487   2.255   3.355   4.728
 4677SOL     OW14488   3.322   3.367   5.063
 4677SOL    HW114489   3.346   3.461   5.089
 4677SOL    HW214490   3.306   3.313   5.145
 4678SOL     OW14491   3.465   2.309   4.461
 4678SOL    HW114492   3.391   2.355   4.411
 4678SOL    HW214493   3.516   2.377   4.514
 4679SOL     OW14494   2.093   3.575   4.207
 4679SOL    HW114495   2.127   3.652   4.261
 4679SOL    HW214496   2.137   3.575   4.117
 4680SOL     OW14497   2.989   3.203   5.414
 4680SOL    HW114498   3.036   3.203   5.502
 4680SOL    HW214499   2.941   3.116   5.403
 4681SOL     OW14500   2.092   3.296   4.262
 4681SOL    HW114501   2.066   3.392   4.262
 4681SOL    HW214502   2.021   3.242   4.307
 4682SOL     OW14503   2.102   2.953   4.610
 4682SOL    HW114504   2.116   2.869   4.662
 4682SOL    HW214505   2.047   3.017   4.665
 4683SOL     OW14506   2.482   3.648   5.163
 4683SOL    HW114507   2.390   3.631   5.198
 4683SOL    HW214508   2.510   3.740   5.189
 4684SOL     OW14509   2.468   2.826   3.847
 4684SOL    HW114510   2.475   2.910   3.793
 4684SOL    HW214511   2.514   2.839   3.935
 4685SOL     OW14512   3.456   1.976   5.204
 4685SOL    HW114513   3.438   2.043   5.132
 4685SOL    HW214514   3.453   2.022   5.293
 4686SOL     OW14515   1.984   2.505   4.287
 4686SOL    HW114516   1.939   2.417   4.304
 4686SOL    HW214517   1.983   2.559   4.371
 4687SOL     OW14518   3.704   3.629   4.083
 4687SOL    HW114519   3.758   3.600   4.163
 4687SOL    HW214520   3.734   3.719   4.054
 4688SOL     OW14521   1.889   3.458   3.841
 4688SOL    HW114522   1.870   3.362   3.862
 4688SOL    HW214523   1.856   3.516   3.916
 4689SOL     OW14524   3.551   2.784   4.336
 4689SOL    HW114525   3.646   2.755   4.344
 4689SOL    HW214526   3.543   2.849   4.261
 4690SOL     OW14527   3.503   2.970   4.156
 4690SOL    HW114528   3.589   2.972   4.104
 4690SOL    HW214529   3.517   3.017   4.244
 4691SOL     OW14530   2.475   3.227   4.450
 4691SOL    HW114531   2.426   3.140   4.459
 4691SOL    HW214532   2.452   3.270   4.363
 4692SOL     OW14533   3.155   3.090   5.147
 4692SOL    HW114534   3.192   3.017   5.089
 4692SOL    HW214535   3.207   3.095   5.232
 4693SOL     OW14536   2.671   1.866   4.226
 4693SOL    HW114537   2.711   1.957   4.217
 4693SOL    HW214538   2.571   1.874   4.232
 4694SOL     OW14539   3.387   2.861   3.914
 4694SOL    HW114540   3.324   2.785   3.927
 4694SOL    HW214541   3.435   2.879   4.000
 4695SOL     OW14542   3.049   3.654   5.340
 4695SOL    HW114543   3.073   3.714   5.264
 4695SOL    HW214544   3.056   3.559   5.310
 4696SOL     OW14545   3.328   3.279   4.677
 4696SOL    HW114546   3.269   3.285   4.757
 4696SOL    HW214547   3.313   3.191   4.631
 4697SOL     OW14548   3.529   3.576   4.296
 4697SOL    HW114549   3.488   3.553   4.208
 4697SOL    HW214550   3.511   3.502   4.361
 4698SOL     OW14551   2.460   2.591   3.994
 4698SOL    HW114552   2.484   2.660   3.926
 4698SOL    HW214553   2.382   2.624   4.048
 4699SOL     OW14554   3.143   2.207   4.668
 4699SOL    HW114555   3.057   2.157   4.655
 4699SOL    HW214556   3.205   2.153   4.724
 4700SOL     OW14557   3.438   3.524   4.031
 4700SOL    HW114558   3.527   3.570   4.034
 4700SOL    HW214559   3.417   3.500   3.936
 4701SOL     OW14560   3.256   2.331   5.398
 4701SOL    HW114561   3.236   2.374   5.486
 4701SOL    HW214562   3.334   2.269   5.407
 4702SOL     OW14563   2.835   2.752   5.296
 4702SOL    HW114564   2.881   2.668   5.267
 4702SOL    HW214565   2.779   2.786   5.221
 4703SOL     OW14566   2.903   2.563   4.153
 4703SOL    HW114567   2.929   2.559   4.249
 4703SOL    HW214568   2.818   2.512   4.139
 4704SOL     OW14569   1.938   2.673   4.513
 4704SOL    HW114570   2.037   2.661   4.522
 4704SOL    HW214571   1.914   2.768   4.534
 4705SOL     OW14572   1.992   3.683   5.295
 4705SOL    HW114573   1.982   3.668   5.394
 4705SOL    HW214574   1.906   3.719   5.259
 4706SOL     OW14575   2.727   2.210   3.919
 4706SOL    HW114576   2.786   2.273   3.870
 4706SOL    HW214577   2.746   2.116   3.890
 4707SOL     OW14578   3.581   2.447   5.555
 4707SOL    HW114579   3.555   2.536   5.519
 4707SOL    HW214580   3.579   2.379   5.482
 4708SOL     OW14581   3.224   3.006   4.269
 4708SOL    HW114582   3.307   2.977   4.221
 4708SOL    HW214583   3.175   3.073   4.213
 4709SOL     OW14584   2.870   3.318   4.201
 4709SOL    HW114585   2.824   3.390   4.149
 4709SOL    HW214586   2.866   3.338   4.299
 4710SOL     OW14587   2.213   3.663   4.577
 4710SOL    HW114588   2.263   3.577   4.583
 4710SOL    HW214589   2.278   3.740   4.574
 4711SOL     OW14590   3.657   2.928   4.597
 4711SOL    HW114591   3.595   2.913   4.521
 4711SOL    HW214592   3.605   2.939   4.682
 4712SOL     OW14593   3.089   3.412   5.230
 4712SOL    HW114594   3.095   3.335   5.294
 4712SOL    HW214595   3.037   3.386   5.150
 4713SOL     OW14596   2.183   2.805   3.966
 4713SOL    HW114597   2.265   2.844   3.924
 4713SOL    HW214598   2.156   2.723   3.917
 4714SOL     OW14599   3.320   2.597   4.452
 4714SOL    HW114600   3.315   2.532   4.527
 4714SOL    HW214601   3.400   2.656   4.465
 4715SOL     OW14602   2.323   3.128   5.451
 4715SOL    HW114603   2.273   3.129   5.365
 4715SOL    HW214604   2.260   3.110   5.527
 4716SOL     OW14605   2.973   3.638   3.961
 4716SOL    HW114606   2.913   3.576   4.011
 4716SOL    HW214607   3.004   3.594   3.876
 4717SOL     OW14608   3.494   3.239   3.805
 4717SOL    HW114609   3.462   3.333   3.795
 4717SOL    HW214610   3.418   3.176   3.793
 4718SOL     OW14611   2.326   3.605   4.047
 4718SOL    HW114612   2.359   3.644   4.133
 4718SOL    HW214613   2.402   3.598   3.982
 4719SOL     OW14614   3.262   1.969   4.150
 4719SOL    HW114615   3.238   1.932   4.060
 4719SOL    HW214616   3.361   1.985   4.154
 4720SOL     OW14617   2.111   3.647   4.965
 4720SOL    HW114618   2.168   3.582   5.015
 4720SOL    HW214619   2.095   3.614   4.872
 4721SOL     OW14620   2.802   3.560   4.628
 4721SOL    HW114621   2.882   3.503   4.649
 4721SOL    HW214622   2.753   3.520   4.551
 4722SOL     OW14623   2.244   2.562   4.204
 4722SOL    HW114624   2.289   2.472   4.201
 4722SOL    HW214625   2.150   2.551   4.237
 4723SOL     OW14626   3.409   2.084   5.453
 4723SOL    HW114627   3.404   2.121   5.545
 4723SOL    HW214628   3.337   2.015   5.441
 4724SOL     OW14629   2.476   1.984   3.841
 4724SOL    HW114630   2.574   1.962   3.848
 4724SOL    HW214631   2.445   1.967   3.748
 4725SOL     OW14632   2.643   2.126   5.473
 4725SOL    HW114633   2.710   2.065   5.516
 4725SOL    HW214634   2.570   2.145   5.538
 4726SOL     OW14635   2.750   3.376   4.919
 4726SOL    HW114636   2.727   3.351   4.825
 4726SOL    HW214637   2.811   3.307   4.958
 4727SOL     OW14638   3.213   2.452   5.157
 4727SOL    HW114639   3.241   2.409   5.242
 4727SOL    HW214640   3.238   2.548   5.158
 4728SOL     OW14641   2.665   3.264   4.648
 4728SOL    HW114642   2.755   3.278   4.606
 4728SOL    HW214643   2.594   3.266   4.577
 4729SOL     OW14644   2.784   2.365   4.623
 4729SOL    HW114645   2.759   2.356   4.527
 4729SOL    HW214646   2.832   2.283   4.654
 4730SOL     OW14647   2.401   1.926   4.236
 4730SOL    HW114648   2.320   1.927   4.294
 4730SOL    HW214649   2.404   2.009   4.181
 4731SOL     OW14650   3.296   3.050   3.765
 4731SOL    HW114651   3.328   2.974   3.822
 4731SOL    HW214652   3.204   3.077   3.795
 4732SOL     OW14653   2.159   1.897   3.895
 4732SOL    HW114654   2.208   1.981   3.874
 4732SOL    HW214655   2.221   1.832   3.940
 4733SOL     OW14656   2.797   2.098   4.204
 4733SOL    HW114657   2.749   2.139   4.126
 4733SOL    HW214658   2.896   2.096   4.185
 4734SOL     OW14659   3.089   3.432   4.517
 4734SOL    HW114660   3.110   3.506   4.452
 4734SOL    HW214661   3.157   3.432   4.590
 4735SOL     OW14662   2.321   3.014   4.465
 4735SOL    HW114663   2.250   2.987   4.530
 4735SOL    HW214664   2.295   2.986   4.372
 4736SOL     OW14665   3.133   3.659   4.315
 4736SOL    HW114666   3.177   3.723   4.251
 4736SOL    HW214667   3.083   3.711   4.385
 4737SOL     OW14668   2.894   2.411   3.740
 4737SOL    HW114669   2.853   2.493   3.701
 4737SOL    HW214670   2.958   2.437   3.813
 4738SOL     OW14671   2.728   2.316   4.366
 4738SOL    HW114672   2.696   2.388   4.304
 4738SOL    HW214673   2.752   2.235   4.313
 4739SOL     OW14674   2.879   1.901   4.477
 4739SOL    HW114675   2.807   1.906   4.408
 4739SOL    HW214676   2.855   1.832   4.546
 4740SOL     OW14677   3.291   3.035   4.591
 4740SOL    HW114678   3.236   2.951   4.584
 4740SOL    HW214679   3.317   3.064   4.499
 4741SOL     OW14680   3.328   2.452   4.716
 4741SOL    HW114681   3.298   2.357   4.723
 4741SOL    HW214682   3.401   2.468   4.782
 4742SOL     OW14683   3.719   2.695   4.101
 4742SOL    HW114684   3.761   2.631   4.165
 4742SOL    HW214685   3.681   2.644   4.023
 4743SOL     OW14686   2.350   3.247   3.898
 4743SOL    HW114687   2.263   3.232   3.945
 4743SOL    HW214688   2.333   3.273   3.803
 4744SOL     OW14689   3.526   3.142   4.381
 4744SOL    HW114690   3.625   3.150   4.395
 4744SOL    HW214691   3.481   3.226   4.412
 4745SOL     OW14692   3.252   2.437   3.802
 4745SOL    HW114693   3.198   2.416   3.883
 4745SOL    HW214694   3.343   2.396   3.811
 4746SOL     OW14695   3.616   3.085   5.312
 4746SOL    HW114696   3.707   3.046   5.299
 4746SOL    HW214697   3.624   3.181   5.336
 4747SOL     OW14698   2.926   3.209   5.064
 4747SOL    HW114699   2.846   3.186   5.119
 4747SOL    HW214700   3.009   3.183   5.113
 4748SOL     OW14701   3.454   3.491   5.349
 4748SOL    HW114702   3.481   3.525   5.259
 4748SOL    HW214703   3.533   3.453   5.395
 4749SOL     OW14704   2.973   3.057   4.824
 4749SOL    HW114705   2.933   3.101   4.905
 4749SOL    HW214706   2.932   3.094   4.741
 4750SOL     OW14707   3.500   2.961   4.803
 4750SOL    HW114708   3.505   3.042   4.862
 4750SOL    HW214709   3.414   2.963   4.752
 4751SOL     OW14710   2.842   2.978   5.443
 4751SOL    HW114711   2.743   2.984   5.453
 4751SOL    HW214712   2.865   2.898   5.387
 4752SOL     OW14713   2.567   2.912   4.092
 4752SOL    HW114714   2.553   2.919   4.191
 4752SOL    HW214715   2.651   2.861   4.074
 4753SOL     OW14716   3.136   2.248   4.986
 4753SOL    HW114717   3.157   2.322   5.050
 4753SOL    HW214718   3.047   2.265   4.943
 4754SOL     OW14719   1.926   3.426   5.055
 4754SOL    HW114720   1.880   3.508   5.021
 4754SOL    HW214721   2.024   3.445   5.064
 4755SOL     OW14722   2.229   2.962   4.225
 4755SOL    HW114723   2.222   3.045   4.169
 4755SOL    HW214724   2.233   2.882   4.165
 4756SOL     OW14725   3.114   3.210   4.112
 4756SOL    HW114726   3.164   3.287   4.152
 4756SOL    HW214727   3.019   3.212   4.144
 4757SOL     OW14728   3.134   3.307   4.866
 4757SOL    HW114729   3.181   3.320   4.953
 4757SOL    HW214730   3.068   3.233   4.875
 4758SOL     OW14731   3.444   2.501   4.196
 4758SOL    HW114732   3.413   2.562   4.269
 4758SOL    HW214733   3.494   2.553   4.127
 4759SOL     OW14734   2.216   3.372   5.053
 4759SOL    HW114735   2.195   3.328   4.966
 4759SOL    HW214736   2.313   3.398   5.056
 4760SOL     OW14737   3.449   2.641   5.394
 4760SOL    HW114738   3.357   2.679   5.389
 4760SOL    HW214739   3.509   2.688   5.329
 4761SOL     OW14740   2.875   1.967   5.494
 4761SOL    HW114741   2.881   2.052   5.442
 4761SOL    HW214742   2.907   1.891   5.437
 4762SOL     OW14743   2.366   1.912   5.464
 4762SOL    HW114744   2.324   1.855   5.394
 4762SOL    HW214745   2.300   1.981   5.496
 4763SOL     OW14746   3.222   2.724   4.769
 4763SOL    HW114747   3.147   2.724   4.703
 4763SOL    HW214748   3.259   2.632   4.778
 4764SOL     OW14749   3.071   2.387   3.999
 4764SOL    HW114750   3.084   2.303   4.053
 4764SOL    HW214751   3.042   2.461   4.059
 4765SOL     OW14752   1.899   3.172   5.006
 4765SOL    HW114753   1.952   3.123   5.074
 4765SOL    HW214754   1.921   3.270   5.011
 4766SOL     OW14755   3.590   2.797   5.578
 4766SOL    HW114756   3.544   2.790   5.489
 4766SOL    HW214757   3.528   2.841   5.644
 4767SOL     OW14758   2.169   1.925   4.342
 4767SOL    HW114759   2.158   2.019   4.375
 4767SOL    HW214760   2.164   1.862   4.419
 4768SOL     OW14761   3.484   2.229   4.098
 4768SOL    HW114762   3.486   2.153   4.162
 4768SOL    HW214763   3.436   2.306   4.138
 4769SOL     OW14764   2.842   3.435   5.424
 4769SOL    HW114765   2.822   3.479   5.336
 4769SOL    HW214766   2.881   3.344   5.408
 4770SOL     OW14767   3.721   3.380   5.329
 4770SOL    HW114768   3.735   3.407   5.234
 4770SOL    HW214769   3.804   3.402   5.382
 4771SOL     OW14770   3.402   2.136   3.849
 4771SOL    HW114771   3.341   2.061   3.872
 4771SOL    HW214772   3.424   2.188   3.932
 4772SOL     OW14773   3.165   2.700   3.766
 4772SOL    HW114774   3.199   2.607   3.781
 4772SOL    HW214775   3.183   2.727   3.671
 4773SOL     OW14776   2.930   3.195   4.573
 4773SOL    HW114777   2.937   3.111   4.518
 4773SOL    HW214778   2.992   3.264   4.537
 4774SOL     OW14779   3.000   2.242   5.402
 4774SOL    HW114780   2.955   2.305   5.466
 4774SOL    HW214781   3.093   2.273   5.385
 4775SOL     OW14782   3.022   2.069   5.201
 4775SOL    HW114783   3.022   2.133   5.278
 4775SOL    HW214784   3.050   2.117   5.118
 4776SOL     OW14785   1.870   3.188   3.924
 4776SOL    HW114786   1.777   3.209   3.893
 4776SOL    HW214787   1.880   3.089   3.937
 4777SOL     OW14788   1.950   3.663   4.651
 4777SOL    HW114789   1.908   3.577   4.624
 4777SOL    HW214790   2.044   3.666   4.617
 4778SOL     OW14791   2.366   3.430   4.634
 4778SOL    HW114792   2.432   3.504   4.643
 4778SOL    HW214793   2.410   3.351   4.592
 4779SOL     OW14794   3.231   2.812   5.384
 4779SOL    HW114795   3.270   2.901   5.404
 4779SOL    HW214796   3.241   2.792   5.287
 4780SOL     OW14797   2.677   2.434   4.049
 4780SOL    HW114798   2.684   2.345   4.003
 4780SOL    HW214799   2.583   2.468   4.041
 4781SOL     OW14800   3.519   2.466   4.930
 4781SOL    HW114801   3.481   2.397   4.992
 4781SOL    HW214802   3.601   2.430   4.886
 4782SOL     OW14803   2.114   3.426   5.468
 4782SOL    HW114804   2.084   3.483   5.544
 4782SOL    HW214805   2.107   3.329   5.494
 4783SOL     OW14806   2.792   3.540   5.189
 4783SOL    HW114807   2.768   3.522   5.094
 4783SOL    HW214808   2.822   3.634   5.199
 4784SOL     OW14809   2.021   2.999   5.190
 4784SOL    HW114810   2.043   2.938   5.266
 4784SOL    HW214811   2.031   2.950   5.104
 4785SOL     OW14812   3.209   2.921   4.958
 4785SOL    HW114813   3.233   2.858   4.884
 4785SOL    HW214814   3.119   2.961   4.940
 4786SOL     OW14815   3.164   2.717   4.033
 4786SOL    HW114816   3.078   2.686   4.075
 4786SOL    HW214817   3.160   2.703   3.934
 4787SOL     OW14818   3.621   3.609   4.878
 4787SOL    HW114819   3.682   3.639   4.805
 4787SOL    HW214820   3.583   3.520   4.856
 4788SOL     OW14821   3.114   3.593   4.852
 4788SOL    HW114822   3.198   3.598   4.798
 4788SOL    HW214823   3.091   3.497   4.870
 4789SOL     OW14824   1.945   3.120   4.746
 4789SOL    HW114825   1.940   3.119   4.846
 4789SOL    HW214826   1.862   3.079   4.708
 4790SOL     OW14827   2.550   3.524   5.440
 4790SOL    HW114828   2.494   3.605   5.449
 4790SOL    HW214829   2.602   3.528   5.354
 4791SOL     OW14830   3.588   1.997   4.247
 4791SOL    HW114831   3.661   1.980   4.180
 4791SOL    HW214832   3.557   1.910   4.285
 4792SOL     OW14833   3.250   3.435   4.201
 4792SOL    HW114834   3.317   3.447   4.127
 4792SOL    HW214835   3.210   3.524   4.224
 4793SOL     OW14836   1.992   3.656   5.575
 4793SOL    HW114837   1.951   3.582   5.628
 4793SOL    HW214838   2.056   3.707   5.633
 4794SOL     OW14839   3.142   2.789   4.396
 4794SOL    HW114840   3.202   2.708   4.398
 4794SOL    HW214841   3.182   2.858   4.336
 4795SOL     OW14842   2.692   3.135   5.146
 4795SOL    HW114843   2.687   3.168   5.241
 4795SOL    HW214844   2.606   3.154   5.100
 4796SOL     OW14845   2.534   3.478   3.878
 4796SOL    HW114846   2.543   3.488   3.779
 4796SOL    HW214847   2.494   3.389   3.899
 4797SOL     OW14848   3.512   3.582   5.118
 4797SOL    HW114849   3.565   3.592   5.034
 4797SOL    HW214850   3.485   3.672   5.152
 4798SOL     OW14851   3.703   2.037   4.687
 4798SOL    HW114852   3.742   1.952   4.651
 4798SOL    HW214853   3.605   2.039   4.668
 4799SOL     OW14854   3.056   3.474   3.755
 4799SOL    HW114855   3.062   3.381   3.792
 4799SOL    HW214856   2.997   3.474   3.675
 4800SOL     OW14857   2.684   2.864   5.096
 4800SOL    HW114858   2.724   2.863   5.004
 4800SOL    HW214859   2.694   2.956   5.136
 4801SOL     OW14860   2.778   2.772   4.015
 4801SOL    HW114861   2.841   2.810   3.947
 4801SOL    HW214862   2.818   2.689   4.054
 4802SOL     OW14863   3.366   3.469   3.768
 4802SOL    HW114864   3.274   3.506   3.775
 4802SOL    HW214865   3.404   3.489   3.678
 4803SOL     OW14866   2.234   3.150   5.214
 4803SOL    HW114867   2.221   3.243   5.180
 4803SOL    HW214868   2.150   3.098   5.201
 4804SOL     OW14869   3.476   3.154   5.013
 4804SOL    HW114870   3.536   3.157   5.093
 4804SOL    HW214871   3.401   3.218   5.026
 4805SOL     OW14872   2.901   2.960   4.420
 4805SOL    HW114873   2.831   2.913   4.474
 4805SOL    HW214874   2.960   2.892   4.377
 4806SOL     OW14875   2.452   3.349   4.215
 4806SOL    HW114876   2.494   3.291   4.145
 4806SOL    HW214877   2.408   3.428   4.171
 4807SOL     OW14878   3.571   2.247   5.105
 4807SOL    HW114879   3.644   2.316   5.109
 4807SOL    HW214880   3.599   2.172   5.046
 4808SOL     OW14881   2.117   3.210   4.014
 4808SOL    HW114882   2.021   3.211   3.987
 4808SOL    HW214883   2.129   3.263   4.098
 4809SOL     OW14884   1.967   2.875   5.450
 4809SOL    HW114885   1.890   2.842   5.504
 4809SOL    HW214886   2.052   2.845   5.492
 4810SOL     OW14887   1.937   2.207   3.757
 4810SOL    HW114888   1.845   2.179   3.728
 4810SOL    HW214889   1.968   2.284   3.701
 4811SOL     OW14890   3.302   2.718   5.122
 4811SOL    HW114891   3.245   2.770   5.059
 4811SOL    HW214892   3.398   2.730   5.098
 4812SOL     OW14893   1.934   2.028   4.042
 4812SOL    HW114894   1.917   2.111   3.988
 4812SOL    HW214895   2.024   1.991   4.020
 4813SOL     OW14896   3.045   3.197   3.843
 4813SOL    HW114897   2.946   3.186   3.845
 4813SOL    HW214898   3.079   3.212   3.936
 4814SOL     OW14899   3.355   3.629   4.683
 4814SOL    HW114900   3.388   3.693   4.614
 4814SOL    HW214901   3.421   3.623   4.758
 4815SOL     OW14902   3.312   3.082   5.357
 4815SOL    HW114903   3.303   3.072   5.456
 4815SOL    HW214904   3.408   3.075   5.331
 4816SOL     OW14905   2.252   3.603   5.284
 4816SOL    HW114906   2.161   3.644   5.282
 4816SOL    HW214907   2.245   3.509   5.316
 4817SOL     OW14908   3.536   2.745   4.978
 4817SOL    HW114909   3.509   2.656   4.941
 4817SOL    HW214910   3.537   2.813   4.905
 4818SOL     OW14911   3.087   2.187   4.173
 4818SOL    HW114912   3.152   2.113   4.162
 4818SOL    HW214913   3.107   2.237   4.257
 4819SOL     OW14914   2.456   2.607   4.376
 4819SOL    HW114915   2.506   2.692   4.357
 4819SOL    HW214916   2.368   2.609   4.328
 4820SOL     OW14917   3.639   2.204   5.366
 4820SOL    HW114918   3.622   2.235   5.272
 4820SOL    HW214919   3.555   2.167   5.404
 4821SOL     OW14920   3.592   2.796   5.241
 4821SOL    HW114921   3.630   2.887   5.256
 4821SOL    HW214922   3.584   2.779   5.142
 4822SOL     OW14923   2.721   3.236   3.740
 4822SOL    HW114924   2.675   3.251   3.828
 4822SOL    HW214925   2.765   3.321   3.710
 4823SOL     OW14926   2.523   3.652   4.677
 4823SOL    HW114927   2.477   3.740   4.664
 4823SOL    HW214928   2.622   3.664   4.670
 4824SOL     OW14929   2.721   2.818   4.585
 4824SOL    HW114930   2.775   2.749   4.633
 4824SOL    HW214931   2.689   2.887   4.651
 4825SOL     OW14932   2.945   2.846   3.811
 4825SOL    HW114933   2.922   2.899   3.729
 4825SOL    HW214934   3.026   2.790   3.792
 4826SOL     OW14935   3.723   3.431   4.575
 4826SOL    HW114936   3.652   3.419   4.505
 4826SOL    HW214937   3.724   3.352   4.635
 4827SOL     OW14938   2.083   3.176   5.568
 4827SOL    HW114939   2.018   3.103   5.547
 4827SOL    HW214940   2.087   3.190   5.666
 4828SOL     OW14941   1.941   3.102   4.377
 4828SOL    HW114942   1.940   3.055   4.465
 4828SOL    HW214943   2.023   3.074   4.326
 4829SOL     OW14944   2.534   3.253   5.348
 4829SOL    HW114945   2.456   3.203   5.386
 4829SOL    HW214946   2.531   3.348   5.379
 4830SOL     OW14947   3.686   2.054   4.951
 4830SOL    HW114948   3.682   1.964   4.995
 4830SOL    HW214949   3.689   2.043   4.852
 4831SOL     OW14950   3.567   3.349   4.828
 4831SOL    HW114951   3.474   3.324   4.801
 4831SOL    HW214952   3.593   3.299   4.910
 4832SOL     OW14953   2.674   3.448   4.411
 4832SOL    HW114954   2.706   3.458   4.317
 4832SOL    HW214955   2.595   3.386   4.413
 4833SOL     OW14956   3.286   2.076   4.836
 4833SOL    HW114957   3.338   2.011   4.891
 4833SOL    HW214958   3.237   2.139   4.897
 4834SOL     OW14959   2.632   3.192   4.025
 4834SOL    HW114960   2.586   3.105   4.042
 4834SOL    HW214961   2.723   3.189   4.066
 4835SOL     OW14962   2.480   3.429   5.008
 4835SOL    HW114963   2.475   3.511   5.065
 4835SOL    HW214964   2.569   3.426   4.963
 4836SOL     OW14965   3.214   1.914   3.892
 4836SOL    HW114966   3.249   1.873   3.808
 4836SOL    HW214967   3.124   1.876   3.912
 4837SOL     OW14968   3.162   2.315   4.415
 4837SOL    HW114969   3.103   2.395   4.419
 4837SOL    HW214970   3.177   2.280   4.508
 4838SOL     OW14971   3.455   2.083   4.606
 4838SOL    HW114972   3.371   2.082   4.660
 4838SOL    HW214973   3.457   2.166   4.550
 4839SOL     OW14974   1.901   2.939   4.024
 4839SOL    HW114975   2.000   2.928   4.015
 4839SOL    HW214976   1.861   2.853   4.056
 4840SOL     OW14977   2.737   3.508   4.061
 4840SOL    HW114978   2.660   3.473   4.007
 4840SOL    HW214979   2.705   3.579   4.123
 4841SOL     OW14980   2.092   2.490   5.699
 4841SOL    HW114981   1.999   2.488   5.736
 4841SOL    HW214982   2.093   2.451   5.607
 4842SOL     OW14983   2.431   3.137   6.751
 4842SOL    HW114984   2.338   3.130   6.714
 4842SOL    HW214985   2.442   3.226   6.795
 4843SOL     OW14986   3.417   3.373   6.289
 4843SOL    HW114987   3.360   3.357   6.370
 4843SOL    HW214988   3.358   3.383   6.209
 4844SOL     OW14989   2.997   2.565   6.303
 4844SOL    HW114990   3.054   2.643   6.278
 4844SOL    HW214991   2.937   2.591   6.379
 4845SOL     OW14992   3.617   2.469   5.817
 4845SOL    HW114993   3.605   2.456   5.718
 4845SOL    HW214994   3.587   2.388   5.866
 4846SOL     OW14995   2.630   3.006   6.609
 4846SOL    HW114996   2.552   3.023   6.669
 4846SOL    HW214997   2.664   3.093   6.573
 4847SOL     OW14998   2.712   2.660   7.409
 4847SOL    HW114999   2.708   2.736   7.474
 4847SOL    HW215000   2.734   2.696   7.318
 4848SOL     OW15001   2.547   2.874   6.251
 4848SOL    HW115002   2.616   2.858   6.321
 4848SOL    HW215003   2.474   2.931   6.289
 4849SOL     OW15004   2.548   3.023   7.389
 4849SOL    HW115005   2.608   3.102   7.403
 4849SOL    HW215006   2.462   3.054   7.348
 4850SOL     OW15007   2.197   3.297   6.647
 4850SOL    HW115008   2.119   3.266   6.594
 4850SOL    HW215009   2.255   3.355   6.590
 4851SOL     OW15010   3.322   3.367   6.925
 4851SOL    HW115011   3.346   3.461   6.951
 4851SOL    HW215012   3.306   3.313   7.007
 4852SOL     OW15013   3.465   2.309   6.323
 4852SOL    HW115014   3.391   2.355   6.273
 4852SOL    HW215015   3.516   2.377   6.376
 4853SOL     OW15016   2.093   3.575   6.069
 4853SOL    HW115017   2.127   3.652   6.123
 4853SOL    HW215018   2.137   3.575   5.979
 4854SOL     OW15019   2.989   3.203   7.276
 4854SOL    HW115020   3.036   3.203   7.364
 4854SOL    HW215021   2.941   3.116   7.265
 4855SOL     OW15022   2.092   3.296   6.124
 4855SOL    HW115023   2.066   3.392   6.124
 4855SOL    HW215024   2.021   3.242   6.169
 4856SOL     OW15025   2.102   2.953   6.472
 4856SOL    HW115026   2.116   2.869   6.524
 4856SOL    HW215027   2.047   3.017   6.527
 4857SOL     OW15028   2.482   3.648   7.025
 4857SOL    HW115029   2.390   3.631   7.060
 4857SOL    HW215030   2.510   3.740   7.051
 4858SOL     OW15031   3.456   1.976   7.066
 4858SOL    HW115032   3.438   2.043   6.994
 4858SOL    HW215033   3.453   2.022   7.155
 4859SOL     OW15034   3.704   3.629   5.945
 4859SOL    HW115035   3.758   3.600   6.025
 4859SOL    HW215036   3.734   3.719   5.916
 4860SOL     OW15037   1.889   3.458   5.703
 4860SOL    HW115038   1.870   3.362   5.724
 4860SOL    HW215039   1.856   3.516   5.778
 4861SOL     OW15040   3.551   2.784   6.198
 4861SOL    HW115041   3.646   2.755   6.206
 4861SOL    HW215042   3.543   2.849   6.123
 4862SOL     OW15043   3.503   2.970   6.018
 4862SOL    HW115044   3.589   2.972   5.966
 4862SOL    HW215045   3.517   3.017   6.106
 4863SOL     OW15046   1.975   2.599   7.183
 4863SOL    HW115047   2.063   2.586   7.228
 4863SOL    HW215048   1.962   2.696   7.161
 4864SOL     OW15049   2.475   3.227   6.312
 4864SOL    HW115050   2.426   3.140   6.321
 4864SOL    HW215051   2.452   3.270   6.225
 4865SOL     OW15052   3.155   3.090   7.009
 4865SOL    HW115053   3.192   3.017   6.951
 4865SOL    HW215054   3.207   3.095   7.094
 4866SOL     OW15055   2.059   2.838   6.850
 4866SOL    HW115056   2.148   2.793   6.836
 4866SOL    HW215057   1.986   2.773   6.831
 4867SOL     OW15058   3.387   2.861   5.776
 4867SOL    HW115059   3.324   2.785   5.789
 4867SOL    HW215060   3.435   2.879   5.862
 4868SOL     OW15061   3.049   3.654   7.202
 4868SOL    HW115062   3.073   3.714   7.126
 4868SOL    HW215063   3.056   3.559   7.172
 4869SOL     OW15064   3.328   3.279   6.539
 4869SOL    HW115065   3.269   3.285   6.619
 4869SOL    HW215066   3.313   3.191   6.493
 4870SOL     OW15067   3.529   3.576   6.158
 4870SOL    HW115068   3.488   3.553   6.070
 4870SOL    HW215069   3.511   3.502   6.223
 4871SOL     OW15070   3.143   2.207   6.530
 4871SOL    HW115071   3.057   2.157   6.517
 4871SOL    HW215072   3.205   2.153   6.586
 4872SOL     OW15073   3.438   3.524   5.893
 4872SOL    HW115074   3.527   3.570   5.896
 4872SOL    HW215075   3.417   3.500   5.798
 4873SOL     OW15076   2.669   2.467   7.051
 4873SOL    HW115077   2.622   2.464   7.140
 4873SOL    HW215078   2.618   2.412   6.985
 4874SOL     OW15079   3.256   2.331   7.260
 4874SOL    HW115080   3.236   2.374   7.348
 4874SOL    HW215081   3.334   2.269   7.269
 4875SOL     OW15082   2.835   2.752   7.158
 4875SOL    HW115083   2.881   2.668   7.129
 4875SOL    HW215084   2.779   2.786   7.083
 4876SOL     OW15085   2.853   2.272   6.828
 4876SOL    HW115086   2.776   2.306   6.882
 4876SOL    HW215087   2.819   2.221   6.749
 4877SOL     OW15088   1.938   2.673   6.375
 4877SOL    HW115089   2.037   2.661   6.384
 4877SOL    HW215090   1.914   2.768   6.396
 4878SOL     OW15091   1.992   3.683   7.157
 4878SOL    HW115092   1.982   3.668   7.256
 4878SOL    HW215093   1.906   3.719   7.121
 4879SOL     OW15094   3.581   2.447   7.417
 4879SOL    HW115095   3.555   2.536   7.381
 4879SOL    HW215096   3.579   2.379   7.344
 4880SOL     OW15097   3.224   3.006   6.131
 4880SOL    HW115098   3.307   2.977   6.083
 4880SOL    HW215099   3.175   3.073   6.075
 4881SOL     OW15100   2.870   3.318   6.063
 4881SOL    HW115101   2.824   3.390   6.011
 4881SOL    HW215102   2.866   3.338   6.161
 4882SOL     OW15103   2.213   3.663   6.439
 4882SOL    HW115104   2.263   3.577   6.445
 4882SOL    HW215105   2.278   3.740   6.436
 4883SOL     OW15106   3.657   2.928   6.459
 4883SOL    HW115107   3.595   2.913   6.383
 4883SOL    HW215108   3.605   2.939   6.544
 4884SOL     OW15109   3.089   3.412   7.092
 4884SOL    HW115110   3.095   3.335   7.156
 4884SOL    HW215111   3.037   3.386   7.012
 4885SOL     OW15112   3.320   2.597   6.314
 4885SOL    HW115113   3.315   2.532   6.389
 4885SOL    HW215114   3.400   2.656   6.327
 4886SOL     OW15115   2.323   3.128   7.313
 4886SOL    HW115116   2.273   3.129   7.227
 4886SOL    HW215117   2.260   3.110   7.389
 4887SOL     OW15118   2.973   3.638   5.823
 4887SOL    HW115119   2.913   3.576   5.873
 4887SOL    HW215120   3.004   3.594   5.738
 4888SOL     OW15121   3.494   3.239   5.667
 4888SOL    HW115122   3.462   3.333   5.657
 4888SOL    HW215123   3.418   3.176   5.655
 4889SOL     OW15124   2.326   3.605   5.909
 4889SOL    HW115125   2.359   3.644   5.995
 4889SOL    HW215126   2.402   3.598   5.844
 4890SOL     OW15127   3.262   1.969   6.012
 4890SOL    HW115128   3.238   1.932   5.922
 4890SOL    HW215129   3.361   1.985   6.016
 4891SOL     OW15130   2.111   3.647   6.827
 4891SOL    HW115131   2.168   3.582   6.877
 4891SOL    HW215132   2.095   3.614   6.734
 4892SOL     OW15133   2.802   3.560   6.490
 4892SOL    HW115134   2.882   3.503   6.511
 4892SOL    HW215135   2.753   3.520   6.413
 4893SOL     OW15136   3.409   2.084   7.315
 4893SOL    HW115137   3.404   2.121   7.407
 4893SOL    HW215138   3.337   2.015   7.303
 4894SOL     OW15139   2.476   1.984   5.703
 4894SOL    HW115140   2.574   1.962   5.710
 4894SOL    HW215141   2.445   1.967   5.610
 4895SOL     OW15142   2.643   2.126   7.335
 4895SOL    HW115143   2.710   2.065   7.378
 4895SOL    HW215144   2.570   2.145   7.400
 4896SOL     OW15145   2.750   3.376   6.781
 4896SOL    HW115146   2.727   3.351   6.687
 4896SOL    HW215147   2.811   3.307   6.820
 4897SOL     OW15148   3.213   2.452   7.019
 4897SOL    HW115149   3.241   2.409   7.104
 4897SOL    HW215150   3.238   2.548   7.020
 4898SOL     OW15151   2.665   3.264   6.510
 4898SOL    HW115152   2.755   3.278   6.468
 4898SOL    HW215153   2.594   3.266   6.439
 4899SOL     OW15154   3.296   3.050   5.627
 4899SOL    HW115155   3.328   2.974   5.684
 4899SOL    HW215156   3.204   3.077   5.657
 4900SOL     OW15157   2.938   2.545   7.050
 4900SOL    HW115158   2.858   2.484   7.053
 4900SOL    HW215159   3.019   2.492   7.026
 4901SOL     OW15160   3.089   3.432   6.379
 4901SOL    HW115161   3.110   3.506   6.314
 4901SOL    HW215162   3.157   3.432   6.452
 4902SOL     OW15163   2.321   3.014   6.327
 4902SOL    HW115164   2.250   2.987   6.392
 4902SOL    HW215165   2.295   2.986   6.234
 4903SOL     OW15166   3.133   3.659   6.177
 4903SOL    HW115167   3.177   3.723   6.113
 4903SOL    HW215168   3.083   3.711   6.247
 4904SOL     OW15169   2.894   2.411   5.602
 4904SOL    HW115170   2.853   2.493   5.563
 4904SOL    HW215171   2.958   2.437   5.675
 4905SOL     OW15172   1.940   2.418   6.972
 4905SOL    HW115173   2.032   2.417   6.931
 4905SOL    HW215174   1.934   2.492   7.039
 4906SOL     OW15175   2.423   2.084   6.733
 4906SOL    HW115176   2.461   2.000   6.770
 4906SOL    HW215177   2.335   2.103   6.777
 4907SOL     OW15178   2.879   1.901   6.339
 4907SOL    HW115179   2.807   1.906   6.270
 4907SOL    HW215180   2.855   1.832   6.408
 4908SOL     OW15181   3.291   3.035   6.453
 4908SOL    HW115182   3.236   2.951   6.446
 4908SOL    HW215183   3.317   3.064   6.361
 4909SOL     OW15184   3.328   2.452   6.578
 4909SOL    HW115185   3.298   2.357   6.585
 4909SOL    HW215186   3.401   2.468   6.644
 4910SOL     OW15187   3.719   2.695   5.963
 4910SOL    HW115188   3.761   2.631   6.027
 4910SOL    HW215189   3.681   2.644   5.885
 4911SOL     OW15190   2.350   3.247   5.760
 4911SOL    HW115191   2.263   3.232   5.807
 4911SOL    HW215192   2.333   3.273   5.665
 4912SOL     OW15193   3.526   3.142   6.243
 4912SOL    HW115194   3.625   3.150   6.257
 4912SOL    HW215195   3.481   3.226   6.274
 4913SOL     OW15196   3.252   2.437   5.664
 4913SOL    HW115197   3.198   2.416   5.745
 4913SOL    HW215198   3.343   2.396   5.673
 4914SOL     OW15199   3.616   3.085   7.174
 4914SOL    HW115200   3.707   3.046   7.161
 4914SOL    HW215201   3.624   3.181   7.198
 4915SOL     OW15202   2.926   3.209   6.926
 4915SOL    HW115203   2.846   3.186   6.981
 4915SOL    HW215204   3.009   3.183   6.975
 4916SOL     OW15205   3.454   3.491   7.211
 4916SOL    HW115206   3.481   3.525   7.121
 4916SOL    HW215207   3.533   3.453   7.257
 4917SOL     OW15208   2.973   3.057   6.686
 4917SOL    HW115209   2.933   3.101   6.767
 4917SOL    HW215210   2.932   3.094   6.603
 4918SOL     OW15211   3.500   2.961   6.665
 4918SOL    HW115212   3.505   3.042   6.724
 4918SOL    HW215213   3.414   2.963   6.614
 4919SOL     OW15214   2.777   1.951   6.988
 4919SOL    HW115215   2.802   1.931   6.893
 4919SOL    HW215216   2.849   2.007   7.030
 4920SOL     OW15217   2.842   2.978   7.305
 4920SOL    HW115218   2.743   2.984   7.315
 4920SOL    HW215219   2.865   2.898   7.249
 4921SOL     OW15220   2.272   2.675   6.837
 4921SOL    HW115221   2.358   2.687   6.887
 4921SOL    HW215222   2.230   2.588   6.864
 4922SOL     OW15223   3.136   2.248   6.848
 4922SOL    HW115224   3.157   2.322   6.912
 4922SOL    HW215225   3.047   2.265   6.805
 4923SOL     OW15226   1.926   3.426   6.917
 4923SOL    HW115227   1.880   3.508   6.883
 4923SOL    HW215228   2.024   3.445   6.926
 4924SOL     OW15229   3.114   3.210   5.974
 4924SOL    HW115230   3.164   3.287   6.014
 4924SOL    HW215231   3.019   3.212   6.006
 4925SOL     OW15232   3.134   3.307   6.728
 4925SOL    HW115233   3.181   3.320   6.815
 4925SOL    HW215234   3.068   3.233   6.737
 4926SOL     OW15235   3.444   2.501   6.058
 4926SOL    HW115236   3.413   2.562   6.131
 4926SOL    HW215237   3.494   2.553   5.989
 4927SOL     OW15238   2.216   3.372   6.915
 4927SOL    HW115239   2.195   3.328   6.828
 4927SOL    HW215240   2.313   3.398   6.918
 4928SOL     OW15241   2.264   2.613   7.184
 4928SOL    HW115242   2.332   2.668   7.137
 4928SOL    HW215243   2.304   2.525   7.211
 4929SOL     OW15244   3.449   2.641   7.256
 4929SOL    HW115245   3.357   2.679   7.251
 4929SOL    HW215246   3.509   2.688   7.191
 4930SOL     OW15247   2.875   1.967   7.356
 4930SOL    HW115248   2.881   2.052   7.304
 4930SOL    HW215249   2.907   1.891   7.299
 4931SOL     OW15250   2.366   1.912   7.326
 4931SOL    HW115251   2.324   1.855   7.256
 4931SOL    HW215252   2.300   1.981   7.358
 4932SOL     OW15253   2.435   2.732   6.615
 4932SOL    HW115254   2.479   2.821   6.606
 4932SOL    HW215255   2.372   2.732   6.692
 4933SOL     OW15256   3.222   2.724   6.631
 4933SOL    HW115257   3.147   2.724   6.565
 4933SOL    HW215258   3.259   2.632   6.640
 4934SOL     OW15259   3.071   2.387   5.861
 4934SOL    HW115260   3.084   2.303   5.915
 4934SOL    HW215261   3.042   2.461   5.921
 4935SOL     OW15262   1.899   3.172   6.868
 4935SOL    HW115263   1.952   3.123   6.936
 4935SOL    HW215264   1.921   3.270   6.873
 4936SOL     OW15265   2.594   2.496   6.650
 4936SOL    HW115266   2.653   2.470   6.574
 4936SOL    HW215267   2.566   2.592   6.639
 4937SOL     OW15268   3.590   2.797   7.440
 4937SOL    HW115269   3.544   2.790   7.351
 4937SOL    HW215270   3.528   2.841   7.506
 4938SOL     OW15271   3.484   2.229   5.960
 4938SOL    HW115272   3.486   2.153   6.024
 4938SOL    HW215273   3.436   2.306   6.000
 4939SOL     OW15274   2.885   2.628   6.552
 4939SOL    HW115275   2.900   2.649   6.648
 4939SOL    HW215276   2.855   2.533   6.543
 4940SOL     OW15277   2.842   3.435   7.286
 4940SOL    HW115278   2.822   3.479   7.198
 4940SOL    HW215279   2.881   3.344   7.270
 4941SOL     OW15280   3.721   3.380   7.191
 4941SOL    HW115281   3.735   3.407   7.096
 4941SOL    HW215282   3.804   3.402   7.244
 4942SOL     OW15283   2.212   2.760   7.390
 4942SOL    HW115284   2.288   2.804   7.438
 4942SOL    HW215285   2.247   2.713   7.308
 4943SOL     OW15286   3.402   2.136   5.711
 4943SOL    HW115287   3.341   2.061   5.734
 4943SOL    HW215288   3.424   2.188   5.794
 4944SOL     OW15289   3.165   2.700   5.628
 4944SOL    HW115290   3.199   2.607   5.643
 4944SOL    HW215291   3.183   2.727   5.533
 4945SOL     OW15292   2.930   3.195   6.435
 4945SOL    HW115293   2.937   3.111   6.380
 4945SOL    HW215294   2.992   3.264   6.399
 4946SOL     OW15295   2.181   2.672   6.535
 4946SOL    HW115296   2.274   2.708   6.540
 4946SOL    HW215297   2.175   2.587   6.587
 4947SOL     OW15298   3.000   2.242   7.264
 4947SOL    HW115299   2.955   2.305   7.328
 4947SOL    HW215300   3.093   2.273   7.247
 4948SOL     OW15301   3.022   2.069   7.063
 4948SOL    HW115302   3.022   2.133   7.140
 4948SOL    HW215303   3.050   2.117   6.980
 4949SOL     OW15304   1.870   3.188   5.786
 4949SOL    HW115305   1.777   3.209   5.755
 4949SOL    HW215306   1.880   3.089   5.799
 4950SOL     OW15307   1.950   3.663   6.513
 4950SOL    HW115308   1.908   3.577   6.486
 4950SOL    HW215309   2.044   3.666   6.479
 4951SOL     OW15310   2.366   3.430   6.496
 4951SOL    HW115311   2.432   3.504   6.505
 4951SOL    HW215312   2.410   3.351   6.454
 4952SOL     OW15313   2.864   2.658   6.824
 4952SOL    HW115314   2.905   2.626   6.910
 4952SOL    HW215315   2.768   2.631   6.821
 4953SOL     OW15316   1.902   2.406   6.700
 4953SOL    HW115317   1.987   2.373   6.659
 4953SOL    HW215318   1.915   2.421   6.798
 4954SOL     OW15319   3.231   2.812   7.246
 4954SOL    HW115320   3.270   2.901   7.266
 4954SOL    HW215321   3.241   2.792   7.149
 4955SOL     OW15322   3.519   2.466   6.792
 4955SOL    HW115323   3.481   2.397   6.854
 4955SOL    HW215324   3.601   2.430   6.748
 4956SOL     OW15325   2.114   3.426   7.330
 4956SOL    HW115326   2.084   3.483   7.406
 4956SOL    HW215327   2.107   3.329   7.356
 4957SOL     OW15328   2.792   3.540   7.051
 4957SOL    HW115329   2.768   3.522   6.956
 4957SOL    HW215330   2.822   3.634   7.061
 4958SOL     OW15331   2.021   2.999   7.052
 4958SOL    HW115332   2.043   2.938   7.128
 4958SOL    HW215333   2.031   2.950   6.966
 4959SOL     OW15334   3.209   2.921   6.820
 4959SOL    HW115335   3.233   2.858   6.746
 4959SOL    HW215336   3.119   2.961   6.802
 4960SOL     OW15337   3.164   2.717   5.895
 4960SOL    HW115338   3.078   2.686   5.937
 4960SOL    HW215339   3.160   2.703   5.796
 4961SOL     OW15340   3.621   3.609   6.740
 4961SOL    HW115341   3.682   3.639   6.667
 4961SOL    HW215342   3.583   3.520   6.718
 4962SOL     OW15343   3.114   3.593   6.714
 4962SOL    HW115344   3.198   3.598   6.660
 4962SOL    HW215345   3.091   3.497   6.732
 4963SOL     OW15346   1.945   3.120   6.608
 4963SOL    HW115347   1.940   3.119   6.708
 4963SOL    HW215348   1.862   3.079   6.570
 4964SOL     OW15349   2.550   3.524   7.302
 4964SOL    HW115350   2.494   3.605   7.311
 4964SOL    HW215351   2.602   3.528   7.216
 4965SOL     OW15352   3.588   1.997   6.109
 4965SOL    HW115353   3.661   1.980   6.042
 4965SOL    HW215354   3.557   1.910   6.147
 4966SOL     OW15355   3.250   3.435   6.063
 4966SOL    HW115356   3.317   3.447   5.989
 4966SOL    HW215357   3.210   3.524   6.086
 4967SOL     OW15358   1.992   3.656   7.437
 4967SOL    HW115359   1.951   3.582   7.490
 4967SOL    HW215360   2.056   3.707   7.495
 4968SOL     OW15361   3.142   2.789   6.258
 4968SOL    HW115362   3.202   2.708   6.260
 4968SOL    HW215363   3.182   2.858   6.198
 4969SOL     OW15364   2.692   3.135   7.008
 4969SOL    HW115365   2.687   3.168   7.103
 4969SOL    HW215366   2.606   3.154   6.962
 4970SOL     OW15367   2.534   3.478   5.740
 4970SOL    HW115368   2.543   3.488   5.641
 4970SOL    HW215369   2.494   3.389   5.761
 4971SOL     OW15370   3.512   3.582   6.980
 4971SOL    HW115371   3.565   3.592   6.896
 4971SOL    HW215372   3.485   3.672   7.014
 4972SOL     OW15373   3.703   2.037   6.549
 4972SOL    HW115374   3.742   1.952   6.513
 4972SOL    HW215375   3.605   2.039   6.530
 4973SOL     OW15376   3.056   3.474   5.617
 4973SOL    HW115377   3.062   3.381   5.654
 4973SOL    HW215378   2.997   3.474   5.537
 4974SOL     OW15379   2.684   2.864   6.958
 4974SOL    HW115380   2.724   2.863   6.866
 4974SOL    HW215381   2.694   2.956   6.998
 4975SOL     OW15382   3.366   3.469   5.630
 4975SOL    HW115383   3.274   3.506   5.637
 4975SOL    HW215384   3.404   3.489   5.540
 4976SOL     OW15385   2.234   3.150   7.076
 4976SOL    HW115386   2.221   3.243   7.042
 4976SOL    HW215387   2.150   3.098   7.063
 4977SOL     OW15388   3.476   3.154   6.875
 4977SOL    HW115389   3.536   3.157   6.955
 4977SOL    HW215390   3.401   3.218   6.888
 4978SOL     OW15391   2.901   2.960   6.282
 4978SOL    HW115392   2.831   2.913   6.336
 4978SOL    HW215393   2.960   2.892   6.239
 4979SOL     OW15394   2.876   2.098   6.557
 4979SOL    HW115395   2.868   2.062   6.464
 4979SOL    HW215396   2.874   2.022   6.622
 4980SOL     OW15397   2.452   3.349   6.077
 4980SOL    HW115398   2.494   3.291   6.007
 4980SOL    HW215399   2.408   3.428   6.033
 4981SOL     OW15400   3.571   2.247   6.967
 4981SOL    HW115401   3.644   2.316   6.971
 4981SOL    HW215402   3.599   2.172   6.908
 4982SOL     OW15403   2.117   3.210   5.876
 4982SOL    HW115404   2.021   3.211   5.849
 4982SOL    HW215405   2.129   3.263   5.960
 4983SOL     OW15406   1.967   2.875   7.312
 4983SOL    HW115407   1.890   2.842   7.366
 4983SOL    HW215408   2.052   2.845   7.354
 4984SOL     OW15409   2.534   2.065   7.075
 4984SOL    HW115410   2.624   2.049   7.035
 4984SOL    HW215411   2.542   2.070   7.174
 4985SOL     OW15412   1.937   2.207   5.619
 4985SOL    HW115413   1.845   2.179   5.590
 4985SOL    HW215414   1.968   2.284   5.563
 4986SOL     OW15415   3.302   2.718   6.984
 4986SOL    HW115416   3.245   2.770   6.921
 4986SOL    HW215417   3.398   2.730   6.960
 4987SOL     OW15418   3.045   3.197   5.705
 4987SOL    HW115419   2.946   3.186   5.707
 4987SOL    HW215420   3.079   3.212   5.798
 4988SOL     OW15421   2.475   2.704   7.017
 4988SOL    HW115422   2.531   2.785   7.000
 4988SOL    HW215423   2.534   2.624   7.020
 4989SOL     OW15424   3.355   3.629   6.545
 4989SOL    HW115425   3.388   3.693   6.476
 4989SOL    HW215426   3.421   3.623   6.620
 4990SOL     OW15427   2.578   2.427   7.294
 4990SOL    HW115428   2.597   2.492   7.368
 4990SOL    HW215429   2.638   2.347   7.303
 4991SOL     OW15430   3.312   3.082   7.219
 4991SOL    HW115431   3.303   3.072   7.318
 4991SOL    HW215432   3.408   3.075   7.193
 4992SOL     OW15433   2.252   3.603   7.146
 4992SOL    HW115434   2.161   3.644   7.144
 4992SOL    HW215435   2.245   3.509   7.178
 4993SOL     OW15436   3.536   2.745   6.840
 4993SOL    HW115437   3.509   2.656   6.803
 4993SOL    HW215438   3.537   2.813   6.767
 4994SOL     OW15439   3.087   2.187   6.035
 4994SOL    HW115440   3.152   2.113   6.024
 4994SOL    HW215441   3.107   2.237   6.119
 4995SOL     OW15442   3.639   2.204   7.228
 4995SOL    HW115443   3.622   2.235   7.134
 4995SOL    HW215444   3.555   2.167   7.266
 4996SOL     OW15445   3.592   2.796   7.103
 4996SOL    HW115446   3.630   2.887   7.118
 4996SOL    HW215447   3.584   2.779   7.004
 4997SOL     OW15448   2.721   3.236   5.602
 4997SOL    HW115449   2.675   3.251   5.690
 4997SOL    HW215450   2.765   3.321   5.572
 4998SOL     OW15451   2.523   3.652   6.539
 4998SOL    HW115452   2.477   3.740   6.526
 4998SOL    HW215453   2.622   3.664   6.532
 4999SOL     OW15454   2.721   2.818   6.447
 4999SOL    HW115455   2.775   2.749   6.495
 4999SOL    HW215456   2.689   2.887   6.513
 5000SOL     OW15457   2.945   2.846   5.673
 5000SOL    HW115458   2.922   2.899   5.591
 5000SOL    HW215459   3.026   2.790   5.654
 5001SOL     OW15460   3.723   3.431   6.437
 5001SOL    HW115461   3.652   3.419   6.367
 5001SOL    HW215462   3.724   3.352   6.497
 5002SOL     OW15463   2.083   3.176   7.430
 5002SOL    HW115464   2.018   3.103   7.409
 5002SOL    HW215465   2.087   3.190   7.528
 5003SOL     OW15466   1.941   3.102   6.239
 5003SOL    HW115467   1.940   3.055   6.327
 5003SOL    HW215468   2.023   3.074   6.188
 5004SOL     OW15469   2.534   3.253   7.210
 5004SOL    HW115470   2.456   3.203   7.248
 5004SOL    HW215471   2.531   3.348   7.241
 5005SOL     OW15472   3.686   2.054   6.813
 5005SOL    HW115473   3.682   1.964   6.857
 5005SOL    HW215474   3.689   2.043   6.714
 5006SOL     OW15475   3.567   3.349   6.690
 5006SOL    HW115476   3.474   3.324   6.663
 5006SOL    HW215477   3.593   3.299   6.772
 5007SOL     OW15478   2.674   3.448   6.273
 5007SOL    HW115479   2.706   3.458   6.179
 5007SOL    HW215480   2.595   3.386   6.275
 5008SOL     OW15481   3.286   2.076   6.698
 5008SOL    HW115482   3.338   2.011   6.753
 5008SOL    HW215483   3.237   2.139   6.759
 5009SOL     OW15484   2.863   1.896   6.740
 5009SOL    HW115485   2.800   1.824   6.709
 5009SOL    HW215486   2.956   1.860   6.740
 5010SOL     OW15487   2.632   3.192   5.887
 5010SOL    HW115488   2.586   3.105   5.904
 5010SOL    HW215489   2.723   3.189   5.928
 5011SOL     OW15490   2.480   3.429   6.870
 5011SOL    HW115491   2.475   3.511   6.927
 5011SOL    HW215492   2.569   3.426   6.825
 5012SOL     OW15493   3.214   1.914   5.754
 5012SOL    HW115494   3.249   1.873   5.670
 5012SOL    HW215495   3.124   1.876   5.774
 5013SOL     OW15496   3.162   2.315   6.277
 5013SOL    HW115497   3.103   2.395   6.281
 5013SOL    HW215498   3.177   2.280   6.370
 5014SOL     OW15499   3.455   2.083   6.468
 5014SOL    HW115500   3.371   2.082   6.522
 5014SOL    HW215501   3.457   2.166   6.412
 5015SOL     OW15502   2.737   3.508   5.923
 5015SOL    HW115503   2.660   3.473   5.869
 5015SOL    HW215504   2.705   3.579   5.985
 5016SOL     OW15505   2.092   2.490   7.561
 5016SOL    HW115506   1.999   2.488   7.598
 5016SOL    HW215507   2.093   2.451   7.469
 5017SOL     OW15508   1.881   2.230   8.095
 5017SOL    HW115509   1.799   2.273   8.134
 5017SOL    HW215510   1.853   2.157   8.032
 5018SOL     OW15511   2.431   3.137   8.613
 5018SOL    HW115512   2.338   3.130   8.576
 5018SOL    HW215513   2.442   3.226   8.657
 5019SOL     OW15514   3.417   3.373   8.151
 5019SOL    HW115515   3.360   3.357   8.232
 5019SOL    HW215516   3.358   3.383   8.071
 5020SOL     OW15517   2.997   2.565   8.165
 5020SOL    HW115518   3.054   2.643   8.140
 5020SOL    HW215519   2.937   2.591   8.241
 5021SOL     OW15520   3.617   2.469   7.679
 5021SOL    HW115521   3.605   2.456   7.580
 5021SOL    HW215522   3.587   2.388   7.728
 5022SOL     OW15523   2.630   3.006   8.471
 5022SOL    HW115524   2.552   3.023   8.531
 5022SOL    HW215525   2.664   3.093   8.435
 5023SOL     OW15526   2.712   2.660   9.271
 5023SOL    HW115527   2.708   2.736   9.336
 5023SOL    HW215528   2.734   2.696   9.180
 5024SOL     OW15529   2.547   2.874   8.113
 5024SOL    HW115530   2.616   2.858   8.183
 5024SOL    HW215531   2.474   2.931   8.151
 5025SOL     OW15532   2.548   3.023   9.251
 5025SOL    HW115533   2.608   3.102   9.265
 5025SOL    HW215534   2.462   3.054   9.210
 5026SOL     OW15535   2.197   3.297   8.509
 5026SOL    HW115536   2.119   3.266   8.456
 5026SOL    HW215537   2.255   3.355   8.452
 5027SOL     OW15538   3.322   3.367   8.787
 5027SOL    HW115539   3.346   3.461   8.813
 5027SOL    HW215540   3.306   3.313   8.869
 5028SOL     OW15541   3.465   2.309   8.185
 5028SOL    HW115542   3.391   2.355   8.135
 5028SOL    HW215543   3.516   2.377   8.238
 5029SOL     OW15544   2.093   3.575   7.931
 5029SOL    HW115545   2.127   3.652   7.985
 5029SOL    HW215546   2.137   3.575   7.841
 5030SOL     OW15547   2.989   3.203   9.138
 5030SOL    HW115548   3.036   3.203   9.226
 5030SOL    HW215549   2.941   3.116   9.127
 5031SOL     OW15550   2.092   3.296   7.986
 5031SOL    HW115551   2.066   3.392   7.986
 5031SOL    HW215552   2.021   3.242   8.031
 5032SOL     OW15553   2.102   2.953   8.334
 5032SOL    HW115554   2.116   2.869   8.386
 5032SOL    HW215555   2.047   3.017   8.389
 5033SOL     OW15556   2.482   3.648   8.887
 5033SOL    HW115557   2.390   3.631   8.922
 5033SOL    HW215558   2.510   3.740   8.913
 5034SOL     OW15559   2.468   2.826   7.571
 5034SOL    HW115560   2.475   2.910   7.517
 5034SOL    HW215561   2.514   2.839   7.659
 5035SOL     OW15562   3.456   1.976   8.928
 5035SOL    HW115563   3.438   2.043   8.856
 5035SOL    HW215564   3.453   2.022   9.017
 5036SOL     OW15565   1.984   2.505   8.011
 5036SOL    HW115566   1.939   2.417   8.028
 5036SOL    HW215567   1.983   2.559   8.095
 5037SOL     OW15568   3.704   3.629   7.807
 5037SOL    HW115569   3.758   3.600   7.887
 5037SOL    HW215570   3.734   3.719   7.778
 5038SOL     OW15571   1.889   3.458   7.565
 5038SOL    HW115572   1.870   3.362   7.586
 5038SOL    HW215573   1.856   3.516   7.640
 5039SOL     OW15574   3.551   2.784   8.060
 5039SOL    HW115575   3.646   2.755   8.068
 5039SOL    HW215576   3.543   2.849   7.985
 5040SOL     OW15577   3.503   2.970   7.880
 5040SOL    HW115578   3.589   2.972   7.828
 5040SOL    HW215579   3.517   3.017   7.968
 5041SOL     OW15580   1.975   2.599   9.045
 5041SOL    HW115581   2.063   2.586   9.090
 5041SOL    HW215582   1.962   2.696   9.023
 5042SOL     OW15583   2.475   3.227   8.174
 5042SOL    HW115584   2.426   3.140   8.183
 5042SOL    HW215585   2.452   3.270   8.087
 5043SOL     OW15586   3.155   3.090   8.871
 5043SOL    HW115587   3.192   3.017   8.813
 5043SOL    HW215588   3.207   3.095   8.956
 5044SOL     OW15589   2.671   1.866   7.950
 5044SOL    HW115590   2.711   1.957   7.941
 5044SOL    HW215591   2.571   1.874   7.956
 5045SOL     OW15592   2.059   2.838   8.712
 5045SOL    HW115593   2.148   2.793   8.698
 5045SOL    HW215594   1.986   2.773   8.693
 5046SOL     OW15595   3.387   2.861   7.638
 5046SOL    HW115596   3.324   2.785   7.651
 5046SOL    HW215597   3.435   2.879   7.724
 5047SOL     OW15598   3.049   3.654   9.064
 5047SOL    HW115599   3.073   3.714   8.988
 5047SOL    HW215600   3.056   3.559   9.034
 5048SOL     OW15601   3.328   3.279   8.401
 5048SOL    HW115602   3.269   3.285   8.481
 5048SOL    HW215603   3.313   3.191   8.355
 5049SOL     OW15604   3.529   3.576   8.020
 5049SOL    HW115605   3.488   3.553   7.932
 5049SOL    HW215606   3.511   3.502   8.085
 5050SOL     OW15607   2.460   2.591   7.718
 5050SOL    HW115608   2.484   2.660   7.650
 5050SOL    HW215609   2.382   2.624   7.772
 5051SOL     OW15610   3.143   2.207   8.392
 5051SOL    HW115611   3.057   2.157   8.379
 5051SOL    HW215612   3.205   2.153   8.448
 5052SOL     OW15613   3.438   3.524   7.755
 5052SOL    HW115614   3.527   3.570   7.758
 5052SOL    HW215615   3.417   3.500   7.660
 5053SOL     OW15616   2.669   2.467   8.913
 5053SOL    HW115617   2.622   2.464   9.002
 5053SOL    HW215618   2.618   2.412   8.847
 5054SOL     OW15619   3.256   2.331   9.122
 5054SOL    HW115620   3.236   2.374   9.210
 5054SOL    HW215621   3.334   2.269   9.131
 5055SOL     OW15622   2.835   2.752   9.020
 5055SOL    HW115623   2.881   2.668   8.991
 5055SOL    HW215624   2.779   2.786   8.945
 5056SOL     OW15625   2.853   2.272   8.690
 5056SOL    HW115626   2.776   2.306   8.744
 5056SOL    HW215627   2.819   2.221   8.611
 5057SOL     OW15628   2.903   2.563   7.877
 5057SOL    HW115629   2.929   2.559   7.973
 5057SOL    HW215630   2.818   2.512   7.863
 5058SOL     OW15631   1.938   2.673   8.237
 5058SOL    HW115632   2.037   2.661   8.246
 5058SOL    HW215633   1.914   2.768   8.258
 5059SOL     OW15634   1.992   3.683   9.019
 5059SOL    HW115635   1.982   3.668   9.118
 5059SOL    HW215636   1.906   3.719   8.983
 5060SOL     OW15637   2.727   2.210   7.643
 5060SOL    HW115638   2.786   2.273   7.594
 5060SOL    HW215639   2.746   2.116   7.614
 5061SOL     OW15640   3.581   2.447   9.279
 5061SOL    HW115641   3.555   2.536   9.243
 5061SOL    HW215642   3.579   2.379   9.206
 5062SOL     OW15643   3.224   3.006   7.993
 5062SOL    HW115644   3.307   2.977   7.945
 5062SOL    HW215645   3.175   3.073   7.937
 5063SOL     OW15646   2.870   3.318   7.925
 5063SOL    HW115647   2.824   3.390   7.873
 5063SOL    HW215648   2.866   3.338   8.023
 5064SOL     OW15649   2.213   3.663   8.301
 5064SOL    HW115650   2.263   3.577   8.307
 5064SOL    HW215651   2.278   3.740   8.298
 5065SOL     OW15652   3.657   2.928   8.321
 5065SOL    HW115653   3.595   2.913   8.245
 5065SOL    HW215654   3.605   2.939   8.406
 5066SOL     OW15655   3.089   3.412   8.954
 5066SOL    HW115656   3.095   3.335   9.018
 5066SOL    HW215657   3.037   3.386   8.874
 5067SOL     OW15658   2.183   2.805   7.690
 5067SOL    HW115659   2.265   2.844   7.648
 5067SOL    HW215660   2.156   2.723   7.641
 5068SOL     OW15661   3.320   2.597   8.176
 5068SOL    HW115662   3.315   2.532   8.251
 5068SOL    HW215663   3.400   2.656   8.189
 5069SOL     OW15664   2.323   3.128   9.175
 5069SOL    HW115665   2.273   3.129   9.089
 5069SOL    HW215666   2.260   3.110   9.251
 5070SOL     OW15667   2.973   3.638   7.685
 5070SOL    HW115668   2.913   3.576   7.735
 5070SOL    HW215669   3.004   3.594   7.600
 5071SOL     OW15670   2.064   2.147   8.946
 5071SOL    HW115671   1.984   2.207   8.933
 5071SOL    HW215672   2.054   2.098   9.032
 5072SOL     OW15673   3.494   3.239   7.529
 5072SOL    HW115674   3.462   3.333   7.519
 5072SOL    HW215675   3.418   3.176   7.517
 5073SOL     OW15676   2.326   3.605   7.771
 5073SOL    HW115677   2.359   3.644   7.857
 5073SOL    HW215678   2.402   3.598   7.706
 5074SOL     OW15679   3.262   1.969   7.874
 5074SOL    HW115680   3.238   1.932   7.784
 5074SOL    HW215681   3.361   1.985   7.878
 5075SOL     OW15682   2.111   3.647   8.689
 5075SOL    HW115683   2.168   3.582   8.739
 5075SOL    HW215684   2.095   3.614   8.596
 5076SOL     OW15685   2.802   3.560   8.352
 5076SOL    HW115686   2.882   3.503   8.373
 5076SOL    HW215687   2.753   3.520   8.275
 5077SOL     OW15688   3.409   2.084   9.177
 5077SOL    HW115689   3.404   2.121   9.269
 5077SOL    HW215690   3.337   2.015   9.165
 5078SOL     OW15691   2.476   1.984   7.565
 5078SOL    HW115692   2.574   1.962   7.572
 5078SOL    HW215693   2.445   1.967   7.472
 5079SOL     OW15694   2.643   2.126   9.197
 5079SOL    HW115695   2.710   2.065   9.240
 5079SOL    HW215696   2.570   2.145   9.262
 5080SOL     OW15697   2.750   3.376   8.643
 5080SOL    HW115698   2.727   3.351   8.549
 5080SOL    HW215699   2.811   3.307   8.682
 5081SOL     OW15700   3.213   2.452   8.881
 5081SOL    HW115701   3.241   2.409   8.966
 5081SOL    HW215702   3.238   2.548   8.882
 5082SOL     OW15703   2.665   3.264   8.372
 5082SOL    HW115704   2.755   3.278   8.330
 5082SOL    HW215705   2.594   3.266   8.301
 5083SOL     OW15706   2.784   2.365   8.347
 5083SOL    HW115707   2.759   2.356   8.251
 5083SOL    HW215708   2.832   2.283   8.378
 5084SOL     OW15709   2.401   1.926   7.960
 5084SOL    HW115710   2.320   1.927   8.018
 5084SOL    HW215711   2.404   2.009   7.905
 5085SOL     OW15712   3.296   3.050   7.489
 5085SOL    HW115713   3.328   2.974   7.546
 5085SOL    HW215714   3.204   3.077   7.519
 5086SOL     OW15715   2.159   1.897   7.619
 5086SOL    HW115716   2.208   1.981   7.598
 5086SOL    HW215717   2.221   1.832   7.664
 5087SOL     OW15718   2.797   2.098   7.928
 5087SOL    HW115719   2.749   2.139   7.850
 5087SOL    HW215720   2.896   2.096   7.909
 5088SOL     OW15721   2.938   2.545   8.912
 5088SOL    HW115722   2.858   2.484   8.915
 5088SOL    HW215723   3.019   2.492   8.888
 5089SOL     OW15724   3.089   3.432   8.241
 5089SOL    HW115725   3.110   3.506   8.176
 5089SOL    HW215726   3.157   3.432   8.314
 5090SOL     OW15727   2.321   3.014   8.189
 5090SOL    HW115728   2.250   2.987   8.254
 5090SOL    HW215729   2.295   2.986   8.096
 5091SOL     OW15730   3.133   3.659   8.039
 5091SOL    HW115731   3.177   3.723   7.975
 5091SOL    HW215732   3.083   3.711   8.109
 5092SOL     OW15733   2.894   2.411   7.464
 5092SOL    HW115734   2.853   2.493   7.425
 5092SOL    HW215735   2.958   2.437   7.537
 5093SOL     OW15736   1.940   2.418   8.834
 5093SOL    HW115737   2.032   2.417   8.793
 5093SOL    HW215738   1.934   2.492   8.901
 5094SOL     OW15739   2.728   2.316   8.090
 5094SOL    HW115740   2.696   2.388   8.028
 5094SOL    HW215741   2.752   2.235   8.037
 5095SOL     OW15742   2.879   1.901   8.201
 5095SOL    HW115743   2.807   1.906   8.132
 5095SOL    HW215744   2.855   1.832   8.270
 5096SOL     OW15745   3.291   3.035   8.315
 5096SOL    HW115746   3.236   2.951   8.308
 5096SOL    HW215747   3.317   3.064   8.223
 5097SOL     OW15748   3.328   2.452   8.440
 5097SOL    HW115749   3.298   2.357   8.447
 5097SOL    HW215750   3.401   2.468   8.506
 5098SOL     OW15751   3.719   2.695   7.825
 5098SOL    HW115752   3.761   2.631   7.889
 5098SOL    HW215753   3.681   2.644   7.747
 5099SOL     OW15754   2.350   3.247   7.622
 5099SOL    HW115755   2.263   3.232   7.669
 5099SOL    HW215756   2.333   3.273   7.527
 5100SOL     OW15757   3.526   3.142   8.105
 5100SOL    HW115758   3.625   3.150   8.119
 5100SOL    HW215759   3.481   3.226   8.136
 5101SOL     OW15760   3.252   2.437   7.526
 5101SOL    HW115761   3.198   2.416   7.607
 5101SOL    HW215762   3.343   2.396   7.535
 5102SOL     OW15763   3.616   3.085   9.036
 5102SOL    HW115764   3.707   3.046   9.023
 5102SOL    HW215765   3.624   3.181   9.060
 5103SOL     OW15766   2.926   3.209   8.788
 5103SOL    HW115767   2.846   3.186   8.843
 5103SOL    HW215768   3.009   3.183   8.837
 5104SOL     OW15769   3.454   3.491   9.073
 5104SOL    HW115770   3.481   3.525   8.983
 5104SOL    HW215771   3.533   3.453   9.119
 5105SOL     OW15772   2.973   3.057   8.548
 5105SOL    HW115773   2.933   3.101   8.629
 5105SOL    HW215774   2.932   3.094   8.465
 5106SOL     OW15775   3.500   2.961   8.527
 5106SOL    HW115776   3.505   3.042   8.586
 5106SOL    HW215777   3.414   2.963   8.476
 5107SOL     OW15778   2.777   1.951   8.850
 5107SOL    HW115779   2.802   1.931   8.755
 5107SOL    HW215780   2.849   2.007   8.892
 5108SOL     OW15781   2.842   2.978   9.167
 5108SOL    HW115782   2.743   2.984   9.177
 5108SOL    HW215783   2.865   2.898   9.111
 5109SOL     OW15784   2.567   2.912   7.816
 5109SOL    HW115785   2.553   2.919   7.915
 5109SOL    HW215786   2.651   2.861   7.798
 5110SOL     OW15787   2.272   2.675   8.699
 5110SOL    HW115788   2.358   2.687   8.749
 5110SOL    HW215789   2.230   2.588   8.726
 5111SOL     OW15790   3.136   2.248   8.710
 5111SOL    HW115791   3.157   2.322   8.774
 5111SOL    HW215792   3.047   2.265   8.667
 5112SOL     OW15793   1.926   3.426   8.779
 5112SOL    HW115794   1.880   3.508   8.745
 5112SOL    HW215795   2.024   3.445   8.788
 5113SOL     OW15796   2.229   2.962   7.949
 5113SOL    HW115797   2.222   3.045   7.893
 5113SOL    HW215798   2.233   2.882   7.889
 5114SOL     OW15799   3.114   3.210   7.836
 5114SOL    HW115800   3.164   3.287   7.876
 5114SOL    HW215801   3.019   3.212   7.868
 5115SOL     OW15802   3.134   3.307   8.590
 5115SOL    HW115803   3.181   3.320   8.677
 5115SOL    HW215804   3.068   3.233   8.599
 5116SOL     OW15805   3.444   2.501   7.920
 5116SOL    HW115806   3.413   2.562   7.993
 5116SOL    HW215807   3.494   2.553   7.851
 5117SOL     OW15808   2.216   3.372   8.777
 5117SOL    HW115809   2.195   3.328   8.690
 5117SOL    HW215810   2.313   3.398   8.780
 5118SOL     OW15811   2.264   2.613   9.046
 5118SOL    HW115812   2.332   2.668   8.999
 5118SOL    HW215813   2.304   2.525   9.073
 5119SOL     OW15814   3.449   2.641   9.118
 5119SOL    HW115815   3.357   2.679   9.113
 5119SOL    HW215816   3.509   2.688   9.053
 5120SOL     OW15817   2.875   1.967   9.218
 5120SOL    HW115818   2.881   2.052   9.166
 5120SOL    HW215819   2.907   1.891   9.161
 5121SOL     OW15820   2.366   1.912   9.188
 5121SOL    HW115821   2.324   1.855   9.118
 5121SOL    HW215822   2.300   1.981   9.220
 5122SOL     OW15823   2.435   2.732   8.477
 5122SOL    HW115824   2.479   2.821   8.468
 5122SOL    HW215825   2.372   2.732   8.554
 5123SOL     OW15826   3.222   2.724   8.493
 5123SOL    HW115827   3.147   2.724   8.427
 5123SOL    HW215828   3.259   2.632   8.502
 5124SOL     OW15829   3.071   2.387   7.723
 5124SOL    HW115830   3.084   2.303   7.777
 5124SOL    HW215831   3.042   2.461   7.783
 5125SOL     OW15832   1.899   3.172   8.730
 5125SOL    HW115833   1.952   3.123   8.798
 5125SOL    HW215834   1.921   3.270   8.735
 5126SOL     OW15835   2.594   2.496   8.512
 5126SOL    HW115836   2.653   2.470   8.436
 5126SOL    HW215837   2.566   2.592   8.501
 5127SOL     OW15838   3.590   2.797   9.302
 5127SOL    HW115839   3.544   2.790   9.213
 5127SOL    HW215840   3.528   2.841   9.368
 5128SOL     OW15841   2.169   1.925   8.066
 5128SOL    HW115842   2.158   2.019   8.099
 5128SOL    HW215843   2.164   1.862   8.143
 5129SOL     OW15844   3.484   2.229   7.822
 5129SOL    HW115845   3.486   2.153   7.886
 5129SOL    HW215846   3.436   2.306   7.862
 5130SOL     OW15847   2.885   2.628   8.414
 5130SOL    HW115848   2.900   2.649   8.510
 5130SOL    HW215849   2.855   2.533   8.405
 5131SOL     OW15850   2.842   3.435   9.148
 5131SOL    HW115851   2.822   3.479   9.060
 5131SOL    HW215852   2.881   3.344   9.132
 5132SOL     OW15853   3.721   3.380   9.053
 5132SOL    HW115854   3.735   3.407   8.958
 5132SOL    HW215855   3.804   3.402   9.106
 5133SOL     OW15856   2.212   2.760   9.252
 5133SOL    HW115857   2.288   2.804   9.300
 5133SOL    HW215858   2.247   2.713   9.170
 5134SOL     OW15859   3.402   2.136   7.573
 5134SOL    HW115860   3.341   2.061   7.596
 5134SOL    HW215861   3.424   2.188   7.656
 5135SOL     OW15862   3.165   2.700   7.490
 5135SOL    HW115863   3.199   2.607   7.505
 5135SOL    HW215864   3.183   2.727   7.395
 5136SOL     OW15865   2.930   3.195   8.297
 5136SOL    HW115866   2.937   3.111   8.242
 5136SOL    HW215867   2.992   3.264   8.261
 5137SOL     OW15868   2.181   2.672   8.397
 5137SOL    HW115869   2.274   2.708   8.402
 5137SOL    HW215870   2.175   2.587   8.449
 5138SOL     OW15871   3.000   2.242   9.126
 5138SOL    HW115872   2.955   2.305   9.190
 5138SOL    HW215873   3.093   2.273   9.109
 5139SOL     OW15874   3.022   2.069   8.925
 5139SOL    HW115875   3.022   2.133   9.002
 5139SOL    HW215876   3.050   2.117   8.842
 5140SOL     OW15877   1.870   3.188   7.648
 5140SOL    HW115878   1.777   3.209   7.617
 5140SOL    HW215879   1.880   3.089   7.661
 5141SOL     OW15880   1.950   3.663   8.375
 5141SOL    HW115881   1.908   3.577   8.348
 5141SOL    HW215882   2.044   3.666   8.341
 5142SOL     OW15883   2.366   3.430   8.358
 5142SOL    HW115884   2.432   3.504   8.367
 5142SOL    HW215885   2.410   3.351   8.316
 5143SOL     OW15886   2.864   2.658   8.686
 5143SOL    HW115887   2.905   2.626   8.772
 5143SOL    HW215888   2.768   2.631   8.683
 5144SOL     OW15889   1.902   2.406   8.562
 5144SOL    HW115890   1.987   2.373   8.521
 5144SOL    HW215891   1.915   2.421   8.660
 5145SOL     OW15892   3.231   2.812   9.108
 5145SOL    HW115893   3.270   2.901   9.128
 5145SOL    HW215894   3.241   2.792   9.011
 5146SOL     OW15895   2.677   2.434   7.773
 5146SOL    HW115896   2.684   2.345   7.727
 5146SOL    HW215897   2.583   2.468   7.765
 5147SOL     OW15898   3.519   2.466   8.654
 5147SOL    HW115899   3.481   2.397   8.716
 5147SOL    HW215900   3.601   2.430   8.610
 5148SOL     OW15901   2.114   3.426   9.192
 5148SOL    HW115902   2.084   3.483   9.268
 5148SOL    HW215903   2.107   3.329   9.218
 5149SOL     OW15904   2.792   3.540   8.913
 5149SOL    HW115905   2.768   3.522   8.818
 5149SOL    HW215906   2.822   3.634   8.923
 5150SOL     OW15907   2.021   2.999   8.914
 5150SOL    HW115908   2.043   2.938   8.990
 5150SOL    HW215909   2.031   2.950   8.828
 5151SOL     OW15910   3.209   2.921   8.682
 5151SOL    HW115911   3.233   2.858   8.608
 5151SOL    HW215912   3.119   2.961   8.664
 5152SOL     OW15913   3.164   2.717   7.757
 5152SOL    HW115914   3.078   2.686   7.799
 5152SOL    HW215915   3.160   2.703   7.658
 5153SOL     OW15916   3.621   3.609   8.602
 5153SOL    HW115917   3.682   3.639   8.529
 5153SOL    HW215918   3.583   3.520   8.580
 5154SOL     OW15919   3.114   3.593   8.576
 5154SOL    HW115920   3.198   3.598   8.522
 5154SOL    HW215921   3.091   3.497   8.594
 5155SOL     OW15922   1.945   3.120   8.470
 5155SOL    HW115923   1.940   3.119   8.570
 5155SOL    HW215924   1.862   3.079   8.432
 5156SOL     OW15925   2.550   3.524   9.164
 5156SOL    HW115926   2.494   3.605   9.173
 5156SOL    HW215927   2.602   3.528   9.078
 5157SOL     OW15928   3.588   1.997   7.971
 5157SOL    HW115929   3.661   1.980   7.904
 5157SOL    HW215930   3.557   1.910   8.009
 5158SOL     OW15931   3.250   3.435   7.925
 5158SOL    HW115932   3.317   3.447   7.851
 5158SOL    HW215933   3.210   3.524   7.948
 5159SOL     OW15934   1.992   3.656   9.299
 5159SOL    HW115935   1.951   3.582   9.352
 5159SOL    HW215936   2.056   3.707   9.357
 5160SOL     OW15937   3.142   2.789   8.120
 5160SOL    HW115938   3.202   2.708   8.122
 5160SOL    HW215939   3.182   2.858   8.060
 5161SOL     OW15940   2.692   3.135   8.870
 5161SOL    HW115941   2.687   3.168   8.965
 5161SOL    HW215942   2.606   3.154   8.824
 5162SOL     OW15943   2.534   3.478   7.602
 5162SOL    HW115944   2.543   3.488   7.503
 5162SOL    HW215945   2.494   3.389   7.623
 5163SOL     OW15946   3.512   3.582   8.842
 5163SOL    HW115947   3.565   3.592   8.758
 5163SOL    HW215948   3.485   3.672   8.876
 5164SOL     OW15949   3.703   2.037   8.411
 5164SOL    HW115950   3.742   1.952   8.375
 5164SOL    HW215951   3.605   2.039   8.392
 5165SOL     OW15952   3.056   3.474   7.479
 5165SOL    HW115953   3.062   3.381   7.516
 5165SOL    HW215954   2.997   3.474   7.399
 5166SOL     OW15955   2.684   2.864   8.820
 5166SOL    HW115956   2.724   2.863   8.728
 5166SOL    HW215957   2.694   2.956   8.860
 5167SOL     OW15958   2.778   2.772   7.739
 5167SOL    HW115959   2.841   2.810   7.671
 5167SOL    HW215960   2.818   2.689   7.778
 5168SOL     OW15961   3.366   3.469   7.492
 5168SOL    HW115962   3.274   3.506   7.499
 5168SOL    HW215963   3.404   3.489   7.402
 5169SOL     OW15964   2.234   3.150   8.938
 5169SOL    HW115965   2.221   3.243   8.904
 5169SOL    HW215966   2.150   3.098   8.925
 5170SOL     OW15967   3.476   3.154   8.737
 5170SOL    HW115968   3.536   3.157   8.817
 5170SOL    HW215969   3.401   3.218   8.750
 5171SOL     OW15970   2.901   2.960   8.144
 5171SOL    HW115971   2.831   2.913   8.198
 5171SOL    HW215972   2.960   2.892   8.101
 5172SOL     OW15973   2.876   2.098   8.419
 5172SOL    HW115974   2.868   2.062   8.326
 5172SOL    HW215975   2.874   2.022   8.484
 5173SOL     OW15976   2.452   3.349   7.939
 5173SOL    HW115977   2.494   3.291   7.869
 5173SOL    HW215978   2.408   3.428   7.895
 5174SOL     OW15979   3.571   2.247   8.829
 5174SOL    HW115980   3.644   2.316   8.833
 5174SOL    HW215981   3.599   2.172   8.770
 5175SOL     OW15982   2.117   3.210   7.738
 5175SOL    HW115983   2.021   3.211   7.711
 5175SOL    HW215984   2.129   3.263   7.822
 5176SOL     OW15985   1.967   2.875   9.174
 5176SOL    HW115986   1.890   2.842   9.228
 5176SOL    HW215987   2.052   2.845   9.216
 5177SOL     OW15988   2.534   2.065   8.937
 5177SOL    HW115989   2.624   2.049   8.897
 5177SOL    HW215990   2.542   2.070   9.036
 5178SOL     OW15991   1.937   2.207   7.481
 5178SOL    HW115992   1.845   2.179   7.452
 5178SOL    HW215993   1.968   2.284   7.425
 5179SOL     OW15994   3.302   2.718   8.846
 5179SOL    HW115995   3.245   2.770   8.783
 5179SOL    HW215996   3.398   2.730   8.822
 5180SOL     OW15997   1.934   2.028   7.766
 5180SOL    HW115998   1.917   2.111   7.712
 5180SOL    HW215999   2.024   1.991   7.744
 5181SOL     OW16000   3.045   3.197   7.567
 5181SOL    HW116001   2.946   3.186   7.569
 5181SOL    HW216002   3.079   3.212   7.660
 5182SOL     OW16003   2.475   2.704   8.879
 5182SOL    HW116004   2.531   2.785   8.862
 5182SOL    HW216005   2.534   2.624   8.882
 5183SOL     OW16006   3.355   3.629   8.407
 5183SOL    HW116007   3.388   3.693   8.338
 5183SOL    HW216008   3.421   3.623   8.482
 5184SOL     OW16009   2.578   2.427   9.156
 5184SOL    HW116010   2.597   2.492   9.230
 5184SOL    HW216011   2.638   2.347   9.165
 5185SOL     OW16012   3.312   3.082   9.081
 5185SOL    HW116013   3.303   3.072   9.180
 5185SOL    HW216014   3.408   3.075   9.055
 5186SOL     OW16015   2.252   3.603   9.008
 5186SOL    HW116016   2.161   3.644   9.006
 5186SOL    HW216017   2.245   3.509   9.040
 5187SOL     OW16018   3.536   2.745   8.702
 5187SOL    HW116019   3.509   2.656   8.665
 5187SOL    HW216020   3.537   2.813   8.629
 5188SOL     OW16021   3.087   2.187   7.897
 5188SOL    HW116022   3.152   2.113   7.886
 5188SOL    HW216023   3.107   2.237   7.981
 5189SOL     OW16024   2.456   2.607   8.100
 5189SOL    HW116025   2.506   2.692   8.081
 5189SOL    HW216026   2.368   2.609   8.052
 5190SOL     OW16027   3.639   2.204   9.090
 5190SOL    HW116028   3.622   2.235   8.996
 5190SOL    HW216029   3.555   2.167   9.128
 5191SOL     OW16030   3.592   2.796   8.965
 5191SOL    HW116031   3.630   2.887   8.980
 5191SOL    HW216032   3.584   2.779   8.866
 5192SOL     OW16033   2.721   3.236   7.464
 5192SOL    HW116034   2.675   3.251   7.552
 5192SOL    HW216035   2.765   3.321   7.434
 5193SOL     OW16036   2.523   3.652   8.401
 5193SOL    HW116037   2.477   3.740   8.388
 5193SOL    HW216038   2.622   3.664   8.394
 5194SOL     OW16039   2.721   2.818   8.309
 5194SOL    HW116040   2.775   2.749   8.357
 5194SOL    HW216041   2.689   2.887   8.375
 5195SOL     OW16042   2.945   2.846   7.535
 5195SOL    HW116043   2.922   2.899   7.453
 5195SOL    HW216044   3.026   2.790   7.516
 5196SOL     OW16045   3.723   3.431   8.299
 5196SOL    HW116046   3.652   3.419   8.229
 5196SOL    HW216047   3.724   3.352   8.359
 5197SOL     OW16048   2.083   3.176   9.292
 5197SOL    HW116049   2.018   3.103   9.271
 5197SOL    HW216050   2.087   3.190   9.390
 5198SOL     OW16051   1.941   3.102   8.101
 5198SOL    HW116052   1.940   3.055   8.189
 5198SOL    HW216053   2.023   3.074   8.050
 5199SOL     OW16054   2.534   3.253   9.072
 5199SOL    HW116055   2.456   3.203   9.110
 5199SOL    HW216056   2.531   3.348   9.103
 5200SOL     OW16057   3.686   2.054   8.675
 5200SOL    HW116058   3.682   1.964   8.719
 5200SOL    HW216059   3.689   2.043   8.576
 5201SOL     OW16060   3.567   3.349   8.552
 5201SOL    HW116061   3.474   3.324   8.525
 5201SOL    HW216062   3.593   3.299   8.634
 5202SOL     OW16063   2.674   3.448   8.135
 5202SOL    HW116064   2.706   3.458   8.041
 5202SOL    HW216065   2.595   3.386   8.137
 5203SOL     OW16066   3.286   2.076   8.560
 5203SOL    HW116067   3.338   2.011   8.615
 5203SOL    HW216068   3.237   2.139   8.621
 5204SOL     OW16069   2.863   1.896   8.602
 5204SOL    HW116070   2.800   1.824   8.571
 5204SOL    HW216071   2.956   1.860   8.602
 5205SOL     OW16072   2.632   3.192   7.749
 5205SOL    HW116073   2.586   3.105   7.766
 5205SOL    HW216074   2.723   3.189   7.790
 5206SOL     OW16075   2.480   3.429   8.732
 5206SOL    HW116076   2.475   3.511   8.789
 5206SOL    HW216077   2.569   3.426   8.687
 5207SOL     OW16078   3.214   1.914   7.616
 5207SOL    HW116079   3.249   1.873   7.532
 5207SOL    HW216080   3.124   1.876   7.636
 5208SOL     OW16081   3.162   2.315   8.139
 5208SOL    HW116082   3.103   2.395   8.143
 5208SOL    HW216083   3.177   2.280   8.232
 5209SOL     OW16084   3.455   2.083   8.330
 5209SOL    HW116085   3.371   2.082   8.384
 5209SOL    HW216086   3.457   2.166   8.274
 5210SOL     OW16087   1.901   2.939   7.748
 5210SOL    HW116088   2.000   2.928   7.739
 5210SOL    HW216089   1.861   2.853   7.780
 5211SOL     OW16090   2.737   3.508   7.785
 5211SOL    HW116091   2.660   3.473   7.731
 5211SOL    HW216092   2.705   3.579   7.847
 5212SOL     OW16093   2.092   2.490   9.423
 5212SOL    HW116094   1.999   2.488   9.460
 5212SOL    HW216095   2.093   2.451   9.331
 5213SOL     OW16096   1.881   2.230   9.957
 5213SOL    HW116097   1.799   2.273   9.996
 5213SOL    HW216098   1.853   2.157   9.894
 5214SOL     OW16099   2.431   3.137  10.475
 5214SOL    HW116100   2.338   3.130  10.438
 5214SOL    HW216101   2.442   3.226  10.519
 5215SOL     OW16102   3.417   3.373  10.013
 5215SOL    HW116103   3.360   3.357  10.094
 5215SOL    HW216104   3.358   3.383   9.933
 5216SOL     OW16105   2.997   2.565  10.027
 5216SOL    HW116106   3.054   2.643  10.002
 5216SOL    HW216107   2.937   2.591  10.103
 5217SOL     OW16108   3.617   2.469   9.541
 5217SOL    HW116109   3.605   2.456   9.442
 5217SOL    HW216110   3.587   2.388   9.590
 5218SOL     OW16111   2.630   3.006  10.333
 5218SOL    HW116112   2.552   3.023  10.393
 5218SOL    HW216113   2.664   3.093  10.297
 5219SOL     OW16114   2.712   2.660  11.133
 5219SOL    HW116115   2.708   2.736  11.198
 5219SOL    HW216116   2.734   2.696  11.042
 5220SOL     OW16117   2.547   2.874   9.975
 5220SOL    HW116118   2.616   2.858  10.045
 5220SOL    HW216119   2.474   2.931  10.013
 5221SOL     OW16120   2.197   3.297  10.371
 5221SOL    HW116121   2.119   3.266  10.318
 5221SOL    HW216122   2.255   3.355  10.314
 5222SOL     OW16123   3.322   3.367  10.649
 5222SOL    HW116124   3.346   3.461  10.675
 5222SOL    HW216125   3.306   3.313  10.731
 5223SOL     OW16126   3.465   2.309  10.047
 5223SOL    HW116127   3.391   2.355   9.997
 5223SOL    HW216128   3.516   2.377  10.100
 5224SOL     OW16129   2.093   3.575   9.793
 5224SOL    HW116130   2.127   3.652   9.847
 5224SOL    HW216131   2.137   3.575   9.703
 5225SOL     OW16132   2.092   3.296   9.848
 5225SOL    HW116133   2.066   3.392   9.848
 5225SOL    HW216134   2.021   3.242   9.893
 5226SOL     OW16135   2.102   2.953  10.196
 5226SOL    HW116136   2.116   2.869  10.248
 5226SOL    HW216137   2.047   3.017  10.251
 5227SOL     OW16138   2.482   3.648  10.749
 5227SOL    HW116139   2.390   3.631  10.784
 5227SOL    HW216140   2.510   3.740  10.775
 5228SOL     OW16141   2.468   2.826   9.433
 5228SOL    HW116142   2.475   2.910   9.379
 5228SOL    HW216143   2.514   2.839   9.521
 5229SOL     OW16144   3.456   1.976  10.790
 5229SOL    HW116145   3.438   2.043  10.718
 5229SOL    HW216146   3.453   2.022  10.879
 5230SOL     OW16147   1.984   2.505   9.873
 5230SOL    HW116148   1.939   2.417   9.890
 5230SOL    HW216149   1.983   2.559   9.957
 5231SOL     OW16150   3.704   3.629   9.669
 5231SOL    HW116151   3.758   3.600   9.749
 5231SOL    HW216152   3.734   3.719   9.640
 5232SOL     OW16153   1.889   3.458   9.427
 5232SOL    HW116154   1.870   3.362   9.448
 5232SOL    HW216155   1.856   3.516   9.502
 5233SOL     OW16156   3.551   2.784   9.922
 5233SOL    HW116157   3.646   2.755   9.930
 5233SOL    HW216158   3.543   2.849   9.847
 5234SOL     OW16159   3.503   2.970   9.742
 5234SOL    HW116160   3.589   2.972   9.690
 5234SOL    HW216161   3.517   3.017   9.830
 5235SOL     OW16162   1.975   2.599  10.907
 5235SOL    HW116163   2.063   2.586  10.952
 5235SOL    HW216164   1.962   2.696  10.885
 5236SOL     OW16165   2.475   3.227  10.036
 5236SOL    HW116166   2.426   3.140  10.045
 5236SOL    HW216167   2.452   3.270   9.949
 5237SOL     OW16168   3.155   3.090  10.733
 5237SOL    HW116169   3.192   3.017  10.675
 5237SOL    HW216170   3.207   3.095  10.818
 5238SOL     OW16171   2.671   1.866   9.812
 5238SOL    HW116172   2.711   1.957   9.803
 5238SOL    HW216173   2.571   1.874   9.818
 5239SOL     OW16174   2.059   2.838  10.574
 5239SOL    HW116175   2.148   2.793  10.560
 5239SOL    HW216176   1.986   2.773  10.555
 5240SOL     OW16177   3.387   2.861   9.500
 5240SOL    HW116178   3.324   2.785   9.513
 5240SOL    HW216179   3.435   2.879   9.586
 5241SOL     OW16180   3.049   3.654  10.926
 5241SOL    HW116181   3.073   3.714  10.850
 5241SOL    HW216182   3.056   3.559  10.896
 5242SOL     OW16183   3.328   3.279  10.263
 5242SOL    HW116184   3.269   3.285  10.343
 5242SOL    HW216185   3.313   3.191  10.217
 5243SOL     OW16186   3.529   3.576   9.882
 5243SOL    HW116187   3.488   3.553   9.794
 5243SOL    HW216188   3.511   3.502   9.947
 5244SOL     OW16189   2.460   2.591   9.580
 5244SOL    HW116190   2.484   2.660   9.512
 5244SOL    HW216191   2.382   2.624   9.634
 5245SOL     OW16192   3.143   2.207  10.254
 5245SOL    HW116193   3.057   2.157  10.241
 5245SOL    HW216194   3.205   2.153  10.310
 5246SOL     OW16195   3.438   3.524   9.617
 5246SOL    HW116196   3.527   3.570   9.620
 5246SOL    HW216197   3.417   3.500   9.522
 5247SOL     OW16198   2.669   2.467  10.775
 5247SOL    HW116199   2.622   2.464  10.864
 5247SOL    HW216200   2.618   2.412  10.709
 5248SOL     OW16201   2.835   2.752  10.882
 5248SOL    HW116202   2.881   2.668  10.853
 5248SOL    HW216203   2.779   2.786  10.807
 5249SOL     OW16204   2.853   2.272  10.552
 5249SOL    HW116205   2.776   2.306  10.606
 5249SOL    HW216206   2.819   2.221  10.473
 5250SOL     OW16207   2.903   2.563   9.739
 5250SOL    HW116208   2.929   2.559   9.835
 5250SOL    HW216209   2.818   2.512   9.725
 5251SOL     OW16210   1.938   2.673  10.099
 5251SOL    HW116211   2.037   2.661  10.108
 5251SOL    HW216212   1.914   2.768  10.120
 5252SOL     OW16213   1.992   3.683  10.881
 5252SOL    HW116214   1.982   3.668  10.980
 5252SOL    HW216215   1.906   3.719  10.845
 5253SOL     OW16216   2.727   2.210   9.505
 5253SOL    HW116217   2.786   2.273   9.456
 5253SOL    HW216218   2.746   2.116   9.476
 5254SOL     OW16219   3.224   3.006   9.855
 5254SOL    HW116220   3.307   2.977   9.807
 5254SOL    HW216221   3.175   3.073   9.799
 5255SOL     OW16222   2.870   3.318   9.787
 5255SOL    HW116223   2.824   3.390   9.735
 5255SOL    HW216224   2.866   3.338   9.885
 5256SOL     OW16225   2.213   3.663  10.163
 5256SOL    HW116226   2.263   3.577  10.169
 5256SOL    HW216227   2.278   3.740  10.160
 5257SOL     OW16228   3.657   2.928  10.183
 5257SOL    HW116229   3.595   2.913  10.107
 5257SOL    HW216230   3.605   2.939  10.268
 5258SOL     OW16231   3.089   3.412  10.816
 5258SOL    HW116232   3.095   3.335  10.880
 5258SOL    HW216233   3.037   3.386  10.736
 5259SOL     OW16234   2.183   2.805   9.552
 5259SOL    HW116235   2.265   2.844   9.510
 5259SOL    HW216236   2.156   2.723   9.503
 5260SOL     OW16237   3.320   2.597  10.038
 5260SOL    HW116238   3.315   2.532  10.113
 5260SOL    HW216239   3.400   2.656  10.051
 5261SOL     OW16240   2.323   3.128  11.037
 5261SOL    HW116241   2.273   3.129  10.951
 5261SOL    HW216242   2.260   3.110  11.113
 5262SOL     OW16243   2.973   3.638   9.547
 5262SOL    HW116244   2.913   3.576   9.597
 5262SOL    HW216245   3.004   3.594   9.462
 5263SOL     OW16246   3.494   3.239   9.391
 5263SOL    HW116247   3.462   3.333   9.381
 5263SOL    HW216248   3.418   3.176   9.379
 5264SOL     OW16249   2.326   3.605   9.633
 5264SOL    HW116250   2.359   3.644   9.719
 5264SOL    HW216251   2.402   3.598   9.568
 5265SOL     OW16252   3.262   1.969   9.736
 5265SOL    HW116253   3.238   1.932   9.646
 5265SOL    HW216254   3.361   1.985   9.740
 5266SOL     OW16255   2.111   3.647  10.551
 5266SOL    HW116256   2.168   3.582  10.601
 5266SOL    HW216257   2.095   3.614  10.458
 5267SOL     OW16258   2.802   3.560  10.214
 5267SOL    HW116259   2.882   3.503  10.235
 5267SOL    HW216260   2.753   3.520  10.137
 5268SOL     OW16261   2.476   1.984   9.427
 5268SOL    HW116262   2.574   1.962   9.434
 5268SOL    HW216263   2.445   1.967   9.334
 5269SOL     OW16264   2.643   2.126  11.059
 5269SOL    HW116265   2.710   2.065  11.102
 5269SOL    HW216266   2.570   2.145  11.124
 5270SOL     OW16267   2.750   3.376  10.505
 5270SOL    HW116268   2.727   3.351  10.411
 5270SOL    HW216269   2.811   3.307  10.544
 5271SOL     OW16270   3.213   2.452  10.743
 5271SOL    HW116271   3.241   2.409  10.828
 5271SOL    HW216272   3.238   2.548  10.744
 5272SOL     OW16273   2.665   3.264  10.234
 5272SOL    HW116274   2.755   3.278  10.192
 5272SOL    HW216275   2.594   3.266  10.163
 5273SOL     OW16276   2.784   2.365  10.209
 5273SOL    HW116277   2.759   2.356  10.113
 5273SOL    HW216278   2.832   2.283  10.240
 5274SOL     OW16279   2.401   1.926   9.822
 5274SOL    HW116280   2.320   1.927   9.880
 5274SOL    HW216281   2.404   2.009   9.767
 5275SOL     OW16282   3.296   3.050   9.351
 5275SOL    HW116283   3.328   2.974   9.408
 5275SOL    HW216284   3.204   3.077   9.381
 5276SOL     OW16285   2.159   1.897   9.481
 5276SOL    HW116286   2.208   1.981   9.460
 5276SOL    HW216287   2.221   1.832   9.526
 5277SOL     OW16288   2.797   2.098   9.790
 5277SOL    HW116289   2.749   2.139   9.712
 5277SOL    HW216290   2.896   2.096   9.771
 5278SOL     OW16291   2.938   2.545  10.774
 5278SOL    HW116292   2.858   2.484  10.777
 5278SOL    HW216293   3.019   2.492  10.750
 5279SOL     OW16294   3.089   3.432  10.103
 5279SOL    HW116295   3.110   3.506  10.038
 5279SOL    HW216296   3.157   3.432  10.176
 5280SOL     OW16297   2.321   3.014  10.051
 5280SOL    HW116298   2.250   2.987  10.116
 5280SOL    HW216299   2.295   2.986   9.958
 5281SOL     OW16300   3.133   3.659   9.901
 5281SOL    HW116301   3.177   3.723   9.837
 5281SOL    HW216302   3.083   3.711   9.971
 5282SOL     OW16303   2.894   2.411   9.326
 5282SOL    HW116304   2.853   2.493   9.287
 5282SOL    HW216305   2.958   2.437   9.399
 5283SOL     OW16306   1.940   2.418  10.696
 5283SOL    HW116307   2.032   2.417  10.655
 5283SOL    HW216308   1.934   2.492  10.763
 5284SOL     OW16309   2.423   2.084  10.457
 5284SOL    HW116310   2.461   2.000  10.494
 5284SOL    HW216311   2.335   2.103  10.501
 5285SOL     OW16312   2.728   2.316   9.952
 5285SOL    HW116313   2.696   2.388   9.890
 5285SOL    HW216314   2.752   2.235   9.899
 5286SOL     OW16315   2.879   1.901  10.063
 5286SOL    HW116316   2.807   1.906   9.994
 5286SOL    HW216317   2.855   1.832  10.132
 5287SOL     OW16318   3.291   3.035  10.177
 5287SOL    HW116319   3.236   2.951  10.170
 5287SOL    HW216320   3.317   3.064  10.085
 5288SOL     OW16321   3.328   2.452  10.302
 5288SOL    HW116322   3.298   2.357  10.309
 5288SOL    HW216323   3.401   2.468  10.368
 5289SOL     OW16324   3.719   2.695   9.687
 5289SOL    HW116325   3.761   2.631   9.751
 5289SOL    HW216326   3.681   2.644   9.609
 5290SOL     OW16327   2.350   3.247   9.484
 5290SOL    HW116328   2.263   3.232   9.531
 5290SOL    HW216329   2.333   3.273   9.389
 5291SOL     OW16330   3.526   3.142   9.967
 5291SOL    HW116331   3.625   3.150   9.981
 5291SOL    HW216332   3.481   3.226   9.998
 5292SOL     OW16333   3.252   2.437   9.388
 5292SOL    HW116334   3.198   2.416   9.469
 5292SOL    HW216335   3.343   2.396   9.397
 5293SOL     OW16336   3.616   3.085  10.898
 5293SOL    HW116337   3.707   3.046  10.885
 5293SOL    HW216338   3.624   3.181  10.922
 5294SOL     OW16339   2.926   3.209  10.650
 5294SOL    HW116340   2.846   3.186  10.705
 5294SOL    HW216341   3.009   3.183  10.699
 5295SOL     OW16342   2.973   3.057  10.410
 5295SOL    HW116343   2.933   3.101  10.491
 5295SOL    HW216344   2.932   3.094  10.327
 5296SOL     OW16345   3.500   2.961  10.389
 5296SOL    HW116346   3.505   3.042  10.448
 5296SOL    HW216347   3.414   2.963  10.338
 5297SOL     OW16348   2.777   1.951  10.712
 5297SOL    HW116349   2.802   1.931  10.617
 5297SOL    HW216350   2.849   2.007  10.754
 5298SOL     OW16351   2.567   2.912   9.678
 5298SOL    HW116352   2.553   2.919   9.777
 5298SOL    HW216353   2.651   2.861   9.660
 5299SOL     OW16354   2.272   2.675  10.561
 5299SOL    HW116355   2.358   2.687  10.611
 5299SOL    HW216356   2.230   2.588  10.588
 5300SOL     OW16357   3.136   2.248  10.572
 5300SOL    HW116358   3.157   2.322  10.636
 5300SOL    HW216359   3.047   2.265  10.529
 5301SOL     OW16360   1.926   3.426  10.641
 5301SOL    HW116361   1.880   3.508  10.607
 5301SOL    HW216362   2.024   3.445  10.650
 5302SOL     OW16363   2.229   2.962   9.811
 5302SOL    HW116364   2.222   3.045   9.755
 5302SOL    HW216365   2.233   2.882   9.751
 5303SOL     OW16366   2.428   2.399  10.175
 5303SOL    HW116367   2.440   2.465  10.101
 5303SOL    HW216368   2.474   2.433  10.258
 5304SOL     OW16369   3.114   3.210   9.698
 5304SOL    HW116370   3.164   3.287   9.738
 5304SOL    HW216371   3.019   3.212   9.730
 5305SOL     OW16372   3.134   3.307  10.452
 5305SOL    HW116373   3.181   3.320  10.539
 5305SOL    HW216374   3.068   3.233  10.461
 5306SOL     OW16375   3.444   2.501   9.782
 5306SOL    HW116376   3.413   2.562   9.855
 5306SOL    HW216377   3.494   2.553   9.713
 5307SOL     OW16378   2.216   3.372  10.639
 5307SOL    HW116379   2.195   3.328  10.552
 5307SOL    HW216380   2.313   3.398  10.642
 5308SOL     OW16381   2.264   2.613  10.908
 5308SOL    HW116382   2.332   2.668  10.861
 5308SOL    HW216383   2.304   2.525  10.935
 5309SOL     OW16384   3.449   2.641  10.980
 5309SOL    HW116385   3.357   2.679  10.975
 5309SOL    HW216386   3.509   2.688  10.915
 5310SOL     OW16387   2.435   2.732  10.339
 5310SOL    HW116388   2.479   2.821  10.330
 5310SOL    HW216389   2.372   2.732  10.416
 5311SOL     OW16390   3.222   2.724  10.355
 5311SOL    HW116391   3.147   2.724  10.289
 5311SOL    HW216392   3.259   2.632  10.364
 5312SOL     OW16393   3.071   2.387   9.585
 5312SOL    HW116394   3.084   2.303   9.639
 5312SOL    HW216395   3.042   2.461   9.645
 5313SOL     OW16396   1.899   3.172  10.592
 5313SOL    HW116397   1.952   3.123  10.660
 5313SOL    HW216398   1.921   3.270  10.597
 5314SOL     OW16399   2.594   2.496  10.374
 5314SOL    HW116400   2.653   2.470  10.298
 5314SOL    HW216401   2.566   2.592  10.363
 5315SOL     OW16402   2.169   1.925   9.928
 5315SOL    HW116403   2.158   2.019   9.961
 5315SOL    HW216404   2.164   1.862  10.005
 5316SOL     OW16405   3.484   2.229   9.684
 5316SOL    HW116406   3.486   2.153   9.748
 5316SOL    HW216407   3.436   2.306   9.724
 5317SOL     OW16408   2.885   2.628  10.276
 5317SOL    HW116409   2.900   2.649  10.372
 5317SOL    HW216410   2.855   2.533  10.267
 5318SOL     OW16411   2.842   3.435  11.010
 5318SOL    HW116412   2.822   3.479  10.922
 5318SOL    HW216413   2.881   3.344  10.994
 5319SOL     OW16414   3.721   3.380  10.915
 5319SOL    HW116415   3.735   3.407  10.820
 5319SOL    HW216416   3.804   3.402  10.968
 5320SOL     OW16417   2.212   2.760  11.114
 5320SOL    HW116418   2.288   2.804  11.162
 5320SOL    HW216419   2.247   2.713  11.032
 5321SOL     OW16420   3.402   2.136   9.435
 5321SOL    HW116421   3.341   2.061   9.458
 5321SOL    HW216422   3.424   2.188   9.518
 5322SOL     OW16423   3.165   2.700   9.352
 5322SOL    HW116424   3.199   2.607   9.367
 5322SOL    HW216425   3.183   2.727   9.257
 5323SOL     OW16426   2.930   3.195  10.159
 5323SOL    HW116427   2.937   3.111  10.104
 5323SOL    HW216428   2.992   3.264  10.123
 5324SOL     OW16429   2.181   2.672  10.259
 5324SOL    HW116430   2.274   2.708  10.264
 5324SOL    HW216431   2.175   2.587  10.311
 5325SOL     OW16432   3.022   2.069  10.787
 5325SOL    HW116433   3.022   2.133  10.864
 5325SOL    HW216434   3.050   2.117  10.704
 5326SOL     OW16435   1.870   3.188   9.510
 5326SOL    HW116436   1.777   3.209   9.479
 5326SOL    HW216437   1.880   3.089   9.523
 5327SOL     OW16438   1.950   3.663  10.237
 5327SOL    HW116439   1.908   3.577  10.210
 5327SOL    HW216440   2.044   3.666  10.203
 5328SOL     OW16441   2.366   3.430  10.220
 5328SOL    HW116442   2.432   3.504  10.229
 5328SOL    HW216443   2.410   3.351  10.178
 5329SOL     OW16444   2.864   2.658  10.548
 5329SOL    HW116445   2.905   2.626  10.634
 5329SOL    HW216446   2.768   2.631  10.545
 5330SOL     OW16447   1.902   2.406  10.424
 5330SOL    HW116448   1.987   2.373  10.383
 5330SOL    HW216449   1.915   2.421  10.522
 5331SOL     OW16450   2.677   2.434   9.635
 5331SOL    HW116451   2.684   2.345   9.589
 5331SOL    HW216452   2.583   2.468   9.627
 5332SOL     OW16453   3.519   2.466  10.516
 5332SOL    HW116454   3.481   2.397  10.578
 5332SOL    HW216455   3.601   2.430  10.472
 5333SOL     OW16456   2.114   3.426  11.054
 5333SOL    HW116457   2.084   3.483  11.130
 5333SOL    HW216458   2.107   3.329  11.080
 5334SOL     OW16459   2.792   3.540  10.775
 5334SOL    HW116460   2.768   3.522  10.680
 5334SOL    HW216461   2.822   3.634  10.785
 5335SOL     OW16462   2.021   2.999  10.776
 5335SOL    HW116463   2.043   2.938  10.852
 5335SOL    HW216464   2.031   2.950  10.690
 5336SOL     OW16465   3.209   2.921  10.544
 5336SOL    HW116466   3.233   2.858  10.470
 5336SOL    HW216467   3.119   2.961  10.526
 5337SOL     OW16468   3.164   2.717   9.619
 5337SOL    HW116469   3.078   2.686   9.661
 5337SOL    HW216470   3.160   2.703   9.520
 5338SOL     OW16471   3.621   3.609  10.464
 5338SOL    HW116472   3.682   3.639  10.391
 5338SOL    HW216473   3.583   3.520  10.442
 5339SOL     OW16474   3.114   3.593  10.438
 5339SOL    HW116475   3.198   3.598  10.384
 5339SOL    HW216476   3.091   3.497  10.456
 5340SOL     OW16477   1.945   3.120  10.332
 5340SOL    HW116478   1.940   3.119  10.432
 5340SOL    HW216479   1.862   3.079  10.294
 5341SOL     OW16480   3.588   1.997   9.833
 5341SOL    HW116481   3.661   1.980   9.766
 5341SOL    HW216482   3.557   1.910   9.871
 5342SOL     OW16483   3.250   3.435   9.787
 5342SOL    HW116484   3.317   3.447   9.713
 5342SOL    HW216485   3.210   3.524   9.810
 5343SOL     OW16486   3.142   2.789   9.982
 5343SOL    HW116487   3.202   2.708   9.984
 5343SOL    HW216488   3.182   2.858   9.922
 5344SOL     OW16489   2.692   3.135  10.732
 5344SOL    HW116490   2.687   3.168  10.827
 5344SOL    HW216491   2.606   3.154  10.686
 5345SOL     OW16492   2.534   3.478   9.464
 5345SOL    HW116493   2.543   3.488   9.365
 5345SOL    HW216494   2.494   3.389   9.485
 5346SOL     OW16495   3.512   3.582  10.704
 5346SOL    HW116496   3.565   3.592  10.620
 5346SOL    HW216497   3.485   3.672  10.738
 5347SOL     OW16498   3.703   2.037  10.273
 5347SOL    HW116499   3.742   1.952  10.237
 5347SOL    HW216500   3.605   2.039  10.254
 5348SOL     OW16501   3.056   3.474   9.341
 5348SOL    HW116502   3.062   3.381   9.378
 5348SOL    HW216503   2.997   3.474   9.261
 5349SOL     OW16504   2.684   2.864  10.682
 5349SOL    HW116505   2.724   2.863  10.590
 5349SOL    HW216506   2.694   2.956  10.722
 5350SOL     OW16507   2.778   2.772   9.601
 5350SOL    HW116508   2.841   2.810   9.533
 5350SOL    HW216509   2.818   2.689   9.640
 5351SOL     OW16510   3.366   3.469   9.354
 5351SOL    HW116511   3.274   3.506   9.361
 5351SOL    HW216512   3.404   3.489   9.264
 5352SOL     OW16513   2.234   3.150  10.800
 5352SOL    HW116514   2.221   3.243  10.766
 5352SOL    HW216515   2.150   3.098  10.787
 5353SOL     OW16516   3.476   3.154  10.599
 5353SOL    HW116517   3.536   3.157  10.679
 5353SOL    HW216518   3.401   3.218  10.612
 5354SOL     OW16519   2.901   2.960  10.006
 5354SOL    HW116520   2.831   2.913  10.060
 5354SOL    HW216521   2.960   2.892   9.963
 5355SOL     OW16522   2.876   2.098  10.281
 5355SOL    HW116523   2.868   2.062  10.188
 5355SOL    HW216524   2.874   2.022  10.346
 5356SOL     OW16525   2.452   3.349   9.801
 5356SOL    HW116526   2.494   3.291   9.731
 5356SOL    HW216527   2.408   3.428   9.757
 5357SOL     OW16528   3.571   2.247  10.691
 5357SOL    HW116529   3.644   2.316  10.695
 5357SOL    HW216530   3.599   2.172  10.632
 5358SOL     OW16531   2.117   3.210   9.600
 5358SOL    HW116532   2.021   3.211   9.573
 5358SOL    HW216533   2.129   3.263   9.684
 5359SOL     OW16534   1.967   2.875  11.036
 5359SOL    HW116535   1.890   2.842  11.090
 5359SOL    HW216536   2.052   2.845  11.078
 5360SOL     OW16537   2.534   2.065  10.799
 5360SOL    HW116538   2.624   2.049  10.759
 5360SOL    HW216539   2.542   2.070  10.898
 5361SOL     OW16540   1.937   2.207   9.343
 5361SOL    HW116541   1.845   2.179   9.314
 5361SOL    HW216542   1.968   2.284   9.287
 5362SOL     OW16543   3.302   2.718  10.708
 5362SOL    HW116544   3.245   2.770  10.645
 5362SOL    HW216545   3.398   2.730  10.684
 5363SOL     OW16546   1.934   2.028   9.628
 5363SOL    HW116547   1.917   2.111   9.574
 5363SOL    HW216548   2.024   1.991   9.606
 5364SOL     OW16549   3.045   3.197   9.429
 5364SOL    HW116550   2.946   3.186   9.431
 5364SOL    HW216551   3.079   3.212   9.522
 5365SOL     OW16552   2.475   2.704  10.741
 5365SOL    HW116553   2.531   2.785  10.724
 5365SOL    HW216554   2.534   2.624  10.744
 5366SOL     OW16555   3.355   3.629  10.269
 5366SOL    HW116556   3.388   3.693  10.200
 5366SOL    HW216557   3.421   3.623  10.344
 5367SOL     OW16558   2.578   2.427  11.018
 5367SOL    HW116559   2.597   2.492  11.092
 5367SOL    HW216560   2.638   2.347  11.027
 5368SOL     OW16561   2.252   3.603  10.870
 5368SOL    HW116562   2.161   3.644  10.868
 5368SOL    HW216563   2.245   3.509  10.902
 5369SOL     OW16564   3.536   2.745  10.564
 5369SOL    HW116565   3.509   2.656  10.527
 5369SOL    HW216566   3.537   2.813  10.491
 5370SOL     OW16567   3.087   2.187   9.759
 5370SOL    HW116568   3.152   2.113   9.748
 5370SOL    HW216569   3.107   2.237   9.843
 5371SOL     OW16570   2.456   2.607   9.962
 5371SOL    HW116571   2.506   2.692   9.943
 5371SOL    HW216572   2.368   2.609   9.914
 5372SOL     OW16573   3.639   2.204  10.952
 5372SOL    HW116574   3.622   2.235  10.858
 5372SOL    HW216575   3.555   2.167  10.990
 5373SOL     OW16576   3.592   2.796  10.827
 5373SOL    HW116577   3.630   2.887  10.842
 5373SOL    HW216578   3.584   2.779  10.728
 5374SOL     OW16579   2.721   3.236   9.326
 5374SOL    HW116580   2.675   3.251   9.414
 5374SOL    HW216581   2.765   3.321   9.296
 5375SOL     OW16582   2.523   3.652  10.263
 5375SOL    HW116583   2.477   3.740  10.250
 5375SOL    HW216584   2.622   3.664  10.256
 5376SOL     OW16585   2.721   2.818  10.171
 5376SOL    HW116586   2.775   2.749  10.219
 5376SOL    HW216587   2.689   2.887  10.237
 5377SOL     OW16588   2.945   2.846   9.397
 5377SOL    HW116589   2.922   2.899   9.315
 5377SOL    HW216590   3.026   2.790   9.378
 5378SOL     OW16591   3.723   3.431  10.161
 5378SOL    HW116592   3.652   3.419  10.091
 5378SOL    HW216593   3.724   3.352  10.221
 5379SOL     OW16594   1.941   3.102   9.963
 5379SOL    HW116595   1.940   3.055  10.051
 5379SOL    HW216596   2.023   3.074   9.912
 5380SOL     OW16597   2.534   3.253  10.934
 5380SOL    HW116598   2.456   3.203  10.972
 5380SOL    HW216599   2.531   3.348  10.965
 5381SOL     OW16600   3.686   2.054  10.537
 5381SOL    HW116601   3.682   1.964  10.581
 5381SOL    HW216602   3.689   2.043  10.438
 5382SOL     OW16603   3.567   3.349  10.414
 5382SOL    HW116604   3.474   3.324  10.387
 5382SOL    HW216605   3.593   3.299  10.496
 5383SOL     OW16606   2.674   3.448   9.997
 5383SOL    HW116607   2.706   3.458   9.903
 5383SOL    HW216608   2.595   3.386   9.999
 5384SOL     OW16609   3.286   2.076  10.422
 5384SOL    HW116610   3.338   2.011  10.477
 5384SOL    HW216611   3.237   2.139  10.483
 5385SOL     OW16612   2.863   1.896  10.464
 5385SOL    HW116613   2.800   1.824  10.433
 5385SOL    HW216614   2.956   1.860  10.464
 5386SOL     OW16615   2.632   3.192   9.611
 5386SOL    HW116616   2.586   3.105   9.628
 5386SOL    HW216617   2.723   3.189   9.652
 5387SOL     OW16618   2.480   3.429  10.594
 5387SOL    HW116619   2.475   3.511  10.651
 5387SOL    HW216620   2.569   3.426  10.549
 5388SOL     OW16621   3.214   1.914   9.478
 5388SOL    HW116622   3.249   1.873   9.394
 5388SOL    HW216623   3.124   1.876   9.498
 5389SOL     OW16624   3.162   2.315  10.001
 5389SOL    HW116625   3.103   2.395  10.005
 5389SOL    HW216626   3.177   2.280  10.094
 5390SOL     OW16627   3.455   2.083  10.192
 5390SOL    HW116628   3.371   2.082  10.246
 5390SOL    HW216629   3.457   2.166  10.136
 5391SOL     OW16630   1.901   2.939   9.610
 5391SOL    HW116631   2.000   2.928   9.601
 5391SOL    HW216632   1.861   2.853   9.642
 5392SOL     OW16633   2.737   3.508   9.647
 5392SOL    HW116634   2.660   3.473   9.593
 5392SOL    HW216635   2.705   3.579   9.709
 5393SOL     OW16636   2.092   4.352   0.113
 5393SOL    HW116637   1.999   4.350   0.150
 5393SOL    HW216638   2.093   4.313   0.021
 5394SOL     OW16639   2.087   3.999   0.996
 5394SOL    HW116640   2.122   3.982   1.088
 5394SOL    HW216641   1.999   3.954   0.984
 5395SOL     OW16642   1.881   4.092   0.647
 5395SOL    HW116643   1.799   4.135   0.686
 5395SOL    HW216644   1.853   4.019   0.584
 5396SOL     OW16645   3.617   4.331   0.231
 5396SOL    HW116646   3.605   4.318   0.132
 5396SOL    HW216647   3.587   4.250   0.280
 5397SOL     OW16648   2.547   4.736   0.665
 5397SOL    HW116649   2.616   4.720   0.735
 5397SOL    HW216650   2.474   4.793   0.703
 5398SOL     OW16651   2.300   4.116   1.499
 5398SOL    HW116652   2.382   4.060   1.508
 5398SOL    HW216653   2.219   4.058   1.503
 5399SOL     OW16654   3.465   4.171   0.737
 5399SOL    HW116655   3.391   4.217   0.687
 5399SOL    HW216656   3.516   4.239   0.790
 5400SOL     OW16657   3.456   3.838   1.480
 5400SOL    HW116658   3.438   3.905   1.408
 5400SOL    HW216659   3.453   3.884   1.569
 5401SOL     OW16660   1.984   4.367   0.563
 5401SOL    HW116661   1.939   4.279   0.580
 5401SOL    HW216662   1.983   4.421   0.647
 5402SOL     OW16663   1.975   4.461   1.597
 5402SOL    HW116664   2.063   4.448   1.642
 5402SOL    HW216665   1.962   4.558   1.575
 5403SOL     OW16666   2.671   3.728   0.502
 5403SOL    HW116667   2.711   3.819   0.493
 5403SOL    HW216668   2.571   3.736   0.508
 5404SOL     OW16669   2.179   3.975   1.801
 5404SOL    HW116670   2.250   4.046   1.807
 5404SOL    HW216671   2.091   4.014   1.829
 5405SOL     OW16672   3.143   4.069   0.944
 5405SOL    HW116673   3.057   4.019   0.931
 5405SOL    HW216674   3.205   4.015   1.000
 5406SOL     OW16675   2.669   4.329   1.465
 5406SOL    HW116676   2.622   4.326   1.554
 5406SOL    HW216677   2.618   4.274   1.399
 5407SOL     OW16678   3.256   4.193   1.674
 5407SOL    HW116679   3.236   4.236   1.762
 5407SOL    HW216680   3.334   4.131   1.683
 5408SOL     OW16681   2.853   4.134   1.242
 5408SOL    HW116682   2.776   4.168   1.296
 5408SOL    HW216683   2.819   4.083   1.163
 5409SOL     OW16684   2.903   4.425   0.429
 5409SOL    HW116685   2.929   4.421   0.525
 5409SOL    HW216686   2.818   4.374   0.415
 5410SOL     OW16687   2.727   4.072   0.195
 5410SOL    HW116688   2.786   4.135   0.146
 5410SOL    HW216689   2.746   3.978   0.166
 5411SOL     OW16690   3.581   4.309   1.831
 5411SOL    HW116691   3.555   4.398   1.795
 5411SOL    HW216692   3.579   4.241   1.758
 5412SOL     OW16693   2.412   3.920   0.885
 5412SOL    HW116694   2.407   3.915   0.985
 5412SOL    HW216695   2.414   4.016   0.856
 5413SOL     OW16696   3.320   4.459   0.728
 5413SOL    HW116697   3.315   4.394   0.803
 5413SOL    HW216698   3.400   4.518   0.741
 5414SOL     OW16699   2.064   4.009   1.498
 5414SOL    HW116700   1.984   4.069   1.485
 5414SOL    HW216701   2.054   3.960   1.584
 5415SOL     OW16702   3.262   3.831   0.426
 5415SOL    HW116703   3.238   3.794   0.336
 5415SOL    HW216704   3.361   3.847   0.430
 5416SOL     OW16705   2.244   4.424   0.480
 5416SOL    HW116706   2.289   4.334   0.477
 5416SOL    HW216707   2.150   4.413   0.513
 5417SOL     OW16708   3.409   3.946   1.729
 5417SOL    HW116709   3.404   3.983   1.821
 5417SOL    HW216710   3.337   3.877   1.717
 5418SOL     OW16711   2.476   3.846   0.117
 5418SOL    HW116712   2.574   3.824   0.124
 5418SOL    HW216713   2.445   3.829   0.024
 5419SOL     OW16714   2.643   3.988   1.749
 5419SOL    HW116715   2.710   3.927   1.792
 5419SOL    HW216716   2.570   4.007   1.814
 5420SOL     OW16717   3.213   4.314   1.433
 5420SOL    HW116718   3.241   4.271   1.518
 5420SOL    HW216719   3.238   4.410   1.434
 5421SOL     OW16720   2.784   4.227   0.899
 5421SOL    HW116721   2.759   4.218   0.803
 5421SOL    HW216722   2.832   4.145   0.930
 5422SOL     OW16723   2.401   3.788   0.512
 5422SOL    HW116724   2.320   3.789   0.570
 5422SOL    HW216725   2.404   3.871   0.457
 5423SOL     OW16726   2.159   3.759   0.171
 5423SOL    HW116727   2.208   3.843   0.150
 5423SOL    HW216728   2.221   3.694   0.216
 5424SOL     OW16729   2.797   3.960   0.480
 5424SOL    HW116730   2.749   4.001   0.402
 5424SOL    HW216731   2.896   3.958   0.461
 5425SOL     OW16732   2.938   4.407   1.464
 5425SOL    HW116733   2.858   4.346   1.467
 5425SOL    HW216734   3.019   4.354   1.440
 5426SOL     OW16735   2.894   4.273   0.016
 5426SOL    HW116736   2.853   4.355  -0.023
 5426SOL    HW216737   2.958   4.299   0.089
 5427SOL     OW16738   1.940   4.280   1.386
 5427SOL    HW116739   2.032   4.279   1.345
 5427SOL    HW216740   1.934   4.354   1.453
 5428SOL     OW16741   2.423   3.946   1.147
 5428SOL    HW116742   2.461   3.862   1.184
 5428SOL    HW216743   2.335   3.965   1.191
 5429SOL     OW16744   2.728   4.178   0.642
 5429SOL    HW116745   2.696   4.250   0.580
 5429SOL    HW216746   2.752   4.097   0.589
 5430SOL     OW16747   2.879   3.763   0.753
 5430SOL    HW116748   2.807   3.768   0.684
 5430SOL    HW216749   2.855   3.694   0.822
 5431SOL     OW16750   3.328   4.314   0.992
 5431SOL    HW116751   3.298   4.219   0.999
 5431SOL    HW216752   3.401   4.330   1.058
 5432SOL     OW16753   3.252   4.299   0.078
 5432SOL    HW116754   3.198   4.278   0.159
 5432SOL    HW216755   3.343   4.258   0.087
 5433SOL     OW16756   2.389   3.980   0.328
 5433SOL    HW116757   2.416   3.921   0.253
 5433SOL    HW216758   2.389   4.075   0.297
 5434SOL     OW16759   2.777   3.813   1.402
 5434SOL    HW116760   2.802   3.793   1.307
 5434SOL    HW216761   2.849   3.869   1.444
 5435SOL     OW16762   2.272   4.537   1.251
 5435SOL    HW116763   2.358   4.549   1.301
 5435SOL    HW216764   2.230   4.450   1.278
 5436SOL     OW16765   3.136   4.110   1.262
 5436SOL    HW116766   3.157   4.184   1.326
 5436SOL    HW216767   3.047   4.127   1.219
 5437SOL     OW16768   2.428   4.261   0.865
 5437SOL    HW116769   2.440   4.327   0.791
 5437SOL    HW216770   2.474   4.295   0.948
 5438SOL     OW16771   3.444   4.363   0.472
 5438SOL    HW116772   3.413   4.424   0.545
 5438SOL    HW216773   3.494   4.415   0.403
 5439SOL     OW16774   2.875   3.829   1.770
 5439SOL    HW116775   2.881   3.914   1.718
 5439SOL    HW216776   2.907   3.753   1.713
 5440SOL     OW16777   2.366   3.774   1.740
 5440SOL    HW116778   2.324   3.717   1.670
 5440SOL    HW216779   2.300   3.843   1.772
 5441SOL     OW16780   3.071   4.249   0.275
 5441SOL    HW116781   3.084   4.165   0.329
 5441SOL    HW216782   3.042   4.323   0.335
 5442SOL     OW16783   2.169   3.937   1.231
 5442SOL    HW116784   2.146   3.974   1.321
 5442SOL    HW216785   2.139   3.842   1.225
 5443SOL     OW16786   2.594   4.358   1.064
 5443SOL    HW116787   2.653   4.332   0.988
 5443SOL    HW216788   2.566   4.454   1.053
 5444SOL     OW16789   3.590   4.659   1.854
 5444SOL    HW116790   3.544   4.652   1.765
 5444SOL    HW216791   3.528   4.703   1.920
 5445SOL     OW16792   2.169   3.787   0.618
 5445SOL    HW116793   2.158   3.881   0.651
 5445SOL    HW216794   2.164   3.724   0.695
 5446SOL     OW16795   3.484   4.091   0.374
 5446SOL    HW116796   3.486   4.015   0.438
 5446SOL    HW216797   3.436   4.168   0.414
 5447SOL     OW16798   3.402   3.998   0.125
 5447SOL    HW116799   3.341   3.923   0.148
 5447SOL    HW216800   3.424   4.050   0.208
 5448SOL     OW16801   2.181   4.534   0.949
 5448SOL    HW116802   2.274   4.570   0.954
 5448SOL    HW216803   2.175   4.449   1.001
 5449SOL     OW16804   2.201   4.233   1.006
 5449SOL    HW116805   2.149   4.150   0.989
 5449SOL    HW216806   2.278   4.238   0.942
 5450SOL     OW16807   3.000   4.104   1.678
 5450SOL    HW116808   2.955   4.167   1.742
 5450SOL    HW216809   3.093   4.135   1.661
 5451SOL     OW16810   3.022   3.931   1.477
 5451SOL    HW116811   3.022   3.995   1.554
 5451SOL    HW216812   3.050   3.979   1.394
 5452SOL     OW16813   1.902   4.268   1.114
 5452SOL    HW116814   1.987   4.235   1.073
 5452SOL    HW216815   1.915   4.283   1.212
 5453SOL     OW16816   2.051   4.244   1.722
 5453SOL    HW116817   2.110   4.204   1.652
 5453SOL    HW216818   1.993   4.315   1.681
 5454SOL     OW16819   2.677   4.296   0.325
 5454SOL    HW116820   2.684   4.207   0.279
 5454SOL    HW216821   2.583   4.330   0.317
 5455SOL     OW16822   3.519   4.328   1.206
 5455SOL    HW116823   3.481   4.259   1.268
 5455SOL    HW216824   3.601   4.292   1.162
 5456SOL     OW16825   2.533   4.188   1.269
 5456SOL    HW116826   2.499   4.099   1.239
 5456SOL    HW216827   2.559   4.242   1.189
 5457SOL     OW16828   2.335   4.224   0.191
 5457SOL    HW116829   2.396   4.304   0.195
 5457SOL    HW216830   2.240   4.255   0.198
 5458SOL     OW16831   2.765   3.810   0.133
 5458SOL    HW116832   2.816   3.811   0.047
 5458SOL    HW216833   2.821   3.768   0.204
 5459SOL     OW16834   3.588   3.859   0.523
 5459SOL    HW116835   3.661   3.842   0.456
 5459SOL    HW216836   3.557   3.772   0.561
 5460SOL     OW16837   3.142   4.651   0.672
 5460SOL    HW116838   3.202   4.570   0.674
 5460SOL    HW216839   3.182   4.720   0.612
 5461SOL     OW16840   3.703   3.899   0.963
 5461SOL    HW116841   3.742   3.814   0.927
 5461SOL    HW216842   3.605   3.901   0.944
 5462SOL     OW16843   2.125   4.050   0.720
 5462SOL    HW116844   2.046   4.101   0.686
 5462SOL    HW216845   2.116   4.035   0.818
 5463SOL     OW16846   2.901   4.822   0.696
 5463SOL    HW116847   2.831   4.775   0.750
 5463SOL    HW216848   2.960   4.754   0.653
 5464SOL     OW16849   2.876   3.960   0.971
 5464SOL    HW116850   2.868   3.924   0.878
 5464SOL    HW216851   2.874   3.884   1.036
 5465SOL     OW16852   3.571   4.109   1.381
 5465SOL    HW116853   3.644   4.178   1.385
 5465SOL    HW216854   3.599   4.034   1.322
 5466SOL     OW16855   2.534   3.927   1.489
 5466SOL    HW116856   2.624   3.911   1.449
 5466SOL    HW216857   2.542   3.932   1.588
 5467SOL     OW16858   1.937   4.069   0.033
 5467SOL    HW116859   1.845   4.041   0.004
 5467SOL    HW216860   1.968   4.146  -0.023
 5468SOL     OW16861   1.934   3.890   0.318
 5468SOL    HW116862   1.917   3.973   0.264
 5468SOL    HW216863   2.024   3.853   0.296
 5469SOL     OW16864   2.578   4.289   1.708
 5469SOL    HW116865   2.597   4.354   1.782
 5469SOL    HW216866   2.638   4.209   1.717
 5470SOL     OW16867   3.087   4.049   0.449
 5470SOL    HW116868   3.152   3.975   0.438
 5470SOL    HW216869   3.107   4.099   0.533
 5471SOL     OW16870   3.639   4.066   1.642
 5471SOL    HW116871   3.622   4.097   1.548
 5471SOL    HW216872   3.555   4.029   1.680
 5472SOL     OW16873   2.945   4.708   0.087
 5472SOL    HW116874   2.922   4.761   0.005
 5472SOL    HW216875   3.026   4.652   0.068
 5473SOL     OW16876   3.686   3.916   1.227
 5473SOL    HW116877   3.682   3.826   1.271
 5473SOL    HW216878   3.689   3.905   1.128
 5474SOL     OW16879   2.290   4.148   0.520
 5474SOL    HW116880   2.320   4.076   0.458
 5474SOL    HW216881   2.251   4.108   0.603
 5475SOL     OW16882   2.179   4.271   1.280
 5475SOL    HW116883   2.217   4.212   1.352
 5475SOL    HW216884   2.219   4.245   1.192
 5476SOL     OW16885   3.286   3.938   1.112
 5476SOL    HW116886   3.338   3.873   1.167
 5476SOL    HW216887   3.237   4.001   1.173
 5477SOL     OW16888   2.863   3.758   1.154
 5477SOL    HW116889   2.800   3.686   1.123
 5477SOL    HW216890   2.956   3.722   1.154
 5478SOL     OW16891   3.214   3.776   0.168
 5478SOL    HW116892   3.249   3.735   0.084
 5478SOL    HW216893   3.124   3.738   0.188
 5479SOL     OW16894   3.162   4.177   0.691
 5479SOL    HW116895   3.103   4.257   0.695
 5479SOL    HW216896   3.177   4.142   0.784
 5480SOL     OW16897   3.455   3.945   0.882
 5480SOL    HW116898   3.371   3.944   0.936
 5480SOL    HW216899   3.457   4.028   0.826
 5481SOL     OW16900   2.092   4.352   1.975
 5481SOL    HW116901   1.999   4.350   2.012
 5481SOL    HW216902   2.093   4.313   1.883
 5482SOL     OW16903   2.087   3.999   2.858
 5482SOL    HW116904   2.122   3.982   2.950
 5482SOL    HW216905   1.999   3.954   2.846
 5483SOL     OW16906   1.881   4.092   2.509
 5483SOL    HW116907   1.799   4.135   2.548
 5483SOL    HW216908   1.853   4.019   2.446
 5484SOL     OW16909   3.617   4.331   2.093
 5484SOL    HW116910   3.605   4.318   1.994
 5484SOL    HW216911   3.587   4.250   2.142
 5485SOL     OW16912   2.547   4.736   2.527
 5485SOL    HW116913   2.616   4.720   2.597
 5485SOL    HW216914   2.474   4.793   2.565
 5486SOL     OW16915   2.300   4.116   3.361
 5486SOL    HW116916   2.382   4.060   3.370
 5486SOL    HW216917   2.219   4.058   3.365
 5487SOL     OW16918   3.465   4.171   2.599
 5487SOL    HW116919   3.391   4.217   2.549
 5487SOL    HW216920   3.516   4.239   2.652
 5488SOL     OW16921   3.456   3.838   3.342
 5488SOL    HW116922   3.438   3.905   3.270
 5488SOL    HW216923   3.453   3.884   3.431
 5489SOL     OW16924   1.984   4.367   2.425
 5489SOL    HW116925   1.939   4.279   2.442
 5489SOL    HW216926   1.983   4.421   2.509
 5490SOL     OW16927   1.975   4.461   3.459
 5490SOL    HW116928   2.063   4.448   3.504
 5490SOL    HW216929   1.962   4.558   3.437
 5491SOL     OW16930   2.671   3.728   2.364
 5491SOL    HW116931   2.711   3.819   2.355
 5491SOL    HW216932   2.571   3.736   2.370
 5492SOL     OW16933   2.179   3.975   3.663
 5492SOL    HW116934   2.250   4.046   3.669
 5492SOL    HW216935   2.091   4.014   3.691
 5493SOL     OW16936   3.143   4.069   2.806
 5493SOL    HW116937   3.057   4.019   2.793
 5493SOL    HW216938   3.205   4.015   2.862
 5494SOL     OW16939   2.669   4.329   3.327
 5494SOL    HW116940   2.622   4.326   3.416
 5494SOL    HW216941   2.618   4.274   3.261
 5495SOL     OW16942   3.256   4.193   3.536
 5495SOL    HW116943   3.236   4.236   3.624
 5495SOL    HW216944   3.334   4.131   3.545
 5496SOL     OW16945   2.853   4.134   3.104
 5496SOL    HW116946   2.776   4.168   3.158
 5496SOL    HW216947   2.819   4.083   3.025
 5497SOL     OW16948   2.903   4.425   2.291
 5497SOL    HW116949   2.929   4.421   2.387
 5497SOL    HW216950   2.818   4.374   2.277
 5498SOL     OW16951   2.727   4.072   2.057
 5498SOL    HW116952   2.786   4.135   2.008
 5498SOL    HW216953   2.746   3.978   2.028
 5499SOL     OW16954   3.581   4.309   3.693
 5499SOL    HW116955   3.555   4.398   3.657
 5499SOL    HW216956   3.579   4.241   3.620
 5500SOL     OW16957   2.412   3.920   2.747
 5500SOL    HW116958   2.407   3.915   2.847
 5500SOL    HW216959   2.414   4.016   2.718
 5501SOL     OW16960   3.320   4.459   2.590
 5501SOL    HW116961   3.315   4.394   2.665
 5501SOL    HW216962   3.400   4.518   2.603
 5502SOL     OW16963   2.064   4.009   3.360
 5502SOL    HW116964   1.984   4.069   3.347
 5502SOL    HW216965   2.054   3.960   3.446
 5503SOL     OW16966   3.262   3.831   2.288
 5503SOL    HW116967   3.238   3.794   2.198
 5503SOL    HW216968   3.361   3.847   2.292
 5504SOL     OW16969   2.244   4.424   2.342
 5504SOL    HW116970   2.289   4.334   2.339
 5504SOL    HW216971   2.150   4.413   2.375
 5505SOL     OW16972   3.409   3.946   3.591
 5505SOL    HW116973   3.404   3.983   3.683
 5505SOL    HW216974   3.337   3.877   3.579
 5506SOL     OW16975   2.476   3.846   1.979
 5506SOL    HW116976   2.574   3.824   1.986
 5506SOL    HW216977   2.445   3.829   1.886
 5507SOL     OW16978   2.643   3.988   3.611
 5507SOL    HW116979   2.710   3.927   3.654
 5507SOL    HW216980   2.570   4.007   3.676
 5508SOL     OW16981   3.213   4.314   3.295
 5508SOL    HW116982   3.241   4.271   3.380
 5508SOL    HW216983   3.238   4.410   3.296
 5509SOL     OW16984   2.784   4.227   2.761
 5509SOL    HW116985   2.759   4.218   2.665
 5509SOL    HW216986   2.832   4.145   2.792
 5510SOL     OW16987   2.401   3.788   2.374
 5510SOL    HW116988   2.320   3.789   2.432
 5510SOL    HW216989   2.404   3.871   2.319
 5511SOL     OW16990   2.159   3.759   2.033
 5511SOL    HW116991   2.208   3.843   2.012
 5511SOL    HW216992   2.221   3.694   2.078
 5512SOL     OW16993   2.797   3.960   2.342
 5512SOL    HW116994   2.749   4.001   2.264
 5512SOL    HW216995   2.896   3.958   2.323
 5513SOL     OW16996   2.938   4.407   3.326
 5513SOL    HW116997   2.858   4.346   3.329
 5513SOL    HW216998   3.019   4.354   3.302
 5514SOL     OW16999   2.894   4.273   1.878
 5514SOL    HW117000   2.853   4.355   1.839
 5514SOL    HW217001   2.958   4.299   1.951
 5515SOL     OW17002   1.940   4.280   3.248
 5515SOL    HW117003   2.032   4.279   3.207
 5515SOL    HW217004   1.934   4.354   3.315
 5516SOL     OW17005   2.423   3.946   3.009
 5516SOL    HW117006   2.461   3.862   3.046
 5516SOL    HW217007   2.335   3.965   3.053
 5517SOL     OW17008   2.728   4.178   2.504
 5517SOL    HW117009   2.696   4.250   2.442
 5517SOL    HW217010   2.752   4.097   2.451
 5518SOL     OW17011   2.879   3.763   2.615
 5518SOL    HW117012   2.807   3.768   2.546
 5518SOL    HW217013   2.855   3.694   2.684
 5519SOL     OW17014   3.328   4.314   2.854
 5519SOL    HW117015   3.298   4.219   2.861
 5519SOL    HW217016   3.401   4.330   2.920
 5520SOL     OW17017   3.252   4.299   1.940
 5520SOL    HW117018   3.198   4.278   2.021
 5520SOL    HW217019   3.343   4.258   1.949
 5521SOL     OW17020   2.389   3.980   2.190
 5521SOL    HW117021   2.416   3.921   2.115
 5521SOL    HW217022   2.389   4.075   2.159
 5522SOL     OW17023   2.777   3.813   3.264
 5522SOL    HW117024   2.802   3.793   3.169
 5522SOL    HW217025   2.849   3.869   3.306
 5523SOL     OW17026   2.272   4.537   3.113
 5523SOL    HW117027   2.358   4.549   3.163
 5523SOL    HW217028   2.230   4.450   3.140
 5524SOL     OW17029   3.136   4.110   3.124
 5524SOL    HW117030   3.157   4.184   3.188
 5524SOL    HW217031   3.047   4.127   3.081
 5525SOL     OW17032   2.428   4.261   2.727
 5525SOL    HW117033   2.440   4.327   2.653
 5525SOL    HW217034   2.474   4.295   2.810
 5526SOL     OW17035   3.444   4.363   2.334
 5526SOL    HW117036   3.413   4.424   2.407
 5526SOL    HW217037   3.494   4.415   2.265
 5527SOL     OW17038   2.875   3.829   3.632
 5527SOL    HW117039   2.881   3.914   3.580
 5527SOL    HW217040   2.907   3.753   3.575
 5528SOL     OW17041   2.366   3.774   3.602
 5528SOL    HW117042   2.324   3.717   3.532
 5528SOL    HW217043   2.300   3.843   3.634
 5529SOL     OW17044   3.071   4.249   2.137
 5529SOL    HW117045   3.084   4.165   2.191
 5529SOL    HW217046   3.042   4.323   2.197
 5530SOL     OW17047   2.169   3.937   3.093
 5530SOL    HW117048   2.146   3.974   3.183
 5530SOL    HW217049   2.139   3.842   3.087
 5531SOL     OW17050   2.594   4.358   2.926
 5531SOL    HW117051   2.653   4.332   2.850
 5531SOL    HW217052   2.566   4.454   2.915
 5532SOL     OW17053   3.590   4.659   3.716
 5532SOL    HW117054   3.544   4.652   3.627
 5532SOL    HW217055   3.528   4.703   3.782
 5533SOL     OW17056   2.169   3.787   2.480
 5533SOL    HW117057   2.158   3.881   2.513
 5533SOL    HW217058   2.164   3.724   2.557
 5534SOL     OW17059   3.484   4.091   2.236
 5534SOL    HW117060   3.486   4.015   2.300
 5534SOL    HW217061   3.436   4.168   2.276
 5535SOL     OW17062   3.402   3.998   1.987
 5535SOL    HW117063   3.341   3.923   2.010
 5535SOL    HW217064   3.424   4.050   2.070
 5536SOL     OW17065   2.181   4.534   2.811
 5536SOL    HW117066   2.274   4.570   2.816
 5536SOL    HW217067   2.175   4.449   2.863
 5537SOL     OW17068   2.201   4.233   2.868
 5537SOL    HW117069   2.149   4.150   2.851
 5537SOL    HW217070   2.278   4.238   2.804
 5538SOL     OW17071   3.000   4.104   3.540
 5538SOL    HW117072   2.955   4.167   3.604
 5538SOL    HW217073   3.093   4.135   3.523
 5539SOL     OW17074   3.022   3.931   3.339
 5539SOL    HW117075   3.022   3.995   3.416
 5539SOL    HW217076   3.050   3.979   3.256
 5540SOL     OW17077   1.902   4.268   2.976
 5540SOL    HW117078   1.987   4.235   2.935
 5540SOL    HW217079   1.915   4.283   3.074
 5541SOL     OW17080   2.051   4.244   3.584
 5541SOL    HW117081   2.110   4.204   3.514
 5541SOL    HW217082   1.993   4.315   3.543
 5542SOL     OW17083   2.677   4.296   2.187
 5542SOL    HW117084   2.684   4.207   2.141
 5542SOL    HW217085   2.583   4.330   2.179
 5543SOL     OW17086   3.519   4.328   3.068
 5543SOL    HW117087   3.481   4.259   3.130
 5543SOL    HW217088   3.601   4.292   3.024
 5544SOL     OW17089   2.533   4.188   3.131
 5544SOL    HW117090   2.499   4.099   3.101
 5544SOL    HW217091   2.559   4.242   3.051
 5545SOL     OW17092   2.335   4.224   2.053
 5545SOL    HW117093   2.396   4.304   2.057
 5545SOL    HW217094   2.240   4.255   2.060
 5546SOL     OW17095   3.588   3.859   2.385
 5546SOL    HW117096   3.661   3.842   2.318
 5546SOL    HW217097   3.557   3.772   2.423
 5547SOL     OW17098   3.142   4.651   2.534
 5547SOL    HW117099   3.202   4.570   2.536
 5547SOL    HW217100   3.182   4.720   2.474
 5548SOL     OW17101   3.703   3.899   2.825
 5548SOL    HW117102   3.742   3.814   2.789
 5548SOL    HW217103   3.605   3.901   2.806
 5549SOL     OW17104   2.125   4.050   2.582
 5549SOL    HW117105   2.046   4.101   2.548
 5549SOL    HW217106   2.116   4.035   2.680
 5550SOL     OW17107   2.778   4.634   2.153
 5550SOL    HW117108   2.841   4.672   2.085
 5550SOL    HW217109   2.818   4.551   2.192
 5551SOL     OW17110   2.901   4.822   2.558
 5551SOL    HW117111   2.831   4.775   2.612
 5551SOL    HW217112   2.960   4.754   2.515
 5552SOL     OW17113   2.876   3.960   2.833
 5552SOL    HW117114   2.868   3.924   2.740
 5552SOL    HW217115   2.874   3.884   2.898
 5553SOL     OW17116   3.571   4.109   3.243
 5553SOL    HW117117   3.644   4.178   3.247
 5553SOL    HW217118   3.599   4.034   3.184
 5554SOL     OW17119   2.534   3.927   3.351
 5554SOL    HW117120   2.624   3.911   3.311
 5554SOL    HW217121   2.542   3.932   3.450
 5555SOL     OW17122   1.937   4.069   1.895
 5555SOL    HW117123   1.845   4.041   1.866
 5555SOL    HW217124   1.968   4.146   1.839
 5556SOL     OW17125   1.934   3.890   2.180
 5556SOL    HW117126   1.917   3.973   2.126
 5556SOL    HW217127   2.024   3.853   2.158
 5557SOL     OW17128   2.578   4.289   3.570
 5557SOL    HW117129   2.597   4.354   3.644
 5557SOL    HW217130   2.638   4.209   3.579
 5558SOL     OW17131   3.087   4.049   2.311
 5558SOL    HW117132   3.152   3.975   2.300
 5558SOL    HW217133   3.107   4.099   2.395
 5559SOL     OW17134   3.639   4.066   3.504
 5559SOL    HW117135   3.622   4.097   3.410
 5559SOL    HW217136   3.555   4.029   3.542
 5560SOL     OW17137   2.945   4.708   1.949
 5560SOL    HW117138   2.922   4.761   1.867
 5560SOL    HW217139   3.026   4.652   1.930
 5561SOL     OW17140   3.686   3.916   3.089
 5561SOL    HW117141   3.682   3.826   3.133
 5561SOL    HW217142   3.689   3.905   2.990
 5562SOL     OW17143   2.290   4.148   2.382
 5562SOL    HW117144   2.320   4.076   2.320
 5562SOL    HW217145   2.251   4.108   2.465
 5563SOL     OW17146   2.179   4.271   3.142
 5563SOL    HW117147   2.217   4.212   3.214
 5563SOL    HW217148   2.219   4.245   3.054
 5564SOL     OW17149   3.286   3.938   2.974
 5564SOL    HW117150   3.338   3.873   3.029
 5564SOL    HW217151   3.237   4.001   3.035
 5565SOL     OW17152   2.863   3.758   3.016
 5565SOL    HW117153   2.800   3.686   2.985
 5565SOL    HW217154   2.956   3.722   3.016
 5566SOL     OW17155   3.214   3.776   2.030
 5566SOL    HW117156   3.249   3.735   1.946
 5566SOL    HW217157   3.124   3.738   2.050
 5567SOL     OW17158   3.162   4.177   2.553
 5567SOL    HW117159   3.103   4.257   2.557
 5567SOL    HW217160   3.177   4.142   2.646
 5568SOL     OW17161   3.455   3.945   2.744
 5568SOL    HW117162   3.371   3.944   2.798
 5568SOL    HW217163   3.457   4.028   2.688
 5569SOL     OW17164   2.092   4.352   3.837
 5569SOL    HW117165   1.999   4.350   3.874
 5569SOL    HW217166   2.093   4.313   3.745
 5570SOL     OW17167   2.087   3.999   4.720
 5570SOL    HW117168   2.122   3.982   4.812
 5570SOL    HW217169   1.999   3.954   4.708
 5571SOL     OW17170   1.881   4.092   4.371
 5571SOL    HW117171   1.799   4.135   4.410
 5571SOL    HW217172   1.853   4.019   4.308
 5572SOL     OW17173   3.617   4.331   3.955
 5572SOL    HW117174   3.605   4.318   3.856
 5572SOL    HW217175   3.587   4.250   4.004
 5573SOL     OW17176   2.547   4.736   4.389
 5573SOL    HW117177   2.616   4.720   4.459
 5573SOL    HW217178   2.474   4.793   4.427
 5574SOL     OW17179   2.300   4.116   5.223
 5574SOL    HW117180   2.382   4.060   5.232
 5574SOL    HW217181   2.219   4.058   5.227
 5575SOL     OW17182   3.465   4.171   4.461
 5575SOL    HW117183   3.391   4.217   4.411
 5575SOL    HW217184   3.516   4.239   4.514
 5576SOL     OW17185   3.456   3.838   5.204
 5576SOL    HW117186   3.438   3.905   5.132
 5576SOL    HW217187   3.453   3.884   5.293
 5577SOL     OW17188   1.984   4.367   4.287
 5577SOL    HW117189   1.939   4.279   4.304
 5577SOL    HW217190   1.983   4.421   4.371
 5578SOL     OW17191   1.975   4.461   5.321
 5578SOL    HW117192   2.063   4.448   5.366
 5578SOL    HW217193   1.962   4.558   5.299
 5579SOL     OW17194   2.671   3.728   4.226
 5579SOL    HW117195   2.711   3.819   4.217
 5579SOL    HW217196   2.571   3.736   4.232
 5580SOL     OW17197   2.179   3.975   5.525
 5580SOL    HW117198   2.250   4.046   5.531
 5580SOL    HW217199   2.091   4.014   5.553
 5581SOL     OW17200   3.143   4.069   4.668
 5581SOL    HW117201   3.057   4.019   4.655
 5581SOL    HW217202   3.205   4.015   4.724
 5582SOL     OW17203   2.669   4.329   5.189
 5582SOL    HW117204   2.622   4.326   5.278
 5582SOL    HW217205   2.618   4.274   5.123
 5583SOL     OW17206   3.256   4.193   5.398
 5583SOL    HW117207   3.236   4.236   5.486
 5583SOL    HW217208   3.334   4.131   5.407
 5584SOL     OW17209   2.853   4.134   4.966
 5584SOL    HW117210   2.776   4.168   5.020
 5584SOL    HW217211   2.819   4.083   4.887
 5585SOL     OW17212   2.903   4.425   4.153
 5585SOL    HW117213   2.929   4.421   4.249
 5585SOL    HW217214   2.818   4.374   4.139
 5586SOL     OW17215   2.727   4.072   3.919
 5586SOL    HW117216   2.786   4.135   3.870
 5586SOL    HW217217   2.746   3.978   3.890
 5587SOL     OW17218   3.581   4.309   5.555
 5587SOL    HW117219   3.555   4.398   5.519
 5587SOL    HW217220   3.579   4.241   5.482
 5588SOL     OW17221   2.412   3.920   4.609
 5588SOL    HW117222   2.407   3.915   4.709
 5588SOL    HW217223   2.414   4.016   4.580
 5589SOL     OW17224   3.320   4.459   4.452
 5589SOL    HW117225   3.315   4.394   4.527
 5589SOL    HW217226   3.400   4.518   4.465
 5590SOL     OW17227   2.064   4.009   5.222
 5590SOL    HW117228   1.984   4.069   5.209
 5590SOL    HW217229   2.054   3.960   5.308
 5591SOL     OW17230   3.262   3.831   4.150
 5591SOL    HW117231   3.238   3.794   4.060
 5591SOL    HW217232   3.361   3.847   4.154
 5592SOL     OW17233   2.244   4.424   4.204
 5592SOL    HW117234   2.289   4.334   4.201
 5592SOL    HW217235   2.150   4.413   4.237
 5593SOL     OW17236   3.409   3.946   5.453
 5593SOL    HW117237   3.404   3.983   5.545
 5593SOL    HW217238   3.337   3.877   5.441
 5594SOL     OW17239   2.476   3.846   3.841
 5594SOL    HW117240   2.574   3.824   3.848
 5594SOL    HW217241   2.445   3.829   3.748
 5595SOL     OW17242   2.643   3.988   5.473
 5595SOL    HW117243   2.710   3.927   5.516
 5595SOL    HW217244   2.570   4.007   5.538
 5596SOL     OW17245   3.213   4.314   5.157
 5596SOL    HW117246   3.241   4.271   5.242
 5596SOL    HW217247   3.238   4.410   5.158
 5597SOL     OW17248   2.784   4.227   4.623
 5597SOL    HW117249   2.759   4.218   4.527
 5597SOL    HW217250   2.832   4.145   4.654
 5598SOL     OW17251   2.401   3.788   4.236
 5598SOL    HW117252   2.320   3.789   4.294
 5598SOL    HW217253   2.404   3.871   4.181
 5599SOL     OW17254   2.159   3.759   3.895
 5599SOL    HW117255   2.208   3.843   3.874
 5599SOL    HW217256   2.221   3.694   3.940
 5600SOL     OW17257   2.797   3.960   4.204
 5600SOL    HW117258   2.749   4.001   4.126
 5600SOL    HW217259   2.896   3.958   4.185
 5601SOL     OW17260   2.938   4.407   5.188
 5601SOL    HW117261   2.858   4.346   5.191
 5601SOL    HW217262   3.019   4.354   5.164
 5602SOL     OW17263   2.894   4.273   3.740
 5602SOL    HW117264   2.853   4.355   3.701
 5602SOL    HW217265   2.958   4.299   3.813
 5603SOL     OW17266   1.940   4.280   5.110
 5603SOL    HW117267   2.032   4.279   5.069
 5603SOL    HW217268   1.934   4.354   5.177
 5604SOL     OW17269   2.423   3.946   4.871
 5604SOL    HW117270   2.461   3.862   4.908
 5604SOL    HW217271   2.335   3.965   4.915
 5605SOL     OW17272   2.728   4.178   4.366
 5605SOL    HW117273   2.696   4.250   4.304
 5605SOL    HW217274   2.752   4.097   4.313
 5606SOL     OW17275   2.879   3.763   4.477
 5606SOL    HW117276   2.807   3.768   4.408
 5606SOL    HW217277   2.855   3.694   4.546
 5607SOL     OW17278   3.328   4.314   4.716
 5607SOL    HW117279   3.298   4.219   4.723
 5607SOL    HW217280   3.401   4.330   4.782
 5608SOL     OW17281   3.252   4.299   3.802
 5608SOL    HW117282   3.198   4.278   3.883
 5608SOL    HW217283   3.343   4.258   3.811
 5609SOL     OW17284   2.389   3.980   4.052
 5609SOL    HW117285   2.416   3.921   3.977
 5609SOL    HW217286   2.389   4.075   4.021
 5610SOL     OW17287   2.777   3.813   5.126
 5610SOL    HW117288   2.802   3.793   5.031
 5610SOL    HW217289   2.849   3.869   5.168
 5611SOL     OW17290   2.272   4.537   4.975
 5611SOL    HW117291   2.358   4.549   5.025
 5611SOL    HW217292   2.230   4.450   5.002
 5612SOL     OW17293   3.136   4.110   4.986
 5612SOL    HW117294   3.157   4.184   5.050
 5612SOL    HW217295   3.047   4.127   4.943
 5613SOL     OW17296   2.428   4.261   4.589
 5613SOL    HW117297   2.440   4.327   4.515
 5613SOL    HW217298   2.474   4.295   4.672
 5614SOL     OW17299   3.444   4.363   4.196
 5614SOL    HW117300   3.413   4.424   4.269
 5614SOL    HW217301   3.494   4.415   4.127
 5615SOL     OW17302   2.875   3.829   5.494
 5615SOL    HW117303   2.881   3.914   5.442
 5615SOL    HW217304   2.907   3.753   5.437
 5616SOL     OW17305   2.366   3.774   5.464
 5616SOL    HW117306   2.324   3.717   5.394
 5616SOL    HW217307   2.300   3.843   5.496
 5617SOL     OW17308   3.071   4.249   3.999
 5617SOL    HW117309   3.084   4.165   4.053
 5617SOL    HW217310   3.042   4.323   4.059
 5618SOL     OW17311   2.169   3.937   4.955
 5618SOL    HW117312   2.146   3.974   5.045
 5618SOL    HW217313   2.139   3.842   4.949
 5619SOL     OW17314   2.594   4.358   4.788
 5619SOL    HW117315   2.653   4.332   4.712
 5619SOL    HW217316   2.566   4.454   4.777
 5620SOL     OW17317   3.590   4.659   5.578
 5620SOL    HW117318   3.544   4.652   5.489
 5620SOL    HW217319   3.528   4.703   5.644
 5621SOL     OW17320   2.169   3.787   4.342
 5621SOL    HW117321   2.158   3.881   4.375
 5621SOL    HW217322   2.164   3.724   4.419
 5622SOL     OW17323   3.484   4.091   4.098
 5622SOL    HW117324   3.486   4.015   4.162
 5622SOL    HW217325   3.436   4.168   4.138
 5623SOL     OW17326   3.402   3.998   3.849
 5623SOL    HW117327   3.341   3.923   3.872
 5623SOL    HW217328   3.424   4.050   3.932
 5624SOL     OW17329   2.181   4.534   4.673
 5624SOL    HW117330   2.274   4.570   4.678
 5624SOL    HW217331   2.175   4.449   4.725
 5625SOL     OW17332   2.201   4.233   4.730
 5625SOL    HW117333   2.149   4.150   4.713
 5625SOL    HW217334   2.278   4.238   4.666
 5626SOL     OW17335   3.000   4.104   5.402
 5626SOL    HW117336   2.955   4.167   5.466
 5626SOL    HW217337   3.093   4.135   5.385
 5627SOL     OW17338   3.022   3.931   5.201
 5627SOL    HW117339   3.022   3.995   5.278
 5627SOL    HW217340   3.050   3.979   5.118
 5628SOL     OW17341   1.902   4.268   4.838
 5628SOL    HW117342   1.987   4.235   4.797
 5628SOL    HW217343   1.915   4.283   4.936
 5629SOL     OW17344   2.051   4.244   5.446
 5629SOL    HW117345   2.110   4.204   5.376
 5629SOL    HW217346   1.993   4.315   5.405
 5630SOL     OW17347   2.677   4.296   4.049
 5630SOL    HW117348   2.684   4.207   4.003
 5630SOL    HW217349   2.583   4.330   4.041
 5631SOL     OW17350   3.519   4.328   4.930
 5631SOL    HW117351   3.481   4.259   4.992
 5631SOL    HW217352   3.601   4.292   4.886
 5632SOL     OW17353   2.533   4.188   4.993
 5632SOL    HW117354   2.499   4.099   4.963
 5632SOL    HW217355   2.559   4.242   4.913
 5633SOL     OW17356   2.335   4.224   3.915
 5633SOL    HW117357   2.396   4.304   3.919
 5633SOL    HW217358   2.240   4.255   3.922
 5634SOL     OW17359   3.588   3.859   4.247
 5634SOL    HW117360   3.661   3.842   4.180
 5634SOL    HW217361   3.557   3.772   4.285
 5635SOL     OW17362   3.142   4.651   4.396
 5635SOL    HW117363   3.202   4.570   4.398
 5635SOL    HW217364   3.182   4.720   4.336
 5636SOL     OW17365   3.703   3.899   4.687
 5636SOL    HW117366   3.742   3.814   4.651
 5636SOL    HW217367   3.605   3.901   4.668
 5637SOL     OW17368   2.125   4.050   4.444
 5637SOL    HW117369   2.046   4.101   4.410
 5637SOL    HW217370   2.116   4.035   4.542
 5638SOL     OW17371   2.778   4.634   4.015
 5638SOL    HW117372   2.841   4.672   3.947
 5638SOL    HW217373   2.818   4.551   4.054
 5639SOL     OW17374   2.901   4.822   4.420
 5639SOL    HW117375   2.831   4.775   4.474
 5639SOL    HW217376   2.960   4.754   4.377
 5640SOL     OW17377   2.876   3.960   4.695
 5640SOL    HW117378   2.868   3.924   4.602
 5640SOL    HW217379   2.874   3.884   4.760
 5641SOL     OW17380   3.571   4.109   5.105
 5641SOL    HW117381   3.644   4.178   5.109
 5641SOL    HW217382   3.599   4.034   5.046
 5642SOL     OW17383   2.534   3.927   5.213
 5642SOL    HW117384   2.624   3.911   5.173
 5642SOL    HW217385   2.542   3.932   5.312
 5643SOL     OW17386   1.937   4.069   3.757
 5643SOL    HW117387   1.845   4.041   3.728
 5643SOL    HW217388   1.968   4.146   3.701
 5644SOL     OW17389   1.934   3.890   4.042
 5644SOL    HW117390   1.917   3.973   3.988
 5644SOL    HW217391   2.024   3.853   4.020
 5645SOL     OW17392   2.578   4.289   5.432
 5645SOL    HW117393   2.597   4.354   5.506
 5645SOL    HW217394   2.638   4.209   5.441
 5646SOL     OW17395   3.087   4.049   4.173
 5646SOL    HW117396   3.152   3.975   4.162
 5646SOL    HW217397   3.107   4.099   4.257
 5647SOL     OW17398   3.639   4.066   5.366
 5647SOL    HW117399   3.622   4.097   5.272
 5647SOL    HW217400   3.555   4.029   5.404
 5648SOL     OW17401   2.945   4.708   3.811
 5648SOL    HW117402   2.922   4.761   3.729
 5648SOL    HW217403   3.026   4.652   3.792
 5649SOL     OW17404   3.686   3.916   4.951
 5649SOL    HW117405   3.682   3.826   4.995
 5649SOL    HW217406   3.689   3.905   4.852
 5650SOL     OW17407   2.290   4.148   4.244
 5650SOL    HW117408   2.320   4.076   4.182
 5650SOL    HW217409   2.251   4.108   4.327
 5651SOL     OW17410   2.179   4.271   5.004
 5651SOL    HW117411   2.217   4.212   5.076
 5651SOL    HW217412   2.219   4.245   4.916
 5652SOL     OW17413   3.286   3.938   4.836
 5652SOL    HW117414   3.338   3.873   4.891
 5652SOL    HW217415   3.237   4.001   4.897
 5653SOL     OW17416   2.863   3.758   4.878
 5653SOL    HW117417   2.800   3.686   4.847
 5653SOL    HW217418   2.956   3.722   4.878
 5654SOL     OW17419   3.214   3.776   3.892
 5654SOL    HW117420   3.249   3.735   3.808
 5654SOL    HW217421   3.124   3.738   3.912
 5655SOL     OW17422   3.162   4.177   4.415
 5655SOL    HW117423   3.103   4.257   4.419
 5655SOL    HW217424   3.177   4.142   4.508
 5656SOL     OW17425   3.455   3.945   4.606
 5656SOL    HW117426   3.371   3.944   4.660
 5656SOL    HW217427   3.457   4.028   4.550
 5657SOL     OW17428   2.092   4.352   5.699
 5657SOL    HW117429   1.999   4.350   5.736
 5657SOL    HW217430   2.093   4.313   5.607
 5658SOL     OW17431   2.087   3.999   6.582
 5658SOL    HW117432   2.122   3.982   6.674
 5658SOL    HW217433   1.999   3.954   6.570
 5659SOL     OW17434   1.881   4.092   6.233
 5659SOL    HW117435   1.799   4.135   6.272
 5659SOL    HW217436   1.853   4.019   6.170
 5660SOL     OW17437   3.617   4.331   5.817
 5660SOL    HW117438   3.605   4.318   5.718
 5660SOL    HW217439   3.587   4.250   5.866
 5661SOL     OW17440   2.547   4.736   6.251
 5661SOL    HW117441   2.616   4.720   6.321
 5661SOL    HW217442   2.474   4.793   6.289
 5662SOL     OW17443   2.300   4.116   7.085
 5662SOL    HW117444   2.382   4.060   7.094
 5662SOL    HW217445   2.219   4.058   7.089
 5663SOL     OW17446   3.465   4.171   6.323
 5663SOL    HW117447   3.391   4.217   6.273
 5663SOL    HW217448   3.516   4.239   6.376
 5664SOL     OW17449   3.456   3.838   7.066
 5664SOL    HW117450   3.438   3.905   6.994
 5664SOL    HW217451   3.453   3.884   7.155
 5665SOL     OW17452   1.984   4.367   6.149
 5665SOL    HW117453   1.939   4.279   6.166
 5665SOL    HW217454   1.983   4.421   6.233
 5666SOL     OW17455   1.975   4.461   7.183
 5666SOL    HW117456   2.063   4.448   7.228
 5666SOL    HW217457   1.962   4.558   7.161
 5667SOL     OW17458   2.671   3.728   6.088
 5667SOL    HW117459   2.711   3.819   6.079
 5667SOL    HW217460   2.571   3.736   6.094
 5668SOL     OW17461   2.179   3.975   7.387
 5668SOL    HW117462   2.250   4.046   7.393
 5668SOL    HW217463   2.091   4.014   7.415
 5669SOL     OW17464   3.143   4.069   6.530
 5669SOL    HW117465   3.057   4.019   6.517
 5669SOL    HW217466   3.205   4.015   6.586
 5670SOL     OW17467   2.669   4.329   7.051
 5670SOL    HW117468   2.622   4.326   7.140
 5670SOL    HW217469   2.618   4.274   6.985
 5671SOL     OW17470   3.256   4.193   7.260
 5671SOL    HW117471   3.236   4.236   7.348
 5671SOL    HW217472   3.334   4.131   7.269
 5672SOL     OW17473   2.853   4.134   6.828
 5672SOL    HW117474   2.776   4.168   6.882
 5672SOL    HW217475   2.819   4.083   6.749
 5673SOL     OW17476   2.903   4.425   6.015
 5673SOL    HW117477   2.929   4.421   6.111
 5673SOL    HW217478   2.818   4.374   6.001
 5674SOL     OW17479   2.727   4.072   5.781
 5674SOL    HW117480   2.786   4.135   5.732
 5674SOL    HW217481   2.746   3.978   5.752
 5675SOL     OW17482   3.581   4.309   7.417
 5675SOL    HW117483   3.555   4.398   7.381
 5675SOL    HW217484   3.579   4.241   7.344
 5676SOL     OW17485   2.412   3.920   6.471
 5676SOL    HW117486   2.407   3.915   6.571
 5676SOL    HW217487   2.414   4.016   6.442
 5677SOL     OW17488   3.320   4.459   6.314
 5677SOL    HW117489   3.315   4.394   6.389
 5677SOL    HW217490   3.400   4.518   6.327
 5678SOL     OW17491   2.064   4.009   7.084
 5678SOL    HW117492   1.984   4.069   7.071
 5678SOL    HW217493   2.054   3.960   7.170
 5679SOL     OW17494   3.262   3.831   6.012
 5679SOL    HW117495   3.238   3.794   5.922
 5679SOL    HW217496   3.361   3.847   6.016
 5680SOL     OW17497   2.244   4.424   6.066
 5680SOL    HW117498   2.289   4.334   6.063
 5680SOL    HW217499   2.150   4.413   6.099
 5681SOL     OW17500   3.409   3.946   7.315
 5681SOL    HW117501   3.404   3.983   7.407
 5681SOL    HW217502   3.337   3.877   7.303
 5682SOL     OW17503   2.476   3.846   5.703
 5682SOL    HW117504   2.574   3.824   5.710
 5682SOL    HW217505   2.445   3.829   5.610
 5683SOL     OW17506   2.643   3.988   7.335
 5683SOL    HW117507   2.710   3.927   7.378
 5683SOL    HW217508   2.570   4.007   7.400
 5684SOL     OW17509   3.213   4.314   7.019
 5684SOL    HW117510   3.241   4.271   7.104
 5684SOL    HW217511   3.238   4.410   7.020
 5685SOL     OW17512   2.784   4.227   6.485
 5685SOL    HW117513   2.759   4.218   6.389
 5685SOL    HW217514   2.832   4.145   6.516
 5686SOL     OW17515   2.401   3.788   6.098
 5686SOL    HW117516   2.320   3.789   6.156
 5686SOL    HW217517   2.404   3.871   6.043
 5687SOL     OW17518   2.159   3.759   5.757
 5687SOL    HW117519   2.208   3.843   5.736
 5687SOL    HW217520   2.221   3.694   5.802
 5688SOL     OW17521   2.797   3.960   6.066
 5688SOL    HW117522   2.749   4.001   5.988
 5688SOL    HW217523   2.896   3.958   6.047
 5689SOL     OW17524   2.938   4.407   7.050
 5689SOL    HW117525   2.858   4.346   7.053
 5689SOL    HW217526   3.019   4.354   7.026
 5690SOL     OW17527   2.894   4.273   5.602
 5690SOL    HW117528   2.853   4.355   5.563
 5690SOL    HW217529   2.958   4.299   5.675
 5691SOL     OW17530   1.940   4.280   6.972
 5691SOL    HW117531   2.032   4.279   6.931
 5691SOL    HW217532   1.934   4.354   7.039
 5692SOL     OW17533   2.423   3.946   6.733
 5692SOL    HW117534   2.461   3.862   6.770
 5692SOL    HW217535   2.335   3.965   6.777
 5693SOL     OW17536   2.728   4.178   6.228
 5693SOL    HW117537   2.696   4.250   6.166
 5693SOL    HW217538   2.752   4.097   6.175
 5694SOL     OW17539   2.879   3.763   6.339
 5694SOL    HW117540   2.807   3.768   6.270
 5694SOL    HW217541   2.855   3.694   6.408
 5695SOL     OW17542   3.328   4.314   6.578
 5695SOL    HW117543   3.298   4.219   6.585
 5695SOL    HW217544   3.401   4.330   6.644
 5696SOL     OW17545   3.252   4.299   5.664
 5696SOL    HW117546   3.198   4.278   5.745
 5696SOL    HW217547   3.343   4.258   5.673
 5697SOL     OW17548   2.389   3.980   5.914
 5697SOL    HW117549   2.416   3.921   5.839
 5697SOL    HW217550   2.389   4.075   5.883
 5698SOL     OW17551   2.777   3.813   6.988
 5698SOL    HW117552   2.802   3.793   6.893
 5698SOL    HW217553   2.849   3.869   7.030
 5699SOL     OW17554   2.272   4.537   6.837
 5699SOL    HW117555   2.358   4.549   6.887
 5699SOL    HW217556   2.230   4.450   6.864
 5700SOL     OW17557   3.136   4.110   6.848
 5700SOL    HW117558   3.157   4.184   6.912
 5700SOL    HW217559   3.047   4.127   6.805
 5701SOL     OW17560   2.428   4.261   6.451
 5701SOL    HW117561   2.440   4.327   6.377
 5701SOL    HW217562   2.474   4.295   6.534
 5702SOL     OW17563   3.444   4.363   6.058
 5702SOL    HW117564   3.413   4.424   6.131
 5702SOL    HW217565   3.494   4.415   5.989
 5703SOL     OW17566   2.875   3.829   7.356
 5703SOL    HW117567   2.881   3.914   7.304
 5703SOL    HW217568   2.907   3.753   7.299
 5704SOL     OW17569   2.366   3.774   7.326
 5704SOL    HW117570   2.324   3.717   7.256
 5704SOL    HW217571   2.300   3.843   7.358
 5705SOL     OW17572   3.071   4.249   5.861
 5705SOL    HW117573   3.084   4.165   5.915
 5705SOL    HW217574   3.042   4.323   5.921
 5706SOL     OW17575   2.169   3.937   6.817
 5706SOL    HW117576   2.146   3.974   6.907
 5706SOL    HW217577   2.139   3.842   6.811
 5707SOL     OW17578   2.594   4.358   6.650
 5707SOL    HW117579   2.653   4.332   6.574
 5707SOL    HW217580   2.566   4.454   6.639
 5708SOL     OW17581   3.590   4.659   7.440
 5708SOL    HW117582   3.544   4.652   7.351
 5708SOL    HW217583   3.528   4.703   7.506
 5709SOL     OW17584   2.169   3.787   6.204
 5709SOL    HW117585   2.158   3.881   6.237
 5709SOL    HW217586   2.164   3.724   6.281
 5710SOL     OW17587   3.484   4.091   5.960
 5710SOL    HW117588   3.486   4.015   6.024
 5710SOL    HW217589   3.436   4.168   6.000
 5711SOL     OW17590   3.402   3.998   5.711
 5711SOL    HW117591   3.341   3.923   5.734
 5711SOL    HW217592   3.424   4.050   5.794
 5712SOL     OW17593   2.181   4.534   6.535
 5712SOL    HW117594   2.274   4.570   6.540
 5712SOL    HW217595   2.175   4.449   6.587
 5713SOL     OW17596   2.201   4.233   6.592
 5713SOL    HW117597   2.149   4.150   6.575
 5713SOL    HW217598   2.278   4.238   6.528
 5714SOL     OW17599   3.000   4.104   7.264
 5714SOL    HW117600   2.955   4.167   7.328
 5714SOL    HW217601   3.093   4.135   7.247
 5715SOL     OW17602   3.022   3.931   7.063
 5715SOL    HW117603   3.022   3.995   7.140
 5715SOL    HW217604   3.050   3.979   6.980
 5716SOL     OW17605   1.902   4.268   6.700
 5716SOL    HW117606   1.987   4.235   6.659
 5716SOL    HW217607   1.915   4.283   6.798
 5717SOL     OW17608   2.051   4.244   7.308
 5717SOL    HW117609   2.110   4.204   7.238
 5717SOL    HW217610   1.993   4.315   7.267
 5718SOL     OW17611   2.677   4.296   5.911
 5718SOL    HW117612   2.684   4.207   5.865
 5718SOL    HW217613   2.583   4.330   5.903
 5719SOL     OW17614   3.519   4.328   6.792
 5719SOL    HW117615   3.481   4.259   6.854
 5719SOL    HW217616   3.601   4.292   6.748
 5720SOL     OW17617   2.533   4.188   6.855
 5720SOL    HW117618   2.499   4.099   6.825
 5720SOL    HW217619   2.559   4.242   6.775
 5721SOL     OW17620   2.335   4.224   5.777
 5721SOL    HW117621   2.396   4.304   5.781
 5721SOL    HW217622   2.240   4.255   5.784
 5722SOL     OW17623   3.588   3.859   6.109
 5722SOL    HW117624   3.661   3.842   6.042
 5722SOL    HW217625   3.557   3.772   6.147
 5723SOL     OW17626   3.142   4.651   6.258
 5723SOL    HW117627   3.202   4.570   6.260
 5723SOL    HW217628   3.182   4.720   6.198
 5724SOL     OW17629   3.703   3.899   6.549
 5724SOL    HW117630   3.742   3.814   6.513
 5724SOL    HW217631   3.605   3.901   6.530
 5725SOL     OW17632   2.125   4.050   6.306
 5725SOL    HW117633   2.046   4.101   6.272
 5725SOL    HW217634   2.116   4.035   6.404
 5726SOL     OW17635   2.778   4.634   5.877
 5726SOL    HW117636   2.841   4.672   5.809
 5726SOL    HW217637   2.818   4.551   5.916
 5727SOL     OW17638   2.901   4.822   6.282
 5727SOL    HW117639   2.831   4.775   6.336
 5727SOL    HW217640   2.960   4.754   6.239
 5728SOL     OW17641   2.876   3.960   6.557
 5728SOL    HW117642   2.868   3.924   6.464
 5728SOL    HW217643   2.874   3.884   6.622
 5729SOL     OW17644   3.571   4.109   6.967
 5729SOL    HW117645   3.644   4.178   6.971
 5729SOL    HW217646   3.599   4.034   6.908
 5730SOL     OW17647   2.534   3.927   7.075
 5730SOL    HW117648   2.624   3.911   7.035
 5730SOL    HW217649   2.542   3.932   7.174
 5731SOL     OW17650   1.937   4.069   5.619
 5731SOL    HW117651   1.845   4.041   5.590
 5731SOL    HW217652   1.968   4.146   5.563
 5732SOL     OW17653   1.934   3.890   5.904
 5732SOL    HW117654   1.917   3.973   5.850
 5732SOL    HW217655   2.024   3.853   5.882
 5733SOL     OW17656   2.578   4.289   7.294
 5733SOL    HW117657   2.597   4.354   7.368
 5733SOL    HW217658   2.638   4.209   7.303
 5734SOL     OW17659   3.087   4.049   6.035
 5734SOL    HW117660   3.152   3.975   6.024
 5734SOL    HW217661   3.107   4.099   6.119
 5735SOL     OW17662   3.639   4.066   7.228
 5735SOL    HW117663   3.622   4.097   7.134
 5735SOL    HW217664   3.555   4.029   7.266
 5736SOL     OW17665   2.945   4.708   5.673
 5736SOL    HW117666   2.922   4.761   5.591
 5736SOL    HW217667   3.026   4.652   5.654
 5737SOL     OW17668   3.686   3.916   6.813
 5737SOL    HW117669   3.682   3.826   6.857
 5737SOL    HW217670   3.689   3.905   6.714
 5738SOL     OW17671   2.290   4.148   6.106
 5738SOL    HW117672   2.320   4.076   6.044
 5738SOL    HW217673   2.251   4.108   6.189
 5739SOL     OW17674   2.179   4.271   6.866
 5739SOL    HW117675   2.217   4.212   6.938
 5739SOL    HW217676   2.219   4.245   6.778
 5740SOL     OW17677   3.286   3.938   6.698
 5740SOL    HW117678   3.338   3.873   6.753
 5740SOL    HW217679   3.237   4.001   6.759
 5741SOL     OW17680   2.863   3.758   6.740
 5741SOL    HW117681   2.800   3.686   6.709
 5741SOL    HW217682   2.956   3.722   6.740
 5742SOL     OW17683   3.214   3.776   5.754
 5742SOL    HW117684   3.249   3.735   5.670
 5742SOL    HW217685   3.124   3.738   5.774
 5743SOL     OW17686   3.162   4.177   6.277
 5743SOL    HW117687   3.103   4.257   6.281
 5743SOL    HW217688   3.177   4.142   6.370
 5744SOL     OW17689   3.455   3.945   6.468
 5744SOL    HW117690   3.371   3.944   6.522
 5744SOL    HW217691   3.457   4.028   6.412
 5745SOL     OW17692   2.092   4.352   7.561
 5745SOL    HW117693   1.999   4.350   7.598
 5745SOL    HW217694   2.093   4.313   7.469
 5746SOL     OW17695   2.087   3.999   8.444
 5746SOL    HW117696   2.122   3.982   8.536
 5746SOL    HW217697   1.999   3.954   8.432
 5747SOL     OW17698   1.881   4.092   8.095
 5747SOL    HW117699   1.799   4.135   8.134
 5747SOL    HW217700   1.853   4.019   8.032
 5748SOL     OW17701   3.617   4.331   7.679
 5748SOL    HW117702   3.605   4.318   7.580
 5748SOL    HW217703   3.587   4.250   7.728
 5749SOL     OW17704   2.547   4.736   8.113
 5749SOL    HW117705   2.616   4.720   8.183
 5749SOL    HW217706   2.474   4.793   8.151
 5750SOL     OW17707   2.300   4.116   8.947
 5750SOL    HW117708   2.382   4.060   8.956
 5750SOL    HW217709   2.219   4.058   8.951
 5751SOL     OW17710   3.465   4.171   8.185
 5751SOL    HW117711   3.391   4.217   8.135
 5751SOL    HW217712   3.516   4.239   8.238
 5752SOL     OW17713   3.456   3.838   8.928
 5752SOL    HW117714   3.438   3.905   8.856
 5752SOL    HW217715   3.453   3.884   9.017
 5753SOL     OW17716   1.984   4.367   8.011
 5753SOL    HW117717   1.939   4.279   8.028
 5753SOL    HW217718   1.983   4.421   8.095
 5754SOL     OW17719   1.975   4.461   9.045
 5754SOL    HW117720   2.063   4.448   9.090
 5754SOL    HW217721   1.962   4.558   9.023
 5755SOL     OW17722   2.671   3.728   7.950
 5755SOL    HW117723   2.711   3.819   7.941
 5755SOL    HW217724   2.571   3.736   7.956
 5756SOL     OW17725   2.179   3.975   9.249
 5756SOL    HW117726   2.250   4.046   9.255
 5756SOL    HW217727   2.091   4.014   9.277
 5757SOL     OW17728   3.143   4.069   8.392
 5757SOL    HW117729   3.057   4.019   8.379
 5757SOL    HW217730   3.205   4.015   8.448
 5758SOL     OW17731   2.669   4.329   8.913
 5758SOL    HW117732   2.622   4.326   9.002
 5758SOL    HW217733   2.618   4.274   8.847
 5759SOL     OW17734   3.256   4.193   9.122
 5759SOL    HW117735   3.236   4.236   9.210
 5759SOL    HW217736   3.334   4.131   9.131
 5760SOL     OW17737   2.853   4.134   8.690
 5760SOL    HW117738   2.776   4.168   8.744
 5760SOL    HW217739   2.819   4.083   8.611
 5761SOL     OW17740   2.903   4.425   7.877
 5761SOL    HW117741   2.929   4.421   7.973
 5761SOL    HW217742   2.818   4.374   7.863
 5762SOL     OW17743   2.727   4.072   7.643
 5762SOL    HW117744   2.786   4.135   7.594
 5762SOL    HW217745   2.746   3.978   7.614
 5763SOL     OW17746   3.581   4.309   9.279
 5763SOL    HW117747   3.555   4.398   9.243
 5763SOL    HW217748   3.579   4.241   9.206
 5764SOL     OW17749   2.412   3.920   8.333
 5764SOL    HW117750   2.407   3.915   8.433
 5764SOL    HW217751   2.414   4.016   8.304
 5765SOL     OW17752   3.320   4.459   8.176
 5765SOL    HW117753   3.315   4.394   8.251
 5765SOL    HW217754   3.400   4.518   8.189
 5766SOL     OW17755   2.064   4.009   8.946
 5766SOL    HW117756   1.984   4.069   8.933
 5766SOL    HW217757   2.054   3.960   9.032
 5767SOL     OW17758   3.262   3.831   7.874
 5767SOL    HW117759   3.238   3.794   7.784
 5767SOL    HW217760   3.361   3.847   7.878
 5768SOL     OW17761   2.244   4.424   7.928
 5768SOL    HW117762   2.289   4.334   7.925
 5768SOL    HW217763   2.150   4.413   7.961
 5769SOL     OW17764   3.409   3.946   9.177
 5769SOL    HW117765   3.404   3.983   9.269
 5769SOL    HW217766   3.337   3.877   9.165
 5770SOL     OW17767   2.476   3.846   7.565
 5770SOL    HW117768   2.574   3.824   7.572
 5770SOL    HW217769   2.445   3.829   7.472
 5771SOL     OW17770   2.643   3.988   9.197
 5771SOL    HW117771   2.710   3.927   9.240
 5771SOL    HW217772   2.570   4.007   9.262
 5772SOL     OW17773   3.213   4.314   8.881
 5772SOL    HW117774   3.241   4.271   8.966
 5772SOL    HW217775   3.238   4.410   8.882
 5773SOL     OW17776   2.784   4.227   8.347
 5773SOL    HW117777   2.759   4.218   8.251
 5773SOL    HW217778   2.832   4.145   8.378
 5774SOL     OW17779   2.401   3.788   7.960
 5774SOL    HW117780   2.320   3.789   8.018
 5774SOL    HW217781   2.404   3.871   7.905
 5775SOL     OW17782   2.159   3.759   7.619
 5775SOL    HW117783   2.208   3.843   7.598
 5775SOL    HW217784   2.221   3.694   7.664
 5776SOL     OW17785   2.797   3.960   7.928
 5776SOL    HW117786   2.749   4.001   7.850
 5776SOL    HW217787   2.896   3.958   7.909
 5777SOL     OW17788   2.938   4.407   8.912
 5777SOL    HW117789   2.858   4.346   8.915
 5777SOL    HW217790   3.019   4.354   8.888
 5778SOL     OW17791   2.894   4.273   7.464
 5778SOL    HW117792   2.853   4.355   7.425
 5778SOL    HW217793   2.958   4.299   7.537
 5779SOL     OW17794   1.940   4.280   8.834
 5779SOL    HW117795   2.032   4.279   8.793
 5779SOL    HW217796   1.934   4.354   8.901
 5780SOL     OW17797   2.423   3.946   8.595
 5780SOL    HW117798   2.461   3.862   8.632
 5780SOL    HW217799   2.335   3.965   8.639
 5781SOL     OW17800   2.728   4.178   8.090
 5781SOL    HW117801   2.696   4.250   8.028
 5781SOL    HW217802   2.752   4.097   8.037
 5782SOL     OW17803   2.879   3.763   8.201
 5782SOL    HW117804   2.807   3.768   8.132
 5782SOL    HW217805   2.855   3.694   8.270
 5783SOL     OW17806   3.328   4.314   8.440
 5783SOL    HW117807   3.298   4.219   8.447
 5783SOL    HW217808   3.401   4.330   8.506
 5784SOL     OW17809   3.252   4.299   7.526
 5784SOL    HW117810   3.198   4.278   7.607
 5784SOL    HW217811   3.343   4.258   7.535
 5785SOL     OW17812   2.389   3.980   7.776
 5785SOL    HW117813   2.416   3.921   7.701
 5785SOL    HW217814   2.389   4.075   7.745
 5786SOL     OW17815   2.777   3.813   8.850
 5786SOL    HW117816   2.802   3.793   8.755
 5786SOL    HW217817   2.849   3.869   8.892
 5787SOL     OW17818   2.272   4.537   8.699
 5787SOL    HW117819   2.358   4.549   8.749
 5787SOL    HW217820   2.230   4.450   8.726
 5788SOL     OW17821   3.136   4.110   8.710
 5788SOL    HW117822   3.157   4.184   8.774
 5788SOL    HW217823   3.047   4.127   8.667
 5789SOL     OW17824   2.428   4.261   8.313
 5789SOL    HW117825   2.440   4.327   8.239
 5789SOL    HW217826   2.474   4.295   8.396
 5790SOL     OW17827   3.444   4.363   7.920
 5790SOL    HW117828   3.413   4.424   7.993
 5790SOL    HW217829   3.494   4.415   7.851
 5791SOL     OW17830   2.875   3.829   9.218
 5791SOL    HW117831   2.881   3.914   9.166
 5791SOL    HW217832   2.907   3.753   9.161
 5792SOL     OW17833   2.366   3.774   9.188
 5792SOL    HW117834   2.324   3.717   9.118
 5792SOL    HW217835   2.300   3.843   9.220
 5793SOL     OW17836   3.071   4.249   7.723
 5793SOL    HW117837   3.084   4.165   7.777
 5793SOL    HW217838   3.042   4.323   7.783
 5794SOL     OW17839   2.169   3.937   8.679
 5794SOL    HW117840   2.146   3.974   8.769
 5794SOL    HW217841   2.139   3.842   8.673
 5795SOL     OW17842   2.594   4.358   8.512
 5795SOL    HW117843   2.653   4.332   8.436
 5795SOL    HW217844   2.566   4.454   8.501
 5796SOL     OW17845   3.590   4.659   9.302
 5796SOL    HW117846   3.544   4.652   9.213
 5796SOL    HW217847   3.528   4.703   9.368
 5797SOL     OW17848   2.169   3.787   8.066
 5797SOL    HW117849   2.158   3.881   8.099
 5797SOL    HW217850   2.164   3.724   8.143
 5798SOL     OW17851   3.484   4.091   7.822
 5798SOL    HW117852   3.486   4.015   7.886
 5798SOL    HW217853   3.436   4.168   7.862
 5799SOL     OW17854   3.402   3.998   7.573
 5799SOL    HW117855   3.341   3.923   7.596
 5799SOL    HW217856   3.424   4.050   7.656
 5800SOL     OW17857   2.181   4.534   8.397
 5800SOL    HW117858   2.274   4.570   8.402
 5800SOL    HW217859   2.175   4.449   8.449
 5801SOL     OW17860   2.201   4.233   8.454
 5801SOL    HW117861   2.149   4.150   8.437
 5801SOL    HW217862   2.278   4.238   8.390
 5802SOL     OW17863   3.000   4.104   9.126
 5802SOL    HW117864   2.955   4.167   9.190
 5802SOL    HW217865   3.093   4.135   9.109
 5803SOL     OW17866   3.022   3.931   8.925
 5803SOL    HW117867   3.022   3.995   9.002
 5803SOL    HW217868   3.050   3.979   8.842
 5804SOL     OW17869   1.902   4.268   8.562
 5804SOL    HW117870   1.987   4.235   8.521
 5804SOL    HW217871   1.915   4.283   8.660
 5805SOL     OW17872   2.051   4.244   9.170
 5805SOL    HW117873   2.110   4.204   9.100
 5805SOL    HW217874   1.993   4.315   9.129
 5806SOL     OW17875   2.677   4.296   7.773
 5806SOL    HW117876   2.684   4.207   7.727
 5806SOL    HW217877   2.583   4.330   7.765
 5807SOL     OW17878   3.519   4.328   8.654
 5807SOL    HW117879   3.481   4.259   8.716
 5807SOL    HW217880   3.601   4.292   8.610
 5808SOL     OW17881   2.533   4.188   8.717
 5808SOL    HW117882   2.499   4.099   8.687
 5808SOL    HW217883   2.559   4.242   8.637
 5809SOL     OW17884   2.335   4.224   7.639
 5809SOL    HW117885   2.396   4.304   7.643
 5809SOL    HW217886   2.240   4.255   7.646
 5810SOL     OW17887   3.588   3.859   7.971
 5810SOL    HW117888   3.661   3.842   7.904
 5810SOL    HW217889   3.557   3.772   8.009
 5811SOL     OW17890   3.142   4.651   8.120
 5811SOL    HW117891   3.202   4.570   8.122
 5811SOL    HW217892   3.182   4.720   8.060
 5812SOL     OW17893   3.703   3.899   8.411
 5812SOL    HW117894   3.742   3.814   8.375
 5812SOL    HW217895   3.605   3.901   8.392
 5813SOL     OW17896   2.125   4.050   8.168
 5813SOL    HW117897   2.046   4.101   8.134
 5813SOL    HW217898   2.116   4.035   8.266
 5814SOL     OW17899   2.778   4.634   7.739
 5814SOL    HW117900   2.841   4.672   7.671
 5814SOL    HW217901   2.818   4.551   7.778
 5815SOL     OW17902   2.901   4.822   8.144
 5815SOL    HW117903   2.831   4.775   8.198
 5815SOL    HW217904   2.960   4.754   8.101
 5816SOL     OW17905   2.876   3.960   8.419
 5816SOL    HW117906   2.868   3.924   8.326
 5816SOL    HW217907   2.874   3.884   8.484
 5817SOL     OW17908   3.571   4.109   8.829
 5817SOL    HW117909   3.644   4.178   8.833
 5817SOL    HW217910   3.599   4.034   8.770
 5818SOL     OW17911   2.534   3.927   8.937
 5818SOL    HW117912   2.624   3.911   8.897
 5818SOL    HW217913   2.542   3.932   9.036
 5819SOL     OW17914   1.937   4.069   7.481
 5819SOL    HW117915   1.845   4.041   7.452
 5819SOL    HW217916   1.968   4.146   7.425
 5820SOL     OW17917   1.934   3.890   7.766
 5820SOL    HW117918   1.917   3.973   7.712
 5820SOL    HW217919   2.024   3.853   7.744
 5821SOL     OW17920   2.578   4.289   9.156
 5821SOL    HW117921   2.597   4.354   9.230
 5821SOL    HW217922   2.638   4.209   9.165
 5822SOL     OW17923   3.087   4.049   7.897
 5822SOL    HW117924   3.152   3.975   7.886
 5822SOL    HW217925   3.107   4.099   7.981
 5823SOL     OW17926   3.639   4.066   9.090
 5823SOL    HW117927   3.622   4.097   8.996
 5823SOL    HW217928   3.555   4.029   9.128
 5824SOL     OW17929   2.945   4.708   7.535
 5824SOL    HW117930   2.922   4.761   7.453
 5824SOL    HW217931   3.026   4.652   7.516
 5825SOL     OW17932   3.686   3.916   8.675
 5825SOL    HW117933   3.682   3.826   8.719
 5825SOL    HW217934   3.689   3.905   8.576
 5826SOL     OW17935   2.290   4.148   7.968
 5826SOL    HW117936   2.320   4.076   7.906
 5826SOL    HW217937   2.251   4.108   8.051
 5827SOL     OW17938   2.179   4.271   8.728
 5827SOL    HW117939   2.217   4.212   8.800
 5827SOL    HW217940   2.219   4.245   8.640
 5828SOL     OW17941   3.286   3.938   8.560
 5828SOL    HW117942   3.338   3.873   8.615
 5828SOL    HW217943   3.237   4.001   8.621
 5829SOL     OW17944   2.863   3.758   8.602
 5829SOL    HW117945   2.800   3.686   8.571
 5829SOL    HW217946   2.956   3.722   8.602
 5830SOL     OW17947   3.214   3.776   7.616
 5830SOL    HW117948   3.249   3.735   7.532
 5830SOL    HW217949   3.124   3.738   7.636
 5831SOL     OW17950   3.162   4.177   8.139
 5831SOL    HW117951   3.103   4.257   8.143
 5831SOL    HW217952   3.177   4.142   8.232
 5832SOL     OW17953   3.455   3.945   8.330
 5832SOL    HW117954   3.371   3.944   8.384
 5832SOL    HW217955   3.457   4.028   8.274
 5833SOL     OW17956   2.092   4.352   9.423
 5833SOL    HW117957   1.999   4.350   9.460
 5833SOL    HW217958   2.093   4.313   9.331
 5834SOL     OW17959   2.087   3.999  10.306
 5834SOL    HW117960   2.122   3.982  10.398
 5834SOL    HW217961   1.999   3.954  10.294
 5835SOL     OW17962   1.881   4.092   9.957
 5835SOL    HW117963   1.799   4.135   9.996
 5835SOL    HW217964   1.853   4.019   9.894
 5836SOL     OW17965   3.617   4.331   9.541
 5836SOL    HW117966   3.605   4.318   9.442
 5836SOL    HW217967   3.587   4.250   9.590
 5837SOL     OW17968   2.547   4.736   9.975
 5837SOL    HW117969   2.616   4.720  10.045
 5837SOL    HW217970   2.474   4.793  10.013
 5838SOL     OW17971   2.300   4.116  10.809
 5838SOL    HW117972   2.382   4.060  10.818
 5838SOL    HW217973   2.219   4.058  10.813
 5839SOL     OW17974   3.465   4.171  10.047
 5839SOL    HW117975   3.391   4.217   9.997
 5839SOL    HW217976   3.516   4.239  10.100
 5840SOL     OW17977   3.456   3.838  10.790
 5840SOL    HW117978   3.438   3.905  10.718
 5840SOL    HW217979   3.453   3.884  10.879
 5841SOL     OW17980   1.984   4.367   9.873
 5841SOL    HW117981   1.939   4.279   9.890
 5841SOL    HW217982   1.983   4.421   9.957
 5842SOL     OW17983   1.975   4.461  10.907
 5842SOL    HW117984   2.063   4.448  10.952
 5842SOL    HW217985   1.962   4.558  10.885
 5843SOL     OW17986   2.671   3.728   9.812
 5843SOL    HW117987   2.711   3.819   9.803
 5843SOL    HW217988   2.571   3.736   9.818
 5844SOL     OW17989   2.179   3.975  11.111
 5844SOL    HW117990   2.250   4.046  11.117
 5844SOL    HW217991   2.091   4.014  11.139
 5845SOL     OW17992   3.143   4.069  10.254
 5845SOL    HW117993   3.057   4.019  10.241
 5845SOL    HW217994   3.205   4.015  10.310
 5846SOL     OW17995   2.669   4.329  10.775
 5846SOL    HW117996   2.622   4.326  10.864
 5846SOL    HW217997   2.618   4.274  10.709
 5847SOL     OW17998   2.853   4.134  10.552
 5847SOL    HW117999   2.776   4.168  10.606
 5847SOL    HW218000   2.819   4.083  10.473
 5848SOL     OW18001   2.903   4.425   9.739
 5848SOL    HW118002   2.929   4.421   9.835
 5848SOL    HW218003   2.818   4.374   9.725
 5849SOL     OW18004   2.727   4.072   9.505
 5849SOL    HW118005   2.786   4.135   9.456
 5849SOL    HW218006   2.746   3.978   9.476
 5850SOL     OW18007   2.412   3.920  10.195
 5850SOL    HW118008   2.407   3.915  10.295
 5850SOL    HW218009   2.414   4.016  10.166
 5851SOL     OW18010   3.320   4.459  10.038
 5851SOL    HW118011   3.315   4.394  10.113
 5851SOL    HW218012   3.400   4.518  10.051
 5852SOL     OW18013   2.064   4.009  10.808
 5852SOL    HW118014   1.984   4.069  10.795
 5852SOL    HW218015   2.054   3.960  10.894
 5853SOL     OW18016   3.262   3.831   9.736
 5853SOL    HW118017   3.238   3.794   9.646
 5853SOL    HW218018   3.361   3.847   9.740
 5854SOL     OW18019   2.244   4.424   9.790
 5854SOL    HW118020   2.289   4.334   9.787
 5854SOL    HW218021   2.150   4.413   9.823
 5855SOL     OW18022   2.476   3.846   9.427
 5855SOL    HW118023   2.574   3.824   9.434
 5855SOL    HW218024   2.445   3.829   9.334
 5856SOL     OW18025   2.643   3.988  11.059
 5856SOL    HW118026   2.710   3.927  11.102
 5856SOL    HW218027   2.570   4.007  11.124
 5857SOL     OW18028   3.213   4.314  10.743
 5857SOL    HW118029   3.241   4.271  10.828
 5857SOL    HW218030   3.238   4.410  10.744
 5858SOL     OW18031   2.784   4.227  10.209
 5858SOL    HW118032   2.759   4.218  10.113
 5858SOL    HW218033   2.832   4.145  10.240
 5859SOL     OW18034   2.401   3.788   9.822
 5859SOL    HW118035   2.320   3.789   9.880
 5859SOL    HW218036   2.404   3.871   9.767
 5860SOL     OW18037   2.159   3.759   9.481
 5860SOL    HW118038   2.208   3.843   9.460
 5860SOL    HW218039   2.221   3.694   9.526
 5861SOL     OW18040   2.797   3.960   9.790
 5861SOL    HW118041   2.749   4.001   9.712
 5861SOL    HW218042   2.896   3.958   9.771
 5862SOL     OW18043   2.938   4.407  10.774
 5862SOL    HW118044   2.858   4.346  10.777
 5862SOL    HW218045   3.019   4.354  10.750
 5863SOL     OW18046   2.894   4.273   9.326
 5863SOL    HW118047   2.853   4.355   9.287
 5863SOL    HW218048   2.958   4.299   9.399
 5864SOL     OW18049   1.940   4.280  10.696
 5864SOL    HW118050   2.032   4.279  10.655
 5864SOL    HW218051   1.934   4.354  10.763
 5865SOL     OW18052   2.423   3.946  10.457
 5865SOL    HW118053   2.461   3.862  10.494
 5865SOL    HW218054   2.335   3.965  10.501
 5866SOL     OW18055   2.728   4.178   9.952
 5866SOL    HW118056   2.696   4.250   9.890
 5866SOL    HW218057   2.752   4.097   9.899
 5867SOL     OW18058   2.879   3.763  10.063
 5867SOL    HW118059   2.807   3.768   9.994
 5867SOL    HW218060   2.855   3.694  10.132
 5868SOL     OW18061   3.328   4.314  10.302
 5868SOL    HW118062   3.298   4.219  10.309
 5868SOL    HW218063   3.401   4.330  10.368
 5869SOL     OW18064   3.252   4.299   9.388
 5869SOL    HW118065   3.198   4.278   9.469
 5869SOL    HW218066   3.343   4.258   9.397
 5870SOL     OW18067   2.389   3.980   9.638
 5870SOL    HW118068   2.416   3.921   9.563
 5870SOL    HW218069   2.389   4.075   9.607
 5871SOL     OW18070   2.777   3.813  10.712
 5871SOL    HW118071   2.802   3.793  10.617
 5871SOL    HW218072   2.849   3.869  10.754
 5872SOL     OW18073   2.272   4.537  10.561
 5872SOL    HW118074   2.358   4.549  10.611
 5872SOL    HW218075   2.230   4.450  10.588
 5873SOL     OW18076   3.136   4.110  10.572
 5873SOL    HW118077   3.157   4.184  10.636
 5873SOL    HW218078   3.047   4.127  10.529
 5874SOL     OW18079   2.428   4.261  10.175
 5874SOL    HW118080   2.440   4.327  10.101
 5874SOL    HW218081   2.474   4.295  10.258
 5875SOL     OW18082   3.444   4.363   9.782
 5875SOL    HW118083   3.413   4.424   9.855
 5875SOL    HW218084   3.494   4.415   9.713
 5876SOL     OW18085   2.264   4.475  10.908
 5876SOL    HW118086   2.332   4.530  10.861
 5876SOL    HW218087   2.304   4.387  10.935
 5877SOL     OW18088   3.071   4.249   9.585
 5877SOL    HW118089   3.084   4.165   9.639
 5877SOL    HW218090   3.042   4.323   9.645
 5878SOL     OW18091   2.169   3.937  10.541
 5878SOL    HW118092   2.146   3.974  10.631
 5878SOL    HW218093   2.139   3.842  10.535
 5879SOL     OW18094   2.594   4.358  10.374
 5879SOL    HW118095   2.653   4.332  10.298
 5879SOL    HW218096   2.566   4.454  10.363
 5880SOL     OW18097   2.169   3.787   9.928
 5880SOL    HW118098   2.158   3.881   9.961
 5880SOL    HW218099   2.164   3.724  10.005
 5881SOL     OW18100   3.484   4.091   9.684
 5881SOL    HW118101   3.486   4.015   9.748
 5881SOL    HW218102   3.436   4.168   9.724
 5882SOL     OW18103   3.402   3.998   9.435
 5882SOL    HW118104   3.341   3.923   9.458
 5882SOL    HW218105   3.424   4.050   9.518
 5883SOL     OW18106   2.181   4.534  10.259
 5883SOL    HW118107   2.274   4.570  10.264
 5883SOL    HW218108   2.175   4.449  10.311
 5884SOL     OW18109   2.201   4.233  10.316
 5884SOL    HW118110   2.149   4.150  10.299
 5884SOL    HW218111   2.278   4.238  10.252
 5885SOL     OW18112   3.022   3.931  10.787
 5885SOL    HW118113   3.022   3.995  10.864
 5885SOL    HW218114   3.050   3.979  10.704
 5886SOL     OW18115   1.902   4.268  10.424
 5886SOL    HW118116   1.987   4.235  10.383
 5886SOL    HW218117   1.915   4.283  10.522
 5887SOL     OW18118   3.231   4.674  10.970
 5887SOL    HW118119   3.270   4.763  10.990
 5887SOL    HW218120   3.241   4.654  10.873
 5888SOL     OW18121   2.677   4.296   9.635
 5888SOL    HW118122   2.684   4.207   9.589
 5888SOL    HW218123   2.583   4.330   9.627
 5889SOL     OW18124   3.519   4.328  10.516
 5889SOL    HW118125   3.481   4.259  10.578
 5889SOL    HW218126   3.601   4.292  10.472
 5890SOL     OW18127   2.533   4.188  10.579
 5890SOL    HW118128   2.499   4.099  10.549
 5890SOL    HW218129   2.559   4.242  10.499
 5891SOL     OW18130   2.335   4.224   9.501
 5891SOL    HW118131   2.396   4.304   9.505
 5891SOL    HW218132   2.240   4.255   9.508
 5892SOL     OW18133   3.588   3.859   9.833
 5892SOL    HW118134   3.661   3.842   9.766
 5892SOL    HW218135   3.557   3.772   9.871
 5893SOL     OW18136   3.142   4.651   9.982
 5893SOL    HW118137   3.202   4.570   9.984
 5893SOL    HW218138   3.182   4.720   9.922
 5894SOL     OW18139   3.703   3.899  10.273
 5894SOL    HW118140   3.742   3.814  10.237
 5894SOL    HW218141   3.605   3.901  10.254
 5895SOL     OW18142   2.125   4.050  10.030
 5895SOL    HW118143   2.046   4.101   9.996
 5895SOL    HW218144   2.116   4.035  10.128
 5896SOL     OW18145   2.778   4.634   9.601
 5896SOL    HW118146   2.841   4.672   9.533
 5896SOL    HW218147   2.818   4.551   9.640
 5897SOL     OW18148   2.901   4.822  10.006
 5897SOL    HW118149   2.831   4.775  10.060
 5897SOL    HW218150   2.960   4.754   9.963
 5898SOL     OW18151   2.876   3.960  10.281
 5898SOL    HW118152   2.868   3.924  10.188
 5898SOL    HW218153   2.874   3.884  10.346
 5899SOL     OW18154   3.571   4.109  10.691
 5899SOL    HW118155   3.644   4.178  10.695
 5899SOL    HW218156   3.599   4.034  10.632
 5900SOL     OW18157   2.534   3.927  10.799
 5900SOL    HW118158   2.624   3.911  10.759
 5900SOL    HW218159   2.542   3.932  10.898
 5901SOL     OW18160   1.937   4.069   9.343
 5901SOL    HW118161   1.845   4.041   9.314
 5901SOL    HW218162   1.968   4.146   9.287
 5902SOL     OW18163   1.934   3.890   9.628
 5902SOL    HW118164   1.917   3.973   9.574
 5902SOL    HW218165   2.024   3.853   9.606
 5903SOL     OW18166   2.578   4.289  11.018
 5903SOL    HW118167   2.597   4.354  11.092
 5903SOL    HW218168   2.638   4.209  11.027
 5904SOL     OW18169   3.087   4.049   9.759
 5904SOL    HW118170   3.152   3.975   9.748
 5904SOL    HW218171   3.107   4.099   9.843
 5905SOL     OW18172   3.639   4.066  10.952
 5905SOL    HW118173   3.622   4.097  10.858
 5905SOL    HW218174   3.555   4.029  10.990
 5906SOL     OW18175   2.945   4.708   9.397
 5906SOL    HW118176   2.922   4.761   9.315
 5906SOL    HW218177   3.026   4.652   9.378
 5907SOL     OW18178   3.686   3.916  10.537
 5907SOL    HW118179   3.682   3.826  10.581
 5907SOL    HW218180   3.689   3.905  10.438
 5908SOL     OW18181   2.290   4.148   9.830
 5908SOL    HW118182   2.320   4.076   9.768
 5908SOL    HW218183   2.251   4.108   9.913
 5909SOL     OW18184   2.179   4.271  10.590
 5909SOL    HW118185   2.217   4.212  10.662
 5909SOL    HW218186   2.219   4.245  10.502
 5910SOL     OW18187   3.286   3.938  10.422
 5910SOL    HW118188   3.338   3.873  10.477
 5910SOL    HW218189   3.237   4.001  10.483
 5911SOL     OW18190   2.863   3.758  10.464
 5911SOL    HW118191   2.800   3.686  10.433
 5911SOL    HW218192   2.956   3.722  10.464
 5912SOL     OW18193   3.214   3.776   9.478
 5912SOL    HW118194   3.249   3.735   9.394
 5912SOL    HW218195   3.124   3.738   9.498
 5913SOL     OW18196   3.162   4.177  10.001
 5913SOL    HW118197   3.103   4.257  10.005
 5913SOL    HW218198   3.177   4.142  10.094
 5914SOL     OW18199   3.455   3.945  10.192
 5914SOL    HW118200   3.371   3.944  10.246
 5914SOL    HW218201   3.457   4.028  10.136
 5915SOL     OW18202   3.954   0.628   0.113
 5915SOL    HW118203   3.861   0.626   0.150
 5915SOL    HW218204   3.955   0.589   0.021
 5916SOL     OW18205   3.949   0.275   0.996
 5916SOL    HW118206   3.984   0.258   1.088
 5916SOL    HW218207   3.861   0.230   0.984
 5917SOL     OW18208   3.743   0.368   0.647
 5917SOL    HW118209   3.661   0.411   0.686
 5917SOL    HW218210   3.715   0.295   0.584
 5918SOL     OW18211   4.293   1.275   1.165
 5918SOL    HW118212   4.200   1.268   1.128
 5918SOL    HW218213   4.304   1.364   1.209
 5919SOL     OW18214   4.574   0.798   1.823
 5919SOL    HW118215   4.570   0.874   1.888
 5919SOL    HW218216   4.596   0.834   1.732
 5920SOL     OW18217   4.409   1.012   0.665
 5920SOL    HW118218   4.478   0.996   0.735
 5920SOL    HW218219   4.336   1.069   0.703
 5921SOL     OW18220   4.410   1.161   1.803
 5921SOL    HW118221   4.470   1.240   1.817
 5921SOL    HW218222   4.324   1.192   1.762
 5922SOL     OW18223   4.059   1.435   1.061
 5922SOL    HW118224   3.981   1.404   1.008
 5922SOL    HW218225   4.117   1.493   1.004
 5923SOL     OW18226   4.162   0.392   1.499
 5923SOL    HW118227   4.244   0.336   1.508
 5923SOL    HW218228   4.081   0.334   1.503
 5924SOL     OW18229   3.955   1.713   0.483
 5924SOL    HW118230   3.989   1.790   0.537
 5924SOL    HW218231   3.999   1.713   0.393
 5925SOL     OW18232   3.954   1.434   0.538
 5925SOL    HW118233   3.928   1.530   0.538
 5925SOL    HW218234   3.883   1.380   0.583
 5926SOL     OW18235   3.964   1.091   0.886
 5926SOL    HW118236   3.978   1.007   0.938
 5926SOL    HW218237   3.909   1.155   0.941
 5927SOL     OW18238   4.344   1.786   1.439
 5927SOL    HW118239   4.252   1.769   1.474
 5927SOL    HW218240   4.372   1.878   1.465
 5928SOL     OW18241   4.330   0.964   0.123
 5928SOL    HW118242   4.337   1.048   0.069
 5928SOL    HW218243   4.376   0.977   0.211
 5929SOL     OW18244   3.846   0.643   0.563
 5929SOL    HW118245   3.801   0.555   0.580
 5929SOL    HW218246   3.845   0.697   0.647
 5930SOL     OW18247   3.751   1.596   0.117
 5930SOL    HW118248   3.732   1.500   0.138
 5930SOL    HW218249   3.718   1.654   0.192
 5931SOL     OW18250   3.837   0.737   1.597
 5931SOL    HW118251   3.925   0.724   1.642
 5931SOL    HW218252   3.824   0.834   1.575
 5932SOL     OW18253   4.337   1.365   0.726
 5932SOL    HW118254   4.288   1.278   0.735
 5932SOL    HW218255   4.314   1.408   0.639
 5933SOL     OW18256   4.533   0.004   0.502
 5933SOL    HW118257   4.573   0.095   0.493
 5933SOL    HW218258   4.433   0.012   0.508
 5934SOL     OW18259   3.921   0.976   1.264
 5934SOL    HW118260   4.010   0.931   1.250
 5934SOL    HW218261   3.848   0.911   1.245
 5935SOL     OW18262   4.041   0.251   1.801
 5935SOL    HW118263   4.112   0.322   1.807
 5935SOL    HW218264   3.953   0.290   1.829
 5936SOL     OW18265   4.322   0.729   0.270
 5936SOL    HW118266   4.346   0.798   0.202
 5936SOL    HW218267   4.244   0.762   0.324
 5937SOL     OW18268   3.800   0.811   0.789
 5937SOL    HW118269   3.899   0.799   0.798
 5937SOL    HW218270   3.776   0.906   0.810
 5938SOL     OW18271   3.854   1.821   1.571
 5938SOL    HW118272   3.844   1.806   1.670
 5938SOL    HW218273   3.768   1.857   1.535
 5939SOL     OW18274   4.274   0.196   0.885
 5939SOL    HW118275   4.269   0.191   0.985
 5939SOL    HW218276   4.276   0.292   0.856
 5940SOL     OW18277   4.075   1.801   0.853
 5940SOL    HW118278   4.125   1.715   0.859
 5940SOL    HW218279   4.140   1.878   0.850
 5941SOL     OW18280   4.045   0.943   0.242
 5941SOL    HW118281   4.127   0.982   0.200
 5941SOL    HW218282   4.018   0.861   0.193
 5942SOL     OW18283   4.185   1.266   1.727
 5942SOL    HW118284   4.135   1.267   1.641
 5942SOL    HW218285   4.122   1.248   1.803
 5943SOL     OW18286   3.926   0.285   1.498
 5943SOL    HW118287   3.846   0.345   1.485
 5943SOL    HW218288   3.916   0.236   1.584
 5944SOL     OW18289   4.188   1.743   0.323
 5944SOL    HW118290   4.221   1.782   0.409
 5944SOL    HW218291   4.264   1.736   0.258
 5945SOL     OW18292   3.973   1.785   1.241
 5945SOL    HW118293   4.030   1.720   1.291
 5945SOL    HW218294   3.957   1.752   1.148
 5946SOL     OW18295   4.106   0.700   0.480
 5946SOL    HW118296   4.151   0.610   0.477
 5946SOL    HW218297   4.012   0.689   0.513
 5947SOL     OW18298   4.338   0.122   0.117
 5947SOL    HW118299   4.436   0.100   0.124
 5947SOL    HW218300   4.307   0.105   0.024
 5948SOL     OW18301   4.527   1.402   0.924
 5948SOL    HW118302   4.617   1.416   0.882
 5948SOL    HW218303   4.456   1.404   0.853
 5949SOL     OW18304   4.263   0.064   0.512
 5949SOL    HW118305   4.182   0.065   0.570
 5949SOL    HW218306   4.266   0.147   0.457
 5950SOL     OW18307   4.021   0.035   0.171
 5950SOL    HW118308   4.070   0.119   0.150
 5950SOL    HW218309   4.083  -0.030   0.216
 5951SOL     OW18310   4.800   0.683   1.464
 5951SOL    HW118311   4.720   0.622   1.467
 5951SOL    HW218312   4.881   0.630   1.440
 5952SOL     OW18313   4.183   1.152   0.741
 5952SOL    HW118314   4.112   1.125   0.806
 5952SOL    HW218315   4.157   1.124   0.648
 5953SOL     OW18316   3.802   0.556   1.386
 5953SOL    HW118317   3.894   0.555   1.345
 5953SOL    HW218318   3.796   0.630   1.453
 5954SOL     OW18319   4.285   0.222   1.147
 5954SOL    HW118320   4.323   0.138   1.184
 5954SOL    HW218321   4.197   0.241   1.191
 5955SOL     OW18322   4.212   1.385   0.174
 5955SOL    HW118323   4.125   1.370   0.221
 5955SOL    HW218324   4.195   1.411   0.079
 5956SOL     OW18325   4.251   0.256   0.328
 5956SOL    HW118326   4.278   0.197   0.253
 5956SOL    HW218327   4.251   0.351   0.297
 5957SOL     OW18328   4.134   0.813   1.251
 5957SOL    HW118329   4.220   0.825   1.301
 5957SOL    HW218330   4.092   0.726   1.278
 5958SOL     OW18331   3.788   1.564   1.331
 5958SOL    HW118332   3.742   1.646   1.297
 5958SOL    HW218333   3.886   1.583   1.340
 5959SOL     OW18334   4.091   1.100   0.501
 5959SOL    HW118335   4.084   1.183   0.445
 5959SOL    HW218336   4.095   1.020   0.441
 5960SOL     OW18337   4.290   0.537   0.865
 5960SOL    HW118338   4.302   0.603   0.791
 5960SOL    HW218339   4.336   0.571   0.948
 5961SOL     OW18340   4.078   1.510   1.329
 5961SOL    HW118341   4.057   1.466   1.242
 5961SOL    HW218342   4.175   1.536   1.332
 5962SOL     OW18343   4.126   0.751   1.598
 5962SOL    HW118344   4.194   0.806   1.551
 5962SOL    HW218345   4.166   0.663   1.625
 5963SOL     OW18346   4.228   0.050   1.740
 5963SOL    HW118347   4.186  -0.007   1.670
 5963SOL    HW218348   4.162   0.119   1.772
 5964SOL     OW18349   4.297   0.870   1.029
 5964SOL    HW118350   4.341   0.959   1.020
 5964SOL    HW218351   4.234   0.870   1.106
 5965SOL     OW18352   4.031   0.213   1.231
 5965SOL    HW118353   4.008   0.250   1.321
 5965SOL    HW218354   4.001   0.118   1.225
 5966SOL     OW18355   3.761   1.310   1.282
 5966SOL    HW118356   3.814   1.261   1.350
 5966SOL    HW218357   3.783   1.408   1.287
 5967SOL     OW18358   4.031   0.063   0.618
 5967SOL    HW118359   4.020   0.157   0.651
 5967SOL    HW218360   4.026   0.000   0.695
 5968SOL     OW18361   4.074   0.898   1.804
 5968SOL    HW118362   4.150   0.942   1.852
 5968SOL    HW218363   4.109   0.851   1.722
 5969SOL     OW18364   4.043   0.810   0.949
 5969SOL    HW118365   4.136   0.846   0.954
 5969SOL    HW218366   4.037   0.725   1.001
 5970SOL     OW18367   4.063   0.509   1.006
 5970SOL    HW118368   4.011   0.426   0.989
 5970SOL    HW218369   4.140   0.514   0.942
 5971SOL     OW18370   3.732   1.326   0.200
 5971SOL    HW118371   3.639   1.347   0.169
 5971SOL    HW218372   3.742   1.227   0.213
 5972SOL     OW18373   3.812   1.801   0.927
 5972SOL    HW118374   3.770   1.715   0.900
 5972SOL    HW218375   3.906   1.804   0.893
 5973SOL     OW18376   4.228   1.568   0.910
 5973SOL    HW118377   4.294   1.642   0.919
 5973SOL    HW218378   4.272   1.489   0.868
 5974SOL     OW18379   3.764   0.544   1.114
 5974SOL    HW118380   3.849   0.511   1.073
 5974SOL    HW218381   3.777   0.559   1.212
 5975SOL     OW18382   3.913   0.520   1.722
 5975SOL    HW118383   3.972   0.480   1.652
 5975SOL    HW218384   3.855   0.591   1.681
 5976SOL     OW18385   4.539   0.572   0.325
 5976SOL    HW118386   4.546   0.483   0.279
 5976SOL    HW218387   4.445   0.606   0.317
 5977SOL     OW18388   3.976   1.564   1.744
 5977SOL    HW118389   3.946   1.621   1.820
 5977SOL    HW218390   3.969   1.467   1.770
 5978SOL     OW18391   4.197   0.500   0.191
 5978SOL    HW118392   4.258   0.580   0.195
 5978SOL    HW218393   4.102   0.531   0.198
 5979SOL     OW18394   3.883   1.137   1.466
 5979SOL    HW118395   3.905   1.076   1.542
 5979SOL    HW218396   3.893   1.088   1.380
 5980SOL     OW18397   3.807   1.258   1.022
 5980SOL    HW118398   3.802   1.257   1.122
 5980SOL    HW218399   3.724   1.217   0.984
 5981SOL     OW18400   4.412   1.662   1.716
 5981SOL    HW118401   4.356   1.743   1.725
 5981SOL    HW218402   4.464   1.666   1.630
 5982SOL     OW18403   3.854   1.794   1.851
 5982SOL    HW118404   3.813   1.720   1.904
 5982SOL    HW218405   3.918   1.845   1.909
 5983SOL     OW18406   3.987   0.326   0.720
 5983SOL    HW118407   3.908   0.377   0.686
 5983SOL    HW218408   3.978   0.311   0.818
 5984SOL     OW18409   4.096   1.288   1.490
 5984SOL    HW118410   4.083   1.381   1.456
 5984SOL    HW218411   4.012   1.236   1.477
 5985SOL     OW18412   4.314   1.487   0.491
 5985SOL    HW118413   4.356   1.429   0.421
 5985SOL    HW218414   4.270   1.566   0.447
 5986SOL     OW18415   3.979   1.348   0.290
 5986SOL    HW118416   3.883   1.349   0.263
 5986SOL    HW218417   3.991   1.401   0.374
 5987SOL     OW18418   3.829   1.013   1.726
 5987SOL    HW118419   3.752   0.980   1.780
 5987SOL    HW218420   3.914   0.983   1.768
 5988SOL     OW18421   4.396   0.203   1.489
 5988SOL    HW118422   4.486   0.187   1.449
 5988SOL    HW218423   4.404   0.208   1.588
 5989SOL     OW18424   3.799   0.345   0.033
 5989SOL    HW118425   3.707   0.317   0.004
 5989SOL    HW218426   3.830   0.422  -0.023
 5990SOL     OW18427   3.796   0.166   0.318
 5990SOL    HW118428   3.779   0.249   0.264
 5990SOL    HW218429   3.886   0.129   0.296
 5991SOL     OW18430   4.337   0.842   1.431
 5991SOL    HW118431   4.393   0.923   1.414
 5991SOL    HW218432   4.396   0.762   1.434
 5992SOL     OW18433   4.440   0.565   1.708
 5992SOL    HW118434   4.459   0.630   1.782
 5992SOL    HW218435   4.500   0.485   1.717
 5993SOL     OW18436   4.114   1.741   1.560
 5993SOL    HW118437   4.023   1.782   1.558
 5993SOL    HW218438   4.107   1.647   1.592
 5994SOL     OW18439   4.318   0.745   0.652
 5994SOL    HW118440   4.368   0.830   0.633
 5994SOL    HW218441   4.230   0.747   0.604
 5995SOL     OW18442   3.945   1.314   1.844
 5995SOL    HW118443   3.880   1.241   1.823
 5995SOL    HW218444   3.949   1.328   1.942
 5996SOL     OW18445   3.803   1.240   0.653
 5996SOL    HW118446   3.802   1.193   0.741
 5996SOL    HW218447   3.885   1.212   0.602
 5997SOL     OW18448   4.396   1.391   1.624
 5997SOL    HW118449   4.318   1.341   1.662
 5997SOL    HW218450   4.393   1.486   1.655
 5998SOL     OW18451   4.152   0.424   0.520
 5998SOL    HW118452   4.182   0.352   0.458
 5998SOL    HW218453   4.113   0.384   0.603
 5999SOL     OW18454   4.041   0.547   1.280
 5999SOL    HW118455   4.079   0.488   1.352
 5999SOL    HW218456   4.081   0.521   1.192
 6000SOL     OW18457   4.536   1.586   0.687
 6000SOL    HW118458   4.568   1.596   0.593
 6000SOL    HW218459   4.457   1.524   0.689
 6001SOL     OW18460   3.763   1.077   0.300
 6001SOL    HW118461   3.862   1.066   0.291
 6001SOL    HW218462   3.723   0.991   0.332
 6002SOL     OW18463   3.954   0.628   1.975
 6002SOL    HW118464   3.861   0.626   2.012
 6002SOL    HW218465   3.955   0.589   1.883
 6003SOL     OW18466   3.949   0.275   2.858
 6003SOL    HW118467   3.984   0.258   2.950
 6003SOL    HW218468   3.861   0.230   2.846
 6004SOL     OW18469   3.743   0.368   2.509
 6004SOL    HW118470   3.661   0.411   2.548
 6004SOL    HW218471   3.715   0.295   2.446
 6005SOL     OW18472   4.293   1.275   3.027
 6005SOL    HW118473   4.200   1.268   2.990
 6005SOL    HW218474   4.304   1.364   3.071
 6006SOL     OW18475   4.574   0.798   3.685
 6006SOL    HW118476   4.570   0.874   3.750
 6006SOL    HW218477   4.596   0.834   3.594
 6007SOL     OW18478   4.409   1.012   2.527
 6007SOL    HW118479   4.478   0.996   2.597
 6007SOL    HW218480   4.336   1.069   2.565
 6008SOL     OW18481   4.410   1.161   3.665
 6008SOL    HW118482   4.470   1.240   3.679
 6008SOL    HW218483   4.324   1.192   3.624
 6009SOL     OW18484   4.059   1.435   2.923
 6009SOL    HW118485   3.981   1.404   2.870
 6009SOL    HW218486   4.117   1.493   2.866
 6010SOL     OW18487   4.162   0.392   3.361
 6010SOL    HW118488   4.244   0.336   3.370
 6010SOL    HW218489   4.081   0.334   3.365
 6011SOL     OW18490   3.955   1.713   2.345
 6011SOL    HW118491   3.989   1.790   2.399
 6011SOL    HW218492   3.999   1.713   2.255
 6012SOL     OW18493   3.954   1.434   2.400
 6012SOL    HW118494   3.928   1.530   2.400
 6012SOL    HW218495   3.883   1.380   2.445
 6013SOL     OW18496   3.964   1.091   2.748
 6013SOL    HW118497   3.978   1.007   2.800
 6013SOL    HW218498   3.909   1.155   2.803
 6014SOL     OW18499   4.344   1.786   3.301
 6014SOL    HW118500   4.252   1.769   3.336
 6014SOL    HW218501   4.372   1.878   3.327
 6015SOL     OW18502   4.330   0.964   1.985
 6015SOL    HW118503   4.337   1.048   1.931
 6015SOL    HW218504   4.376   0.977   2.073
 6016SOL     OW18505   3.846   0.643   2.425
 6016SOL    HW118506   3.801   0.555   2.442
 6016SOL    HW218507   3.845   0.697   2.509
 6017SOL     OW18508   3.751   1.596   1.979
 6017SOL    HW118509   3.732   1.500   2.000
 6017SOL    HW218510   3.718   1.654   2.054
 6018SOL     OW18511   3.837   0.737   3.459
 6018SOL    HW118512   3.925   0.724   3.504
 6018SOL    HW218513   3.824   0.834   3.437
 6019SOL     OW18514   4.337   1.365   2.588
 6019SOL    HW118515   4.288   1.278   2.597
 6019SOL    HW218516   4.314   1.408   2.501
 6020SOL     OW18517   4.533   0.004   2.364
 6020SOL    HW118518   4.573   0.095   2.355
 6020SOL    HW218519   4.433   0.012   2.370
 6021SOL     OW18520   3.921   0.976   3.126
 6021SOL    HW118521   4.010   0.931   3.112
 6021SOL    HW218522   3.848   0.911   3.107
 6022SOL     OW18523   4.041   0.251   3.663
 6022SOL    HW118524   4.112   0.322   3.669
 6022SOL    HW218525   3.953   0.290   3.691
 6023SOL     OW18526   4.322   0.729   2.132
 6023SOL    HW118527   4.346   0.798   2.064
 6023SOL    HW218528   4.244   0.762   2.186
 6024SOL     OW18529   3.800   0.811   2.651
 6024SOL    HW118530   3.899   0.799   2.660
 6024SOL    HW218531   3.776   0.906   2.672
 6025SOL     OW18532   3.854   1.821   3.433
 6025SOL    HW118533   3.844   1.806   3.532
 6025SOL    HW218534   3.768   1.857   3.397
 6026SOL     OW18535   4.274   0.196   2.747
 6026SOL    HW118536   4.269   0.191   2.847
 6026SOL    HW218537   4.276   0.292   2.718
 6027SOL     OW18538   4.075   1.801   2.715
 6027SOL    HW118539   4.125   1.715   2.721
 6027SOL    HW218540   4.140   1.878   2.712
 6028SOL     OW18541   4.045   0.943   2.104
 6028SOL    HW118542   4.127   0.982   2.062
 6028SOL    HW218543   4.018   0.861   2.055
 6029SOL     OW18544   4.185   1.266   3.589
 6029SOL    HW118545   4.135   1.267   3.503
 6029SOL    HW218546   4.122   1.248   3.665
 6030SOL     OW18547   3.926   0.285   3.360
 6030SOL    HW118548   3.846   0.345   3.347
 6030SOL    HW218549   3.916   0.236   3.446
 6031SOL     OW18550   4.188   1.743   2.185
 6031SOL    HW118551   4.221   1.782   2.271
 6031SOL    HW218552   4.264   1.736   2.120
 6032SOL     OW18553   3.973   1.785   3.103
 6032SOL    HW118554   4.030   1.720   3.153
 6032SOL    HW218555   3.957   1.752   3.010
 6033SOL     OW18556   4.106   0.700   2.342
 6033SOL    HW118557   4.151   0.610   2.339
 6033SOL    HW218558   4.012   0.689   2.375
 6034SOL     OW18559   4.338   0.122   1.979
 6034SOL    HW118560   4.436   0.100   1.986
 6034SOL    HW218561   4.307   0.105   1.886
 6035SOL     OW18562   4.527   1.402   2.786
 6035SOL    HW118563   4.617   1.416   2.744
 6035SOL    HW218564   4.456   1.404   2.715
 6036SOL     OW18565   4.263   0.064   2.374
 6036SOL    HW118566   4.182   0.065   2.432
 6036SOL    HW218567   4.266   0.147   2.319
 6037SOL     OW18568   4.021   0.035   2.033
 6037SOL    HW118569   4.070   0.119   2.012
 6037SOL    HW218570   4.083  -0.030   2.078
 6038SOL     OW18571   4.800   0.683   3.326
 6038SOL    HW118572   4.720   0.622   3.329
 6038SOL    HW218573   4.881   0.630   3.302
 6039SOL     OW18574   4.183   1.152   2.603
 6039SOL    HW118575   4.112   1.125   2.668
 6039SOL    HW218576   4.157   1.124   2.510
 6040SOL     OW18577   3.802   0.556   3.248
 6040SOL    HW118578   3.894   0.555   3.207
 6040SOL    HW218579   3.796   0.630   3.315
 6041SOL     OW18580   4.285   0.222   3.009
 6041SOL    HW118581   4.323   0.138   3.046
 6041SOL    HW218582   4.197   0.241   3.053
 6042SOL     OW18583   4.212   1.385   2.036
 6042SOL    HW118584   4.125   1.370   2.083
 6042SOL    HW218585   4.195   1.411   1.941
 6043SOL     OW18586   4.251   0.256   2.190
 6043SOL    HW118587   4.278   0.197   2.115
 6043SOL    HW218588   4.251   0.351   2.159
 6044SOL     OW18589   4.134   0.813   3.113
 6044SOL    HW118590   4.220   0.825   3.163
 6044SOL    HW218591   4.092   0.726   3.140
 6045SOL     OW18592   3.788   1.564   3.193
 6045SOL    HW118593   3.742   1.646   3.159
 6045SOL    HW218594   3.886   1.583   3.202
 6046SOL     OW18595   4.091   1.100   2.363
 6046SOL    HW118596   4.084   1.183   2.307
 6046SOL    HW218597   4.095   1.020   2.303
 6047SOL     OW18598   4.290   0.537   2.727
 6047SOL    HW118599   4.302   0.603   2.653
 6047SOL    HW218600   4.336   0.571   2.810
 6048SOL     OW18601   4.078   1.510   3.191
 6048SOL    HW118602   4.057   1.466   3.104
 6048SOL    HW218603   4.175   1.536   3.194
 6049SOL     OW18604   4.126   0.751   3.460
 6049SOL    HW118605   4.194   0.806   3.413
 6049SOL    HW218606   4.166   0.663   3.487
 6050SOL     OW18607   4.228   0.050   3.602
 6050SOL    HW118608   4.186  -0.007   3.532
 6050SOL    HW218609   4.162   0.119   3.634
 6051SOL     OW18610   4.297   0.870   2.891
 6051SOL    HW118611   4.341   0.959   2.882
 6051SOL    HW218612   4.234   0.870   2.968
 6052SOL     OW18613   4.031   0.213   3.093
 6052SOL    HW118614   4.008   0.250   3.183
 6052SOL    HW218615   4.001   0.118   3.087
 6053SOL     OW18616   3.761   1.310   3.144
 6053SOL    HW118617   3.814   1.261   3.212
 6053SOL    HW218618   3.783   1.408   3.149
 6054SOL     OW18619   4.031   0.063   2.480
 6054SOL    HW118620   4.020   0.157   2.513
 6054SOL    HW218621   4.026   0.000   2.557
 6055SOL     OW18622   4.074   0.898   3.666
 6055SOL    HW118623   4.150   0.942   3.714
 6055SOL    HW218624   4.109   0.851   3.584
 6056SOL     OW18625   4.043   0.810   2.811
 6056SOL    HW118626   4.136   0.846   2.816
 6056SOL    HW218627   4.037   0.725   2.863
 6057SOL     OW18628   4.063   0.509   2.868
 6057SOL    HW118629   4.011   0.426   2.851
 6057SOL    HW218630   4.140   0.514   2.804
 6058SOL     OW18631   3.732   1.326   2.062
 6058SOL    HW118632   3.639   1.347   2.031
 6058SOL    HW218633   3.742   1.227   2.075
 6059SOL     OW18634   3.812   1.801   2.789
 6059SOL    HW118635   3.770   1.715   2.762
 6059SOL    HW218636   3.906   1.804   2.755
 6060SOL     OW18637   4.228   1.568   2.772
 6060SOL    HW118638   4.294   1.642   2.781
 6060SOL    HW218639   4.272   1.489   2.730
 6061SOL     OW18640   3.764   0.544   2.976
 6061SOL    HW118641   3.849   0.511   2.935
 6061SOL    HW218642   3.777   0.559   3.074
 6062SOL     OW18643   3.913   0.520   3.584
 6062SOL    HW118644   3.972   0.480   3.514
 6062SOL    HW218645   3.855   0.591   3.543
 6063SOL     OW18646   4.539   0.572   2.187
 6063SOL    HW118647   4.546   0.483   2.141
 6063SOL    HW218648   4.445   0.606   2.179
 6064SOL     OW18649   3.976   1.564   3.606
 6064SOL    HW118650   3.946   1.621   3.682
 6064SOL    HW218651   3.969   1.467   3.632
 6065SOL     OW18652   4.197   0.500   2.053
 6065SOL    HW118653   4.258   0.580   2.057
 6065SOL    HW218654   4.102   0.531   2.060
 6066SOL     OW18655   3.883   1.137   3.328
 6066SOL    HW118656   3.905   1.076   3.404
 6066SOL    HW218657   3.893   1.088   3.242
 6067SOL     OW18658   3.807   1.258   2.884
 6067SOL    HW118659   3.802   1.257   2.984
 6067SOL    HW218660   3.724   1.217   2.846
 6068SOL     OW18661   4.412   1.662   3.578
 6068SOL    HW118662   4.356   1.743   3.587
 6068SOL    HW218663   4.464   1.666   3.492
 6069SOL     OW18664   3.854   1.794   3.713
 6069SOL    HW118665   3.813   1.720   3.766
 6069SOL    HW218666   3.918   1.845   3.771
 6070SOL     OW18667   3.987   0.326   2.582
 6070SOL    HW118668   3.908   0.377   2.548
 6070SOL    HW218669   3.978   0.311   2.680
 6071SOL     OW18670   4.096   1.288   3.352
 6071SOL    HW118671   4.083   1.381   3.318
 6071SOL    HW218672   4.012   1.236   3.339
 6072SOL     OW18673   4.314   1.487   2.353
 6072SOL    HW118674   4.356   1.429   2.283
 6072SOL    HW218675   4.270   1.566   2.309
 6073SOL     OW18676   3.979   1.348   2.152
 6073SOL    HW118677   3.883   1.349   2.125
 6073SOL    HW218678   3.991   1.401   2.236
 6074SOL     OW18679   3.829   1.013   3.588
 6074SOL    HW118680   3.752   0.980   3.642
 6074SOL    HW218681   3.914   0.983   3.630
 6075SOL     OW18682   4.396   0.203   3.351
 6075SOL    HW118683   4.486   0.187   3.311
 6075SOL    HW218684   4.404   0.208   3.450
 6076SOL     OW18685   3.799   0.345   1.895
 6076SOL    HW118686   3.707   0.317   1.866
 6076SOL    HW218687   3.830   0.422   1.839
 6077SOL     OW18688   3.796   0.166   2.180
 6077SOL    HW118689   3.779   0.249   2.126
 6077SOL    HW218690   3.886   0.129   2.158
 6078SOL     OW18691   4.337   0.842   3.293
 6078SOL    HW118692   4.393   0.923   3.276
 6078SOL    HW218693   4.396   0.762   3.296
 6079SOL     OW18694   4.440   0.565   3.570
 6079SOL    HW118695   4.459   0.630   3.644
 6079SOL    HW218696   4.500   0.485   3.579
 6080SOL     OW18697   4.114   1.741   3.422
 6080SOL    HW118698   4.023   1.782   3.420
 6080SOL    HW218699   4.107   1.647   3.454
 6081SOL     OW18700   4.318   0.745   2.514
 6081SOL    HW118701   4.368   0.830   2.495
 6081SOL    HW218702   4.230   0.747   2.466
 6082SOL     OW18703   3.945   1.314   3.706
 6082SOL    HW118704   3.880   1.241   3.685
 6082SOL    HW218705   3.949   1.328   3.804
 6083SOL     OW18706   3.803   1.240   2.515
 6083SOL    HW118707   3.802   1.193   2.603
 6083SOL    HW218708   3.885   1.212   2.464
 6084SOL     OW18709   4.396   1.391   3.486
 6084SOL    HW118710   4.318   1.341   3.524
 6084SOL    HW218711   4.393   1.486   3.517
 6085SOL     OW18712   4.152   0.424   2.382
 6085SOL    HW118713   4.182   0.352   2.320
 6085SOL    HW218714   4.113   0.384   2.465
 6086SOL     OW18715   4.041   0.547   3.142
 6086SOL    HW118716   4.079   0.488   3.214
 6086SOL    HW218717   4.081   0.521   3.054
 6087SOL     OW18718   4.536   1.586   2.549
 6087SOL    HW118719   4.568   1.596   2.455
 6087SOL    HW218720   4.457   1.524   2.551
 6088SOL     OW18721   3.763   1.077   2.162
 6088SOL    HW118722   3.862   1.066   2.153
 6088SOL    HW218723   3.723   0.991   2.194
 6089SOL     OW18724   3.954   0.628   3.837
 6089SOL    HW118725   3.861   0.626   3.874
 6089SOL    HW218726   3.955   0.589   3.745
 6090SOL     OW18727   3.949   0.275   4.720
 6090SOL    HW118728   3.984   0.258   4.812
 6090SOL    HW218729   3.861   0.230   4.708
 6091SOL     OW18730   3.743   0.368   4.371
 6091SOL    HW118731   3.661   0.411   4.410
 6091SOL    HW218732   3.715   0.295   4.308
 6092SOL     OW18733   4.293   1.275   4.889
 6092SOL    HW118734   4.200   1.268   4.852
 6092SOL    HW218735   4.304   1.364   4.933
 6093SOL     OW18736   4.574   0.798   5.547
 6093SOL    HW118737   4.570   0.874   5.612
 6093SOL    HW218738   4.596   0.834   5.456
 6094SOL     OW18739   4.409   1.012   4.389
 6094SOL    HW118740   4.478   0.996   4.459
 6094SOL    HW218741   4.336   1.069   4.427
 6095SOL     OW18742   4.410   1.161   5.527
 6095SOL    HW118743   4.470   1.240   5.541
 6095SOL    HW218744   4.324   1.192   5.486
 6096SOL     OW18745   4.059   1.435   4.785
 6096SOL    HW118746   3.981   1.404   4.732
 6096SOL    HW218747   4.117   1.493   4.728
 6097SOL     OW18748   4.162   0.392   5.223
 6097SOL    HW118749   4.244   0.336   5.232
 6097SOL    HW218750   4.081   0.334   5.227
 6098SOL     OW18751   3.955   1.713   4.207
 6098SOL    HW118752   3.989   1.790   4.261
 6098SOL    HW218753   3.999   1.713   4.117
 6099SOL     OW18754   3.954   1.434   4.262
 6099SOL    HW118755   3.928   1.530   4.262
 6099SOL    HW218756   3.883   1.380   4.307
 6100SOL     OW18757   3.964   1.091   4.610
 6100SOL    HW118758   3.978   1.007   4.662
 6100SOL    HW218759   3.909   1.155   4.665
 6101SOL     OW18760   4.344   1.786   5.163
 6101SOL    HW118761   4.252   1.769   5.198
 6101SOL    HW218762   4.372   1.878   5.189
 6102SOL     OW18763   4.330   0.964   3.847
 6102SOL    HW118764   4.337   1.048   3.793
 6102SOL    HW218765   4.376   0.977   3.935
 6103SOL     OW18766   3.846   0.643   4.287
 6103SOL    HW118767   3.801   0.555   4.304
 6103SOL    HW218768   3.845   0.697   4.371
 6104SOL     OW18769   3.751   1.596   3.841
 6104SOL    HW118770   3.732   1.500   3.862
 6104SOL    HW218771   3.718   1.654   3.916
 6105SOL     OW18772   3.837   0.737   5.321
 6105SOL    HW118773   3.925   0.724   5.366
 6105SOL    HW218774   3.824   0.834   5.299
 6106SOL     OW18775   4.337   1.365   4.450
 6106SOL    HW118776   4.288   1.278   4.459
 6106SOL    HW218777   4.314   1.408   4.363
 6107SOL     OW18778   4.533   0.004   4.226
 6107SOL    HW118779   4.573   0.095   4.217
 6107SOL    HW218780   4.433   0.012   4.232
 6108SOL     OW18781   3.921   0.976   4.988
 6108SOL    HW118782   4.010   0.931   4.974
 6108SOL    HW218783   3.848   0.911   4.969
 6109SOL     OW18784   4.041   0.251   5.525
 6109SOL    HW118785   4.112   0.322   5.531
 6109SOL    HW218786   3.953   0.290   5.553
 6110SOL     OW18787   4.322   0.729   3.994
 6110SOL    HW118788   4.346   0.798   3.926
 6110SOL    HW218789   4.244   0.762   4.048
 6111SOL     OW18790   3.800   0.811   4.513
 6111SOL    HW118791   3.899   0.799   4.522
 6111SOL    HW218792   3.776   0.906   4.534
 6112SOL     OW18793   3.854   1.821   5.295
 6112SOL    HW118794   3.844   1.806   5.394
 6112SOL    HW218795   3.768   1.857   5.259
 6113SOL     OW18796   4.274   0.196   4.609
 6113SOL    HW118797   4.269   0.191   4.709
 6113SOL    HW218798   4.276   0.292   4.580
 6114SOL     OW18799   4.075   1.801   4.577
 6114SOL    HW118800   4.125   1.715   4.583
 6114SOL    HW218801   4.140   1.878   4.574
 6115SOL     OW18802   4.045   0.943   3.966
 6115SOL    HW118803   4.127   0.982   3.924
 6115SOL    HW218804   4.018   0.861   3.917
 6116SOL     OW18805   4.185   1.266   5.451
 6116SOL    HW118806   4.135   1.267   5.365
 6116SOL    HW218807   4.122   1.248   5.527
 6117SOL     OW18808   3.926   0.285   5.222
 6117SOL    HW118809   3.846   0.345   5.209
 6117SOL    HW218810   3.916   0.236   5.308
 6118SOL     OW18811   4.188   1.743   4.047
 6118SOL    HW118812   4.221   1.782   4.133
 6118SOL    HW218813   4.264   1.736   3.982
 6119SOL     OW18814   3.973   1.785   4.965
 6119SOL    HW118815   4.030   1.720   5.015
 6119SOL    HW218816   3.957   1.752   4.872
 6120SOL     OW18817   4.106   0.700   4.204
 6120SOL    HW118818   4.151   0.610   4.201
 6120SOL    HW218819   4.012   0.689   4.237
 6121SOL     OW18820   4.338   0.122   3.841
 6121SOL    HW118821   4.436   0.100   3.848
 6121SOL    HW218822   4.307   0.105   3.748
 6122SOL     OW18823   4.527   1.402   4.648
 6122SOL    HW118824   4.617   1.416   4.606
 6122SOL    HW218825   4.456   1.404   4.577
 6123SOL     OW18826   4.263   0.064   4.236
 6123SOL    HW118827   4.182   0.065   4.294
 6123SOL    HW218828   4.266   0.147   4.181
 6124SOL     OW18829   4.021   0.035   3.895
 6124SOL    HW118830   4.070   0.119   3.874
 6124SOL    HW218831   4.083  -0.030   3.940
 6125SOL     OW18832   4.800   0.683   5.188
 6125SOL    HW118833   4.720   0.622   5.191
 6125SOL    HW218834   4.881   0.630   5.164
 6126SOL     OW18835   4.183   1.152   4.465
 6126SOL    HW118836   4.112   1.125   4.530
 6126SOL    HW218837   4.157   1.124   4.372
 6127SOL     OW18838   3.802   0.556   5.110
 6127SOL    HW118839   3.894   0.555   5.069
 6127SOL    HW218840   3.796   0.630   5.177
 6128SOL     OW18841   4.285   0.222   4.871
 6128SOL    HW118842   4.323   0.138   4.908
 6128SOL    HW218843   4.197   0.241   4.915
 6129SOL     OW18844   4.212   1.385   3.898
 6129SOL    HW118845   4.125   1.370   3.945
 6129SOL    HW218846   4.195   1.411   3.803
 6130SOL     OW18847   4.251   0.256   4.052
 6130SOL    HW118848   4.278   0.197   3.977
 6130SOL    HW218849   4.251   0.351   4.021
 6131SOL     OW18850   4.134   0.813   4.975
 6131SOL    HW118851   4.220   0.825   5.025
 6131SOL    HW218852   4.092   0.726   5.002
 6132SOL     OW18853   3.788   1.564   5.055
 6132SOL    HW118854   3.742   1.646   5.021
 6132SOL    HW218855   3.886   1.583   5.064
 6133SOL     OW18856   4.091   1.100   4.225
 6133SOL    HW118857   4.084   1.183   4.169
 6133SOL    HW218858   4.095   1.020   4.165
 6134SOL     OW18859   4.290   0.537   4.589
 6134SOL    HW118860   4.302   0.603   4.515
 6134SOL    HW218861   4.336   0.571   4.672
 6135SOL     OW18862   4.078   1.510   5.053
 6135SOL    HW118863   4.057   1.466   4.966
 6135SOL    HW218864   4.175   1.536   5.056
 6136SOL     OW18865   4.126   0.751   5.322
 6136SOL    HW118866   4.194   0.806   5.275
 6136SOL    HW218867   4.166   0.663   5.349
 6137SOL     OW18868   4.228   0.050   5.464
 6137SOL    HW118869   4.186  -0.007   5.394
 6137SOL    HW218870   4.162   0.119   5.496
 6138SOL     OW18871   4.297   0.870   4.753
 6138SOL    HW118872   4.341   0.959   4.744
 6138SOL    HW218873   4.234   0.870   4.830
 6139SOL     OW18874   4.031   0.213   4.955
 6139SOL    HW118875   4.008   0.250   5.045
 6139SOL    HW218876   4.001   0.118   4.949
 6140SOL     OW18877   3.761   1.310   5.006
 6140SOL    HW118878   3.814   1.261   5.074
 6140SOL    HW218879   3.783   1.408   5.011
 6141SOL     OW18880   4.031   0.063   4.342
 6141SOL    HW118881   4.020   0.157   4.375
 6141SOL    HW218882   4.026   0.000   4.419
 6142SOL     OW18883   4.074   0.898   5.528
 6142SOL    HW118884   4.150   0.942   5.576
 6142SOL    HW218885   4.109   0.851   5.446
 6143SOL     OW18886   4.043   0.810   4.673
 6143SOL    HW118887   4.136   0.846   4.678
 6143SOL    HW218888   4.037   0.725   4.725
 6144SOL     OW18889   4.063   0.509   4.730
 6144SOL    HW118890   4.011   0.426   4.713
 6144SOL    HW218891   4.140   0.514   4.666
 6145SOL     OW18892   3.732   1.326   3.924
 6145SOL    HW118893   3.639   1.347   3.893
 6145SOL    HW218894   3.742   1.227   3.937
 6146SOL     OW18895   3.812   1.801   4.651
 6146SOL    HW118896   3.770   1.715   4.624
 6146SOL    HW218897   3.906   1.804   4.617
 6147SOL     OW18898   4.228   1.568   4.634
 6147SOL    HW118899   4.294   1.642   4.643
 6147SOL    HW218900   4.272   1.489   4.592
 6148SOL     OW18901   3.764   0.544   4.838
 6148SOL    HW118902   3.849   0.511   4.797
 6148SOL    HW218903   3.777   0.559   4.936
 6149SOL     OW18904   3.913   0.520   5.446
 6149SOL    HW118905   3.972   0.480   5.376
 6149SOL    HW218906   3.855   0.591   5.405
 6150SOL     OW18907   4.539   0.572   4.049
 6150SOL    HW118908   4.546   0.483   4.003
 6150SOL    HW218909   4.445   0.606   4.041
 6151SOL     OW18910   3.976   1.564   5.468
 6151SOL    HW118911   3.946   1.621   5.544
 6151SOL    HW218912   3.969   1.467   5.494
 6152SOL     OW18913   4.197   0.500   3.915
 6152SOL    HW118914   4.258   0.580   3.919
 6152SOL    HW218915   4.102   0.531   3.922
 6153SOL     OW18916   3.883   1.137   5.190
 6153SOL    HW118917   3.905   1.076   5.266
 6153SOL    HW218918   3.893   1.088   5.104
 6154SOL     OW18919   3.807   1.258   4.746
 6154SOL    HW118920   3.802   1.257   4.846
 6154SOL    HW218921   3.724   1.217   4.708
 6155SOL     OW18922   4.412   1.662   5.440
 6155SOL    HW118923   4.356   1.743   5.449
 6155SOL    HW218924   4.464   1.666   5.354
 6156SOL     OW18925   3.854   1.794   5.575
 6156SOL    HW118926   3.813   1.720   5.628
 6156SOL    HW218927   3.918   1.845   5.633
 6157SOL     OW18928   3.987   0.326   4.444
 6157SOL    HW118929   3.908   0.377   4.410
 6157SOL    HW218930   3.978   0.311   4.542
 6158SOL     OW18931   4.096   1.288   5.214
 6158SOL    HW118932   4.083   1.381   5.180
 6158SOL    HW218933   4.012   1.236   5.201
 6159SOL     OW18934   4.314   1.487   4.215
 6159SOL    HW118935   4.356   1.429   4.145
 6159SOL    HW218936   4.270   1.566   4.171
 6160SOL     OW18937   3.979   1.348   4.014
 6160SOL    HW118938   3.883   1.349   3.987
 6160SOL    HW218939   3.991   1.401   4.098
 6161SOL     OW18940   3.829   1.013   5.450
 6161SOL    HW118941   3.752   0.980   5.504
 6161SOL    HW218942   3.914   0.983   5.492
 6162SOL     OW18943   4.396   0.203   5.213
 6162SOL    HW118944   4.486   0.187   5.173
 6162SOL    HW218945   4.404   0.208   5.312
 6163SOL     OW18946   3.799   0.345   3.757
 6163SOL    HW118947   3.707   0.317   3.728
 6163SOL    HW218948   3.830   0.422   3.701
 6164SOL     OW18949   3.796   0.166   4.042
 6164SOL    HW118950   3.779   0.249   3.988
 6164SOL    HW218951   3.886   0.129   4.020
 6165SOL     OW18952   4.337   0.842   5.155
 6165SOL    HW118953   4.393   0.923   5.138
 6165SOL    HW218954   4.396   0.762   5.158
 6166SOL     OW18955   4.440   0.565   5.432
 6166SOL    HW118956   4.459   0.630   5.506
 6166SOL    HW218957   4.500   0.485   5.441
 6167SOL     OW18958   4.114   1.741   5.284
 6167SOL    HW118959   4.023   1.782   5.282
 6167SOL    HW218960   4.107   1.647   5.316
 6168SOL     OW18961   4.318   0.745   4.376
 6168SOL    HW118962   4.368   0.830   4.357
 6168SOL    HW218963   4.230   0.747   4.328
 6169SOL     OW18964   3.945   1.314   5.568
 6169SOL    HW118965   3.880   1.241   5.547
 6169SOL    HW218966   3.949   1.328   5.666
 6170SOL     OW18967   3.803   1.240   4.377
 6170SOL    HW118968   3.802   1.193   4.465
 6170SOL    HW218969   3.885   1.212   4.326
 6171SOL     OW18970   4.396   1.391   5.348
 6171SOL    HW118971   4.318   1.341   5.386
 6171SOL    HW218972   4.393   1.486   5.379
 6172SOL     OW18973   4.152   0.424   4.244
 6172SOL    HW118974   4.182   0.352   4.182
 6172SOL    HW218975   4.113   0.384   4.327
 6173SOL     OW18976   4.041   0.547   5.004
 6173SOL    HW118977   4.079   0.488   5.076
 6173SOL    HW218978   4.081   0.521   4.916
 6174SOL     OW18979   4.536   1.586   4.411
 6174SOL    HW118980   4.568   1.596   4.317
 6174SOL    HW218981   4.457   1.524   4.413
 6175SOL     OW18982   3.763   1.077   4.024
 6175SOL    HW118983   3.862   1.066   4.015
 6175SOL    HW218984   3.723   0.991   4.056
 6176SOL     OW18985   3.954   0.628   5.699
 6176SOL    HW118986   3.861   0.626   5.736
 6176SOL    HW218987   3.955   0.589   5.607
 6177SOL     OW18988   3.949   0.275   6.582
 6177SOL    HW118989   3.984   0.258   6.674
 6177SOL    HW218990   3.861   0.230   6.570
 6178SOL     OW18991   3.743   0.368   6.233
 6178SOL    HW118992   3.661   0.411   6.272
 6178SOL    HW218993   3.715   0.295   6.170
 6179SOL     OW18994   4.293   1.275   6.751
 6179SOL    HW118995   4.200   1.268   6.714
 6179SOL    HW218996   4.304   1.364   6.795
 6180SOL     OW18997   4.574   0.798   7.409
 6180SOL    HW118998   4.570   0.874   7.474
 6180SOL    HW218999   4.596   0.834   7.318
 6181SOL     OW19000   4.409   1.012   6.251
 6181SOL    HW119001   4.478   0.996   6.321
 6181SOL    HW219002   4.336   1.069   6.289
 6182SOL     OW19003   4.410   1.161   7.389
 6182SOL    HW119004   4.470   1.240   7.403
 6182SOL    HW219005   4.324   1.192   7.348
 6183SOL     OW19006   4.059   1.435   6.647
 6183SOL    HW119007   3.981   1.404   6.594
 6183SOL    HW219008   4.117   1.493   6.590
 6184SOL     OW19009   4.162   0.392   7.085
 6184SOL    HW119010   4.244   0.336   7.094
 6184SOL    HW219011   4.081   0.334   7.089
 6185SOL     OW19012   3.955   1.713   6.069
 6185SOL    HW119013   3.989   1.790   6.123
 6185SOL    HW219014   3.999   1.713   5.979
 6186SOL     OW19015   3.954   1.434   6.124
 6186SOL    HW119016   3.928   1.530   6.124
 6186SOL    HW219017   3.883   1.380   6.169
 6187SOL     OW19018   3.964   1.091   6.472
 6187SOL    HW119019   3.978   1.007   6.524
 6187SOL    HW219020   3.909   1.155   6.527
 6188SOL     OW19021   4.344   1.786   7.025
 6188SOL    HW119022   4.252   1.769   7.060
 6188SOL    HW219023   4.372   1.878   7.051
 6189SOL     OW19024   4.330   0.964   5.709
 6189SOL    HW119025   4.337   1.048   5.655
 6189SOL    HW219026   4.376   0.977   5.797
 6190SOL     OW19027   3.846   0.643   6.149
 6190SOL    HW119028   3.801   0.555   6.166
 6190SOL    HW219029   3.845   0.697   6.233
 6191SOL     OW19030   3.751   1.596   5.703
 6191SOL    HW119031   3.732   1.500   5.724
 6191SOL    HW219032   3.718   1.654   5.778
 6192SOL     OW19033   3.837   0.737   7.183
 6192SOL    HW119034   3.925   0.724   7.228
 6192SOL    HW219035   3.824   0.834   7.161
 6193SOL     OW19036   4.337   1.365   6.312
 6193SOL    HW119037   4.288   1.278   6.321
 6193SOL    HW219038   4.314   1.408   6.225
 6194SOL     OW19039   4.533   0.004   6.088
 6194SOL    HW119040   4.573   0.095   6.079
 6194SOL    HW219041   4.433   0.012   6.094
 6195SOL     OW19042   3.921   0.976   6.850
 6195SOL    HW119043   4.010   0.931   6.836
 6195SOL    HW219044   3.848   0.911   6.831
 6196SOL     OW19045   4.041   0.251   7.387
 6196SOL    HW119046   4.112   0.322   7.393
 6196SOL    HW219047   3.953   0.290   7.415
 6197SOL     OW19048   4.322   0.729   5.856
 6197SOL    HW119049   4.346   0.798   5.788
 6197SOL    HW219050   4.244   0.762   5.910
 6198SOL     OW19051   3.800   0.811   6.375
 6198SOL    HW119052   3.899   0.799   6.384
 6198SOL    HW219053   3.776   0.906   6.396
 6199SOL     OW19054   3.854   1.821   7.157
 6199SOL    HW119055   3.844   1.806   7.256
 6199SOL    HW219056   3.768   1.857   7.121
 6200SOL     OW19057   4.274   0.196   6.471
 6200SOL    HW119058   4.269   0.191   6.571
 6200SOL    HW219059   4.276   0.292   6.442
 6201SOL     OW19060   4.075   1.801   6.439
 6201SOL    HW119061   4.125   1.715   6.445
 6201SOL    HW219062   4.140   1.878   6.436
 6202SOL     OW19063   4.045   0.943   5.828
 6202SOL    HW119064   4.127   0.982   5.786
 6202SOL    HW219065   4.018   0.861   5.779
 6203SOL     OW19066   4.185   1.266   7.313
 6203SOL    HW119067   4.135   1.267   7.227
 6203SOL    HW219068   4.122   1.248   7.389
 6204SOL     OW19069   3.926   0.285   7.084
 6204SOL    HW119070   3.846   0.345   7.071
 6204SOL    HW219071   3.916   0.236   7.170
 6205SOL     OW19072   4.188   1.743   5.909
 6205SOL    HW119073   4.221   1.782   5.995
 6205SOL    HW219074   4.264   1.736   5.844
 6206SOL     OW19075   3.973   1.785   6.827
 6206SOL    HW119076   4.030   1.720   6.877
 6206SOL    HW219077   3.957   1.752   6.734
 6207SOL     OW19078   4.106   0.700   6.066
 6207SOL    HW119079   4.151   0.610   6.063
 6207SOL    HW219080   4.012   0.689   6.099
 6208SOL     OW19081   4.338   0.122   5.703
 6208SOL    HW119082   4.436   0.100   5.710
 6208SOL    HW219083   4.307   0.105   5.610
 6209SOL     OW19084   4.527   1.402   6.510
 6209SOL    HW119085   4.617   1.416   6.468
 6209SOL    HW219086   4.456   1.404   6.439
 6210SOL     OW19087   4.263   0.064   6.098
 6210SOL    HW119088   4.182   0.065   6.156
 6210SOL    HW219089   4.266   0.147   6.043
 6211SOL     OW19090   4.021   0.035   5.757
 6211SOL    HW119091   4.070   0.119   5.736
 6211SOL    HW219092   4.083  -0.030   5.802
 6212SOL     OW19093   4.800   0.683   7.050
 6212SOL    HW119094   4.720   0.622   7.053
 6212SOL    HW219095   4.881   0.630   7.026
 6213SOL     OW19096   4.183   1.152   6.327
 6213SOL    HW119097   4.112   1.125   6.392
 6213SOL    HW219098   4.157   1.124   6.234
 6214SOL     OW19099   3.802   0.556   6.972
 6214SOL    HW119100   3.894   0.555   6.931
 6214SOL    HW219101   3.796   0.630   7.039
 6215SOL     OW19102   4.285   0.222   6.733
 6215SOL    HW119103   4.323   0.138   6.770
 6215SOL    HW219104   4.197   0.241   6.777
 6216SOL     OW19105   4.212   1.385   5.760
 6216SOL    HW119106   4.125   1.370   5.807
 6216SOL    HW219107   4.195   1.411   5.665
 6217SOL     OW19108   4.251   0.256   5.914
 6217SOL    HW119109   4.278   0.197   5.839
 6217SOL    HW219110   4.251   0.351   5.883
 6218SOL     OW19111   4.134   0.813   6.837
 6218SOL    HW119112   4.220   0.825   6.887
 6218SOL    HW219113   4.092   0.726   6.864
 6219SOL     OW19114   3.788   1.564   6.917
 6219SOL    HW119115   3.742   1.646   6.883
 6219SOL    HW219116   3.886   1.583   6.926
 6220SOL     OW19117   4.091   1.100   6.087
 6220SOL    HW119118   4.084   1.183   6.031
 6220SOL    HW219119   4.095   1.020   6.027
 6221SOL     OW19120   4.290   0.537   6.451
 6221SOL    HW119121   4.302   0.603   6.377
 6221SOL    HW219122   4.336   0.571   6.534
 6222SOL     OW19123   4.078   1.510   6.915
 6222SOL    HW119124   4.057   1.466   6.828
 6222SOL    HW219125   4.175   1.536   6.918
 6223SOL     OW19126   4.126   0.751   7.184
 6223SOL    HW119127   4.194   0.806   7.137
 6223SOL    HW219128   4.166   0.663   7.211
 6224SOL     OW19129   4.228   0.050   7.326
 6224SOL    HW119130   4.186  -0.007   7.256
 6224SOL    HW219131   4.162   0.119   7.358
 6225SOL     OW19132   4.297   0.870   6.615
 6225SOL    HW119133   4.341   0.959   6.606
 6225SOL    HW219134   4.234   0.870   6.692
 6226SOL     OW19135   4.031   0.213   6.817
 6226SOL    HW119136   4.008   0.250   6.907
 6226SOL    HW219137   4.001   0.118   6.811
 6227SOL     OW19138   3.761   1.310   6.868
 6227SOL    HW119139   3.814   1.261   6.936
 6227SOL    HW219140   3.783   1.408   6.873
 6228SOL     OW19141   4.031   0.063   6.204
 6228SOL    HW119142   4.020   0.157   6.237
 6228SOL    HW219143   4.026   0.000   6.281
 6229SOL     OW19144   4.074   0.898   7.390
 6229SOL    HW119145   4.150   0.942   7.438
 6229SOL    HW219146   4.109   0.851   7.308
 6230SOL     OW19147   4.043   0.810   6.535
 6230SOL    HW119148   4.136   0.846   6.540
 6230SOL    HW219149   4.037   0.725   6.587
 6231SOL     OW19150   4.063   0.509   6.592
 6231SOL    HW119151   4.011   0.426   6.575
 6231SOL    HW219152   4.140   0.514   6.528
 6232SOL     OW19153   3.732   1.326   5.786
 6232SOL    HW119154   3.639   1.347   5.755
 6232SOL    HW219155   3.742   1.227   5.799
 6233SOL     OW19156   3.812   1.801   6.513
 6233SOL    HW119157   3.770   1.715   6.486
 6233SOL    HW219158   3.906   1.804   6.479
 6234SOL     OW19159   4.228   1.568   6.496
 6234SOL    HW119160   4.294   1.642   6.505
 6234SOL    HW219161   4.272   1.489   6.454
 6235SOL     OW19162   3.764   0.544   6.700
 6235SOL    HW119163   3.849   0.511   6.659
 6235SOL    HW219164   3.777   0.559   6.798
 6236SOL     OW19165   3.913   0.520   7.308
 6236SOL    HW119166   3.972   0.480   7.238
 6236SOL    HW219167   3.855   0.591   7.267
 6237SOL     OW19168   4.539   0.572   5.911
 6237SOL    HW119169   4.546   0.483   5.865
 6237SOL    HW219170   4.445   0.606   5.903
 6238SOL     OW19171   3.976   1.564   7.330
 6238SOL    HW119172   3.946   1.621   7.406
 6238SOL    HW219173   3.969   1.467   7.356
 6239SOL     OW19174   4.197   0.500   5.777
 6239SOL    HW119175   4.258   0.580   5.781
 6239SOL    HW219176   4.102   0.531   5.784
 6240SOL     OW19177   3.883   1.137   7.052
 6240SOL    HW119178   3.905   1.076   7.128
 6240SOL    HW219179   3.893   1.088   6.966
 6241SOL     OW19180   3.807   1.258   6.608
 6241SOL    HW119181   3.802   1.257   6.708
 6241SOL    HW219182   3.724   1.217   6.570
 6242SOL     OW19183   4.412   1.662   7.302
 6242SOL    HW119184   4.356   1.743   7.311
 6242SOL    HW219185   4.464   1.666   7.216
 6243SOL     OW19186   3.854   1.794   7.437
 6243SOL    HW119187   3.813   1.720   7.490
 6243SOL    HW219188   3.918   1.845   7.495
 6244SOL     OW19189   3.987   0.326   6.306
 6244SOL    HW119190   3.908   0.377   6.272
 6244SOL    HW219191   3.978   0.311   6.404
 6245SOL     OW19192   4.096   1.288   7.076
 6245SOL    HW119193   4.083   1.381   7.042
 6245SOL    HW219194   4.012   1.236   7.063
 6246SOL     OW19195   4.314   1.487   6.077
 6246SOL    HW119196   4.356   1.429   6.007
 6246SOL    HW219197   4.270   1.566   6.033
 6247SOL     OW19198   3.979   1.348   5.876
 6247SOL    HW119199   3.883   1.349   5.849
 6247SOL    HW219200   3.991   1.401   5.960
 6248SOL     OW19201   3.829   1.013   7.312
 6248SOL    HW119202   3.752   0.980   7.366
 6248SOL    HW219203   3.914   0.983   7.354
 6249SOL     OW19204   4.396   0.203   7.075
 6249SOL    HW119205   4.486   0.187   7.035
 6249SOL    HW219206   4.404   0.208   7.174
 6250SOL     OW19207   3.799   0.345   5.619
 6250SOL    HW119208   3.707   0.317   5.590
 6250SOL    HW219209   3.830   0.422   5.563
 6251SOL     OW19210   3.796   0.166   5.904
 6251SOL    HW119211   3.779   0.249   5.850
 6251SOL    HW219212   3.886   0.129   5.882
 6252SOL     OW19213   4.337   0.842   7.017
 6252SOL    HW119214   4.393   0.923   7.000
 6252SOL    HW219215   4.396   0.762   7.020
 6253SOL     OW19216   4.440   0.565   7.294
 6253SOL    HW119217   4.459   0.630   7.368
 6253SOL    HW219218   4.500   0.485   7.303
 6254SOL     OW19219   4.114   1.741   7.146
 6254SOL    HW119220   4.023   1.782   7.144
 6254SOL    HW219221   4.107   1.647   7.178
 6255SOL     OW19222   4.318   0.745   6.238
 6255SOL    HW119223   4.368   0.830   6.219
 6255SOL    HW219224   4.230   0.747   6.190
 6256SOL     OW19225   3.945   1.314   7.430
 6256SOL    HW119226   3.880   1.241   7.409
 6256SOL    HW219227   3.949   1.328   7.528
 6257SOL     OW19228   3.803   1.240   6.239
 6257SOL    HW119229   3.802   1.193   6.327
 6257SOL    HW219230   3.885   1.212   6.188
 6258SOL     OW19231   4.396   1.391   7.210
 6258SOL    HW119232   4.318   1.341   7.248
 6258SOL    HW219233   4.393   1.486   7.241
 6259SOL     OW19234   4.152   0.424   6.106
 6259SOL    HW119235   4.182   0.352   6.044
 6259SOL    HW219236   4.113   0.384   6.189
 6260SOL     OW19237   4.041   0.547   6.866
 6260SOL    HW119238   4.079   0.488   6.938
 6260SOL    HW219239   4.081   0.521   6.778
 6261SOL     OW19240   4.536   1.586   6.273
 6261SOL    HW119241   4.568   1.596   6.179
 6261SOL    HW219242   4.457   1.524   6.275
 6262SOL     OW19243   3.763   1.077   5.886
 6262SOL    HW119244   3.862   1.066   5.877
 6262SOL    HW219245   3.723   0.991   5.918
 6263SOL     OW19246   3.954   0.628   7.561
 6263SOL    HW119247   3.861   0.626   7.598
 6263SOL    HW219248   3.955   0.589   7.469
 6264SOL     OW19249   3.949   0.275   8.444
 6264SOL    HW119250   3.984   0.258   8.536
 6264SOL    HW219251   3.861   0.230   8.432
 6265SOL     OW19252   3.743   0.368   8.095
 6265SOL    HW119253   3.661   0.411   8.134
 6265SOL    HW219254   3.715   0.295   8.032
 6266SOL     OW19255   4.293   1.275   8.613
 6266SOL    HW119256   4.200   1.268   8.576
 6266SOL    HW219257   4.304   1.364   8.657
 6267SOL     OW19258   4.574   0.798   9.271
 6267SOL    HW119259   4.570   0.874   9.336
 6267SOL    HW219260   4.596   0.834   9.180
 6268SOL     OW19261   4.409   1.012   8.113
 6268SOL    HW119262   4.478   0.996   8.183
 6268SOL    HW219263   4.336   1.069   8.151
 6269SOL     OW19264   4.410   1.161   9.251
 6269SOL    HW119265   4.470   1.240   9.265
 6269SOL    HW219266   4.324   1.192   9.210
 6270SOL     OW19267   4.059   1.435   8.509
 6270SOL    HW119268   3.981   1.404   8.456
 6270SOL    HW219269   4.117   1.493   8.452
 6271SOL     OW19270   4.162   0.392   8.947
 6271SOL    HW119271   4.244   0.336   8.956
 6271SOL    HW219272   4.081   0.334   8.951
 6272SOL     OW19273   3.955   1.713   7.931
 6272SOL    HW119274   3.989   1.790   7.985
 6272SOL    HW219275   3.999   1.713   7.841
 6273SOL     OW19276   3.954   1.434   7.986
 6273SOL    HW119277   3.928   1.530   7.986
 6273SOL    HW219278   3.883   1.380   8.031
 6274SOL     OW19279   3.964   1.091   8.334
 6274SOL    HW119280   3.978   1.007   8.386
 6274SOL    HW219281   3.909   1.155   8.389
 6275SOL     OW19282   4.344   1.786   8.887
 6275SOL    HW119283   4.252   1.769   8.922
 6275SOL    HW219284   4.372   1.878   8.913
 6276SOL     OW19285   4.330   0.964   7.571
 6276SOL    HW119286   4.337   1.048   7.517
 6276SOL    HW219287   4.376   0.977   7.659
 6277SOL     OW19288   3.846   0.643   8.011
 6277SOL    HW119289   3.801   0.555   8.028
 6277SOL    HW219290   3.845   0.697   8.095
 6278SOL     OW19291   3.751   1.596   7.565
 6278SOL    HW119292   3.732   1.500   7.586
 6278SOL    HW219293   3.718   1.654   7.640
 6279SOL     OW19294   3.837   0.737   9.045
 6279SOL    HW119295   3.925   0.724   9.090
 6279SOL    HW219296   3.824   0.834   9.023
 6280SOL     OW19297   4.337   1.365   8.174
 6280SOL    HW119298   4.288   1.278   8.183
 6280SOL    HW219299   4.314   1.408   8.087
 6281SOL     OW19300   4.533   0.004   7.950
 6281SOL    HW119301   4.573   0.095   7.941
 6281SOL    HW219302   4.433   0.012   7.956
 6282SOL     OW19303   3.921   0.976   8.712
 6282SOL    HW119304   4.010   0.931   8.698
 6282SOL    HW219305   3.848   0.911   8.693
 6283SOL     OW19306   4.041   0.251   9.249
 6283SOL    HW119307   4.112   0.322   9.255
 6283SOL    HW219308   3.953   0.290   9.277
 6284SOL     OW19309   4.322   0.729   7.718
 6284SOL    HW119310   4.346   0.798   7.650
 6284SOL    HW219311   4.244   0.762   7.772
 6285SOL     OW19312   3.800   0.811   8.237
 6285SOL    HW119313   3.899   0.799   8.246
 6285SOL    HW219314   3.776   0.906   8.258
 6286SOL     OW19315   3.854   1.821   9.019
 6286SOL    HW119316   3.844   1.806   9.118
 6286SOL    HW219317   3.768   1.857   8.983
 6287SOL     OW19318   4.274   0.196   8.333
 6287SOL    HW119319   4.269   0.191   8.433
 6287SOL    HW219320   4.276   0.292   8.304
 6288SOL     OW19321   4.075   1.801   8.301
 6288SOL    HW119322   4.125   1.715   8.307
 6288SOL    HW219323   4.140   1.878   8.298
 6289SOL     OW19324   4.045   0.943   7.690
 6289SOL    HW119325   4.127   0.982   7.648
 6289SOL    HW219326   4.018   0.861   7.641
 6290SOL     OW19327   4.185   1.266   9.175
 6290SOL    HW119328   4.135   1.267   9.089
 6290SOL    HW219329   4.122   1.248   9.251
 6291SOL     OW19330   3.926   0.285   8.946
 6291SOL    HW119331   3.846   0.345   8.933
 6291SOL    HW219332   3.916   0.236   9.032
 6292SOL     OW19333   4.188   1.743   7.771
 6292SOL    HW119334   4.221   1.782   7.857
 6292SOL    HW219335   4.264   1.736   7.706
 6293SOL     OW19336   3.973   1.785   8.689
 6293SOL    HW119337   4.030   1.720   8.739
 6293SOL    HW219338   3.957   1.752   8.596
 6294SOL     OW19339   4.106   0.700   7.928
 6294SOL    HW119340   4.151   0.610   7.925
 6294SOL    HW219341   4.012   0.689   7.961
 6295SOL     OW19342   4.338   0.122   7.565
 6295SOL    HW119343   4.436   0.100   7.572
 6295SOL    HW219344   4.307   0.105   7.472
 6296SOL     OW19345   4.527   1.402   8.372
 6296SOL    HW119346   4.617   1.416   8.330
 6296SOL    HW219347   4.456   1.404   8.301
 6297SOL     OW19348   4.263   0.064   7.960
 6297SOL    HW119349   4.182   0.065   8.018
 6297SOL    HW219350   4.266   0.147   7.905
 6298SOL     OW19351   4.021   0.035   7.619
 6298SOL    HW119352   4.070   0.119   7.598
 6298SOL    HW219353   4.083  -0.030   7.664
 6299SOL     OW19354   4.800   0.683   8.912
 6299SOL    HW119355   4.720   0.622   8.915
 6299SOL    HW219356   4.881   0.630   8.888
 6300SOL     OW19357   4.183   1.152   8.189
 6300SOL    HW119358   4.112   1.125   8.254
 6300SOL    HW219359   4.157   1.124   8.096
 6301SOL     OW19360   3.802   0.556   8.834
 6301SOL    HW119361   3.894   0.555   8.793
 6301SOL    HW219362   3.796   0.630   8.901
 6302SOL     OW19363   4.285   0.222   8.595
 6302SOL    HW119364   4.323   0.138   8.632
 6302SOL    HW219365   4.197   0.241   8.639
 6303SOL     OW19366   4.212   1.385   7.622
 6303SOL    HW119367   4.125   1.370   7.669
 6303SOL    HW219368   4.195   1.411   7.527
 6304SOL     OW19369   4.251   0.256   7.776
 6304SOL    HW119370   4.278   0.197   7.701
 6304SOL    HW219371   4.251   0.351   7.745
 6305SOL     OW19372   4.134   0.813   8.699
 6305SOL    HW119373   4.220   0.825   8.749
 6305SOL    HW219374   4.092   0.726   8.726
 6306SOL     OW19375   3.788   1.564   8.779
 6306SOL    HW119376   3.742   1.646   8.745
 6306SOL    HW219377   3.886   1.583   8.788
 6307SOL     OW19378   4.091   1.100   7.949
 6307SOL    HW119379   4.084   1.183   7.893
 6307SOL    HW219380   4.095   1.020   7.889
 6308SOL     OW19381   4.290   0.537   8.313
 6308SOL    HW119382   4.302   0.603   8.239
 6308SOL    HW219383   4.336   0.571   8.396
 6309SOL     OW19384   4.078   1.510   8.777
 6309SOL    HW119385   4.057   1.466   8.690
 6309SOL    HW219386   4.175   1.536   8.780
 6310SOL     OW19387   4.126   0.751   9.046
 6310SOL    HW119388   4.194   0.806   8.999
 6310SOL    HW219389   4.166   0.663   9.073
 6311SOL     OW19390   4.228   0.050   9.188
 6311SOL    HW119391   4.186  -0.007   9.118
 6311SOL    HW219392   4.162   0.119   9.220
 6312SOL     OW19393   4.297   0.870   8.477
 6312SOL    HW119394   4.341   0.959   8.468
 6312SOL    HW219395   4.234   0.870   8.554
 6313SOL     OW19396   4.031   0.213   8.679
 6313SOL    HW119397   4.008   0.250   8.769
 6313SOL    HW219398   4.001   0.118   8.673
 6314SOL     OW19399   3.761   1.310   8.730
 6314SOL    HW119400   3.814   1.261   8.798
 6314SOL    HW219401   3.783   1.408   8.735
 6315SOL     OW19402   4.031   0.063   8.066
 6315SOL    HW119403   4.020   0.157   8.099
 6315SOL    HW219404   4.026   0.000   8.143
 6316SOL     OW19405   4.074   0.898   9.252
 6316SOL    HW119406   4.150   0.942   9.300
 6316SOL    HW219407   4.109   0.851   9.170
 6317SOL     OW19408   4.043   0.810   8.397
 6317SOL    HW119409   4.136   0.846   8.402
 6317SOL    HW219410   4.037   0.725   8.449
 6318SOL     OW19411   4.063   0.509   8.454
 6318SOL    HW119412   4.011   0.426   8.437
 6318SOL    HW219413   4.140   0.514   8.390
 6319SOL     OW19414   3.732   1.326   7.648
 6319SOL    HW119415   3.639   1.347   7.617
 6319SOL    HW219416   3.742   1.227   7.661
 6320SOL     OW19417   3.812   1.801   8.375
 6320SOL    HW119418   3.770   1.715   8.348
 6320SOL    HW219419   3.906   1.804   8.341
 6321SOL     OW19420   4.228   1.568   8.358
 6321SOL    HW119421   4.294   1.642   8.367
 6321SOL    HW219422   4.272   1.489   8.316
 6322SOL     OW19423   3.764   0.544   8.562
 6322SOL    HW119424   3.849   0.511   8.521
 6322SOL    HW219425   3.777   0.559   8.660
 6323SOL     OW19426   3.913   0.520   9.170
 6323SOL    HW119427   3.972   0.480   9.100
 6323SOL    HW219428   3.855   0.591   9.129
 6324SOL     OW19429   4.539   0.572   7.773
 6324SOL    HW119430   4.546   0.483   7.727
 6324SOL    HW219431   4.445   0.606   7.765
 6325SOL     OW19432   3.976   1.564   9.192
 6325SOL    HW119433   3.946   1.621   9.268
 6325SOL    HW219434   3.969   1.467   9.218
 6326SOL     OW19435   4.197   0.500   7.639
 6326SOL    HW119436   4.258   0.580   7.643
 6326SOL    HW219437   4.102   0.531   7.646
 6327SOL     OW19438   3.883   1.137   8.914
 6327SOL    HW119439   3.905   1.076   8.990
 6327SOL    HW219440   3.893   1.088   8.828
 6328SOL     OW19441   3.807   1.258   8.470
 6328SOL    HW119442   3.802   1.257   8.570
 6328SOL    HW219443   3.724   1.217   8.432
 6329SOL     OW19444   4.412   1.662   9.164
 6329SOL    HW119445   4.356   1.743   9.173
 6329SOL    HW219446   4.464   1.666   9.078
 6330SOL     OW19447   3.854   1.794   9.299
 6330SOL    HW119448   3.813   1.720   9.352
 6330SOL    HW219449   3.918   1.845   9.357
 6331SOL     OW19450   3.987   0.326   8.168
 6331SOL    HW119451   3.908   0.377   8.134
 6331SOL    HW219452   3.978   0.311   8.266
 6332SOL     OW19453   4.096   1.288   8.938
 6332SOL    HW119454   4.083   1.381   8.904
 6332SOL    HW219455   4.012   1.236   8.925
 6333SOL     OW19456   4.314   1.487   7.939
 6333SOL    HW119457   4.356   1.429   7.869
 6333SOL    HW219458   4.270   1.566   7.895
 6334SOL     OW19459   3.979   1.348   7.738
 6334SOL    HW119460   3.883   1.349   7.711
 6334SOL    HW219461   3.991   1.401   7.822
 6335SOL     OW19462   3.829   1.013   9.174
 6335SOL    HW119463   3.752   0.980   9.228
 6335SOL    HW219464   3.914   0.983   9.216
 6336SOL     OW19465   4.396   0.203   8.937
 6336SOL    HW119466   4.486   0.187   8.897
 6336SOL    HW219467   4.404   0.208   9.036
 6337SOL     OW19468   3.799   0.345   7.481
 6337SOL    HW119469   3.707   0.317   7.452
 6337SOL    HW219470   3.830   0.422   7.425
 6338SOL     OW19471   3.796   0.166   7.766
 6338SOL    HW119472   3.779   0.249   7.712
 6338SOL    HW219473   3.886   0.129   7.744
 6339SOL     OW19474   4.337   0.842   8.879
 6339SOL    HW119475   4.393   0.923   8.862
 6339SOL    HW219476   4.396   0.762   8.882
 6340SOL     OW19477   4.440   0.565   9.156
 6340SOL    HW119478   4.459   0.630   9.230
 6340SOL    HW219479   4.500   0.485   9.165
 6341SOL     OW19480   4.114   1.741   9.008
 6341SOL    HW119481   4.023   1.782   9.006
 6341SOL    HW219482   4.107   1.647   9.040
 6342SOL     OW19483   4.318   0.745   8.100
 6342SOL    HW119484   4.368   0.830   8.081
 6342SOL    HW219485   4.230   0.747   8.052
 6343SOL     OW19486   3.945   1.314   9.292
 6343SOL    HW119487   3.880   1.241   9.271
 6343SOL    HW219488   3.949   1.328   9.390
 6344SOL     OW19489   3.803   1.240   8.101
 6344SOL    HW119490   3.802   1.193   8.189
 6344SOL    HW219491   3.885   1.212   8.050
 6345SOL     OW19492   4.396   1.391   9.072
 6345SOL    HW119493   4.318   1.341   9.110
 6345SOL    HW219494   4.393   1.486   9.103
 6346SOL     OW19495   4.152   0.424   7.968
 6346SOL    HW119496   4.182   0.352   7.906
 6346SOL    HW219497   4.113   0.384   8.051
 6347SOL     OW19498   4.041   0.547   8.728
 6347SOL    HW119499   4.079   0.488   8.800
 6347SOL    HW219500   4.081   0.521   8.640
 6348SOL     OW19501   4.536   1.586   8.135
 6348SOL    HW119502   4.568   1.596   8.041
 6348SOL    HW219503   4.457   1.524   8.137
 6349SOL     OW19504   3.763   1.077   7.748
 6349SOL    HW119505   3.862   1.066   7.739
 6349SOL    HW219506   3.723   0.991   7.780
 6350SOL     OW19507   3.954   0.628   9.423
 6350SOL    HW119508   3.861   0.626   9.460
 6350SOL    HW219509   3.955   0.589   9.331
 6351SOL     OW19510   3.949   0.275  10.306
 6351SOL    HW119511   3.984   0.258  10.398
 6351SOL    HW219512   3.861   0.230  10.294
 6352SOL     OW19513   3.743   0.368   9.957
 6352SOL    HW119514   3.661   0.411   9.996
 6352SOL    HW219515   3.715   0.295   9.894
 6353SOL     OW19516   4.293   1.275  10.475
 6353SOL    HW119517   4.200   1.268  10.438
 6353SOL    HW219518   4.304   1.364  10.519
 6354SOL     OW19519   4.574   0.798  11.133
 6354SOL    HW119520   4.570   0.874  11.198
 6354SOL    HW219521   4.596   0.834  11.042
 6355SOL     OW19522   4.409   1.012   9.975
 6355SOL    HW119523   4.478   0.996  10.045
 6355SOL    HW219524   4.336   1.069  10.013
 6356SOL     OW19525   4.059   1.435  10.371
 6356SOL    HW119526   3.981   1.404  10.318
 6356SOL    HW219527   4.117   1.493  10.314
 6357SOL     OW19528   4.162   0.392  10.809
 6357SOL    HW119529   4.244   0.336  10.818
 6357SOL    HW219530   4.081   0.334  10.813
 6358SOL     OW19531   3.955   1.713   9.793
 6358SOL    HW119532   3.989   1.790   9.847
 6358SOL    HW219533   3.999   1.713   9.703
 6359SOL     OW19534   3.954   1.434   9.848
 6359SOL    HW119535   3.928   1.530   9.848
 6359SOL    HW219536   3.883   1.380   9.893
 6360SOL     OW19537   3.964   1.091  10.196
 6360SOL    HW119538   3.978   1.007  10.248
 6360SOL    HW219539   3.909   1.155  10.251
 6361SOL     OW19540   4.344   1.786  10.749
 6361SOL    HW119541   4.252   1.769  10.784
 6361SOL    HW219542   4.372   1.878  10.775
 6362SOL     OW19543   4.330   0.964   9.433
 6362SOL    HW119544   4.337   1.048   9.379
 6362SOL    HW219545   4.376   0.977   9.521
 6363SOL     OW19546   3.846   0.643   9.873
 6363SOL    HW119547   3.801   0.555   9.890
 6363SOL    HW219548   3.845   0.697   9.957
 6364SOL     OW19549   3.751   1.596   9.427
 6364SOL    HW119550   3.732   1.500   9.448
 6364SOL    HW219551   3.718   1.654   9.502
 6365SOL     OW19552   3.837   0.737  10.907
 6365SOL    HW119553   3.925   0.724  10.952
 6365SOL    HW219554   3.824   0.834  10.885
 6366SOL     OW19555   4.337   1.365  10.036
 6366SOL    HW119556   4.288   1.278  10.045
 6366SOL    HW219557   4.314   1.408   9.949
 6367SOL     OW19558   4.533   0.004   9.812
 6367SOL    HW119559   4.573   0.095   9.803
 6367SOL    HW219560   4.433   0.012   9.818
 6368SOL     OW19561   3.921   0.976  10.574
 6368SOL    HW119562   4.010   0.931  10.560
 6368SOL    HW219563   3.848   0.911  10.555
 6369SOL     OW19564   4.041   0.251  11.111
 6369SOL    HW119565   4.112   0.322  11.117
 6369SOL    HW219566   3.953   0.290  11.139
 6370SOL     OW19567   4.322   0.729   9.580
 6370SOL    HW119568   4.346   0.798   9.512
 6370SOL    HW219569   4.244   0.762   9.634
 6371SOL     OW19570   3.800   0.811  10.099
 6371SOL    HW119571   3.899   0.799  10.108
 6371SOL    HW219572   3.776   0.906  10.120
 6372SOL     OW19573   3.854   1.821  10.881
 6372SOL    HW119574   3.844   1.806  10.980
 6372SOL    HW219575   3.768   1.857  10.845
 6373SOL     OW19576   4.274   0.196  10.195
 6373SOL    HW119577   4.269   0.191  10.295
 6373SOL    HW219578   4.276   0.292  10.166
 6374SOL     OW19579   4.075   1.801  10.163
 6374SOL    HW119580   4.125   1.715  10.169
 6374SOL    HW219581   4.140   1.878  10.160
 6375SOL     OW19582   4.045   0.943   9.552
 6375SOL    HW119583   4.127   0.982   9.510
 6375SOL    HW219584   4.018   0.861   9.503
 6376SOL     OW19585   4.185   1.266  11.037
 6376SOL    HW119586   4.135   1.267  10.951
 6376SOL    HW219587   4.122   1.248  11.113
 6377SOL     OW19588   3.926   0.285  10.808
 6377SOL    HW119589   3.846   0.345  10.795
 6377SOL    HW219590   3.916   0.236  10.894
 6378SOL     OW19591   4.188   1.743   9.633
 6378SOL    HW119592   4.221   1.782   9.719
 6378SOL    HW219593   4.264   1.736   9.568
 6379SOL     OW19594   3.973   1.785  10.551
 6379SOL    HW119595   4.030   1.720  10.601
 6379SOL    HW219596   3.957   1.752  10.458
 6380SOL     OW19597   4.106   0.700   9.790
 6380SOL    HW119598   4.151   0.610   9.787
 6380SOL    HW219599   4.012   0.689   9.823
 6381SOL     OW19600   4.338   0.122   9.427
 6381SOL    HW119601   4.436   0.100   9.434
 6381SOL    HW219602   4.307   0.105   9.334
 6382SOL     OW19603   4.527   1.402  10.234
 6382SOL    HW119604   4.617   1.416  10.192
 6382SOL    HW219605   4.456   1.404  10.163
 6383SOL     OW19606   4.263   0.064   9.822
 6383SOL    HW119607   4.182   0.065   9.880
 6383SOL    HW219608   4.266   0.147   9.767
 6384SOL     OW19609   4.021   0.035   9.481
 6384SOL    HW119610   4.070   0.119   9.460
 6384SOL    HW219611   4.083  -0.030   9.526
 6385SOL     OW19612   4.800   0.683  10.774
 6385SOL    HW119613   4.720   0.622  10.777
 6385SOL    HW219614   4.881   0.630  10.750
 6386SOL     OW19615   4.183   1.152  10.051
 6386SOL    HW119616   4.112   1.125  10.116
 6386SOL    HW219617   4.157   1.124   9.958
 6387SOL     OW19618   3.802   0.556  10.696
 6387SOL    HW119619   3.894   0.555  10.655
 6387SOL    HW219620   3.796   0.630  10.763
 6388SOL     OW19621   4.285   0.222  10.457
 6388SOL    HW119622   4.323   0.138  10.494
 6388SOL    HW219623   4.197   0.241  10.501
 6389SOL     OW19624   4.212   1.385   9.484
 6389SOL    HW119625   4.125   1.370   9.531
 6389SOL    HW219626   4.195   1.411   9.389
 6390SOL     OW19627   4.251   0.256   9.638
 6390SOL    HW119628   4.278   0.197   9.563
 6390SOL    HW219629   4.251   0.351   9.607
 6391SOL     OW19630   4.134   0.813  10.561
 6391SOL    HW119631   4.220   0.825  10.611
 6391SOL    HW219632   4.092   0.726  10.588
 6392SOL     OW19633   3.788   1.564  10.641
 6392SOL    HW119634   3.742   1.646  10.607
 6392SOL    HW219635   3.886   1.583  10.650
 6393SOL     OW19636   4.091   1.100   9.811
 6393SOL    HW119637   4.084   1.183   9.755
 6393SOL    HW219638   4.095   1.020   9.751
 6394SOL     OW19639   4.290   0.537  10.175
 6394SOL    HW119640   4.302   0.603  10.101
 6394SOL    HW219641   4.336   0.571  10.258
 6395SOL     OW19642   4.078   1.510  10.639
 6395SOL    HW119643   4.057   1.466  10.552
 6395SOL    HW219644   4.175   1.536  10.642
 6396SOL     OW19645   4.126   0.751  10.908
 6396SOL    HW119646   4.194   0.806  10.861
 6396SOL    HW219647   4.166   0.663  10.935
 6397SOL     OW19648   4.297   0.870  10.339
 6397SOL    HW119649   4.341   0.959  10.330
 6397SOL    HW219650   4.234   0.870  10.416
 6398SOL     OW19651   4.031   0.213  10.541
 6398SOL    HW119652   4.008   0.250  10.631
 6398SOL    HW219653   4.001   0.118  10.535
 6399SOL     OW19654   3.761   1.310  10.592
 6399SOL    HW119655   3.814   1.261  10.660
 6399SOL    HW219656   3.783   1.408  10.597
 6400SOL     OW19657   4.031   0.063   9.928
 6400SOL    HW119658   4.020   0.157   9.961
 6400SOL    HW219659   4.026   0.000  10.005
 6401SOL     OW19660   4.074   0.898  11.114
 6401SOL    HW119661   4.150   0.942  11.162
 6401SOL    HW219662   4.109   0.851  11.032
 6402SOL     OW19663   4.043   0.810  10.259
 6402SOL    HW119664   4.136   0.846  10.264
 6402SOL    HW219665   4.037   0.725  10.311
 6403SOL     OW19666   4.063   0.509  10.316
 6403SOL    HW119667   4.011   0.426  10.299
 6403SOL    HW219668   4.140   0.514  10.252
 6404SOL     OW19669   3.732   1.326   9.510
 6404SOL    HW119670   3.639   1.347   9.479
 6404SOL    HW219671   3.742   1.227   9.523
 6405SOL     OW19672   3.812   1.801  10.237
 6405SOL    HW119673   3.770   1.715  10.210
 6405SOL    HW219674   3.906   1.804  10.203
 6406SOL     OW19675   4.228   1.568  10.220
 6406SOL    HW119676   4.294   1.642  10.229
 6406SOL    HW219677   4.272   1.489  10.178
 6407SOL     OW19678   3.764   0.544  10.424
 6407SOL    HW119679   3.849   0.511  10.383
 6407SOL    HW219680   3.777   0.559  10.522
 6408SOL     OW19681   4.539   0.572   9.635
 6408SOL    HW119682   4.546   0.483   9.589
 6408SOL    HW219683   4.445   0.606   9.627
 6409SOL     OW19684   3.976   1.564  11.054
 6409SOL    HW119685   3.946   1.621  11.130
 6409SOL    HW219686   3.969   1.467  11.080
 6410SOL     OW19687   4.197   0.500   9.501
 6410SOL    HW119688   4.258   0.580   9.505
 6410SOL    HW219689   4.102   0.531   9.508
 6411SOL     OW19690   3.883   1.137  10.776
 6411SOL    HW119691   3.905   1.076  10.852
 6411SOL    HW219692   3.893   1.088  10.690
 6412SOL     OW19693   3.807   1.258  10.332
 6412SOL    HW119694   3.802   1.257  10.432
 6412SOL    HW219695   3.724   1.217  10.294
 6413SOL     OW19696   4.412   1.662  11.026
 6413SOL    HW119697   4.356   1.743  11.035
 6413SOL    HW219698   4.464   1.666  10.940
 6414SOL     OW19699   3.987   0.326  10.030
 6414SOL    HW119700   3.908   0.377   9.996
 6414SOL    HW219701   3.978   0.311  10.128
 6415SOL     OW19702   4.096   1.288  10.800
 6415SOL    HW119703   4.083   1.381  10.766
 6415SOL    HW219704   4.012   1.236  10.787
 6416SOL     OW19705   4.314   1.487   9.801
 6416SOL    HW119706   4.356   1.429   9.731
 6416SOL    HW219707   4.270   1.566   9.757
 6417SOL     OW19708   3.979   1.348   9.600
 6417SOL    HW119709   3.883   1.349   9.573
 6417SOL    HW219710   3.991   1.401   9.684
 6418SOL     OW19711   3.829   1.013  11.036
 6418SOL    HW119712   3.752   0.980  11.090
 6418SOL    HW219713   3.914   0.983  11.078
 6419SOL     OW19714   4.396   0.203  10.799
 6419SOL    HW119715   4.486   0.187  10.759
 6419SOL    HW219716   4.404   0.208  10.898
 6420SOL     OW19717   3.799   0.345   9.343
 6420SOL    HW119718   3.707   0.317   9.314
 6420SOL    HW219719   3.830   0.422   9.287
 6421SOL     OW19720   3.796   0.166   9.628
 6421SOL    HW119721   3.779   0.249   9.574
 6421SOL    HW219722   3.886   0.129   9.606
 6422SOL     OW19723   4.337   0.842  10.741
 6422SOL    HW119724   4.393   0.923  10.724
 6422SOL    HW219725   4.396   0.762  10.744
 6423SOL     OW19726   4.114   1.741  10.870
 6423SOL    HW119727   4.023   1.782  10.868
 6423SOL    HW219728   4.107   1.647  10.902
 6424SOL     OW19729   4.318   0.745   9.962
 6424SOL    HW119730   4.368   0.830   9.943
 6424SOL    HW219731   4.230   0.747   9.914
 6425SOL     OW19732   3.803   1.240   9.963
 6425SOL    HW119733   3.802   1.193  10.051
 6425SOL    HW219734   3.885   1.212   9.912
 6426SOL     OW19735   4.396   1.391  10.934
 6426SOL    HW119736   4.318   1.341  10.972
 6426SOL    HW219737   4.393   1.486  10.965
 6427SOL     OW19738   4.152   0.424   9.830
 6427SOL    HW119739   4.182   0.352   9.768
 6427SOL    HW219740   4.113   0.384   9.913
 6428SOL     OW19741   4.041   0.547  10.590
 6428SOL    HW119742   4.079   0.488  10.662
 6428SOL    HW219743   4.081   0.521  10.502
 6429SOL     OW19744   4.536   1.586   9.997
 6429SOL    HW119745   4.568   1.596   9.903
 6429SOL    HW219746   4.457   1.524   9.999
 6430SOL     OW19747   3.763   1.077   9.610
 6430SOL    HW119748   3.862   1.066   9.601
 6430SOL    HW219749   3.723   0.991   9.642
 6431SOL     OW19750   3.954   2.490   0.113
 6431SOL    HW119751   3.861   2.488   0.150
 6431SOL    HW219752   3.955   2.451   0.021
 6432SOL     OW19753   3.949   2.137   0.996
 6432SOL    HW119754   3.984   2.120   1.088
 6432SOL    HW219755   3.861   2.092   0.984
 6433SOL     OW19756   3.743   2.230   0.647
 6433SOL    HW119757   3.661   2.273   0.686
 6433SOL    HW219758   3.715   2.157   0.584
 6434SOL     OW19759   4.293   3.137   1.165
 6434SOL    HW119760   4.200   3.130   1.128
 6434SOL    HW219761   4.304   3.226   1.209
 6435SOL     OW19762   4.574   2.660   1.823
 6435SOL    HW119763   4.570   2.736   1.888
 6435SOL    HW219764   4.596   2.696   1.732
 6436SOL     OW19765   4.409   2.874   0.665
 6436SOL    HW119766   4.478   2.858   0.735
 6436SOL    HW219767   4.336   2.931   0.703
 6437SOL     OW19768   4.410   3.023   1.803
 6437SOL    HW119769   4.470   3.102   1.817
 6437SOL    HW219770   4.324   3.054   1.762
 6438SOL     OW19771   4.059   3.297   1.061
 6438SOL    HW119772   3.981   3.266   1.008
 6438SOL    HW219773   4.117   3.355   1.004
 6439SOL     OW19774   4.162   2.254   1.499
 6439SOL    HW119775   4.244   2.198   1.508
 6439SOL    HW219776   4.081   2.196   1.503
 6440SOL     OW19777   3.955   3.575   0.483
 6440SOL    HW119778   3.989   3.652   0.537
 6440SOL    HW219779   3.999   3.575   0.393
 6441SOL     OW19780   3.954   3.296   0.538
 6441SOL    HW119781   3.928   3.392   0.538
 6441SOL    HW219782   3.883   3.242   0.583
 6442SOL     OW19783   3.964   2.953   0.886
 6442SOL    HW119784   3.978   2.869   0.938
 6442SOL    HW219785   3.909   3.017   0.941
 6443SOL     OW19786   4.344   3.648   1.439
 6443SOL    HW119787   4.252   3.631   1.474
 6443SOL    HW219788   4.372   3.740   1.465
 6444SOL     OW19789   4.330   2.826   0.123
 6444SOL    HW119790   4.337   2.910   0.069
 6444SOL    HW219791   4.376   2.839   0.211
 6445SOL     OW19792   3.846   2.505   0.563
 6445SOL    HW119793   3.801   2.417   0.580
 6445SOL    HW219794   3.845   2.559   0.647
 6446SOL     OW19795   3.751   3.458   0.117
 6446SOL    HW119796   3.732   3.362   0.138
 6446SOL    HW219797   3.718   3.516   0.192
 6447SOL     OW19798   3.837   2.599   1.597
 6447SOL    HW119799   3.925   2.586   1.642
 6447SOL    HW219800   3.824   2.696   1.575
 6448SOL     OW19801   4.337   3.227   0.726
 6448SOL    HW119802   4.288   3.140   0.735
 6448SOL    HW219803   4.314   3.270   0.639
 6449SOL     OW19804   4.533   1.866   0.502
 6449SOL    HW119805   4.573   1.957   0.493
 6449SOL    HW219806   4.433   1.874   0.508
 6450SOL     OW19807   3.921   2.838   1.264
 6450SOL    HW119808   4.010   2.793   1.250
 6450SOL    HW219809   3.848   2.773   1.245
 6451SOL     OW19810   4.041   2.113   1.801
 6451SOL    HW119811   4.112   2.184   1.807
 6451SOL    HW219812   3.953   2.152   1.829
 6452SOL     OW19813   4.322   2.591   0.270
 6452SOL    HW119814   4.346   2.660   0.202
 6452SOL    HW219815   4.244   2.624   0.324
 6453SOL     OW19816   3.800   2.673   0.789
 6453SOL    HW119817   3.899   2.661   0.798
 6453SOL    HW219818   3.776   2.768   0.810
 6454SOL     OW19819   3.854   3.683   1.571
 6454SOL    HW119820   3.844   3.668   1.670
 6454SOL    HW219821   3.768   3.719   1.535
 6455SOL     OW19822   4.274   2.058   0.885
 6455SOL    HW119823   4.269   2.053   0.985
 6455SOL    HW219824   4.276   2.154   0.856
 6456SOL     OW19825   4.075   3.663   0.853
 6456SOL    HW119826   4.125   3.577   0.859
 6456SOL    HW219827   4.140   3.740   0.850
 6457SOL     OW19828   4.045   2.805   0.242
 6457SOL    HW119829   4.127   2.844   0.200
 6457SOL    HW219830   4.018   2.723   0.193
 6458SOL     OW19831   4.185   3.128   1.727
 6458SOL    HW119832   4.135   3.129   1.641
 6458SOL    HW219833   4.122   3.110   1.803
 6459SOL     OW19834   3.926   2.147   1.498
 6459SOL    HW119835   3.846   2.207   1.485
 6459SOL    HW219836   3.916   2.098   1.584
 6460SOL     OW19837   4.188   3.605   0.323
 6460SOL    HW119838   4.221   3.644   0.409
 6460SOL    HW219839   4.264   3.598   0.258
 6461SOL     OW19840   3.973   3.647   1.241
 6461SOL    HW119841   4.030   3.582   1.291
 6461SOL    HW219842   3.957   3.614   1.148
 6462SOL     OW19843   4.106   2.562   0.480
 6462SOL    HW119844   4.151   2.472   0.477
 6462SOL    HW219845   4.012   2.551   0.513
 6463SOL     OW19846   4.338   1.984   0.117
 6463SOL    HW119847   4.436   1.962   0.124
 6463SOL    HW219848   4.307   1.967   0.024
 6464SOL     OW19849   4.527   3.264   0.924
 6464SOL    HW119850   4.617   3.278   0.882
 6464SOL    HW219851   4.456   3.266   0.853
 6465SOL     OW19852   4.263   1.926   0.512
 6465SOL    HW119853   4.182   1.927   0.570
 6465SOL    HW219854   4.266   2.009   0.457
 6466SOL     OW19855   4.021   1.897   0.171
 6466SOL    HW119856   4.070   1.981   0.150
 6466SOL    HW219857   4.083   1.832   0.216
 6467SOL     OW19858   4.800   2.545   1.464
 6467SOL    HW119859   4.720   2.484   1.467
 6467SOL    HW219860   4.881   2.492   1.440
 6468SOL     OW19861   4.183   3.014   0.741
 6468SOL    HW119862   4.112   2.987   0.806
 6468SOL    HW219863   4.157   2.986   0.648
 6469SOL     OW19864   3.802   2.418   1.386
 6469SOL    HW119865   3.894   2.417   1.345
 6469SOL    HW219866   3.796   2.492   1.453
 6470SOL     OW19867   4.285   2.084   1.147
 6470SOL    HW119868   4.323   2.000   1.184
 6470SOL    HW219869   4.197   2.103   1.191
 6471SOL     OW19870   4.212   3.247   0.174
 6471SOL    HW119871   4.125   3.232   0.221
 6471SOL    HW219872   4.195   3.273   0.079
 6472SOL     OW19873   4.251   2.118   0.328
 6472SOL    HW119874   4.278   2.059   0.253
 6472SOL    HW219875   4.251   2.213   0.297
 6473SOL     OW19876   4.134   2.675   1.251
 6473SOL    HW119877   4.220   2.687   1.301
 6473SOL    HW219878   4.092   2.588   1.278
 6474SOL     OW19879   3.788   3.426   1.331
 6474SOL    HW119880   3.742   3.508   1.297
 6474SOL    HW219881   3.886   3.445   1.340
 6475SOL     OW19882   4.091   2.962   0.501
 6475SOL    HW119883   4.084   3.045   0.445
 6475SOL    HW219884   4.095   2.882   0.441
 6476SOL     OW19885   4.290   2.399   0.865
 6476SOL    HW119886   4.302   2.465   0.791
 6476SOL    HW219887   4.336   2.433   0.948
 6477SOL     OW19888   4.078   3.372   1.329
 6477SOL    HW119889   4.057   3.328   1.242
 6477SOL    HW219890   4.175   3.398   1.332
 6478SOL     OW19891   4.126   2.613   1.598
 6478SOL    HW119892   4.194   2.668   1.551
 6478SOL    HW219893   4.166   2.525   1.625
 6479SOL     OW19894   4.228   1.912   1.740
 6479SOL    HW119895   4.186   1.855   1.670
 6479SOL    HW219896   4.162   1.981   1.772
 6480SOL     OW19897   4.297   2.732   1.029
 6480SOL    HW119898   4.341   2.821   1.020
 6480SOL    HW219899   4.234   2.732   1.106
 6481SOL     OW19900   4.031   2.075   1.231
 6481SOL    HW119901   4.008   2.112   1.321
 6481SOL    HW219902   4.001   1.980   1.225
 6482SOL     OW19903   3.761   3.172   1.282
 6482SOL    HW119904   3.814   3.123   1.350
 6482SOL    HW219905   3.783   3.270   1.287
 6483SOL     OW19906   4.031   1.925   0.618
 6483SOL    HW119907   4.020   2.019   0.651
 6483SOL    HW219908   4.026   1.862   0.695
 6484SOL     OW19909   4.074   2.760   1.804
 6484SOL    HW119910   4.150   2.804   1.852
 6484SOL    HW219911   4.109   2.713   1.722
 6485SOL     OW19912   4.043   2.672   0.949
 6485SOL    HW119913   4.136   2.708   0.954
 6485SOL    HW219914   4.037   2.587   1.001
 6486SOL     OW19915   4.063   2.371   1.006
 6486SOL    HW119916   4.011   2.288   0.989
 6486SOL    HW219917   4.140   2.376   0.942
 6487SOL     OW19918   3.732   3.188   0.200
 6487SOL    HW119919   3.639   3.209   0.169
 6487SOL    HW219920   3.742   3.089   0.213
 6488SOL     OW19921   3.812   3.663   0.927
 6488SOL    HW119922   3.770   3.577   0.900
 6488SOL    HW219923   3.906   3.666   0.893
 6489SOL     OW19924   4.228   3.430   0.910
 6489SOL    HW119925   4.294   3.504   0.919
 6489SOL    HW219926   4.272   3.351   0.868
 6490SOL     OW19927   3.764   2.406   1.114
 6490SOL    HW119928   3.849   2.373   1.073
 6490SOL    HW219929   3.777   2.421   1.212
 6491SOL     OW19930   3.913   2.382   1.722
 6491SOL    HW119931   3.972   2.342   1.652
 6491SOL    HW219932   3.855   2.453   1.681
 6492SOL     OW19933   4.539   2.434   0.325
 6492SOL    HW119934   4.546   2.345   0.279
 6492SOL    HW219935   4.445   2.468   0.317
 6493SOL     OW19936   3.976   3.426   1.744
 6493SOL    HW119937   3.946   3.483   1.820
 6493SOL    HW219938   3.969   3.329   1.770
 6494SOL     OW19939   4.197   2.362   0.191
 6494SOL    HW119940   4.258   2.442   0.195
 6494SOL    HW219941   4.102   2.393   0.198
 6495SOL     OW19942   3.883   2.999   1.466
 6495SOL    HW119943   3.905   2.938   1.542
 6495SOL    HW219944   3.893   2.950   1.380
 6496SOL     OW19945   3.807   3.120   1.022
 6496SOL    HW119946   3.802   3.119   1.122
 6496SOL    HW219947   3.724   3.079   0.984
 6497SOL     OW19948   4.412   3.524   1.716
 6497SOL    HW119949   4.356   3.605   1.725
 6497SOL    HW219950   4.464   3.528   1.630
 6498SOL     OW19951   3.854   3.656   1.851
 6498SOL    HW119952   3.813   3.582   1.904
 6498SOL    HW219953   3.918   3.707   1.909
 6499SOL     OW19954   3.987   2.188   0.720
 6499SOL    HW119955   3.908   2.239   0.686
 6499SOL    HW219956   3.978   2.173   0.818
 6500SOL     OW19957   4.096   3.150   1.490
 6500SOL    HW119958   4.083   3.243   1.456
 6500SOL    HW219959   4.012   3.098   1.477
 6501SOL     OW19960   4.314   3.349   0.491
 6501SOL    HW119961   4.356   3.291   0.421
 6501SOL    HW219962   4.270   3.428   0.447
 6502SOL     OW19963   3.979   3.210   0.290
 6502SOL    HW119964   3.883   3.211   0.263
 6502SOL    HW219965   3.991   3.263   0.374
 6503SOL     OW19966   3.829   2.875   1.726
 6503SOL    HW119967   3.752   2.842   1.780
 6503SOL    HW219968   3.914   2.845   1.768
 6504SOL     OW19969   4.396   2.065   1.489
 6504SOL    HW119970   4.486   2.049   1.449
 6504SOL    HW219971   4.404   2.070   1.588
 6505SOL     OW19972   3.799   2.207   0.033
 6505SOL    HW119973   3.707   2.179   0.004
 6505SOL    HW219974   3.830   2.284  -0.023
 6506SOL     OW19975   3.796   2.028   0.318
 6506SOL    HW119976   3.779   2.111   0.264
 6506SOL    HW219977   3.886   1.991   0.296
 6507SOL     OW19978   4.337   2.704   1.431
 6507SOL    HW119979   4.393   2.785   1.414
 6507SOL    HW219980   4.396   2.624   1.434
 6508SOL     OW19981   4.440   2.427   1.708
 6508SOL    HW119982   4.459   2.492   1.782
 6508SOL    HW219983   4.500   2.347   1.717
 6509SOL     OW19984   4.114   3.603   1.560
 6509SOL    HW119985   4.023   3.644   1.558
 6509SOL    HW219986   4.107   3.509   1.592
 6510SOL     OW19987   4.318   2.607   0.652
 6510SOL    HW119988   4.368   2.692   0.633
 6510SOL    HW219989   4.230   2.609   0.604
 6511SOL     OW19990   3.945   3.176   1.844
 6511SOL    HW119991   3.880   3.103   1.823
 6511SOL    HW219992   3.949   3.190   1.942
 6512SOL     OW19993   3.803   3.102   0.653
 6512SOL    HW119994   3.802   3.055   0.741
 6512SOL    HW219995   3.885   3.074   0.602
 6513SOL     OW19996   4.396   3.253   1.624
 6513SOL    HW119997   4.318   3.203   1.662
 6513SOL    HW219998   4.393   3.348   1.655
 6514SOL     OW19999   4.152   2.286   0.520
 6514SOL    HW120000   4.182   2.214   0.458
 6514SOL    HW220001   4.113   2.246   0.603
 6515SOL     OW20002   4.041   2.409   1.280
 6515SOL    HW120003   4.079   2.350   1.352
 6515SOL    HW220004   4.081   2.383   1.192
 6516SOL     OW20005   4.536   3.448   0.687
 6516SOL    HW120006   4.568   3.458   0.593
 6516SOL    HW220007   4.457   3.386   0.689
 6517SOL     OW20008   3.763   2.939   0.300
 6517SOL    HW120009   3.862   2.928   0.291
 6517SOL    HW220010   3.723   2.853   0.332
 6518SOL     OW20011   3.954   2.490   1.975
 6518SOL    HW120012   3.861   2.488   2.012
 6518SOL    HW220013   3.955   2.451   1.883
 6519SOL     OW20014   3.949   2.137   2.858
 6519SOL    HW120015   3.984   2.120   2.950
 6519SOL    HW220016   3.861   2.092   2.846
 6520SOL     OW20017   3.743   2.230   2.509
 6520SOL    HW120018   3.661   2.273   2.548
 6520SOL    HW220019   3.715   2.157   2.446
 6521SOL     OW20020   4.293   3.137   3.027
 6521SOL    HW120021   4.200   3.130   2.990
 6521SOL    HW220022   4.304   3.226   3.071
 6522SOL     OW20023   4.574   2.660   3.685
 6522SOL    HW120024   4.570   2.736   3.750
 6522SOL    HW220025   4.596   2.696   3.594
 6523SOL     OW20026   4.409   2.874   2.527
 6523SOL    HW120027   4.478   2.858   2.597
 6523SOL    HW220028   4.336   2.931   2.565
 6524SOL     OW20029   4.410   3.023   3.665
 6524SOL    HW120030   4.470   3.102   3.679
 6524SOL    HW220031   4.324   3.054   3.624
 6525SOL     OW20032   4.059   3.297   2.923
 6525SOL    HW120033   3.981   3.266   2.870
 6525SOL    HW220034   4.117   3.355   2.866
 6526SOL     OW20035   4.162   2.254   3.361
 6526SOL    HW120036   4.244   2.198   3.370
 6526SOL    HW220037   4.081   2.196   3.365
 6527SOL     OW20038   3.955   3.575   2.345
 6527SOL    HW120039   3.989   3.652   2.399
 6527SOL    HW220040   3.999   3.575   2.255
 6528SOL     OW20041   3.954   3.296   2.400
 6528SOL    HW120042   3.928   3.392   2.400
 6528SOL    HW220043   3.883   3.242   2.445
 6529SOL     OW20044   3.964   2.953   2.748
 6529SOL    HW120045   3.978   2.869   2.800
 6529SOL    HW220046   3.909   3.017   2.803
 6530SOL     OW20047   4.344   3.648   3.301
 6530SOL    HW120048   4.252   3.631   3.336
 6530SOL    HW220049   4.372   3.740   3.327
 6531SOL     OW20050   4.330   2.826   1.985
 6531SOL    HW120051   4.337   2.910   1.931
 6531SOL    HW220052   4.376   2.839   2.073
 6532SOL     OW20053   3.846   2.505   2.425
 6532SOL    HW120054   3.801   2.417   2.442
 6532SOL    HW220055   3.845   2.559   2.509
 6533SOL     OW20056   3.751   3.458   1.979
 6533SOL    HW120057   3.732   3.362   2.000
 6533SOL    HW220058   3.718   3.516   2.054
 6534SOL     OW20059   3.837   2.599   3.459
 6534SOL    HW120060   3.925   2.586   3.504
 6534SOL    HW220061   3.824   2.696   3.437
 6535SOL     OW20062   4.337   3.227   2.588
 6535SOL    HW120063   4.288   3.140   2.597
 6535SOL    HW220064   4.314   3.270   2.501
 6536SOL     OW20065   4.533   1.866   2.364
 6536SOL    HW120066   4.573   1.957   2.355
 6536SOL    HW220067   4.433   1.874   2.370
 6537SOL     OW20068   3.921   2.838   3.126
 6537SOL    HW120069   4.010   2.793   3.112
 6537SOL    HW220070   3.848   2.773   3.107
 6538SOL     OW20071   4.041   2.113   3.663
 6538SOL    HW120072   4.112   2.184   3.669
 6538SOL    HW220073   3.953   2.152   3.691
 6539SOL     OW20074   4.322   2.591   2.132
 6539SOL    HW120075   4.346   2.660   2.064
 6539SOL    HW220076   4.244   2.624   2.186
 6540SOL     OW20077   3.800   2.673   2.651
 6540SOL    HW120078   3.899   2.661   2.660
 6540SOL    HW220079   3.776   2.768   2.672
 6541SOL     OW20080   3.854   3.683   3.433
 6541SOL    HW120081   3.844   3.668   3.532
 6541SOL    HW220082   3.768   3.719   3.397
 6542SOL     OW20083   4.274   2.058   2.747
 6542SOL    HW120084   4.269   2.053   2.847
 6542SOL    HW220085   4.276   2.154   2.718
 6543SOL     OW20086   4.075   3.663   2.715
 6543SOL    HW120087   4.125   3.577   2.721
 6543SOL    HW220088   4.140   3.740   2.712
 6544SOL     OW20089   4.045   2.805   2.104
 6544SOL    HW120090   4.127   2.844   2.062
 6544SOL    HW220091   4.018   2.723   2.055
 6545SOL     OW20092   4.185   3.128   3.589
 6545SOL    HW120093   4.135   3.129   3.503
 6545SOL    HW220094   4.122   3.110   3.665
 6546SOL     OW20095   3.926   2.147   3.360
 6546SOL    HW120096   3.846   2.207   3.347
 6546SOL    HW220097   3.916   2.098   3.446
 6547SOL     OW20098   4.188   3.605   2.185
 6547SOL    HW120099   4.221   3.644   2.271
 6547SOL    HW220100   4.264   3.598   2.120
 6548SOL     OW20101   3.973   3.647   3.103
 6548SOL    HW120102   4.030   3.582   3.153
 6548SOL    HW220103   3.957   3.614   3.010
 6549SOL     OW20104   4.106   2.562   2.342
 6549SOL    HW120105   4.151   2.472   2.339
 6549SOL    HW220106   4.012   2.551   2.375
 6550SOL     OW20107   4.338   1.984   1.979
 6550SOL    HW120108   4.436   1.962   1.986
 6550SOL    HW220109   4.307   1.967   1.886
 6551SOL     OW20110   4.527   3.264   2.786
 6551SOL    HW120111   4.617   3.278   2.744
 6551SOL    HW220112   4.456   3.266   2.715
 6552SOL     OW20113   4.263   1.926   2.374
 6552SOL    HW120114   4.182   1.927   2.432
 6552SOL    HW220115   4.266   2.009   2.319
 6553SOL     OW20116   4.021   1.897   2.033
 6553SOL    HW120117   4.070   1.981   2.012
 6553SOL    HW220118   4.083   1.832   2.078
 6554SOL     OW20119   4.800   2.545   3.326
 6554SOL    HW120120   4.720   2.484   3.329
 6554SOL    HW220121   4.881   2.492   3.302
 6555SOL     OW20122   4.183   3.014   2.603
 6555SOL    HW120123   4.112   2.987   2.668
 6555SOL    HW220124   4.157   2.986   2.510
 6556SOL     OW20125   3.802   2.418   3.248
 6556SOL    HW120126   3.894   2.417   3.207
 6556SOL    HW220127   3.796   2.492   3.315
 6557SOL     OW20128   4.285   2.084   3.009
 6557SOL    HW120129   4.323   2.000   3.046
 6557SOL    HW220130   4.197   2.103   3.053
 6558SOL     OW20131   4.212   3.247   2.036
 6558SOL    HW120132   4.125   3.232   2.083
 6558SOL    HW220133   4.195   3.273   1.941
 6559SOL     OW20134   4.251   2.118   2.190
 6559SOL    HW120135   4.278   2.059   2.115
 6559SOL    HW220136   4.251   2.213   2.159
 6560SOL     OW20137   4.134   2.675   3.113
 6560SOL    HW120138   4.220   2.687   3.163
 6560SOL    HW220139   4.092   2.588   3.140
 6561SOL     OW20140   3.788   3.426   3.193
 6561SOL    HW120141   3.742   3.508   3.159
 6561SOL    HW220142   3.886   3.445   3.202
 6562SOL     OW20143   4.091   2.962   2.363
 6562SOL    HW120144   4.084   3.045   2.307
 6562SOL    HW220145   4.095   2.882   2.303
 6563SOL     OW20146   4.290   2.399   2.727
 6563SOL    HW120147   4.302   2.465   2.653
 6563SOL    HW220148   4.336   2.433   2.810
 6564SOL     OW20149   4.078   3.372   3.191
 6564SOL    HW120150   4.057   3.328   3.104
 6564SOL    HW220151   4.175   3.398   3.194
 6565SOL     OW20152   4.126   2.613   3.460
 6565SOL    HW120153   4.194   2.668   3.413
 6565SOL    HW220154   4.166   2.525   3.487
 6566SOL     OW20155   4.228   1.912   3.602
 6566SOL    HW120156   4.186   1.855   3.532
 6566SOL    HW220157   4.162   1.981   3.634
 6567SOL     OW20158   4.297   2.732   2.891
 6567SOL    HW120159   4.341   2.821   2.882
 6567SOL    HW220160   4.234   2.732   2.968
 6568SOL     OW20161   4.031   2.075   3.093
 6568SOL    HW120162   4.008   2.112   3.183
 6568SOL    HW220163   4.001   1.980   3.087
 6569SOL     OW20164   3.761   3.172   3.144
 6569SOL    HW120165   3.814   3.123   3.212
 6569SOL    HW220166   3.783   3.270   3.149
 6570SOL     OW20167   4.031   1.925   2.480
 6570SOL    HW120168   4.020   2.019   2.513
 6570SOL    HW220169   4.026   1.862   2.557
 6571SOL     OW20170   4.074   2.760   3.666
 6571SOL    HW120171   4.150   2.804   3.714
 6571SOL    HW220172   4.109   2.713   3.584
 6572SOL     OW20173   4.043   2.672   2.811
 6572SOL    HW120174   4.136   2.708   2.816
 6572SOL    HW220175   4.037   2.587   2.863
 6573SOL     OW20176   4.063   2.371   2.868
 6573SOL    HW120177   4.011   2.288   2.851
 6573SOL    HW220178   4.140   2.376   2.804
 6574SOL     OW20179   3.732   3.188   2.062
 6574SOL    HW120180   3.639   3.209   2.031
 6574SOL    HW220181   3.742   3.089   2.075
 6575SOL     OW20182   3.812   3.663   2.789
 6575SOL    HW120183   3.770   3.577   2.762
 6575SOL    HW220184   3.906   3.666   2.755
 6576SOL     OW20185   4.228   3.430   2.772
 6576SOL    HW120186   4.294   3.504   2.781
 6576SOL    HW220187   4.272   3.351   2.730
 6577SOL     OW20188   3.764   2.406   2.976
 6577SOL    HW120189   3.849   2.373   2.935
 6577SOL    HW220190   3.777   2.421   3.074
 6578SOL     OW20191   3.913   2.382   3.584
 6578SOL    HW120192   3.972   2.342   3.514
 6578SOL    HW220193   3.855   2.453   3.543
 6579SOL     OW20194   4.539   2.434   2.187
 6579SOL    HW120195   4.546   2.345   2.141
 6579SOL    HW220196   4.445   2.468   2.179
 6580SOL     OW20197   3.976   3.426   3.606
 6580SOL    HW120198   3.946   3.483   3.682
 6580SOL    HW220199   3.969   3.329   3.632
 6581SOL     OW20200   4.197   2.362   2.053
 6581SOL    HW120201   4.258   2.442   2.057
 6581SOL    HW220202   4.102   2.393   2.060
 6582SOL     OW20203   3.883   2.999   3.328
 6582SOL    HW120204   3.905   2.938   3.404
 6582SOL    HW220205   3.893   2.950   3.242
 6583SOL     OW20206   3.807   3.120   2.884
 6583SOL    HW120207   3.802   3.119   2.984
 6583SOL    HW220208   3.724   3.079   2.846
 6584SOL     OW20209   4.412   3.524   3.578
 6584SOL    HW120210   4.356   3.605   3.587
 6584SOL    HW220211   4.464   3.528   3.492
 6585SOL     OW20212   3.854   3.656   3.713
 6585SOL    HW120213   3.813   3.582   3.766
 6585SOL    HW220214   3.918   3.707   3.771
 6586SOL     OW20215   3.987   2.188   2.582
 6586SOL    HW120216   3.908   2.239   2.548
 6586SOL    HW220217   3.978   2.173   2.680
 6587SOL     OW20218   4.096   3.150   3.352
 6587SOL    HW120219   4.083   3.243   3.318
 6587SOL    HW220220   4.012   3.098   3.339
 6588SOL     OW20221   4.314   3.349   2.353
 6588SOL    HW120222   4.356   3.291   2.283
 6588SOL    HW220223   4.270   3.428   2.309
 6589SOL     OW20224   3.979   3.210   2.152
 6589SOL    HW120225   3.883   3.211   2.125
 6589SOL    HW220226   3.991   3.263   2.236
 6590SOL     OW20227   3.829   2.875   3.588
 6590SOL    HW120228   3.752   2.842   3.642
 6590SOL    HW220229   3.914   2.845   3.630
 6591SOL     OW20230   4.396   2.065   3.351
 6591SOL    HW120231   4.486   2.049   3.311
 6591SOL    HW220232   4.404   2.070   3.450
 6592SOL     OW20233   3.799   2.207   1.895
 6592SOL    HW120234   3.707   2.179   1.866
 6592SOL    HW220235   3.830   2.284   1.839
 6593SOL     OW20236   3.796   2.028   2.180
 6593SOL    HW120237   3.779   2.111   2.126
 6593SOL    HW220238   3.886   1.991   2.158
 6594SOL     OW20239   4.337   2.704   3.293
 6594SOL    HW120240   4.393   2.785   3.276
 6594SOL    HW220241   4.396   2.624   3.296
 6595SOL     OW20242   4.440   2.427   3.570
 6595SOL    HW120243   4.459   2.492   3.644
 6595SOL    HW220244   4.500   2.347   3.579
 6596SOL     OW20245   4.114   3.603   3.422
 6596SOL    HW120246   4.023   3.644   3.420
 6596SOL    HW220247   4.107   3.509   3.454
 6597SOL     OW20248   4.318   2.607   2.514
 6597SOL    HW120249   4.368   2.692   2.495
 6597SOL    HW220250   4.230   2.609   2.466
 6598SOL     OW20251   3.945   3.176   3.706
 6598SOL    HW120252   3.880   3.103   3.685
 6598SOL    HW220253   3.949   3.190   3.804
 6599SOL     OW20254   3.803   3.102   2.515
 6599SOL    HW120255   3.802   3.055   2.603
 6599SOL    HW220256   3.885   3.074   2.464
 6600SOL     OW20257   4.396   3.253   3.486
 6600SOL    HW120258   4.318   3.203   3.524
 6600SOL    HW220259   4.393   3.348   3.517
 6601SOL     OW20260   4.152   2.286   2.382
 6601SOL    HW120261   4.182   2.214   2.320
 6601SOL    HW220262   4.113   2.246   2.465
 6602SOL     OW20263   4.041   2.409   3.142
 6602SOL    HW120264   4.079   2.350   3.214
 6602SOL    HW220265   4.081   2.383   3.054
 6603SOL     OW20266   4.536   3.448   2.549
 6603SOL    HW120267   4.568   3.458   2.455
 6603SOL    HW220268   4.457   3.386   2.551
 6604SOL     OW20269   3.763   2.939   2.162
 6604SOL    HW120270   3.862   2.928   2.153
 6604SOL    HW220271   3.723   2.853   2.194
 6605SOL     OW20272   3.954   2.490   3.837
 6605SOL    HW120273   3.861   2.488   3.874
 6605SOL    HW220274   3.955   2.451   3.745
 6606SOL     OW20275   3.949   2.137   4.720
 6606SOL    HW120276   3.984   2.120   4.812
 6606SOL    HW220277   3.861   2.092   4.708
 6607SOL     OW20278   3.743   2.230   4.371
 6607SOL    HW120279   3.661   2.273   4.410
 6607SOL    HW220280   3.715   2.157   4.308
 6608SOL     OW20281   4.293   3.137   4.889
 6608SOL    HW120282   4.200   3.130   4.852
 6608SOL    HW220283   4.304   3.226   4.933
 6609SOL     OW20284   4.574   2.660   5.547
 6609SOL    HW120285   4.570   2.736   5.612
 6609SOL    HW220286   4.596   2.696   5.456
 6610SOL     OW20287   4.409   2.874   4.389
 6610SOL    HW120288   4.478   2.858   4.459
 6610SOL    HW220289   4.336   2.931   4.427
 6611SOL     OW20290   4.410   3.023   5.527
 6611SOL    HW120291   4.470   3.102   5.541
 6611SOL    HW220292   4.324   3.054   5.486
 6612SOL     OW20293   4.059   3.297   4.785
 6612SOL    HW120294   3.981   3.266   4.732
 6612SOL    HW220295   4.117   3.355   4.728
 6613SOL     OW20296   4.162   2.254   5.223
 6613SOL    HW120297   4.244   2.198   5.232
 6613SOL    HW220298   4.081   2.196   5.227
 6614SOL     OW20299   3.955   3.575   4.207
 6614SOL    HW120300   3.989   3.652   4.261
 6614SOL    HW220301   3.999   3.575   4.117
 6615SOL     OW20302   3.954   3.296   4.262
 6615SOL    HW120303   3.928   3.392   4.262
 6615SOL    HW220304   3.883   3.242   4.307
 6616SOL     OW20305   3.964   2.953   4.610
 6616SOL    HW120306   3.978   2.869   4.662
 6616SOL    HW220307   3.909   3.017   4.665
 6617SOL     OW20308   4.344   3.648   5.163
 6617SOL    HW120309   4.252   3.631   5.198
 6617SOL    HW220310   4.372   3.740   5.189
 6618SOL     OW20311   4.330   2.826   3.847
 6618SOL    HW120312   4.337   2.910   3.793
 6618SOL    HW220313   4.376   2.839   3.935
 6619SOL     OW20314   3.846   2.505   4.287
 6619SOL    HW120315   3.801   2.417   4.304
 6619SOL    HW220316   3.845   2.559   4.371
 6620SOL     OW20317   3.751   3.458   3.841
 6620SOL    HW120318   3.732   3.362   3.862
 6620SOL    HW220319   3.718   3.516   3.916
 6621SOL     OW20320   3.837   2.599   5.321
 6621SOL    HW120321   3.925   2.586   5.366
 6621SOL    HW220322   3.824   2.696   5.299
 6622SOL     OW20323   4.337   3.227   4.450
 6622SOL    HW120324   4.288   3.140   4.459
 6622SOL    HW220325   4.314   3.270   4.363
 6623SOL     OW20326   4.533   1.866   4.226
 6623SOL    HW120327   4.573   1.957   4.217
 6623SOL    HW220328   4.433   1.874   4.232
 6624SOL     OW20329   3.921   2.838   4.988
 6624SOL    HW120330   4.010   2.793   4.974
 6624SOL    HW220331   3.848   2.773   4.969
 6625SOL     OW20332   4.041   2.113   5.525
 6625SOL    HW120333   4.112   2.184   5.531
 6625SOL    HW220334   3.953   2.152   5.553
 6626SOL     OW20335   4.322   2.591   3.994
 6626SOL    HW120336   4.346   2.660   3.926
 6626SOL    HW220337   4.244   2.624   4.048
 6627SOL     OW20338   3.800   2.673   4.513
 6627SOL    HW120339   3.899   2.661   4.522
 6627SOL    HW220340   3.776   2.768   4.534
 6628SOL     OW20341   3.854   3.683   5.295
 6628SOL    HW120342   3.844   3.668   5.394
 6628SOL    HW220343   3.768   3.719   5.259
 6629SOL     OW20344   4.274   2.058   4.609
 6629SOL    HW120345   4.269   2.053   4.709
 6629SOL    HW220346   4.276   2.154   4.580
 6630SOL     OW20347   4.075   3.663   4.577
 6630SOL    HW120348   4.125   3.577   4.583
 6630SOL    HW220349   4.140   3.740   4.574
 6631SOL     OW20350   4.045   2.805   3.966
 6631SOL    HW120351   4.127   2.844   3.924
 6631SOL    HW220352   4.018   2.723   3.917
 6632SOL     OW20353   4.185   3.128   5.451
 6632SOL    HW120354   4.135   3.129   5.365
 6632SOL    HW220355   4.122   3.110   5.527
 6633SOL     OW20356   3.926   2.147   5.222
 6633SOL    HW120357   3.846   2.207   5.209
 6633SOL    HW220358   3.916   2.098   5.308
 6634SOL     OW20359   4.188   3.605   4.047
 6634SOL    HW120360   4.221   3.644   4.133
 6634SOL    HW220361   4.264   3.598   3.982
 6635SOL     OW20362   3.973   3.647   4.965
 6635SOL    HW120363   4.030   3.582   5.015
 6635SOL    HW220364   3.957   3.614   4.872
 6636SOL     OW20365   4.106   2.562   4.204
 6636SOL    HW120366   4.151   2.472   4.201
 6636SOL    HW220367   4.012   2.551   4.237
 6637SOL     OW20368   4.338   1.984   3.841
 6637SOL    HW120369   4.436   1.962   3.848
 6637SOL    HW220370   4.307   1.967   3.748
 6638SOL     OW20371   4.527   3.264   4.648
 6638SOL    HW120372   4.617   3.278   4.606
 6638SOL    HW220373   4.456   3.266   4.577
 6639SOL     OW20374   4.263   1.926   4.236
 6639SOL    HW120375   4.182   1.927   4.294
 6639SOL    HW220376   4.266   2.009   4.181
 6640SOL     OW20377   4.021   1.897   3.895
 6640SOL    HW120378   4.070   1.981   3.874
 6640SOL    HW220379   4.083   1.832   3.940
 6641SOL     OW20380   4.800   2.545   5.188
 6641SOL    HW120381   4.720   2.484   5.191
 6641SOL    HW220382   4.881   2.492   5.164
 6642SOL     OW20383   4.183   3.014   4.465
 6642SOL    HW120384   4.112   2.987   4.530
 6642SOL    HW220385   4.157   2.986   4.372
 6643SOL     OW20386   3.802   2.418   5.110
 6643SOL    HW120387   3.894   2.417   5.069
 6643SOL    HW220388   3.796   2.492   5.177
 6644SOL     OW20389   4.285   2.084   4.871
 6644SOL    HW120390   4.323   2.000   4.908
 6644SOL    HW220391   4.197   2.103   4.915
 6645SOL     OW20392   4.212   3.247   3.898
 6645SOL    HW120393   4.125   3.232   3.945
 6645SOL    HW220394   4.195   3.273   3.803
 6646SOL     OW20395   4.251   2.118   4.052
 6646SOL    HW120396   4.278   2.059   3.977
 6646SOL    HW220397   4.251   2.213   4.021
 6647SOL     OW20398   4.134   2.675   4.975
 6647SOL    HW120399   4.220   2.687   5.025
 6647SOL    HW220400   4.092   2.588   5.002
 6648SOL     OW20401   3.788   3.426   5.055
 6648SOL    HW120402   3.742   3.508   5.021
 6648SOL    HW220403   3.886   3.445   5.064
 6649SOL     OW20404   4.091   2.962   4.225
 6649SOL    HW120405   4.084   3.045   4.169
 6649SOL    HW220406   4.095   2.882   4.165
 6650SOL     OW20407   4.290   2.399   4.589
 6650SOL    HW120408   4.302   2.465   4.515
 6650SOL    HW220409   4.336   2.433   4.672
 6651SOL     OW20410   4.078   3.372   5.053
 6651SOL    HW120411   4.057   3.328   4.966
 6651SOL    HW220412   4.175   3.398   5.056
 6652SOL     OW20413   4.126   2.613   5.322
 6652SOL    HW120414   4.194   2.668   5.275
 6652SOL    HW220415   4.166   2.525   5.349
 6653SOL     OW20416   4.228   1.912   5.464
 6653SOL    HW120417   4.186   1.855   5.394
 6653SOL    HW220418   4.162   1.981   5.496
 6654SOL     OW20419   4.297   2.732   4.753
 6654SOL    HW120420   4.341   2.821   4.744
 6654SOL    HW220421   4.234   2.732   4.830
 6655SOL     OW20422   4.031   2.075   4.955
 6655SOL    HW120423   4.008   2.112   5.045
 6655SOL    HW220424   4.001   1.980   4.949
 6656SOL     OW20425   3.761   3.172   5.006
 6656SOL    HW120426   3.814   3.123   5.074
 6656SOL    HW220427   3.783   3.270   5.011
 6657SOL     OW20428   4.031   1.925   4.342
 6657SOL    HW120429   4.020   2.019   4.375
 6657SOL    HW220430   4.026   1.862   4.419
 6658SOL     OW20431   4.074   2.760   5.528
 6658SOL    HW120432   4.150   2.804   5.576
 6658SOL    HW220433   4.109   2.713   5.446
 6659SOL     OW20434   4.043   2.672   4.673
 6659SOL    HW120435   4.136   2.708   4.678
 6659SOL    HW220436   4.037   2.587   4.725
 6660SOL     OW20437   4.063   2.371   4.730
 6660SOL    HW120438   4.011   2.288   4.713
 6660SOL    HW220439   4.140   2.376   4.666
 6661SOL     OW20440   3.732   3.188   3.924
 6661SOL    HW120441   3.639   3.209   3.893
 6661SOL    HW220442   3.742   3.089   3.937
 6662SOL     OW20443   3.812   3.663   4.651
 6662SOL    HW120444   3.770   3.577   4.624
 6662SOL    HW220445   3.906   3.666   4.617
 6663SOL     OW20446   4.228   3.430   4.634
 6663SOL    HW120447   4.294   3.504   4.643
 6663SOL    HW220448   4.272   3.351   4.592
 6664SOL     OW20449   3.764   2.406   4.838
 6664SOL    HW120450   3.849   2.373   4.797
 6664SOL    HW220451   3.777   2.421   4.936
 6665SOL     OW20452   3.913   2.382   5.446
 6665SOL    HW120453   3.972   2.342   5.376
 6665SOL    HW220454   3.855   2.453   5.405
 6666SOL     OW20455   4.539   2.434   4.049
 6666SOL    HW120456   4.546   2.345   4.003
 6666SOL    HW220457   4.445   2.468   4.041
 6667SOL     OW20458   3.976   3.426   5.468
 6667SOL    HW120459   3.946   3.483   5.544
 6667SOL    HW220460   3.969   3.329   5.494
 6668SOL     OW20461   4.197   2.362   3.915
 6668SOL    HW120462   4.258   2.442   3.919
 6668SOL    HW220463   4.102   2.393   3.922
 6669SOL     OW20464   3.883   2.999   5.190
 6669SOL    HW120465   3.905   2.938   5.266
 6669SOL    HW220466   3.893   2.950   5.104
 6670SOL     OW20467   3.807   3.120   4.746
 6670SOL    HW120468   3.802   3.119   4.846
 6670SOL    HW220469   3.724   3.079   4.708
 6671SOL     OW20470   4.412   3.524   5.440
 6671SOL    HW120471   4.356   3.605   5.449
 6671SOL    HW220472   4.464   3.528   5.354
 6672SOL     OW20473   3.854   3.656   5.575
 6672SOL    HW120474   3.813   3.582   5.628
 6672SOL    HW220475   3.918   3.707   5.633
 6673SOL     OW20476   3.987   2.188   4.444
 6673SOL    HW120477   3.908   2.239   4.410
 6673SOL    HW220478   3.978   2.173   4.542
 6674SOL     OW20479   4.096   3.150   5.214
 6674SOL    HW120480   4.083   3.243   5.180
 6674SOL    HW220481   4.012   3.098   5.201
 6675SOL     OW20482   4.314   3.349   4.215
 6675SOL    HW120483   4.356   3.291   4.145
 6675SOL    HW220484   4.270   3.428   4.171
 6676SOL     OW20485   3.979   3.210   4.014
 6676SOL    HW120486   3.883   3.211   3.987
 6676SOL    HW220487   3.991   3.263   4.098
 6677SOL     OW20488   3.829   2.875   5.450
 6677SOL    HW120489   3.752   2.842   5.504
 6677SOL    HW220490   3.914   2.845   5.492
 6678SOL     OW20491   4.396   2.065   5.213
 6678SOL    HW120492   4.486   2.049   5.173
 6678SOL    HW220493   4.404   2.070   5.312
 6679SOL     OW20494   3.799   2.207   3.757
 6679SOL    HW120495   3.707   2.179   3.728
 6679SOL    HW220496   3.830   2.284   3.701
 6680SOL     OW20497   3.796   2.028   4.042
 6680SOL    HW120498   3.779   2.111   3.988
 6680SOL    HW220499   3.886   1.991   4.020
 6681SOL     OW20500   4.337   2.704   5.155
 6681SOL    HW120501   4.393   2.785   5.138
 6681SOL    HW220502   4.396   2.624   5.158
 6682SOL     OW20503   4.440   2.427   5.432
 6682SOL    HW120504   4.459   2.492   5.506
 6682SOL    HW220505   4.500   2.347   5.441
 6683SOL     OW20506   4.114   3.603   5.284
 6683SOL    HW120507   4.023   3.644   5.282
 6683SOL    HW220508   4.107   3.509   5.316
 6684SOL     OW20509   4.318   2.607   4.376
 6684SOL    HW120510   4.368   2.692   4.357
 6684SOL    HW220511   4.230   2.609   4.328
 6685SOL     OW20512   3.945   3.176   5.568
 6685SOL    HW120513   3.880   3.103   5.547
 6685SOL    HW220514   3.949   3.190   5.666
 6686SOL     OW20515   3.803   3.102   4.377
 6686SOL    HW120516   3.802   3.055   4.465
 6686SOL    HW220517   3.885   3.074   4.326
 6687SOL     OW20518   4.396   3.253   5.348
 6687SOL    HW120519   4.318   3.203   5.386
 6687SOL    HW220520   4.393   3.348   5.379
 6688SOL     OW20521   4.152   2.286   4.244
 6688SOL    HW120522   4.182   2.214   4.182
 6688SOL    HW220523   4.113   2.246   4.327
 6689SOL     OW20524   4.041   2.409   5.004
 6689SOL    HW120525   4.079   2.350   5.076
 6689SOL    HW220526   4.081   2.383   4.916
 6690SOL     OW20527   4.536   3.448   4.411
 6690SOL    HW120528   4.568   3.458   4.317
 6690SOL    HW220529   4.457   3.386   4.413
 6691SOL     OW20530   3.763   2.939   4.024
 6691SOL    HW120531   3.862   2.928   4.015
 6691SOL    HW220532   3.723   2.853   4.056
 6692SOL     OW20533   3.954   2.490   5.699
 6692SOL    HW120534   3.861   2.488   5.736
 6692SOL    HW220535   3.955   2.451   5.607
 6693SOL     OW20536   3.949   2.137   6.582
 6693SOL    HW120537   3.984   2.120   6.674
 6693SOL    HW220538   3.861   2.092   6.570
 6694SOL     OW20539   3.743   2.230   6.233
 6694SOL    HW120540   3.661   2.273   6.272
 6694SOL    HW220541   3.715   2.157   6.170
 6695SOL     OW20542   4.293   3.137   6.751
 6695SOL    HW120543   4.200   3.130   6.714
 6695SOL    HW220544   4.304   3.226   6.795
 6696SOL     OW20545   4.574   2.660   7.409
 6696SOL    HW120546   4.570   2.736   7.474
 6696SOL    HW220547   4.596   2.696   7.318
 6697SOL     OW20548   4.409   2.874   6.251
 6697SOL    HW120549   4.478   2.858   6.321
 6697SOL    HW220550   4.336   2.931   6.289
 6698SOL     OW20551   4.410   3.023   7.389
 6698SOL    HW120552   4.470   3.102   7.403
 6698SOL    HW220553   4.324   3.054   7.348
 6699SOL     OW20554   4.059   3.297   6.647
 6699SOL    HW120555   3.981   3.266   6.594
 6699SOL    HW220556   4.117   3.355   6.590
 6700SOL     OW20557   4.162   2.254   7.085
 6700SOL    HW120558   4.244   2.198   7.094
 6700SOL    HW220559   4.081   2.196   7.089
 6701SOL     OW20560   3.955   3.575   6.069
 6701SOL    HW120561   3.989   3.652   6.123
 6701SOL    HW220562   3.999   3.575   5.979
 6702SOL     OW20563   3.954   3.296   6.124
 6702SOL    HW120564   3.928   3.392   6.124
 6702SOL    HW220565   3.883   3.242   6.169
 6703SOL     OW20566   3.964   2.953   6.472
 6703SOL    HW120567   3.978   2.869   6.524
 6703SOL    HW220568   3.909   3.017   6.527
 6704SOL     OW20569   4.344   3.648   7.025
 6704SOL    HW120570   4.252   3.631   7.060
 6704SOL    HW220571   4.372   3.740   7.051
 6705SOL     OW20572   4.330   2.826   5.709
 6705SOL    HW120573   4.337   2.910   5.655
 6705SOL    HW220574   4.376   2.839   5.797
 6706SOL     OW20575   3.846   2.505   6.149
 6706SOL    HW120576   3.801   2.417   6.166
 6706SOL    HW220577   3.845   2.559   6.233
 6707SOL     OW20578   3.751   3.458   5.703
 6707SOL    HW120579   3.732   3.362   5.724
 6707SOL    HW220580   3.718   3.516   5.778
 6708SOL     OW20581   3.837   2.599   7.183
 6708SOL    HW120582   3.925   2.586   7.228
 6708SOL    HW220583   3.824   2.696   7.161
 6709SOL     OW20584   4.337   3.227   6.312
 6709SOL    HW120585   4.288   3.140   6.321
 6709SOL    HW220586   4.314   3.270   6.225
 6710SOL     OW20587   4.533   1.866   6.088
 6710SOL    HW120588   4.573   1.957   6.079
 6710SOL    HW220589   4.433   1.874   6.094
 6711SOL     OW20590   3.921   2.838   6.850
 6711SOL    HW120591   4.010   2.793   6.836
 6711SOL    HW220592   3.848   2.773   6.831
 6712SOL     OW20593   4.041   2.113   7.387
 6712SOL    HW120594   4.112   2.184   7.393
 6712SOL    HW220595   3.953   2.152   7.415
 6713SOL     OW20596   4.322   2.591   5.856
 6713SOL    HW120597   4.346   2.660   5.788
 6713SOL    HW220598   4.244   2.624   5.910
 6714SOL     OW20599   3.800   2.673   6.375
 6714SOL    HW120600   3.899   2.661   6.384
 6714SOL    HW220601   3.776   2.768   6.396
 6715SOL     OW20602   3.854   3.683   7.157
 6715SOL    HW120603   3.844   3.668   7.256
 6715SOL    HW220604   3.768   3.719   7.121
 6716SOL     OW20605   4.274   2.058   6.471
 6716SOL    HW120606   4.269   2.053   6.571
 6716SOL    HW220607   4.276   2.154   6.442
 6717SOL     OW20608   4.075   3.663   6.439
 6717SOL    HW120609   4.125   3.577   6.445
 6717SOL    HW220610   4.140   3.740   6.436
 6718SOL     OW20611   4.045   2.805   5.828
 6718SOL    HW120612   4.127   2.844   5.786
 6718SOL    HW220613   4.018   2.723   5.779
 6719SOL     OW20614   4.185   3.128   7.313
 6719SOL    HW120615   4.135   3.129   7.227
 6719SOL    HW220616   4.122   3.110   7.389
 6720SOL     OW20617   3.926   2.147   7.084
 6720SOL    HW120618   3.846   2.207   7.071
 6720SOL    HW220619   3.916   2.098   7.170
 6721SOL     OW20620   4.188   3.605   5.909
 6721SOL    HW120621   4.221   3.644   5.995
 6721SOL    HW220622   4.264   3.598   5.844
 6722SOL     OW20623   3.973   3.647   6.827
 6722SOL    HW120624   4.030   3.582   6.877
 6722SOL    HW220625   3.957   3.614   6.734
 6723SOL     OW20626   4.106   2.562   6.066
 6723SOL    HW120627   4.151   2.472   6.063
 6723SOL    HW220628   4.012   2.551   6.099
 6724SOL     OW20629   4.338   1.984   5.703
 6724SOL    HW120630   4.436   1.962   5.710
 6724SOL    HW220631   4.307   1.967   5.610
 6725SOL     OW20632   4.527   3.264   6.510
 6725SOL    HW120633   4.617   3.278   6.468
 6725SOL    HW220634   4.456   3.266   6.439
 6726SOL     OW20635   4.263   1.926   6.098
 6726SOL    HW120636   4.182   1.927   6.156
 6726SOL    HW220637   4.266   2.009   6.043
 6727SOL     OW20638   4.021   1.897   5.757
 6727SOL    HW120639   4.070   1.981   5.736
 6727SOL    HW220640   4.083   1.832   5.802
 6728SOL     OW20641   4.800   2.545   7.050
 6728SOL    HW120642   4.720   2.484   7.053
 6728SOL    HW220643   4.881   2.492   7.026
 6729SOL     OW20644   4.183   3.014   6.327
 6729SOL    HW120645   4.112   2.987   6.392
 6729SOL    HW220646   4.157   2.986   6.234
 6730SOL     OW20647   3.802   2.418   6.972
 6730SOL    HW120648   3.894   2.417   6.931
 6730SOL    HW220649   3.796   2.492   7.039
 6731SOL     OW20650   4.285   2.084   6.733
 6731SOL    HW120651   4.323   2.000   6.770
 6731SOL    HW220652   4.197   2.103   6.777
 6732SOL     OW20653   4.212   3.247   5.760
 6732SOL    HW120654   4.125   3.232   5.807
 6732SOL    HW220655   4.195   3.273   5.665
 6733SOL     OW20656   4.251   2.118   5.914
 6733SOL    HW120657   4.278   2.059   5.839
 6733SOL    HW220658   4.251   2.213   5.883
 6734SOL     OW20659   4.134   2.675   6.837
 6734SOL    HW120660   4.220   2.687   6.887
 6734SOL    HW220661   4.092   2.588   6.864
 6735SOL     OW20662   3.788   3.426   6.917
 6735SOL    HW120663   3.742   3.508   6.883
 6735SOL    HW220664   3.886   3.445   6.926
 6736SOL     OW20665   4.091   2.962   6.087
 6736SOL    HW120666   4.084   3.045   6.031
 6736SOL    HW220667   4.095   2.882   6.027
 6737SOL     OW20668   4.290   2.399   6.451
 6737SOL    HW120669   4.302   2.465   6.377
 6737SOL    HW220670   4.336   2.433   6.534
 6738SOL     OW20671   4.078   3.372   6.915
 6738SOL    HW120672   4.057   3.328   6.828
 6738SOL    HW220673   4.175   3.398   6.918
 6739SOL     OW20674   4.126   2.613   7.184
 6739SOL    HW120675   4.194   2.668   7.137
 6739SOL    HW220676   4.166   2.525   7.211
 6740SOL     OW20677   4.228   1.912   7.326
 6740SOL    HW120678   4.186   1.855   7.256
 6740SOL    HW220679   4.162   1.981   7.358
 6741SOL     OW20680   4.297   2.732   6.615
 6741SOL    HW120681   4.341   2.821   6.606
 6741SOL    HW220682   4.234   2.732   6.692
 6742SOL     OW20683   4.031   2.075   6.817
 6742SOL    HW120684   4.008   2.112   6.907
 6742SOL    HW220685   4.001   1.980   6.811
 6743SOL     OW20686   3.761   3.172   6.868
 6743SOL    HW120687   3.814   3.123   6.936
 6743SOL    HW220688   3.783   3.270   6.873
 6744SOL     OW20689   4.031   1.925   6.204
 6744SOL    HW120690   4.020   2.019   6.237
 6744SOL    HW220691   4.026   1.862   6.281
 6745SOL     OW20692   4.074   2.760   7.390
 6745SOL    HW120693   4.150   2.804   7.438
 6745SOL    HW220694   4.109   2.713   7.308
 6746SOL     OW20695   4.043   2.672   6.535
 6746SOL    HW120696   4.136   2.708   6.540
 6746SOL    HW220697   4.037   2.587   6.587
 6747SOL     OW20698   4.063   2.371   6.592
 6747SOL    HW120699   4.011   2.288   6.575
 6747SOL    HW220700   4.140   2.376   6.528
 6748SOL     OW20701   3.732   3.188   5.786
 6748SOL    HW120702   3.639   3.209   5.755
 6748SOL    HW220703   3.742   3.089   5.799
 6749SOL     OW20704   3.812   3.663   6.513
 6749SOL    HW120705   3.770   3.577   6.486
 6749SOL    HW220706   3.906   3.666   6.479
 6750SOL     OW20707   4.228   3.430   6.496
 6750SOL    HW120708   4.294   3.504   6.505
 6750SOL    HW220709   4.272   3.351   6.454
 6751SOL     OW20710   3.764   2.406   6.700
 6751SOL    HW120711   3.849   2.373   6.659
 6751SOL    HW220712   3.777   2.421   6.798
 6752SOL     OW20713   3.913   2.382   7.308
 6752SOL    HW120714   3.972   2.342   7.238
 6752SOL    HW220715   3.855   2.453   7.267
 6753SOL     OW20716   4.539   2.434   5.911
 6753SOL    HW120717   4.546   2.345   5.865
 6753SOL    HW220718   4.445   2.468   5.903
 6754SOL     OW20719   3.976   3.426   7.330
 6754SOL    HW120720   3.946   3.483   7.406
 6754SOL    HW220721   3.969   3.329   7.356
 6755SOL     OW20722   4.197   2.362   5.777
 6755SOL    HW120723   4.258   2.442   5.781
 6755SOL    HW220724   4.102   2.393   5.784
 6756SOL     OW20725   3.883   2.999   7.052
 6756SOL    HW120726   3.905   2.938   7.128
 6756SOL    HW220727   3.893   2.950   6.966
 6757SOL     OW20728   3.807   3.120   6.608
 6757SOL    HW120729   3.802   3.119   6.708
 6757SOL    HW220730   3.724   3.079   6.570
 6758SOL     OW20731   4.412   3.524   7.302
 6758SOL    HW120732   4.356   3.605   7.311
 6758SOL    HW220733   4.464   3.528   7.216
 6759SOL     OW20734   3.854   3.656   7.437
 6759SOL    HW120735   3.813   3.582   7.490
 6759SOL    HW220736   3.918   3.707   7.495
 6760SOL     OW20737   3.987   2.188   6.306
 6760SOL    HW120738   3.908   2.239   6.272
 6760SOL    HW220739   3.978   2.173   6.404
 6761SOL     OW20740   4.096   3.150   7.076
 6761SOL    HW120741   4.083   3.243   7.042
 6761SOL    HW220742   4.012   3.098   7.063
 6762SOL     OW20743   4.314   3.349   6.077
 6762SOL    HW120744   4.356   3.291   6.007
 6762SOL    HW220745   4.270   3.428   6.033
 6763SOL     OW20746   3.979   3.210   5.876
 6763SOL    HW120747   3.883   3.211   5.849
 6763SOL    HW220748   3.991   3.263   5.960
 6764SOL     OW20749   3.829   2.875   7.312
 6764SOL    HW120750   3.752   2.842   7.366
 6764SOL    HW220751   3.914   2.845   7.354
 6765SOL     OW20752   4.396   2.065   7.075
 6765SOL    HW120753   4.486   2.049   7.035
 6765SOL    HW220754   4.404   2.070   7.174
 6766SOL     OW20755   3.799   2.207   5.619
 6766SOL    HW120756   3.707   2.179   5.590
 6766SOL    HW220757   3.830   2.284   5.563
 6767SOL     OW20758   3.796   2.028   5.904
 6767SOL    HW120759   3.779   2.111   5.850
 6767SOL    HW220760   3.886   1.991   5.882
 6768SOL     OW20761   4.337   2.704   7.017
 6768SOL    HW120762   4.393   2.785   7.000
 6768SOL    HW220763   4.396   2.624   7.020
 6769SOL     OW20764   4.440   2.427   7.294
 6769SOL    HW120765   4.459   2.492   7.368
 6769SOL    HW220766   4.500   2.347   7.303
 6770SOL     OW20767   4.114   3.603   7.146
 6770SOL    HW120768   4.023   3.644   7.144
 6770SOL    HW220769   4.107   3.509   7.178
 6771SOL     OW20770   4.318   2.607   6.238
 6771SOL    HW120771   4.368   2.692   6.219
 6771SOL    HW220772   4.230   2.609   6.190
 6772SOL     OW20773   3.945   3.176   7.430
 6772SOL    HW120774   3.880   3.103   7.409
 6772SOL    HW220775   3.949   3.190   7.528
 6773SOL     OW20776   3.803   3.102   6.239
 6773SOL    HW120777   3.802   3.055   6.327
 6773SOL    HW220778   3.885   3.074   6.188
 6774SOL     OW20779   4.396   3.253   7.210
 6774SOL    HW120780   4.318   3.203   7.248
 6774SOL    HW220781   4.393   3.348   7.241
 6775SOL     OW20782   4.152   2.286   6.106
 6775SOL    HW120783   4.182   2.214   6.044
 6775SOL    HW220784   4.113   2.246   6.189
 6776SOL     OW20785   4.041   2.409   6.866
 6776SOL    HW120786   4.079   2.350   6.938
 6776SOL    HW220787   4.081   2.383   6.778
 6777SOL     OW20788   4.536   3.448   6.273
 6777SOL    HW120789   4.568   3.458   6.179
 6777SOL    HW220790   4.457   3.386   6.275
 6778SOL     OW20791   3.763   2.939   5.886
 6778SOL    HW120792   3.862   2.928   5.877
 6778SOL    HW220793   3.723   2.853   5.918
 6779SOL     OW20794   3.954   2.490   7.561
 6779SOL    HW120795   3.861   2.488   7.598
 6779SOL    HW220796   3.955   2.451   7.469
 6780SOL     OW20797   3.949   2.137   8.444
 6780SOL    HW120798   3.984   2.120   8.536
 6780SOL    HW220799   3.861   2.092   8.432
 6781SOL     OW20800   3.743   2.230   8.095
 6781SOL    HW120801   3.661   2.273   8.134
 6781SOL    HW220802   3.715   2.157   8.032
 6782SOL     OW20803   4.293   3.137   8.613
 6782SOL    HW120804   4.200   3.130   8.576
 6782SOL    HW220805   4.304   3.226   8.657
 6783SOL     OW20806   4.574   2.660   9.271
 6783SOL    HW120807   4.570   2.736   9.336
 6783SOL    HW220808   4.596   2.696   9.180
 6784SOL     OW20809   4.409   2.874   8.113
 6784SOL    HW120810   4.478   2.858   8.183
 6784SOL    HW220811   4.336   2.931   8.151
 6785SOL     OW20812   4.410   3.023   9.251
 6785SOL    HW120813   4.470   3.102   9.265
 6785SOL    HW220814   4.324   3.054   9.210
 6786SOL     OW20815   4.059   3.297   8.509
 6786SOL    HW120816   3.981   3.266   8.456
 6786SOL    HW220817   4.117   3.355   8.452
 6787SOL     OW20818   4.162   2.254   8.947
 6787SOL    HW120819   4.244   2.198   8.956
 6787SOL    HW220820   4.081   2.196   8.951
 6788SOL     OW20821   3.955   3.575   7.931
 6788SOL    HW120822   3.989   3.652   7.985
 6788SOL    HW220823   3.999   3.575   7.841
 6789SOL     OW20824   3.954   3.296   7.986
 6789SOL    HW120825   3.928   3.392   7.986
 6789SOL    HW220826   3.883   3.242   8.031
 6790SOL     OW20827   3.964   2.953   8.334
 6790SOL    HW120828   3.978   2.869   8.386
 6790SOL    HW220829   3.909   3.017   8.389
 6791SOL     OW20830   4.344   3.648   8.887
 6791SOL    HW120831   4.252   3.631   8.922
 6791SOL    HW220832   4.372   3.740   8.913
 6792SOL     OW20833   4.330   2.826   7.571
 6792SOL    HW120834   4.337   2.910   7.517
 6792SOL    HW220835   4.376   2.839   7.659
 6793SOL     OW20836   3.846   2.505   8.011
 6793SOL    HW120837   3.801   2.417   8.028
 6793SOL    HW220838   3.845   2.559   8.095
 6794SOL     OW20839   3.751   3.458   7.565
 6794SOL    HW120840   3.732   3.362   7.586
 6794SOL    HW220841   3.718   3.516   7.640
 6795SOL     OW20842   3.837   2.599   9.045
 6795SOL    HW120843   3.925   2.586   9.090
 6795SOL    HW220844   3.824   2.696   9.023
 6796SOL     OW20845   4.337   3.227   8.174
 6796SOL    HW120846   4.288   3.140   8.183
 6796SOL    HW220847   4.314   3.270   8.087
 6797SOL     OW20848   4.533   1.866   7.950
 6797SOL    HW120849   4.573   1.957   7.941
 6797SOL    HW220850   4.433   1.874   7.956
 6798SOL     OW20851   3.921   2.838   8.712
 6798SOL    HW120852   4.010   2.793   8.698
 6798SOL    HW220853   3.848   2.773   8.693
 6799SOL     OW20854   4.041   2.113   9.249
 6799SOL    HW120855   4.112   2.184   9.255
 6799SOL    HW220856   3.953   2.152   9.277
 6800SOL     OW20857   4.322   2.591   7.718
 6800SOL    HW120858   4.346   2.660   7.650
 6800SOL    HW220859   4.244   2.624   7.772
 6801SOL     OW20860   3.800   2.673   8.237
 6801SOL    HW120861   3.899   2.661   8.246
 6801SOL    HW220862   3.776   2.768   8.258
 6802SOL     OW20863   3.854   3.683   9.019
 6802SOL    HW120864   3.844   3.668   9.118
 6802SOL    HW220865   3.768   3.719   8.983
 6803SOL     OW20866   4.274   2.058   8.333
 6803SOL    HW120867   4.269   2.053   8.433
 6803SOL    HW220868   4.276   2.154   8.304
 6804SOL     OW20869   4.075   3.663   8.301
 6804SOL    HW120870   4.125   3.577   8.307
 6804SOL    HW220871   4.140   3.740   8.298
 6805SOL     OW20872   4.045   2.805   7.690
 6805SOL    HW120873   4.127   2.844   7.648
 6805SOL    HW220874   4.018   2.723   7.641
 6806SOL     OW20875   4.185   3.128   9.175
 6806SOL    HW120876   4.135   3.129   9.089
 6806SOL    HW220877   4.122   3.110   9.251
 6807SOL     OW20878   3.926   2.147   8.946
 6807SOL    HW120879   3.846   2.207   8.933
 6807SOL    HW220880   3.916   2.098   9.032
 6808SOL     OW20881   4.188   3.605   7.771
 6808SOL    HW120882   4.221   3.644   7.857
 6808SOL    HW220883   4.264   3.598   7.706
 6809SOL     OW20884   3.973   3.647   8.689
 6809SOL    HW120885   4.030   3.582   8.739
 6809SOL    HW220886   3.957   3.614   8.596
 6810SOL     OW20887   4.106   2.562   7.928
 6810SOL    HW120888   4.151   2.472   7.925
 6810SOL    HW220889   4.012   2.551   7.961
 6811SOL     OW20890   4.338   1.984   7.565
 6811SOL    HW120891   4.436   1.962   7.572
 6811SOL    HW220892   4.307   1.967   7.472
 6812SOL     OW20893   4.527   3.264   8.372
 6812SOL    HW120894   4.617   3.278   8.330
 6812SOL    HW220895   4.456   3.266   8.301
 6813SOL     OW20896   4.263   1.926   7.960
 6813SOL    HW120897   4.182   1.927   8.018
 6813SOL    HW220898   4.266   2.009   7.905
 6814SOL     OW20899   4.021   1.897   7.619
 6814SOL    HW120900   4.070   1.981   7.598
 6814SOL    HW220901   4.083   1.832   7.664
 6815SOL     OW20902   4.800   2.545   8.912
 6815SOL    HW120903   4.720   2.484   8.915
 6815SOL    HW220904   4.881   2.492   8.888
 6816SOL     OW20905   4.183   3.014   8.189
 6816SOL    HW120906   4.112   2.987   8.254
 6816SOL    HW220907   4.157   2.986   8.096
 6817SOL     OW20908   3.802   2.418   8.834
 6817SOL    HW120909   3.894   2.417   8.793
 6817SOL    HW220910   3.796   2.492   8.901
 6818SOL     OW20911   4.285   2.084   8.595
 6818SOL    HW120912   4.323   2.000   8.632
 6818SOL    HW220913   4.197   2.103   8.639
 6819SOL     OW20914   4.212   3.247   7.622
 6819SOL    HW120915   4.125   3.232   7.669
 6819SOL    HW220916   4.195   3.273   7.527
 6820SOL     OW20917   4.251   2.118   7.776
 6820SOL    HW120918   4.278   2.059   7.701
 6820SOL    HW220919   4.251   2.213   7.745
 6821SOL     OW20920   4.134   2.675   8.699
 6821SOL    HW120921   4.220   2.687   8.749
 6821SOL    HW220922   4.092   2.588   8.726
 6822SOL     OW20923   3.788   3.426   8.779
 6822SOL    HW120924   3.742   3.508   8.745
 6822SOL    HW220925   3.886   3.445   8.788
 6823SOL     OW20926   4.091   2.962   7.949
 6823SOL    HW120927   4.084   3.045   7.893
 6823SOL    HW220928   4.095   2.882   7.889
 6824SOL     OW20929   4.290   2.399   8.313
 6824SOL    HW120930   4.302   2.465   8.239
 6824SOL    HW220931   4.336   2.433   8.396
 6825SOL     OW20932   4.078   3.372   8.777
 6825SOL    HW120933   4.057   3.328   8.690
 6825SOL    HW220934   4.175   3.398   8.780
 6826SOL     OW20935   4.126   2.613   9.046
 6826SOL    HW120936   4.194   2.668   8.999
 6826SOL    HW220937   4.166   2.525   9.073
 6827SOL     OW20938   4.228   1.912   9.188
 6827SOL    HW120939   4.186   1.855   9.118
 6827SOL    HW220940   4.162   1.981   9.220
 6828SOL     OW20941   4.297   2.732   8.477
 6828SOL    HW120942   4.341   2.821   8.468
 6828SOL    HW220943   4.234   2.732   8.554
 6829SOL     OW20944   4.031   2.075   8.679
 6829SOL    HW120945   4.008   2.112   8.769
 6829SOL    HW220946   4.001   1.980   8.673
 6830SOL     OW20947   3.761   3.172   8.730
 6830SOL    HW120948   3.814   3.123   8.798
 6830SOL    HW220949   3.783   3.270   8.735
 6831SOL     OW20950   4.031   1.925   8.066
 6831SOL    HW120951   4.020   2.019   8.099
 6831SOL    HW220952   4.026   1.862   8.143
 6832SOL     OW20953   4.074   2.760   9.252
 6832SOL    HW120954   4.150   2.804   9.300
 6832SOL    HW220955   4.109   2.713   9.170
 6833SOL     OW20956   4.043   2.672   8.397
 6833SOL    HW120957   4.136   2.708   8.402
 6833SOL    HW220958   4.037   2.587   8.449
 6834SOL     OW20959   4.063   2.371   8.454
 6834SOL    HW120960   4.011   2.288   8.437
 6834SOL    HW220961   4.140   2.376   8.390
 6835SOL     OW20962   3.732   3.188   7.648
 6835SOL    HW120963   3.639   3.209   7.617
 6835SOL    HW220964   3.742   3.089   7.661
 6836SOL     OW20965   3.812   3.663   8.375
 6836SOL    HW120966   3.770   3.577   8.348
 6836SOL    HW220967   3.906   3.666   8.341
 6837SOL     OW20968   4.228   3.430   8.358
 6837SOL    HW120969   4.294   3.504   8.367
 6837SOL    HW220970   4.272   3.351   8.316
 6838SOL     OW20971   3.764   2.406   8.562
 6838SOL    HW120972   3.849   2.373   8.521
 6838SOL    HW220973   3.777   2.421   8.660
 6839SOL     OW20974   3.913   2.382   9.170
 6839SOL    HW120975   3.972   2.342   9.100
 6839SOL    HW220976   3.855   2.453   9.129
 6840SOL     OW20977   4.539   2.434   7.773
 6840SOL    HW120978   4.546   2.345   7.727
 6840SOL    HW220979   4.445   2.468   7.765
 6841SOL     OW20980   3.976   3.426   9.192
 6841SOL    HW120981   3.946   3.483   9.268
 6841SOL    HW220982   3.969   3.329   9.218
 6842SOL     OW20983   4.197   2.362   7.639
 6842SOL    HW120984   4.258   2.442   7.643
 6842SOL    HW220985   4.102   2.393   7.646
 6843SOL     OW20986   3.883   2.999   8.914
 6843SOL    HW120987   3.905   2.938   8.990
 6843SOL    HW220988   3.893   2.950   8.828
 6844SOL     OW20989   3.807   3.120   8.470
 6844SOL    HW120990   3.802   3.119   8.570
 6844SOL    HW220991   3.724   3.079   8.432
 6845SOL     OW20992   4.412   3.524   9.164
 6845SOL    HW120993   4.356   3.605   9.173
 6845SOL    HW220994   4.464   3.528   9.078
 6846SOL     OW20995   3.854   3.656   9.299
 6846SOL    HW120996   3.813   3.582   9.352
 6846SOL    HW220997   3.918   3.707   9.357
 6847SOL     OW20998   3.987   2.188   8.168
 6847SOL    HW120999   3.908   2.239   8.134
 6847SOL    HW221000   3.978   2.173   8.266
 6848SOL     OW21001   4.096   3.150   8.938
 6848SOL    HW121002   4.083   3.243   8.904
 6848SOL    HW221003   4.012   3.098   8.925
 6849SOL     OW21004   4.314   3.349   7.939
 6849SOL    HW121005   4.356   3.291   7.869
 6849SOL    HW221006   4.270   3.428   7.895
 6850SOL     OW21007   3.979   3.210   7.738
 6850SOL    HW121008   3.883   3.211   7.711
 6850SOL    HW221009   3.991   3.263   7.822
 6851SOL     OW21010   3.829   2.875   9.174
 6851SOL    HW121011   3.752   2.842   9.228
 6851SOL    HW221012   3.914   2.845   9.216
 6852SOL     OW21013   4.396   2.065   8.937
 6852SOL    HW121014   4.486   2.049   8.897
 6852SOL    HW221015   4.404   2.070   9.036
 6853SOL     OW21016   3.799   2.207   7.481
 6853SOL    HW121017   3.707   2.179   7.452
 6853SOL    HW221018   3.830   2.284   7.425
 6854SOL     OW21019   3.796   2.028   7.766
 6854SOL    HW121020   3.779   2.111   7.712
 6854SOL    HW221021   3.886   1.991   7.744
 6855SOL     OW21022   4.337   2.704   8.879
 6855SOL    HW121023   4.393   2.785   8.862
 6855SOL    HW221024   4.396   2.624   8.882
 6856SOL     OW21025   4.440   2.427   9.156
 6856SOL    HW121026   4.459   2.492   9.230
 6856SOL    HW221027   4.500   2.347   9.165
 6857SOL     OW21028   4.114   3.603   9.008
 6857SOL    HW121029   4.023   3.644   9.006
 6857SOL    HW221030   4.107   3.509   9.040
 6858SOL     OW21031   4.318   2.607   8.100
 6858SOL    HW121032   4.368   2.692   8.081
 6858SOL    HW221033   4.230   2.609   8.052
 6859SOL     OW21034   3.945   3.176   9.292
 6859SOL    HW121035   3.880   3.103   9.271
 6859SOL    HW221036   3.949   3.190   9.390
 6860SOL     OW21037   3.803   3.102   8.101
 6860SOL    HW121038   3.802   3.055   8.189
 6860SOL    HW221039   3.885   3.074   8.050
 6861SOL     OW21040   4.396   3.253   9.072
 6861SOL    HW121041   4.318   3.203   9.110
 6861SOL    HW221042   4.393   3.348   9.103
 6862SOL     OW21043   4.152   2.286   7.968
 6862SOL    HW121044   4.182   2.214   7.906
 6862SOL    HW221045   4.113   2.246   8.051
 6863SOL     OW21046   4.041   2.409   8.728
 6863SOL    HW121047   4.079   2.350   8.800
 6863SOL    HW221048   4.081   2.383   8.640
 6864SOL     OW21049   4.536   3.448   8.135
 6864SOL    HW121050   4.568   3.458   8.041
 6864SOL    HW221051   4.457   3.386   8.137
 6865SOL     OW21052   3.763   2.939   7.748
 6865SOL    HW121053   3.862   2.928   7.739
 6865SOL    HW221054   3.723   2.853   7.780
 6866SOL     OW21055   3.954   2.490   9.423
 6866SOL    HW121056   3.861   2.488   9.460
 6866SOL    HW221057   3.955   2.451   9.331
 6867SOL     OW21058   3.949   2.137  10.306
 6867SOL    HW121059   3.984   2.120  10.398
 6867SOL    HW221060   3.861   2.092  10.294
 6868SOL     OW21061   3.743   2.230   9.957
 6868SOL    HW121062   3.661   2.273   9.996
 6868SOL    HW221063   3.715   2.157   9.894
 6869SOL     OW21064   4.293   3.137  10.475
 6869SOL    HW121065   4.200   3.130  10.438
 6869SOL    HW221066   4.304   3.226  10.519
 6870SOL     OW21067   4.574   2.660  11.133
 6870SOL    HW121068   4.570   2.736  11.198
 6870SOL    HW221069   4.596   2.696  11.042
 6871SOL     OW21070   4.409   2.874   9.975
 6871SOL    HW121071   4.478   2.858  10.045
 6871SOL    HW221072   4.336   2.931  10.013
 6872SOL     OW21073   4.059   3.297  10.371
 6872SOL    HW121074   3.981   3.266  10.318
 6872SOL    HW221075   4.117   3.355  10.314
 6873SOL     OW21076   4.162   2.254  10.809
 6873SOL    HW121077   4.244   2.198  10.818
 6873SOL    HW221078   4.081   2.196  10.813
 6874SOL     OW21079   3.955   3.575   9.793
 6874SOL    HW121080   3.989   3.652   9.847
 6874SOL    HW221081   3.999   3.575   9.703
 6875SOL     OW21082   3.954   3.296   9.848
 6875SOL    HW121083   3.928   3.392   9.848
 6875SOL    HW221084   3.883   3.242   9.893
 6876SOL     OW21085   3.964   2.953  10.196
 6876SOL    HW121086   3.978   2.869  10.248
 6876SOL    HW221087   3.909   3.017  10.251
 6877SOL     OW21088   4.344   3.648  10.749
 6877SOL    HW121089   4.252   3.631  10.784
 6877SOL    HW221090   4.372   3.740  10.775
 6878SOL     OW21091   4.330   2.826   9.433
 6878SOL    HW121092   4.337   2.910   9.379
 6878SOL    HW221093   4.376   2.839   9.521
 6879SOL     OW21094   3.846   2.505   9.873
 6879SOL    HW121095   3.801   2.417   9.890
 6879SOL    HW221096   3.845   2.559   9.957
 6880SOL     OW21097   3.751   3.458   9.427
 6880SOL    HW121098   3.732   3.362   9.448
 6880SOL    HW221099   3.718   3.516   9.502
 6881SOL     OW21100   3.837   2.599  10.907
 6881SOL    HW121101   3.925   2.586  10.952
 6881SOL    HW221102   3.824   2.696  10.885
 6882SOL     OW21103   4.337   3.227  10.036
 6882SOL    HW121104   4.288   3.140  10.045
 6882SOL    HW221105   4.314   3.270   9.949
 6883SOL     OW21106   4.533   1.866   9.812
 6883SOL    HW121107   4.573   1.957   9.803
 6883SOL    HW221108   4.433   1.874   9.818
 6884SOL     OW21109   3.921   2.838  10.574
 6884SOL    HW121110   4.010   2.793  10.560
 6884SOL    HW221111   3.848   2.773  10.555
 6885SOL     OW21112   4.041   2.113  11.111
 6885SOL    HW121113   4.112   2.184  11.117
 6885SOL    HW221114   3.953   2.152  11.139
 6886SOL     OW21115   4.322   2.591   9.580
 6886SOL    HW121116   4.346   2.660   9.512
 6886SOL    HW221117   4.244   2.624   9.634
 6887SOL     OW21118   3.800   2.673  10.099
 6887SOL    HW121119   3.899   2.661  10.108
 6887SOL    HW221120   3.776   2.768  10.120
 6888SOL     OW21121   3.854   3.683  10.881
 6888SOL    HW121122   3.844   3.668  10.980
 6888SOL    HW221123   3.768   3.719  10.845
 6889SOL     OW21124   4.274   2.058  10.195
 6889SOL    HW121125   4.269   2.053  10.295
 6889SOL    HW221126   4.276   2.154  10.166
 6890SOL     OW21127   4.075   3.663  10.163
 6890SOL    HW121128   4.125   3.577  10.169
 6890SOL    HW221129   4.140   3.740  10.160
 6891SOL     OW21130   4.045   2.805   9.552
 6891SOL    HW121131   4.127   2.844   9.510
 6891SOL    HW221132   4.018   2.723   9.503
 6892SOL     OW21133   4.185   3.128  11.037
 6892SOL    HW121134   4.135   3.129  10.951
 6892SOL    HW221135   4.122   3.110  11.113
 6893SOL     OW21136   3.926   2.147  10.808
 6893SOL    HW121137   3.846   2.207  10.795
 6893SOL    HW221138   3.916   2.098  10.894
 6894SOL     OW21139   4.188   3.605   9.633
 6894SOL    HW121140   4.221   3.644   9.719
 6894SOL    HW221141   4.264   3.598   9.568
 6895SOL     OW21142   3.973   3.647  10.551
 6895SOL    HW121143   4.030   3.582  10.601
 6895SOL    HW221144   3.957   3.614  10.458
 6896SOL     OW21145   4.106   2.562   9.790
 6896SOL    HW121146   4.151   2.472   9.787
 6896SOL    HW221147   4.012   2.551   9.823
 6897SOL     OW21148   4.338   1.984   9.427
 6897SOL    HW121149   4.436   1.962   9.434
 6897SOL    HW221150   4.307   1.967   9.334
 6898SOL     OW21151   4.527   3.264  10.234
 6898SOL    HW121152   4.617   3.278  10.192
 6898SOL    HW221153   4.456   3.266  10.163
 6899SOL     OW21154   4.263   1.926   9.822
 6899SOL    HW121155   4.182   1.927   9.880
 6899SOL    HW221156   4.266   2.009   9.767
 6900SOL     OW21157   4.021   1.897   9.481
 6900SOL    HW121158   4.070   1.981   9.460
 6900SOL    HW221159   4.083   1.832   9.526
 6901SOL     OW21160   4.800   2.545  10.774
 6901SOL    HW121161   4.720   2.484  10.777
 6901SOL    HW221162   4.881   2.492  10.750
 6902SOL     OW21163   4.183   3.014  10.051
 6902SOL    HW121164   4.112   2.987  10.116
 6902SOL    HW221165   4.157   2.986   9.958
 6903SOL     OW21166   3.802   2.418  10.696
 6903SOL    HW121167   3.894   2.417  10.655
 6903SOL    HW221168   3.796   2.492  10.763
 6904SOL     OW21169   4.285   2.084  10.457
 6904SOL    HW121170   4.323   2.000  10.494
 6904SOL    HW221171   4.197   2.103  10.501
 6905SOL     OW21172   4.212   3.247   9.484
 6905SOL    HW121173   4.125   3.232   9.531
 6905SOL    HW221174   4.195   3.273   9.389
 6906SOL     OW21175   4.251   2.118   9.638
 6906SOL    HW121176   4.278   2.059   9.563
 6906SOL    HW221177   4.251   2.213   9.607
 6907SOL     OW21178   4.134   2.675  10.561
 6907SOL    HW121179   4.220   2.687  10.611
 6907SOL    HW221180   4.092   2.588  10.588
 6908SOL     OW21181   3.788   3.426  10.641
 6908SOL    HW121182   3.742   3.508  10.607
 6908SOL    HW221183   3.886   3.445  10.650
 6909SOL     OW21184   4.091   2.962   9.811
 6909SOL    HW121185   4.084   3.045   9.755
 6909SOL    HW221186   4.095   2.882   9.751
 6910SOL     OW21187   4.290   2.399  10.175
 6910SOL    HW121188   4.302   2.465  10.101
 6910SOL    HW221189   4.336   2.433  10.258
 6911SOL     OW21190   4.078   3.372  10.639
 6911SOL    HW121191   4.057   3.328  10.552
 6911SOL    HW221192   4.175   3.398  10.642
 6912SOL     OW21193   4.126   2.613  10.908
 6912SOL    HW121194   4.194   2.668  10.861
 6912SOL    HW221195   4.166   2.525  10.935
 6913SOL     OW21196   4.297   2.732  10.339
 6913SOL    HW121197   4.341   2.821  10.330
 6913SOL    HW221198   4.234   2.732  10.416
 6914SOL     OW21199   4.031   2.075  10.541
 6914SOL    HW121200   4.008   2.112  10.631
 6914SOL    HW221201   4.001   1.980  10.535
 6915SOL     OW21202   3.761   3.172  10.592
 6915SOL    HW121203   3.814   3.123  10.660
 6915SOL    HW221204   3.783   3.270  10.597
 6916SOL     OW21205   4.031   1.925   9.928
 6916SOL    HW121206   4.020   2.019   9.961
 6916SOL    HW221207   4.026   1.862  10.005
 6917SOL     OW21208   4.074   2.760  11.114
 6917SOL    HW121209   4.150   2.804  11.162
 6917SOL    HW221210   4.109   2.713  11.032
 6918SOL     OW21211   4.043   2.672  10.259
 6918SOL    HW121212   4.136   2.708  10.264
 6918SOL    HW221213   4.037   2.587  10.311
 6919SOL     OW21214   4.063   2.371  10.316
 6919SOL    HW121215   4.011   2.288  10.299
 6919SOL    HW221216   4.140   2.376  10.252
 6920SOL     OW21217   3.732   3.188   9.510
 6920SOL    HW121218   3.639   3.209   9.479
 6920SOL    HW221219   3.742   3.089   9.523
 6921SOL     OW21220   3.812   3.663  10.237
 6921SOL    HW121221   3.770   3.577  10.210
 6921SOL    HW221222   3.906   3.666  10.203
 6922SOL     OW21223   4.228   3.430  10.220
 6922SOL    HW121224   4.294   3.504  10.229
 6922SOL    HW221225   4.272   3.351  10.178
 6923SOL     OW21226   3.764   2.406  10.424
 6923SOL    HW121227   3.849   2.373  10.383
 6923SOL    HW221228   3.777   2.421  10.522
 6924SOL     OW21229   4.539   2.434   9.635
 6924SOL    HW121230   4.546   2.345   9.589
 6924SOL    HW221231   4.445   2.468   9.627
 6925SOL     OW21232   3.976   3.426  11.054
 6925SOL    HW121233   3.946   3.483  11.130
 6925SOL    HW221234   3.969   3.329  11.080
 6926SOL     OW21235   4.197   2.362   9.501
 6926SOL    HW121236   4.258   2.442   9.505
 6926SOL    HW221237   4.102   2.393   9.508
 6927SOL     OW21238   3.883   2.999  10.776
 6927SOL    HW121239   3.905   2.938  10.852
 6927SOL    HW221240   3.893   2.950  10.690
 6928SOL     OW21241   3.807   3.120  10.332
 6928SOL    HW121242   3.802   3.119  10.432
 6928SOL    HW221243   3.724   3.079  10.294
 6929SOL     OW21244   4.412   3.524  11.026
 6929SOL    HW121245   4.356   3.605  11.035
 6929SOL    HW221246   4.464   3.528  10.940
 6930SOL     OW21247   3.987   2.188  10.030
 6930SOL    HW121248   3.908   2.239   9.996
 6930SOL    HW221249   3.978   2.173  10.128
 6931SOL     OW21250   4.096   3.150  10.800
 6931SOL    HW121251   4.083   3.243  10.766
 6931SOL    HW221252   4.012   3.098  10.787
 6932SOL     OW21253   4.314   3.349   9.801
 6932SOL    HW121254   4.356   3.291   9.731
 6932SOL    HW221255   4.270   3.428   9.757
 6933SOL     OW21256   3.979   3.210   9.600
 6933SOL    HW121257   3.883   3.211   9.573
 6933SOL    HW221258   3.991   3.263   9.684
 6934SOL     OW21259   3.829   2.875  11.036
 6934SOL    HW121260   3.752   2.842  11.090
 6934SOL    HW221261   3.914   2.845  11.078
 6935SOL     OW21262   4.396   2.065  10.799
 6935SOL    HW121263   4.486   2.049  10.759
 6935SOL    HW221264   4.404   2.070  10.898
 6936SOL     OW21265   3.799   2.207   9.343
 6936SOL    HW121266   3.707   2.179   9.314
 6936SOL    HW221267   3.830   2.284   9.287
 6937SOL     OW21268   3.796   2.028   9.628
 6937SOL    HW121269   3.779   2.111   9.574
 6937SOL    HW221270   3.886   1.991   9.606
 6938SOL     OW21271   4.337   2.704  10.741
 6938SOL    HW121272   4.393   2.785  10.724
 6938SOL    HW221273   4.396   2.624  10.744
 6939SOL     OW21274   4.114   3.603  10.870
 6939SOL    HW121275   4.023   3.644  10.868
 6939SOL    HW221276   4.107   3.509  10.902
 6940SOL     OW21277   4.318   2.607   9.962
 6940SOL    HW121278   4.368   2.692   9.943
 6940SOL    HW221279   4.230   2.609   9.914
 6941SOL     OW21280   3.803   3.102   9.963
 6941SOL    HW121281   3.802   3.055  10.051
 6941SOL    HW221282   3.885   3.074   9.912
 6942SOL     OW21283   4.396   3.253  10.934
 6942SOL    HW121284   4.318   3.203  10.972
 6942SOL    HW221285   4.393   3.348  10.965
 6943SOL     OW21286   4.152   2.286   9.830
 6943SOL    HW121287   4.182   2.214   9.768
 6943SOL    HW221288   4.113   2.246   9.913
 6944SOL     OW21289   4.041   2.409  10.590
 6944SOL    HW121290   4.079   2.350  10.662
 6944SOL    HW221291   4.081   2.383  10.502
 6945SOL     OW21292   4.536   3.448   9.997
 6945SOL    HW121293   4.568   3.458   9.903
 6945SOL    HW221294   4.457   3.386   9.999
 6946SOL     OW21295   3.763   2.939   9.610
 6946SOL    HW121296   3.862   2.928   9.601
 6946SOL    HW221297   3.723   2.853   9.642
 6947SOL     OW21298   3.954   4.352   0.113
 6947SOL    HW121299   3.861   4.350   0.150
 6947SOL    HW221300   3.955   4.313   0.021
 6948SOL     OW21301   3.949   3.999   0.996
 6948SOL    HW121302   3.984   3.982   1.088
 6948SOL    HW221303   3.861   3.954   0.984
 6949SOL     OW21304   3.743   4.092   0.647
 6949SOL    HW121305   3.661   4.135   0.686
 6949SOL    HW221306   3.715   4.019   0.584
 6950SOL     OW21307   4.574   4.522   1.823
 6950SOL    HW121308   4.570   4.598   1.888
 6950SOL    HW221309   4.596   4.558   1.732
 6951SOL     OW21310   4.162   4.116   1.499
 6951SOL    HW121311   4.244   4.060   1.508
 6951SOL    HW221312   4.081   4.058   1.503
 6952SOL     OW21313   3.846   4.367   0.563
 6952SOL    HW121314   3.801   4.279   0.580
 6952SOL    HW221315   3.845   4.421   0.647
 6953SOL     OW21316   3.837   4.461   1.597
 6953SOL    HW121317   3.925   4.448   1.642
 6953SOL    HW221318   3.824   4.558   1.575
 6954SOL     OW21319   4.533   3.728   0.502
 6954SOL    HW121320   4.573   3.819   0.493
 6954SOL    HW221321   4.433   3.736   0.508
 6955SOL     OW21322   4.041   3.975   1.801
 6955SOL    HW121323   4.112   4.046   1.807
 6955SOL    HW221324   3.953   4.014   1.829
 6956SOL     OW21325   4.274   3.920   0.885
 6956SOL    HW121326   4.269   3.915   0.985
 6956SOL    HW221327   4.276   4.016   0.856
 6957SOL     OW21328   3.926   4.009   1.498
 6957SOL    HW121329   3.846   4.069   1.485
 6957SOL    HW221330   3.916   3.960   1.584
 6958SOL     OW21331   4.106   4.424   0.480
 6958SOL    HW121332   4.151   4.334   0.477
 6958SOL    HW221333   4.012   4.413   0.513
 6959SOL     OW21334   4.338   3.846   0.117
 6959SOL    HW121335   4.436   3.824   0.124
 6959SOL    HW221336   4.307   3.829   0.024
 6960SOL     OW21337   4.263   3.788   0.512
 6960SOL    HW121338   4.182   3.789   0.570
 6960SOL    HW221339   4.266   3.871   0.457
 6961SOL     OW21340   4.021   3.759   0.171
 6961SOL    HW121341   4.070   3.843   0.150
 6961SOL    HW221342   4.083   3.694   0.216
 6962SOL     OW21343   4.800   4.407   1.464
 6962SOL    HW121344   4.720   4.346   1.467
 6962SOL    HW221345   4.881   4.354   1.440
 6963SOL     OW21346   3.802   4.280   1.386
 6963SOL    HW121347   3.894   4.279   1.345
 6963SOL    HW221348   3.796   4.354   1.453
 6964SOL     OW21349   4.285   3.946   1.147
 6964SOL    HW121350   4.323   3.862   1.184
 6964SOL    HW221351   4.197   3.965   1.191
 6965SOL     OW21352   4.251   3.980   0.328
 6965SOL    HW121353   4.278   3.921   0.253
 6965SOL    HW221354   4.251   4.075   0.297
 6966SOL     OW21355   4.134   4.537   1.251
 6966SOL    HW121356   4.220   4.549   1.301
 6966SOL    HW221357   4.092   4.450   1.278
 6967SOL     OW21358   4.290   4.261   0.865
 6967SOL    HW121359   4.302   4.327   0.791
 6967SOL    HW221360   4.336   4.295   0.948
 6968SOL     OW21361   4.228   3.774   1.740
 6968SOL    HW121362   4.186   3.717   1.670
 6968SOL    HW221363   4.162   3.843   1.772
 6969SOL     OW21364   4.031   3.937   1.231
 6969SOL    HW121365   4.008   3.974   1.321
 6969SOL    HW221366   4.001   3.842   1.225
 6970SOL     OW21367   4.031   3.787   0.618
 6970SOL    HW121368   4.020   3.881   0.651
 6970SOL    HW221369   4.026   3.724   0.695
 6971SOL     OW21370   4.043   4.534   0.949
 6971SOL    HW121371   4.136   4.570   0.954
 6971SOL    HW221372   4.037   4.449   1.001
 6972SOL     OW21373   4.063   4.233   1.006
 6972SOL    HW121374   4.011   4.150   0.989
 6972SOL    HW221375   4.140   4.238   0.942
 6973SOL     OW21376   3.764   4.268   1.114
 6973SOL    HW121377   3.849   4.235   1.073
 6973SOL    HW221378   3.777   4.283   1.212
 6974SOL     OW21379   3.913   4.244   1.722
 6974SOL    HW121380   3.972   4.204   1.652
 6974SOL    HW221381   3.855   4.315   1.681
 6975SOL     OW21382   4.539   4.296   0.325
 6975SOL    HW121383   4.546   4.207   0.279
 6975SOL    HW221384   4.445   4.330   0.317
 6976SOL     OW21385   4.197   4.224   0.191
 6976SOL    HW121386   4.258   4.304   0.195
 6976SOL    HW221387   4.102   4.255   0.198
 6977SOL     OW21388   3.987   4.050   0.720
 6977SOL    HW121389   3.908   4.101   0.686
 6977SOL    HW221390   3.978   4.035   0.818
 6978SOL     OW21391   4.396   3.927   1.489
 6978SOL    HW121392   4.486   3.911   1.449
 6978SOL    HW221393   4.404   3.932   1.588
 6979SOL     OW21394   3.799   4.069   0.033
 6979SOL    HW121395   3.707   4.041   0.004
 6979SOL    HW221396   3.830   4.146  -0.023
 6980SOL     OW21397   3.796   3.890   0.318
 6980SOL    HW121398   3.779   3.973   0.264
 6980SOL    HW221399   3.886   3.853   0.296
 6981SOL     OW21400   4.440   4.289   1.708
 6981SOL    HW121401   4.459   4.354   1.782
 6981SOL    HW221402   4.500   4.209   1.717
 6982SOL     OW21403   4.152   4.148   0.520
 6982SOL    HW121404   4.182   4.076   0.458
 6982SOL    HW221405   4.113   4.108   0.603
 6983SOL     OW21406   4.041   4.271   1.280
 6983SOL    HW121407   4.079   4.212   1.352
 6983SOL    HW221408   4.081   4.245   1.192
 6984SOL     OW21409   3.954   4.352   1.975
 6984SOL    HW121410   3.861   4.350   2.012
 6984SOL    HW221411   3.955   4.313   1.883
 6985SOL     OW21412   3.949   3.999   2.858
 6985SOL    HW121413   3.984   3.982   2.950
 6985SOL    HW221414   3.861   3.954   2.846
 6986SOL     OW21415   3.743   4.092   2.509
 6986SOL    HW121416   3.661   4.135   2.548
 6986SOL    HW221417   3.715   4.019   2.446
 6987SOL     OW21418   4.574   4.522   3.685
 6987SOL    HW121419   4.570   4.598   3.750
 6987SOL    HW221420   4.596   4.558   3.594
 6988SOL     OW21421   4.162   4.116   3.361
 6988SOL    HW121422   4.244   4.060   3.370
 6988SOL    HW221423   4.081   4.058   3.365
 6989SOL     OW21424   3.846   4.367   2.425
 6989SOL    HW121425   3.801   4.279   2.442
 6989SOL    HW221426   3.845   4.421   2.509
 6990SOL     OW21427   3.837   4.461   3.459
 6990SOL    HW121428   3.925   4.448   3.504
 6990SOL    HW221429   3.824   4.558   3.437
 6991SOL     OW21430   4.533   3.728   2.364
 6991SOL    HW121431   4.573   3.819   2.355
 6991SOL    HW221432   4.433   3.736   2.370
 6992SOL     OW21433   4.041   3.975   3.663
 6992SOL    HW121434   4.112   4.046   3.669
 6992SOL    HW221435   3.953   4.014   3.691
 6993SOL     OW21436   4.274   3.920   2.747
 6993SOL    HW121437   4.269   3.915   2.847
 6993SOL    HW221438   4.276   4.016   2.718
 6994SOL     OW21439   3.926   4.009   3.360
 6994SOL    HW121440   3.846   4.069   3.347
 6994SOL    HW221441   3.916   3.960   3.446
 6995SOL     OW21442   4.106   4.424   2.342
 6995SOL    HW121443   4.151   4.334   2.339
 6995SOL    HW221444   4.012   4.413   2.375
 6996SOL     OW21445   4.338   3.846   1.979
 6996SOL    HW121446   4.436   3.824   1.986
 6996SOL    HW221447   4.307   3.829   1.886
 6997SOL     OW21448   4.263   3.788   2.374
 6997SOL    HW121449   4.182   3.789   2.432
 6997SOL    HW221450   4.266   3.871   2.319
 6998SOL     OW21451   4.021   3.759   2.033
 6998SOL    HW121452   4.070   3.843   2.012
 6998SOL    HW221453   4.083   3.694   2.078
 6999SOL     OW21454   4.800   4.407   3.326
 6999SOL    HW121455   4.720   4.346   3.329
 6999SOL    HW221456   4.881   4.354   3.302
 7000SOL     OW21457   3.802   4.280   3.248
 7000SOL    HW121458   3.894   4.279   3.207
 7000SOL    HW221459   3.796   4.354   3.315
 7001SOL     OW21460   4.285   3.946   3.009
 7001SOL    HW121461   4.323   3.862   3.046
 7001SOL    HW221462   4.197   3.965   3.053
 7002SOL     OW21463   4.251   3.980   2.190
 7002SOL    HW121464   4.278   3.921   2.115
 7002SOL    HW221465   4.251   4.075   2.159
 7003SOL     OW21466   4.134   4.537   3.113
 7003SOL    HW121467   4.220   4.549   3.163
 7003SOL    HW221468   4.092   4.450   3.140
 7004SOL     OW21469   4.290   4.261   2.727
 7004SOL    HW121470   4.302   4.327   2.653
 7004SOL    HW221471   4.336   4.295   2.810
 7005SOL     OW21472   4.228   3.774   3.602
 7005SOL    HW121473   4.186   3.717   3.532
 7005SOL    HW221474   4.162   3.843   3.634
 7006SOL     OW21475   4.031   3.937   3.093
 7006SOL    HW121476   4.008   3.974   3.183
 7006SOL    HW221477   4.001   3.842   3.087
 7007SOL     OW21478   4.031   3.787   2.480
 7007SOL    HW121479   4.020   3.881   2.513
 7007SOL    HW221480   4.026   3.724   2.557
 7008SOL     OW21481   4.043   4.534   2.811
 7008SOL    HW121482   4.136   4.570   2.816
 7008SOL    HW221483   4.037   4.449   2.863
 7009SOL     OW21484   4.063   4.233   2.868
 7009SOL    HW121485   4.011   4.150   2.851
 7009SOL    HW221486   4.140   4.238   2.804
 7010SOL     OW21487   3.764   4.268   2.976
 7010SOL    HW121488   3.849   4.235   2.935
 7010SOL    HW221489   3.777   4.283   3.074
 7011SOL     OW21490   3.913   4.244   3.584
 7011SOL    HW121491   3.972   4.204   3.514
 7011SOL    HW221492   3.855   4.315   3.543
 7012SOL     OW21493   4.539   4.296   2.187
 7012SOL    HW121494   4.546   4.207   2.141
 7012SOL    HW221495   4.445   4.330   2.179
 7013SOL     OW21496   4.197   4.224   2.053
 7013SOL    HW121497   4.258   4.304   2.057
 7013SOL    HW221498   4.102   4.255   2.060
 7014SOL     OW21499   3.987   4.050   2.582
 7014SOL    HW121500   3.908   4.101   2.548
 7014SOL    HW221501   3.978   4.035   2.680
 7015SOL     OW21502   4.396   3.927   3.351
 7015SOL    HW121503   4.486   3.911   3.311
 7015SOL    HW221504   4.404   3.932   3.450
 7016SOL     OW21505   3.799   4.069   1.895
 7016SOL    HW121506   3.707   4.041   1.866
 7016SOL    HW221507   3.830   4.146   1.839
 7017SOL     OW21508   3.796   3.890   2.180
 7017SOL    HW121509   3.779   3.973   2.126
 7017SOL    HW221510   3.886   3.853   2.158
 7018SOL     OW21511   4.440   4.289   3.570
 7018SOL    HW121512   4.459   4.354   3.644
 7018SOL    HW221513   4.500   4.209   3.579
 7019SOL     OW21514   4.152   4.148   2.382
 7019SOL    HW121515   4.182   4.076   2.320
 7019SOL    HW221516   4.113   4.108   2.465
 7020SOL     OW21517   4.041   4.271   3.142
 7020SOL    HW121518   4.079   4.212   3.214
 7020SOL    HW221519   4.081   4.245   3.054
 7021SOL     OW21520   3.954   4.352   3.837
 7021SOL    HW121521   3.861   4.350   3.874
 7021SOL    HW221522   3.955   4.313   3.745
 7022SOL     OW21523   3.949   3.999   4.720
 7022SOL    HW121524   3.984   3.982   4.812
 7022SOL    HW221525   3.861   3.954   4.708
 7023SOL     OW21526   3.743   4.092   4.371
 7023SOL    HW121527   3.661   4.135   4.410
 7023SOL    HW221528   3.715   4.019   4.308
 7024SOL     OW21529   4.574   4.522   5.547
 7024SOL    HW121530   4.570   4.598   5.612
 7024SOL    HW221531   4.596   4.558   5.456
 7025SOL     OW21532   4.162   4.116   5.223
 7025SOL    HW121533   4.244   4.060   5.232
 7025SOL    HW221534   4.081   4.058   5.227
 7026SOL     OW21535   3.846   4.367   4.287
 7026SOL    HW121536   3.801   4.279   4.304
 7026SOL    HW221537   3.845   4.421   4.371
 7027SOL     OW21538   3.837   4.461   5.321
 7027SOL    HW121539   3.925   4.448   5.366
 7027SOL    HW221540   3.824   4.558   5.299
 7028SOL     OW21541   4.533   3.728   4.226
 7028SOL    HW121542   4.573   3.819   4.217
 7028SOL    HW221543   4.433   3.736   4.232
 7029SOL     OW21544   4.041   3.975   5.525
 7029SOL    HW121545   4.112   4.046   5.531
 7029SOL    HW221546   3.953   4.014   5.553
 7030SOL     OW21547   4.274   3.920   4.609
 7030SOL    HW121548   4.269   3.915   4.709
 7030SOL    HW221549   4.276   4.016   4.580
 7031SOL     OW21550   3.926   4.009   5.222
 7031SOL    HW121551   3.846   4.069   5.209
 7031SOL    HW221552   3.916   3.960   5.308
 7032SOL     OW21553   4.106   4.424   4.204
 7032SOL    HW121554   4.151   4.334   4.201
 7032SOL    HW221555   4.012   4.413   4.237
 7033SOL     OW21556   4.338   3.846   3.841
 7033SOL    HW121557   4.436   3.824   3.848
 7033SOL    HW221558   4.307   3.829   3.748
 7034SOL     OW21559   4.263   3.788   4.236
 7034SOL    HW121560   4.182   3.789   4.294
 7034SOL    HW221561   4.266   3.871   4.181
 7035SOL     OW21562   4.021   3.759   3.895
 7035SOL    HW121563   4.070   3.843   3.874
 7035SOL    HW221564   4.083   3.694   3.940
 7036SOL     OW21565   4.800   4.407   5.188
 7036SOL    HW121566   4.720   4.346   5.191
 7036SOL    HW221567   4.881   4.354   5.164
 7037SOL     OW21568   3.802   4.280   5.110
 7037SOL    HW121569   3.894   4.279   5.069
 7037SOL    HW221570   3.796   4.354   5.177
 7038SOL     OW21571   4.285   3.946   4.871
 7038SOL    HW121572   4.323   3.862   4.908
 7038SOL    HW221573   4.197   3.965   4.915
 7039SOL     OW21574   4.251   3.980   4.052
 7039SOL    HW121575   4.278   3.921   3.977
 7039SOL    HW221576   4.251   4.075   4.021
 7040SOL     OW21577   4.134   4.537   4.975
 7040SOL    HW121578   4.220   4.549   5.025
 7040SOL    HW221579   4.092   4.450   5.002
 7041SOL     OW21580   4.290   4.261   4.589
 7041SOL    HW121581   4.302   4.327   4.515
 7041SOL    HW221582   4.336   4.295   4.672
 7042SOL     OW21583   4.228   3.774   5.464
 7042SOL    HW121584   4.186   3.717   5.394
 7042SOL    HW221585   4.162   3.843   5.496
 7043SOL     OW21586   4.031   3.937   4.955
 7043SOL    HW121587   4.008   3.974   5.045
 7043SOL    HW221588   4.001   3.842   4.949
 7044SOL     OW21589   4.031   3.787   4.342
 7044SOL    HW121590   4.020   3.881   4.375
 7044SOL    HW221591   4.026   3.724   4.419
 7045SOL     OW21592   4.043   4.534   4.673
 7045SOL    HW121593   4.136   4.570   4.678
 7045SOL    HW221594   4.037   4.449   4.725
 7046SOL     OW21595   4.063   4.233   4.730
 7046SOL    HW121596   4.011   4.150   4.713
 7046SOL    HW221597   4.140   4.238   4.666
 7047SOL     OW21598   3.764   4.268   4.838
 7047SOL    HW121599   3.849   4.235   4.797
 7047SOL    HW221600   3.777   4.283   4.936
 7048SOL     OW21601   3.913   4.244   5.446
 7048SOL    HW121602   3.972   4.204   5.376
 7048SOL    HW221603   3.855   4.315   5.405
 7049SOL     OW21604   4.539   4.296   4.049
 7049SOL    HW121605   4.546   4.207   4.003
 7049SOL    HW221606   4.445   4.330   4.041
 7050SOL     OW21607   4.197   4.224   3.915
 7050SOL    HW121608   4.258   4.304   3.919
 7050SOL    HW221609   4.102   4.255   3.922
 7051SOL     OW21610   3.987   4.050   4.444
 7051SOL    HW121611   3.908   4.101   4.410
 7051SOL    HW221612   3.978   4.035   4.542
 7052SOL     OW21613   4.396   3.927   5.213
 7052SOL    HW121614   4.486   3.911   5.173
 7052SOL    HW221615   4.404   3.932   5.312
 7053SOL     OW21616   3.799   4.069   3.757
 7053SOL    HW121617   3.707   4.041   3.728
 7053SOL    HW221618   3.830   4.146   3.701
 7054SOL     OW21619   3.796   3.890   4.042
 7054SOL    HW121620   3.779   3.973   3.988
 7054SOL    HW221621   3.886   3.853   4.020
 7055SOL     OW21622   4.440   4.289   5.432
 7055SOL    HW121623   4.459   4.354   5.506
 7055SOL    HW221624   4.500   4.209   5.441
 7056SOL     OW21625   4.152   4.148   4.244
 7056SOL    HW121626   4.182   4.076   4.182
 7056SOL    HW221627   4.113   4.108   4.327
 7057SOL     OW21628   4.041   4.271   5.004
 7057SOL    HW121629   4.079   4.212   5.076
 7057SOL    HW221630   4.081   4.245   4.916
 7058SOL     OW21631   3.954   4.352   5.699
 7058SOL    HW121632   3.861   4.350   5.736
 7058SOL    HW221633   3.955   4.313   5.607
 7059SOL     OW21634   3.949   3.999   6.582
 7059SOL    HW121635   3.984   3.982   6.674
 7059SOL    HW221636   3.861   3.954   6.570
 7060SOL     OW21637   3.743   4.092   6.233
 7060SOL    HW121638   3.661   4.135   6.272
 7060SOL    HW221639   3.715   4.019   6.170
 7061SOL     OW21640   4.574   4.522   7.409
 7061SOL    HW121641   4.570   4.598   7.474
 7061SOL    HW221642   4.596   4.558   7.318
 7062SOL     OW21643   4.162   4.116   7.085
 7062SOL    HW121644   4.244   4.060   7.094
 7062SOL    HW221645   4.081   4.058   7.089
 7063SOL     OW21646   3.846   4.367   6.149
 7063SOL    HW121647   3.801   4.279   6.166
 7063SOL    HW221648   3.845   4.421   6.233
 7064SOL     OW21649   3.837   4.461   7.183
 7064SOL    HW121650   3.925   4.448   7.228
 7064SOL    HW221651   3.824   4.558   7.161
 7065SOL     OW21652   4.533   3.728   6.088
 7065SOL    HW121653   4.573   3.819   6.079
 7065SOL    HW221654   4.433   3.736   6.094
 7066SOL     OW21655   4.041   3.975   7.387
 7066SOL    HW121656   4.112   4.046   7.393
 7066SOL    HW221657   3.953   4.014   7.415
 7067SOL     OW21658   4.274   3.920   6.471
 7067SOL    HW121659   4.269   3.915   6.571
 7067SOL    HW221660   4.276   4.016   6.442
 7068SOL     OW21661   3.926   4.009   7.084
 7068SOL    HW121662   3.846   4.069   7.071
 7068SOL    HW221663   3.916   3.960   7.170
 7069SOL     OW21664   4.106   4.424   6.066
 7069SOL    HW121665   4.151   4.334   6.063
 7069SOL    HW221666   4.012   4.413   6.099
 7070SOL     OW21667   4.338   3.846   5.703
 7070SOL    HW121668   4.436   3.824   5.710
 7070SOL    HW221669   4.307   3.829   5.610
 7071SOL     OW21670   4.263   3.788   6.098
 7071SOL    HW121671   4.182   3.789   6.156
 7071SOL    HW221672   4.266   3.871   6.043
 7072SOL     OW21673   4.021   3.759   5.757
 7072SOL    HW121674   4.070   3.843   5.736
 7072SOL    HW221675   4.083   3.694   5.802
 7073SOL     OW21676   4.800   4.407   7.050
 7073SOL    HW121677   4.720   4.346   7.053
 7073SOL    HW221678   4.881   4.354   7.026
 7074SOL     OW21679   3.802   4.280   6.972
 7074SOL    HW121680   3.894   4.279   6.931
 7074SOL    HW221681   3.796   4.354   7.039
 7075SOL     OW21682   4.285   3.946   6.733
 7075SOL    HW121683   4.323   3.862   6.770
 7075SOL    HW221684   4.197   3.965   6.777
 7076SOL     OW21685   4.251   3.980   5.914
 7076SOL    HW121686   4.278   3.921   5.839
 7076SOL    HW221687   4.251   4.075   5.883
 7077SOL     OW21688   4.134   4.537   6.837
 7077SOL    HW121689   4.220   4.549   6.887
 7077SOL    HW221690   4.092   4.450   6.864
 7078SOL     OW21691   4.290   4.261   6.451
 7078SOL    HW121692   4.302   4.327   6.377
 7078SOL    HW221693   4.336   4.295   6.534
 7079SOL     OW21694   4.228   3.774   7.326
 7079SOL    HW121695   4.186   3.717   7.256
 7079SOL    HW221696   4.162   3.843   7.358
 7080SOL     OW21697   4.031   3.937   6.817
 7080SOL    HW121698   4.008   3.974   6.907
 7080SOL    HW221699   4.001   3.842   6.811
 7081SOL     OW21700   4.031   3.787   6.204
 7081SOL    HW121701   4.020   3.881   6.237
 7081SOL    HW221702   4.026   3.724   6.281
 7082SOL     OW21703   4.043   4.534   6.535
 7082SOL    HW121704   4.136   4.570   6.540
 7082SOL    HW221705   4.037   4.449   6.587
 7083SOL     OW21706   4.063   4.233   6.592
 7083SOL    HW121707   4.011   4.150   6.575
 7083SOL    HW221708   4.140   4.238   6.528
 7084SOL     OW21709   3.764   4.268   6.700
 7084SOL    HW121710   3.849   4.235   6.659
 7084SOL    HW221711   3.777   4.283   6.798
 7085SOL     OW21712   3.913   4.244   7.308
 7085SOL    HW121713   3.972   4.204   7.238
 7085SOL    HW221714   3.855   4.315   7.267
 7086SOL     OW21715   4.539   4.296   5.911
 7086SOL    HW121716   4.546   4.207   5.865
 7086SOL    HW221717   4.445   4.330   5.903
 7087SOL     OW21718   4.197   4.224   5.777
 7087SOL    HW121719   4.258   4.304   5.781
 7087SOL    HW221720   4.102   4.255   5.784
 7088SOL     OW21721   3.987   4.050   6.306
 7088SOL    HW121722   3.908   4.101   6.272
 7088SOL    HW221723   3.978   4.035   6.404
 7089SOL     OW21724   4.396   3.927   7.075
 7089SOL    HW121725   4.486   3.911   7.035
 7089SOL    HW221726   4.404   3.932   7.174
 7090SOL     OW21727   3.799   4.069   5.619
 7090SOL    HW121728   3.707   4.041   5.590
 7090SOL    HW221729   3.830   4.146   5.563
 7091SOL     OW21730   3.796   3.890   5.904
 7091SOL    HW121731   3.779   3.973   5.850
 7091SOL    HW221732   3.886   3.853   5.882
 7092SOL     OW21733   4.440   4.289   7.294
 7092SOL    HW121734   4.459   4.354   7.368
 7092SOL    HW221735   4.500   4.209   7.303
 7093SOL     OW21736   4.152   4.148   6.106
 7093SOL    HW121737   4.182   4.076   6.044
 7093SOL    HW221738   4.113   4.108   6.189
 7094SOL     OW21739   4.041   4.271   6.866
 7094SOL    HW121740   4.079   4.212   6.938
 7094SOL    HW221741   4.081   4.245   6.778
 7095SOL     OW21742   3.954   4.352   7.561
 7095SOL    HW121743   3.861   4.350   7.598
 7095SOL    HW221744   3.955   4.313   7.469
 7096SOL     OW21745   3.949   3.999   8.444
 7096SOL    HW121746   3.984   3.982   8.536
 7096SOL    HW221747   3.861   3.954   8.432
 7097SOL     OW21748   3.743   4.092   8.095
 7097SOL    HW121749   3.661   4.135   8.134
 7097SOL    HW221750   3.715   4.019   8.032
 7098SOL     OW21751   4.574   4.522   9.271
 7098SOL    HW121752   4.570   4.598   9.336
 7098SOL    HW221753   4.596   4.558   9.180
 7099SOL     OW21754   4.162   4.116   8.947
 7099SOL    HW121755   4.244   4.060   8.956
 7099SOL    HW221756   4.081   4.058   8.951
 7100SOL     OW21757   3.846   4.367   8.011
 7100SOL    HW121758   3.801   4.279   8.028
 7100SOL    HW221759   3.845   4.421   8.095
 7101SOL     OW21760   3.837   4.461   9.045
 7101SOL    HW121761   3.925   4.448   9.090
 7101SOL    HW221762   3.824   4.558   9.023
 7102SOL     OW21763   4.533   3.728   7.950
 7102SOL    HW121764   4.573   3.819   7.941
 7102SOL    HW221765   4.433   3.736   7.956
 7103SOL     OW21766   4.041   3.975   9.249
 7103SOL    HW121767   4.112   4.046   9.255
 7103SOL    HW221768   3.953   4.014   9.277
 7104SOL     OW21769   4.274   3.920   8.333
 7104SOL    HW121770   4.269   3.915   8.433
 7104SOL    HW221771   4.276   4.016   8.304
 7105SOL     OW21772   3.926   4.009   8.946
 7105SOL    HW121773   3.846   4.069   8.933
 7105SOL    HW221774   3.916   3.960   9.032
 7106SOL     OW21775   4.106   4.424   7.928
 7106SOL    HW121776   4.151   4.334   7.925
 7106SOL    HW221777   4.012   4.413   7.961
 7107SOL     OW21778   4.338   3.846   7.565
 7107SOL    HW121779   4.436   3.824   7.572
 7107SOL    HW221780   4.307   3.829   7.472
 7108SOL     OW21781   4.263   3.788   7.960
 7108SOL    HW121782   4.182   3.789   8.018
 7108SOL    HW221783   4.266   3.871   7.905
 7109SOL     OW21784   4.021   3.759   7.619
 7109SOL    HW121785   4.070   3.843   7.598
 7109SOL    HW221786   4.083   3.694   7.664
 7110SOL     OW21787   4.800   4.407   8.912
 7110SOL    HW121788   4.720   4.346   8.915
 7110SOL    HW221789   4.881   4.354   8.888
 7111SOL     OW21790   3.802   4.280   8.834
 7111SOL    HW121791   3.894   4.279   8.793
 7111SOL    HW221792   3.796   4.354   8.901
 7112SOL     OW21793   4.285   3.946   8.595
 7112SOL    HW121794   4.323   3.862   8.632
 7112SOL    HW221795   4.197   3.965   8.639
 7113SOL     OW21796   4.251   3.980   7.776
 7113SOL    HW121797   4.278   3.921   7.701
 7113SOL    HW221798   4.251   4.075   7.745
 7114SOL     OW21799   4.134   4.537   8.699
 7114SOL    HW121800   4.220   4.549   8.749
 7114SOL    HW221801   4.092   4.450   8.726
 7115SOL     OW21802   4.290   4.261   8.313
 7115SOL    HW121803   4.302   4.327   8.239
 7115SOL    HW221804   4.336   4.295   8.396
 7116SOL     OW21805   4.228   3.774   9.188
 7116SOL    HW121806   4.186   3.717   9.118
 7116SOL    HW221807   4.162   3.843   9.220
 7117SOL     OW21808   4.031   3.937   8.679
 7117SOL    HW121809   4.008   3.974   8.769
 7117SOL    HW221810   4.001   3.842   8.673
 7118SOL     OW21811   4.031   3.787   8.066
 7118SOL    HW121812   4.020   3.881   8.099
 7118SOL    HW221813   4.026   3.724   8.143
 7119SOL     OW21814   4.043   4.534   8.397
 7119SOL    HW121815   4.136   4.570   8.402
 7119SOL    HW221816   4.037   4.449   8.449
 7120SOL     OW21817   4.063   4.233   8.454
 7120SOL    HW121818   4.011   4.150   8.437
 7120SOL    HW221819   4.140   4.238   8.390
 7121SOL     OW21820   3.764   4.268   8.562
 7121SOL    HW121821   3.849   4.235   8.521
 7121SOL    HW221822   3.777   4.283   8.660
 7122SOL     OW21823   3.913   4.244   9.170
 7122SOL    HW121824   3.972   4.204   9.100
 7122SOL    HW221825   3.855   4.315   9.129
 7123SOL     OW21826   4.539   4.296   7.773
 7123SOL    HW121827   4.546   4.207   7.727
 7123SOL    HW221828   4.445   4.330   7.765
 7124SOL     OW21829   4.197   4.224   7.639
 7124SOL    HW121830   4.258   4.304   7.643
 7124SOL    HW221831   4.102   4.255   7.646
 7125SOL     OW21832   3.987   4.050   8.168
 7125SOL    HW121833   3.908   4.101   8.134
 7125SOL    HW221834   3.978   4.035   8.266
 7126SOL     OW21835   4.396   3.927   8.937
 7126SOL    HW121836   4.486   3.911   8.897
 7126SOL    HW221837   4.404   3.932   9.036
 7127SOL     OW21838   3.799   4.069   7.481
 7127SOL    HW121839   3.707   4.041   7.452
 7127SOL    HW221840   3.830   4.146   7.425
 7128SOL     OW21841   3.796   3.890   7.766
 7128SOL    HW121842   3.779   3.973   7.712
 7128SOL    HW221843   3.886   3.853   7.744
 7129SOL     OW21844   4.440   4.289   9.156
 7129SOL    HW121845   4.459   4.354   9.230
 7129SOL    HW221846   4.500   4.209   9.165
 7130SOL     OW21847   4.152   4.148   7.968
 7130SOL    HW121848   4.182   4.076   7.906
 7130SOL    HW221849   4.113   4.108   8.051
 7131SOL     OW21850   4.041   4.271   8.728
 7131SOL    HW121851   4.079   4.212   8.800
 7131SOL    HW221852   4.081   4.245   8.640
 7132SOL     OW21853   3.954   4.352   9.423
 7132SOL    HW121854   3.861   4.350   9.460
 7132SOL    HW221855   3.955   4.313   9.331
 7133SOL     OW21856   3.949   3.999  10.306
 7133SOL    HW121857   3.984   3.982  10.398
 7133SOL    HW221858   3.861   3.954  10.294
 7134SOL     OW21859   3.743   4.092   9.957
 7134SOL    HW121860   3.661   4.135   9.996
 7134SOL    HW221861   3.715   4.019   9.894
 7135SOL     OW21862   4.162   4.116  10.809
 7135SOL    HW121863   4.244   4.060  10.818
 7135SOL    HW221864   4.081   4.058  10.813
 7136SOL     OW21865   3.846   4.367   9.873
 7136SOL    HW121866   3.801   4.279   9.890
 7136SOL    HW221867   3.845   4.421   9.957
 7137SOL     OW21868   3.837   4.461  10.907
 7137SOL    HW121869   3.925   4.448  10.952
 7137SOL    HW221870   3.824   4.558  10.885
 7138SOL     OW21871   4.533   3.728   9.812
 7138SOL    HW121872   4.573   3.819   9.803
 7138SOL    HW221873   4.433   3.736   9.818
 7139SOL     OW21874   4.041   3.975  11.111
 7139SOL    HW121875   4.112   4.046  11.117
 7139SOL    HW221876   3.953   4.014  11.139
 7140SOL     OW21877   4.274   3.920  10.195
 7140SOL    HW121878   4.269   3.915  10.295
 7140SOL    HW221879   4.276   4.016  10.166
 7141SOL     OW21880   3.926   4.009  10.808
 7141SOL    HW121881   3.846   4.069  10.795
 7141SOL    HW221882   3.916   3.960  10.894
 7142SOL     OW21883   4.106   4.424   9.790
 7142SOL    HW121884   4.151   4.334   9.787
 7142SOL    HW221885   4.012   4.413   9.823
 7143SOL     OW21886   4.338   3.846   9.427
 7143SOL    HW121887   4.436   3.824   9.434
 7143SOL    HW221888   4.307   3.829   9.334
 7144SOL     OW21889   4.263   3.788   9.822
 7144SOL    HW121890   4.182   3.789   9.880
 7144SOL    HW221891   4.266   3.871   9.767
 7145SOL     OW21892   4.021   3.759   9.481
 7145SOL    HW121893   4.070   3.843   9.460
 7145SOL    HW221894   4.083   3.694   9.526
 7146SOL     OW21895   4.800   4.407  10.774
 7146SOL    HW121896   4.720   4.346  10.777
 7146SOL    HW221897   4.881   4.354  10.750
 7147SOL     OW21898   3.802   4.280  10.696
 7147SOL    HW121899   3.894   4.279  10.655
 7147SOL    HW221900   3.796   4.354  10.763
 7148SOL     OW21901   4.285   3.946  10.457
 7148SOL    HW121902   4.323   3.862  10.494
 7148SOL    HW221903   4.197   3.965  10.501
 7149SOL     OW21904   4.251   3.980   9.638
 7149SOL    HW121905   4.278   3.921   9.563
 7149SOL    HW221906   4.251   4.075   9.607
 7150SOL     OW21907   4.134   4.537  10.561
 7150SOL    HW121908   4.220   4.549  10.611
 7150SOL    HW221909   4.092   4.450  10.588
 7151SOL     OW21910   4.290   4.261  10.175
 7151SOL    HW121911   4.302   4.327  10.101
 7151SOL    HW221912   4.336   4.295  10.258
 7152SOL     OW21913   4.126   4.475  10.908
 7152SOL    HW121914   4.194   4.530  10.861
 7152SOL    HW221915   4.166   4.387  10.935
 7153SOL     OW21916   4.031   3.937  10.541
 7153SOL    HW121917   4.008   3.974  10.631
 7153SOL    HW221918   4.001   3.842  10.535
 7154SOL     OW21919   4.031   3.787   9.928
 7154SOL    HW121920   4.020   3.881   9.961
 7154SOL    HW221921   4.026   3.724  10.005
 7155SOL     OW21922   4.043   4.534  10.259
 7155SOL    HW121923   4.136   4.570  10.264
 7155SOL    HW221924   4.037   4.449  10.311
 7156SOL     OW21925   4.063   4.233  10.316
 7156SOL    HW121926   4.011   4.150  10.299
 7156SOL    HW221927   4.140   4.238  10.252
 7157SOL     OW21928   3.764   4.268  10.424
 7157SOL    HW121929   3.849   4.235  10.383
 7157SOL    HW221930   3.777   4.283  10.522
 7158SOL     OW21931   4.539   4.296   9.635
 7158SOL    HW121932   4.546   4.207   9.589
 7158SOL    HW221933   4.445   4.330   9.627
 7159SOL     OW21934   4.197   4.224   9.501
 7159SOL    HW121935   4.258   4.304   9.505
 7159SOL    HW221936   4.102   4.255   9.508
 7160SOL     OW21937   3.987   4.050  10.030
 7160SOL    HW121938   3.908   4.101   9.996
 7160SOL    HW221939   3.978   4.035  10.128
 7161SOL     OW21940   4.396   3.927  10.799
 7161SOL    HW121941   4.486   3.911  10.759
 7161SOL    HW221942   4.404   3.932  10.898
 7162SOL     OW21943   3.799   4.069   9.343
 7162SOL    HW121944   3.707   4.041   9.314
 7162SOL    HW221945   3.830   4.146   9.287
 7163SOL     OW21946   3.796   3.890   9.628
 7163SOL    HW121947   3.779   3.973   9.574
 7163SOL    HW221948   3.886   3.853   9.606
 7164SOL     OW21949   4.152   4.148   9.830
 7164SOL    HW121950   4.182   4.076   9.768
 7164SOL    HW221951   4.113   4.108   9.913
 7165SOL     OW21952   4.041   4.271  10.590
 7165SOL    HW121953   4.079   4.212  10.662
 7165SOL    HW221954   4.081   4.245  10.502
   4.50000   4.50000  11.10000
