[ defaults ]
; nbfunc        comb-rule       gen-pairs       fudgeLJ fudgeQQ
1               2               yes             0.5     0.8333


[ atomtypes ]; tipos de atomo, nombres interacciones LJ
;name  bond_type    mass    charge   ptype          sigma      epsilon
 c3       c3          0.00000  0.00000   A     3.39771e-01   4.51035e-01 ; 1.91  0.1078 ;MOL_GMX.itp
 h2       h2          0.00000  0.00000   A     2.24382e-01   8.70272e-02 ; 1.26  0.0208 ;MOL_GMX.itp
 os       os          0.00000  0.00000   A     3.15610e-01   3.03758e-01 ; 1.77  0.0726 ;MOL_GMX.itp
 h1       h1          0.00000  0.00000   A     2.42200e-01   8.70272e-02 ; 1.36  0.0208 ;MOL_GMX.itp
 oh       oh          0.00000  0.00000   A     3.24287e-01   3.89112e-01 ; 1.82  0.0930 ;MOL_GMX.itp
 ho       ho          0.00000  0.00000   A     5.37925e-02   1.96648e-02 ; 0.30  0.0047 ;MOL_GMX.itp
 ;os       os          0.00000  0.00000   A     3.15610e-01   3.03758e-01 ; 1.77  0.0726 ;PEG
 ;c3       c3          0.00000  0.00000   A     3.39771e-01   4.51035e-01 ; 1.91  0.1078 ;PEG
 ;h1       h1          0.00000  0.00000   A     2.42200e-01   8.70272e-02 ; 1.36  0.0208 ;PEG
OW  OW           8      16.00    0.0000  A   3.15061e-01  6.36386e-01
HW  HW           1       1.008   0.0000  A   0.00000e+00  0.00000e+00