; MOL_GMX.itp created by acpype (v: 2023.10.27) on Fri Aug 22 17:05:23 2025

[ moleculetype ]
;name            nrexcl
 MOL              3

[ atoms ]
;   nr  type  resi  res  atom  cgnr     charge      mass       ; qtot   bond_type
     1   c3     1   MOL    C1    1     0.194562     12.01000 ; qtot 0.195
     2   h2     1   MOL    H1    2     0.079797      1.00800 ; qtot 0.274
     3   os     1   MOL    O1    3    -0.414618     16.00000 ; qtot -0.140
     4   c3     1   MOL    C2    4     0.140548     12.01000 ; qtot 0.000
     5   h1     1   MOL    H2    5     0.060877      1.00800 ; qtot 0.061
     6   c3     1   MOL    C3    6     0.075423     12.01000 ; qtot 0.137
     7   h1     1   MOL    H3    7     0.038318      1.00800 ; qtot 0.175
     8   h1     1   MOL    H4    8     0.064770      1.00800 ; qtot 0.240
     9   os     1   MOL    O2    9    -0.276175     16.00000 ; qtot -0.036
    10   c3     1   MOL    C4   10    -0.111048     12.01000 ; qtot -0.148
    11   c3     1   MOL    C5   11     0.204728     12.01000 ; qtot 0.057
    12   h1     1   MOL    H5   12     0.048900      1.00800 ; qtot 0.106
    13   os     1   MOL    O3   13    -0.262166     16.00000 ; qtot -0.156
    14   c3     1   MOL    C6   14    -0.126238     12.01000 ; qtot -0.282
    15   c3     1   MOL    C7   15     0.066138     12.01000 ; qtot -0.216
    16   h1     1   MOL    H6   16     0.121688      1.00800 ; qtot -0.094
    17   os     1   MOL    O4   17    -0.338878     16.00000 ; qtot -0.433
    18   c3     1   MOL    C8   18    -0.050470     12.01000 ; qtot -0.484
    19   c3     1   MOL    C9   19     0.070881     12.01000 ; qtot -0.413
    20   h1     1   MOL    H7   20     0.075932      1.00800 ; qtot -0.337
    21   os     1   MOL    O5   21    -0.335228     16.00000 ; qtot -0.672
    22   c3     1   MOL   C10   22     0.129754     12.01000 ; qtot -0.543
    23   h2     1   MOL    H8   23     0.128197      1.00800 ; qtot -0.414
    24   os     1   MOL    O6   24    -0.345617     16.00000 ; qtot -0.760
    25   c3     1   MOL   C11   25     0.042955     12.01000 ; qtot -0.717
    26   h1     1   MOL    H9   26     0.090137      1.00800 ; qtot -0.627
    27   c3     1   MOL   C12   27     0.138305     12.01000 ; qtot -0.489
    28   h1     1   MOL   H10   28     0.016316      1.00800 ; qtot -0.472
    29   h1     1   MOL   H11   29     0.048320      1.00800 ; qtot -0.424
    30   os     1   MOL    O7   30    -0.283609     16.00000 ; qtot -0.708
    31   c3     1   MOL   C13   31    -0.109303     12.01000 ; qtot -0.817
    32   c3     1   MOL   C14   32     0.112232     12.01000 ; qtot -0.705
    33   h1     1   MOL   H12   33     0.066552      1.00800 ; qtot -0.638
    34   os     1   MOL    O8   34    -0.207970     16.00000 ; qtot -0.846
    35   c3     1   MOL   C15   35    -0.170786     12.01000 ; qtot -1.017
    36   c3     1   MOL   C16   36     0.127913     12.01000 ; qtot -0.889
    37   h1     1   MOL   H13   37     0.114413      1.00800 ; qtot -0.774
    38   os     1   MOL    O9   38    -0.350175     16.00000 ; qtot -1.125
    39   c3     1   MOL   C17   39    -0.025873     12.01000 ; qtot -1.150
    40   c3     1   MOL   C18   40     0.050958     12.01000 ; qtot -1.100
    41   h1     1   MOL   H14   41     0.085287      1.00800 ; qtot -1.014
    42   os     1   MOL   O10   42    -0.320948     16.00000 ; qtot -1.335
    43   c3     1   MOL   C19   43     0.043995     12.01000 ; qtot -1.291
    44   h2     1   MOL   H15   44     0.155015      1.00800 ; qtot -1.136
    45   os     1   MOL   O11   45    -0.305575     16.00000 ; qtot -1.442
    46   c3     1   MOL   C20   46     0.031365     12.01000 ; qtot -1.410
    47   h1     1   MOL   H16   47     0.113325      1.00800 ; qtot -1.297
    48   c3     1   MOL   C21   48     0.145192     12.01000 ; qtot -1.152
    49   h1     1   MOL   H17   49     0.003489      1.00800 ; qtot -1.148
    50   h1     1   MOL   H18   50     0.049406      1.00800 ; qtot -1.099
    51   os     1   MOL   O12   51    -0.307957     16.00000 ; qtot -1.407
    52   c3     1   MOL   C22   52    -0.030815     12.01000 ; qtot -1.438
    53   c3     1   MOL   C23   53     0.095009     12.01000 ; qtot -1.343
    54   h1     1   MOL   H19   54     0.072440      1.00800 ; qtot -1.270
    55   os     1   MOL   O13   55    -0.157532     16.00000 ; qtot -1.428
    56   c3     1   MOL   C24   56    -0.196967     12.01000 ; qtot -1.625
    57   c3     1   MOL   C25   57     0.121290     12.01000 ; qtot -1.504
    58   h1     1   MOL   H20   58     0.110490      1.00800 ; qtot -1.393
    59   os     1   MOL   O14   59    -0.372190     16.00000 ; qtot -1.765
    60   c3     1   MOL   C26   60     0.021641     12.01000 ; qtot -1.744
    61   c3     1   MOL   C27   61     0.044302     12.01000 ; qtot -1.699
    62   h1     1   MOL   H21   62     0.120051      1.00800 ; qtot -1.579
    63   os     1   MOL   O15   63    -0.395659     16.00000 ; qtot -1.975
    64   c3     1   MOL   C28   64     0.158002     12.01000 ; qtot -1.817
    65   h2     1   MOL   H22   65     0.154391      1.00800 ; qtot -1.662
    66   os     1   MOL   O16   66    -0.371880     16.00000 ; qtot -2.034
    67   c3     1   MOL   C29   67     0.001476     12.01000 ; qtot -2.033
    68   h1     1   MOL   H23   68     0.202779      1.00800 ; qtot -1.830
    69   c3     1   MOL   C30   69     0.059362     12.01000 ; qtot -1.771
    70   h1     1   MOL   H24   70     0.036526      1.00800 ; qtot -1.734
    71   h1     1   MOL   H25   71     0.092587      1.00800 ; qtot -1.642
    72   os     1   MOL   O17   72    -0.246113     16.00000 ; qtot -1.888
    73   c3     1   MOL   C31   73    -0.143621     12.01000 ; qtot -2.031
    74   c3     1   MOL   C32   74     0.055924     12.01000 ; qtot -1.975
    75   h1     1   MOL   H26   75     0.102967      1.00800 ; qtot -1.872
    76   os     1   MOL   O18   76    -0.268597     16.00000 ; qtot -2.141
    77   c3     1   MOL   C33   77    -0.092018     12.01000 ; qtot -2.233
    78   c3     1   MOL   C34   78     0.131162     12.01000 ; qtot -2.102
    79   h1     1   MOL   H27   79     0.116893      1.00800 ; qtot -1.985
    80   os     1   MOL   O19   80    -0.320312     16.00000 ; qtot -2.305
    81   c3     1   MOL   C35   81    -0.020349     12.01000 ; qtot -2.326
    82   c3     1   MOL   C36   82     0.017214     12.01000 ; qtot -2.308
    83   h1     1   MOL   H28   83     0.090642      1.00800 ; qtot -2.218
    84   os     1   MOL   O20   84    -0.362972     16.00000 ; qtot -2.581
    85   c3     1   MOL   C37   85     0.222849     12.01000 ; qtot -2.358
    86   h2     1   MOL   H29   86     0.111175      1.00800 ; qtot -2.247
    87   os     1   MOL   O21   87    -0.391931     16.00000 ; qtot -2.639
    88   c3     1   MOL   C38   88     0.160472     12.01000 ; qtot -2.478
    89   h1     1   MOL   H30   89     0.067384      1.00800 ; qtot -2.411
    90   c3     1   MOL   C39   90     0.072672     12.01000 ; qtot -2.338
    91   h1     1   MOL   H31   91     0.024775      1.00800 ; qtot -2.313
    92   h1     1   MOL   H32   92     0.081216      1.00800 ; qtot -2.232
    93   os     1   MOL   O22   93    -0.298841     16.00000 ; qtot -2.531
    94   c3     1   MOL   C40   94    -0.067282     12.01000 ; qtot -2.598
    95   c3     1   MOL   C41   95     0.068612     12.01000 ; qtot -2.530
    96   h1     1   MOL   H33   96     0.068074      1.00800 ; qtot -2.462
    97   os     1   MOL   O23   97    -0.207634     16.00000 ; qtot -2.669
    98   c3     1   MOL   C42   98    -0.158009     12.01000 ; qtot -2.827
    99   c3     1   MOL   C43   99     0.147521     12.01000 ; qtot -2.680
   100   h1     1   MOL   H34  100     0.125296      1.00800 ; qtot -2.554
   101   os     1   MOL   O24  101    -0.345118     16.00000 ; qtot -2.900
   102   c3     1   MOL   C44  102    -0.040781     12.01000 ; qtot -2.940
   103   c3     1   MOL   C45  103     0.015465     12.01000 ; qtot -2.925
   104   h1     1   MOL   H35  104     0.089750      1.00800 ; qtot -2.835
   105   os     1   MOL   O25  105    -0.369084     16.00000 ; qtot -3.204
   106   c3     1   MOL   C46  106     0.211640     12.01000 ; qtot -2.993
   107   h2     1   MOL   H36  107     0.118525      1.00800 ; qtot -2.874
   108   os     1   MOL   O26  108    -0.386427     16.00000 ; qtot -3.261
   109   c3     1   MOL   C47  109    -0.077191     12.01000 ; qtot -3.338
   110   h1     1   MOL   H37  110     0.118702      1.00800 ; qtot -3.219
   111   c3     1   MOL   C48  111     0.386717     12.01000 ; qtot -2.832
   112   h1     1   MOL   H38  112    -0.102212      1.00800 ; qtot -2.934
   113   h1     1   MOL   H39  113     0.011956      1.00800 ; qtot -2.923
   114   os     1   MOL   O27  114    -0.333072     16.00000 ; qtot -3.256
   115   c3     1   MOL   C49  115    -0.089238     12.01000 ; qtot -3.345
   116   c3     1   MOL   C50  116     0.113120     12.01000 ; qtot -3.232
   117   h1     1   MOL   H40  117     0.060627      1.00800 ; qtot -3.171
   118   os     1   MOL   O28  118    -0.207590     16.00000 ; qtot -3.379
   119   c3     1   MOL   C51  119    -0.176619     12.01000 ; qtot -3.555
   120   c3     1   MOL   C52  120     0.074015     12.01000 ; qtot -3.481
   121   h1     1   MOL   H41  121     0.117630      1.00800 ; qtot -3.364
   122   os     1   MOL   O29  122    -0.335640     16.00000 ; qtot -3.699
   123   c3     1   MOL   C53  123    -0.028637     12.01000 ; qtot -3.728
   124   c3     1   MOL   C54  124     0.140911     12.01000 ; qtot -3.587
   125   h1     1   MOL   H42  125     0.077658      1.00800 ; qtot -3.509
   126   os     1   MOL   O30  126    -0.301020     16.00000 ; qtot -3.810
   127   c3     1   MOL   C55  127    -0.026509     12.01000 ; qtot -3.837
   128   h2     1   MOL   H43  128     0.163888      1.00800 ; qtot -3.673
   129   os     1   MOL   O31  129    -0.317346     16.00000 ; qtot -3.990
   130   c3     1   MOL   C56  130     0.006865     12.01000 ; qtot -3.983
   131   h1     1   MOL   H44  131     0.131883      1.00800 ; qtot -3.852
   132   c3     1   MOL   C57  132     0.213633     12.01000 ; qtot -3.638
   133   h1     1   MOL   H45  133     0.030160      1.00800 ; qtot -3.608
   134   h1     1   MOL   H46  134    -0.030349      1.00800 ; qtot -3.638
   135   os     1   MOL   O32  135    -0.297462     16.00000 ; qtot -3.936
   136   c3     1   MOL   C58  136    -0.040879     12.01000 ; qtot -3.977
   137   c3     1   MOL   C59  137     0.247709     12.01000 ; qtot -3.729
   138   h1     1   MOL   H47  138     0.048642      1.00800 ; qtot -3.680
   139   os     1   MOL   O33  139    -0.187136     16.00000 ; qtot -3.867
   140   c3     1   MOL   C60  140    -0.145441     12.01000 ; qtot -4.013
   141   c3     1   MOL   C61  141    -0.187935     12.01000 ; qtot -4.201
   142   h1     1   MOL   H48  142     0.171807      1.00800 ; qtot -4.029
   143   os     1   MOL   O34  143    -0.308949     16.00000 ; qtot -4.338
   144   c3     1   MOL   C62  144     0.006761     12.01000 ; qtot -4.331
   145   c3     1   MOL   C63  145     0.217959     12.01000 ; qtot -4.113
   146   h1     1   MOL   H49  146     0.090618      1.00800 ; qtot -4.022
   147   os     1   MOL   O35  147    -0.391671     16.00000 ; qtot -4.414
   148   c3     1   MOL   C64  148     0.103633     12.01000 ; qtot -4.311
   149   h2     1   MOL   H50  149     0.128178      1.00800 ; qtot -4.182
   150   os     1   MOL   O36  150    -0.331917     16.00000 ; qtot -4.514
   151   c3     1   MOL   C65  151    -0.099288     12.01000 ; qtot -4.614
   152   h1     1   MOL   H51  152     0.187077      1.00800 ; qtot -4.426
   153   c3     1   MOL   C66  153     0.068452     12.01000 ; qtot -4.358
   154   h1     1   MOL   H52  154     0.061010      1.00800 ; qtot -4.297
   155   h1     1   MOL   H53  155     0.067286      1.00800 ; qtot -4.230
   156   os     1   MOL   O37  156    -0.203453     16.00000 ; qtot -4.433
   157   c3     1   MOL   C67  157    -0.222277     12.01000 ; qtot -4.655
   158   c3     1   MOL   C68  158     0.230752     12.01000 ; qtot -4.425
   159   h1     1   MOL   H54  159     0.063695      1.00800 ; qtot -4.361
   160   os     1   MOL   O38  160    -0.240405     16.00000 ; qtot -4.601
   161   c3     1   MOL   C69  161    -0.137376     12.01000 ; qtot -4.739
   162   c3     1   MOL   C70  162    -0.203664     12.01000 ; qtot -4.942
   163   h1     1   MOL   H55  163     0.180801      1.00800 ; qtot -4.762
   164   os     1   MOL   O39  164    -0.256617     16.00000 ; qtot -5.018
   165   c3     1   MOL   C71  165    -0.119201     12.01000 ; qtot -5.137
   166   c3     1   MOL   C72  166     0.204171     12.01000 ; qtot -4.933
   167   h1     1   MOL   H56  167     0.090902      1.00800 ; qtot -4.842
   168   os     1   MOL   O40  168    -0.341888     16.00000 ; qtot -5.184
   169   h1     1   MOL   H57  169     0.099252      1.00800 ; qtot -5.085
   170   h1     1   MOL   H58  170     0.066270      1.00800 ; qtot -5.019
   171   h1     1   MOL   H59  171     0.075998      1.00800 ; qtot -4.943
   172   h1     1   MOL   H60  172     0.116434      1.00800 ; qtot -4.826
   173   h1     1   MOL   H61  173     0.091990      1.00800 ; qtot -4.734
   174   h1     1   MOL   H62  174     0.098314      1.00800 ; qtot -4.636
   175   h1     1   MOL   H63  175     0.072223      1.00800 ; qtot -4.564
   176   h1     1   MOL   H64  176     0.033505      1.00800 ; qtot -4.530
   177   h1     1   MOL   H65  177     0.054942      1.00800 ; qtot -4.475
   178   h1     1   MOL   H66  178     0.091022      1.00800 ; qtot -4.384
   179   h1     1   MOL   H67  179     0.048301      1.00800 ; qtot -4.336
   180   h1     1   MOL   H68  180     0.078648      1.00800 ; qtot -4.257
   181   h1     1   MOL   H69  181     0.090601      1.00800 ; qtot -4.167
   182   h1     1   MOL   H70  182     0.051621      1.00800 ; qtot -4.115
   183   h1     1   MOL   H71  183     0.067277      1.00800 ; qtot -4.048
   184   h1     1   MOL   H72  184     0.103947      1.00800 ; qtot -3.944
   185   h1     1   MOL   H73  185     0.075553      1.00800 ; qtot -3.868
   186   h1     1   MOL   H74  186     0.076542      1.00800 ; qtot -3.792
   187   h1     1   MOL   H75  187     0.084285      1.00800 ; qtot -3.708
   188   h1     1   MOL   H76  188     0.065666      1.00800 ; qtot -3.642
   189   h1     1   MOL   H77  189    -0.008615      1.00800 ; qtot -3.650
   190   h1     1   MOL   H78  190     0.097910      1.00800 ; qtot -3.553
   191   h1     1   MOL   H79  191     0.065638      1.00800 ; qtot -3.487
   192   h1     1   MOL   H80  192     0.074754      1.00800 ; qtot -3.412
   193   h1     1   MOL   H81  193     0.088769      1.00800 ; qtot -3.323
   194   h1     1   MOL   H82  194     0.045037      1.00800 ; qtot -3.278
   195   h1     1   MOL   H83  195     0.030779      1.00800 ; qtot -3.248
   196   h1     1   MOL   H84  196     0.119748      1.00800 ; qtot -3.128
   197   h1     1   MOL   H85  197     0.079263      1.00800 ; qtot -3.049
   198   h1     1   MOL   H86  198     0.072901      1.00800 ; qtot -2.976
   199   h1     1   MOL   H87  199     0.097595      1.00800 ; qtot -2.878
   200   h1     1   MOL   H88  200     0.046934      1.00800 ; qtot -2.831
   201   h1     1   MOL   H89  201     0.044689      1.00800 ; qtot -2.786
   202   h1     1   MOL   H90  202     0.112844      1.00800 ; qtot -2.674
   203   h1     1   MOL   H91  203     0.058553      1.00800 ; qtot -2.615
   204   h1     1   MOL   H92  204     0.064733      1.00800 ; qtot -2.550
   205   h1     1   MOL   H93  205     0.107055      1.00800 ; qtot -2.443
   206   h1     1   MOL   H94  206     0.067536      1.00800 ; qtot -2.376
   207   h1     1   MOL   H95  207     0.083343      1.00800 ; qtot -2.292
   208   h1     1   MOL   H96  208     0.100912      1.00800 ; qtot -2.191
   209   h1     1   MOL   H97  209     0.060169      1.00800 ; qtot -2.131
   210   h1     1   MOL   H98  210     0.084944      1.00800 ; qtot -2.046
   211   h1     1   MOL   H99  211     0.072882      1.00800 ; qtot -1.974
   212   h1     1   MOL  H100  212     0.052264      1.00800 ; qtot -1.921
   213   h1     1   MOL  H101  213     0.023971      1.00800 ; qtot -1.897
   214   h1     1   MOL  H102  214     0.107606      1.00800 ; qtot -1.790
   215   h1     1   MOL  H103  215     0.071171      1.00800 ; qtot -1.718
   216   h1     1   MOL  H104  216     0.060461      1.00800 ; qtot -1.658
   217   h1     1   MOL  H105  217     0.082583      1.00800 ; qtot -1.575
   218   h1     1   MOL  H106  218     0.043508      1.00800 ; qtot -1.532
   219   h1     1   MOL  H107  219     0.036702      1.00800 ; qtot -1.495
   220   h1     1   MOL  H108  220     0.119546      1.00800 ; qtot -1.376
   221   h1     1   MOL  H109  221     0.080803      1.00800 ; qtot -1.295
   222   h1     1   MOL  H110  222     0.073082      1.00800 ; qtot -1.222
   223   h1     1   MOL  H111  223     0.093540      1.00800 ; qtot -1.128
   224   h1     1   MOL  H112  224     0.044422      1.00800 ; qtot -1.084
   225   h1     1   MOL  H113  225     0.034981      1.00800 ; qtot -1.049
   226   h1     1   MOL  H114  226     0.115388      1.00800 ; qtot -0.933
   227   h1     1   MOL  H115  227     0.071904      1.00800 ; qtot -0.862
   228   h1     1   MOL  H116  228     0.073455      1.00800 ; qtot -0.788
   229   h1     1   MOL  H117  229     0.084555      1.00800 ; qtot -0.704
   230   h1     1   MOL  H118  230     0.021104      1.00800 ; qtot -0.682
   231   h1     1   MOL  H119  231     0.049880      1.00800 ; qtot -0.633
   232   h1     1   MOL  H120  232     0.093570      1.00800 ; qtot -0.539
   233   h1     1   MOL  H121  233     0.048356      1.00800 ; qtot -0.491
   234   h1     1   MOL  H122  234     0.072270      1.00800 ; qtot -0.418
   235   h1     1   MOL  H123  235     0.075837      1.00800 ; qtot -0.343
   236   h1     1   MOL  H124  236     0.045084      1.00800 ; qtot -0.297
   237   h1     1   MOL  H125  237     0.012866      1.00800 ; qtot -0.285
   238   h1     1   MOL  H126  238     0.119567      1.00800 ; qtot -0.165
   239   h1     1   MOL  H127  239     0.088065      1.00800 ; qtot -0.077
   240   h1     1   MOL  H128  240     0.076963      1.00800 ; qtot -0.000

[ bonds ]
;   ai     aj funct   r             k
     1      2   1    1.0960e-01    3.1572e+05 ;     C1 - H1    
     1      3   1    1.4320e-01    2.3832e+05 ;     C1 - O1    
     1     11   1    1.5380e-01    1.9456e+05 ;     C1 - C5    
     1    168   1    1.4320e-01    2.3832e+05 ;     C1 - O40   
     3      4   1    1.4320e-01    2.3832e+05 ;     O1 - C2    
     4      5   1    1.0970e-01    3.1455e+05 ;     C2 - H2    
     4      6   1    1.5380e-01    1.9456e+05 ;     C2 - C3    
     4     19   1    1.5380e-01    1.9456e+05 ;     C2 - C9    
     6      7   1    1.0970e-01    3.1455e+05 ;     C3 - H3    
     6      8   1    1.0970e-01    3.1455e+05 ;     C3 - H4    
     6      9   1    1.4320e-01    2.3832e+05 ;     C3 - O2    
     9     10   1    1.4320e-01    2.3832e+05 ;     O2 - C4    
    10    169   1    1.0970e-01    3.1455e+05 ;     C4 - H57   
    10    170   1    1.0970e-01    3.1455e+05 ;     C4 - H58   
    10    171   1    1.0970e-01    3.1455e+05 ;     C4 - H59   
    11     12   1    1.0970e-01    3.1455e+05 ;     C5 - H5    
    11     13   1    1.4320e-01    2.3832e+05 ;     C5 - O3    
    11     15   1    1.5380e-01    1.9456e+05 ;     C5 - C7    
    13     14   1    1.4320e-01    2.3832e+05 ;     O3 - C6    
    14    202   1    1.0970e-01    3.1455e+05 ;     C6 - H90   
    14    203   1    1.0970e-01    3.1455e+05 ;     C6 - H91   
    14    204   1    1.0970e-01    3.1455e+05 ;     C6 - H92   
    15     16   1    1.0970e-01    3.1455e+05 ;     C7 - H6    
    15     17   1    1.4320e-01    2.3832e+05 ;     C7 - O4    
    15     19   1    1.5380e-01    1.9456e+05 ;     C7 - C9    
    17     18   1    1.4320e-01    2.3832e+05 ;     O4 - C8    
    18    199   1    1.0970e-01    3.1455e+05 ;     C8 - H87   
    18    200   1    1.0970e-01    3.1455e+05 ;     C8 - H88   
    18    201   1    1.0970e-01    3.1455e+05 ;     C8 - H89   
    19     20   1    1.0970e-01    3.1455e+05 ;     C9 - H7    
    19     21   1    1.4320e-01    2.3832e+05 ;     C9 - O5    
    21     22   1    1.4320e-01    2.3832e+05 ;     O5 - C10   
    22     23   1    1.0960e-01    3.1572e+05 ;    C10 - H8    
    22     24   1    1.4320e-01    2.3832e+05 ;    C10 - O6    
    22     32   1    1.5380e-01    1.9456e+05 ;    C10 - C14   
    24     25   1    1.4320e-01    2.3832e+05 ;     O6 - C11   
    25     26   1    1.0970e-01    3.1455e+05 ;    C11 - H9    
    25     27   1    1.5380e-01    1.9456e+05 ;    C11 - C12   
    25     40   1    1.5380e-01    1.9456e+05 ;    C11 - C18   
    27     28   1    1.0970e-01    3.1455e+05 ;    C12 - H10   
    27     29   1    1.0970e-01    3.1455e+05 ;    C12 - H11   
    27     30   1    1.4320e-01    2.3832e+05 ;    C12 - O7    
    30     31   1    1.4320e-01    2.3832e+05 ;     O7 - C13   
    31    190   1    1.0970e-01    3.1455e+05 ;    C13 - H78   
    31    191   1    1.0970e-01    3.1455e+05 ;    C13 - H79   
    31    192   1    1.0970e-01    3.1455e+05 ;    C13 - H80   
    32     33   1    1.0970e-01    3.1455e+05 ;    C14 - H12   
    32     34   1    1.4320e-01    2.3832e+05 ;    C14 - O8    
    32     36   1    1.5380e-01    1.9456e+05 ;    C14 - C16   
    34     35   1    1.4320e-01    2.3832e+05 ;     O8 - C15   
    35    196   1    1.0970e-01    3.1455e+05 ;    C15 - H84   
    35    197   1    1.0970e-01    3.1455e+05 ;    C15 - H85   
    35    198   1    1.0970e-01    3.1455e+05 ;    C15 - H86   
    36     37   1    1.0970e-01    3.1455e+05 ;    C16 - H13   
    36     38   1    1.4320e-01    2.3832e+05 ;    C16 - O9    
    36     40   1    1.5380e-01    1.9456e+05 ;    C16 - C18   
    38     39   1    1.4320e-01    2.3832e+05 ;     O9 - C17   
    39    193   1    1.0970e-01    3.1455e+05 ;    C17 - H81   
    39    194   1    1.0970e-01    3.1455e+05 ;    C17 - H82   
    39    195   1    1.0970e-01    3.1455e+05 ;    C17 - H83   
    40     41   1    1.0970e-01    3.1455e+05 ;    C18 - H14   
    40     42   1    1.4320e-01    2.3832e+05 ;    C18 - O10   
    42     43   1    1.4320e-01    2.3832e+05 ;    O10 - C19   
    43     44   1    1.0960e-01    3.1572e+05 ;    C19 - H15   
    43     45   1    1.4320e-01    2.3832e+05 ;    C19 - O11   
    43     53   1    1.5380e-01    1.9456e+05 ;    C19 - C23   
    45     46   1    1.4320e-01    2.3832e+05 ;    O11 - C20   
    46     47   1    1.0970e-01    3.1455e+05 ;    C20 - H16   
    46     48   1    1.5380e-01    1.9456e+05 ;    C20 - C21   
    46     61   1    1.5380e-01    1.9456e+05 ;    C20 - C27   
    48     49   1    1.0970e-01    3.1455e+05 ;    C21 - H17   
    48     50   1    1.0970e-01    3.1455e+05 ;    C21 - H18   
    48     51   1    1.4320e-01    2.3832e+05 ;    C21 - O12   
    51     52   1    1.4320e-01    2.3832e+05 ;    O12 - C22   
    52    187   1    1.0970e-01    3.1455e+05 ;    C22 - H75   
    52    188   1    1.0970e-01    3.1455e+05 ;    C22 - H76   
    52    189   1    1.0970e-01    3.1455e+05 ;    C22 - H77   
    53     54   1    1.0970e-01    3.1455e+05 ;    C23 - H19   
    53     55   1    1.4320e-01    2.3832e+05 ;    C23 - O13   
    53     57   1    1.5380e-01    1.9456e+05 ;    C23 - C25   
    55     56   1    1.4320e-01    2.3832e+05 ;    O13 - C24   
    56    238   1    1.0970e-01    3.1455e+05 ;    C24 - H126  
    56    239   1    1.0970e-01    3.1455e+05 ;    C24 - H127  
    56    240   1    1.0970e-01    3.1455e+05 ;    C24 - H128  
    57     58   1    1.0970e-01    3.1455e+05 ;    C25 - H20   
    57     59   1    1.4320e-01    2.3832e+05 ;    C25 - O14   
    57     61   1    1.5380e-01    1.9456e+05 ;    C25 - C27   
    59     60   1    1.4320e-01    2.3832e+05 ;    O14 - C26   
    60    235   1    1.0970e-01    3.1455e+05 ;    C26 - H123  
    60    236   1    1.0970e-01    3.1455e+05 ;    C26 - H124  
    60    237   1    1.0970e-01    3.1455e+05 ;    C26 - H125  
    61     62   1    1.0970e-01    3.1455e+05 ;    C27 - H21   
    61     63   1    1.4320e-01    2.3832e+05 ;    C27 - O15   
    63     64   1    1.4320e-01    2.3832e+05 ;    O15 - C28   
    64     65   1    1.0960e-01    3.1572e+05 ;    C28 - H22   
    64     66   1    1.4320e-01    2.3832e+05 ;    C28 - O16   
    64     74   1    1.5380e-01    1.9456e+05 ;    C28 - C32   
    66     67   1    1.4320e-01    2.3832e+05 ;    O16 - C29   
    67     68   1    1.0970e-01    3.1455e+05 ;    C29 - H23   
    67     69   1    1.5380e-01    1.9456e+05 ;    C29 - C30   
    67     82   1    1.5380e-01    1.9456e+05 ;    C29 - C36   
    69     70   1    1.0970e-01    3.1455e+05 ;    C30 - H24   
    69     71   1    1.0970e-01    3.1455e+05 ;    C30 - H25   
    69     72   1    1.4320e-01    2.3832e+05 ;    C30 - O17   
    72     73   1    1.4320e-01    2.3832e+05 ;    O17 - C31   
    73    184   1    1.0970e-01    3.1455e+05 ;    C31 - H72   
    73    185   1    1.0970e-01    3.1455e+05 ;    C31 - H73   
    73    186   1    1.0970e-01    3.1455e+05 ;    C31 - H74   
    74     75   1    1.0970e-01    3.1455e+05 ;    C32 - H26   
    74     76   1    1.4320e-01    2.3832e+05 ;    C32 - O18   
    74     78   1    1.5380e-01    1.9456e+05 ;    C32 - C34   
    76     77   1    1.4320e-01    2.3832e+05 ;    O18 - C33   
    77    232   1    1.0970e-01    3.1455e+05 ;    C33 - H120  
    77    233   1    1.0970e-01    3.1455e+05 ;    C33 - H121  
    77    234   1    1.0970e-01    3.1455e+05 ;    C33 - H122  
    78     79   1    1.0970e-01    3.1455e+05 ;    C34 - H27   
    78     80   1    1.4320e-01    2.3832e+05 ;    C34 - O19   
    78     82   1    1.5380e-01    1.9456e+05 ;    C34 - C36   
    80     81   1    1.4320e-01    2.3832e+05 ;    O19 - C35   
    81    229   1    1.0970e-01    3.1455e+05 ;    C35 - H117  
    81    230   1    1.0970e-01    3.1455e+05 ;    C35 - H118  
    81    231   1    1.0970e-01    3.1455e+05 ;    C35 - H119  
    82     83   1    1.0970e-01    3.1455e+05 ;    C36 - H28   
    82     84   1    1.4320e-01    2.3832e+05 ;    C36 - O20   
    84     85   1    1.4320e-01    2.3832e+05 ;    O20 - C37   
    85     86   1    1.0960e-01    3.1572e+05 ;    C37 - H29   
    85     87   1    1.4320e-01    2.3832e+05 ;    C37 - O21   
    85     95   1    1.5380e-01    1.9456e+05 ;    C37 - C41   
    87     88   1    1.4320e-01    2.3832e+05 ;    O21 - C38   
    88     89   1    1.0970e-01    3.1455e+05 ;    C38 - H30   
    88     90   1    1.5380e-01    1.9456e+05 ;    C38 - C39   
    88    103   1    1.5380e-01    1.9456e+05 ;    C38 - C45   
    90     91   1    1.0970e-01    3.1455e+05 ;    C39 - H31   
    90     92   1    1.0970e-01    3.1455e+05 ;    C39 - H32   
    90     93   1    1.4320e-01    2.3832e+05 ;    C39 - O22   
    93     94   1    1.4320e-01    2.3832e+05 ;    O22 - C40   
    94    181   1    1.0970e-01    3.1455e+05 ;    C40 - H69   
    94    182   1    1.0970e-01    3.1455e+05 ;    C40 - H70   
    94    183   1    1.0970e-01    3.1455e+05 ;    C40 - H71   
    95     96   1    1.0970e-01    3.1455e+05 ;    C41 - H33   
    95     97   1    1.4320e-01    2.3832e+05 ;    C41 - O23   
    95     99   1    1.5380e-01    1.9456e+05 ;    C41 - C43   
    97     98   1    1.4320e-01    2.3832e+05 ;    O23 - C42   
    98    226   1    1.0970e-01    3.1455e+05 ;    C42 - H114  
    98    227   1    1.0970e-01    3.1455e+05 ;    C42 - H115  
    98    228   1    1.0970e-01    3.1455e+05 ;    C42 - H116  
    99    100   1    1.0970e-01    3.1455e+05 ;    C43 - H34   
    99    101   1    1.4320e-01    2.3832e+05 ;    C43 - O24   
    99    103   1    1.5380e-01    1.9456e+05 ;    C43 - C45   
   101    102   1    1.4320e-01    2.3832e+05 ;    O24 - C44   
   102    223   1    1.0970e-01    3.1455e+05 ;    C44 - H111  
   102    224   1    1.0970e-01    3.1455e+05 ;    C44 - H112  
   102    225   1    1.0970e-01    3.1455e+05 ;    C44 - H113  
   103    104   1    1.0970e-01    3.1455e+05 ;    C45 - H35   
   103    105   1    1.4320e-01    2.3832e+05 ;    C45 - O25   
   105    106   1    1.4320e-01    2.3832e+05 ;    O25 - C46   
   106    107   1    1.0960e-01    3.1572e+05 ;    C46 - H36   
   106    108   1    1.4320e-01    2.3832e+05 ;    C46 - O26   
   106    116   1    1.5380e-01    1.9456e+05 ;    C46 - C50   
   108    109   1    1.4320e-01    2.3832e+05 ;    O26 - C47   
   109    110   1    1.0970e-01    3.1455e+05 ;    C47 - H37   
   109    111   1    1.5380e-01    1.9456e+05 ;    C47 - C48   
   109    124   1    1.5380e-01    1.9456e+05 ;    C47 - C54   
   111    112   1    1.0970e-01    3.1455e+05 ;    C48 - H38   
   111    113   1    1.0970e-01    3.1455e+05 ;    C48 - H39   
   111    114   1    1.4320e-01    2.3832e+05 ;    C48 - O27   
   114    115   1    1.4320e-01    2.3832e+05 ;    O27 - C49   
   115    178   1    1.0970e-01    3.1455e+05 ;    C49 - H66   
   115    179   1    1.0970e-01    3.1455e+05 ;    C49 - H67   
   115    180   1    1.0970e-01    3.1455e+05 ;    C49 - H68   
   116    117   1    1.0970e-01    3.1455e+05 ;    C50 - H40   
   116    118   1    1.4320e-01    2.3832e+05 ;    C50 - O28   
   116    120   1    1.5380e-01    1.9456e+05 ;    C50 - C52   
   118    119   1    1.4320e-01    2.3832e+05 ;    O28 - C51   
   119    220   1    1.0970e-01    3.1455e+05 ;    C51 - H108  
   119    221   1    1.0970e-01    3.1455e+05 ;    C51 - H109  
   119    222   1    1.0970e-01    3.1455e+05 ;    C51 - H110  
   120    121   1    1.0970e-01    3.1455e+05 ;    C52 - H41   
   120    122   1    1.4320e-01    2.3832e+05 ;    C52 - O29   
   120    124   1    1.5380e-01    1.9456e+05 ;    C52 - C54   
   122    123   1    1.4320e-01    2.3832e+05 ;    O29 - C53   
   123    217   1    1.0970e-01    3.1455e+05 ;    C53 - H105  
   123    218   1    1.0970e-01    3.1455e+05 ;    C53 - H106  
   123    219   1    1.0970e-01    3.1455e+05 ;    C53 - H107  
   124    125   1    1.0970e-01    3.1455e+05 ;    C54 - H42   
   124    126   1    1.4320e-01    2.3832e+05 ;    C54 - O30   
   126    127   1    1.4320e-01    2.3832e+05 ;    O30 - C55   
   127    128   1    1.0960e-01    3.1572e+05 ;    C55 - H43   
   127    129   1    1.4320e-01    2.3832e+05 ;    C55 - O31   
   127    137   1    1.5380e-01    1.9456e+05 ;    C55 - C59   
   129    130   1    1.4320e-01    2.3832e+05 ;    O31 - C56   
   130    131   1    1.0970e-01    3.1455e+05 ;    C56 - H44   
   130    132   1    1.5380e-01    1.9456e+05 ;    C56 - C57   
   130    145   1    1.5380e-01    1.9456e+05 ;    C56 - C63   
   132    133   1    1.0970e-01    3.1455e+05 ;    C57 - H45   
   132    134   1    1.0970e-01    3.1455e+05 ;    C57 - H46   
   132    135   1    1.4320e-01    2.3832e+05 ;    C57 - O32   
   135    136   1    1.4320e-01    2.3832e+05 ;    O32 - C58   
   136    175   1    1.0970e-01    3.1455e+05 ;    C58 - H63   
   136    176   1    1.0970e-01    3.1455e+05 ;    C58 - H64   
   136    177   1    1.0970e-01    3.1455e+05 ;    C58 - H65   
   137    138   1    1.0970e-01    3.1455e+05 ;    C59 - H47   
   137    139   1    1.4320e-01    2.3832e+05 ;    C59 - O33   
   137    141   1    1.5380e-01    1.9456e+05 ;    C59 - C61   
   139    140   1    1.4320e-01    2.3832e+05 ;    O33 - C60   
   140    214   1    1.0970e-01    3.1455e+05 ;    C60 - H102  
   140    215   1    1.0970e-01    3.1455e+05 ;    C60 - H103  
   140    216   1    1.0970e-01    3.1455e+05 ;    C60 - H104  
   141    142   1    1.0970e-01    3.1455e+05 ;    C61 - H48   
   141    143   1    1.4320e-01    2.3832e+05 ;    C61 - O34   
   141    145   1    1.5380e-01    1.9456e+05 ;    C61 - C63   
   143    144   1    1.4320e-01    2.3832e+05 ;    O34 - C62   
   144    211   1    1.0970e-01    3.1455e+05 ;    C62 - H99   
   144    212   1    1.0970e-01    3.1455e+05 ;    C62 - H100  
   144    213   1    1.0970e-01    3.1455e+05 ;    C62 - H101  
   145    146   1    1.0970e-01    3.1455e+05 ;    C63 - H49   
   145    147   1    1.4320e-01    2.3832e+05 ;    C63 - O35   
   147    148   1    1.4320e-01    2.3832e+05 ;    O35 - C64   
   148    149   1    1.0960e-01    3.1572e+05 ;    C64 - H50   
   148    150   1    1.4320e-01    2.3832e+05 ;    C64 - O36   
   148    158   1    1.5380e-01    1.9456e+05 ;    C64 - C68   
   150    151   1    1.4320e-01    2.3832e+05 ;    O36 - C65   
   151    152   1    1.0970e-01    3.1455e+05 ;    C65 - H51   
   151    153   1    1.5380e-01    1.9456e+05 ;    C65 - C66   
   151    166   1    1.5380e-01    1.9456e+05 ;    C65 - C72   
   153    154   1    1.0970e-01    3.1455e+05 ;    C66 - H52   
   153    155   1    1.0970e-01    3.1455e+05 ;    C66 - H53   
   153    156   1    1.4320e-01    2.3832e+05 ;    C66 - O37   
   156    157   1    1.4320e-01    2.3832e+05 ;    O37 - C67   
   157    172   1    1.0970e-01    3.1455e+05 ;    C67 - H60   
   157    173   1    1.0970e-01    3.1455e+05 ;    C67 - H61   
   157    174   1    1.0970e-01    3.1455e+05 ;    C67 - H62   
   158    159   1    1.0970e-01    3.1455e+05 ;    C68 - H54   
   158    160   1    1.4320e-01    2.3832e+05 ;    C68 - O38   
   158    162   1    1.5380e-01    1.9456e+05 ;    C68 - C70   
   160    161   1    1.4320e-01    2.3832e+05 ;    O38 - C69   
   161    208   1    1.0970e-01    3.1455e+05 ;    C69 - H96   
   161    209   1    1.0970e-01    3.1455e+05 ;    C69 - H97   
   161    210   1    1.0970e-01    3.1455e+05 ;    C69 - H98   
   162    163   1    1.0970e-01    3.1455e+05 ;    C70 - H55   
   162    164   1    1.4320e-01    2.3832e+05 ;    C70 - O39   
   162    166   1    1.5380e-01    1.9456e+05 ;    C70 - C72   
   164    165   1    1.4320e-01    2.3832e+05 ;    O39 - C71   
   165    205   1    1.0970e-01    3.1455e+05 ;    C71 - H93   
   165    206   1    1.0970e-01    3.1455e+05 ;    C71 - H94   
   165    207   1    1.0970e-01    3.1455e+05 ;    C71 - H95   
   166    167   1    1.0970e-01    3.1455e+05 ;    C72 - H56   
   166    168   1    1.4320e-01    2.3832e+05 ;    C72 - O40   

[ pairs ]
;   ai     aj    funct
     1      5      1 ;     C1 - H2    
     1      6      1 ;     C1 - C3    
     1     14      1 ;     C1 - C6    
     1     16      1 ;     C1 - H6    
     1     17      1 ;     C1 - O4    
     1     19      1 ;     C1 - C9    
     1    151      1 ;     C1 - C65   
     1    162      1 ;     C1 - C70   
     1    167      1 ;     C1 - H56   
     2      4      1 ;     H1 - C2    
     2     12      1 ;     H1 - H5    
     2     13      1 ;     H1 - O3    
     2     15      1 ;     H1 - C7    
     2    166      1 ;     H1 - C72   
     3      7      1 ;     O1 - H3    
     3      8      1 ;     O1 - H4    
     3      9      1 ;     O1 - O2    
     3     12      1 ;     O1 - H5    
     3     13      1 ;     O1 - O3    
     3     15      1 ;     O1 - C7    
     3     20      1 ;     O1 - H7    
     3     21      1 ;     O1 - O5    
     3    166      1 ;     O1 - C72   
     4     10      1 ;     C2 - C4    
     4     16      1 ;     C2 - H6    
     4     17      1 ;     C2 - O4    
     4     22      1 ;     C2 - C10   
     5      7      1 ;     H2 - H3    
     5      8      1 ;     H2 - H4    
     5      9      1 ;     H2 - O2    
     5     15      1 ;     H2 - C7    
     5     20      1 ;     H2 - H7    
     5     21      1 ;     H2 - O5    
     6     15      1 ;     C3 - C7    
     6     20      1 ;     C3 - H7    
     6     21      1 ;     C3 - O5    
     6    169      1 ;     C3 - H57   
     6    170      1 ;     C3 - H58   
     6    171      1 ;     C3 - H59   
     7     10      1 ;     H3 - C4    
     7     19      1 ;     H3 - C9    
     8     10      1 ;     H4 - C4    
     8     19      1 ;     H4 - C9    
     9     19      1 ;     O2 - C9    
    11      4      1 ;     C5 - C2    
    11     18      1 ;     C5 - C8    
    11     20      1 ;     C5 - H7    
    11     21      1 ;     C5 - O5    
    11    166      1 ;     C5 - C72   
    11    202      1 ;     C5 - H90   
    11    203      1 ;     C5 - H91   
    11    204      1 ;     C5 - H92   
    12     14      1 ;     H5 - C6    
    12     16      1 ;     H5 - H6    
    12     17      1 ;     H5 - O4    
    12     19      1 ;     H5 - C9    
    13     16      1 ;     O3 - H6    
    13     17      1 ;     O3 - O4    
    13     19      1 ;     O3 - C9    
    14     15      1 ;     C6 - C7    
    15     22      1 ;     C7 - C10   
    15    199      1 ;     C7 - H87   
    15    200      1 ;     C7 - H88   
    15    201      1 ;     C7 - H89   
    16     18      1 ;     H6 - C8    
    16     20      1 ;     H6 - H7    
    16     21      1 ;     H6 - O5    
    17     20      1 ;     O4 - H7    
    17     21      1 ;     O4 - O5    
    18     19      1 ;     C8 - C9    
    19     23      1 ;     C9 - H8    
    19     24      1 ;     C9 - O6    
    19     32      1 ;     C9 - C14   
    20     22      1 ;     H7 - C10   
    21     25      1 ;     O5 - C11   
    21     33      1 ;     O5 - H12   
    21     34      1 ;     O5 - O8    
    21     36      1 ;     O5 - C16   
    22     26      1 ;    C10 - H9    
    22     27      1 ;    C10 - C12   
    22     35      1 ;    C10 - C15   
    22     37      1 ;    C10 - H13   
    22     38      1 ;    C10 - O9    
    22     40      1 ;    C10 - C18   
    23     25      1 ;     H8 - C11   
    23     33      1 ;     H8 - H12   
    23     34      1 ;     H8 - O8    
    23     36      1 ;     H8 - C16   
    24     28      1 ;     O6 - H10   
    24     29      1 ;     O6 - H11   
    24     30      1 ;     O6 - O7    
    24     33      1 ;     O6 - H12   
    24     34      1 ;     O6 - O8    
    24     36      1 ;     O6 - C16   
    24     41      1 ;     O6 - H14   
    24     42      1 ;     O6 - O10   
    25     31      1 ;    C11 - C13   
    25     32      1 ;    C11 - C14   
    25     37      1 ;    C11 - H13   
    25     38      1 ;    C11 - O9    
    25     43      1 ;    C11 - C19   
    26     28      1 ;     H9 - H10   
    26     29      1 ;     H9 - H11   
    26     30      1 ;     H9 - O7    
    26     36      1 ;     H9 - C16   
    26     41      1 ;     H9 - H14   
    26     42      1 ;     H9 - O10   
    27     36      1 ;    C12 - C16   
    27     41      1 ;    C12 - H14   
    27     42      1 ;    C12 - O10   
    27    190      1 ;    C12 - H78   
    27    191      1 ;    C12 - H79   
    27    192      1 ;    C12 - H80   
    28     31      1 ;    H10 - C13   
    28     40      1 ;    H10 - C18   
    29     31      1 ;    H11 - C13   
    29     40      1 ;    H11 - C18   
    30     40      1 ;     O7 - C18   
    32     39      1 ;    C14 - C17   
    32     41      1 ;    C14 - H14   
    32     42      1 ;    C14 - O10   
    32    196      1 ;    C14 - H84   
    32    197      1 ;    C14 - H85   
    32    198      1 ;    C14 - H86   
    33     35      1 ;    H12 - C15   
    33     37      1 ;    H12 - H13   
    33     38      1 ;    H12 - O9    
    33     40      1 ;    H12 - C18   
    34     37      1 ;     O8 - H13   
    34     38      1 ;     O8 - O9    
    34     40      1 ;     O8 - C18   
    35     36      1 ;    C15 - C16   
    36     43      1 ;    C16 - C19   
    36    193      1 ;    C16 - H81   
    36    194      1 ;    C16 - H82   
    36    195      1 ;    C16 - H83   
    37     39      1 ;    H13 - C17   
    37     41      1 ;    H13 - H14   
    37     42      1 ;    H13 - O10   
    38     41      1 ;     O9 - H14   
    38     42      1 ;     O9 - O10   
    39     40      1 ;    C17 - C18   
    40     44      1 ;    C18 - H15   
    40     45      1 ;    C18 - O11   
    40     53      1 ;    C18 - C23   
    41     43      1 ;    H14 - C19   
    42     46      1 ;    O10 - C20   
    42     54      1 ;    O10 - H19   
    42     55      1 ;    O10 - O13   
    42     57      1 ;    O10 - C25   
    43     47      1 ;    C19 - H16   
    43     48      1 ;    C19 - C21   
    43     56      1 ;    C19 - C24   
    43     58      1 ;    C19 - H20   
    43     59      1 ;    C19 - O14   
    43     61      1 ;    C19 - C27   
    44     46      1 ;    H15 - C20   
    44     54      1 ;    H15 - H19   
    44     55      1 ;    H15 - O13   
    44     57      1 ;    H15 - C25   
    45     49      1 ;    O11 - H17   
    45     50      1 ;    O11 - H18   
    45     51      1 ;    O11 - O12   
    45     54      1 ;    O11 - H19   
    45     55      1 ;    O11 - O13   
    45     57      1 ;    O11 - C25   
    45     62      1 ;    O11 - H21   
    45     63      1 ;    O11 - O15   
    46     52      1 ;    C20 - C22   
    46     53      1 ;    C20 - C23   
    46     58      1 ;    C20 - H20   
    46     59      1 ;    C20 - O14   
    46     64      1 ;    C20 - C28   
    47     49      1 ;    H16 - H17   
    47     50      1 ;    H16 - H18   
    47     51      1 ;    H16 - O12   
    47     57      1 ;    H16 - C25   
    47     62      1 ;    H16 - H21   
    47     63      1 ;    H16 - O15   
    48     57      1 ;    C21 - C25   
    48     62      1 ;    C21 - H21   
    48     63      1 ;    C21 - O15   
    48    187      1 ;    C21 - H75   
    48    188      1 ;    C21 - H76   
    48    189      1 ;    C21 - H77   
    49     52      1 ;    H17 - C22   
    49     61      1 ;    H17 - C27   
    50     52      1 ;    H18 - C22   
    50     61      1 ;    H18 - C27   
    51     61      1 ;    O12 - C27   
    53     60      1 ;    C23 - C26   
    53     62      1 ;    C23 - H21   
    53     63      1 ;    C23 - O15   
    53    238      1 ;    C23 - H126  
    53    239      1 ;    C23 - H127  
    53    240      1 ;    C23 - H128  
    54     56      1 ;    H19 - C24   
    54     58      1 ;    H19 - H20   
    54     59      1 ;    H19 - O14   
    54     61      1 ;    H19 - C27   
    55     58      1 ;    O13 - H20   
    55     59      1 ;    O13 - O14   
    55     61      1 ;    O13 - C27   
    56     57      1 ;    C24 - C25   
    57     64      1 ;    C25 - C28   
    57    235      1 ;    C25 - H123  
    57    236      1 ;    C25 - H124  
    57    237      1 ;    C25 - H125  
    58     60      1 ;    H20 - C26   
    58     62      1 ;    H20 - H21   
    58     63      1 ;    H20 - O15   
    59     62      1 ;    O14 - H21   
    59     63      1 ;    O14 - O15   
    60     61      1 ;    C26 - C27   
    61     65      1 ;    C27 - H22   
    61     66      1 ;    C27 - O16   
    61     74      1 ;    C27 - C32   
    62     64      1 ;    H21 - C28   
    63     67      1 ;    O15 - C29   
    63     75      1 ;    O15 - H26   
    63     76      1 ;    O15 - O18   
    63     78      1 ;    O15 - C34   
    64     68      1 ;    C28 - H23   
    64     69      1 ;    C28 - C30   
    64     77      1 ;    C28 - C33   
    64     79      1 ;    C28 - H27   
    64     80      1 ;    C28 - O19   
    64     82      1 ;    C28 - C36   
    65     67      1 ;    H22 - C29   
    65     75      1 ;    H22 - H26   
    65     76      1 ;    H22 - O18   
    65     78      1 ;    H22 - C34   
    66     70      1 ;    O16 - H24   
    66     71      1 ;    O16 - H25   
    66     72      1 ;    O16 - O17   
    66     75      1 ;    O16 - H26   
    66     76      1 ;    O16 - O18   
    66     78      1 ;    O16 - C34   
    66     83      1 ;    O16 - H28   
    66     84      1 ;    O16 - O20   
    67     73      1 ;    C29 - C31   
    67     74      1 ;    C29 - C32   
    67     79      1 ;    C29 - H27   
    67     80      1 ;    C29 - O19   
    67     85      1 ;    C29 - C37   
    68     70      1 ;    H23 - H24   
    68     71      1 ;    H23 - H25   
    68     72      1 ;    H23 - O17   
    68     78      1 ;    H23 - C34   
    68     83      1 ;    H23 - H28   
    68     84      1 ;    H23 - O20   
    69     78      1 ;    C30 - C34   
    69     83      1 ;    C30 - H28   
    69     84      1 ;    C30 - O20   
    69    184      1 ;    C30 - H72   
    69    185      1 ;    C30 - H73   
    69    186      1 ;    C30 - H74   
    70     73      1 ;    H24 - C31   
    70     82      1 ;    H24 - C36   
    71     73      1 ;    H25 - C31   
    71     82      1 ;    H25 - C36   
    72     82      1 ;    O17 - C36   
    74     81      1 ;    C32 - C35   
    74     83      1 ;    C32 - H28   
    74     84      1 ;    C32 - O20   
    74    232      1 ;    C32 - H120  
    74    233      1 ;    C32 - H121  
    74    234      1 ;    C32 - H122  
    75     77      1 ;    H26 - C33   
    75     79      1 ;    H26 - H27   
    75     80      1 ;    H26 - O19   
    75     82      1 ;    H26 - C36   
    76     79      1 ;    O18 - H27   
    76     80      1 ;    O18 - O19   
    76     82      1 ;    O18 - C36   
    77     78      1 ;    C33 - C34   
    78     85      1 ;    C34 - C37   
    78    229      1 ;    C34 - H117  
    78    230      1 ;    C34 - H118  
    78    231      1 ;    C34 - H119  
    79     81      1 ;    H27 - C35   
    79     83      1 ;    H27 - H28   
    79     84      1 ;    H27 - O20   
    80     83      1 ;    O19 - H28   
    80     84      1 ;    O19 - O20   
    81     82      1 ;    C35 - C36   
    82     86      1 ;    C36 - H29   
    82     87      1 ;    C36 - O21   
    82     95      1 ;    C36 - C41   
    83     85      1 ;    H28 - C37   
    84     88      1 ;    O20 - C38   
    84     96      1 ;    O20 - H33   
    84     97      1 ;    O20 - O23   
    84     99      1 ;    O20 - C43   
    85     89      1 ;    C37 - H30   
    85     90      1 ;    C37 - C39   
    85     98      1 ;    C37 - C42   
    85    100      1 ;    C37 - H34   
    85    101      1 ;    C37 - O24   
    85    103      1 ;    C37 - C45   
    86     88      1 ;    H29 - C38   
    86     96      1 ;    H29 - H33   
    86     97      1 ;    H29 - O23   
    86     99      1 ;    H29 - C43   
    87     91      1 ;    O21 - H31   
    87     92      1 ;    O21 - H32   
    87     93      1 ;    O21 - O22   
    87     96      1 ;    O21 - H33   
    87     97      1 ;    O21 - O23   
    87     99      1 ;    O21 - C43   
    87    104      1 ;    O21 - H35   
    87    105      1 ;    O21 - O25   
    88     94      1 ;    C38 - C40   
    88     95      1 ;    C38 - C41   
    88    100      1 ;    C38 - H34   
    88    101      1 ;    C38 - O24   
    88    106      1 ;    C38 - C46   
    89     91      1 ;    H30 - H31   
    89     92      1 ;    H30 - H32   
    89     93      1 ;    H30 - O22   
    89     99      1 ;    H30 - C43   
    89    104      1 ;    H30 - H35   
    89    105      1 ;    H30 - O25   
    90     99      1 ;    C39 - C43   
    90    104      1 ;    C39 - H35   
    90    105      1 ;    C39 - O25   
    90    181      1 ;    C39 - H69   
    90    182      1 ;    C39 - H70   
    90    183      1 ;    C39 - H71   
    91     94      1 ;    H31 - C40   
    91    103      1 ;    H31 - C45   
    92     94      1 ;    H32 - C40   
    92    103      1 ;    H32 - C45   
    93    103      1 ;    O22 - C45   
    95    102      1 ;    C41 - C44   
    95    104      1 ;    C41 - H35   
    95    105      1 ;    C41 - O25   
    95    226      1 ;    C41 - H114  
    95    227      1 ;    C41 - H115  
    95    228      1 ;    C41 - H116  
    96     98      1 ;    H33 - C42   
    96    100      1 ;    H33 - H34   
    96    101      1 ;    H33 - O24   
    96    103      1 ;    H33 - C45   
    97    100      1 ;    O23 - H34   
    97    101      1 ;    O23 - O24   
    97    103      1 ;    O23 - C45   
    98     99      1 ;    C42 - C43   
    99    106      1 ;    C43 - C46   
    99    223      1 ;    C43 - H111  
    99    224      1 ;    C43 - H112  
    99    225      1 ;    C43 - H113  
   100    102      1 ;    H34 - C44   
   100    104      1 ;    H34 - H35   
   100    105      1 ;    H34 - O25   
   101    104      1 ;    O24 - H35   
   101    105      1 ;    O24 - O25   
   102    103      1 ;    C44 - C45   
   103    107      1 ;    C45 - H36   
   103    108      1 ;    C45 - O26   
   103    116      1 ;    C45 - C50   
   104    106      1 ;    H35 - C46   
   105    109      1 ;    O25 - C47   
   105    117      1 ;    O25 - H40   
   105    118      1 ;    O25 - O28   
   105    120      1 ;    O25 - C52   
   106    110      1 ;    C46 - H37   
   106    111      1 ;    C46 - C48   
   106    119      1 ;    C46 - C51   
   106    121      1 ;    C46 - H41   
   106    122      1 ;    C46 - O29   
   106    124      1 ;    C46 - C54   
   107    109      1 ;    H36 - C47   
   107    117      1 ;    H36 - H40   
   107    118      1 ;    H36 - O28   
   107    120      1 ;    H36 - C52   
   108    112      1 ;    O26 - H38   
   108    113      1 ;    O26 - H39   
   108    114      1 ;    O26 - O27   
   108    117      1 ;    O26 - H40   
   108    118      1 ;    O26 - O28   
   108    120      1 ;    O26 - C52   
   108    125      1 ;    O26 - H42   
   108    126      1 ;    O26 - O30   
   109    115      1 ;    C47 - C49   
   109    116      1 ;    C47 - C50   
   109    121      1 ;    C47 - H41   
   109    122      1 ;    C47 - O29   
   109    127      1 ;    C47 - C55   
   110    112      1 ;    H37 - H38   
   110    113      1 ;    H37 - H39   
   110    114      1 ;    H37 - O27   
   110    120      1 ;    H37 - C52   
   110    125      1 ;    H37 - H42   
   110    126      1 ;    H37 - O30   
   111    120      1 ;    C48 - C52   
   111    125      1 ;    C48 - H42   
   111    126      1 ;    C48 - O30   
   111    178      1 ;    C48 - H66   
   111    179      1 ;    C48 - H67   
   111    180      1 ;    C48 - H68   
   112    115      1 ;    H38 - C49   
   112    124      1 ;    H38 - C54   
   113    115      1 ;    H39 - C49   
   113    124      1 ;    H39 - C54   
   114    124      1 ;    O27 - C54   
   116    123      1 ;    C50 - C53   
   116    125      1 ;    C50 - H42   
   116    126      1 ;    C50 - O30   
   116    220      1 ;    C50 - H108  
   116    221      1 ;    C50 - H109  
   116    222      1 ;    C50 - H110  
   117    119      1 ;    H40 - C51   
   117    121      1 ;    H40 - H41   
   117    122      1 ;    H40 - O29   
   117    124      1 ;    H40 - C54   
   118    121      1 ;    O28 - H41   
   118    122      1 ;    O28 - O29   
   118    124      1 ;    O28 - C54   
   119    120      1 ;    C51 - C52   
   120    127      1 ;    C52 - C55   
   120    217      1 ;    C52 - H105  
   120    218      1 ;    C52 - H106  
   120    219      1 ;    C52 - H107  
   121    123      1 ;    H41 - C53   
   121    125      1 ;    H41 - H42   
   121    126      1 ;    H41 - O30   
   122    125      1 ;    O29 - H42   
   122    126      1 ;    O29 - O30   
   123    124      1 ;    C53 - C54   
   124    128      1 ;    C54 - H43   
   124    129      1 ;    C54 - O31   
   124    137      1 ;    C54 - C59   
   125    127      1 ;    H42 - C55   
   126    130      1 ;    O30 - C56   
   126    138      1 ;    O30 - H47   
   126    139      1 ;    O30 - O33   
   126    141      1 ;    O30 - C61   
   127    131      1 ;    C55 - H44   
   127    132      1 ;    C55 - C57   
   127    140      1 ;    C55 - C60   
   127    142      1 ;    C55 - H48   
   127    143      1 ;    C55 - O34   
   127    145      1 ;    C55 - C63   
   128    130      1 ;    H43 - C56   
   128    138      1 ;    H43 - H47   
   128    139      1 ;    H43 - O33   
   128    141      1 ;    H43 - C61   
   129    133      1 ;    O31 - H45   
   129    134      1 ;    O31 - H46   
   129    135      1 ;    O31 - O32   
   129    138      1 ;    O31 - H47   
   129    139      1 ;    O31 - O33   
   129    141      1 ;    O31 - C61   
   129    146      1 ;    O31 - H49   
   129    147      1 ;    O31 - O35   
   130    136      1 ;    C56 - C58   
   130    137      1 ;    C56 - C59   
   130    142      1 ;    C56 - H48   
   130    143      1 ;    C56 - O34   
   130    148      1 ;    C56 - C64   
   131    133      1 ;    H44 - H45   
   131    134      1 ;    H44 - H46   
   131    135      1 ;    H44 - O32   
   131    141      1 ;    H44 - C61   
   131    146      1 ;    H44 - H49   
   131    147      1 ;    H44 - O35   
   132    141      1 ;    C57 - C61   
   132    146      1 ;    C57 - H49   
   132    147      1 ;    C57 - O35   
   132    175      1 ;    C57 - H63   
   132    176      1 ;    C57 - H64   
   132    177      1 ;    C57 - H65   
   133    136      1 ;    H45 - C58   
   133    145      1 ;    H45 - C63   
   134    136      1 ;    H46 - C58   
   134    145      1 ;    H46 - C63   
   135    145      1 ;    O32 - C63   
   137    144      1 ;    C59 - C62   
   137    146      1 ;    C59 - H49   
   137    147      1 ;    C59 - O35   
   137    214      1 ;    C59 - H102  
   137    215      1 ;    C59 - H103  
   137    216      1 ;    C59 - H104  
   138    140      1 ;    H47 - C60   
   138    142      1 ;    H47 - H48   
   138    143      1 ;    H47 - O34   
   138    145      1 ;    H47 - C63   
   139    142      1 ;    O33 - H48   
   139    143      1 ;    O33 - O34   
   139    145      1 ;    O33 - C63   
   140    141      1 ;    C60 - C61   
   141    148      1 ;    C61 - C64   
   141    211      1 ;    C61 - H99   
   141    212      1 ;    C61 - H100  
   141    213      1 ;    C61 - H101  
   142    144      1 ;    H48 - C62   
   142    146      1 ;    H48 - H49   
   142    147      1 ;    H48 - O35   
   143    146      1 ;    O34 - H49   
   143    147      1 ;    O34 - O35   
   144    145      1 ;    C62 - C63   
   145    149      1 ;    C63 - H50   
   145    150      1 ;    C63 - O36   
   145    158      1 ;    C63 - C68   
   146    148      1 ;    H49 - C64   
   147    151      1 ;    O35 - C65   
   147    159      1 ;    O35 - H54   
   147    160      1 ;    O35 - O38   
   147    162      1 ;    O35 - C70   
   148    152      1 ;    C64 - H51   
   148    153      1 ;    C64 - C66   
   148    161      1 ;    C64 - C69   
   148    163      1 ;    C64 - H55   
   148    164      1 ;    C64 - O39   
   148    166      1 ;    C64 - C72   
   149    151      1 ;    H50 - C65   
   149    159      1 ;    H50 - H54   
   149    160      1 ;    H50 - O38   
   149    162      1 ;    H50 - C70   
   150    154      1 ;    O36 - H52   
   150    155      1 ;    O36 - H53   
   150    156      1 ;    O36 - O37   
   150    159      1 ;    O36 - H54   
   150    160      1 ;    O36 - O38   
   150    162      1 ;    O36 - C70   
   150    167      1 ;    O36 - H56   
   150    168      1 ;    O36 - O40   
   151    157      1 ;    C65 - C67   
   151    158      1 ;    C65 - C68   
   151    163      1 ;    C65 - H55   
   151    164      1 ;    C65 - O39   
   152    154      1 ;    H51 - H52   
   152    155      1 ;    H51 - H53   
   152    156      1 ;    H51 - O37   
   152    162      1 ;    H51 - C70   
   152    167      1 ;    H51 - H56   
   152    168      1 ;    H51 - O40   
   153    162      1 ;    C66 - C70   
   153    167      1 ;    C66 - H56   
   153    168      1 ;    C66 - O40   
   153    172      1 ;    C66 - H60   
   153    173      1 ;    C66 - H61   
   153    174      1 ;    C66 - H62   
   154    157      1 ;    H52 - C67   
   154    166      1 ;    H52 - C72   
   155    157      1 ;    H53 - C67   
   155    166      1 ;    H53 - C72   
   156    166      1 ;    O37 - C72   
   158    165      1 ;    C68 - C71   
   158    167      1 ;    C68 - H56   
   158    168      1 ;    C68 - O40   
   158    208      1 ;    C68 - H96   
   158    209      1 ;    C68 - H97   
   158    210      1 ;    C68 - H98   
   159    161      1 ;    H54 - C69   
   159    163      1 ;    H54 - H55   
   159    164      1 ;    H54 - O39   
   159    166      1 ;    H54 - C72   
   160    163      1 ;    O38 - H55   
   160    164      1 ;    O38 - O39   
   160    166      1 ;    O38 - C72   
   161    162      1 ;    C69 - C70   
   162    205      1 ;    C70 - H93   
   162    206      1 ;    C70 - H94   
   162    207      1 ;    C70 - H95   
   163    165      1 ;    H55 - C71   
   163    167      1 ;    H55 - H56   
   163    168      1 ;    H55 - O40   
   164    167      1 ;    O39 - H56   
   164    168      1 ;    O39 - O40   
   165    166      1 ;    C71 - C72   
   168      4      1 ;    O40 - C2    
   168     12      1 ;    O40 - H5    
   168     13      1 ;    O40 - O3    
   168     15      1 ;    O40 - C7    

[ angles ]
;   ai     aj     ak    funct   theta         cth
     1      3      4      1    1.1248e+02    5.5480e+02 ;     C1 - O1     - C2    
     1     11     12      1    1.0956e+02    3.9246e+02 ;     C1 - C5     - H5    
     1     11     13      1    1.0797e+02    7.1379e+02 ;     C1 - C5     - O3    
     1     11     15      1    1.1151e+02    5.4308e+02 ;     C1 - C5     - C7    
     1    168    166      1    1.1248e+02    5.5480e+02 ;     C1 - O40    - C72   
     2      1      3      1    1.0958e+02    5.2216e+02 ;     H1 - C1     - O1    
     2      1     11      1    1.1022e+02    3.9079e+02 ;     H1 - C1     - C5    
     2      1    168      1    1.0958e+02    5.2216e+02 ;     H1 - C1     - O40   
     3      1     11      1    1.0797e+02    7.1379e+02 ;     O1 - C1     - C5    
     3      1    168      1    1.0829e+02    9.2801e+02 ;     O1 - C1     - O40   
     3      4      5      1    1.0978e+02    5.2216e+02 ;     O1 - C2     - H2    
     3      4      6      1    1.0797e+02    7.1379e+02 ;     O1 - C2     - C3    
     3      4     19      1    1.0797e+02    7.1379e+02 ;     O1 - C2     - C9    
     4      6      7      1    1.0956e+02    3.9246e+02 ;     C2 - C3     - H3    
     4      6      8      1    1.0956e+02    3.9246e+02 ;     C2 - C3     - H4    
     4      6      9      1    1.0797e+02    7.1379e+02 ;     C2 - C3     - O2    
     4     19     15      1    1.1151e+02    5.4308e+02 ;     C2 - C9     - C7    
     4     19     20      1    1.0956e+02    3.9246e+02 ;     C2 - C9     - H7    
     4     19     21      1    1.0797e+02    7.1379e+02 ;     C2 - C9     - O5    
     5      4      6      1    1.0956e+02    3.9246e+02 ;     H2 - C2     - C3    
     5      4     19      1    1.0956e+02    3.9246e+02 ;     H2 - C2     - C9    
     6      4     19      1    1.1151e+02    5.4308e+02 ;     C3 - C2     - C9    
     6      9     10      1    1.1248e+02    5.5480e+02 ;     C3 - O2     - C4    
     7      6      8      1    1.0846e+02    3.2468e+02 ;     H3 - C3     - H4    
     7      6      9      1    1.0978e+02    5.2216e+02 ;     H3 - C3     - O2    
     8      6      9      1    1.0978e+02    5.2216e+02 ;     H4 - C3     - O2    
     9     10    169      1    1.0978e+02    5.2216e+02 ;     O2 - C4     - H57   
     9     10    170      1    1.0978e+02    5.2216e+02 ;     O2 - C4     - H58   
     9     10    171      1    1.0978e+02    5.2216e+02 ;     O2 - C4     - H59   
    11      1    168      1    1.0797e+02    7.1379e+02 ;     C5 - C1     - O40   
    11     13     14      1    1.1248e+02    5.5480e+02 ;     C5 - O3     - C6    
    11     15     16      1    1.0956e+02    3.9246e+02 ;     C5 - C7     - H6    
    11     15     17      1    1.0797e+02    7.1379e+02 ;     C5 - C7     - O4    
    11     15     19      1    1.1151e+02    5.4308e+02 ;     C5 - C7     - C9    
    12     11     13      1    1.0978e+02    5.2216e+02 ;     H5 - C5     - O3    
    12     11     15      1    1.0956e+02    3.9246e+02 ;     H5 - C5     - C7    
    13     11     15      1    1.0797e+02    7.1379e+02 ;     O3 - C5     - C7    
    13     14    202      1    1.0978e+02    5.2216e+02 ;     O3 - C6     - H90   
    13     14    203      1    1.0978e+02    5.2216e+02 ;     O3 - C6     - H91   
    13     14    204      1    1.0978e+02    5.2216e+02 ;     O3 - C6     - H92   
    15     17     18      1    1.1248e+02    5.5480e+02 ;     C7 - O4     - C8    
    15     19     20      1    1.0956e+02    3.9246e+02 ;     C7 - C9     - H7    
    15     19     21      1    1.0797e+02    7.1379e+02 ;     C7 - C9     - O5    
    16     15     17      1    1.0978e+02    5.2216e+02 ;     H6 - C7     - O4    
    16     15     19      1    1.0956e+02    3.9246e+02 ;     H6 - C7     - C9    
    17     15     19      1    1.0797e+02    7.1379e+02 ;     O4 - C7     - C9    
    17     18    199      1    1.0978e+02    5.2216e+02 ;     O4 - C8     - H87   
    17     18    200      1    1.0978e+02    5.2216e+02 ;     O4 - C8     - H88   
    17     18    201      1    1.0978e+02    5.2216e+02 ;     O4 - C8     - H89   
    19     21     22      1    1.1248e+02    5.5480e+02 ;     C9 - O5     - C10   
    20     19     21      1    1.0978e+02    5.2216e+02 ;     H7 - C9     - O5    
    21     22     23      1    1.0958e+02    5.2216e+02 ;     O5 - C10    - H8    
    21     22     24      1    1.0829e+02    9.2801e+02 ;     O5 - C10    - O6    
    21     22     32      1    1.0797e+02    7.1379e+02 ;     O5 - C10    - C14   
    22     24     25      1    1.1248e+02    5.5480e+02 ;    C10 - O6     - C11   
    22     32     33      1    1.0956e+02    3.9246e+02 ;    C10 - C14    - H12   
    22     32     34      1    1.0797e+02    7.1379e+02 ;    C10 - C14    - O8    
    22     32     36      1    1.1151e+02    5.4308e+02 ;    C10 - C14    - C16   
    23     22     24      1    1.0958e+02    5.2216e+02 ;     H8 - C10    - O6    
    23     22     32      1    1.1022e+02    3.9079e+02 ;     H8 - C10    - C14   
    24     22     32      1    1.0797e+02    7.1379e+02 ;     O6 - C10    - C14   
    24     25     26      1    1.0978e+02    5.2216e+02 ;     O6 - C11    - H9    
    24     25     27      1    1.0797e+02    7.1379e+02 ;     O6 - C11    - C12   
    24     25     40      1    1.0797e+02    7.1379e+02 ;     O6 - C11    - C18   
    25     27     28      1    1.0956e+02    3.9246e+02 ;    C11 - C12    - H10   
    25     27     29      1    1.0956e+02    3.9246e+02 ;    C11 - C12    - H11   
    25     27     30      1    1.0797e+02    7.1379e+02 ;    C11 - C12    - O7    
    25     40     36      1    1.1151e+02    5.4308e+02 ;    C11 - C18    - C16   
    25     40     41      1    1.0956e+02    3.9246e+02 ;    C11 - C18    - H14   
    25     40     42      1    1.0797e+02    7.1379e+02 ;    C11 - C18    - O10   
    26     25     27      1    1.0956e+02    3.9246e+02 ;     H9 - C11    - C12   
    26     25     40      1    1.0956e+02    3.9246e+02 ;     H9 - C11    - C18   
    27     25     40      1    1.1151e+02    5.4308e+02 ;    C12 - C11    - C18   
    27     30     31      1    1.1248e+02    5.5480e+02 ;    C12 - O7     - C13   
    28     27     29      1    1.0846e+02    3.2468e+02 ;    H10 - C12    - H11   
    28     27     30      1    1.0978e+02    5.2216e+02 ;    H10 - C12    - O7    
    29     27     30      1    1.0978e+02    5.2216e+02 ;    H11 - C12    - O7    
    30     31    190      1    1.0978e+02    5.2216e+02 ;     O7 - C13    - H78   
    30     31    191      1    1.0978e+02    5.2216e+02 ;     O7 - C13    - H79   
    30     31    192      1    1.0978e+02    5.2216e+02 ;     O7 - C13    - H80   
    32     34     35      1    1.1248e+02    5.5480e+02 ;    C14 - O8     - C15   
    32     36     37      1    1.0956e+02    3.9246e+02 ;    C14 - C16    - H13   
    32     36     38      1    1.0797e+02    7.1379e+02 ;    C14 - C16    - O9    
    32     36     40      1    1.1151e+02    5.4308e+02 ;    C14 - C16    - C18   
    33     32     34      1    1.0978e+02    5.2216e+02 ;    H12 - C14    - O8    
    33     32     36      1    1.0956e+02    3.9246e+02 ;    H12 - C14    - C16   
    34     32     36      1    1.0797e+02    7.1379e+02 ;     O8 - C14    - C16   
    34     35    196      1    1.0978e+02    5.2216e+02 ;     O8 - C15    - H84   
    34     35    197      1    1.0978e+02    5.2216e+02 ;     O8 - C15    - H85   
    34     35    198      1    1.0978e+02    5.2216e+02 ;     O8 - C15    - H86   
    36     38     39      1    1.1248e+02    5.5480e+02 ;    C16 - O9     - C17   
    36     40     41      1    1.0956e+02    3.9246e+02 ;    C16 - C18    - H14   
    36     40     42      1    1.0797e+02    7.1379e+02 ;    C16 - C18    - O10   
    37     36     38      1    1.0978e+02    5.2216e+02 ;    H13 - C16    - O9    
    37     36     40      1    1.0956e+02    3.9246e+02 ;    H13 - C16    - C18   
    38     36     40      1    1.0797e+02    7.1379e+02 ;     O9 - C16    - C18   
    38     39    193      1    1.0978e+02    5.2216e+02 ;     O9 - C17    - H81   
    38     39    194      1    1.0978e+02    5.2216e+02 ;     O9 - C17    - H82   
    38     39    195      1    1.0978e+02    5.2216e+02 ;     O9 - C17    - H83   
    40     42     43      1    1.1248e+02    5.5480e+02 ;    C18 - O10    - C19   
    41     40     42      1    1.0978e+02    5.2216e+02 ;    H14 - C18    - O10   
    42     43     44      1    1.0958e+02    5.2216e+02 ;    O10 - C19    - H15   
    42     43     45      1    1.0829e+02    9.2801e+02 ;    O10 - C19    - O11   
    42     43     53      1    1.0797e+02    7.1379e+02 ;    O10 - C19    - C23   
    43     45     46      1    1.1248e+02    5.5480e+02 ;    C19 - O11    - C20   
    43     53     54      1    1.0956e+02    3.9246e+02 ;    C19 - C23    - H19   
    43     53     55      1    1.0797e+02    7.1379e+02 ;    C19 - C23    - O13   
    43     53     57      1    1.1151e+02    5.4308e+02 ;    C19 - C23    - C25   
    44     43     45      1    1.0958e+02    5.2216e+02 ;    H15 - C19    - O11   
    44     43     53      1    1.1022e+02    3.9079e+02 ;    H15 - C19    - C23   
    45     43     53      1    1.0797e+02    7.1379e+02 ;    O11 - C19    - C23   
    45     46     47      1    1.0978e+02    5.2216e+02 ;    O11 - C20    - H16   
    45     46     48      1    1.0797e+02    7.1379e+02 ;    O11 - C20    - C21   
    45     46     61      1    1.0797e+02    7.1379e+02 ;    O11 - C20    - C27   
    46     48     49      1    1.0956e+02    3.9246e+02 ;    C20 - C21    - H17   
    46     48     50      1    1.0956e+02    3.9246e+02 ;    C20 - C21    - H18   
    46     48     51      1    1.0797e+02    7.1379e+02 ;    C20 - C21    - O12   
    46     61     57      1    1.1151e+02    5.4308e+02 ;    C20 - C27    - C25   
    46     61     62      1    1.0956e+02    3.9246e+02 ;    C20 - C27    - H21   
    46     61     63      1    1.0797e+02    7.1379e+02 ;    C20 - C27    - O15   
    47     46     48      1    1.0956e+02    3.9246e+02 ;    H16 - C20    - C21   
    47     46     61      1    1.0956e+02    3.9246e+02 ;    H16 - C20    - C27   
    48     46     61      1    1.1151e+02    5.4308e+02 ;    C21 - C20    - C27   
    48     51     52      1    1.1248e+02    5.5480e+02 ;    C21 - O12    - C22   
    49     48     50      1    1.0846e+02    3.2468e+02 ;    H17 - C21    - H18   
    49     48     51      1    1.0978e+02    5.2216e+02 ;    H17 - C21    - O12   
    50     48     51      1    1.0978e+02    5.2216e+02 ;    H18 - C21    - O12   
    51     52    187      1    1.0978e+02    5.2216e+02 ;    O12 - C22    - H75   
    51     52    188      1    1.0978e+02    5.2216e+02 ;    O12 - C22    - H76   
    51     52    189      1    1.0978e+02    5.2216e+02 ;    O12 - C22    - H77   
    53     55     56      1    1.1248e+02    5.5480e+02 ;    C23 - O13    - C24   
    53     57     58      1    1.0956e+02    3.9246e+02 ;    C23 - C25    - H20   
    53     57     59      1    1.0797e+02    7.1379e+02 ;    C23 - C25    - O14   
    53     57     61      1    1.1151e+02    5.4308e+02 ;    C23 - C25    - C27   
    54     53     55      1    1.0978e+02    5.2216e+02 ;    H19 - C23    - O13   
    54     53     57      1    1.0956e+02    3.9246e+02 ;    H19 - C23    - C25   
    55     53     57      1    1.0797e+02    7.1379e+02 ;    O13 - C23    - C25   
    55     56    238      1    1.0978e+02    5.2216e+02 ;    O13 - C24    - H126  
    55     56    239      1    1.0978e+02    5.2216e+02 ;    O13 - C24    - H127  
    55     56    240      1    1.0978e+02    5.2216e+02 ;    O13 - C24    - H128  
    57     59     60      1    1.1248e+02    5.5480e+02 ;    C25 - O14    - C26   
    57     61     62      1    1.0956e+02    3.9246e+02 ;    C25 - C27    - H21   
    57     61     63      1    1.0797e+02    7.1379e+02 ;    C25 - C27    - O15   
    58     57     59      1    1.0978e+02    5.2216e+02 ;    H20 - C25    - O14   
    58     57     61      1    1.0956e+02    3.9246e+02 ;    H20 - C25    - C27   
    59     57     61      1    1.0797e+02    7.1379e+02 ;    O14 - C25    - C27   
    59     60    235      1    1.0978e+02    5.2216e+02 ;    O14 - C26    - H123  
    59     60    236      1    1.0978e+02    5.2216e+02 ;    O14 - C26    - H124  
    59     60    237      1    1.0978e+02    5.2216e+02 ;    O14 - C26    - H125  
    61     63     64      1    1.1248e+02    5.5480e+02 ;    C27 - O15    - C28   
    62     61     63      1    1.0978e+02    5.2216e+02 ;    H21 - C27    - O15   
    63     64     65      1    1.0958e+02    5.2216e+02 ;    O15 - C28    - H22   
    63     64     66      1    1.0829e+02    9.2801e+02 ;    O15 - C28    - O16   
    63     64     74      1    1.0797e+02    7.1379e+02 ;    O15 - C28    - C32   
    64     66     67      1    1.1248e+02    5.5480e+02 ;    C28 - O16    - C29   
    64     74     75      1    1.0956e+02    3.9246e+02 ;    C28 - C32    - H26   
    64     74     76      1    1.0797e+02    7.1379e+02 ;    C28 - C32    - O18   
    64     74     78      1    1.1151e+02    5.4308e+02 ;    C28 - C32    - C34   
    65     64     66      1    1.0958e+02    5.2216e+02 ;    H22 - C28    - O16   
    65     64     74      1    1.1022e+02    3.9079e+02 ;    H22 - C28    - C32   
    66     64     74      1    1.0797e+02    7.1379e+02 ;    O16 - C28    - C32   
    66     67     68      1    1.0978e+02    5.2216e+02 ;    O16 - C29    - H23   
    66     67     69      1    1.0797e+02    7.1379e+02 ;    O16 - C29    - C30   
    66     67     82      1    1.0797e+02    7.1379e+02 ;    O16 - C29    - C36   
    67     69     70      1    1.0956e+02    3.9246e+02 ;    C29 - C30    - H24   
    67     69     71      1    1.0956e+02    3.9246e+02 ;    C29 - C30    - H25   
    67     69     72      1    1.0797e+02    7.1379e+02 ;    C29 - C30    - O17   
    67     82     78      1    1.1151e+02    5.4308e+02 ;    C29 - C36    - C34   
    67     82     83      1    1.0956e+02    3.9246e+02 ;    C29 - C36    - H28   
    67     82     84      1    1.0797e+02    7.1379e+02 ;    C29 - C36    - O20   
    68     67     69      1    1.0956e+02    3.9246e+02 ;    H23 - C29    - C30   
    68     67     82      1    1.0956e+02    3.9246e+02 ;    H23 - C29    - C36   
    69     67     82      1    1.1151e+02    5.4308e+02 ;    C30 - C29    - C36   
    69     72     73      1    1.1248e+02    5.5480e+02 ;    C30 - O17    - C31   
    70     69     71      1    1.0846e+02    3.2468e+02 ;    H24 - C30    - H25   
    70     69     72      1    1.0978e+02    5.2216e+02 ;    H24 - C30    - O17   
    71     69     72      1    1.0978e+02    5.2216e+02 ;    H25 - C30    - O17   
    72     73    184      1    1.0978e+02    5.2216e+02 ;    O17 - C31    - H72   
    72     73    185      1    1.0978e+02    5.2216e+02 ;    O17 - C31    - H73   
    72     73    186      1    1.0978e+02    5.2216e+02 ;    O17 - C31    - H74   
    74     76     77      1    1.1248e+02    5.5480e+02 ;    C32 - O18    - C33   
    74     78     79      1    1.0956e+02    3.9246e+02 ;    C32 - C34    - H27   
    74     78     80      1    1.0797e+02    7.1379e+02 ;    C32 - C34    - O19   
    74     78     82      1    1.1151e+02    5.4308e+02 ;    C32 - C34    - C36   
    75     74     76      1    1.0978e+02    5.2216e+02 ;    H26 - C32    - O18   
    75     74     78      1    1.0956e+02    3.9246e+02 ;    H26 - C32    - C34   
    76     74     78      1    1.0797e+02    7.1379e+02 ;    O18 - C32    - C34   
    76     77    232      1    1.0978e+02    5.2216e+02 ;    O18 - C33    - H120  
    76     77    233      1    1.0978e+02    5.2216e+02 ;    O18 - C33    - H121  
    76     77    234      1    1.0978e+02    5.2216e+02 ;    O18 - C33    - H122  
    78     80     81      1    1.1248e+02    5.5480e+02 ;    C34 - O19    - C35   
    78     82     83      1    1.0956e+02    3.9246e+02 ;    C34 - C36    - H28   
    78     82     84      1    1.0797e+02    7.1379e+02 ;    C34 - C36    - O20   
    79     78     80      1    1.0978e+02    5.2216e+02 ;    H27 - C34    - O19   
    79     78     82      1    1.0956e+02    3.9246e+02 ;    H27 - C34    - C36   
    80     78     82      1    1.0797e+02    7.1379e+02 ;    O19 - C34    - C36   
    80     81    229      1    1.0978e+02    5.2216e+02 ;    O19 - C35    - H117  
    80     81    230      1    1.0978e+02    5.2216e+02 ;    O19 - C35    - H118  
    80     81    231      1    1.0978e+02    5.2216e+02 ;    O19 - C35    - H119  
    82     84     85      1    1.1248e+02    5.5480e+02 ;    C36 - O20    - C37   
    83     82     84      1    1.0978e+02    5.2216e+02 ;    H28 - C36    - O20   
    84     85     86      1    1.0958e+02    5.2216e+02 ;    O20 - C37    - H29   
    84     85     87      1    1.0829e+02    9.2801e+02 ;    O20 - C37    - O21   
    84     85     95      1    1.0797e+02    7.1379e+02 ;    O20 - C37    - C41   
    85     87     88      1    1.1248e+02    5.5480e+02 ;    C37 - O21    - C38   
    85     95     96      1    1.0956e+02    3.9246e+02 ;    C37 - C41    - H33   
    85     95     97      1    1.0797e+02    7.1379e+02 ;    C37 - C41    - O23   
    85     95     99      1    1.1151e+02    5.4308e+02 ;    C37 - C41    - C43   
    86     85     87      1    1.0958e+02    5.2216e+02 ;    H29 - C37    - O21   
    86     85     95      1    1.1022e+02    3.9079e+02 ;    H29 - C37    - C41   
    87     85     95      1    1.0797e+02    7.1379e+02 ;    O21 - C37    - C41   
    87     88     89      1    1.0978e+02    5.2216e+02 ;    O21 - C38    - H30   
    87     88     90      1    1.0797e+02    7.1379e+02 ;    O21 - C38    - C39   
    87     88    103      1    1.0797e+02    7.1379e+02 ;    O21 - C38    - C45   
    88     90     91      1    1.0956e+02    3.9246e+02 ;    C38 - C39    - H31   
    88     90     92      1    1.0956e+02    3.9246e+02 ;    C38 - C39    - H32   
    88     90     93      1    1.0797e+02    7.1379e+02 ;    C38 - C39    - O22   
    88    103     99      1    1.1151e+02    5.4308e+02 ;    C38 - C45    - C43   
    88    103    104      1    1.0956e+02    3.9246e+02 ;    C38 - C45    - H35   
    88    103    105      1    1.0797e+02    7.1379e+02 ;    C38 - C45    - O25   
    89     88     90      1    1.0956e+02    3.9246e+02 ;    H30 - C38    - C39   
    89     88    103      1    1.0956e+02    3.9246e+02 ;    H30 - C38    - C45   
    90     88    103      1    1.1151e+02    5.4308e+02 ;    C39 - C38    - C45   
    90     93     94      1    1.1248e+02    5.5480e+02 ;    C39 - O22    - C40   
    91     90     92      1    1.0846e+02    3.2468e+02 ;    H31 - C39    - H32   
    91     90     93      1    1.0978e+02    5.2216e+02 ;    H31 - C39    - O22   
    92     90     93      1    1.0978e+02    5.2216e+02 ;    H32 - C39    - O22   
    93     94    181      1    1.0978e+02    5.2216e+02 ;    O22 - C40    - H69   
    93     94    182      1    1.0978e+02    5.2216e+02 ;    O22 - C40    - H70   
    93     94    183      1    1.0978e+02    5.2216e+02 ;    O22 - C40    - H71   
    95     97     98      1    1.1248e+02    5.5480e+02 ;    C41 - O23    - C42   
    95     99    100      1    1.0956e+02    3.9246e+02 ;    C41 - C43    - H34   
    95     99    101      1    1.0797e+02    7.1379e+02 ;    C41 - C43    - O24   
    95     99    103      1    1.1151e+02    5.4308e+02 ;    C41 - C43    - C45   
    96     95     97      1    1.0978e+02    5.2216e+02 ;    H33 - C41    - O23   
    96     95     99      1    1.0956e+02    3.9246e+02 ;    H33 - C41    - C43   
    97     95     99      1    1.0797e+02    7.1379e+02 ;    O23 - C41    - C43   
    97     98    226      1    1.0978e+02    5.2216e+02 ;    O23 - C42    - H114  
    97     98    227      1    1.0978e+02    5.2216e+02 ;    O23 - C42    - H115  
    97     98    228      1    1.0978e+02    5.2216e+02 ;    O23 - C42    - H116  
    99    101    102      1    1.1248e+02    5.5480e+02 ;    C43 - O24    - C44   
    99    103    104      1    1.0956e+02    3.9246e+02 ;    C43 - C45    - H35   
    99    103    105      1    1.0797e+02    7.1379e+02 ;    C43 - C45    - O25   
   100     99    101      1    1.0978e+02    5.2216e+02 ;    H34 - C43    - O24   
   100     99    103      1    1.0956e+02    3.9246e+02 ;    H34 - C43    - C45   
   101     99    103      1    1.0797e+02    7.1379e+02 ;    O24 - C43    - C45   
   101    102    223      1    1.0978e+02    5.2216e+02 ;    O24 - C44    - H111  
   101    102    224      1    1.0978e+02    5.2216e+02 ;    O24 - C44    - H112  
   101    102    225      1    1.0978e+02    5.2216e+02 ;    O24 - C44    - H113  
   103    105    106      1    1.1248e+02    5.5480e+02 ;    C45 - O25    - C46   
   104    103    105      1    1.0978e+02    5.2216e+02 ;    H35 - C45    - O25   
   105    106    107      1    1.0958e+02    5.2216e+02 ;    O25 - C46    - H36   
   105    106    108      1    1.0829e+02    9.2801e+02 ;    O25 - C46    - O26   
   105    106    116      1    1.0797e+02    7.1379e+02 ;    O25 - C46    - C50   
   106    108    109      1    1.1248e+02    5.5480e+02 ;    C46 - O26    - C47   
   106    116    117      1    1.0956e+02    3.9246e+02 ;    C46 - C50    - H40   
   106    116    118      1    1.0797e+02    7.1379e+02 ;    C46 - C50    - O28   
   106    116    120      1    1.1151e+02    5.4308e+02 ;    C46 - C50    - C52   
   107    106    108      1    1.0958e+02    5.2216e+02 ;    H36 - C46    - O26   
   107    106    116      1    1.1022e+02    3.9079e+02 ;    H36 - C46    - C50   
   108    106    116      1    1.0797e+02    7.1379e+02 ;    O26 - C46    - C50   
   108    109    110      1    1.0978e+02    5.2216e+02 ;    O26 - C47    - H37   
   108    109    111      1    1.0797e+02    7.1379e+02 ;    O26 - C47    - C48   
   108    109    124      1    1.0797e+02    7.1379e+02 ;    O26 - C47    - C54   
   109    111    112      1    1.0956e+02    3.9246e+02 ;    C47 - C48    - H38   
   109    111    113      1    1.0956e+02    3.9246e+02 ;    C47 - C48    - H39   
   109    111    114      1    1.0797e+02    7.1379e+02 ;    C47 - C48    - O27   
   109    124    120      1    1.1151e+02    5.4308e+02 ;    C47 - C54    - C52   
   109    124    125      1    1.0956e+02    3.9246e+02 ;    C47 - C54    - H42   
   109    124    126      1    1.0797e+02    7.1379e+02 ;    C47 - C54    - O30   
   110    109    111      1    1.0956e+02    3.9246e+02 ;    H37 - C47    - C48   
   110    109    124      1    1.0956e+02    3.9246e+02 ;    H37 - C47    - C54   
   111    109    124      1    1.1151e+02    5.4308e+02 ;    C48 - C47    - C54   
   111    114    115      1    1.1248e+02    5.5480e+02 ;    C48 - O27    - C49   
   112    111    113      1    1.0846e+02    3.2468e+02 ;    H38 - C48    - H39   
   112    111    114      1    1.0978e+02    5.2216e+02 ;    H38 - C48    - O27   
   113    111    114      1    1.0978e+02    5.2216e+02 ;    H39 - C48    - O27   
   114    115    178      1    1.0978e+02    5.2216e+02 ;    O27 - C49    - H66   
   114    115    179      1    1.0978e+02    5.2216e+02 ;    O27 - C49    - H67   
   114    115    180      1    1.0978e+02    5.2216e+02 ;    O27 - C49    - H68   
   116    118    119      1    1.1248e+02    5.5480e+02 ;    C50 - O28    - C51   
   116    120    121      1    1.0956e+02    3.9246e+02 ;    C50 - C52    - H41   
   116    120    122      1    1.0797e+02    7.1379e+02 ;    C50 - C52    - O29   
   116    120    124      1    1.1151e+02    5.4308e+02 ;    C50 - C52    - C54   
   117    116    118      1    1.0978e+02    5.2216e+02 ;    H40 - C50    - O28   
   117    116    120      1    1.0956e+02    3.9246e+02 ;    H40 - C50    - C52   
   118    116    120      1    1.0797e+02    7.1379e+02 ;    O28 - C50    - C52   
   118    119    220      1    1.0978e+02    5.2216e+02 ;    O28 - C51    - H108  
   118    119    221      1    1.0978e+02    5.2216e+02 ;    O28 - C51    - H109  
   118    119    222      1    1.0978e+02    5.2216e+02 ;    O28 - C51    - H110  
   120    122    123      1    1.1248e+02    5.5480e+02 ;    C52 - O29    - C53   
   120    124    125      1    1.0956e+02    3.9246e+02 ;    C52 - C54    - H42   
   120    124    126      1    1.0797e+02    7.1379e+02 ;    C52 - C54    - O30   
   121    120    122      1    1.0978e+02    5.2216e+02 ;    H41 - C52    - O29   
   121    120    124      1    1.0956e+02    3.9246e+02 ;    H41 - C52    - C54   
   122    120    124      1    1.0797e+02    7.1379e+02 ;    O29 - C52    - C54   
   122    123    217      1    1.0978e+02    5.2216e+02 ;    O29 - C53    - H105  
   122    123    218      1    1.0978e+02    5.2216e+02 ;    O29 - C53    - H106  
   122    123    219      1    1.0978e+02    5.2216e+02 ;    O29 - C53    - H107  
   124    126    127      1    1.1248e+02    5.5480e+02 ;    C54 - O30    - C55   
   125    124    126      1    1.0978e+02    5.2216e+02 ;    H42 - C54    - O30   
   126    127    128      1    1.0958e+02    5.2216e+02 ;    O30 - C55    - H43   
   126    127    129      1    1.0829e+02    9.2801e+02 ;    O30 - C55    - O31   
   126    127    137      1    1.0797e+02    7.1379e+02 ;    O30 - C55    - C59   
   127    129    130      1    1.1248e+02    5.5480e+02 ;    C55 - O31    - C56   
   127    137    138      1    1.0956e+02    3.9246e+02 ;    C55 - C59    - H47   
   127    137    139      1    1.0797e+02    7.1379e+02 ;    C55 - C59    - O33   
   127    137    141      1    1.1151e+02    5.4308e+02 ;    C55 - C59    - C61   
   128    127    129      1    1.0958e+02    5.2216e+02 ;    H43 - C55    - O31   
   128    127    137      1    1.1022e+02    3.9079e+02 ;    H43 - C55    - C59   
   129    127    137      1    1.0797e+02    7.1379e+02 ;    O31 - C55    - C59   
   129    130    131      1    1.0978e+02    5.2216e+02 ;    O31 - C56    - H44   
   129    130    132      1    1.0797e+02    7.1379e+02 ;    O31 - C56    - C57   
   129    130    145      1    1.0797e+02    7.1379e+02 ;    O31 - C56    - C63   
   130    132    133      1    1.0956e+02    3.9246e+02 ;    C56 - C57    - H45   
   130    132    134      1    1.0956e+02    3.9246e+02 ;    C56 - C57    - H46   
   130    132    135      1    1.0797e+02    7.1379e+02 ;    C56 - C57    - O32   
   130    145    141      1    1.1151e+02    5.4308e+02 ;    C56 - C63    - C61   
   130    145    146      1    1.0956e+02    3.9246e+02 ;    C56 - C63    - H49   
   130    145    147      1    1.0797e+02    7.1379e+02 ;    C56 - C63    - O35   
   131    130    132      1    1.0956e+02    3.9246e+02 ;    H44 - C56    - C57   
   131    130    145      1    1.0956e+02    3.9246e+02 ;    H44 - C56    - C63   
   132    130    145      1    1.1151e+02    5.4308e+02 ;    C57 - C56    - C63   
   132    135    136      1    1.1248e+02    5.5480e+02 ;    C57 - O32    - C58   
   133    132    134      1    1.0846e+02    3.2468e+02 ;    H45 - C57    - H46   
   133    132    135      1    1.0978e+02    5.2216e+02 ;    H45 - C57    - O32   
   134    132    135      1    1.0978e+02    5.2216e+02 ;    H46 - C57    - O32   
   135    136    175      1    1.0978e+02    5.2216e+02 ;    O32 - C58    - H63   
   135    136    176      1    1.0978e+02    5.2216e+02 ;    O32 - C58    - H64   
   135    136    177      1    1.0978e+02    5.2216e+02 ;    O32 - C58    - H65   
   137    139    140      1    1.1248e+02    5.5480e+02 ;    C59 - O33    - C60   
   137    141    142      1    1.0956e+02    3.9246e+02 ;    C59 - C61    - H48   
   137    141    143      1    1.0797e+02    7.1379e+02 ;    C59 - C61    - O34   
   137    141    145      1    1.1151e+02    5.4308e+02 ;    C59 - C61    - C63   
   138    137    139      1    1.0978e+02    5.2216e+02 ;    H47 - C59    - O33   
   138    137    141      1    1.0956e+02    3.9246e+02 ;    H47 - C59    - C61   
   139    137    141      1    1.0797e+02    7.1379e+02 ;    O33 - C59    - C61   
   139    140    214      1    1.0978e+02    5.2216e+02 ;    O33 - C60    - H102  
   139    140    215      1    1.0978e+02    5.2216e+02 ;    O33 - C60    - H103  
   139    140    216      1    1.0978e+02    5.2216e+02 ;    O33 - C60    - H104  
   141    143    144      1    1.1248e+02    5.5480e+02 ;    C61 - O34    - C62   
   141    145    146      1    1.0956e+02    3.9246e+02 ;    C61 - C63    - H49   
   141    145    147      1    1.0797e+02    7.1379e+02 ;    C61 - C63    - O35   
   142    141    143      1    1.0978e+02    5.2216e+02 ;    H48 - C61    - O34   
   142    141    145      1    1.0956e+02    3.9246e+02 ;    H48 - C61    - C63   
   143    141    145      1    1.0797e+02    7.1379e+02 ;    O34 - C61    - C63   
   143    144    211      1    1.0978e+02    5.2216e+02 ;    O34 - C62    - H99   
   143    144    212      1    1.0978e+02    5.2216e+02 ;    O34 - C62    - H100  
   143    144    213      1    1.0978e+02    5.2216e+02 ;    O34 - C62    - H101  
   145    147    148      1    1.1248e+02    5.5480e+02 ;    C63 - O35    - C64   
   146    145    147      1    1.0978e+02    5.2216e+02 ;    H49 - C63    - O35   
   147    148    149      1    1.0958e+02    5.2216e+02 ;    O35 - C64    - H50   
   147    148    150      1    1.0829e+02    9.2801e+02 ;    O35 - C64    - O36   
   147    148    158      1    1.0797e+02    7.1379e+02 ;    O35 - C64    - C68   
   148    150    151      1    1.1248e+02    5.5480e+02 ;    C64 - O36    - C65   
   148    158    159      1    1.0956e+02    3.9246e+02 ;    C64 - C68    - H54   
   148    158    160      1    1.0797e+02    7.1379e+02 ;    C64 - C68    - O38   
   148    158    162      1    1.1151e+02    5.4308e+02 ;    C64 - C68    - C70   
   149    148    150      1    1.0958e+02    5.2216e+02 ;    H50 - C64    - O36   
   149    148    158      1    1.1022e+02    3.9079e+02 ;    H50 - C64    - C68   
   150    148    158      1    1.0797e+02    7.1379e+02 ;    O36 - C64    - C68   
   150    151    152      1    1.0978e+02    5.2216e+02 ;    O36 - C65    - H51   
   150    151    153      1    1.0797e+02    7.1379e+02 ;    O36 - C65    - C66   
   150    151    166      1    1.0797e+02    7.1379e+02 ;    O36 - C65    - C72   
   151    153    154      1    1.0956e+02    3.9246e+02 ;    C65 - C66    - H52   
   151    153    155      1    1.0956e+02    3.9246e+02 ;    C65 - C66    - H53   
   151    153    156      1    1.0797e+02    7.1379e+02 ;    C65 - C66    - O37   
   151    166    162      1    1.1151e+02    5.4308e+02 ;    C65 - C72    - C70   
   151    166    167      1    1.0956e+02    3.9246e+02 ;    C65 - C72    - H56   
   151    166    168      1    1.0797e+02    7.1379e+02 ;    C65 - C72    - O40   
   152    151    153      1    1.0956e+02    3.9246e+02 ;    H51 - C65    - C66   
   152    151    166      1    1.0956e+02    3.9246e+02 ;    H51 - C65    - C72   
   153    151    166      1    1.1151e+02    5.4308e+02 ;    C66 - C65    - C72   
   153    156    157      1    1.1248e+02    5.5480e+02 ;    C66 - O37    - C67   
   154    153    155      1    1.0846e+02    3.2468e+02 ;    H52 - C66    - H53   
   154    153    156      1    1.0978e+02    5.2216e+02 ;    H52 - C66    - O37   
   155    153    156      1    1.0978e+02    5.2216e+02 ;    H53 - C66    - O37   
   156    157    172      1    1.0978e+02    5.2216e+02 ;    O37 - C67    - H60   
   156    157    173      1    1.0978e+02    5.2216e+02 ;    O37 - C67    - H61   
   156    157    174      1    1.0978e+02    5.2216e+02 ;    O37 - C67    - H62   
   158    160    161      1    1.1248e+02    5.5480e+02 ;    C68 - O38    - C69   
   158    162    163      1    1.0956e+02    3.9246e+02 ;    C68 - C70    - H55   
   158    162    164      1    1.0797e+02    7.1379e+02 ;    C68 - C70    - O39   
   158    162    166      1    1.1151e+02    5.4308e+02 ;    C68 - C70    - C72   
   159    158    160      1    1.0978e+02    5.2216e+02 ;    H54 - C68    - O38   
   159    158    162      1    1.0956e+02    3.9246e+02 ;    H54 - C68    - C70   
   160    158    162      1    1.0797e+02    7.1379e+02 ;    O38 - C68    - C70   
   160    161    208      1    1.0978e+02    5.2216e+02 ;    O38 - C69    - H96   
   160    161    209      1    1.0978e+02    5.2216e+02 ;    O38 - C69    - H97   
   160    161    210      1    1.0978e+02    5.2216e+02 ;    O38 - C69    - H98   
   162    164    165      1    1.1248e+02    5.5480e+02 ;    C70 - O39    - C71   
   162    166    167      1    1.0956e+02    3.9246e+02 ;    C70 - C72    - H56   
   162    166    168      1    1.0797e+02    7.1379e+02 ;    C70 - C72    - O40   
   163    162    164      1    1.0978e+02    5.2216e+02 ;    H55 - C70    - O39   
   163    162    166      1    1.0956e+02    3.9246e+02 ;    H55 - C70    - C72   
   164    162    166      1    1.0797e+02    7.1379e+02 ;    O39 - C70    - C72   
   164    165    205      1    1.0978e+02    5.2216e+02 ;    O39 - C71    - H93   
   164    165    206      1    1.0978e+02    5.2216e+02 ;    O39 - C71    - H94   
   164    165    207      1    1.0978e+02    5.2216e+02 ;    O39 - C71    - H95   
   167    166    168      1    1.0978e+02    5.2216e+02 ;    H56 - C72    - O40   
   169     10    170      1    1.0846e+02    3.2468e+02 ;    H57 - C4     - H58   
   169     10    171      1    1.0846e+02    3.2468e+02 ;    H57 - C4     - H59   
   170     10    171      1    1.0846e+02    3.2468e+02 ;    H58 - C4     - H59   
   172    157    173      1    1.0846e+02    3.2468e+02 ;    H60 - C67    - H61   
   172    157    174      1    1.0846e+02    3.2468e+02 ;    H60 - C67    - H62   
   173    157    174      1    1.0846e+02    3.2468e+02 ;    H61 - C67    - H62   
   175    136    176      1    1.0846e+02    3.2468e+02 ;    H63 - C58    - H64   
   175    136    177      1    1.0846e+02    3.2468e+02 ;    H63 - C58    - H65   
   176    136    177      1    1.0846e+02    3.2468e+02 ;    H64 - C58    - H65   
   178    115    179      1    1.0846e+02    3.2468e+02 ;    H66 - C49    - H67   
   178    115    180      1    1.0846e+02    3.2468e+02 ;    H66 - C49    - H68   
   179    115    180      1    1.0846e+02    3.2468e+02 ;    H67 - C49    - H68   
   181     94    182      1    1.0846e+02    3.2468e+02 ;    H69 - C40    - H70   
   181     94    183      1    1.0846e+02    3.2468e+02 ;    H69 - C40    - H71   
   182     94    183      1    1.0846e+02    3.2468e+02 ;    H70 - C40    - H71   
   184     73    185      1    1.0846e+02    3.2468e+02 ;    H72 - C31    - H73   
   184     73    186      1    1.0846e+02    3.2468e+02 ;    H72 - C31    - H74   
   185     73    186      1    1.0846e+02    3.2468e+02 ;    H73 - C31    - H74   
   187     52    188      1    1.0846e+02    3.2468e+02 ;    H75 - C22    - H76   
   187     52    189      1    1.0846e+02    3.2468e+02 ;    H75 - C22    - H77   
   188     52    189      1    1.0846e+02    3.2468e+02 ;    H76 - C22    - H77   
   190     31    191      1    1.0846e+02    3.2468e+02 ;    H78 - C13    - H79   
   190     31    192      1    1.0846e+02    3.2468e+02 ;    H78 - C13    - H80   
   191     31    192      1    1.0846e+02    3.2468e+02 ;    H79 - C13    - H80   
   193     39    194      1    1.0846e+02    3.2468e+02 ;    H81 - C17    - H82   
   193     39    195      1    1.0846e+02    3.2468e+02 ;    H81 - C17    - H83   
   194     39    195      1    1.0846e+02    3.2468e+02 ;    H82 - C17    - H83   
   196     35    197      1    1.0846e+02    3.2468e+02 ;    H84 - C15    - H85   
   196     35    198      1    1.0846e+02    3.2468e+02 ;    H84 - C15    - H86   
   197     35    198      1    1.0846e+02    3.2468e+02 ;    H85 - C15    - H86   
   199     18    200      1    1.0846e+02    3.2468e+02 ;    H87 - C8     - H88   
   199     18    201      1    1.0846e+02    3.2468e+02 ;    H87 - C8     - H89   
   200     18    201      1    1.0846e+02    3.2468e+02 ;    H88 - C8     - H89   
   202     14    203      1    1.0846e+02    3.2468e+02 ;    H90 - C6     - H91   
   202     14    204      1    1.0846e+02    3.2468e+02 ;    H90 - C6     - H92   
   203     14    204      1    1.0846e+02    3.2468e+02 ;    H91 - C6     - H92   
   205    165    206      1    1.0846e+02    3.2468e+02 ;    H93 - C71    - H94   
   205    165    207      1    1.0846e+02    3.2468e+02 ;    H93 - C71    - H95   
   206    165    207      1    1.0846e+02    3.2468e+02 ;    H94 - C71    - H95   
   208    161    209      1    1.0846e+02    3.2468e+02 ;    H96 - C69    - H97   
   208    161    210      1    1.0846e+02    3.2468e+02 ;    H96 - C69    - H98   
   209    161    210      1    1.0846e+02    3.2468e+02 ;    H97 - C69    - H98   
   211    144    212      1    1.0846e+02    3.2468e+02 ;    H99 - C62    - H100  
   211    144    213      1    1.0846e+02    3.2468e+02 ;    H99 - C62    - H101  
   212    144    213      1    1.0846e+02    3.2468e+02 ;   H100 - C62    - H101  
   214    140    215      1    1.0846e+02    3.2468e+02 ;   H102 - C60    - H103  
   214    140    216      1    1.0846e+02    3.2468e+02 ;   H102 - C60    - H104  
   215    140    216      1    1.0846e+02    3.2468e+02 ;   H103 - C60    - H104  
   217    123    218      1    1.0846e+02    3.2468e+02 ;   H105 - C53    - H106  
   217    123    219      1    1.0846e+02    3.2468e+02 ;   H105 - C53    - H107  
   218    123    219      1    1.0846e+02    3.2468e+02 ;   H106 - C53    - H107  
   220    119    221      1    1.0846e+02    3.2468e+02 ;   H108 - C51    - H109  
   220    119    222      1    1.0846e+02    3.2468e+02 ;   H108 - C51    - H110  
   221    119    222      1    1.0846e+02    3.2468e+02 ;   H109 - C51    - H110  
   223    102    224      1    1.0846e+02    3.2468e+02 ;   H111 - C44    - H112  
   223    102    225      1    1.0846e+02    3.2468e+02 ;   H111 - C44    - H113  
   224    102    225      1    1.0846e+02    3.2468e+02 ;   H112 - C44    - H113  
   226     98    227      1    1.0846e+02    3.2468e+02 ;   H114 - C42    - H115  
   226     98    228      1    1.0846e+02    3.2468e+02 ;   H114 - C42    - H116  
   227     98    228      1    1.0846e+02    3.2468e+02 ;   H115 - C42    - H116  
   229     81    230      1    1.0846e+02    3.2468e+02 ;   H117 - C35    - H118  
   229     81    231      1    1.0846e+02    3.2468e+02 ;   H117 - C35    - H119  
   230     81    231      1    1.0846e+02    3.2468e+02 ;   H118 - C35    - H119  
   232     77    233      1    1.0846e+02    3.2468e+02 ;   H120 - C33    - H121  
   232     77    234      1    1.0846e+02    3.2468e+02 ;   H120 - C33    - H122  
   233     77    234      1    1.0846e+02    3.2468e+02 ;   H121 - C33    - H122  
   235     60    236      1    1.0846e+02    3.2468e+02 ;   H123 - C26    - H124  
   235     60    237      1    1.0846e+02    3.2468e+02 ;   H123 - C26    - H125  
   236     60    237      1    1.0846e+02    3.2468e+02 ;   H124 - C26    - H125  
   238     56    239      1    1.0846e+02    3.2468e+02 ;   H126 - C24    - H127  
   238     56    240      1    1.0846e+02    3.2468e+02 ;   H126 - C24    - H128  
   239     56    240      1    1.0846e+02    3.2468e+02 ;   H127 - C24    - H128  

[ dihedrals ] ; propers
; for gromacs 4.5 or higher, using funct 9
;    i      j      k      l   func   phase     kd      pn
     1      3      4      5      9     0.00   1.41001   3 ;     C1-    O1-    C2-    H2
     1      3      4      6      9     0.00   0.00000   0 ;     C1-    O1-    C2-    C3
     1      3      4      6      9     0.00   0.66944   2 ;     C1-    O1-    C2-    C3
     1      3      4      6      9     0.00   1.00416   3 ;     C1-    O1-    C2-    C3
     1      3      4     19      9     0.00   0.00000   0 ;     C1-    O1-    C2-    C9
     1      3      4     19      9     0.00   0.66944   2 ;     C1-    O1-    C2-    C9
     1      3      4     19      9     0.00   1.00416   3 ;     C1-    O1-    C2-    C9
     1     11     13     14      9     0.00   0.00000   0 ;     C1-    C5-    O3-    C6
     1     11     13     14      9     0.00   0.66944   2 ;     C1-    C5-    O3-    C6
     1     11     13     14      9     0.00   1.00416   3 ;     C1-    C5-    O3-    C6
     1     11     15     16      9     0.00   0.65084   3 ;     C1-    C5-    C7-    H6
     1     11     15     17      9     0.00   0.65084   3 ;     C1-    C5-    C7-    O4
     1     11     15     19      9     0.00   0.46024   1 ;     C1-    C5-    C7-    C9
     1     11     15     19      9     0.00   0.54392   3 ;     C1-    C5-    C7-    C9
     1     11     15     19      9   180.00   1.21336   2 ;     C1-    C5-    C7-    C9
     1    168    166    151      9     0.00   0.00000   0 ;     C1-   O40-   C72-   C65
     1    168    166    151      9     0.00   0.66944   2 ;     C1-   O40-   C72-   C65
     1    168    166    151      9     0.00   1.00416   3 ;     C1-   O40-   C72-   C65
     1    168    166    162      9     0.00   0.00000   0 ;     C1-   O40-   C72-   C70
     1    168    166    162      9     0.00   0.66944   2 ;     C1-   O40-   C72-   C70
     1    168    166    162      9     0.00   1.00416   3 ;     C1-   O40-   C72-   C70
     1    168    166    167      9     0.00   1.41001   3 ;     C1-   O40-   C72-   H56
     2      1      3      4      9     0.00   1.60387   3 ;     H1-    C1-    O1-    C2
     2      1     11     12      9     0.00   0.65084   3 ;     H1-    C1-    C5-    H5
     2      1     11     13      9     0.00   0.65084   3 ;     H1-    C1-    C5-    O3
     2      1     11     15      9     0.00   0.65084   3 ;     H1-    C1-    C5-    C7
     2      1    168    166      9     0.00   1.60387   3 ;     H1-    C1-   O40-   C72
     3      1     11     12      9     0.00   0.00000   0 ;     O1-    C1-    C5-    H5
     3      1     11     12      9     0.00   1.04600   1 ;     O1-    C1-    C5-    H5
     3      1     11     13      9     0.00   0.00000   0 ;     O1-    C1-    C5-    O3
     3      1     11     13      9   180.00   0.00000   2 ;     O1-    C1-    C5-    O3
     3      1     11     13      9   180.00   0.71128   1 ;     O1-    C1-    C5-    O3
     3      1     11     15      9     0.00   0.65084   3 ;     O1-    C1-    C5-    C7
     3      1    168    166      9     0.00   5.18816   2 ;     O1-    C1-   O40-   C72
     3      1    168    166      9   180.00   0.00000   3 ;     O1-    C1-   O40-   C72
     3      1    168    166      9   180.00   4.05848   1 ;     O1-    C1-   O40-   C72
     3      4      6      7      9     0.00   0.00000   0 ;     O1-    C2-    C3-    H3
     3      4      6      7      9     0.00   1.04600   1 ;     O1-    C2-    C3-    H3
     3      4      6      8      9     0.00   0.00000   0 ;     O1-    C2-    C3-    H4
     3      4      6      8      9     0.00   1.04600   1 ;     O1-    C2-    C3-    H4
     3      4      6      9      9     0.00   0.00000   0 ;     O1-    C2-    C3-    O2
     3      4      6      9      9   180.00   0.00000   2 ;     O1-    C2-    C3-    O2
     3      4      6      9      9   180.00   0.71128   1 ;     O1-    C2-    C3-    O2
     3      4     19     15      9     0.00   0.65084   3 ;     O1-    C2-    C9-    C7
     3      4     19     20      9     0.00   0.00000   0 ;     O1-    C2-    C9-    H7
     3      4     19     20      9     0.00   1.04600   1 ;     O1-    C2-    C9-    H7
     3      4     19     21      9     0.00   0.00000   0 ;     O1-    C2-    C9-    O5
     3      4     19     21      9   180.00   0.00000   2 ;     O1-    C2-    C9-    O5
     3      4     19     21      9   180.00   0.71128   1 ;     O1-    C2-    C9-    O5
     4      6      9     10      9     0.00   0.00000   0 ;     C2-    C3-    O2-    C4
     4      6      9     10      9     0.00   0.66944   2 ;     C2-    C3-    O2-    C4
     4      6      9     10      9     0.00   1.00416   3 ;     C2-    C3-    O2-    C4
     4     19     15     11      9     0.00   0.46024   1 ;     C2-    C9-    C7-    C5
     4     19     15     11      9     0.00   0.54392   3 ;     C2-    C9-    C7-    C5
     4     19     15     11      9   180.00   1.21336   2 ;     C2-    C9-    C7-    C5
     4     19     15     16      9     0.00   0.65084   3 ;     C2-    C9-    C7-    H6
     4     19     15     17      9     0.00   0.65084   3 ;     C2-    C9-    C7-    O4
     4     19     21     22      9     0.00   0.00000   0 ;     C2-    C9-    O5-   C10
     4     19     21     22      9     0.00   0.66944   2 ;     C2-    C9-    O5-   C10
     4     19     21     22      9     0.00   1.00416   3 ;     C2-    C9-    O5-   C10
     5      4      6      7      9     0.00   0.65084   3 ;     H2-    C2-    C3-    H3
     5      4      6      8      9     0.00   0.65084   3 ;     H2-    C2-    C3-    H4
     5      4      6      9      9     0.00   0.00000   0 ;     H2-    C2-    C3-    O2
     5      4      6      9      9     0.00   1.04600   1 ;     H2-    C2-    C3-    O2
     5      4     19     15      9     0.00   0.65084   3 ;     H2-    C2-    C9-    C7
     5      4     19     20      9     0.00   0.65084   3 ;     H2-    C2-    C9-    H7
     5      4     19     21      9     0.00   0.00000   0 ;     H2-    C2-    C9-    O5
     5      4     19     21      9     0.00   1.04600   1 ;     H2-    C2-    C9-    O5
     6      4     19     15      9     0.00   0.46024   1 ;     C3-    C2-    C9-    C7
     6      4     19     15      9     0.00   0.54392   3 ;     C3-    C2-    C9-    C7
     6      4     19     15      9   180.00   1.21336   2 ;     C3-    C2-    C9-    C7
     6      4     19     20      9     0.00   0.65084   3 ;     C3-    C2-    C9-    H7
     6      4     19     21      9     0.00   0.65084   3 ;     C3-    C2-    C9-    O5
     6      9     10    169      9     0.00   1.41001   3 ;     C3-    O2-    C4-   H57
     6      9     10    170      9     0.00   1.41001   3 ;     C3-    O2-    C4-   H58
     6      9     10    171      9     0.00   1.41001   3 ;     C3-    O2-    C4-   H59
     7      6      4     19      9     0.00   0.65084   3 ;     H3-    C3-    C2-    C9
     7      6      9     10      9     0.00   1.41001   3 ;     H3-    C3-    O2-    C4
     8      6      4     19      9     0.00   0.65084   3 ;     H4-    C3-    C2-    C9
     8      6      9     10      9     0.00   1.41001   3 ;     H4-    C3-    O2-    C4
     9      6      4     19      9     0.00   0.65084   3 ;     O2-    C3-    C2-    C9
    11      1      3      4      9     0.00   0.00000   0 ;     C5-    C1-    O1-    C2
    11      1      3      4      9     0.00   0.66944   2 ;     C5-    C1-    O1-    C2
    11      1      3      4      9     0.00   1.00416   3 ;     C5-    C1-    O1-    C2
    11      1    168    166      9     0.00   0.00000   0 ;     C5-    C1-   O40-   C72
    11      1    168    166      9     0.00   0.66944   2 ;     C5-    C1-   O40-   C72
    11      1    168    166      9     0.00   1.00416   3 ;     C5-    C1-   O40-   C72
    11     13     14    202      9     0.00   1.41001   3 ;     C5-    O3-    C6-   H90
    11     13     14    203      9     0.00   1.41001   3 ;     C5-    O3-    C6-   H91
    11     13     14    204      9     0.00   1.41001   3 ;     C5-    O3-    C6-   H92
    11     15     17     18      9     0.00   0.00000   0 ;     C5-    C7-    O4-    C8
    11     15     17     18      9     0.00   0.66944   2 ;     C5-    C7-    O4-    C8
    11     15     17     18      9     0.00   1.00416   3 ;     C5-    C7-    O4-    C8
    11     15     19     20      9     0.00   0.65084   3 ;     C5-    C7-    C9-    H7
    11     15     19     21      9     0.00   0.65084   3 ;     C5-    C7-    C9-    O5
    12     11     13     14      9     0.00   1.41001   3 ;     H5-    C5-    O3-    C6
    12     11     15     16      9     0.00   0.65084   3 ;     H5-    C5-    C7-    H6
    12     11     15     17      9     0.00   0.00000   0 ;     H5-    C5-    C7-    O4
    12     11     15     17      9     0.00   1.04600   1 ;     H5-    C5-    C7-    O4
    12     11     15     19      9     0.00   0.65084   3 ;     H5-    C5-    C7-    C9
    13     11     15     16      9     0.00   0.00000   0 ;     O3-    C5-    C7-    H6
    13     11     15     16      9     0.00   1.04600   1 ;     O3-    C5-    C7-    H6
    13     11     15     17      9     0.00   0.00000   0 ;     O3-    C5-    C7-    O4
    13     11     15     17      9   180.00   0.00000   2 ;     O3-    C5-    C7-    O4
    13     11     15     17      9   180.00   0.71128   1 ;     O3-    C5-    C7-    O4
    13     11     15     19      9     0.00   0.65084   3 ;     O3-    C5-    C7-    C9
    14     13     11     15      9     0.00   0.00000   0 ;     C6-    O3-    C5-    C7
    14     13     11     15      9     0.00   0.66944   2 ;     C6-    O3-    C5-    C7
    14     13     11     15      9     0.00   1.00416   3 ;     C6-    O3-    C5-    C7
    15     17     18    199      9     0.00   1.41001   3 ;     C7-    O4-    C8-   H87
    15     17     18    200      9     0.00   1.41001   3 ;     C7-    O4-    C8-   H88
    15     17     18    201      9     0.00   1.41001   3 ;     C7-    O4-    C8-   H89
    15     19     21     22      9     0.00   0.00000   0 ;     C7-    C9-    O5-   C10
    15     19     21     22      9     0.00   0.66944   2 ;     C7-    C9-    O5-   C10
    15     19     21     22      9     0.00   1.00416   3 ;     C7-    C9-    O5-   C10
    16     15     17     18      9     0.00   1.41001   3 ;     H6-    C7-    O4-    C8
    16     15     19     20      9     0.00   0.65084   3 ;     H6-    C7-    C9-    H7
    16     15     19     21      9     0.00   0.00000   0 ;     H6-    C7-    C9-    O5
    16     15     19     21      9     0.00   1.04600   1 ;     H6-    C7-    C9-    O5
    17     15     19     20      9     0.00   0.00000   0 ;     O4-    C7-    C9-    H7
    17     15     19     20      9     0.00   1.04600   1 ;     O4-    C7-    C9-    H7
    17     15     19     21      9     0.00   0.00000   0 ;     O4-    C7-    C9-    O5
    17     15     19     21      9   180.00   0.00000   2 ;     O4-    C7-    C9-    O5
    17     15     19     21      9   180.00   0.71128   1 ;     O4-    C7-    C9-    O5
    18     17     15     19      9     0.00   0.00000   0 ;     C8-    O4-    C7-    C9
    18     17     15     19      9     0.00   0.66944   2 ;     C8-    O4-    C7-    C9
    18     17     15     19      9     0.00   1.00416   3 ;     C8-    O4-    C7-    C9
    19     21     22     23      9     0.00   1.60387   3 ;     C9-    O5-   C10-    H8
    19     21     22     24      9     0.00   5.18816   2 ;     C9-    O5-   C10-    O6
    19     21     22     24      9   180.00   0.00000   3 ;     C9-    O5-   C10-    O6
    19     21     22     24      9   180.00   4.05848   1 ;     C9-    O5-   C10-    O6
    19     21     22     32      9     0.00   0.00000   0 ;     C9-    O5-   C10-   C14
    19     21     22     32      9     0.00   0.66944   2 ;     C9-    O5-   C10-   C14
    19     21     22     32      9     0.00   1.00416   3 ;     C9-    O5-   C10-   C14
    20     19     21     22      9     0.00   1.41001   3 ;     H7-    C9-    O5-   C10
    21     22     24     25      9     0.00   5.18816   2 ;     O5-   C10-    O6-   C11
    21     22     24     25      9   180.00   0.00000   3 ;     O5-   C10-    O6-   C11
    21     22     24     25      9   180.00   4.05848   1 ;     O5-   C10-    O6-   C11
    21     22     32     33      9     0.00   0.00000   0 ;     O5-   C10-   C14-   H12
    21     22     32     33      9     0.00   1.04600   1 ;     O5-   C10-   C14-   H12
    21     22     32     34      9     0.00   0.00000   0 ;     O5-   C10-   C14-    O8
    21     22     32     34      9   180.00   0.00000   2 ;     O5-   C10-   C14-    O8
    21     22     32     34      9   180.00   0.71128   1 ;     O5-   C10-   C14-    O8
    21     22     32     36      9     0.00   0.65084   3 ;     O5-   C10-   C14-   C16
    22     24     25     26      9     0.00   1.41001   3 ;    C10-    O6-   C11-    H9
    22     24     25     27      9     0.00   0.00000   0 ;    C10-    O6-   C11-   C12
    22     24     25     27      9     0.00   0.66944   2 ;    C10-    O6-   C11-   C12
    22     24     25     27      9     0.00   1.00416   3 ;    C10-    O6-   C11-   C12
    22     24     25     40      9     0.00   0.00000   0 ;    C10-    O6-   C11-   C18
    22     24     25     40      9     0.00   0.66944   2 ;    C10-    O6-   C11-   C18
    22     24     25     40      9     0.00   1.00416   3 ;    C10-    O6-   C11-   C18
    22     32     34     35      9     0.00   0.00000   0 ;    C10-   C14-    O8-   C15
    22     32     34     35      9     0.00   0.66944   2 ;    C10-   C14-    O8-   C15
    22     32     34     35      9     0.00   1.00416   3 ;    C10-   C14-    O8-   C15
    22     32     36     37      9     0.00   0.65084   3 ;    C10-   C14-   C16-   H13
    22     32     36     38      9     0.00   0.65084   3 ;    C10-   C14-   C16-    O9
    22     32     36     40      9     0.00   0.46024   1 ;    C10-   C14-   C16-   C18
    22     32     36     40      9     0.00   0.54392   3 ;    C10-   C14-   C16-   C18
    22     32     36     40      9   180.00   1.21336   2 ;    C10-   C14-   C16-   C18
    23     22     24     25      9     0.00   1.60387   3 ;     H8-   C10-    O6-   C11
    23     22     32     33      9     0.00   0.65084   3 ;     H8-   C10-   C14-   H12
    23     22     32     34      9     0.00   0.65084   3 ;     H8-   C10-   C14-    O8
    23     22     32     36      9     0.00   0.65084   3 ;     H8-   C10-   C14-   C16
    24     22     32     33      9     0.00   0.00000   0 ;     O6-   C10-   C14-   H12
    24     22     32     33      9     0.00   1.04600   1 ;     O6-   C10-   C14-   H12
    24     22     32     34      9     0.00   0.00000   0 ;     O6-   C10-   C14-    O8
    24     22     32     34      9   180.00   0.00000   2 ;     O6-   C10-   C14-    O8
    24     22     32     34      9   180.00   0.71128   1 ;     O6-   C10-   C14-    O8
    24     22     32     36      9     0.00   0.65084   3 ;     O6-   C10-   C14-   C16
    24     25     27     28      9     0.00   0.00000   0 ;     O6-   C11-   C12-   H10
    24     25     27     28      9     0.00   1.04600   1 ;     O6-   C11-   C12-   H10
    24     25     27     29      9     0.00   0.00000   0 ;     O6-   C11-   C12-   H11
    24     25     27     29      9     0.00   1.04600   1 ;     O6-   C11-   C12-   H11
    24     25     27     30      9     0.00   0.00000   0 ;     O6-   C11-   C12-    O7
    24     25     27     30      9   180.00   0.00000   2 ;     O6-   C11-   C12-    O7
    24     25     27     30      9   180.00   0.71128   1 ;     O6-   C11-   C12-    O7
    24     25     40     36      9     0.00   0.65084   3 ;     O6-   C11-   C18-   C16
    24     25     40     41      9     0.00   0.00000   0 ;     O6-   C11-   C18-   H14
    24     25     40     41      9     0.00   1.04600   1 ;     O6-   C11-   C18-   H14
    24     25     40     42      9     0.00   0.00000   0 ;     O6-   C11-   C18-   O10
    24     25     40     42      9   180.00   0.00000   2 ;     O6-   C11-   C18-   O10
    24     25     40     42      9   180.00   0.71128   1 ;     O6-   C11-   C18-   O10
    25     24     22     32      9     0.00   0.00000   0 ;    C11-    O6-   C10-   C14
    25     24     22     32      9     0.00   0.66944   2 ;    C11-    O6-   C10-   C14
    25     24     22     32      9     0.00   1.00416   3 ;    C11-    O6-   C10-   C14
    25     27     30     31      9     0.00   0.00000   0 ;    C11-   C12-    O7-   C13
    25     27     30     31      9     0.00   0.66944   2 ;    C11-   C12-    O7-   C13
    25     27     30     31      9     0.00   1.00416   3 ;    C11-   C12-    O7-   C13
    25     40     36     32      9     0.00   0.46024   1 ;    C11-   C18-   C16-   C14
    25     40     36     32      9     0.00   0.54392   3 ;    C11-   C18-   C16-   C14
    25     40     36     32      9   180.00   1.21336   2 ;    C11-   C18-   C16-   C14
    25     40     36     37      9     0.00   0.65084   3 ;    C11-   C18-   C16-   H13
    25     40     36     38      9     0.00   0.65084   3 ;    C11-   C18-   C16-    O9
    25     40     42     43      9     0.00   0.00000   0 ;    C11-   C18-   O10-   C19
    25     40     42     43      9     0.00   0.66944   2 ;    C11-   C18-   O10-   C19
    25     40     42     43      9     0.00   1.00416   3 ;    C11-   C18-   O10-   C19
    26     25     27     28      9     0.00   0.65084   3 ;     H9-   C11-   C12-   H10
    26     25     27     29      9     0.00   0.65084   3 ;     H9-   C11-   C12-   H11
    26     25     27     30      9     0.00   0.00000   0 ;     H9-   C11-   C12-    O7
    26     25     27     30      9     0.00   1.04600   1 ;     H9-   C11-   C12-    O7
    26     25     40     36      9     0.00   0.65084   3 ;     H9-   C11-   C18-   C16
    26     25     40     41      9     0.00   0.65084   3 ;     H9-   C11-   C18-   H14
    26     25     40     42      9     0.00   0.00000   0 ;     H9-   C11-   C18-   O10
    26     25     40     42      9     0.00   1.04600   1 ;     H9-   C11-   C18-   O10
    27     25     40     36      9     0.00   0.46024   1 ;    C12-   C11-   C18-   C16
    27     25     40     36      9     0.00   0.54392   3 ;    C12-   C11-   C18-   C16
    27     25     40     36      9   180.00   1.21336   2 ;    C12-   C11-   C18-   C16
    27     25     40     41      9     0.00   0.65084   3 ;    C12-   C11-   C18-   H14
    27     25     40     42      9     0.00   0.65084   3 ;    C12-   C11-   C18-   O10
    27     30     31    190      9     0.00   1.41001   3 ;    C12-    O7-   C13-   H78
    27     30     31    191      9     0.00   1.41001   3 ;    C12-    O7-   C13-   H79
    27     30     31    192      9     0.00   1.41001   3 ;    C12-    O7-   C13-   H80
    28     27     25     40      9     0.00   0.65084   3 ;    H10-   C12-   C11-   C18
    28     27     30     31      9     0.00   1.41001   3 ;    H10-   C12-    O7-   C13
    29     27     25     40      9     0.00   0.65084   3 ;    H11-   C12-   C11-   C18
    29     27     30     31      9     0.00   1.41001   3 ;    H11-   C12-    O7-   C13
    30     27     25     40      9     0.00   0.65084   3 ;     O7-   C12-   C11-   C18
    32     34     35    196      9     0.00   1.41001   3 ;    C14-    O8-   C15-   H84
    32     34     35    197      9     0.00   1.41001   3 ;    C14-    O8-   C15-   H85
    32     34     35    198      9     0.00   1.41001   3 ;    C14-    O8-   C15-   H86
    32     36     38     39      9     0.00   0.00000   0 ;    C14-   C16-    O9-   C17
    32     36     38     39      9     0.00   0.66944   2 ;    C14-   C16-    O9-   C17
    32     36     38     39      9     0.00   1.00416   3 ;    C14-   C16-    O9-   C17
    32     36     40     41      9     0.00   0.65084   3 ;    C14-   C16-   C18-   H14
    32     36     40     42      9     0.00   0.65084   3 ;    C14-   C16-   C18-   O10
    33     32     34     35      9     0.00   1.41001   3 ;    H12-   C14-    O8-   C15
    33     32     36     37      9     0.00   0.65084   3 ;    H12-   C14-   C16-   H13
    33     32     36     38      9     0.00   0.00000   0 ;    H12-   C14-   C16-    O9
    33     32     36     38      9     0.00   1.04600   1 ;    H12-   C14-   C16-    O9
    33     32     36     40      9     0.00   0.65084   3 ;    H12-   C14-   C16-   C18
    34     32     36     37      9     0.00   0.00000   0 ;     O8-   C14-   C16-   H13
    34     32     36     37      9     0.00   1.04600   1 ;     O8-   C14-   C16-   H13
    34     32     36     38      9     0.00   0.00000   0 ;     O8-   C14-   C16-    O9
    34     32     36     38      9   180.00   0.00000   2 ;     O8-   C14-   C16-    O9
    34     32     36     38      9   180.00   0.71128   1 ;     O8-   C14-   C16-    O9
    34     32     36     40      9     0.00   0.65084   3 ;     O8-   C14-   C16-   C18
    35     34     32     36      9     0.00   0.00000   0 ;    C15-    O8-   C14-   C16
    35     34     32     36      9     0.00   0.66944   2 ;    C15-    O8-   C14-   C16
    35     34     32     36      9     0.00   1.00416   3 ;    C15-    O8-   C14-   C16
    36     38     39    193      9     0.00   1.41001   3 ;    C16-    O9-   C17-   H81
    36     38     39    194      9     0.00   1.41001   3 ;    C16-    O9-   C17-   H82
    36     38     39    195      9     0.00   1.41001   3 ;    C16-    O9-   C17-   H83
    36     40     42     43      9     0.00   0.00000   0 ;    C16-   C18-   O10-   C19
    36     40     42     43      9     0.00   0.66944   2 ;    C16-   C18-   O10-   C19
    36     40     42     43      9     0.00   1.00416   3 ;    C16-   C18-   O10-   C19
    37     36     38     39      9     0.00   1.41001   3 ;    H13-   C16-    O9-   C17
    37     36     40     41      9     0.00   0.65084   3 ;    H13-   C16-   C18-   H14
    37     36     40     42      9     0.00   0.00000   0 ;    H13-   C16-   C18-   O10
    37     36     40     42      9     0.00   1.04600   1 ;    H13-   C16-   C18-   O10
    38     36     40     41      9     0.00   0.00000   0 ;     O9-   C16-   C18-   H14
    38     36     40     41      9     0.00   1.04600   1 ;     O9-   C16-   C18-   H14
    38     36     40     42      9     0.00   0.00000   0 ;     O9-   C16-   C18-   O10
    38     36     40     42      9   180.00   0.00000   2 ;     O9-   C16-   C18-   O10
    38     36     40     42      9   180.00   0.71128   1 ;     O9-   C16-   C18-   O10
    39     38     36     40      9     0.00   0.00000   0 ;    C17-    O9-   C16-   C18
    39     38     36     40      9     0.00   0.66944   2 ;    C17-    O9-   C16-   C18
    39     38     36     40      9     0.00   1.00416   3 ;    C17-    O9-   C16-   C18
    40     42     43     44      9     0.00   1.60387   3 ;    C18-   O10-   C19-   H15
    40     42     43     45      9     0.00   5.18816   2 ;    C18-   O10-   C19-   O11
    40     42     43     45      9   180.00   0.00000   3 ;    C18-   O10-   C19-   O11
    40     42     43     45      9   180.00   4.05848   1 ;    C18-   O10-   C19-   O11
    40     42     43     53      9     0.00   0.00000   0 ;    C18-   O10-   C19-   C23
    40     42     43     53      9     0.00   0.66944   2 ;    C18-   O10-   C19-   C23
    40     42     43     53      9     0.00   1.00416   3 ;    C18-   O10-   C19-   C23
    41     40     42     43      9     0.00   1.41001   3 ;    H14-   C18-   O10-   C19
    42     43     45     46      9     0.00   5.18816   2 ;    O10-   C19-   O11-   C20
    42     43     45     46      9   180.00   0.00000   3 ;    O10-   C19-   O11-   C20
    42     43     45     46      9   180.00   4.05848   1 ;    O10-   C19-   O11-   C20
    42     43     53     54      9     0.00   0.00000   0 ;    O10-   C19-   C23-   H19
    42     43     53     54      9     0.00   1.04600   1 ;    O10-   C19-   C23-   H19
    42     43     53     55      9     0.00   0.00000   0 ;    O10-   C19-   C23-   O13
    42     43     53     55      9   180.00   0.00000   2 ;    O10-   C19-   C23-   O13
    42     43     53     55      9   180.00   0.71128   1 ;    O10-   C19-   C23-   O13
    42     43     53     57      9     0.00   0.65084   3 ;    O10-   C19-   C23-   C25
    43     45     46     47      9     0.00   1.41001   3 ;    C19-   O11-   C20-   H16
    43     45     46     48      9     0.00   0.00000   0 ;    C19-   O11-   C20-   C21
    43     45     46     48      9     0.00   0.66944   2 ;    C19-   O11-   C20-   C21
    43     45     46     48      9     0.00   1.00416   3 ;    C19-   O11-   C20-   C21
    43     45     46     61      9     0.00   0.00000   0 ;    C19-   O11-   C20-   C27
    43     45     46     61      9     0.00   0.66944   2 ;    C19-   O11-   C20-   C27
    43     45     46     61      9     0.00   1.00416   3 ;    C19-   O11-   C20-   C27
    43     53     55     56      9     0.00   0.00000   0 ;    C19-   C23-   O13-   C24
    43     53     55     56      9     0.00   0.66944   2 ;    C19-   C23-   O13-   C24
    43     53     55     56      9     0.00   1.00416   3 ;    C19-   C23-   O13-   C24
    43     53     57     58      9     0.00   0.65084   3 ;    C19-   C23-   C25-   H20
    43     53     57     59      9     0.00   0.65084   3 ;    C19-   C23-   C25-   O14
    43     53     57     61      9     0.00   0.46024   1 ;    C19-   C23-   C25-   C27
    43     53     57     61      9     0.00   0.54392   3 ;    C19-   C23-   C25-   C27
    43     53     57     61      9   180.00   1.21336   2 ;    C19-   C23-   C25-   C27
    44     43     45     46      9     0.00   1.60387   3 ;    H15-   C19-   O11-   C20
    44     43     53     54      9     0.00   0.65084   3 ;    H15-   C19-   C23-   H19
    44     43     53     55      9     0.00   0.65084   3 ;    H15-   C19-   C23-   O13
    44     43     53     57      9     0.00   0.65084   3 ;    H15-   C19-   C23-   C25
    45     43     53     54      9     0.00   0.00000   0 ;    O11-   C19-   C23-   H19
    45     43     53     54      9     0.00   1.04600   1 ;    O11-   C19-   C23-   H19
    45     43     53     55      9     0.00   0.00000   0 ;    O11-   C19-   C23-   O13
    45     43     53     55      9   180.00   0.00000   2 ;    O11-   C19-   C23-   O13
    45     43     53     55      9   180.00   0.71128   1 ;    O11-   C19-   C23-   O13
    45     43     53     57      9     0.00   0.65084   3 ;    O11-   C19-   C23-   C25
    45     46     48     49      9     0.00   0.00000   0 ;    O11-   C20-   C21-   H17
    45     46     48     49      9     0.00   1.04600   1 ;    O11-   C20-   C21-   H17
    45     46     48     50      9     0.00   0.00000   0 ;    O11-   C20-   C21-   H18
    45     46     48     50      9     0.00   1.04600   1 ;    O11-   C20-   C21-   H18
    45     46     48     51      9     0.00   0.00000   0 ;    O11-   C20-   C21-   O12
    45     46     48     51      9   180.00   0.00000   2 ;    O11-   C20-   C21-   O12
    45     46     48     51      9   180.00   0.71128   1 ;    O11-   C20-   C21-   O12
    45     46     61     57      9     0.00   0.65084   3 ;    O11-   C20-   C27-   C25
    45     46     61     62      9     0.00   0.00000   0 ;    O11-   C20-   C27-   H21
    45     46     61     62      9     0.00   1.04600   1 ;    O11-   C20-   C27-   H21
    45     46     61     63      9     0.00   0.00000   0 ;    O11-   C20-   C27-   O15
    45     46     61     63      9   180.00   0.00000   2 ;    O11-   C20-   C27-   O15
    45     46     61     63      9   180.00   0.71128   1 ;    O11-   C20-   C27-   O15
    46     45     43     53      9     0.00   0.00000   0 ;    C20-   O11-   C19-   C23
    46     45     43     53      9     0.00   0.66944   2 ;    C20-   O11-   C19-   C23
    46     45     43     53      9     0.00   1.00416   3 ;    C20-   O11-   C19-   C23
    46     48     51     52      9     0.00   0.00000   0 ;    C20-   C21-   O12-   C22
    46     48     51     52      9     0.00   0.66944   2 ;    C20-   C21-   O12-   C22
    46     48     51     52      9     0.00   1.00416   3 ;    C20-   C21-   O12-   C22
    46     61     57     53      9     0.00   0.46024   1 ;    C20-   C27-   C25-   C23
    46     61     57     53      9     0.00   0.54392   3 ;    C20-   C27-   C25-   C23
    46     61     57     53      9   180.00   1.21336   2 ;    C20-   C27-   C25-   C23
    46     61     57     58      9     0.00   0.65084   3 ;    C20-   C27-   C25-   H20
    46     61     57     59      9     0.00   0.65084   3 ;    C20-   C27-   C25-   O14
    46     61     63     64      9     0.00   0.00000   0 ;    C20-   C27-   O15-   C28
    46     61     63     64      9     0.00   0.66944   2 ;    C20-   C27-   O15-   C28
    46     61     63     64      9     0.00   1.00416   3 ;    C20-   C27-   O15-   C28
    47     46     48     49      9     0.00   0.65084   3 ;    H16-   C20-   C21-   H17
    47     46     48     50      9     0.00   0.65084   3 ;    H16-   C20-   C21-   H18
    47     46     48     51      9     0.00   0.00000   0 ;    H16-   C20-   C21-   O12
    47     46     48     51      9     0.00   1.04600   1 ;    H16-   C20-   C21-   O12
    47     46     61     57      9     0.00   0.65084   3 ;    H16-   C20-   C27-   C25
    47     46     61     62      9     0.00   0.65084   3 ;    H16-   C20-   C27-   H21
    47     46     61     63      9     0.00   0.00000   0 ;    H16-   C20-   C27-   O15
    47     46     61     63      9     0.00   1.04600   1 ;    H16-   C20-   C27-   O15
    48     46     61     57      9     0.00   0.46024   1 ;    C21-   C20-   C27-   C25
    48     46     61     57      9     0.00   0.54392   3 ;    C21-   C20-   C27-   C25
    48     46     61     57      9   180.00   1.21336   2 ;    C21-   C20-   C27-   C25
    48     46     61     62      9     0.00   0.65084   3 ;    C21-   C20-   C27-   H21
    48     46     61     63      9     0.00   0.65084   3 ;    C21-   C20-   C27-   O15
    48     51     52    187      9     0.00   1.41001   3 ;    C21-   O12-   C22-   H75
    48     51     52    188      9     0.00   1.41001   3 ;    C21-   O12-   C22-   H76
    48     51     52    189      9     0.00   1.41001   3 ;    C21-   O12-   C22-   H77
    49     48     46     61      9     0.00   0.65084   3 ;    H17-   C21-   C20-   C27
    49     48     51     52      9     0.00   1.41001   3 ;    H17-   C21-   O12-   C22
    50     48     46     61      9     0.00   0.65084   3 ;    H18-   C21-   C20-   C27
    50     48     51     52      9     0.00   1.41001   3 ;    H18-   C21-   O12-   C22
    51     48     46     61      9     0.00   0.65084   3 ;    O12-   C21-   C20-   C27
    53     55     56    238      9     0.00   1.41001   3 ;    C23-   O13-   C24-  H126
    53     55     56    239      9     0.00   1.41001   3 ;    C23-   O13-   C24-  H127
    53     55     56    240      9     0.00   1.41001   3 ;    C23-   O13-   C24-  H128
    53     57     59     60      9     0.00   0.00000   0 ;    C23-   C25-   O14-   C26
    53     57     59     60      9     0.00   0.66944   2 ;    C23-   C25-   O14-   C26
    53     57     59     60      9     0.00   1.00416   3 ;    C23-   C25-   O14-   C26
    53     57     61     62      9     0.00   0.65084   3 ;    C23-   C25-   C27-   H21
    53     57     61     63      9     0.00   0.65084   3 ;    C23-   C25-   C27-   O15
    54     53     55     56      9     0.00   1.41001   3 ;    H19-   C23-   O13-   C24
    54     53     57     58      9     0.00   0.65084   3 ;    H19-   C23-   C25-   H20
    54     53     57     59      9     0.00   0.00000   0 ;    H19-   C23-   C25-   O14
    54     53     57     59      9     0.00   1.04600   1 ;    H19-   C23-   C25-   O14
    54     53     57     61      9     0.00   0.65084   3 ;    H19-   C23-   C25-   C27
    55     53     57     58      9     0.00   0.00000   0 ;    O13-   C23-   C25-   H20
    55     53     57     58      9     0.00   1.04600   1 ;    O13-   C23-   C25-   H20
    55     53     57     59      9     0.00   0.00000   0 ;    O13-   C23-   C25-   O14
    55     53     57     59      9   180.00   0.00000   2 ;    O13-   C23-   C25-   O14
    55     53     57     59      9   180.00   0.71128   1 ;    O13-   C23-   C25-   O14
    55     53     57     61      9     0.00   0.65084   3 ;    O13-   C23-   C25-   C27
    56     55     53     57      9     0.00   0.00000   0 ;    C24-   O13-   C23-   C25
    56     55     53     57      9     0.00   0.66944   2 ;    C24-   O13-   C23-   C25
    56     55     53     57      9     0.00   1.00416   3 ;    C24-   O13-   C23-   C25
    57     59     60    235      9     0.00   1.41001   3 ;    C25-   O14-   C26-  H123
    57     59     60    236      9     0.00   1.41001   3 ;    C25-   O14-   C26-  H124
    57     59     60    237      9     0.00   1.41001   3 ;    C25-   O14-   C26-  H125
    57     61     63     64      9     0.00   0.00000   0 ;    C25-   C27-   O15-   C28
    57     61     63     64      9     0.00   0.66944   2 ;    C25-   C27-   O15-   C28
    57     61     63     64      9     0.00   1.00416   3 ;    C25-   C27-   O15-   C28
    58     57     59     60      9     0.00   1.41001   3 ;    H20-   C25-   O14-   C26
    58     57     61     62      9     0.00   0.65084   3 ;    H20-   C25-   C27-   H21
    58     57     61     63      9     0.00   0.00000   0 ;    H20-   C25-   C27-   O15
    58     57     61     63      9     0.00   1.04600   1 ;    H20-   C25-   C27-   O15
    59     57     61     62      9     0.00   0.00000   0 ;    O14-   C25-   C27-   H21
    59     57     61     62      9     0.00   1.04600   1 ;    O14-   C25-   C27-   H21
    59     57     61     63      9     0.00   0.00000   0 ;    O14-   C25-   C27-   O15
    59     57     61     63      9   180.00   0.00000   2 ;    O14-   C25-   C27-   O15
    59     57     61     63      9   180.00   0.71128   1 ;    O14-   C25-   C27-   O15
    60     59     57     61      9     0.00   0.00000   0 ;    C26-   O14-   C25-   C27
    60     59     57     61      9     0.00   0.66944   2 ;    C26-   O14-   C25-   C27
    60     59     57     61      9     0.00   1.00416   3 ;    C26-   O14-   C25-   C27
    61     63     64     65      9     0.00   1.60387   3 ;    C27-   O15-   C28-   H22
    61     63     64     66      9     0.00   5.18816   2 ;    C27-   O15-   C28-   O16
    61     63     64     66      9   180.00   0.00000   3 ;    C27-   O15-   C28-   O16
    61     63     64     66      9   180.00   4.05848   1 ;    C27-   O15-   C28-   O16
    61     63     64     74      9     0.00   0.00000   0 ;    C27-   O15-   C28-   C32
    61     63     64     74      9     0.00   0.66944   2 ;    C27-   O15-   C28-   C32
    61     63     64     74      9     0.00   1.00416   3 ;    C27-   O15-   C28-   C32
    62     61     63     64      9     0.00   1.41001   3 ;    H21-   C27-   O15-   C28
    63     64     66     67      9     0.00   5.18816   2 ;    O15-   C28-   O16-   C29
    63     64     66     67      9   180.00   0.00000   3 ;    O15-   C28-   O16-   C29
    63     64     66     67      9   180.00   4.05848   1 ;    O15-   C28-   O16-   C29
    63     64     74     75      9     0.00   0.00000   0 ;    O15-   C28-   C32-   H26
    63     64     74     75      9     0.00   1.04600   1 ;    O15-   C28-   C32-   H26
    63     64     74     76      9     0.00   0.00000   0 ;    O15-   C28-   C32-   O18
    63     64     74     76      9   180.00   0.00000   2 ;    O15-   C28-   C32-   O18
    63     64     74     76      9   180.00   0.71128   1 ;    O15-   C28-   C32-   O18
    63     64     74     78      9     0.00   0.65084   3 ;    O15-   C28-   C32-   C34
    64     66     67     68      9     0.00   1.41001   3 ;    C28-   O16-   C29-   H23
    64     66     67     69      9     0.00   0.00000   0 ;    C28-   O16-   C29-   C30
    64     66     67     69      9     0.00   0.66944   2 ;    C28-   O16-   C29-   C30
    64     66     67     69      9     0.00   1.00416   3 ;    C28-   O16-   C29-   C30
    64     66     67     82      9     0.00   0.00000   0 ;    C28-   O16-   C29-   C36
    64     66     67     82      9     0.00   0.66944   2 ;    C28-   O16-   C29-   C36
    64     66     67     82      9     0.00   1.00416   3 ;    C28-   O16-   C29-   C36
    64     74     76     77      9     0.00   0.00000   0 ;    C28-   C32-   O18-   C33
    64     74     76     77      9     0.00   0.66944   2 ;    C28-   C32-   O18-   C33
    64     74     76     77      9     0.00   1.00416   3 ;    C28-   C32-   O18-   C33
    64     74     78     79      9     0.00   0.65084   3 ;    C28-   C32-   C34-   H27
    64     74     78     80      9     0.00   0.65084   3 ;    C28-   C32-   C34-   O19
    64     74     78     82      9     0.00   0.46024   1 ;    C28-   C32-   C34-   C36
    64     74     78     82      9     0.00   0.54392   3 ;    C28-   C32-   C34-   C36
    64     74     78     82      9   180.00   1.21336   2 ;    C28-   C32-   C34-   C36
    65     64     66     67      9     0.00   1.60387   3 ;    H22-   C28-   O16-   C29
    65     64     74     75      9     0.00   0.65084   3 ;    H22-   C28-   C32-   H26
    65     64     74     76      9     0.00   0.65084   3 ;    H22-   C28-   C32-   O18
    65     64     74     78      9     0.00   0.65084   3 ;    H22-   C28-   C32-   C34
    66     64     74     75      9     0.00   0.00000   0 ;    O16-   C28-   C32-   H26
    66     64     74     75      9     0.00   1.04600   1 ;    O16-   C28-   C32-   H26
    66     64     74     76      9     0.00   0.00000   0 ;    O16-   C28-   C32-   O18
    66     64     74     76      9   180.00   0.00000   2 ;    O16-   C28-   C32-   O18
    66     64     74     76      9   180.00   0.71128   1 ;    O16-   C28-   C32-   O18
    66     64     74     78      9     0.00   0.65084   3 ;    O16-   C28-   C32-   C34
    66     67     69     70      9     0.00   0.00000   0 ;    O16-   C29-   C30-   H24
    66     67     69     70      9     0.00   1.04600   1 ;    O16-   C29-   C30-   H24
    66     67     69     71      9     0.00   0.00000   0 ;    O16-   C29-   C30-   H25
    66     67     69     71      9     0.00   1.04600   1 ;    O16-   C29-   C30-   H25
    66     67     69     72      9     0.00   0.00000   0 ;    O16-   C29-   C30-   O17
    66     67     69     72      9   180.00   0.00000   2 ;    O16-   C29-   C30-   O17
    66     67     69     72      9   180.00   0.71128   1 ;    O16-   C29-   C30-   O17
    66     67     82     78      9     0.00   0.65084   3 ;    O16-   C29-   C36-   C34
    66     67     82     83      9     0.00   0.00000   0 ;    O16-   C29-   C36-   H28
    66     67     82     83      9     0.00   1.04600   1 ;    O16-   C29-   C36-   H28
    66     67     82     84      9     0.00   0.00000   0 ;    O16-   C29-   C36-   O20
    66     67     82     84      9   180.00   0.00000   2 ;    O16-   C29-   C36-   O20
    66     67     82     84      9   180.00   0.71128   1 ;    O16-   C29-   C36-   O20
    67     66     64     74      9     0.00   0.00000   0 ;    C29-   O16-   C28-   C32
    67     66     64     74      9     0.00   0.66944   2 ;    C29-   O16-   C28-   C32
    67     66     64     74      9     0.00   1.00416   3 ;    C29-   O16-   C28-   C32
    67     69     72     73      9     0.00   0.00000   0 ;    C29-   C30-   O17-   C31
    67     69     72     73      9     0.00   0.66944   2 ;    C29-   C30-   O17-   C31
    67     69     72     73      9     0.00   1.00416   3 ;    C29-   C30-   O17-   C31
    67     82     78     74      9     0.00   0.46024   1 ;    C29-   C36-   C34-   C32
    67     82     78     74      9     0.00   0.54392   3 ;    C29-   C36-   C34-   C32
    67     82     78     74      9   180.00   1.21336   2 ;    C29-   C36-   C34-   C32
    67     82     78     79      9     0.00   0.65084   3 ;    C29-   C36-   C34-   H27
    67     82     78     80      9     0.00   0.65084   3 ;    C29-   C36-   C34-   O19
    67     82     84     85      9     0.00   0.00000   0 ;    C29-   C36-   O20-   C37
    67     82     84     85      9     0.00   0.66944   2 ;    C29-   C36-   O20-   C37
    67     82     84     85      9     0.00   1.00416   3 ;    C29-   C36-   O20-   C37
    68     67     69     70      9     0.00   0.65084   3 ;    H23-   C29-   C30-   H24
    68     67     69     71      9     0.00   0.65084   3 ;    H23-   C29-   C30-   H25
    68     67     69     72      9     0.00   0.00000   0 ;    H23-   C29-   C30-   O17
    68     67     69     72      9     0.00   1.04600   1 ;    H23-   C29-   C30-   O17
    68     67     82     78      9     0.00   0.65084   3 ;    H23-   C29-   C36-   C34
    68     67     82     83      9     0.00   0.65084   3 ;    H23-   C29-   C36-   H28
    68     67     82     84      9     0.00   0.00000   0 ;    H23-   C29-   C36-   O20
    68     67     82     84      9     0.00   1.04600   1 ;    H23-   C29-   C36-   O20
    69     67     82     78      9     0.00   0.46024   1 ;    C30-   C29-   C36-   C34
    69     67     82     78      9     0.00   0.54392   3 ;    C30-   C29-   C36-   C34
    69     67     82     78      9   180.00   1.21336   2 ;    C30-   C29-   C36-   C34
    69     67     82     83      9     0.00   0.65084   3 ;    C30-   C29-   C36-   H28
    69     67     82     84      9     0.00   0.65084   3 ;    C30-   C29-   C36-   O20
    69     72     73    184      9     0.00   1.41001   3 ;    C30-   O17-   C31-   H72
    69     72     73    185      9     0.00   1.41001   3 ;    C30-   O17-   C31-   H73
    69     72     73    186      9     0.00   1.41001   3 ;    C30-   O17-   C31-   H74
    70     69     67     82      9     0.00   0.65084   3 ;    H24-   C30-   C29-   C36
    70     69     72     73      9     0.00   1.41001   3 ;    H24-   C30-   O17-   C31
    71     69     67     82      9     0.00   0.65084   3 ;    H25-   C30-   C29-   C36
    71     69     72     73      9     0.00   1.41001   3 ;    H25-   C30-   O17-   C31
    72     69     67     82      9     0.00   0.65084   3 ;    O17-   C30-   C29-   C36
    74     76     77    232      9     0.00   1.41001   3 ;    C32-   O18-   C33-  H120
    74     76     77    233      9     0.00   1.41001   3 ;    C32-   O18-   C33-  H121
    74     76     77    234      9     0.00   1.41001   3 ;    C32-   O18-   C33-  H122
    74     78     80     81      9     0.00   0.00000   0 ;    C32-   C34-   O19-   C35
    74     78     80     81      9     0.00   0.66944   2 ;    C32-   C34-   O19-   C35
    74     78     80     81      9     0.00   1.00416   3 ;    C32-   C34-   O19-   C35
    74     78     82     83      9     0.00   0.65084   3 ;    C32-   C34-   C36-   H28
    74     78     82     84      9     0.00   0.65084   3 ;    C32-   C34-   C36-   O20
    75     74     76     77      9     0.00   1.41001   3 ;    H26-   C32-   O18-   C33
    75     74     78     79      9     0.00   0.65084   3 ;    H26-   C32-   C34-   H27
    75     74     78     80      9     0.00   0.00000   0 ;    H26-   C32-   C34-   O19
    75     74     78     80      9     0.00   1.04600   1 ;    H26-   C32-   C34-   O19
    75     74     78     82      9     0.00   0.65084   3 ;    H26-   C32-   C34-   C36
    76     74     78     79      9     0.00   0.00000   0 ;    O18-   C32-   C34-   H27
    76     74     78     79      9     0.00   1.04600   1 ;    O18-   C32-   C34-   H27
    76     74     78     80      9     0.00   0.00000   0 ;    O18-   C32-   C34-   O19
    76     74     78     80      9   180.00   0.00000   2 ;    O18-   C32-   C34-   O19
    76     74     78     80      9   180.00   0.71128   1 ;    O18-   C32-   C34-   O19
    76     74     78     82      9     0.00   0.65084   3 ;    O18-   C32-   C34-   C36
    77     76     74     78      9     0.00   0.00000   0 ;    C33-   O18-   C32-   C34
    77     76     74     78      9     0.00   0.66944   2 ;    C33-   O18-   C32-   C34
    77     76     74     78      9     0.00   1.00416   3 ;    C33-   O18-   C32-   C34
    78     80     81    229      9     0.00   1.41001   3 ;    C34-   O19-   C35-  H117
    78     80     81    230      9     0.00   1.41001   3 ;    C34-   O19-   C35-  H118
    78     80     81    231      9     0.00   1.41001   3 ;    C34-   O19-   C35-  H119
    78     82     84     85      9     0.00   0.00000   0 ;    C34-   C36-   O20-   C37
    78     82     84     85      9     0.00   0.66944   2 ;    C34-   C36-   O20-   C37
    78     82     84     85      9     0.00   1.00416   3 ;    C34-   C36-   O20-   C37
    79     78     80     81      9     0.00   1.41001   3 ;    H27-   C34-   O19-   C35
    79     78     82     83      9     0.00   0.65084   3 ;    H27-   C34-   C36-   H28
    79     78     82     84      9     0.00   0.00000   0 ;    H27-   C34-   C36-   O20
    79     78     82     84      9     0.00   1.04600   1 ;    H27-   C34-   C36-   O20
    80     78     82     83      9     0.00   0.00000   0 ;    O19-   C34-   C36-   H28
    80     78     82     83      9     0.00   1.04600   1 ;    O19-   C34-   C36-   H28
    80     78     82     84      9     0.00   0.00000   0 ;    O19-   C34-   C36-   O20
    80     78     82     84      9   180.00   0.00000   2 ;    O19-   C34-   C36-   O20
    80     78     82     84      9   180.00   0.71128   1 ;    O19-   C34-   C36-   O20
    81     80     78     82      9     0.00   0.00000   0 ;    C35-   O19-   C34-   C36
    81     80     78     82      9     0.00   0.66944   2 ;    C35-   O19-   C34-   C36
    81     80     78     82      9     0.00   1.00416   3 ;    C35-   O19-   C34-   C36
    82     84     85     86      9     0.00   1.60387   3 ;    C36-   O20-   C37-   H29
    82     84     85     87      9     0.00   5.18816   2 ;    C36-   O20-   C37-   O21
    82     84     85     87      9   180.00   0.00000   3 ;    C36-   O20-   C37-   O21
    82     84     85     87      9   180.00   4.05848   1 ;    C36-   O20-   C37-   O21
    82     84     85     95      9     0.00   0.00000   0 ;    C36-   O20-   C37-   C41
    82     84     85     95      9     0.00   0.66944   2 ;    C36-   O20-   C37-   C41
    82     84     85     95      9     0.00   1.00416   3 ;    C36-   O20-   C37-   C41
    83     82     84     85      9     0.00   1.41001   3 ;    H28-   C36-   O20-   C37
    84     85     87     88      9     0.00   5.18816   2 ;    O20-   C37-   O21-   C38
    84     85     87     88      9   180.00   0.00000   3 ;    O20-   C37-   O21-   C38
    84     85     87     88      9   180.00   4.05848   1 ;    O20-   C37-   O21-   C38
    84     85     95     96      9     0.00   0.00000   0 ;    O20-   C37-   C41-   H33
    84     85     95     96      9     0.00   1.04600   1 ;    O20-   C37-   C41-   H33
    84     85     95     97      9     0.00   0.00000   0 ;    O20-   C37-   C41-   O23
    84     85     95     97      9   180.00   0.00000   2 ;    O20-   C37-   C41-   O23
    84     85     95     97      9   180.00   0.71128   1 ;    O20-   C37-   C41-   O23
    84     85     95     99      9     0.00   0.65084   3 ;    O20-   C37-   C41-   C43
    85     87     88     89      9     0.00   1.41001   3 ;    C37-   O21-   C38-   H30
    85     87     88     90      9     0.00   0.00000   0 ;    C37-   O21-   C38-   C39
    85     87     88     90      9     0.00   0.66944   2 ;    C37-   O21-   C38-   C39
    85     87     88     90      9     0.00   1.00416   3 ;    C37-   O21-   C38-   C39
    85     87     88    103      9     0.00   0.00000   0 ;    C37-   O21-   C38-   C45
    85     87     88    103      9     0.00   0.66944   2 ;    C37-   O21-   C38-   C45
    85     87     88    103      9     0.00   1.00416   3 ;    C37-   O21-   C38-   C45
    85     95     97     98      9     0.00   0.00000   0 ;    C37-   C41-   O23-   C42
    85     95     97     98      9     0.00   0.66944   2 ;    C37-   C41-   O23-   C42
    85     95     97     98      9     0.00   1.00416   3 ;    C37-   C41-   O23-   C42
    85     95     99    100      9     0.00   0.65084   3 ;    C37-   C41-   C43-   H34
    85     95     99    101      9     0.00   0.65084   3 ;    C37-   C41-   C43-   O24
    85     95     99    103      9     0.00   0.46024   1 ;    C37-   C41-   C43-   C45
    85     95     99    103      9     0.00   0.54392   3 ;    C37-   C41-   C43-   C45
    85     95     99    103      9   180.00   1.21336   2 ;    C37-   C41-   C43-   C45
    86     85     87     88      9     0.00   1.60387   3 ;    H29-   C37-   O21-   C38
    86     85     95     96      9     0.00   0.65084   3 ;    H29-   C37-   C41-   H33
    86     85     95     97      9     0.00   0.65084   3 ;    H29-   C37-   C41-   O23
    86     85     95     99      9     0.00   0.65084   3 ;    H29-   C37-   C41-   C43
    87     85     95     96      9     0.00   0.00000   0 ;    O21-   C37-   C41-   H33
    87     85     95     96      9     0.00   1.04600   1 ;    O21-   C37-   C41-   H33
    87     85     95     97      9     0.00   0.00000   0 ;    O21-   C37-   C41-   O23
    87     85     95     97      9   180.00   0.00000   2 ;    O21-   C37-   C41-   O23
    87     85     95     97      9   180.00   0.71128   1 ;    O21-   C37-   C41-   O23
    87     85     95     99      9     0.00   0.65084   3 ;    O21-   C37-   C41-   C43
    87     88     90     91      9     0.00   0.00000   0 ;    O21-   C38-   C39-   H31
    87     88     90     91      9     0.00   1.04600   1 ;    O21-   C38-   C39-   H31
    87     88     90     92      9     0.00   0.00000   0 ;    O21-   C38-   C39-   H32
    87     88     90     92      9     0.00   1.04600   1 ;    O21-   C38-   C39-   H32
    87     88     90     93      9     0.00   0.00000   0 ;    O21-   C38-   C39-   O22
    87     88     90     93      9   180.00   0.00000   2 ;    O21-   C38-   C39-   O22
    87     88     90     93      9   180.00   0.71128   1 ;    O21-   C38-   C39-   O22
    87     88    103     99      9     0.00   0.65084   3 ;    O21-   C38-   C45-   C43
    87     88    103    104      9     0.00   0.00000   0 ;    O21-   C38-   C45-   H35
    87     88    103    104      9     0.00   1.04600   1 ;    O21-   C38-   C45-   H35
    87     88    103    105      9     0.00   0.00000   0 ;    O21-   C38-   C45-   O25
    87     88    103    105      9   180.00   0.00000   2 ;    O21-   C38-   C45-   O25
    87     88    103    105      9   180.00   0.71128   1 ;    O21-   C38-   C45-   O25
    88     87     85     95      9     0.00   0.00000   0 ;    C38-   O21-   C37-   C41
    88     87     85     95      9     0.00   0.66944   2 ;    C38-   O21-   C37-   C41
    88     87     85     95      9     0.00   1.00416   3 ;    C38-   O21-   C37-   C41
    88     90     93     94      9     0.00   0.00000   0 ;    C38-   C39-   O22-   C40
    88     90     93     94      9     0.00   0.66944   2 ;    C38-   C39-   O22-   C40
    88     90     93     94      9     0.00   1.00416   3 ;    C38-   C39-   O22-   C40
    88    103     99     95      9     0.00   0.46024   1 ;    C38-   C45-   C43-   C41
    88    103     99     95      9     0.00   0.54392   3 ;    C38-   C45-   C43-   C41
    88    103     99     95      9   180.00   1.21336   2 ;    C38-   C45-   C43-   C41
    88    103     99    100      9     0.00   0.65084   3 ;    C38-   C45-   C43-   H34
    88    103     99    101      9     0.00   0.65084   3 ;    C38-   C45-   C43-   O24
    88    103    105    106      9     0.00   0.00000   0 ;    C38-   C45-   O25-   C46
    88    103    105    106      9     0.00   0.66944   2 ;    C38-   C45-   O25-   C46
    88    103    105    106      9     0.00   1.00416   3 ;    C38-   C45-   O25-   C46
    89     88     90     91      9     0.00   0.65084   3 ;    H30-   C38-   C39-   H31
    89     88     90     92      9     0.00   0.65084   3 ;    H30-   C38-   C39-   H32
    89     88     90     93      9     0.00   0.00000   0 ;    H30-   C38-   C39-   O22
    89     88     90     93      9     0.00   1.04600   1 ;    H30-   C38-   C39-   O22
    89     88    103     99      9     0.00   0.65084   3 ;    H30-   C38-   C45-   C43
    89     88    103    104      9     0.00   0.65084   3 ;    H30-   C38-   C45-   H35
    89     88    103    105      9     0.00   0.00000   0 ;    H30-   C38-   C45-   O25
    89     88    103    105      9     0.00   1.04600   1 ;    H30-   C38-   C45-   O25
    90     88    103     99      9     0.00   0.46024   1 ;    C39-   C38-   C45-   C43
    90     88    103     99      9     0.00   0.54392   3 ;    C39-   C38-   C45-   C43
    90     88    103     99      9   180.00   1.21336   2 ;    C39-   C38-   C45-   C43
    90     88    103    104      9     0.00   0.65084   3 ;    C39-   C38-   C45-   H35
    90     88    103    105      9     0.00   0.65084   3 ;    C39-   C38-   C45-   O25
    90     93     94    181      9     0.00   1.41001   3 ;    C39-   O22-   C40-   H69
    90     93     94    182      9     0.00   1.41001   3 ;    C39-   O22-   C40-   H70
    90     93     94    183      9     0.00   1.41001   3 ;    C39-   O22-   C40-   H71
    91     90     88    103      9     0.00   0.65084   3 ;    H31-   C39-   C38-   C45
    91     90     93     94      9     0.00   1.41001   3 ;    H31-   C39-   O22-   C40
    92     90     88    103      9     0.00   0.65084   3 ;    H32-   C39-   C38-   C45
    92     90     93     94      9     0.00   1.41001   3 ;    H32-   C39-   O22-   C40
    93     90     88    103      9     0.00   0.65084   3 ;    O22-   C39-   C38-   C45
    95     97     98    226      9     0.00   1.41001   3 ;    C41-   O23-   C42-  H114
    95     97     98    227      9     0.00   1.41001   3 ;    C41-   O23-   C42-  H115
    95     97     98    228      9     0.00   1.41001   3 ;    C41-   O23-   C42-  H116
    95     99    101    102      9     0.00   0.00000   0 ;    C41-   C43-   O24-   C44
    95     99    101    102      9     0.00   0.66944   2 ;    C41-   C43-   O24-   C44
    95     99    101    102      9     0.00   1.00416   3 ;    C41-   C43-   O24-   C44
    95     99    103    104      9     0.00   0.65084   3 ;    C41-   C43-   C45-   H35
    95     99    103    105      9     0.00   0.65084   3 ;    C41-   C43-   C45-   O25
    96     95     97     98      9     0.00   1.41001   3 ;    H33-   C41-   O23-   C42
    96     95     99    100      9     0.00   0.65084   3 ;    H33-   C41-   C43-   H34
    96     95     99    101      9     0.00   0.00000   0 ;    H33-   C41-   C43-   O24
    96     95     99    101      9     0.00   1.04600   1 ;    H33-   C41-   C43-   O24
    96     95     99    103      9     0.00   0.65084   3 ;    H33-   C41-   C43-   C45
    97     95     99    100      9     0.00   0.00000   0 ;    O23-   C41-   C43-   H34
    97     95     99    100      9     0.00   1.04600   1 ;    O23-   C41-   C43-   H34
    97     95     99    101      9     0.00   0.00000   0 ;    O23-   C41-   C43-   O24
    97     95     99    101      9   180.00   0.00000   2 ;    O23-   C41-   C43-   O24
    97     95     99    101      9   180.00   0.71128   1 ;    O23-   C41-   C43-   O24
    97     95     99    103      9     0.00   0.65084   3 ;    O23-   C41-   C43-   C45
    98     97     95     99      9     0.00   0.00000   0 ;    C42-   O23-   C41-   C43
    98     97     95     99      9     0.00   0.66944   2 ;    C42-   O23-   C41-   C43
    98     97     95     99      9     0.00   1.00416   3 ;    C42-   O23-   C41-   C43
    99    101    102    223      9     0.00   1.41001   3 ;    C43-   O24-   C44-  H111
    99    101    102    224      9     0.00   1.41001   3 ;    C43-   O24-   C44-  H112
    99    101    102    225      9     0.00   1.41001   3 ;    C43-   O24-   C44-  H113
    99    103    105    106      9     0.00   0.00000   0 ;    C43-   C45-   O25-   C46
    99    103    105    106      9     0.00   0.66944   2 ;    C43-   C45-   O25-   C46
    99    103    105    106      9     0.00   1.00416   3 ;    C43-   C45-   O25-   C46
   100     99    101    102      9     0.00   1.41001   3 ;    H34-   C43-   O24-   C44
   100     99    103    104      9     0.00   0.65084   3 ;    H34-   C43-   C45-   H35
   100     99    103    105      9     0.00   0.00000   0 ;    H34-   C43-   C45-   O25
   100     99    103    105      9     0.00   1.04600   1 ;    H34-   C43-   C45-   O25
   101     99    103    104      9     0.00   0.00000   0 ;    O24-   C43-   C45-   H35
   101     99    103    104      9     0.00   1.04600   1 ;    O24-   C43-   C45-   H35
   101     99    103    105      9     0.00   0.00000   0 ;    O24-   C43-   C45-   O25
   101     99    103    105      9   180.00   0.00000   2 ;    O24-   C43-   C45-   O25
   101     99    103    105      9   180.00   0.71128   1 ;    O24-   C43-   C45-   O25
   102    101     99    103      9     0.00   0.00000   0 ;    C44-   O24-   C43-   C45
   102    101     99    103      9     0.00   0.66944   2 ;    C44-   O24-   C43-   C45
   102    101     99    103      9     0.00   1.00416   3 ;    C44-   O24-   C43-   C45
   103    105    106    107      9     0.00   1.60387   3 ;    C45-   O25-   C46-   H36
   103    105    106    108      9     0.00   5.18816   2 ;    C45-   O25-   C46-   O26
   103    105    106    108      9   180.00   0.00000   3 ;    C45-   O25-   C46-   O26
   103    105    106    108      9   180.00   4.05848   1 ;    C45-   O25-   C46-   O26
   103    105    106    116      9     0.00   0.00000   0 ;    C45-   O25-   C46-   C50
   103    105    106    116      9     0.00   0.66944   2 ;    C45-   O25-   C46-   C50
   103    105    106    116      9     0.00   1.00416   3 ;    C45-   O25-   C46-   C50
   104    103    105    106      9     0.00   1.41001   3 ;    H35-   C45-   O25-   C46
   105    106    108    109      9     0.00   5.18816   2 ;    O25-   C46-   O26-   C47
   105    106    108    109      9   180.00   0.00000   3 ;    O25-   C46-   O26-   C47
   105    106    108    109      9   180.00   4.05848   1 ;    O25-   C46-   O26-   C47
   105    106    116    117      9     0.00   0.00000   0 ;    O25-   C46-   C50-   H40
   105    106    116    117      9     0.00   1.04600   1 ;    O25-   C46-   C50-   H40
   105    106    116    118      9     0.00   0.00000   0 ;    O25-   C46-   C50-   O28
   105    106    116    118      9   180.00   0.00000   2 ;    O25-   C46-   C50-   O28
   105    106    116    118      9   180.00   0.71128   1 ;    O25-   C46-   C50-   O28
   105    106    116    120      9     0.00   0.65084   3 ;    O25-   C46-   C50-   C52
   106    108    109    110      9     0.00   1.41001   3 ;    C46-   O26-   C47-   H37
   106    108    109    111      9     0.00   0.00000   0 ;    C46-   O26-   C47-   C48
   106    108    109    111      9     0.00   0.66944   2 ;    C46-   O26-   C47-   C48
   106    108    109    111      9     0.00   1.00416   3 ;    C46-   O26-   C47-   C48
   106    108    109    124      9     0.00   0.00000   0 ;    C46-   O26-   C47-   C54
   106    108    109    124      9     0.00   0.66944   2 ;    C46-   O26-   C47-   C54
   106    108    109    124      9     0.00   1.00416   3 ;    C46-   O26-   C47-   C54
   106    116    118    119      9     0.00   0.00000   0 ;    C46-   C50-   O28-   C51
   106    116    118    119      9     0.00   0.66944   2 ;    C46-   C50-   O28-   C51
   106    116    118    119      9     0.00   1.00416   3 ;    C46-   C50-   O28-   C51
   106    116    120    121      9     0.00   0.65084   3 ;    C46-   C50-   C52-   H41
   106    116    120    122      9     0.00   0.65084   3 ;    C46-   C50-   C52-   O29
   106    116    120    124      9     0.00   0.46024   1 ;    C46-   C50-   C52-   C54
   106    116    120    124      9     0.00   0.54392   3 ;    C46-   C50-   C52-   C54
   106    116    120    124      9   180.00   1.21336   2 ;    C46-   C50-   C52-   C54
   107    106    108    109      9     0.00   1.60387   3 ;    H36-   C46-   O26-   C47
   107    106    116    117      9     0.00   0.65084   3 ;    H36-   C46-   C50-   H40
   107    106    116    118      9     0.00   0.65084   3 ;    H36-   C46-   C50-   O28
   107    106    116    120      9     0.00   0.65084   3 ;    H36-   C46-   C50-   C52
   108    106    116    117      9     0.00   0.00000   0 ;    O26-   C46-   C50-   H40
   108    106    116    117      9     0.00   1.04600   1 ;    O26-   C46-   C50-   H40
   108    106    116    118      9     0.00   0.00000   0 ;    O26-   C46-   C50-   O28
   108    106    116    118      9   180.00   0.00000   2 ;    O26-   C46-   C50-   O28
   108    106    116    118      9   180.00   0.71128   1 ;    O26-   C46-   C50-   O28
   108    106    116    120      9     0.00   0.65084   3 ;    O26-   C46-   C50-   C52
   108    109    111    112      9     0.00   0.00000   0 ;    O26-   C47-   C48-   H38
   108    109    111    112      9     0.00   1.04600   1 ;    O26-   C47-   C48-   H38
   108    109    111    113      9     0.00   0.00000   0 ;    O26-   C47-   C48-   H39
   108    109    111    113      9     0.00   1.04600   1 ;    O26-   C47-   C48-   H39
   108    109    111    114      9     0.00   0.00000   0 ;    O26-   C47-   C48-   O27
   108    109    111    114      9   180.00   0.00000   2 ;    O26-   C47-   C48-   O27
   108    109    111    114      9   180.00   0.71128   1 ;    O26-   C47-   C48-   O27
   108    109    124    120      9     0.00   0.65084   3 ;    O26-   C47-   C54-   C52
   108    109    124    125      9     0.00   0.00000   0 ;    O26-   C47-   C54-   H42
   108    109    124    125      9     0.00   1.04600   1 ;    O26-   C47-   C54-   H42
   108    109    124    126      9     0.00   0.00000   0 ;    O26-   C47-   C54-   O30
   108    109    124    126      9   180.00   0.00000   2 ;    O26-   C47-   C54-   O30
   108    109    124    126      9   180.00   0.71128   1 ;    O26-   C47-   C54-   O30
   109    108    106    116      9     0.00   0.00000   0 ;    C47-   O26-   C46-   C50
   109    108    106    116      9     0.00   0.66944   2 ;    C47-   O26-   C46-   C50
   109    108    106    116      9     0.00   1.00416   3 ;    C47-   O26-   C46-   C50
   109    111    114    115      9     0.00   0.00000   0 ;    C47-   C48-   O27-   C49
   109    111    114    115      9     0.00   0.66944   2 ;    C47-   C48-   O27-   C49
   109    111    114    115      9     0.00   1.00416   3 ;    C47-   C48-   O27-   C49
   109    124    120    116      9     0.00   0.46024   1 ;    C47-   C54-   C52-   C50
   109    124    120    116      9     0.00   0.54392   3 ;    C47-   C54-   C52-   C50
   109    124    120    116      9   180.00   1.21336   2 ;    C47-   C54-   C52-   C50
   109    124    120    121      9     0.00   0.65084   3 ;    C47-   C54-   C52-   H41
   109    124    120    122      9     0.00   0.65084   3 ;    C47-   C54-   C52-   O29
   109    124    126    127      9     0.00   0.00000   0 ;    C47-   C54-   O30-   C55
   109    124    126    127      9     0.00   0.66944   2 ;    C47-   C54-   O30-   C55
   109    124    126    127      9     0.00   1.00416   3 ;    C47-   C54-   O30-   C55
   110    109    111    112      9     0.00   0.65084   3 ;    H37-   C47-   C48-   H38
   110    109    111    113      9     0.00   0.65084   3 ;    H37-   C47-   C48-   H39
   110    109    111    114      9     0.00   0.00000   0 ;    H37-   C47-   C48-   O27
   110    109    111    114      9     0.00   1.04600   1 ;    H37-   C47-   C48-   O27
   110    109    124    120      9     0.00   0.65084   3 ;    H37-   C47-   C54-   C52
   110    109    124    125      9     0.00   0.65084   3 ;    H37-   C47-   C54-   H42
   110    109    124    126      9     0.00   0.00000   0 ;    H37-   C47-   C54-   O30
   110    109    124    126      9     0.00   1.04600   1 ;    H37-   C47-   C54-   O30
   111    109    124    120      9     0.00   0.46024   1 ;    C48-   C47-   C54-   C52
   111    109    124    120      9     0.00   0.54392   3 ;    C48-   C47-   C54-   C52
   111    109    124    120      9   180.00   1.21336   2 ;    C48-   C47-   C54-   C52
   111    109    124    125      9     0.00   0.65084   3 ;    C48-   C47-   C54-   H42
   111    109    124    126      9     0.00   0.65084   3 ;    C48-   C47-   C54-   O30
   111    114    115    178      9     0.00   1.41001   3 ;    C48-   O27-   C49-   H66
   111    114    115    179      9     0.00   1.41001   3 ;    C48-   O27-   C49-   H67
   111    114    115    180      9     0.00   1.41001   3 ;    C48-   O27-   C49-   H68
   112    111    109    124      9     0.00   0.65084   3 ;    H38-   C48-   C47-   C54
   112    111    114    115      9     0.00   1.41001   3 ;    H38-   C48-   O27-   C49
   113    111    109    124      9     0.00   0.65084   3 ;    H39-   C48-   C47-   C54
   113    111    114    115      9     0.00   1.41001   3 ;    H39-   C48-   O27-   C49
   114    111    109    124      9     0.00   0.65084   3 ;    O27-   C48-   C47-   C54
   116    118    119    220      9     0.00   1.41001   3 ;    C50-   O28-   C51-  H108
   116    118    119    221      9     0.00   1.41001   3 ;    C50-   O28-   C51-  H109
   116    118    119    222      9     0.00   1.41001   3 ;    C50-   O28-   C51-  H110
   116    120    122    123      9     0.00   0.00000   0 ;    C50-   C52-   O29-   C53
   116    120    122    123      9     0.00   0.66944   2 ;    C50-   C52-   O29-   C53
   116    120    122    123      9     0.00   1.00416   3 ;    C50-   C52-   O29-   C53
   116    120    124    125      9     0.00   0.65084   3 ;    C50-   C52-   C54-   H42
   116    120    124    126      9     0.00   0.65084   3 ;    C50-   C52-   C54-   O30
   117    116    118    119      9     0.00   1.41001   3 ;    H40-   C50-   O28-   C51
   117    116    120    121      9     0.00   0.65084   3 ;    H40-   C50-   C52-   H41
   117    116    120    122      9     0.00   0.00000   0 ;    H40-   C50-   C52-   O29
   117    116    120    122      9     0.00   1.04600   1 ;    H40-   C50-   C52-   O29
   117    116    120    124      9     0.00   0.65084   3 ;    H40-   C50-   C52-   C54
   118    116    120    121      9     0.00   0.00000   0 ;    O28-   C50-   C52-   H41
   118    116    120    121      9     0.00   1.04600   1 ;    O28-   C50-   C52-   H41
   118    116    120    122      9     0.00   0.00000   0 ;    O28-   C50-   C52-   O29
   118    116    120    122      9   180.00   0.00000   2 ;    O28-   C50-   C52-   O29
   118    116    120    122      9   180.00   0.71128   1 ;    O28-   C50-   C52-   O29
   118    116    120    124      9     0.00   0.65084   3 ;    O28-   C50-   C52-   C54
   119    118    116    120      9     0.00   0.00000   0 ;    C51-   O28-   C50-   C52
   119    118    116    120      9     0.00   0.66944   2 ;    C51-   O28-   C50-   C52
   119    118    116    120      9     0.00   1.00416   3 ;    C51-   O28-   C50-   C52
   120    122    123    217      9     0.00   1.41001   3 ;    C52-   O29-   C53-  H105
   120    122    123    218      9     0.00   1.41001   3 ;    C52-   O29-   C53-  H106
   120    122    123    219      9     0.00   1.41001   3 ;    C52-   O29-   C53-  H107
   120    124    126    127      9     0.00   0.00000   0 ;    C52-   C54-   O30-   C55
   120    124    126    127      9     0.00   0.66944   2 ;    C52-   C54-   O30-   C55
   120    124    126    127      9     0.00   1.00416   3 ;    C52-   C54-   O30-   C55
   121    120    122    123      9     0.00   1.41001   3 ;    H41-   C52-   O29-   C53
   121    120    124    125      9     0.00   0.65084   3 ;    H41-   C52-   C54-   H42
   121    120    124    126      9     0.00   0.00000   0 ;    H41-   C52-   C54-   O30
   121    120    124    126      9     0.00   1.04600   1 ;    H41-   C52-   C54-   O30
   122    120    124    125      9     0.00   0.00000   0 ;    O29-   C52-   C54-   H42
   122    120    124    125      9     0.00   1.04600   1 ;    O29-   C52-   C54-   H42
   122    120    124    126      9     0.00   0.00000   0 ;    O29-   C52-   C54-   O30
   122    120    124    126      9   180.00   0.00000   2 ;    O29-   C52-   C54-   O30
   122    120    124    126      9   180.00   0.71128   1 ;    O29-   C52-   C54-   O30
   123    122    120    124      9     0.00   0.00000   0 ;    C53-   O29-   C52-   C54
   123    122    120    124      9     0.00   0.66944   2 ;    C53-   O29-   C52-   C54
   123    122    120    124      9     0.00   1.00416   3 ;    C53-   O29-   C52-   C54
   124    126    127    128      9     0.00   1.60387   3 ;    C54-   O30-   C55-   H43
   124    126    127    129      9     0.00   5.18816   2 ;    C54-   O30-   C55-   O31
   124    126    127    129      9   180.00   0.00000   3 ;    C54-   O30-   C55-   O31
   124    126    127    129      9   180.00   4.05848   1 ;    C54-   O30-   C55-   O31
   124    126    127    137      9     0.00   0.00000   0 ;    C54-   O30-   C55-   C59
   124    126    127    137      9     0.00   0.66944   2 ;    C54-   O30-   C55-   C59
   124    126    127    137      9     0.00   1.00416   3 ;    C54-   O30-   C55-   C59
   125    124    126    127      9     0.00   1.41001   3 ;    H42-   C54-   O30-   C55
   126    127    129    130      9     0.00   5.18816   2 ;    O30-   C55-   O31-   C56
   126    127    129    130      9   180.00   0.00000   3 ;    O30-   C55-   O31-   C56
   126    127    129    130      9   180.00   4.05848   1 ;    O30-   C55-   O31-   C56
   126    127    137    138      9     0.00   0.00000   0 ;    O30-   C55-   C59-   H47
   126    127    137    138      9     0.00   1.04600   1 ;    O30-   C55-   C59-   H47
   126    127    137    139      9     0.00   0.00000   0 ;    O30-   C55-   C59-   O33
   126    127    137    139      9   180.00   0.00000   2 ;    O30-   C55-   C59-   O33
   126    127    137    139      9   180.00   0.71128   1 ;    O30-   C55-   C59-   O33
   126    127    137    141      9     0.00   0.65084   3 ;    O30-   C55-   C59-   C61
   127    129    130    131      9     0.00   1.41001   3 ;    C55-   O31-   C56-   H44
   127    129    130    132      9     0.00   0.00000   0 ;    C55-   O31-   C56-   C57
   127    129    130    132      9     0.00   0.66944   2 ;    C55-   O31-   C56-   C57
   127    129    130    132      9     0.00   1.00416   3 ;    C55-   O31-   C56-   C57
   127    129    130    145      9     0.00   0.00000   0 ;    C55-   O31-   C56-   C63
   127    129    130    145      9     0.00   0.66944   2 ;    C55-   O31-   C56-   C63
   127    129    130    145      9     0.00   1.00416   3 ;    C55-   O31-   C56-   C63
   127    137    139    140      9     0.00   0.00000   0 ;    C55-   C59-   O33-   C60
   127    137    139    140      9     0.00   0.66944   2 ;    C55-   C59-   O33-   C60
   127    137    139    140      9     0.00   1.00416   3 ;    C55-   C59-   O33-   C60
   127    137    141    142      9     0.00   0.65084   3 ;    C55-   C59-   C61-   H48
   127    137    141    143      9     0.00   0.65084   3 ;    C55-   C59-   C61-   O34
   127    137    141    145      9     0.00   0.46024   1 ;    C55-   C59-   C61-   C63
   127    137    141    145      9     0.00   0.54392   3 ;    C55-   C59-   C61-   C63
   127    137    141    145      9   180.00   1.21336   2 ;    C55-   C59-   C61-   C63
   128    127    129    130      9     0.00   1.60387   3 ;    H43-   C55-   O31-   C56
   128    127    137    138      9     0.00   0.65084   3 ;    H43-   C55-   C59-   H47
   128    127    137    139      9     0.00   0.65084   3 ;    H43-   C55-   C59-   O33
   128    127    137    141      9     0.00   0.65084   3 ;    H43-   C55-   C59-   C61
   129    127    137    138      9     0.00   0.00000   0 ;    O31-   C55-   C59-   H47
   129    127    137    138      9     0.00   1.04600   1 ;    O31-   C55-   C59-   H47
   129    127    137    139      9     0.00   0.00000   0 ;    O31-   C55-   C59-   O33
   129    127    137    139      9   180.00   0.00000   2 ;    O31-   C55-   C59-   O33
   129    127    137    139      9   180.00   0.71128   1 ;    O31-   C55-   C59-   O33
   129    127    137    141      9     0.00   0.65084   3 ;    O31-   C55-   C59-   C61
   129    130    132    133      9     0.00   0.00000   0 ;    O31-   C56-   C57-   H45
   129    130    132    133      9     0.00   1.04600   1 ;    O31-   C56-   C57-   H45
   129    130    132    134      9     0.00   0.00000   0 ;    O31-   C56-   C57-   H46
   129    130    132    134      9     0.00   1.04600   1 ;    O31-   C56-   C57-   H46
   129    130    132    135      9     0.00   0.00000   0 ;    O31-   C56-   C57-   O32
   129    130    132    135      9   180.00   0.00000   2 ;    O31-   C56-   C57-   O32
   129    130    132    135      9   180.00   0.71128   1 ;    O31-   C56-   C57-   O32
   129    130    145    141      9     0.00   0.65084   3 ;    O31-   C56-   C63-   C61
   129    130    145    146      9     0.00   0.00000   0 ;    O31-   C56-   C63-   H49
   129    130    145    146      9     0.00   1.04600   1 ;    O31-   C56-   C63-   H49
   129    130    145    147      9     0.00   0.00000   0 ;    O31-   C56-   C63-   O35
   129    130    145    147      9   180.00   0.00000   2 ;    O31-   C56-   C63-   O35
   129    130    145    147      9   180.00   0.71128   1 ;    O31-   C56-   C63-   O35
   130    129    127    137      9     0.00   0.00000   0 ;    C56-   O31-   C55-   C59
   130    129    127    137      9     0.00   0.66944   2 ;    C56-   O31-   C55-   C59
   130    129    127    137      9     0.00   1.00416   3 ;    C56-   O31-   C55-   C59
   130    132    135    136      9     0.00   0.00000   0 ;    C56-   C57-   O32-   C58
   130    132    135    136      9     0.00   0.66944   2 ;    C56-   C57-   O32-   C58
   130    132    135    136      9     0.00   1.00416   3 ;    C56-   C57-   O32-   C58
   130    145    141    137      9     0.00   0.46024   1 ;    C56-   C63-   C61-   C59
   130    145    141    137      9     0.00   0.54392   3 ;    C56-   C63-   C61-   C59
   130    145    141    137      9   180.00   1.21336   2 ;    C56-   C63-   C61-   C59
   130    145    141    142      9     0.00   0.65084   3 ;    C56-   C63-   C61-   H48
   130    145    141    143      9     0.00   0.65084   3 ;    C56-   C63-   C61-   O34
   130    145    147    148      9     0.00   0.00000   0 ;    C56-   C63-   O35-   C64
   130    145    147    148      9     0.00   0.66944   2 ;    C56-   C63-   O35-   C64
   130    145    147    148      9     0.00   1.00416   3 ;    C56-   C63-   O35-   C64
   131    130    132    133      9     0.00   0.65084   3 ;    H44-   C56-   C57-   H45
   131    130    132    134      9     0.00   0.65084   3 ;    H44-   C56-   C57-   H46
   131    130    132    135      9     0.00   0.00000   0 ;    H44-   C56-   C57-   O32
   131    130    132    135      9     0.00   1.04600   1 ;    H44-   C56-   C57-   O32
   131    130    145    141      9     0.00   0.65084   3 ;    H44-   C56-   C63-   C61
   131    130    145    146      9     0.00   0.65084   3 ;    H44-   C56-   C63-   H49
   131    130    145    147      9     0.00   0.00000   0 ;    H44-   C56-   C63-   O35
   131    130    145    147      9     0.00   1.04600   1 ;    H44-   C56-   C63-   O35
   132    130    145    141      9     0.00   0.46024   1 ;    C57-   C56-   C63-   C61
   132    130    145    141      9     0.00   0.54392   3 ;    C57-   C56-   C63-   C61
   132    130    145    141      9   180.00   1.21336   2 ;    C57-   C56-   C63-   C61
   132    130    145    146      9     0.00   0.65084   3 ;    C57-   C56-   C63-   H49
   132    130    145    147      9     0.00   0.65084   3 ;    C57-   C56-   C63-   O35
   132    135    136    175      9     0.00   1.41001   3 ;    C57-   O32-   C58-   H63
   132    135    136    176      9     0.00   1.41001   3 ;    C57-   O32-   C58-   H64
   132    135    136    177      9     0.00   1.41001   3 ;    C57-   O32-   C58-   H65
   133    132    130    145      9     0.00   0.65084   3 ;    H45-   C57-   C56-   C63
   133    132    135    136      9     0.00   1.41001   3 ;    H45-   C57-   O32-   C58
   134    132    130    145      9     0.00   0.65084   3 ;    H46-   C57-   C56-   C63
   134    132    135    136      9     0.00   1.41001   3 ;    H46-   C57-   O32-   C58
   135    132    130    145      9     0.00   0.65084   3 ;    O32-   C57-   C56-   C63
   137    139    140    214      9     0.00   1.41001   3 ;    C59-   O33-   C60-  H102
   137    139    140    215      9     0.00   1.41001   3 ;    C59-   O33-   C60-  H103
   137    139    140    216      9     0.00   1.41001   3 ;    C59-   O33-   C60-  H104
   137    141    143    144      9     0.00   0.00000   0 ;    C59-   C61-   O34-   C62
   137    141    143    144      9     0.00   0.66944   2 ;    C59-   C61-   O34-   C62
   137    141    143    144      9     0.00   1.00416   3 ;    C59-   C61-   O34-   C62
   137    141    145    146      9     0.00   0.65084   3 ;    C59-   C61-   C63-   H49
   137    141    145    147      9     0.00   0.65084   3 ;    C59-   C61-   C63-   O35
   138    137    139    140      9     0.00   1.41001   3 ;    H47-   C59-   O33-   C60
   138    137    141    142      9     0.00   0.65084   3 ;    H47-   C59-   C61-   H48
   138    137    141    143      9     0.00   0.00000   0 ;    H47-   C59-   C61-   O34
   138    137    141    143      9     0.00   1.04600   1 ;    H47-   C59-   C61-   O34
   138    137    141    145      9     0.00   0.65084   3 ;    H47-   C59-   C61-   C63
   139    137    141    142      9     0.00   0.00000   0 ;    O33-   C59-   C61-   H48
   139    137    141    142      9     0.00   1.04600   1 ;    O33-   C59-   C61-   H48
   139    137    141    143      9     0.00   0.00000   0 ;    O33-   C59-   C61-   O34
   139    137    141    143      9   180.00   0.00000   2 ;    O33-   C59-   C61-   O34
   139    137    141    143      9   180.00   0.71128   1 ;    O33-   C59-   C61-   O34
   139    137    141    145      9     0.00   0.65084   3 ;    O33-   C59-   C61-   C63
   140    139    137    141      9     0.00   0.00000   0 ;    C60-   O33-   C59-   C61
   140    139    137    141      9     0.00   0.66944   2 ;    C60-   O33-   C59-   C61
   140    139    137    141      9     0.00   1.00416   3 ;    C60-   O33-   C59-   C61
   141    143    144    211      9     0.00   1.41001   3 ;    C61-   O34-   C62-   H99
   141    143    144    212      9     0.00   1.41001   3 ;    C61-   O34-   C62-  H100
   141    143    144    213      9     0.00   1.41001   3 ;    C61-   O34-   C62-  H101
   141    145    147    148      9     0.00   0.00000   0 ;    C61-   C63-   O35-   C64
   141    145    147    148      9     0.00   0.66944   2 ;    C61-   C63-   O35-   C64
   141    145    147    148      9     0.00   1.00416   3 ;    C61-   C63-   O35-   C64
   142    141    143    144      9     0.00   1.41001   3 ;    H48-   C61-   O34-   C62
   142    141    145    146      9     0.00   0.65084   3 ;    H48-   C61-   C63-   H49
   142    141    145    147      9     0.00   0.00000   0 ;    H48-   C61-   C63-   O35
   142    141    145    147      9     0.00   1.04600   1 ;    H48-   C61-   C63-   O35
   143    141    145    146      9     0.00   0.00000   0 ;    O34-   C61-   C63-   H49
   143    141    145    146      9     0.00   1.04600   1 ;    O34-   C61-   C63-   H49
   143    141    145    147      9     0.00   0.00000   0 ;    O34-   C61-   C63-   O35
   143    141    145    147      9   180.00   0.00000   2 ;    O34-   C61-   C63-   O35
   143    141    145    147      9   180.00   0.71128   1 ;    O34-   C61-   C63-   O35
   144    143    141    145      9     0.00   0.00000   0 ;    C62-   O34-   C61-   C63
   144    143    141    145      9     0.00   0.66944   2 ;    C62-   O34-   C61-   C63
   144    143    141    145      9     0.00   1.00416   3 ;    C62-   O34-   C61-   C63
   145    147    148    149      9     0.00   1.60387   3 ;    C63-   O35-   C64-   H50
   145    147    148    150      9     0.00   5.18816   2 ;    C63-   O35-   C64-   O36
   145    147    148    150      9   180.00   0.00000   3 ;    C63-   O35-   C64-   O36
   145    147    148    150      9   180.00   4.05848   1 ;    C63-   O35-   C64-   O36
   145    147    148    158      9     0.00   0.00000   0 ;    C63-   O35-   C64-   C68
   145    147    148    158      9     0.00   0.66944   2 ;    C63-   O35-   C64-   C68
   145    147    148    158      9     0.00   1.00416   3 ;    C63-   O35-   C64-   C68
   146    145    147    148      9     0.00   1.41001   3 ;    H49-   C63-   O35-   C64
   147    148    150    151      9     0.00   5.18816   2 ;    O35-   C64-   O36-   C65
   147    148    150    151      9   180.00   0.00000   3 ;    O35-   C64-   O36-   C65
   147    148    150    151      9   180.00   4.05848   1 ;    O35-   C64-   O36-   C65
   147    148    158    159      9     0.00   0.00000   0 ;    O35-   C64-   C68-   H54
   147    148    158    159      9     0.00   1.04600   1 ;    O35-   C64-   C68-   H54
   147    148    158    160      9     0.00   0.00000   0 ;    O35-   C64-   C68-   O38
   147    148    158    160      9   180.00   0.00000   2 ;    O35-   C64-   C68-   O38
   147    148    158    160      9   180.00   0.71128   1 ;    O35-   C64-   C68-   O38
   147    148    158    162      9     0.00   0.65084   3 ;    O35-   C64-   C68-   C70
   148    150    151    152      9     0.00   1.41001   3 ;    C64-   O36-   C65-   H51
   148    150    151    153      9     0.00   0.00000   0 ;    C64-   O36-   C65-   C66
   148    150    151    153      9     0.00   0.66944   2 ;    C64-   O36-   C65-   C66
   148    150    151    153      9     0.00   1.00416   3 ;    C64-   O36-   C65-   C66
   148    150    151    166      9     0.00   0.00000   0 ;    C64-   O36-   C65-   C72
   148    150    151    166      9     0.00   0.66944   2 ;    C64-   O36-   C65-   C72
   148    150    151    166      9     0.00   1.00416   3 ;    C64-   O36-   C65-   C72
   148    158    160    161      9     0.00   0.00000   0 ;    C64-   C68-   O38-   C69
   148    158    160    161      9     0.00   0.66944   2 ;    C64-   C68-   O38-   C69
   148    158    160    161      9     0.00   1.00416   3 ;    C64-   C68-   O38-   C69
   148    158    162    163      9     0.00   0.65084   3 ;    C64-   C68-   C70-   H55
   148    158    162    164      9     0.00   0.65084   3 ;    C64-   C68-   C70-   O39
   148    158    162    166      9     0.00   0.46024   1 ;    C64-   C68-   C70-   C72
   148    158    162    166      9     0.00   0.54392   3 ;    C64-   C68-   C70-   C72
   148    158    162    166      9   180.00   1.21336   2 ;    C64-   C68-   C70-   C72
   149    148    150    151      9     0.00   1.60387   3 ;    H50-   C64-   O36-   C65
   149    148    158    159      9     0.00   0.65084   3 ;    H50-   C64-   C68-   H54
   149    148    158    160      9     0.00   0.65084   3 ;    H50-   C64-   C68-   O38
   149    148    158    162      9     0.00   0.65084   3 ;    H50-   C64-   C68-   C70
   150    148    158    159      9     0.00   0.00000   0 ;    O36-   C64-   C68-   H54
   150    148    158    159      9     0.00   1.04600   1 ;    O36-   C64-   C68-   H54
   150    148    158    160      9     0.00   0.00000   0 ;    O36-   C64-   C68-   O38
   150    148    158    160      9   180.00   0.00000   2 ;    O36-   C64-   C68-   O38
   150    148    158    160      9   180.00   0.71128   1 ;    O36-   C64-   C68-   O38
   150    148    158    162      9     0.00   0.65084   3 ;    O36-   C64-   C68-   C70
   150    151    153    154      9     0.00   0.00000   0 ;    O36-   C65-   C66-   H52
   150    151    153    154      9     0.00   1.04600   1 ;    O36-   C65-   C66-   H52
   150    151    153    155      9     0.00   0.00000   0 ;    O36-   C65-   C66-   H53
   150    151    153    155      9     0.00   1.04600   1 ;    O36-   C65-   C66-   H53
   150    151    153    156      9     0.00   0.00000   0 ;    O36-   C65-   C66-   O37
   150    151    153    156      9   180.00   0.00000   2 ;    O36-   C65-   C66-   O37
   150    151    153    156      9   180.00   0.71128   1 ;    O36-   C65-   C66-   O37
   150    151    166    162      9     0.00   0.65084   3 ;    O36-   C65-   C72-   C70
   150    151    166    167      9     0.00   0.00000   0 ;    O36-   C65-   C72-   H56
   150    151    166    167      9     0.00   1.04600   1 ;    O36-   C65-   C72-   H56
   150    151    166    168      9     0.00   0.00000   0 ;    O36-   C65-   C72-   O40
   150    151    166    168      9   180.00   0.00000   2 ;    O36-   C65-   C72-   O40
   150    151    166    168      9   180.00   0.71128   1 ;    O36-   C65-   C72-   O40
   151    150    148    158      9     0.00   0.00000   0 ;    C65-   O36-   C64-   C68
   151    150    148    158      9     0.00   0.66944   2 ;    C65-   O36-   C64-   C68
   151    150    148    158      9     0.00   1.00416   3 ;    C65-   O36-   C64-   C68
   151    153    156    157      9     0.00   0.00000   0 ;    C65-   C66-   O37-   C67
   151    153    156    157      9     0.00   0.66944   2 ;    C65-   C66-   O37-   C67
   151    153    156    157      9     0.00   1.00416   3 ;    C65-   C66-   O37-   C67
   151    166    162    158      9     0.00   0.46024   1 ;    C65-   C72-   C70-   C68
   151    166    162    158      9     0.00   0.54392   3 ;    C65-   C72-   C70-   C68
   151    166    162    158      9   180.00   1.21336   2 ;    C65-   C72-   C70-   C68
   151    166    162    163      9     0.00   0.65084   3 ;    C65-   C72-   C70-   H55
   151    166    162    164      9     0.00   0.65084   3 ;    C65-   C72-   C70-   O39
   152    151    153    154      9     0.00   0.65084   3 ;    H51-   C65-   C66-   H52
   152    151    153    155      9     0.00   0.65084   3 ;    H51-   C65-   C66-   H53
   152    151    153    156      9     0.00   0.00000   0 ;    H51-   C65-   C66-   O37
   152    151    153    156      9     0.00   1.04600   1 ;    H51-   C65-   C66-   O37
   152    151    166    162      9     0.00   0.65084   3 ;    H51-   C65-   C72-   C70
   152    151    166    167      9     0.00   0.65084   3 ;    H51-   C65-   C72-   H56
   152    151    166    168      9     0.00   0.00000   0 ;    H51-   C65-   C72-   O40
   152    151    166    168      9     0.00   1.04600   1 ;    H51-   C65-   C72-   O40
   153    151    166    162      9     0.00   0.46024   1 ;    C66-   C65-   C72-   C70
   153    151    166    162      9     0.00   0.54392   3 ;    C66-   C65-   C72-   C70
   153    151    166    162      9   180.00   1.21336   2 ;    C66-   C65-   C72-   C70
   153    151    166    167      9     0.00   0.65084   3 ;    C66-   C65-   C72-   H56
   153    151    166    168      9     0.00   0.65084   3 ;    C66-   C65-   C72-   O40
   153    156    157    172      9     0.00   1.41001   3 ;    C66-   O37-   C67-   H60
   153    156    157    173      9     0.00   1.41001   3 ;    C66-   O37-   C67-   H61
   153    156    157    174      9     0.00   1.41001   3 ;    C66-   O37-   C67-   H62
   154    153    151    166      9     0.00   0.65084   3 ;    H52-   C66-   C65-   C72
   154    153    156    157      9     0.00   1.41001   3 ;    H52-   C66-   O37-   C67
   155    153    151    166      9     0.00   0.65084   3 ;    H53-   C66-   C65-   C72
   155    153    156    157      9     0.00   1.41001   3 ;    H53-   C66-   O37-   C67
   156    153    151    166      9     0.00   0.65084   3 ;    O37-   C66-   C65-   C72
   158    160    161    208      9     0.00   1.41001   3 ;    C68-   O38-   C69-   H96
   158    160    161    209      9     0.00   1.41001   3 ;    C68-   O38-   C69-   H97
   158    160    161    210      9     0.00   1.41001   3 ;    C68-   O38-   C69-   H98
   158    162    164    165      9     0.00   0.00000   0 ;    C68-   C70-   O39-   C71
   158    162    164    165      9     0.00   0.66944   2 ;    C68-   C70-   O39-   C71
   158    162    164    165      9     0.00   1.00416   3 ;    C68-   C70-   O39-   C71
   158    162    166    167      9     0.00   0.65084   3 ;    C68-   C70-   C72-   H56
   158    162    166    168      9     0.00   0.65084   3 ;    C68-   C70-   C72-   O40
   159    158    160    161      9     0.00   1.41001   3 ;    H54-   C68-   O38-   C69
   159    158    162    163      9     0.00   0.65084   3 ;    H54-   C68-   C70-   H55
   159    158    162    164      9     0.00   0.00000   0 ;    H54-   C68-   C70-   O39
   159    158    162    164      9     0.00   1.04600   1 ;    H54-   C68-   C70-   O39
   159    158    162    166      9     0.00   0.65084   3 ;    H54-   C68-   C70-   C72
   160    158    162    163      9     0.00   0.00000   0 ;    O38-   C68-   C70-   H55
   160    158    162    163      9     0.00   1.04600   1 ;    O38-   C68-   C70-   H55
   160    158    162    164      9     0.00   0.00000   0 ;    O38-   C68-   C70-   O39
   160    158    162    164      9   180.00   0.00000   2 ;    O38-   C68-   C70-   O39
   160    158    162    164      9   180.00   0.71128   1 ;    O38-   C68-   C70-   O39
   160    158    162    166      9     0.00   0.65084   3 ;    O38-   C68-   C70-   C72
   161    160    158    162      9     0.00   0.00000   0 ;    C69-   O38-   C68-   C70
   161    160    158    162      9     0.00   0.66944   2 ;    C69-   O38-   C68-   C70
   161    160    158    162      9     0.00   1.00416   3 ;    C69-   O38-   C68-   C70
   162    164    165    205      9     0.00   1.41001   3 ;    C70-   O39-   C71-   H93
   162    164    165    206      9     0.00   1.41001   3 ;    C70-   O39-   C71-   H94
   162    164    165    207      9     0.00   1.41001   3 ;    C70-   O39-   C71-   H95
   163    162    164    165      9     0.00   1.41001   3 ;    H55-   C70-   O39-   C71
   163    162    166    167      9     0.00   0.65084   3 ;    H55-   C70-   C72-   H56
   163    162    166    168      9     0.00   0.00000   0 ;    H55-   C70-   C72-   O40
   163    162    166    168      9     0.00   1.04600   1 ;    H55-   C70-   C72-   O40
   164    162    166    167      9     0.00   0.00000   0 ;    O39-   C70-   C72-   H56
   164    162    166    167      9     0.00   1.04600   1 ;    O39-   C70-   C72-   H56
   164    162    166    168      9     0.00   0.00000   0 ;    O39-   C70-   C72-   O40
   164    162    166    168      9   180.00   0.00000   2 ;    O39-   C70-   C72-   O40
   164    162    166    168      9   180.00   0.71128   1 ;    O39-   C70-   C72-   O40
   165    164    162    166      9     0.00   0.00000   0 ;    C71-   O39-   C70-   C72
   165    164    162    166      9     0.00   0.66944   2 ;    C71-   O39-   C70-   C72
   165    164    162    166      9     0.00   1.00416   3 ;    C71-   O39-   C70-   C72
   168      1      3      4      9     0.00   5.18816   2 ;    O40-    C1-    O1-    C2
   168      1      3      4      9   180.00   0.00000   3 ;    O40-    C1-    O1-    C2
   168      1      3      4      9   180.00   4.05848   1 ;    O40-    C1-    O1-    C2
   168      1     11     12      9     0.00   0.00000   0 ;    O40-    C1-    C5-    H5
   168      1     11     12      9     0.00   1.04600   1 ;    O40-    C1-    C5-    H5
   168      1     11     13      9     0.00   0.00000   0 ;    O40-    C1-    C5-    O3
   168      1     11     13      9   180.00   0.00000   2 ;    O40-    C1-    C5-    O3
   168      1     11     13      9   180.00   0.71128   1 ;    O40-    C1-    C5-    O3
   168      1     11     15      9     0.00   0.65084   3 ;    O40-    C1-    C5-    C7
