; MOL_GMX.itp created by acpype (v: 2023.10.27) on Fri Aug 22 17:02:31 2025

[ moleculetype ]
;name            nrexcl
 MOL              3

[ atoms ]
;   nr  type  resi  res  atom  cgnr     charge      mass       ; qtot   bond_type
     1   c3     1   MOL    C1    1     0.170962     12.01000 ; qtot 0.171
     2   h2     1   MOL    H1    2     0.105402      1.00800 ; qtot 0.276
     3   os     1   MOL    O1    3    -0.364054     16.00000 ; qtot -0.088
     4   c3     1   MOL    C2    4     0.008385     12.01000 ; qtot -0.079
     5   h1     1   MOL    H2    5     0.119018      1.00800 ; qtot 0.040
     6   c3     1   MOL    C3    6     0.053365     12.01000 ; qtot 0.093
     7   h1     1   MOL    H3    7     0.056983      1.00800 ; qtot 0.150
     8   h1     1   MOL    H4    8     0.050439      1.00800 ; qtot 0.200
     9   os     1   MOL    O2    9    -0.220091     16.00000 ; qtot -0.020
    10   c3     1   MOL    C4   10    -0.130473     12.01000 ; qtot -0.150
    11   c3     1   MOL    C5   11     0.116186     12.01000 ; qtot -0.034
    12   h1     1   MOL    H5   12     0.056540      1.00800 ; qtot 0.023
    13   os     1   MOL    O3   13    -0.210194     16.00000 ; qtot -0.188
    14   c3     1   MOL    C6   14    -0.109261     12.01000 ; qtot -0.297
    15   c3     1   MOL    C7   15     0.027541     12.01000 ; qtot -0.269
    16   h1     1   MOL    H6   16     0.127333      1.00800 ; qtot -0.142
    17   os     1   MOL    O4   17    -0.342244     16.00000 ; qtot -0.484
    18   c3     1   MOL    C8   18    -0.031238     12.01000 ; qtot -0.515
    19   c3     1   MOL    C9   19     0.278313     12.01000 ; qtot -0.237
    20   h1     1   MOL    H7   20     0.037183      1.00800 ; qtot -0.200
    21   os     1   MOL    O5   21    -0.388554     16.00000 ; qtot -0.588
    22   c3     1   MOL   C10   22     0.081110     12.01000 ; qtot -0.507
    23   h2     1   MOL    H8   23     0.117598      1.00800 ; qtot -0.390
    24   os     1   MOL    O6   24    -0.353801     16.00000 ; qtot -0.744
    25   c3     1   MOL   C11   25    -0.057128     12.01000 ; qtot -0.801
    26   h1     1   MOL    H9   26     0.122859      1.00800 ; qtot -0.678
    27   c3     1   MOL   C12   27     0.249081     12.01000 ; qtot -0.429
    28   h1     1   MOL   H10   28     0.018831      1.00800 ; qtot -0.410
    29   h1     1   MOL   H11   29    -0.016825      1.00800 ; qtot -0.427
    30   os     1   MOL    O7   30    -0.300364     16.00000 ; qtot -0.727
    31   c3     1   MOL   C13   31    -0.105267     12.01000 ; qtot -0.832
    32   c3     1   MOL   C14   32     0.239500     12.01000 ; qtot -0.593
    33   h1     1   MOL   H12   33     0.040784      1.00800 ; qtot -0.552
    34   os     1   MOL    O8   34    -0.225857     16.00000 ; qtot -0.778
    35   c3     1   MOL   C15   35    -0.124496     12.01000 ; qtot -0.902
    36   c3     1   MOL   C16   36    -0.087698     12.01000 ; qtot -0.990
    37   h1     1   MOL   H13   37     0.145893      1.00800 ; qtot -0.844
    38   os     1   MOL    O9   38    -0.326811     16.00000 ; qtot -1.171
    39   c3     1   MOL   C17   39    -0.035358     12.01000 ; qtot -1.206
    40   c3     1   MOL   C18   40     0.311261     12.01000 ; qtot -0.895
    41   h1     1   MOL   H14   41     0.037701      1.00800 ; qtot -0.857
    42   os     1   MOL   O10   42    -0.368537     16.00000 ; qtot -1.226
    43   c3     1   MOL   C19   43     0.061164     12.01000 ; qtot -1.165
    44   h2     1   MOL   H15   44     0.120428      1.00800 ; qtot -1.044
    45   os     1   MOL   O11   45    -0.340726     16.00000 ; qtot -1.385
    46   c3     1   MOL   C20   46     0.025427     12.01000 ; qtot -1.360
    47   h1     1   MOL   H16   47     0.106442      1.00800 ; qtot -1.253
    48   c3     1   MOL   C21   48     0.147761     12.01000 ; qtot -1.105
    49   h1     1   MOL   H17   49     0.035562      1.00800 ; qtot -1.070
    50   h1     1   MOL   H18   50     0.028616      1.00800 ; qtot -1.041
    51   os     1   MOL   O12   51    -0.283223     16.00000 ; qtot -1.325
    52   c3     1   MOL   C22   52    -0.097018     12.01000 ; qtot -1.422
    53   c3     1   MOL   C23   53     0.199574     12.01000 ; qtot -1.222
    54   h1     1   MOL   H19   54     0.046033      1.00800 ; qtot -1.176
    55   os     1   MOL   O13   55    -0.212224     16.00000 ; qtot -1.388
    56   c3     1   MOL   C24   56    -0.140900     12.01000 ; qtot -1.529
    57   c3     1   MOL   C25   57     0.006880     12.01000 ; qtot -1.522
    58   h1     1   MOL   H20   58     0.135098      1.00800 ; qtot -1.387
    59   os     1   MOL   O14   59    -0.353495     16.00000 ; qtot -1.741
    60   c3     1   MOL   C26   60    -0.005733     12.01000 ; qtot -1.746
    61   c3     1   MOL   C27   61     0.227741     12.01000 ; qtot -1.519
    62   h1     1   MOL   H21   62     0.045616      1.00800 ; qtot -1.473
    63   os     1   MOL   O15   63    -0.405377     16.00000 ; qtot -1.878
    64   c3     1   MOL   C28   64     0.198913     12.01000 ; qtot -1.679
    65   h2     1   MOL   H22   65     0.104271      1.00800 ; qtot -1.575
    66   os     1   MOL   O16   66    -0.397726     16.00000 ; qtot -1.973
    67   c3     1   MOL   C29   67     0.009730     12.01000 ; qtot -1.963
    68   h1     1   MOL   H23   68     0.107445      1.00800 ; qtot -1.856
    69   c3     1   MOL   C30   69     0.121391     12.01000 ; qtot -1.734
    70   h1     1   MOL   H24   70    -0.010300      1.00800 ; qtot -1.745
    71   h1     1   MOL   H25   71     0.089263      1.00800 ; qtot -1.655
    72   os     1   MOL   O17   72    -0.284073     16.00000 ; qtot -1.939
    73   c3     1   MOL   C31   73    -0.090176     12.01000 ; qtot -2.030
    74   c3     1   MOL   C32   74     0.097577     12.01000 ; qtot -1.932
    75   h1     1   MOL   H26   75     0.070129      1.00800 ; qtot -1.862
    76   os     1   MOL   O18   76    -0.219153     16.00000 ; qtot -2.081
    77   c3     1   MOL   C33   77    -0.111981     12.01000 ; qtot -2.193
    78   c3     1   MOL   C34   78     0.086325     12.01000 ; qtot -2.107
    79   h1     1   MOL   H27   79     0.113969      1.00800 ; qtot -1.993
    80   os     1   MOL   O19   80    -0.342149     16.00000 ; qtot -2.335
    81   c3     1   MOL   C35   81    -0.041379     12.01000 ; qtot -2.376
    82   c3     1   MOL   C36   82     0.215439     12.01000 ; qtot -2.161
    83   h1     1   MOL   H28   83     0.052283      1.00800 ; qtot -2.109
    84   os     1   MOL   O20   84    -0.404284     16.00000 ; qtot -2.513
    85   c3     1   MOL   C37   85     0.182790     12.01000 ; qtot -2.330
    86   h2     1   MOL   H29   86     0.129129      1.00800 ; qtot -2.201
    87   os     1   MOL   O21   87    -0.362142     16.00000 ; qtot -2.563
    88   c3     1   MOL   C38   88    -0.219660     12.01000 ; qtot -2.783
    89   h1     1   MOL   H30   89     0.158904      1.00800 ; qtot -2.624
    90   c3     1   MOL   C39   90     0.420080     12.01000 ; qtot -2.204
    91   h1     1   MOL   H31   91    -0.104983      1.00800 ; qtot -2.309
    92   h1     1   MOL   H32   92     0.019875      1.00800 ; qtot -2.289
    93   os     1   MOL   O22   93    -0.342642     16.00000 ; qtot -2.631
    94   c3     1   MOL   C40   94    -0.081705     12.01000 ; qtot -2.713
    95   c3     1   MOL   C41   95     0.092722     12.01000 ; qtot -2.620
    96   h1     1   MOL   H33   96     0.068612      1.00800 ; qtot -2.552
    97   os     1   MOL   O23   97    -0.208547     16.00000 ; qtot -2.760
    98   c3     1   MOL   C42   98    -0.133688     12.01000 ; qtot -2.894
    99   c3     1   MOL   C43   99     0.056788     12.01000 ; qtot -2.837
   100   h1     1   MOL   H34  100     0.118347      1.00800 ; qtot -2.719
   101   os     1   MOL   O24  101    -0.347706     16.00000 ; qtot -3.067
   102   c3     1   MOL   C44  102    -0.014955     12.01000 ; qtot -3.082
   103   c3     1   MOL   C45  103     0.326629     12.01000 ; qtot -2.755
   104   h1     1   MOL   H35  104     0.042387      1.00800 ; qtot -2.713
   105   os     1   MOL   O25  105    -0.393825     16.00000 ; qtot -3.106
   106   c3     1   MOL   C46  106     0.060124     12.01000 ; qtot -3.046
   107   h2     1   MOL   H36  107     0.154050      1.00800 ; qtot -2.892
   108   os     1   MOL   O26  108    -0.343577     16.00000 ; qtot -3.236
   109   c3     1   MOL   C47  109    -0.103439     12.01000 ; qtot -3.339
   110   h1     1   MOL   H37  110     0.133203      1.00800 ; qtot -3.206
   111   c3     1   MOL   C48  111     0.367930     12.01000 ; qtot -2.838
   112   h1     1   MOL   H38  112    -0.006237      1.00800 ; qtot -2.844
   113   h1     1   MOL   H39  113    -0.077769      1.00800 ; qtot -2.922
   114   os     1   MOL   O27  114    -0.295546     16.00000 ; qtot -3.218
   115   c3     1   MOL   C49  115    -0.106851     12.01000 ; qtot -3.325
   116   c3     1   MOL   C50  116     0.161109     12.01000 ; qtot -3.163
   117   h1     1   MOL   H40  117     0.057517      1.00800 ; qtot -3.106
   118   os     1   MOL   O28  118    -0.199559     16.00000 ; qtot -3.305
   119   c3     1   MOL   C51  119    -0.129471     12.01000 ; qtot -3.435
   120   c3     1   MOL   C52  120    -0.078706     12.01000 ; qtot -3.514
   121   h1     1   MOL   H41  121     0.153707      1.00800 ; qtot -3.360
   122   os     1   MOL   O29  122    -0.335900     16.00000 ; qtot -3.696
   123   c3     1   MOL   C53  123    -0.000117     12.01000 ; qtot -3.696
   124   c3     1   MOL   C54  124     0.369456     12.01000 ; qtot -3.326
   125   h1     1   MOL   H42  125     0.027985      1.00800 ; qtot -3.299
   126   os     1   MOL   O30  126    -0.428985     16.00000 ; qtot -3.727
   127   h1     1   MOL   H43  127     0.091511      1.00800 ; qtot -3.636
   128   h1     1   MOL   H44  128     0.083133      1.00800 ; qtot -3.553
   129   h1     1   MOL   H45  129     0.054187      1.00800 ; qtot -3.499
   130   h1     1   MOL   H46  130     0.088346      1.00800 ; qtot -3.410
   131   h1     1   MOL   H47  131     0.084086      1.00800 ; qtot -3.326
   132   h1     1   MOL   H48  132     0.064203      1.00800 ; qtot -3.262
   133   h1     1   MOL   H49  133     0.090570      1.00800 ; qtot -3.171
   134   h1     1   MOL   H50  134     0.078249      1.00800 ; qtot -3.093
   135   h1     1   MOL   H51  135     0.054139      1.00800 ; qtot -3.039
   136   h1     1   MOL   H52  136     0.088503      1.00800 ; qtot -2.951
   137   h1     1   MOL   H53  137     0.044954      1.00800 ; qtot -2.906
   138   h1     1   MOL   H54  138     0.076645      1.00800 ; qtot -2.829
   139   h1     1   MOL   H55  139     0.093592      1.00800 ; qtot -2.735
   140   h1     1   MOL   H56  140     0.054876      1.00800 ; qtot -2.680
   141   h1     1   MOL   H57  141     0.076827      1.00800 ; qtot -2.604
   142   h1     1   MOL   H58  142     0.088596      1.00800 ; qtot -2.515
   143   h1     1   MOL   H59  143     0.053220      1.00800 ; qtot -2.462
   144   h1     1   MOL   H60  144     0.069446      1.00800 ; qtot -2.392
   145   h1     1   MOL   H61  145     0.103929      1.00800 ; qtot -2.288
   146   h1     1   MOL   H62  146     0.070068      1.00800 ; qtot -2.218
   147   h1     1   MOL   H63  147     0.063560      1.00800 ; qtot -2.155
   148   h1     1   MOL   H64  148     0.087667      1.00800 ; qtot -2.067
   149   h1     1   MOL   H65  149     0.051835      1.00800 ; qtot -2.015
   150   h1     1   MOL   H66  150     0.041385      1.00800 ; qtot -1.974
   151   h1     1   MOL   H67  151     0.096873      1.00800 ; qtot -1.877
   152   h1     1   MOL   H68  152     0.067572      1.00800 ; qtot -1.810
   153   h1     1   MOL   H69  153     0.060942      1.00800 ; qtot -1.749
   154   h1     1   MOL   H70  154     0.081201      1.00800 ; qtot -1.667
   155   h1     1   MOL   H71  155     0.045232      1.00800 ; qtot -1.622
   156   h1     1   MOL   H72  156     0.029979      1.00800 ; qtot -1.592
   157   h1     1   MOL   H73  157     0.107425      1.00800 ; qtot -1.485
   158   h1     1   MOL   H74  158     0.072929      1.00800 ; qtot -1.412
   159   h1     1   MOL   H75  159     0.064735      1.00800 ; qtot -1.347
   160   h1     1   MOL   H76  160     0.085837      1.00800 ; qtot -1.261
   161   h1     1   MOL   H77  161     0.053032      1.00800 ; qtot -1.208
   162   h1     1   MOL   H78  162     0.042560      1.00800 ; qtot -1.166
   163   h1     1   MOL   H79  163     0.103482      1.00800 ; qtot -1.062
   164   h1     1   MOL   H80  164     0.068756      1.00800 ; qtot -0.993
   165   h1     1   MOL   H81  165     0.059491      1.00800 ; qtot -0.934
   166   h1     1   MOL   H82  166     0.084411      1.00800 ; qtot -0.850
   167   h1     1   MOL   H83  167     0.049476      1.00800 ; qtot -0.800
   168   h1     1   MOL   H84  168     0.041874      1.00800 ; qtot -0.758
   169   h1     1   MOL   H85  169     0.094428      1.00800 ; qtot -0.664
   170   h1     1   MOL   H86  170     0.065933      1.00800 ; qtot -0.598
   171   h1     1   MOL   H87  171     0.060157      1.00800 ; qtot -0.538
   172   h1     1   MOL   H88  172     0.076031      1.00800 ; qtot -0.462
   173   h1     1   MOL   H89  173     0.042588      1.00800 ; qtot -0.419
   174   h1     1   MOL   H90  174     0.030547      1.00800 ; qtot -0.388
   175   h1     1   MOL   H91  175     0.101511      1.00800 ; qtot -0.287
   176   h1     1   MOL   H92  176     0.069892      1.00800 ; qtot -0.217
   177   h1     1   MOL   H93  177     0.060340      1.00800 ; qtot -0.157
   178   h1     1   MOL   H94  178     0.080503      1.00800 ; qtot -0.076
   179   h1     1   MOL   H95  179     0.043055      1.00800 ; qtot -0.033
   180   h1     1   MOL   H96  180     0.033170      1.00800 ; qtot 0.000

[ bonds ]
;   ai     aj funct   r             k
     1      2   1    1.0960e-01    3.1572e+05 ;     C1 - H1    
     1      3   1    1.4320e-01    2.3832e+05 ;     C1 - O1    
     1     11   1    1.5380e-01    1.9456e+05 ;     C1 - C5    
     1    126   1    1.4320e-01    2.3832e+05 ;     C1 - O30   
     3      4   1    1.4320e-01    2.3832e+05 ;     O1 - C2    
     4      5   1    1.0970e-01    3.1455e+05 ;     C2 - H2    
     4      6   1    1.5380e-01    1.9456e+05 ;     C2 - C3    
     4     19   1    1.5380e-01    1.9456e+05 ;     C2 - C9    
     6      7   1    1.0970e-01    3.1455e+05 ;     C3 - H3    
     6      8   1    1.0970e-01    3.1455e+05 ;     C3 - H4    
     6      9   1    1.4320e-01    2.3832e+05 ;     C3 - O2    
     9     10   1    1.4320e-01    2.3832e+05 ;     O2 - C4    
    10    130   1    1.0970e-01    3.1455e+05 ;     C4 - H46   
    10    131   1    1.0970e-01    3.1455e+05 ;     C4 - H47   
    10    132   1    1.0970e-01    3.1455e+05 ;     C4 - H48   
    11     12   1    1.0970e-01    3.1455e+05 ;     C5 - H5    
    11     13   1    1.4320e-01    2.3832e+05 ;     C5 - O3    
    11     15   1    1.5380e-01    1.9456e+05 ;     C5 - C7    
    13     14   1    1.4320e-01    2.3832e+05 ;     O3 - C6    
    14    169   1    1.0970e-01    3.1455e+05 ;     C6 - H85   
    14    170   1    1.0970e-01    3.1455e+05 ;     C6 - H86   
    14    171   1    1.0970e-01    3.1455e+05 ;     C6 - H87   
    15     16   1    1.0970e-01    3.1455e+05 ;     C7 - H6    
    15     17   1    1.4320e-01    2.3832e+05 ;     C7 - O4    
    15     19   1    1.5380e-01    1.9456e+05 ;     C7 - C9    
    17     18   1    1.4320e-01    2.3832e+05 ;     O4 - C8    
    18    166   1    1.0970e-01    3.1455e+05 ;     C8 - H82   
    18    167   1    1.0970e-01    3.1455e+05 ;     C8 - H83   
    18    168   1    1.0970e-01    3.1455e+05 ;     C8 - H84   
    19     20   1    1.0970e-01    3.1455e+05 ;     C9 - H7    
    19     21   1    1.4320e-01    2.3832e+05 ;     C9 - O5    
    21     22   1    1.4320e-01    2.3832e+05 ;     O5 - C10   
    22     23   1    1.0960e-01    3.1572e+05 ;    C10 - H8    
    22     24   1    1.4320e-01    2.3832e+05 ;    C10 - O6    
    22     32   1    1.5380e-01    1.9456e+05 ;    C10 - C14   
    24     25   1    1.4320e-01    2.3832e+05 ;     O6 - C11   
    25     26   1    1.0970e-01    3.1455e+05 ;    C11 - H9    
    25     27   1    1.5380e-01    1.9456e+05 ;    C11 - C12   
    25     40   1    1.5380e-01    1.9456e+05 ;    C11 - C18   
    27     28   1    1.0970e-01    3.1455e+05 ;    C12 - H10   
    27     29   1    1.0970e-01    3.1455e+05 ;    C12 - H11   
    27     30   1    1.4320e-01    2.3832e+05 ;    C12 - O7    
    30     31   1    1.4320e-01    2.3832e+05 ;     O7 - C13   
    31    127   1    1.0970e-01    3.1455e+05 ;    C13 - H43   
    31    128   1    1.0970e-01    3.1455e+05 ;    C13 - H44   
    31    129   1    1.0970e-01    3.1455e+05 ;    C13 - H45   
    32     33   1    1.0970e-01    3.1455e+05 ;    C14 - H12   
    32     34   1    1.4320e-01    2.3832e+05 ;    C14 - O8    
    32     36   1    1.5380e-01    1.9456e+05 ;    C14 - C16   
    34     35   1    1.4320e-01    2.3832e+05 ;     O8 - C15   
    35    163   1    1.0970e-01    3.1455e+05 ;    C15 - H79   
    35    164   1    1.0970e-01    3.1455e+05 ;    C15 - H80   
    35    165   1    1.0970e-01    3.1455e+05 ;    C15 - H81   
    36     37   1    1.0970e-01    3.1455e+05 ;    C16 - H13   
    36     38   1    1.4320e-01    2.3832e+05 ;    C16 - O9    
    36     40   1    1.5380e-01    1.9456e+05 ;    C16 - C18   
    38     39   1    1.4320e-01    2.3832e+05 ;     O9 - C17   
    39    160   1    1.0970e-01    3.1455e+05 ;    C17 - H76   
    39    161   1    1.0970e-01    3.1455e+05 ;    C17 - H77   
    39    162   1    1.0970e-01    3.1455e+05 ;    C17 - H78   
    40     41   1    1.0970e-01    3.1455e+05 ;    C18 - H14   
    40     42   1    1.4320e-01    2.3832e+05 ;    C18 - O10   
    42     43   1    1.4320e-01    2.3832e+05 ;    O10 - C19   
    43     44   1    1.0960e-01    3.1572e+05 ;    C19 - H15   
    43     45   1    1.4320e-01    2.3832e+05 ;    C19 - O11   
    43     53   1    1.5380e-01    1.9456e+05 ;    C19 - C23   
    45     46   1    1.4320e-01    2.3832e+05 ;    O11 - C20   
    46     47   1    1.0970e-01    3.1455e+05 ;    C20 - H16   
    46     48   1    1.5380e-01    1.9456e+05 ;    C20 - C21   
    46     61   1    1.5380e-01    1.9456e+05 ;    C20 - C27   
    48     49   1    1.0970e-01    3.1455e+05 ;    C21 - H17   
    48     50   1    1.0970e-01    3.1455e+05 ;    C21 - H18   
    48     51   1    1.4320e-01    2.3832e+05 ;    C21 - O12   
    51     52   1    1.4320e-01    2.3832e+05 ;    O12 - C22   
    52    142   1    1.0970e-01    3.1455e+05 ;    C22 - H58   
    52    143   1    1.0970e-01    3.1455e+05 ;    C22 - H59   
    52    144   1    1.0970e-01    3.1455e+05 ;    C22 - H60   
    53     54   1    1.0970e-01    3.1455e+05 ;    C23 - H19   
    53     55   1    1.4320e-01    2.3832e+05 ;    C23 - O13   
    53     57   1    1.5380e-01    1.9456e+05 ;    C23 - C25   
    55     56   1    1.4320e-01    2.3832e+05 ;    O13 - C24   
    56    157   1    1.0970e-01    3.1455e+05 ;    C24 - H73   
    56    158   1    1.0970e-01    3.1455e+05 ;    C24 - H74   
    56    159   1    1.0970e-01    3.1455e+05 ;    C24 - H75   
    57     58   1    1.0970e-01    3.1455e+05 ;    C25 - H20   
    57     59   1    1.4320e-01    2.3832e+05 ;    C25 - O14   
    57     61   1    1.5380e-01    1.9456e+05 ;    C25 - C27   
    59     60   1    1.4320e-01    2.3832e+05 ;    O14 - C26   
    60    154   1    1.0970e-01    3.1455e+05 ;    C26 - H70   
    60    155   1    1.0970e-01    3.1455e+05 ;    C26 - H71   
    60    156   1    1.0970e-01    3.1455e+05 ;    C26 - H72   
    61     62   1    1.0970e-01    3.1455e+05 ;    C27 - H21   
    61     63   1    1.4320e-01    2.3832e+05 ;    C27 - O15   
    63     64   1    1.4320e-01    2.3832e+05 ;    O15 - C28   
    64     65   1    1.0960e-01    3.1572e+05 ;    C28 - H22   
    64     66   1    1.4320e-01    2.3832e+05 ;    C28 - O16   
    64     74   1    1.5380e-01    1.9456e+05 ;    C28 - C32   
    66     67   1    1.4320e-01    2.3832e+05 ;    O16 - C29   
    67     68   1    1.0970e-01    3.1455e+05 ;    C29 - H23   
    67     69   1    1.5380e-01    1.9456e+05 ;    C29 - C30   
    67     82   1    1.5380e-01    1.9456e+05 ;    C29 - C36   
    69     70   1    1.0970e-01    3.1455e+05 ;    C30 - H24   
    69     71   1    1.0970e-01    3.1455e+05 ;    C30 - H25   
    69     72   1    1.4320e-01    2.3832e+05 ;    C30 - O17   
    72     73   1    1.4320e-01    2.3832e+05 ;    O17 - C31   
    73    139   1    1.0970e-01    3.1455e+05 ;    C31 - H55   
    73    140   1    1.0970e-01    3.1455e+05 ;    C31 - H56   
    73    141   1    1.0970e-01    3.1455e+05 ;    C31 - H57   
    74     75   1    1.0970e-01    3.1455e+05 ;    C32 - H26   
    74     76   1    1.4320e-01    2.3832e+05 ;    C32 - O18   
    74     78   1    1.5380e-01    1.9456e+05 ;    C32 - C34   
    76     77   1    1.4320e-01    2.3832e+05 ;    O18 - C33   
    77    151   1    1.0970e-01    3.1455e+05 ;    C33 - H67   
    77    152   1    1.0970e-01    3.1455e+05 ;    C33 - H68   
    77    153   1    1.0970e-01    3.1455e+05 ;    C33 - H69   
    78     79   1    1.0970e-01    3.1455e+05 ;    C34 - H27   
    78     80   1    1.4320e-01    2.3832e+05 ;    C34 - O19   
    78     82   1    1.5380e-01    1.9456e+05 ;    C34 - C36   
    80     81   1    1.4320e-01    2.3832e+05 ;    O19 - C35   
    81    148   1    1.0970e-01    3.1455e+05 ;    C35 - H64   
    81    149   1    1.0970e-01    3.1455e+05 ;    C35 - H65   
    81    150   1    1.0970e-01    3.1455e+05 ;    C35 - H66   
    82     83   1    1.0970e-01    3.1455e+05 ;    C36 - H28   
    82     84   1    1.4320e-01    2.3832e+05 ;    C36 - O20   
    84     85   1    1.4320e-01    2.3832e+05 ;    O20 - C37   
    85     86   1    1.0960e-01    3.1572e+05 ;    C37 - H29   
    85     87   1    1.4320e-01    2.3832e+05 ;    C37 - O21   
    85     95   1    1.5380e-01    1.9456e+05 ;    C37 - C41   
    87     88   1    1.4320e-01    2.3832e+05 ;    O21 - C38   
    88     89   1    1.0970e-01    3.1455e+05 ;    C38 - H30   
    88     90   1    1.5380e-01    1.9456e+05 ;    C38 - C39   
    88    103   1    1.5380e-01    1.9456e+05 ;    C38 - C45   
    90     91   1    1.0970e-01    3.1455e+05 ;    C39 - H31   
    90     92   1    1.0970e-01    3.1455e+05 ;    C39 - H32   
    90     93   1    1.4320e-01    2.3832e+05 ;    C39 - O22   
    93     94   1    1.4320e-01    2.3832e+05 ;    O22 - C40   
    94    136   1    1.0970e-01    3.1455e+05 ;    C40 - H52   
    94    137   1    1.0970e-01    3.1455e+05 ;    C40 - H53   
    94    138   1    1.0970e-01    3.1455e+05 ;    C40 - H54   
    95     96   1    1.0970e-01    3.1455e+05 ;    C41 - H33   
    95     97   1    1.4320e-01    2.3832e+05 ;    C41 - O23   
    95     99   1    1.5380e-01    1.9456e+05 ;    C41 - C43   
    97     98   1    1.4320e-01    2.3832e+05 ;    O23 - C42   
    98    145   1    1.0970e-01    3.1455e+05 ;    C42 - H61   
    98    146   1    1.0970e-01    3.1455e+05 ;    C42 - H62   
    98    147   1    1.0970e-01    3.1455e+05 ;    C42 - H63   
    99    100   1    1.0970e-01    3.1455e+05 ;    C43 - H34   
    99    101   1    1.4320e-01    2.3832e+05 ;    C43 - O24   
    99    103   1    1.5380e-01    1.9456e+05 ;    C43 - C45   
   101    102   1    1.4320e-01    2.3832e+05 ;    O24 - C44   
   102    178   1    1.0970e-01    3.1455e+05 ;    C44 - H94   
   102    179   1    1.0970e-01    3.1455e+05 ;    C44 - H95   
   102    180   1    1.0970e-01    3.1455e+05 ;    C44 - H96   
   103    104   1    1.0970e-01    3.1455e+05 ;    C45 - H35   
   103    105   1    1.4320e-01    2.3832e+05 ;    C45 - O25   
   105    106   1    1.4320e-01    2.3832e+05 ;    O25 - C46   
   106    107   1    1.0960e-01    3.1572e+05 ;    C46 - H36   
   106    108   1    1.4320e-01    2.3832e+05 ;    C46 - O26   
   106    116   1    1.5380e-01    1.9456e+05 ;    C46 - C50   
   108    109   1    1.4320e-01    2.3832e+05 ;    O26 - C47   
   109    110   1    1.0970e-01    3.1455e+05 ;    C47 - H37   
   109    111   1    1.5380e-01    1.9456e+05 ;    C47 - C48   
   109    124   1    1.5380e-01    1.9456e+05 ;    C47 - C54   
   111    112   1    1.0970e-01    3.1455e+05 ;    C48 - H38   
   111    113   1    1.0970e-01    3.1455e+05 ;    C48 - H39   
   111    114   1    1.4320e-01    2.3832e+05 ;    C48 - O27   
   114    115   1    1.4320e-01    2.3832e+05 ;    O27 - C49   
   115    133   1    1.0970e-01    3.1455e+05 ;    C49 - H49   
   115    134   1    1.0970e-01    3.1455e+05 ;    C49 - H50   
   115    135   1    1.0970e-01    3.1455e+05 ;    C49 - H51   
   116    117   1    1.0970e-01    3.1455e+05 ;    C50 - H40   
   116    118   1    1.4320e-01    2.3832e+05 ;    C50 - O28   
   116    120   1    1.5380e-01    1.9456e+05 ;    C50 - C52   
   118    119   1    1.4320e-01    2.3832e+05 ;    O28 - C51   
   119    175   1    1.0970e-01    3.1455e+05 ;    C51 - H91   
   119    176   1    1.0970e-01    3.1455e+05 ;    C51 - H92   
   119    177   1    1.0970e-01    3.1455e+05 ;    C51 - H93   
   120    121   1    1.0970e-01    3.1455e+05 ;    C52 - H41   
   120    122   1    1.4320e-01    2.3832e+05 ;    C52 - O29   
   120    124   1    1.5380e-01    1.9456e+05 ;    C52 - C54   
   122    123   1    1.4320e-01    2.3832e+05 ;    O29 - C53   
   123    172   1    1.0970e-01    3.1455e+05 ;    C53 - H88   
   123    173   1    1.0970e-01    3.1455e+05 ;    C53 - H89   
   123    174   1    1.0970e-01    3.1455e+05 ;    C53 - H90   
   124    125   1    1.0970e-01    3.1455e+05 ;    C54 - H42   
   124    126   1    1.4320e-01    2.3832e+05 ;    C54 - O30   

[ pairs ]
;   ai     aj    funct
     1      5      1 ;     C1 - H2    
     1      6      1 ;     C1 - C3    
     1     14      1 ;     C1 - C6    
     1     16      1 ;     C1 - H6    
     1     17      1 ;     C1 - O4    
     1     19      1 ;     C1 - C9    
     1    109      1 ;     C1 - C47   
     1    120      1 ;     C1 - C52   
     1    125      1 ;     C1 - H42   
     2      4      1 ;     H1 - C2    
     2     12      1 ;     H1 - H5    
     2     13      1 ;     H1 - O3    
     2     15      1 ;     H1 - C7    
     2    124      1 ;     H1 - C54   
     3      7      1 ;     O1 - H3    
     3      8      1 ;     O1 - H4    
     3      9      1 ;     O1 - O2    
     3     12      1 ;     O1 - H5    
     3     13      1 ;     O1 - O3    
     3     15      1 ;     O1 - C7    
     3     20      1 ;     O1 - H7    
     3     21      1 ;     O1 - O5    
     3    124      1 ;     O1 - C54   
     4     10      1 ;     C2 - C4    
     4     16      1 ;     C2 - H6    
     4     17      1 ;     C2 - O4    
     4     22      1 ;     C2 - C10   
     5      7      1 ;     H2 - H3    
     5      8      1 ;     H2 - H4    
     5      9      1 ;     H2 - O2    
     5     15      1 ;     H2 - C7    
     5     20      1 ;     H2 - H7    
     5     21      1 ;     H2 - O5    
     6     15      1 ;     C3 - C7    
     6     20      1 ;     C3 - H7    
     6     21      1 ;     C3 - O5    
     6    130      1 ;     C3 - H46   
     6    131      1 ;     C3 - H47   
     6    132      1 ;     C3 - H48   
     7     10      1 ;     H3 - C4    
     7     19      1 ;     H3 - C9    
     8     10      1 ;     H4 - C4    
     8     19      1 ;     H4 - C9    
     9     19      1 ;     O2 - C9    
    11      4      1 ;     C5 - C2    
    11     18      1 ;     C5 - C8    
    11     20      1 ;     C5 - H7    
    11     21      1 ;     C5 - O5    
    11    124      1 ;     C5 - C54   
    11    169      1 ;     C5 - H85   
    11    170      1 ;     C5 - H86   
    11    171      1 ;     C5 - H87   
    12     14      1 ;     H5 - C6    
    12     16      1 ;     H5 - H6    
    12     17      1 ;     H5 - O4    
    12     19      1 ;     H5 - C9    
    13     16      1 ;     O3 - H6    
    13     17      1 ;     O3 - O4    
    13     19      1 ;     O3 - C9    
    14     15      1 ;     C6 - C7    
    15     22      1 ;     C7 - C10   
    15    166      1 ;     C7 - H82   
    15    167      1 ;     C7 - H83   
    15    168      1 ;     C7 - H84   
    16     18      1 ;     H6 - C8    
    16     20      1 ;     H6 - H7    
    16     21      1 ;     H6 - O5    
    17     20      1 ;     O4 - H7    
    17     21      1 ;     O4 - O5    
    18     19      1 ;     C8 - C9    
    19     23      1 ;     C9 - H8    
    19     24      1 ;     C9 - O6    
    19     32      1 ;     C9 - C14   
    20     22      1 ;     H7 - C10   
    21     25      1 ;     O5 - C11   
    21     33      1 ;     O5 - H12   
    21     34      1 ;     O5 - O8    
    21     36      1 ;     O5 - C16   
    22     26      1 ;    C10 - H9    
    22     27      1 ;    C10 - C12   
    22     35      1 ;    C10 - C15   
    22     37      1 ;    C10 - H13   
    22     38      1 ;    C10 - O9    
    22     40      1 ;    C10 - C18   
    23     25      1 ;     H8 - C11   
    23     33      1 ;     H8 - H12   
    23     34      1 ;     H8 - O8    
    23     36      1 ;     H8 - C16   
    24     28      1 ;     O6 - H10   
    24     29      1 ;     O6 - H11   
    24     30      1 ;     O6 - O7    
    24     33      1 ;     O6 - H12   
    24     34      1 ;     O6 - O8    
    24     36      1 ;     O6 - C16   
    24     41      1 ;     O6 - H14   
    24     42      1 ;     O6 - O10   
    25     31      1 ;    C11 - C13   
    25     32      1 ;    C11 - C14   
    25     37      1 ;    C11 - H13   
    25     38      1 ;    C11 - O9    
    25     43      1 ;    C11 - C19   
    26     28      1 ;     H9 - H10   
    26     29      1 ;     H9 - H11   
    26     30      1 ;     H9 - O7    
    26     36      1 ;     H9 - C16   
    26     41      1 ;     H9 - H14   
    26     42      1 ;     H9 - O10   
    27     36      1 ;    C12 - C16   
    27     41      1 ;    C12 - H14   
    27     42      1 ;    C12 - O10   
    27    127      1 ;    C12 - H43   
    27    128      1 ;    C12 - H44   
    27    129      1 ;    C12 - H45   
    28     31      1 ;    H10 - C13   
    28     40      1 ;    H10 - C18   
    29     31      1 ;    H11 - C13   
    29     40      1 ;    H11 - C18   
    30     40      1 ;     O7 - C18   
    32     39      1 ;    C14 - C17   
    32     41      1 ;    C14 - H14   
    32     42      1 ;    C14 - O10   
    32    163      1 ;    C14 - H79   
    32    164      1 ;    C14 - H80   
    32    165      1 ;    C14 - H81   
    33     35      1 ;    H12 - C15   
    33     37      1 ;    H12 - H13   
    33     38      1 ;    H12 - O9    
    33     40      1 ;    H12 - C18   
    34     37      1 ;     O8 - H13   
    34     38      1 ;     O8 - O9    
    34     40      1 ;     O8 - C18   
    35     36      1 ;    C15 - C16   
    36     43      1 ;    C16 - C19   
    36    160      1 ;    C16 - H76   
    36    161      1 ;    C16 - H77   
    36    162      1 ;    C16 - H78   
    37     39      1 ;    H13 - C17   
    37     41      1 ;    H13 - H14   
    37     42      1 ;    H13 - O10   
    38     41      1 ;     O9 - H14   
    38     42      1 ;     O9 - O10   
    39     40      1 ;    C17 - C18   
    40     44      1 ;    C18 - H15   
    40     45      1 ;    C18 - O11   
    40     53      1 ;    C18 - C23   
    41     43      1 ;    H14 - C19   
    42     46      1 ;    O10 - C20   
    42     54      1 ;    O10 - H19   
    42     55      1 ;    O10 - O13   
    42     57      1 ;    O10 - C25   
    43     47      1 ;    C19 - H16   
    43     48      1 ;    C19 - C21   
    43     56      1 ;    C19 - C24   
    43     58      1 ;    C19 - H20   
    43     59      1 ;    C19 - O14   
    43     61      1 ;    C19 - C27   
    44     46      1 ;    H15 - C20   
    44     54      1 ;    H15 - H19   
    44     55      1 ;    H15 - O13   
    44     57      1 ;    H15 - C25   
    45     49      1 ;    O11 - H17   
    45     50      1 ;    O11 - H18   
    45     51      1 ;    O11 - O12   
    45     54      1 ;    O11 - H19   
    45     55      1 ;    O11 - O13   
    45     57      1 ;    O11 - C25   
    45     62      1 ;    O11 - H21   
    45     63      1 ;    O11 - O15   
    46     52      1 ;    C20 - C22   
    46     53      1 ;    C20 - C23   
    46     58      1 ;    C20 - H20   
    46     59      1 ;    C20 - O14   
    46     64      1 ;    C20 - C28   
    47     49      1 ;    H16 - H17   
    47     50      1 ;    H16 - H18   
    47     51      1 ;    H16 - O12   
    47     57      1 ;    H16 - C25   
    47     62      1 ;    H16 - H21   
    47     63      1 ;    H16 - O15   
    48     57      1 ;    C21 - C25   
    48     62      1 ;    C21 - H21   
    48     63      1 ;    C21 - O15   
    48    142      1 ;    C21 - H58   
    48    143      1 ;    C21 - H59   
    48    144      1 ;    C21 - H60   
    49     52      1 ;    H17 - C22   
    49     61      1 ;    H17 - C27   
    50     52      1 ;    H18 - C22   
    50     61      1 ;    H18 - C27   
    51     61      1 ;    O12 - C27   
    53     60      1 ;    C23 - C26   
    53     62      1 ;    C23 - H21   
    53     63      1 ;    C23 - O15   
    53    157      1 ;    C23 - H73   
    53    158      1 ;    C23 - H74   
    53    159      1 ;    C23 - H75   
    54     56      1 ;    H19 - C24   
    54     58      1 ;    H19 - H20   
    54     59      1 ;    H19 - O14   
    54     61      1 ;    H19 - C27   
    55     58      1 ;    O13 - H20   
    55     59      1 ;    O13 - O14   
    55     61      1 ;    O13 - C27   
    56     57      1 ;    C24 - C25   
    57     64      1 ;    C25 - C28   
    57    154      1 ;    C25 - H70   
    57    155      1 ;    C25 - H71   
    57    156      1 ;    C25 - H72   
    58     60      1 ;    H20 - C26   
    58     62      1 ;    H20 - H21   
    58     63      1 ;    H20 - O15   
    59     62      1 ;    O14 - H21   
    59     63      1 ;    O14 - O15   
    60     61      1 ;    C26 - C27   
    61     65      1 ;    C27 - H22   
    61     66      1 ;    C27 - O16   
    61     74      1 ;    C27 - C32   
    62     64      1 ;    H21 - C28   
    63     67      1 ;    O15 - C29   
    63     75      1 ;    O15 - H26   
    63     76      1 ;    O15 - O18   
    63     78      1 ;    O15 - C34   
    64     68      1 ;    C28 - H23   
    64     69      1 ;    C28 - C30   
    64     77      1 ;    C28 - C33   
    64     79      1 ;    C28 - H27   
    64     80      1 ;    C28 - O19   
    64     82      1 ;    C28 - C36   
    65     67      1 ;    H22 - C29   
    65     75      1 ;    H22 - H26   
    65     76      1 ;    H22 - O18   
    65     78      1 ;    H22 - C34   
    66     70      1 ;    O16 - H24   
    66     71      1 ;    O16 - H25   
    66     72      1 ;    O16 - O17   
    66     75      1 ;    O16 - H26   
    66     76      1 ;    O16 - O18   
    66     78      1 ;    O16 - C34   
    66     83      1 ;    O16 - H28   
    66     84      1 ;    O16 - O20   
    67     73      1 ;    C29 - C31   
    67     74      1 ;    C29 - C32   
    67     79      1 ;    C29 - H27   
    67     80      1 ;    C29 - O19   
    67     85      1 ;    C29 - C37   
    68     70      1 ;    H23 - H24   
    68     71      1 ;    H23 - H25   
    68     72      1 ;    H23 - O17   
    68     78      1 ;    H23 - C34   
    68     83      1 ;    H23 - H28   
    68     84      1 ;    H23 - O20   
    69     78      1 ;    C30 - C34   
    69     83      1 ;    C30 - H28   
    69     84      1 ;    C30 - O20   
    69    139      1 ;    C30 - H55   
    69    140      1 ;    C30 - H56   
    69    141      1 ;    C30 - H57   
    70     73      1 ;    H24 - C31   
    70     82      1 ;    H24 - C36   
    71     73      1 ;    H25 - C31   
    71     82      1 ;    H25 - C36   
    72     82      1 ;    O17 - C36   
    74     81      1 ;    C32 - C35   
    74     83      1 ;    C32 - H28   
    74     84      1 ;    C32 - O20   
    74    151      1 ;    C32 - H67   
    74    152      1 ;    C32 - H68   
    74    153      1 ;    C32 - H69   
    75     77      1 ;    H26 - C33   
    75     79      1 ;    H26 - H27   
    75     80      1 ;    H26 - O19   
    75     82      1 ;    H26 - C36   
    76     79      1 ;    O18 - H27   
    76     80      1 ;    O18 - O19   
    76     82      1 ;    O18 - C36   
    77     78      1 ;    C33 - C34   
    78     85      1 ;    C34 - C37   
    78    148      1 ;    C34 - H64   
    78    149      1 ;    C34 - H65   
    78    150      1 ;    C34 - H66   
    79     81      1 ;    H27 - C35   
    79     83      1 ;    H27 - H28   
    79     84      1 ;    H27 - O20   
    80     83      1 ;    O19 - H28   
    80     84      1 ;    O19 - O20   
    81     82      1 ;    C35 - C36   
    82     86      1 ;    C36 - H29   
    82     87      1 ;    C36 - O21   
    82     95      1 ;    C36 - C41   
    83     85      1 ;    H28 - C37   
    84     88      1 ;    O20 - C38   
    84     96      1 ;    O20 - H33   
    84     97      1 ;    O20 - O23   
    84     99      1 ;    O20 - C43   
    85     89      1 ;    C37 - H30   
    85     90      1 ;    C37 - C39   
    85     98      1 ;    C37 - C42   
    85    100      1 ;    C37 - H34   
    85    101      1 ;    C37 - O24   
    85    103      1 ;    C37 - C45   
    86     88      1 ;    H29 - C38   
    86     96      1 ;    H29 - H33   
    86     97      1 ;    H29 - O23   
    86     99      1 ;    H29 - C43   
    87     91      1 ;    O21 - H31   
    87     92      1 ;    O21 - H32   
    87     93      1 ;    O21 - O22   
    87     96      1 ;    O21 - H33   
    87     97      1 ;    O21 - O23   
    87     99      1 ;    O21 - C43   
    87    104      1 ;    O21 - H35   
    87    105      1 ;    O21 - O25   
    88     94      1 ;    C38 - C40   
    88     95      1 ;    C38 - C41   
    88    100      1 ;    C38 - H34   
    88    101      1 ;    C38 - O24   
    88    106      1 ;    C38 - C46   
    89     91      1 ;    H30 - H31   
    89     92      1 ;    H30 - H32   
    89     93      1 ;    H30 - O22   
    89     99      1 ;    H30 - C43   
    89    104      1 ;    H30 - H35   
    89    105      1 ;    H30 - O25   
    90     99      1 ;    C39 - C43   
    90    104      1 ;    C39 - H35   
    90    105      1 ;    C39 - O25   
    90    136      1 ;    C39 - H52   
    90    137      1 ;    C39 - H53   
    90    138      1 ;    C39 - H54   
    91     94      1 ;    H31 - C40   
    91    103      1 ;    H31 - C45   
    92     94      1 ;    H32 - C40   
    92    103      1 ;    H32 - C45   
    93    103      1 ;    O22 - C45   
    95    102      1 ;    C41 - C44   
    95    104      1 ;    C41 - H35   
    95    105      1 ;    C41 - O25   
    95    145      1 ;    C41 - H61   
    95    146      1 ;    C41 - H62   
    95    147      1 ;    C41 - H63   
    96     98      1 ;    H33 - C42   
    96    100      1 ;    H33 - H34   
    96    101      1 ;    H33 - O24   
    96    103      1 ;    H33 - C45   
    97    100      1 ;    O23 - H34   
    97    101      1 ;    O23 - O24   
    97    103      1 ;    O23 - C45   
    98     99      1 ;    C42 - C43   
    99    106      1 ;    C43 - C46   
    99    178      1 ;    C43 - H94   
    99    179      1 ;    C43 - H95   
    99    180      1 ;    C43 - H96   
   100    102      1 ;    H34 - C44   
   100    104      1 ;    H34 - H35   
   100    105      1 ;    H34 - O25   
   101    104      1 ;    O24 - H35   
   101    105      1 ;    O24 - O25   
   102    103      1 ;    C44 - C45   
   103    107      1 ;    C45 - H36   
   103    108      1 ;    C45 - O26   
   103    116      1 ;    C45 - C50   
   104    106      1 ;    H35 - C46   
   105    109      1 ;    O25 - C47   
   105    117      1 ;    O25 - H40   
   105    118      1 ;    O25 - O28   
   105    120      1 ;    O25 - C52   
   106    110      1 ;    C46 - H37   
   106    111      1 ;    C46 - C48   
   106    119      1 ;    C46 - C51   
   106    121      1 ;    C46 - H41   
   106    122      1 ;    C46 - O29   
   106    124      1 ;    C46 - C54   
   107    109      1 ;    H36 - C47   
   107    117      1 ;    H36 - H40   
   107    118      1 ;    H36 - O28   
   107    120      1 ;    H36 - C52   
   108    112      1 ;    O26 - H38   
   108    113      1 ;    O26 - H39   
   108    114      1 ;    O26 - O27   
   108    117      1 ;    O26 - H40   
   108    118      1 ;    O26 - O28   
   108    120      1 ;    O26 - C52   
   108    125      1 ;    O26 - H42   
   108    126      1 ;    O26 - O30   
   109    115      1 ;    C47 - C49   
   109    116      1 ;    C47 - C50   
   109    121      1 ;    C47 - H41   
   109    122      1 ;    C47 - O29   
   110    112      1 ;    H37 - H38   
   110    113      1 ;    H37 - H39   
   110    114      1 ;    H37 - O27   
   110    120      1 ;    H37 - C52   
   110    125      1 ;    H37 - H42   
   110    126      1 ;    H37 - O30   
   111    120      1 ;    C48 - C52   
   111    125      1 ;    C48 - H42   
   111    126      1 ;    C48 - O30   
   111    133      1 ;    C48 - H49   
   111    134      1 ;    C48 - H50   
   111    135      1 ;    C48 - H51   
   112    115      1 ;    H38 - C49   
   112    124      1 ;    H38 - C54   
   113    115      1 ;    H39 - C49   
   113    124      1 ;    H39 - C54   
   114    124      1 ;    O27 - C54   
   116    123      1 ;    C50 - C53   
   116    125      1 ;    C50 - H42   
   116    126      1 ;    C50 - O30   
   116    175      1 ;    C50 - H91   
   116    176      1 ;    C50 - H92   
   116    177      1 ;    C50 - H93   
   117    119      1 ;    H40 - C51   
   117    121      1 ;    H40 - H41   
   117    122      1 ;    H40 - O29   
   117    124      1 ;    H40 - C54   
   118    121      1 ;    O28 - H41   
   118    122      1 ;    O28 - O29   
   118    124      1 ;    O28 - C54   
   119    120      1 ;    C51 - C52   
   120    172      1 ;    C52 - H88   
   120    173      1 ;    C52 - H89   
   120    174      1 ;    C52 - H90   
   121    123      1 ;    H41 - C53   
   121    125      1 ;    H41 - H42   
   121    126      1 ;    H41 - O30   
   122    125      1 ;    O29 - H42   
   122    126      1 ;    O29 - O30   
   123    124      1 ;    C53 - C54   
   126      4      1 ;    O30 - C2    
   126     12      1 ;    O30 - H5    
   126     13      1 ;    O30 - O3    
   126     15      1 ;    O30 - C7    

[ angles ]
;   ai     aj     ak    funct   theta         cth
     1      3      4      1    1.1248e+02    5.5480e+02 ;     C1 - O1     - C2    
     1     11     12      1    1.0956e+02    3.9246e+02 ;     C1 - C5     - H5    
     1     11     13      1    1.0797e+02    7.1379e+02 ;     C1 - C5     - O3    
     1     11     15      1    1.1151e+02    5.4308e+02 ;     C1 - C5     - C7    
     1    126    124      1    1.1248e+02    5.5480e+02 ;     C1 - O30    - C54   
     2      1      3      1    1.0958e+02    5.2216e+02 ;     H1 - C1     - O1    
     2      1     11      1    1.1022e+02    3.9079e+02 ;     H1 - C1     - C5    
     2      1    126      1    1.0958e+02    5.2216e+02 ;     H1 - C1     - O30   
     3      1     11      1    1.0797e+02    7.1379e+02 ;     O1 - C1     - C5    
     3      1    126      1    1.0829e+02    9.2801e+02 ;     O1 - C1     - O30   
     3      4      5      1    1.0978e+02    5.2216e+02 ;     O1 - C2     - H2    
     3      4      6      1    1.0797e+02    7.1379e+02 ;     O1 - C2     - C3    
     3      4     19      1    1.0797e+02    7.1379e+02 ;     O1 - C2     - C9    
     4      6      7      1    1.0956e+02    3.9246e+02 ;     C2 - C3     - H3    
     4      6      8      1    1.0956e+02    3.9246e+02 ;     C2 - C3     - H4    
     4      6      9      1    1.0797e+02    7.1379e+02 ;     C2 - C3     - O2    
     4     19     15      1    1.1151e+02    5.4308e+02 ;     C2 - C9     - C7    
     4     19     20      1    1.0956e+02    3.9246e+02 ;     C2 - C9     - H7    
     4     19     21      1    1.0797e+02    7.1379e+02 ;     C2 - C9     - O5    
     5      4      6      1    1.0956e+02    3.9246e+02 ;     H2 - C2     - C3    
     5      4     19      1    1.0956e+02    3.9246e+02 ;     H2 - C2     - C9    
     6      4     19      1    1.1151e+02    5.4308e+02 ;     C3 - C2     - C9    
     6      9     10      1    1.1248e+02    5.5480e+02 ;     C3 - O2     - C4    
     7      6      8      1    1.0846e+02    3.2468e+02 ;     H3 - C3     - H4    
     7      6      9      1    1.0978e+02    5.2216e+02 ;     H3 - C3     - O2    
     8      6      9      1    1.0978e+02    5.2216e+02 ;     H4 - C3     - O2    
     9     10    130      1    1.0978e+02    5.2216e+02 ;     O2 - C4     - H46   
     9     10    131      1    1.0978e+02    5.2216e+02 ;     O2 - C4     - H47   
     9     10    132      1    1.0978e+02    5.2216e+02 ;     O2 - C4     - H48   
    11      1    126      1    1.0797e+02    7.1379e+02 ;     C5 - C1     - O30   
    11     13     14      1    1.1248e+02    5.5480e+02 ;     C5 - O3     - C6    
    11     15     16      1    1.0956e+02    3.9246e+02 ;     C5 - C7     - H6    
    11     15     17      1    1.0797e+02    7.1379e+02 ;     C5 - C7     - O4    
    11     15     19      1    1.1151e+02    5.4308e+02 ;     C5 - C7     - C9    
    12     11     13      1    1.0978e+02    5.2216e+02 ;     H5 - C5     - O3    
    12     11     15      1    1.0956e+02    3.9246e+02 ;     H5 - C5     - C7    
    13     11     15      1    1.0797e+02    7.1379e+02 ;     O3 - C5     - C7    
    13     14    169      1    1.0978e+02    5.2216e+02 ;     O3 - C6     - H85   
    13     14    170      1    1.0978e+02    5.2216e+02 ;     O3 - C6     - H86   
    13     14    171      1    1.0978e+02    5.2216e+02 ;     O3 - C6     - H87   
    15     17     18      1    1.1248e+02    5.5480e+02 ;     C7 - O4     - C8    
    15     19     20      1    1.0956e+02    3.9246e+02 ;     C7 - C9     - H7    
    15     19     21      1    1.0797e+02    7.1379e+02 ;     C7 - C9     - O5    
    16     15     17      1    1.0978e+02    5.2216e+02 ;     H6 - C7     - O4    
    16     15     19      1    1.0956e+02    3.9246e+02 ;     H6 - C7     - C9    
    17     15     19      1    1.0797e+02    7.1379e+02 ;     O4 - C7     - C9    
    17     18    166      1    1.0978e+02    5.2216e+02 ;     O4 - C8     - H82   
    17     18    167      1    1.0978e+02    5.2216e+02 ;     O4 - C8     - H83   
    17     18    168      1    1.0978e+02    5.2216e+02 ;     O4 - C8     - H84   
    19     21     22      1    1.1248e+02    5.5480e+02 ;     C9 - O5     - C10   
    20     19     21      1    1.0978e+02    5.2216e+02 ;     H7 - C9     - O5    
    21     22     23      1    1.0958e+02    5.2216e+02 ;     O5 - C10    - H8    
    21     22     24      1    1.0829e+02    9.2801e+02 ;     O5 - C10    - O6    
    21     22     32      1    1.0797e+02    7.1379e+02 ;     O5 - C10    - C14   
    22     24     25      1    1.1248e+02    5.5480e+02 ;    C10 - O6     - C11   
    22     32     33      1    1.0956e+02    3.9246e+02 ;    C10 - C14    - H12   
    22     32     34      1    1.0797e+02    7.1379e+02 ;    C10 - C14    - O8    
    22     32     36      1    1.1151e+02    5.4308e+02 ;    C10 - C14    - C16   
    23     22     24      1    1.0958e+02    5.2216e+02 ;     H8 - C10    - O6    
    23     22     32      1    1.1022e+02    3.9079e+02 ;     H8 - C10    - C14   
    24     22     32      1    1.0797e+02    7.1379e+02 ;     O6 - C10    - C14   
    24     25     26      1    1.0978e+02    5.2216e+02 ;     O6 - C11    - H9    
    24     25     27      1    1.0797e+02    7.1379e+02 ;     O6 - C11    - C12   
    24     25     40      1    1.0797e+02    7.1379e+02 ;     O6 - C11    - C18   
    25     27     28      1    1.0956e+02    3.9246e+02 ;    C11 - C12    - H10   
    25     27     29      1    1.0956e+02    3.9246e+02 ;    C11 - C12    - H11   
    25     27     30      1    1.0797e+02    7.1379e+02 ;    C11 - C12    - O7    
    25     40     36      1    1.1151e+02    5.4308e+02 ;    C11 - C18    - C16   
    25     40     41      1    1.0956e+02    3.9246e+02 ;    C11 - C18    - H14   
    25     40     42      1    1.0797e+02    7.1379e+02 ;    C11 - C18    - O10   
    26     25     27      1    1.0956e+02    3.9246e+02 ;     H9 - C11    - C12   
    26     25     40      1    1.0956e+02    3.9246e+02 ;     H9 - C11    - C18   
    27     25     40      1    1.1151e+02    5.4308e+02 ;    C12 - C11    - C18   
    27     30     31      1    1.1248e+02    5.5480e+02 ;    C12 - O7     - C13   
    28     27     29      1    1.0846e+02    3.2468e+02 ;    H10 - C12    - H11   
    28     27     30      1    1.0978e+02    5.2216e+02 ;    H10 - C12    - O7    
    29     27     30      1    1.0978e+02    5.2216e+02 ;    H11 - C12    - O7    
    30     31    127      1    1.0978e+02    5.2216e+02 ;     O7 - C13    - H43   
    30     31    128      1    1.0978e+02    5.2216e+02 ;     O7 - C13    - H44   
    30     31    129      1    1.0978e+02    5.2216e+02 ;     O7 - C13    - H45   
    32     34     35      1    1.1248e+02    5.5480e+02 ;    C14 - O8     - C15   
    32     36     37      1    1.0956e+02    3.9246e+02 ;    C14 - C16    - H13   
    32     36     38      1    1.0797e+02    7.1379e+02 ;    C14 - C16    - O9    
    32     36     40      1    1.1151e+02    5.4308e+02 ;    C14 - C16    - C18   
    33     32     34      1    1.0978e+02    5.2216e+02 ;    H12 - C14    - O8    
    33     32     36      1    1.0956e+02    3.9246e+02 ;    H12 - C14    - C16   
    34     32     36      1    1.0797e+02    7.1379e+02 ;     O8 - C14    - C16   
    34     35    163      1    1.0978e+02    5.2216e+02 ;     O8 - C15    - H79   
    34     35    164      1    1.0978e+02    5.2216e+02 ;     O8 - C15    - H80   
    34     35    165      1    1.0978e+02    5.2216e+02 ;     O8 - C15    - H81   
    36     38     39      1    1.1248e+02    5.5480e+02 ;    C16 - O9     - C17   
    36     40     41      1    1.0956e+02    3.9246e+02 ;    C16 - C18    - H14   
    36     40     42      1    1.0797e+02    7.1379e+02 ;    C16 - C18    - O10   
    37     36     38      1    1.0978e+02    5.2216e+02 ;    H13 - C16    - O9    
    37     36     40      1    1.0956e+02    3.9246e+02 ;    H13 - C16    - C18   
    38     36     40      1    1.0797e+02    7.1379e+02 ;     O9 - C16    - C18   
    38     39    160      1    1.0978e+02    5.2216e+02 ;     O9 - C17    - H76   
    38     39    161      1    1.0978e+02    5.2216e+02 ;     O9 - C17    - H77   
    38     39    162      1    1.0978e+02    5.2216e+02 ;     O9 - C17    - H78   
    40     42     43      1    1.1248e+02    5.5480e+02 ;    C18 - O10    - C19   
    41     40     42      1    1.0978e+02    5.2216e+02 ;    H14 - C18    - O10   
    42     43     44      1    1.0958e+02    5.2216e+02 ;    O10 - C19    - H15   
    42     43     45      1    1.0829e+02    9.2801e+02 ;    O10 - C19    - O11   
    42     43     53      1    1.0797e+02    7.1379e+02 ;    O10 - C19    - C23   
    43     45     46      1    1.1248e+02    5.5480e+02 ;    C19 - O11    - C20   
    43     53     54      1    1.0956e+02    3.9246e+02 ;    C19 - C23    - H19   
    43     53     55      1    1.0797e+02    7.1379e+02 ;    C19 - C23    - O13   
    43     53     57      1    1.1151e+02    5.4308e+02 ;    C19 - C23    - C25   
    44     43     45      1    1.0958e+02    5.2216e+02 ;    H15 - C19    - O11   
    44     43     53      1    1.1022e+02    3.9079e+02 ;    H15 - C19    - C23   
    45     43     53      1    1.0797e+02    7.1379e+02 ;    O11 - C19    - C23   
    45     46     47      1    1.0978e+02    5.2216e+02 ;    O11 - C20    - H16   
    45     46     48      1    1.0797e+02    7.1379e+02 ;    O11 - C20    - C21   
    45     46     61      1    1.0797e+02    7.1379e+02 ;    O11 - C20    - C27   
    46     48     49      1    1.0956e+02    3.9246e+02 ;    C20 - C21    - H17   
    46     48     50      1    1.0956e+02    3.9246e+02 ;    C20 - C21    - H18   
    46     48     51      1    1.0797e+02    7.1379e+02 ;    C20 - C21    - O12   
    46     61     57      1    1.1151e+02    5.4308e+02 ;    C20 - C27    - C25   
    46     61     62      1    1.0956e+02    3.9246e+02 ;    C20 - C27    - H21   
    46     61     63      1    1.0797e+02    7.1379e+02 ;    C20 - C27    - O15   
    47     46     48      1    1.0956e+02    3.9246e+02 ;    H16 - C20    - C21   
    47     46     61      1    1.0956e+02    3.9246e+02 ;    H16 - C20    - C27   
    48     46     61      1    1.1151e+02    5.4308e+02 ;    C21 - C20    - C27   
    48     51     52      1    1.1248e+02    5.5480e+02 ;    C21 - O12    - C22   
    49     48     50      1    1.0846e+02    3.2468e+02 ;    H17 - C21    - H18   
    49     48     51      1    1.0978e+02    5.2216e+02 ;    H17 - C21    - O12   
    50     48     51      1    1.0978e+02    5.2216e+02 ;    H18 - C21    - O12   
    51     52    142      1    1.0978e+02    5.2216e+02 ;    O12 - C22    - H58   
    51     52    143      1    1.0978e+02    5.2216e+02 ;    O12 - C22    - H59   
    51     52    144      1    1.0978e+02    5.2216e+02 ;    O12 - C22    - H60   
    53     55     56      1    1.1248e+02    5.5480e+02 ;    C23 - O13    - C24   
    53     57     58      1    1.0956e+02    3.9246e+02 ;    C23 - C25    - H20   
    53     57     59      1    1.0797e+02    7.1379e+02 ;    C23 - C25    - O14   
    53     57     61      1    1.1151e+02    5.4308e+02 ;    C23 - C25    - C27   
    54     53     55      1    1.0978e+02    5.2216e+02 ;    H19 - C23    - O13   
    54     53     57      1    1.0956e+02    3.9246e+02 ;    H19 - C23    - C25   
    55     53     57      1    1.0797e+02    7.1379e+02 ;    O13 - C23    - C25   
    55     56    157      1    1.0978e+02    5.2216e+02 ;    O13 - C24    - H73   
    55     56    158      1    1.0978e+02    5.2216e+02 ;    O13 - C24    - H74   
    55     56    159      1    1.0978e+02    5.2216e+02 ;    O13 - C24    - H75   
    57     59     60      1    1.1248e+02    5.5480e+02 ;    C25 - O14    - C26   
    57     61     62      1    1.0956e+02    3.9246e+02 ;    C25 - C27    - H21   
    57     61     63      1    1.0797e+02    7.1379e+02 ;    C25 - C27    - O15   
    58     57     59      1    1.0978e+02    5.2216e+02 ;    H20 - C25    - O14   
    58     57     61      1    1.0956e+02    3.9246e+02 ;    H20 - C25    - C27   
    59     57     61      1    1.0797e+02    7.1379e+02 ;    O14 - C25    - C27   
    59     60    154      1    1.0978e+02    5.2216e+02 ;    O14 - C26    - H70   
    59     60    155      1    1.0978e+02    5.2216e+02 ;    O14 - C26    - H71   
    59     60    156      1    1.0978e+02    5.2216e+02 ;    O14 - C26    - H72   
    61     63     64      1    1.1248e+02    5.5480e+02 ;    C27 - O15    - C28   
    62     61     63      1    1.0978e+02    5.2216e+02 ;    H21 - C27    - O15   
    63     64     65      1    1.0958e+02    5.2216e+02 ;    O15 - C28    - H22   
    63     64     66      1    1.0829e+02    9.2801e+02 ;    O15 - C28    - O16   
    63     64     74      1    1.0797e+02    7.1379e+02 ;    O15 - C28    - C32   
    64     66     67      1    1.1248e+02    5.5480e+02 ;    C28 - O16    - C29   
    64     74     75      1    1.0956e+02    3.9246e+02 ;    C28 - C32    - H26   
    64     74     76      1    1.0797e+02    7.1379e+02 ;    C28 - C32    - O18   
    64     74     78      1    1.1151e+02    5.4308e+02 ;    C28 - C32    - C34   
    65     64     66      1    1.0958e+02    5.2216e+02 ;    H22 - C28    - O16   
    65     64     74      1    1.1022e+02    3.9079e+02 ;    H22 - C28    - C32   
    66     64     74      1    1.0797e+02    7.1379e+02 ;    O16 - C28    - C32   
    66     67     68      1    1.0978e+02    5.2216e+02 ;    O16 - C29    - H23   
    66     67     69      1    1.0797e+02    7.1379e+02 ;    O16 - C29    - C30   
    66     67     82      1    1.0797e+02    7.1379e+02 ;    O16 - C29    - C36   
    67     69     70      1    1.0956e+02    3.9246e+02 ;    C29 - C30    - H24   
    67     69     71      1    1.0956e+02    3.9246e+02 ;    C29 - C30    - H25   
    67     69     72      1    1.0797e+02    7.1379e+02 ;    C29 - C30    - O17   
    67     82     78      1    1.1151e+02    5.4308e+02 ;    C29 - C36    - C34   
    67     82     83      1    1.0956e+02    3.9246e+02 ;    C29 - C36    - H28   
    67     82     84      1    1.0797e+02    7.1379e+02 ;    C29 - C36    - O20   
    68     67     69      1    1.0956e+02    3.9246e+02 ;    H23 - C29    - C30   
    68     67     82      1    1.0956e+02    3.9246e+02 ;    H23 - C29    - C36   
    69     67     82      1    1.1151e+02    5.4308e+02 ;    C30 - C29    - C36   
    69     72     73      1    1.1248e+02    5.5480e+02 ;    C30 - O17    - C31   
    70     69     71      1    1.0846e+02    3.2468e+02 ;    H24 - C30    - H25   
    70     69     72      1    1.0978e+02    5.2216e+02 ;    H24 - C30    - O17   
    71     69     72      1    1.0978e+02    5.2216e+02 ;    H25 - C30    - O17   
    72     73    139      1    1.0978e+02    5.2216e+02 ;    O17 - C31    - H55   
    72     73    140      1    1.0978e+02    5.2216e+02 ;    O17 - C31    - H56   
    72     73    141      1    1.0978e+02    5.2216e+02 ;    O17 - C31    - H57   
    74     76     77      1    1.1248e+02    5.5480e+02 ;    C32 - O18    - C33   
    74     78     79      1    1.0956e+02    3.9246e+02 ;    C32 - C34    - H27   
    74     78     80      1    1.0797e+02    7.1379e+02 ;    C32 - C34    - O19   
    74     78     82      1    1.1151e+02    5.4308e+02 ;    C32 - C34    - C36   
    75     74     76      1    1.0978e+02    5.2216e+02 ;    H26 - C32    - O18   
    75     74     78      1    1.0956e+02    3.9246e+02 ;    H26 - C32    - C34   
    76     74     78      1    1.0797e+02    7.1379e+02 ;    O18 - C32    - C34   
    76     77    151      1    1.0978e+02    5.2216e+02 ;    O18 - C33    - H67   
    76     77    152      1    1.0978e+02    5.2216e+02 ;    O18 - C33    - H68   
    76     77    153      1    1.0978e+02    5.2216e+02 ;    O18 - C33    - H69   
    78     80     81      1    1.1248e+02    5.5480e+02 ;    C34 - O19    - C35   
    78     82     83      1    1.0956e+02    3.9246e+02 ;    C34 - C36    - H28   
    78     82     84      1    1.0797e+02    7.1379e+02 ;    C34 - C36    - O20   
    79     78     80      1    1.0978e+02    5.2216e+02 ;    H27 - C34    - O19   
    79     78     82      1    1.0956e+02    3.9246e+02 ;    H27 - C34    - C36   
    80     78     82      1    1.0797e+02    7.1379e+02 ;    O19 - C34    - C36   
    80     81    148      1    1.0978e+02    5.2216e+02 ;    O19 - C35    - H64   
    80     81    149      1    1.0978e+02    5.2216e+02 ;    O19 - C35    - H65   
    80     81    150      1    1.0978e+02    5.2216e+02 ;    O19 - C35    - H66   
    82     84     85      1    1.1248e+02    5.5480e+02 ;    C36 - O20    - C37   
    83     82     84      1    1.0978e+02    5.2216e+02 ;    H28 - C36    - O20   
    84     85     86      1    1.0958e+02    5.2216e+02 ;    O20 - C37    - H29   
    84     85     87      1    1.0829e+02    9.2801e+02 ;    O20 - C37    - O21   
    84     85     95      1    1.0797e+02    7.1379e+02 ;    O20 - C37    - C41   
    85     87     88      1    1.1248e+02    5.5480e+02 ;    C37 - O21    - C38   
    85     95     96      1    1.0956e+02    3.9246e+02 ;    C37 - C41    - H33   
    85     95     97      1    1.0797e+02    7.1379e+02 ;    C37 - C41    - O23   
    85     95     99      1    1.1151e+02    5.4308e+02 ;    C37 - C41    - C43   
    86     85     87      1    1.0958e+02    5.2216e+02 ;    H29 - C37    - O21   
    86     85     95      1    1.1022e+02    3.9079e+02 ;    H29 - C37    - C41   
    87     85     95      1    1.0797e+02    7.1379e+02 ;    O21 - C37    - C41   
    87     88     89      1    1.0978e+02    5.2216e+02 ;    O21 - C38    - H30   
    87     88     90      1    1.0797e+02    7.1379e+02 ;    O21 - C38    - C39   
    87     88    103      1    1.0797e+02    7.1379e+02 ;    O21 - C38    - C45   
    88     90     91      1    1.0956e+02    3.9246e+02 ;    C38 - C39    - H31   
    88     90     92      1    1.0956e+02    3.9246e+02 ;    C38 - C39    - H32   
    88     90     93      1    1.0797e+02    7.1379e+02 ;    C38 - C39    - O22   
    88    103     99      1    1.1151e+02    5.4308e+02 ;    C38 - C45    - C43   
    88    103    104      1    1.0956e+02    3.9246e+02 ;    C38 - C45    - H35   
    88    103    105      1    1.0797e+02    7.1379e+02 ;    C38 - C45    - O25   
    89     88     90      1    1.0956e+02    3.9246e+02 ;    H30 - C38    - C39   
    89     88    103      1    1.0956e+02    3.9246e+02 ;    H30 - C38    - C45   
    90     88    103      1    1.1151e+02    5.4308e+02 ;    C39 - C38    - C45   
    90     93     94      1    1.1248e+02    5.5480e+02 ;    C39 - O22    - C40   
    91     90     92      1    1.0846e+02    3.2468e+02 ;    H31 - C39    - H32   
    91     90     93      1    1.0978e+02    5.2216e+02 ;    H31 - C39    - O22   
    92     90     93      1    1.0978e+02    5.2216e+02 ;    H32 - C39    - O22   
    93     94    136      1    1.0978e+02    5.2216e+02 ;    O22 - C40    - H52   
    93     94    137      1    1.0978e+02    5.2216e+02 ;    O22 - C40    - H53   
    93     94    138      1    1.0978e+02    5.2216e+02 ;    O22 - C40    - H54   
    95     97     98      1    1.1248e+02    5.5480e+02 ;    C41 - O23    - C42   
    95     99    100      1    1.0956e+02    3.9246e+02 ;    C41 - C43    - H34   
    95     99    101      1    1.0797e+02    7.1379e+02 ;    C41 - C43    - O24   
    95     99    103      1    1.1151e+02    5.4308e+02 ;    C41 - C43    - C45   
    96     95     97      1    1.0978e+02    5.2216e+02 ;    H33 - C41    - O23   
    96     95     99      1    1.0956e+02    3.9246e+02 ;    H33 - C41    - C43   
    97     95     99      1    1.0797e+02    7.1379e+02 ;    O23 - C41    - C43   
    97     98    145      1    1.0978e+02    5.2216e+02 ;    O23 - C42    - H61   
    97     98    146      1    1.0978e+02    5.2216e+02 ;    O23 - C42    - H62   
    97     98    147      1    1.0978e+02    5.2216e+02 ;    O23 - C42    - H63   
    99    101    102      1    1.1248e+02    5.5480e+02 ;    C43 - O24    - C44   
    99    103    104      1    1.0956e+02    3.9246e+02 ;    C43 - C45    - H35   
    99    103    105      1    1.0797e+02    7.1379e+02 ;    C43 - C45    - O25   
   100     99    101      1    1.0978e+02    5.2216e+02 ;    H34 - C43    - O24   
   100     99    103      1    1.0956e+02    3.9246e+02 ;    H34 - C43    - C45   
   101     99    103      1    1.0797e+02    7.1379e+02 ;    O24 - C43    - C45   
   101    102    178      1    1.0978e+02    5.2216e+02 ;    O24 - C44    - H94   
   101    102    179      1    1.0978e+02    5.2216e+02 ;    O24 - C44    - H95   
   101    102    180      1    1.0978e+02    5.2216e+02 ;    O24 - C44    - H96   
   103    105    106      1    1.1248e+02    5.5480e+02 ;    C45 - O25    - C46   
   104    103    105      1    1.0978e+02    5.2216e+02 ;    H35 - C45    - O25   
   105    106    107      1    1.0958e+02    5.2216e+02 ;    O25 - C46    - H36   
   105    106    108      1    1.0829e+02    9.2801e+02 ;    O25 - C46    - O26   
   105    106    116      1    1.0797e+02    7.1379e+02 ;    O25 - C46    - C50   
   106    108    109      1    1.1248e+02    5.5480e+02 ;    C46 - O26    - C47   
   106    116    117      1    1.0956e+02    3.9246e+02 ;    C46 - C50    - H40   
   106    116    118      1    1.0797e+02    7.1379e+02 ;    C46 - C50    - O28   
   106    116    120      1    1.1151e+02    5.4308e+02 ;    C46 - C50    - C52   
   107    106    108      1    1.0958e+02    5.2216e+02 ;    H36 - C46    - O26   
   107    106    116      1    1.1022e+02    3.9079e+02 ;    H36 - C46    - C50   
   108    106    116      1    1.0797e+02    7.1379e+02 ;    O26 - C46    - C50   
   108    109    110      1    1.0978e+02    5.2216e+02 ;    O26 - C47    - H37   
   108    109    111      1    1.0797e+02    7.1379e+02 ;    O26 - C47    - C48   
   108    109    124      1    1.0797e+02    7.1379e+02 ;    O26 - C47    - C54   
   109    111    112      1    1.0956e+02    3.9246e+02 ;    C47 - C48    - H38   
   109    111    113      1    1.0956e+02    3.9246e+02 ;    C47 - C48    - H39   
   109    111    114      1    1.0797e+02    7.1379e+02 ;    C47 - C48    - O27   
   109    124    120      1    1.1151e+02    5.4308e+02 ;    C47 - C54    - C52   
   109    124    125      1    1.0956e+02    3.9246e+02 ;    C47 - C54    - H42   
   109    124    126      1    1.0797e+02    7.1379e+02 ;    C47 - C54    - O30   
   110    109    111      1    1.0956e+02    3.9246e+02 ;    H37 - C47    - C48   
   110    109    124      1    1.0956e+02    3.9246e+02 ;    H37 - C47    - C54   
   111    109    124      1    1.1151e+02    5.4308e+02 ;    C48 - C47    - C54   
   111    114    115      1    1.1248e+02    5.5480e+02 ;    C48 - O27    - C49   
   112    111    113      1    1.0846e+02    3.2468e+02 ;    H38 - C48    - H39   
   112    111    114      1    1.0978e+02    5.2216e+02 ;    H38 - C48    - O27   
   113    111    114      1    1.0978e+02    5.2216e+02 ;    H39 - C48    - O27   
   114    115    133      1    1.0978e+02    5.2216e+02 ;    O27 - C49    - H49   
   114    115    134      1    1.0978e+02    5.2216e+02 ;    O27 - C49    - H50   
   114    115    135      1    1.0978e+02    5.2216e+02 ;    O27 - C49    - H51   
   116    118    119      1    1.1248e+02    5.5480e+02 ;    C50 - O28    - C51   
   116    120    121      1    1.0956e+02    3.9246e+02 ;    C50 - C52    - H41   
   116    120    122      1    1.0797e+02    7.1379e+02 ;    C50 - C52    - O29   
   116    120    124      1    1.1151e+02    5.4308e+02 ;    C50 - C52    - C54   
   117    116    118      1    1.0978e+02    5.2216e+02 ;    H40 - C50    - O28   
   117    116    120      1    1.0956e+02    3.9246e+02 ;    H40 - C50    - C52   
   118    116    120      1    1.0797e+02    7.1379e+02 ;    O28 - C50    - C52   
   118    119    175      1    1.0978e+02    5.2216e+02 ;    O28 - C51    - H91   
   118    119    176      1    1.0978e+02    5.2216e+02 ;    O28 - C51    - H92   
   118    119    177      1    1.0978e+02    5.2216e+02 ;    O28 - C51    - H93   
   120    122    123      1    1.1248e+02    5.5480e+02 ;    C52 - O29    - C53   
   120    124    125      1    1.0956e+02    3.9246e+02 ;    C52 - C54    - H42   
   120    124    126      1    1.0797e+02    7.1379e+02 ;    C52 - C54    - O30   
   121    120    122      1    1.0978e+02    5.2216e+02 ;    H41 - C52    - O29   
   121    120    124      1    1.0956e+02    3.9246e+02 ;    H41 - C52    - C54   
   122    120    124      1    1.0797e+02    7.1379e+02 ;    O29 - C52    - C54   
   122    123    172      1    1.0978e+02    5.2216e+02 ;    O29 - C53    - H88   
   122    123    173      1    1.0978e+02    5.2216e+02 ;    O29 - C53    - H89   
   122    123    174      1    1.0978e+02    5.2216e+02 ;    O29 - C53    - H90   
   125    124    126      1    1.0978e+02    5.2216e+02 ;    H42 - C54    - O30   
   127     31    128      1    1.0846e+02    3.2468e+02 ;    H43 - C13    - H44   
   127     31    129      1    1.0846e+02    3.2468e+02 ;    H43 - C13    - H45   
   128     31    129      1    1.0846e+02    3.2468e+02 ;    H44 - C13    - H45   
   130     10    131      1    1.0846e+02    3.2468e+02 ;    H46 - C4     - H47   
   130     10    132      1    1.0846e+02    3.2468e+02 ;    H46 - C4     - H48   
   131     10    132      1    1.0846e+02    3.2468e+02 ;    H47 - C4     - H48   
   133    115    134      1    1.0846e+02    3.2468e+02 ;    H49 - C49    - H50   
   133    115    135      1    1.0846e+02    3.2468e+02 ;    H49 - C49    - H51   
   134    115    135      1    1.0846e+02    3.2468e+02 ;    H50 - C49    - H51   
   136     94    137      1    1.0846e+02    3.2468e+02 ;    H52 - C40    - H53   
   136     94    138      1    1.0846e+02    3.2468e+02 ;    H52 - C40    - H54   
   137     94    138      1    1.0846e+02    3.2468e+02 ;    H53 - C40    - H54   
   139     73    140      1    1.0846e+02    3.2468e+02 ;    H55 - C31    - H56   
   139     73    141      1    1.0846e+02    3.2468e+02 ;    H55 - C31    - H57   
   140     73    141      1    1.0846e+02    3.2468e+02 ;    H56 - C31    - H57   
   142     52    143      1    1.0846e+02    3.2468e+02 ;    H58 - C22    - H59   
   142     52    144      1    1.0846e+02    3.2468e+02 ;    H58 - C22    - H60   
   143     52    144      1    1.0846e+02    3.2468e+02 ;    H59 - C22    - H60   
   145     98    146      1    1.0846e+02    3.2468e+02 ;    H61 - C42    - H62   
   145     98    147      1    1.0846e+02    3.2468e+02 ;    H61 - C42    - H63   
   146     98    147      1    1.0846e+02    3.2468e+02 ;    H62 - C42    - H63   
   148     81    149      1    1.0846e+02    3.2468e+02 ;    H64 - C35    - H65   
   148     81    150      1    1.0846e+02    3.2468e+02 ;    H64 - C35    - H66   
   149     81    150      1    1.0846e+02    3.2468e+02 ;    H65 - C35    - H66   
   151     77    152      1    1.0846e+02    3.2468e+02 ;    H67 - C33    - H68   
   151     77    153      1    1.0846e+02    3.2468e+02 ;    H67 - C33    - H69   
   152     77    153      1    1.0846e+02    3.2468e+02 ;    H68 - C33    - H69   
   154     60    155      1    1.0846e+02    3.2468e+02 ;    H70 - C26    - H71   
   154     60    156      1    1.0846e+02    3.2468e+02 ;    H70 - C26    - H72   
   155     60    156      1    1.0846e+02    3.2468e+02 ;    H71 - C26    - H72   
   157     56    158      1    1.0846e+02    3.2468e+02 ;    H73 - C24    - H74   
   157     56    159      1    1.0846e+02    3.2468e+02 ;    H73 - C24    - H75   
   158     56    159      1    1.0846e+02    3.2468e+02 ;    H74 - C24    - H75   
   160     39    161      1    1.0846e+02    3.2468e+02 ;    H76 - C17    - H77   
   160     39    162      1    1.0846e+02    3.2468e+02 ;    H76 - C17    - H78   
   161     39    162      1    1.0846e+02    3.2468e+02 ;    H77 - C17    - H78   
   163     35    164      1    1.0846e+02    3.2468e+02 ;    H79 - C15    - H80   
   163     35    165      1    1.0846e+02    3.2468e+02 ;    H79 - C15    - H81   
   164     35    165      1    1.0846e+02    3.2468e+02 ;    H80 - C15    - H81   
   166     18    167      1    1.0846e+02    3.2468e+02 ;    H82 - C8     - H83   
   166     18    168      1    1.0846e+02    3.2468e+02 ;    H82 - C8     - H84   
   167     18    168      1    1.0846e+02    3.2468e+02 ;    H83 - C8     - H84   
   169     14    170      1    1.0846e+02    3.2468e+02 ;    H85 - C6     - H86   
   169     14    171      1    1.0846e+02    3.2468e+02 ;    H85 - C6     - H87   
   170     14    171      1    1.0846e+02    3.2468e+02 ;    H86 - C6     - H87   
   172    123    173      1    1.0846e+02    3.2468e+02 ;    H88 - C53    - H89   
   172    123    174      1    1.0846e+02    3.2468e+02 ;    H88 - C53    - H90   
   173    123    174      1    1.0846e+02    3.2468e+02 ;    H89 - C53    - H90   
   175    119    176      1    1.0846e+02    3.2468e+02 ;    H91 - C51    - H92   
   175    119    177      1    1.0846e+02    3.2468e+02 ;    H91 - C51    - H93   
   176    119    177      1    1.0846e+02    3.2468e+02 ;    H92 - C51    - H93   
   178    102    179      1    1.0846e+02    3.2468e+02 ;    H94 - C44    - H95   
   178    102    180      1    1.0846e+02    3.2468e+02 ;    H94 - C44    - H96   
   179    102    180      1    1.0846e+02    3.2468e+02 ;    H95 - C44    - H96   

[ dihedrals ] ; propers
; for gromacs 4.5 or higher, using funct 9
;    i      j      k      l   func   phase     kd      pn
     1      3      4      5      9     0.00   1.41001   3 ;     C1-    O1-    C2-    H2
     1      3      4      6      9     0.00   0.00000   0 ;     C1-    O1-    C2-    C3
     1      3      4      6      9     0.00   0.66944   2 ;     C1-    O1-    C2-    C3
     1      3      4      6      9     0.00   1.00416   3 ;     C1-    O1-    C2-    C3
     1      3      4     19      9     0.00   0.00000   0 ;     C1-    O1-    C2-    C9
     1      3      4     19      9     0.00   0.66944   2 ;     C1-    O1-    C2-    C9
     1      3      4     19      9     0.00   1.00416   3 ;     C1-    O1-    C2-    C9
     1     11     13     14      9     0.00   0.00000   0 ;     C1-    C5-    O3-    C6
     1     11     13     14      9     0.00   0.66944   2 ;     C1-    C5-    O3-    C6
     1     11     13     14      9     0.00   1.00416   3 ;     C1-    C5-    O3-    C6
     1     11     15     16      9     0.00   0.65084   3 ;     C1-    C5-    C7-    H6
     1     11     15     17      9     0.00   0.65084   3 ;     C1-    C5-    C7-    O4
     1     11     15     19      9     0.00   0.46024   1 ;     C1-    C5-    C7-    C9
     1     11     15     19      9     0.00   0.54392   3 ;     C1-    C5-    C7-    C9
     1     11     15     19      9   180.00   1.21336   2 ;     C1-    C5-    C7-    C9
     1    126    124    109      9     0.00   0.00000   0 ;     C1-   O30-   C54-   C47
     1    126    124    109      9     0.00   0.66944   2 ;     C1-   O30-   C54-   C47
     1    126    124    109      9     0.00   1.00416   3 ;     C1-   O30-   C54-   C47
     1    126    124    120      9     0.00   0.00000   0 ;     C1-   O30-   C54-   C52
     1    126    124    120      9     0.00   0.66944   2 ;     C1-   O30-   C54-   C52
     1    126    124    120      9     0.00   1.00416   3 ;     C1-   O30-   C54-   C52
     1    126    124    125      9     0.00   1.41001   3 ;     C1-   O30-   C54-   H42
     2      1      3      4      9     0.00   1.60387   3 ;     H1-    C1-    O1-    C2
     2      1     11     12      9     0.00   0.65084   3 ;     H1-    C1-    C5-    H5
     2      1     11     13      9     0.00   0.65084   3 ;     H1-    C1-    C5-    O3
     2      1     11     15      9     0.00   0.65084   3 ;     H1-    C1-    C5-    C7
     2      1    126    124      9     0.00   1.60387   3 ;     H1-    C1-   O30-   C54
     3      1     11     12      9     0.00   0.00000   0 ;     O1-    C1-    C5-    H5
     3      1     11     12      9     0.00   1.04600   1 ;     O1-    C1-    C5-    H5
     3      1     11     13      9     0.00   0.00000   0 ;     O1-    C1-    C5-    O3
     3      1     11     13      9   180.00   0.00000   2 ;     O1-    C1-    C5-    O3
     3      1     11     13      9   180.00   0.71128   1 ;     O1-    C1-    C5-    O3
     3      1     11     15      9     0.00   0.65084   3 ;     O1-    C1-    C5-    C7
     3      1    126    124      9     0.00   5.18816   2 ;     O1-    C1-   O30-   C54
     3      1    126    124      9   180.00   0.00000   3 ;     O1-    C1-   O30-   C54
     3      1    126    124      9   180.00   4.05848   1 ;     O1-    C1-   O30-   C54
     3      4      6      7      9     0.00   0.00000   0 ;     O1-    C2-    C3-    H3
     3      4      6      7      9     0.00   1.04600   1 ;     O1-    C2-    C3-    H3
     3      4      6      8      9     0.00   0.00000   0 ;     O1-    C2-    C3-    H4
     3      4      6      8      9     0.00   1.04600   1 ;     O1-    C2-    C3-    H4
     3      4      6      9      9     0.00   0.00000   0 ;     O1-    C2-    C3-    O2
     3      4      6      9      9   180.00   0.00000   2 ;     O1-    C2-    C3-    O2
     3      4      6      9      9   180.00   0.71128   1 ;     O1-    C2-    C3-    O2
     3      4     19     15      9     0.00   0.65084   3 ;     O1-    C2-    C9-    C7
     3      4     19     20      9     0.00   0.00000   0 ;     O1-    C2-    C9-    H7
     3      4     19     20      9     0.00   1.04600   1 ;     O1-    C2-    C9-    H7
     3      4     19     21      9     0.00   0.00000   0 ;     O1-    C2-    C9-    O5
     3      4     19     21      9   180.00   0.00000   2 ;     O1-    C2-    C9-    O5
     3      4     19     21      9   180.00   0.71128   1 ;     O1-    C2-    C9-    O5
     4      6      9     10      9     0.00   0.00000   0 ;     C2-    C3-    O2-    C4
     4      6      9     10      9     0.00   0.66944   2 ;     C2-    C3-    O2-    C4
     4      6      9     10      9     0.00   1.00416   3 ;     C2-    C3-    O2-    C4
     4     19     15     11      9     0.00   0.46024   1 ;     C2-    C9-    C7-    C5
     4     19     15     11      9     0.00   0.54392   3 ;     C2-    C9-    C7-    C5
     4     19     15     11      9   180.00   1.21336   2 ;     C2-    C9-    C7-    C5
     4     19     15     16      9     0.00   0.65084   3 ;     C2-    C9-    C7-    H6
     4     19     15     17      9     0.00   0.65084   3 ;     C2-    C9-    C7-    O4
     4     19     21     22      9     0.00   0.00000   0 ;     C2-    C9-    O5-   C10
     4     19     21     22      9     0.00   0.66944   2 ;     C2-    C9-    O5-   C10
     4     19     21     22      9     0.00   1.00416   3 ;     C2-    C9-    O5-   C10
     5      4      6      7      9     0.00   0.65084   3 ;     H2-    C2-    C3-    H3
     5      4      6      8      9     0.00   0.65084   3 ;     H2-    C2-    C3-    H4
     5      4      6      9      9     0.00   0.00000   0 ;     H2-    C2-    C3-    O2
     5      4      6      9      9     0.00   1.04600   1 ;     H2-    C2-    C3-    O2
     5      4     19     15      9     0.00   0.65084   3 ;     H2-    C2-    C9-    C7
     5      4     19     20      9     0.00   0.65084   3 ;     H2-    C2-    C9-    H7
     5      4     19     21      9     0.00   0.00000   0 ;     H2-    C2-    C9-    O5
     5      4     19     21      9     0.00   1.04600   1 ;     H2-    C2-    C9-    O5
     6      4     19     15      9     0.00   0.46024   1 ;     C3-    C2-    C9-    C7
     6      4     19     15      9     0.00   0.54392   3 ;     C3-    C2-    C9-    C7
     6      4     19     15      9   180.00   1.21336   2 ;     C3-    C2-    C9-    C7
     6      4     19     20      9     0.00   0.65084   3 ;     C3-    C2-    C9-    H7
     6      4     19     21      9     0.00   0.65084   3 ;     C3-    C2-    C9-    O5
     6      9     10    130      9     0.00   1.41001   3 ;     C3-    O2-    C4-   H46
     6      9     10    131      9     0.00   1.41001   3 ;     C3-    O2-    C4-   H47
     6      9     10    132      9     0.00   1.41001   3 ;     C3-    O2-    C4-   H48
     7      6      4     19      9     0.00   0.65084   3 ;     H3-    C3-    C2-    C9
     7      6      9     10      9     0.00   1.41001   3 ;     H3-    C3-    O2-    C4
     8      6      4     19      9     0.00   0.65084   3 ;     H4-    C3-    C2-    C9
     8      6      9     10      9     0.00   1.41001   3 ;     H4-    C3-    O2-    C4
     9      6      4     19      9     0.00   0.65084   3 ;     O2-    C3-    C2-    C9
    11      1      3      4      9     0.00   0.00000   0 ;     C5-    C1-    O1-    C2
    11      1      3      4      9     0.00   0.66944   2 ;     C5-    C1-    O1-    C2
    11      1      3      4      9     0.00   1.00416   3 ;     C5-    C1-    O1-    C2
    11      1    126    124      9     0.00   0.00000   0 ;     C5-    C1-   O30-   C54
    11      1    126    124      9     0.00   0.66944   2 ;     C5-    C1-   O30-   C54
    11      1    126    124      9     0.00   1.00416   3 ;     C5-    C1-   O30-   C54
    11     13     14    169      9     0.00   1.41001   3 ;     C5-    O3-    C6-   H85
    11     13     14    170      9     0.00   1.41001   3 ;     C5-    O3-    C6-   H86
    11     13     14    171      9     0.00   1.41001   3 ;     C5-    O3-    C6-   H87
    11     15     17     18      9     0.00   0.00000   0 ;     C5-    C7-    O4-    C8
    11     15     17     18      9     0.00   0.66944   2 ;     C5-    C7-    O4-    C8
    11     15     17     18      9     0.00   1.00416   3 ;     C5-    C7-    O4-    C8
    11     15     19     20      9     0.00   0.65084   3 ;     C5-    C7-    C9-    H7
    11     15     19     21      9     0.00   0.65084   3 ;     C5-    C7-    C9-    O5
    12     11     13     14      9     0.00   1.41001   3 ;     H5-    C5-    O3-    C6
    12     11     15     16      9     0.00   0.65084   3 ;     H5-    C5-    C7-    H6
    12     11     15     17      9     0.00   0.00000   0 ;     H5-    C5-    C7-    O4
    12     11     15     17      9     0.00   1.04600   1 ;     H5-    C5-    C7-    O4
    12     11     15     19      9     0.00   0.65084   3 ;     H5-    C5-    C7-    C9
    13     11     15     16      9     0.00   0.00000   0 ;     O3-    C5-    C7-    H6
    13     11     15     16      9     0.00   1.04600   1 ;     O3-    C5-    C7-    H6
    13     11     15     17      9     0.00   0.00000   0 ;     O3-    C5-    C7-    O4
    13     11     15     17      9   180.00   0.00000   2 ;     O3-    C5-    C7-    O4
    13     11     15     17      9   180.00   0.71128   1 ;     O3-    C5-    C7-    O4
    13     11     15     19      9     0.00   0.65084   3 ;     O3-    C5-    C7-    C9
    14     13     11     15      9     0.00   0.00000   0 ;     C6-    O3-    C5-    C7
    14     13     11     15      9     0.00   0.66944   2 ;     C6-    O3-    C5-    C7
    14     13     11     15      9     0.00   1.00416   3 ;     C6-    O3-    C5-    C7
    15     17     18    166      9     0.00   1.41001   3 ;     C7-    O4-    C8-   H82
    15     17     18    167      9     0.00   1.41001   3 ;     C7-    O4-    C8-   H83
    15     17     18    168      9     0.00   1.41001   3 ;     C7-    O4-    C8-   H84
    15     19     21     22      9     0.00   0.00000   0 ;     C7-    C9-    O5-   C10
    15     19     21     22      9     0.00   0.66944   2 ;     C7-    C9-    O5-   C10
    15     19     21     22      9     0.00   1.00416   3 ;     C7-    C9-    O5-   C10
    16     15     17     18      9     0.00   1.41001   3 ;     H6-    C7-    O4-    C8
    16     15     19     20      9     0.00   0.65084   3 ;     H6-    C7-    C9-    H7
    16     15     19     21      9     0.00   0.00000   0 ;     H6-    C7-    C9-    O5
    16     15     19     21      9     0.00   1.04600   1 ;     H6-    C7-    C9-    O5
    17     15     19     20      9     0.00   0.00000   0 ;     O4-    C7-    C9-    H7
    17     15     19     20      9     0.00   1.04600   1 ;     O4-    C7-    C9-    H7
    17     15     19     21      9     0.00   0.00000   0 ;     O4-    C7-    C9-    O5
    17     15     19     21      9   180.00   0.00000   2 ;     O4-    C7-    C9-    O5
    17     15     19     21      9   180.00   0.71128   1 ;     O4-    C7-    C9-    O5
    18     17     15     19      9     0.00   0.00000   0 ;     C8-    O4-    C7-    C9
    18     17     15     19      9     0.00   0.66944   2 ;     C8-    O4-    C7-    C9
    18     17     15     19      9     0.00   1.00416   3 ;     C8-    O4-    C7-    C9
    19     21     22     23      9     0.00   1.60387   3 ;     C9-    O5-   C10-    H8
    19     21     22     24      9     0.00   5.18816   2 ;     C9-    O5-   C10-    O6
    19     21     22     24      9   180.00   0.00000   3 ;     C9-    O5-   C10-    O6
    19     21     22     24      9   180.00   4.05848   1 ;     C9-    O5-   C10-    O6
    19     21     22     32      9     0.00   0.00000   0 ;     C9-    O5-   C10-   C14
    19     21     22     32      9     0.00   0.66944   2 ;     C9-    O5-   C10-   C14
    19     21     22     32      9     0.00   1.00416   3 ;     C9-    O5-   C10-   C14
    20     19     21     22      9     0.00   1.41001   3 ;     H7-    C9-    O5-   C10
    21     22     24     25      9     0.00   5.18816   2 ;     O5-   C10-    O6-   C11
    21     22     24     25      9   180.00   0.00000   3 ;     O5-   C10-    O6-   C11
    21     22     24     25      9   180.00   4.05848   1 ;     O5-   C10-    O6-   C11
    21     22     32     33      9     0.00   0.00000   0 ;     O5-   C10-   C14-   H12
    21     22     32     33      9     0.00   1.04600   1 ;     O5-   C10-   C14-   H12
    21     22     32     34      9     0.00   0.00000   0 ;     O5-   C10-   C14-    O8
    21     22     32     34      9   180.00   0.00000   2 ;     O5-   C10-   C14-    O8
    21     22     32     34      9   180.00   0.71128   1 ;     O5-   C10-   C14-    O8
    21     22     32     36      9     0.00   0.65084   3 ;     O5-   C10-   C14-   C16
    22     24     25     26      9     0.00   1.41001   3 ;    C10-    O6-   C11-    H9
    22     24     25     27      9     0.00   0.00000   0 ;    C10-    O6-   C11-   C12
    22     24     25     27      9     0.00   0.66944   2 ;    C10-    O6-   C11-   C12
    22     24     25     27      9     0.00   1.00416   3 ;    C10-    O6-   C11-   C12
    22     24     25     40      9     0.00   0.00000   0 ;    C10-    O6-   C11-   C18
    22     24     25     40      9     0.00   0.66944   2 ;    C10-    O6-   C11-   C18
    22     24     25     40      9     0.00   1.00416   3 ;    C10-    O6-   C11-   C18
    22     32     34     35      9     0.00   0.00000   0 ;    C10-   C14-    O8-   C15
    22     32     34     35      9     0.00   0.66944   2 ;    C10-   C14-    O8-   C15
    22     32     34     35      9     0.00   1.00416   3 ;    C10-   C14-    O8-   C15
    22     32     36     37      9     0.00   0.65084   3 ;    C10-   C14-   C16-   H13
    22     32     36     38      9     0.00   0.65084   3 ;    C10-   C14-   C16-    O9
    22     32     36     40      9     0.00   0.46024   1 ;    C10-   C14-   C16-   C18
    22     32     36     40      9     0.00   0.54392   3 ;    C10-   C14-   C16-   C18
    22     32     36     40      9   180.00   1.21336   2 ;    C10-   C14-   C16-   C18
    23     22     24     25      9     0.00   1.60387   3 ;     H8-   C10-    O6-   C11
    23     22     32     33      9     0.00   0.65084   3 ;     H8-   C10-   C14-   H12
    23     22     32     34      9     0.00   0.65084   3 ;     H8-   C10-   C14-    O8
    23     22     32     36      9     0.00   0.65084   3 ;     H8-   C10-   C14-   C16
    24     22     32     33      9     0.00   0.00000   0 ;     O6-   C10-   C14-   H12
    24     22     32     33      9     0.00   1.04600   1 ;     O6-   C10-   C14-   H12
    24     22     32     34      9     0.00   0.00000   0 ;     O6-   C10-   C14-    O8
    24     22     32     34      9   180.00   0.00000   2 ;     O6-   C10-   C14-    O8
    24     22     32     34      9   180.00   0.71128   1 ;     O6-   C10-   C14-    O8
    24     22     32     36      9     0.00   0.65084   3 ;     O6-   C10-   C14-   C16
    24     25     27     28      9     0.00   0.00000   0 ;     O6-   C11-   C12-   H10
    24     25     27     28      9     0.00   1.04600   1 ;     O6-   C11-   C12-   H10
    24     25     27     29      9     0.00   0.00000   0 ;     O6-   C11-   C12-   H11
    24     25     27     29      9     0.00   1.04600   1 ;     O6-   C11-   C12-   H11
    24     25     27     30      9     0.00   0.00000   0 ;     O6-   C11-   C12-    O7
    24     25     27     30      9   180.00   0.00000   2 ;     O6-   C11-   C12-    O7
    24     25     27     30      9   180.00   0.71128   1 ;     O6-   C11-   C12-    O7
    24     25     40     36      9     0.00   0.65084   3 ;     O6-   C11-   C18-   C16
    24     25     40     41      9     0.00   0.00000   0 ;     O6-   C11-   C18-   H14
    24     25     40     41      9     0.00   1.04600   1 ;     O6-   C11-   C18-   H14
    24     25     40     42      9     0.00   0.00000   0 ;     O6-   C11-   C18-   O10
    24     25     40     42      9   180.00   0.00000   2 ;     O6-   C11-   C18-   O10
    24     25     40     42      9   180.00   0.71128   1 ;     O6-   C11-   C18-   O10
    25     24     22     32      9     0.00   0.00000   0 ;    C11-    O6-   C10-   C14
    25     24     22     32      9     0.00   0.66944   2 ;    C11-    O6-   C10-   C14
    25     24     22     32      9     0.00   1.00416   3 ;    C11-    O6-   C10-   C14
    25     27     30     31      9     0.00   0.00000   0 ;    C11-   C12-    O7-   C13
    25     27     30     31      9     0.00   0.66944   2 ;    C11-   C12-    O7-   C13
    25     27     30     31      9     0.00   1.00416   3 ;    C11-   C12-    O7-   C13
    25     40     36     32      9     0.00   0.46024   1 ;    C11-   C18-   C16-   C14
    25     40     36     32      9     0.00   0.54392   3 ;    C11-   C18-   C16-   C14
    25     40     36     32      9   180.00   1.21336   2 ;    C11-   C18-   C16-   C14
    25     40     36     37      9     0.00   0.65084   3 ;    C11-   C18-   C16-   H13
    25     40     36     38      9     0.00   0.65084   3 ;    C11-   C18-   C16-    O9
    25     40     42     43      9     0.00   0.00000   0 ;    C11-   C18-   O10-   C19
    25     40     42     43      9     0.00   0.66944   2 ;    C11-   C18-   O10-   C19
    25     40     42     43      9     0.00   1.00416   3 ;    C11-   C18-   O10-   C19
    26     25     27     28      9     0.00   0.65084   3 ;     H9-   C11-   C12-   H10
    26     25     27     29      9     0.00   0.65084   3 ;     H9-   C11-   C12-   H11
    26     25     27     30      9     0.00   0.00000   0 ;     H9-   C11-   C12-    O7
    26     25     27     30      9     0.00   1.04600   1 ;     H9-   C11-   C12-    O7
    26     25     40     36      9     0.00   0.65084   3 ;     H9-   C11-   C18-   C16
    26     25     40     41      9     0.00   0.65084   3 ;     H9-   C11-   C18-   H14
    26     25     40     42      9     0.00   0.00000   0 ;     H9-   C11-   C18-   O10
    26     25     40     42      9     0.00   1.04600   1 ;     H9-   C11-   C18-   O10
    27     25     40     36      9     0.00   0.46024   1 ;    C12-   C11-   C18-   C16
    27     25     40     36      9     0.00   0.54392   3 ;    C12-   C11-   C18-   C16
    27     25     40     36      9   180.00   1.21336   2 ;    C12-   C11-   C18-   C16
    27     25     40     41      9     0.00   0.65084   3 ;    C12-   C11-   C18-   H14
    27     25     40     42      9     0.00   0.65084   3 ;    C12-   C11-   C18-   O10
    27     30     31    127      9     0.00   1.41001   3 ;    C12-    O7-   C13-   H43
    27     30     31    128      9     0.00   1.41001   3 ;    C12-    O7-   C13-   H44
    27     30     31    129      9     0.00   1.41001   3 ;    C12-    O7-   C13-   H45
    28     27     25     40      9     0.00   0.65084   3 ;    H10-   C12-   C11-   C18
    28     27     30     31      9     0.00   1.41001   3 ;    H10-   C12-    O7-   C13
    29     27     25     40      9     0.00   0.65084   3 ;    H11-   C12-   C11-   C18
    29     27     30     31      9     0.00   1.41001   3 ;    H11-   C12-    O7-   C13
    30     27     25     40      9     0.00   0.65084   3 ;     O7-   C12-   C11-   C18
    32     34     35    163      9     0.00   1.41001   3 ;    C14-    O8-   C15-   H79
    32     34     35    164      9     0.00   1.41001   3 ;    C14-    O8-   C15-   H80
    32     34     35    165      9     0.00   1.41001   3 ;    C14-    O8-   C15-   H81
    32     36     38     39      9     0.00   0.00000   0 ;    C14-   C16-    O9-   C17
    32     36     38     39      9     0.00   0.66944   2 ;    C14-   C16-    O9-   C17
    32     36     38     39      9     0.00   1.00416   3 ;    C14-   C16-    O9-   C17
    32     36     40     41      9     0.00   0.65084   3 ;    C14-   C16-   C18-   H14
    32     36     40     42      9     0.00   0.65084   3 ;    C14-   C16-   C18-   O10
    33     32     34     35      9     0.00   1.41001   3 ;    H12-   C14-    O8-   C15
    33     32     36     37      9     0.00   0.65084   3 ;    H12-   C14-   C16-   H13
    33     32     36     38      9     0.00   0.00000   0 ;    H12-   C14-   C16-    O9
    33     32     36     38      9     0.00   1.04600   1 ;    H12-   C14-   C16-    O9
    33     32     36     40      9     0.00   0.65084   3 ;    H12-   C14-   C16-   C18
    34     32     36     37      9     0.00   0.00000   0 ;     O8-   C14-   C16-   H13
    34     32     36     37      9     0.00   1.04600   1 ;     O8-   C14-   C16-   H13
    34     32     36     38      9     0.00   0.00000   0 ;     O8-   C14-   C16-    O9
    34     32     36     38      9   180.00   0.00000   2 ;     O8-   C14-   C16-    O9
    34     32     36     38      9   180.00   0.71128   1 ;     O8-   C14-   C16-    O9
    34     32     36     40      9     0.00   0.65084   3 ;     O8-   C14-   C16-   C18
    35     34     32     36      9     0.00   0.00000   0 ;    C15-    O8-   C14-   C16
    35     34     32     36      9     0.00   0.66944   2 ;    C15-    O8-   C14-   C16
    35     34     32     36      9     0.00   1.00416   3 ;    C15-    O8-   C14-   C16
    36     38     39    160      9     0.00   1.41001   3 ;    C16-    O9-   C17-   H76
    36     38     39    161      9     0.00   1.41001   3 ;    C16-    O9-   C17-   H77
    36     38     39    162      9     0.00   1.41001   3 ;    C16-    O9-   C17-   H78
    36     40     42     43      9     0.00   0.00000   0 ;    C16-   C18-   O10-   C19
    36     40     42     43      9     0.00   0.66944   2 ;    C16-   C18-   O10-   C19
    36     40     42     43      9     0.00   1.00416   3 ;    C16-   C18-   O10-   C19
    37     36     38     39      9     0.00   1.41001   3 ;    H13-   C16-    O9-   C17
    37     36     40     41      9     0.00   0.65084   3 ;    H13-   C16-   C18-   H14
    37     36     40     42      9     0.00   0.00000   0 ;    H13-   C16-   C18-   O10
    37     36     40     42      9     0.00   1.04600   1 ;    H13-   C16-   C18-   O10
    38     36     40     41      9     0.00   0.00000   0 ;     O9-   C16-   C18-   H14
    38     36     40     41      9     0.00   1.04600   1 ;     O9-   C16-   C18-   H14
    38     36     40     42      9     0.00   0.00000   0 ;     O9-   C16-   C18-   O10
    38     36     40     42      9   180.00   0.00000   2 ;     O9-   C16-   C18-   O10
    38     36     40     42      9   180.00   0.71128   1 ;     O9-   C16-   C18-   O10
    39     38     36     40      9     0.00   0.00000   0 ;    C17-    O9-   C16-   C18
    39     38     36     40      9     0.00   0.66944   2 ;    C17-    O9-   C16-   C18
    39     38     36     40      9     0.00   1.00416   3 ;    C17-    O9-   C16-   C18
    40     42     43     44      9     0.00   1.60387   3 ;    C18-   O10-   C19-   H15
    40     42     43     45      9     0.00   5.18816   2 ;    C18-   O10-   C19-   O11
    40     42     43     45      9   180.00   0.00000   3 ;    C18-   O10-   C19-   O11
    40     42     43     45      9   180.00   4.05848   1 ;    C18-   O10-   C19-   O11
    40     42     43     53      9     0.00   0.00000   0 ;    C18-   O10-   C19-   C23
    40     42     43     53      9     0.00   0.66944   2 ;    C18-   O10-   C19-   C23
    40     42     43     53      9     0.00   1.00416   3 ;    C18-   O10-   C19-   C23
    41     40     42     43      9     0.00   1.41001   3 ;    H14-   C18-   O10-   C19
    42     43     45     46      9     0.00   5.18816   2 ;    O10-   C19-   O11-   C20
    42     43     45     46      9   180.00   0.00000   3 ;    O10-   C19-   O11-   C20
    42     43     45     46      9   180.00   4.05848   1 ;    O10-   C19-   O11-   C20
    42     43     53     54      9     0.00   0.00000   0 ;    O10-   C19-   C23-   H19
    42     43     53     54      9     0.00   1.04600   1 ;    O10-   C19-   C23-   H19
    42     43     53     55      9     0.00   0.00000   0 ;    O10-   C19-   C23-   O13
    42     43     53     55      9   180.00   0.00000   2 ;    O10-   C19-   C23-   O13
    42     43     53     55      9   180.00   0.71128   1 ;    O10-   C19-   C23-   O13
    42     43     53     57      9     0.00   0.65084   3 ;    O10-   C19-   C23-   C25
    43     45     46     47      9     0.00   1.41001   3 ;    C19-   O11-   C20-   H16
    43     45     46     48      9     0.00   0.00000   0 ;    C19-   O11-   C20-   C21
    43     45     46     48      9     0.00   0.66944   2 ;    C19-   O11-   C20-   C21
    43     45     46     48      9     0.00   1.00416   3 ;    C19-   O11-   C20-   C21
    43     45     46     61      9     0.00   0.00000   0 ;    C19-   O11-   C20-   C27
    43     45     46     61      9     0.00   0.66944   2 ;    C19-   O11-   C20-   C27
    43     45     46     61      9     0.00   1.00416   3 ;    C19-   O11-   C20-   C27
    43     53     55     56      9     0.00   0.00000   0 ;    C19-   C23-   O13-   C24
    43     53     55     56      9     0.00   0.66944   2 ;    C19-   C23-   O13-   C24
    43     53     55     56      9     0.00   1.00416   3 ;    C19-   C23-   O13-   C24
    43     53     57     58      9     0.00   0.65084   3 ;    C19-   C23-   C25-   H20
    43     53     57     59      9     0.00   0.65084   3 ;    C19-   C23-   C25-   O14
    43     53     57     61      9     0.00   0.46024   1 ;    C19-   C23-   C25-   C27
    43     53     57     61      9     0.00   0.54392   3 ;    C19-   C23-   C25-   C27
    43     53     57     61      9   180.00   1.21336   2 ;    C19-   C23-   C25-   C27
    44     43     45     46      9     0.00   1.60387   3 ;    H15-   C19-   O11-   C20
    44     43     53     54      9     0.00   0.65084   3 ;    H15-   C19-   C23-   H19
    44     43     53     55      9     0.00   0.65084   3 ;    H15-   C19-   C23-   O13
    44     43     53     57      9     0.00   0.65084   3 ;    H15-   C19-   C23-   C25
    45     43     53     54      9     0.00   0.00000   0 ;    O11-   C19-   C23-   H19
    45     43     53     54      9     0.00   1.04600   1 ;    O11-   C19-   C23-   H19
    45     43     53     55      9     0.00   0.00000   0 ;    O11-   C19-   C23-   O13
    45     43     53     55      9   180.00   0.00000   2 ;    O11-   C19-   C23-   O13
    45     43     53     55      9   180.00   0.71128   1 ;    O11-   C19-   C23-   O13
    45     43     53     57      9     0.00   0.65084   3 ;    O11-   C19-   C23-   C25
    45     46     48     49      9     0.00   0.00000   0 ;    O11-   C20-   C21-   H17
    45     46     48     49      9     0.00   1.04600   1 ;    O11-   C20-   C21-   H17
    45     46     48     50      9     0.00   0.00000   0 ;    O11-   C20-   C21-   H18
    45     46     48     50      9     0.00   1.04600   1 ;    O11-   C20-   C21-   H18
    45     46     48     51      9     0.00   0.00000   0 ;    O11-   C20-   C21-   O12
    45     46     48     51      9   180.00   0.00000   2 ;    O11-   C20-   C21-   O12
    45     46     48     51      9   180.00   0.71128   1 ;    O11-   C20-   C21-   O12
    45     46     61     57      9     0.00   0.65084   3 ;    O11-   C20-   C27-   C25
    45     46     61     62      9     0.00   0.00000   0 ;    O11-   C20-   C27-   H21
    45     46     61     62      9     0.00   1.04600   1 ;    O11-   C20-   C27-   H21
    45     46     61     63      9     0.00   0.00000   0 ;    O11-   C20-   C27-   O15
    45     46     61     63      9   180.00   0.00000   2 ;    O11-   C20-   C27-   O15
    45     46     61     63      9   180.00   0.71128   1 ;    O11-   C20-   C27-   O15
    46     45     43     53      9     0.00   0.00000   0 ;    C20-   O11-   C19-   C23
    46     45     43     53      9     0.00   0.66944   2 ;    C20-   O11-   C19-   C23
    46     45     43     53      9     0.00   1.00416   3 ;    C20-   O11-   C19-   C23
    46     48     51     52      9     0.00   0.00000   0 ;    C20-   C21-   O12-   C22
    46     48     51     52      9     0.00   0.66944   2 ;    C20-   C21-   O12-   C22
    46     48     51     52      9     0.00   1.00416   3 ;    C20-   C21-   O12-   C22
    46     61     57     53      9     0.00   0.46024   1 ;    C20-   C27-   C25-   C23
    46     61     57     53      9     0.00   0.54392   3 ;    C20-   C27-   C25-   C23
    46     61     57     53      9   180.00   1.21336   2 ;    C20-   C27-   C25-   C23
    46     61     57     58      9     0.00   0.65084   3 ;    C20-   C27-   C25-   H20
    46     61     57     59      9     0.00   0.65084   3 ;    C20-   C27-   C25-   O14
    46     61     63     64      9     0.00   0.00000   0 ;    C20-   C27-   O15-   C28
    46     61     63     64      9     0.00   0.66944   2 ;    C20-   C27-   O15-   C28
    46     61     63     64      9     0.00   1.00416   3 ;    C20-   C27-   O15-   C28
    47     46     48     49      9     0.00   0.65084   3 ;    H16-   C20-   C21-   H17
    47     46     48     50      9     0.00   0.65084   3 ;    H16-   C20-   C21-   H18
    47     46     48     51      9     0.00   0.00000   0 ;    H16-   C20-   C21-   O12
    47     46     48     51      9     0.00   1.04600   1 ;    H16-   C20-   C21-   O12
    47     46     61     57      9     0.00   0.65084   3 ;    H16-   C20-   C27-   C25
    47     46     61     62      9     0.00   0.65084   3 ;    H16-   C20-   C27-   H21
    47     46     61     63      9     0.00   0.00000   0 ;    H16-   C20-   C27-   O15
    47     46     61     63      9     0.00   1.04600   1 ;    H16-   C20-   C27-   O15
    48     46     61     57      9     0.00   0.46024   1 ;    C21-   C20-   C27-   C25
    48     46     61     57      9     0.00   0.54392   3 ;    C21-   C20-   C27-   C25
    48     46     61     57      9   180.00   1.21336   2 ;    C21-   C20-   C27-   C25
    48     46     61     62      9     0.00   0.65084   3 ;    C21-   C20-   C27-   H21
    48     46     61     63      9     0.00   0.65084   3 ;    C21-   C20-   C27-   O15
    48     51     52    142      9     0.00   1.41001   3 ;    C21-   O12-   C22-   H58
    48     51     52    143      9     0.00   1.41001   3 ;    C21-   O12-   C22-   H59
    48     51     52    144      9     0.00   1.41001   3 ;    C21-   O12-   C22-   H60
    49     48     46     61      9     0.00   0.65084   3 ;    H17-   C21-   C20-   C27
    49     48     51     52      9     0.00   1.41001   3 ;    H17-   C21-   O12-   C22
    50     48     46     61      9     0.00   0.65084   3 ;    H18-   C21-   C20-   C27
    50     48     51     52      9     0.00   1.41001   3 ;    H18-   C21-   O12-   C22
    51     48     46     61      9     0.00   0.65084   3 ;    O12-   C21-   C20-   C27
    53     55     56    157      9     0.00   1.41001   3 ;    C23-   O13-   C24-   H73
    53     55     56    158      9     0.00   1.41001   3 ;    C23-   O13-   C24-   H74
    53     55     56    159      9     0.00   1.41001   3 ;    C23-   O13-   C24-   H75
    53     57     59     60      9     0.00   0.00000   0 ;    C23-   C25-   O14-   C26
    53     57     59     60      9     0.00   0.66944   2 ;    C23-   C25-   O14-   C26
    53     57     59     60      9     0.00   1.00416   3 ;    C23-   C25-   O14-   C26
    53     57     61     62      9     0.00   0.65084   3 ;    C23-   C25-   C27-   H21
    53     57     61     63      9     0.00   0.65084   3 ;    C23-   C25-   C27-   O15
    54     53     55     56      9     0.00   1.41001   3 ;    H19-   C23-   O13-   C24
    54     53     57     58      9     0.00   0.65084   3 ;    H19-   C23-   C25-   H20
    54     53     57     59      9     0.00   0.00000   0 ;    H19-   C23-   C25-   O14
    54     53     57     59      9     0.00   1.04600   1 ;    H19-   C23-   C25-   O14
    54     53     57     61      9     0.00   0.65084   3 ;    H19-   C23-   C25-   C27
    55     53     57     58      9     0.00   0.00000   0 ;    O13-   C23-   C25-   H20
    55     53     57     58      9     0.00   1.04600   1 ;    O13-   C23-   C25-   H20
    55     53     57     59      9     0.00   0.00000   0 ;    O13-   C23-   C25-   O14
    55     53     57     59      9   180.00   0.00000   2 ;    O13-   C23-   C25-   O14
    55     53     57     59      9   180.00   0.71128   1 ;    O13-   C23-   C25-   O14
    55     53     57     61      9     0.00   0.65084   3 ;    O13-   C23-   C25-   C27
    56     55     53     57      9     0.00   0.00000   0 ;    C24-   O13-   C23-   C25
    56     55     53     57      9     0.00   0.66944   2 ;    C24-   O13-   C23-   C25
    56     55     53     57      9     0.00   1.00416   3 ;    C24-   O13-   C23-   C25
    57     59     60    154      9     0.00   1.41001   3 ;    C25-   O14-   C26-   H70
    57     59     60    155      9     0.00   1.41001   3 ;    C25-   O14-   C26-   H71
    57     59     60    156      9     0.00   1.41001   3 ;    C25-   O14-   C26-   H72
    57     61     63     64      9     0.00   0.00000   0 ;    C25-   C27-   O15-   C28
    57     61     63     64      9     0.00   0.66944   2 ;    C25-   C27-   O15-   C28
    57     61     63     64      9     0.00   1.00416   3 ;    C25-   C27-   O15-   C28
    58     57     59     60      9     0.00   1.41001   3 ;    H20-   C25-   O14-   C26
    58     57     61     62      9     0.00   0.65084   3 ;    H20-   C25-   C27-   H21
    58     57     61     63      9     0.00   0.00000   0 ;    H20-   C25-   C27-   O15
    58     57     61     63      9     0.00   1.04600   1 ;    H20-   C25-   C27-   O15
    59     57     61     62      9     0.00   0.00000   0 ;    O14-   C25-   C27-   H21
    59     57     61     62      9     0.00   1.04600   1 ;    O14-   C25-   C27-   H21
    59     57     61     63      9     0.00   0.00000   0 ;    O14-   C25-   C27-   O15
    59     57     61     63      9   180.00   0.00000   2 ;    O14-   C25-   C27-   O15
    59     57     61     63      9   180.00   0.71128   1 ;    O14-   C25-   C27-   O15
    60     59     57     61      9     0.00   0.00000   0 ;    C26-   O14-   C25-   C27
    60     59     57     61      9     0.00   0.66944   2 ;    C26-   O14-   C25-   C27
    60     59     57     61      9     0.00   1.00416   3 ;    C26-   O14-   C25-   C27
    61     63     64     65      9     0.00   1.60387   3 ;    C27-   O15-   C28-   H22
    61     63     64     66      9     0.00   5.18816   2 ;    C27-   O15-   C28-   O16
    61     63     64     66      9   180.00   0.00000   3 ;    C27-   O15-   C28-   O16
    61     63     64     66      9   180.00   4.05848   1 ;    C27-   O15-   C28-   O16
    61     63     64     74      9     0.00   0.00000   0 ;    C27-   O15-   C28-   C32
    61     63     64     74      9     0.00   0.66944   2 ;    C27-   O15-   C28-   C32
    61     63     64     74      9     0.00   1.00416   3 ;    C27-   O15-   C28-   C32
    62     61     63     64      9     0.00   1.41001   3 ;    H21-   C27-   O15-   C28
    63     64     66     67      9     0.00   5.18816   2 ;    O15-   C28-   O16-   C29
    63     64     66     67      9   180.00   0.00000   3 ;    O15-   C28-   O16-   C29
    63     64     66     67      9   180.00   4.05848   1 ;    O15-   C28-   O16-   C29
    63     64     74     75      9     0.00   0.00000   0 ;    O15-   C28-   C32-   H26
    63     64     74     75      9     0.00   1.04600   1 ;    O15-   C28-   C32-   H26
    63     64     74     76      9     0.00   0.00000   0 ;    O15-   C28-   C32-   O18
    63     64     74     76      9   180.00   0.00000   2 ;    O15-   C28-   C32-   O18
    63     64     74     76      9   180.00   0.71128   1 ;    O15-   C28-   C32-   O18
    63     64     74     78      9     0.00   0.65084   3 ;    O15-   C28-   C32-   C34
    64     66     67     68      9     0.00   1.41001   3 ;    C28-   O16-   C29-   H23
    64     66     67     69      9     0.00   0.00000   0 ;    C28-   O16-   C29-   C30
    64     66     67     69      9     0.00   0.66944   2 ;    C28-   O16-   C29-   C30
    64     66     67     69      9     0.00   1.00416   3 ;    C28-   O16-   C29-   C30
    64     66     67     82      9     0.00   0.00000   0 ;    C28-   O16-   C29-   C36
    64     66     67     82      9     0.00   0.66944   2 ;    C28-   O16-   C29-   C36
    64     66     67     82      9     0.00   1.00416   3 ;    C28-   O16-   C29-   C36
    64     74     76     77      9     0.00   0.00000   0 ;    C28-   C32-   O18-   C33
    64     74     76     77      9     0.00   0.66944   2 ;    C28-   C32-   O18-   C33
    64     74     76     77      9     0.00   1.00416   3 ;    C28-   C32-   O18-   C33
    64     74     78     79      9     0.00   0.65084   3 ;    C28-   C32-   C34-   H27
    64     74     78     80      9     0.00   0.65084   3 ;    C28-   C32-   C34-   O19
    64     74     78     82      9     0.00   0.46024   1 ;    C28-   C32-   C34-   C36
    64     74     78     82      9     0.00   0.54392   3 ;    C28-   C32-   C34-   C36
    64     74     78     82      9   180.00   1.21336   2 ;    C28-   C32-   C34-   C36
    65     64     66     67      9     0.00   1.60387   3 ;    H22-   C28-   O16-   C29
    65     64     74     75      9     0.00   0.65084   3 ;    H22-   C28-   C32-   H26
    65     64     74     76      9     0.00   0.65084   3 ;    H22-   C28-   C32-   O18
    65     64     74     78      9     0.00   0.65084   3 ;    H22-   C28-   C32-   C34
    66     64     74     75      9     0.00   0.00000   0 ;    O16-   C28-   C32-   H26
    66     64     74     75      9     0.00   1.04600   1 ;    O16-   C28-   C32-   H26
    66     64     74     76      9     0.00   0.00000   0 ;    O16-   C28-   C32-   O18
    66     64     74     76      9   180.00   0.00000   2 ;    O16-   C28-   C32-   O18
    66     64     74     76      9   180.00   0.71128   1 ;    O16-   C28-   C32-   O18
    66     64     74     78      9     0.00   0.65084   3 ;    O16-   C28-   C32-   C34
    66     67     69     70      9     0.00   0.00000   0 ;    O16-   C29-   C30-   H24
    66     67     69     70      9     0.00   1.04600   1 ;    O16-   C29-   C30-   H24
    66     67     69     71      9     0.00   0.00000   0 ;    O16-   C29-   C30-   H25
    66     67     69     71      9     0.00   1.04600   1 ;    O16-   C29-   C30-   H25
    66     67     69     72      9     0.00   0.00000   0 ;    O16-   C29-   C30-   O17
    66     67     69     72      9   180.00   0.00000   2 ;    O16-   C29-   C30-   O17
    66     67     69     72      9   180.00   0.71128   1 ;    O16-   C29-   C30-   O17
    66     67     82     78      9     0.00   0.65084   3 ;    O16-   C29-   C36-   C34
    66     67     82     83      9     0.00   0.00000   0 ;    O16-   C29-   C36-   H28
    66     67     82     83      9     0.00   1.04600   1 ;    O16-   C29-   C36-   H28
    66     67     82     84      9     0.00   0.00000   0 ;    O16-   C29-   C36-   O20
    66     67     82     84      9   180.00   0.00000   2 ;    O16-   C29-   C36-   O20
    66     67     82     84      9   180.00   0.71128   1 ;    O16-   C29-   C36-   O20
    67     66     64     74      9     0.00   0.00000   0 ;    C29-   O16-   C28-   C32
    67     66     64     74      9     0.00   0.66944   2 ;    C29-   O16-   C28-   C32
    67     66     64     74      9     0.00   1.00416   3 ;    C29-   O16-   C28-   C32
    67     69     72     73      9     0.00   0.00000   0 ;    C29-   C30-   O17-   C31
    67     69     72     73      9     0.00   0.66944   2 ;    C29-   C30-   O17-   C31
    67     69     72     73      9     0.00   1.00416   3 ;    C29-   C30-   O17-   C31
    67     82     78     74      9     0.00   0.46024   1 ;    C29-   C36-   C34-   C32
    67     82     78     74      9     0.00   0.54392   3 ;    C29-   C36-   C34-   C32
    67     82     78     74      9   180.00   1.21336   2 ;    C29-   C36-   C34-   C32
    67     82     78     79      9     0.00   0.65084   3 ;    C29-   C36-   C34-   H27
    67     82     78     80      9     0.00   0.65084   3 ;    C29-   C36-   C34-   O19
    67     82     84     85      9     0.00   0.00000   0 ;    C29-   C36-   O20-   C37
    67     82     84     85      9     0.00   0.66944   2 ;    C29-   C36-   O20-   C37
    67     82     84     85      9     0.00   1.00416   3 ;    C29-   C36-   O20-   C37
    68     67     69     70      9     0.00   0.65084   3 ;    H23-   C29-   C30-   H24
    68     67     69     71      9     0.00   0.65084   3 ;    H23-   C29-   C30-   H25
    68     67     69     72      9     0.00   0.00000   0 ;    H23-   C29-   C30-   O17
    68     67     69     72      9     0.00   1.04600   1 ;    H23-   C29-   C30-   O17
    68     67     82     78      9     0.00   0.65084   3 ;    H23-   C29-   C36-   C34
    68     67     82     83      9     0.00   0.65084   3 ;    H23-   C29-   C36-   H28
    68     67     82     84      9     0.00   0.00000   0 ;    H23-   C29-   C36-   O20
    68     67     82     84      9     0.00   1.04600   1 ;    H23-   C29-   C36-   O20
    69     67     82     78      9     0.00   0.46024   1 ;    C30-   C29-   C36-   C34
    69     67     82     78      9     0.00   0.54392   3 ;    C30-   C29-   C36-   C34
    69     67     82     78      9   180.00   1.21336   2 ;    C30-   C29-   C36-   C34
    69     67     82     83      9     0.00   0.65084   3 ;    C30-   C29-   C36-   H28
    69     67     82     84      9     0.00   0.65084   3 ;    C30-   C29-   C36-   O20
    69     72     73    139      9     0.00   1.41001   3 ;    C30-   O17-   C31-   H55
    69     72     73    140      9     0.00   1.41001   3 ;    C30-   O17-   C31-   H56
    69     72     73    141      9     0.00   1.41001   3 ;    C30-   O17-   C31-   H57
    70     69     67     82      9     0.00   0.65084   3 ;    H24-   C30-   C29-   C36
    70     69     72     73      9     0.00   1.41001   3 ;    H24-   C30-   O17-   C31
    71     69     67     82      9     0.00   0.65084   3 ;    H25-   C30-   C29-   C36
    71     69     72     73      9     0.00   1.41001   3 ;    H25-   C30-   O17-   C31
    72     69     67     82      9     0.00   0.65084   3 ;    O17-   C30-   C29-   C36
    74     76     77    151      9     0.00   1.41001   3 ;    C32-   O18-   C33-   H67
    74     76     77    152      9     0.00   1.41001   3 ;    C32-   O18-   C33-   H68
    74     76     77    153      9     0.00   1.41001   3 ;    C32-   O18-   C33-   H69
    74     78     80     81      9     0.00   0.00000   0 ;    C32-   C34-   O19-   C35
    74     78     80     81      9     0.00   0.66944   2 ;    C32-   C34-   O19-   C35
    74     78     80     81      9     0.00   1.00416   3 ;    C32-   C34-   O19-   C35
    74     78     82     83      9     0.00   0.65084   3 ;    C32-   C34-   C36-   H28
    74     78     82     84      9     0.00   0.65084   3 ;    C32-   C34-   C36-   O20
    75     74     76     77      9     0.00   1.41001   3 ;    H26-   C32-   O18-   C33
    75     74     78     79      9     0.00   0.65084   3 ;    H26-   C32-   C34-   H27
    75     74     78     80      9     0.00   0.00000   0 ;    H26-   C32-   C34-   O19
    75     74     78     80      9     0.00   1.04600   1 ;    H26-   C32-   C34-   O19
    75     74     78     82      9     0.00   0.65084   3 ;    H26-   C32-   C34-   C36
    76     74     78     79      9     0.00   0.00000   0 ;    O18-   C32-   C34-   H27
    76     74     78     79      9     0.00   1.04600   1 ;    O18-   C32-   C34-   H27
    76     74     78     80      9     0.00   0.00000   0 ;    O18-   C32-   C34-   O19
    76     74     78     80      9   180.00   0.00000   2 ;    O18-   C32-   C34-   O19
    76     74     78     80      9   180.00   0.71128   1 ;    O18-   C32-   C34-   O19
    76     74     78     82      9     0.00   0.65084   3 ;    O18-   C32-   C34-   C36
    77     76     74     78      9     0.00   0.00000   0 ;    C33-   O18-   C32-   C34
    77     76     74     78      9     0.00   0.66944   2 ;    C33-   O18-   C32-   C34
    77     76     74     78      9     0.00   1.00416   3 ;    C33-   O18-   C32-   C34
    78     80     81    148      9     0.00   1.41001   3 ;    C34-   O19-   C35-   H64
    78     80     81    149      9     0.00   1.41001   3 ;    C34-   O19-   C35-   H65
    78     80     81    150      9     0.00   1.41001   3 ;    C34-   O19-   C35-   H66
    78     82     84     85      9     0.00   0.00000   0 ;    C34-   C36-   O20-   C37
    78     82     84     85      9     0.00   0.66944   2 ;    C34-   C36-   O20-   C37
    78     82     84     85      9     0.00   1.00416   3 ;    C34-   C36-   O20-   C37
    79     78     80     81      9     0.00   1.41001   3 ;    H27-   C34-   O19-   C35
    79     78     82     83      9     0.00   0.65084   3 ;    H27-   C34-   C36-   H28
    79     78     82     84      9     0.00   0.00000   0 ;    H27-   C34-   C36-   O20
    79     78     82     84      9     0.00   1.04600   1 ;    H27-   C34-   C36-   O20
    80     78     82     83      9     0.00   0.00000   0 ;    O19-   C34-   C36-   H28
    80     78     82     83      9     0.00   1.04600   1 ;    O19-   C34-   C36-   H28
    80     78     82     84      9     0.00   0.00000   0 ;    O19-   C34-   C36-   O20
    80     78     82     84      9   180.00   0.00000   2 ;    O19-   C34-   C36-   O20
    80     78     82     84      9   180.00   0.71128   1 ;    O19-   C34-   C36-   O20
    81     80     78     82      9     0.00   0.00000   0 ;    C35-   O19-   C34-   C36
    81     80     78     82      9     0.00   0.66944   2 ;    C35-   O19-   C34-   C36
    81     80     78     82      9     0.00   1.00416   3 ;    C35-   O19-   C34-   C36
    82     84     85     86      9     0.00   1.60387   3 ;    C36-   O20-   C37-   H29
    82     84     85     87      9     0.00   5.18816   2 ;    C36-   O20-   C37-   O21
    82     84     85     87      9   180.00   0.00000   3 ;    C36-   O20-   C37-   O21
    82     84     85     87      9   180.00   4.05848   1 ;    C36-   O20-   C37-   O21
    82     84     85     95      9     0.00   0.00000   0 ;    C36-   O20-   C37-   C41
    82     84     85     95      9     0.00   0.66944   2 ;    C36-   O20-   C37-   C41
    82     84     85     95      9     0.00   1.00416   3 ;    C36-   O20-   C37-   C41
    83     82     84     85      9     0.00   1.41001   3 ;    H28-   C36-   O20-   C37
    84     85     87     88      9     0.00   5.18816   2 ;    O20-   C37-   O21-   C38
    84     85     87     88      9   180.00   0.00000   3 ;    O20-   C37-   O21-   C38
    84     85     87     88      9   180.00   4.05848   1 ;    O20-   C37-   O21-   C38
    84     85     95     96      9     0.00   0.00000   0 ;    O20-   C37-   C41-   H33
    84     85     95     96      9     0.00   1.04600   1 ;    O20-   C37-   C41-   H33
    84     85     95     97      9     0.00   0.00000   0 ;    O20-   C37-   C41-   O23
    84     85     95     97      9   180.00   0.00000   2 ;    O20-   C37-   C41-   O23
    84     85     95     97      9   180.00   0.71128   1 ;    O20-   C37-   C41-   O23
    84     85     95     99      9     0.00   0.65084   3 ;    O20-   C37-   C41-   C43
    85     87     88     89      9     0.00   1.41001   3 ;    C37-   O21-   C38-   H30
    85     87     88     90      9     0.00   0.00000   0 ;    C37-   O21-   C38-   C39
    85     87     88     90      9     0.00   0.66944   2 ;    C37-   O21-   C38-   C39
    85     87     88     90      9     0.00   1.00416   3 ;    C37-   O21-   C38-   C39
    85     87     88    103      9     0.00   0.00000   0 ;    C37-   O21-   C38-   C45
    85     87     88    103      9     0.00   0.66944   2 ;    C37-   O21-   C38-   C45
    85     87     88    103      9     0.00   1.00416   3 ;    C37-   O21-   C38-   C45
    85     95     97     98      9     0.00   0.00000   0 ;    C37-   C41-   O23-   C42
    85     95     97     98      9     0.00   0.66944   2 ;    C37-   C41-   O23-   C42
    85     95     97     98      9     0.00   1.00416   3 ;    C37-   C41-   O23-   C42
    85     95     99    100      9     0.00   0.65084   3 ;    C37-   C41-   C43-   H34
    85     95     99    101      9     0.00   0.65084   3 ;    C37-   C41-   C43-   O24
    85     95     99    103      9     0.00   0.46024   1 ;    C37-   C41-   C43-   C45
    85     95     99    103      9     0.00   0.54392   3 ;    C37-   C41-   C43-   C45
    85     95     99    103      9   180.00   1.21336   2 ;    C37-   C41-   C43-   C45
    86     85     87     88      9     0.00   1.60387   3 ;    H29-   C37-   O21-   C38
    86     85     95     96      9     0.00   0.65084   3 ;    H29-   C37-   C41-   H33
    86     85     95     97      9     0.00   0.65084   3 ;    H29-   C37-   C41-   O23
    86     85     95     99      9     0.00   0.65084   3 ;    H29-   C37-   C41-   C43
    87     85     95     96      9     0.00   0.00000   0 ;    O21-   C37-   C41-   H33
    87     85     95     96      9     0.00   1.04600   1 ;    O21-   C37-   C41-   H33
    87     85     95     97      9     0.00   0.00000   0 ;    O21-   C37-   C41-   O23
    87     85     95     97      9   180.00   0.00000   2 ;    O21-   C37-   C41-   O23
    87     85     95     97      9   180.00   0.71128   1 ;    O21-   C37-   C41-   O23
    87     85     95     99      9     0.00   0.65084   3 ;    O21-   C37-   C41-   C43
    87     88     90     91      9     0.00   0.00000   0 ;    O21-   C38-   C39-   H31
    87     88     90     91      9     0.00   1.04600   1 ;    O21-   C38-   C39-   H31
    87     88     90     92      9     0.00   0.00000   0 ;    O21-   C38-   C39-   H32
    87     88     90     92      9     0.00   1.04600   1 ;    O21-   C38-   C39-   H32
    87     88     90     93      9     0.00   0.00000   0 ;    O21-   C38-   C39-   O22
    87     88     90     93      9   180.00   0.00000   2 ;    O21-   C38-   C39-   O22
    87     88     90     93      9   180.00   0.71128   1 ;    O21-   C38-   C39-   O22
    87     88    103     99      9     0.00   0.65084   3 ;    O21-   C38-   C45-   C43
    87     88    103    104      9     0.00   0.00000   0 ;    O21-   C38-   C45-   H35
    87     88    103    104      9     0.00   1.04600   1 ;    O21-   C38-   C45-   H35
    87     88    103    105      9     0.00   0.00000   0 ;    O21-   C38-   C45-   O25
    87     88    103    105      9   180.00   0.00000   2 ;    O21-   C38-   C45-   O25
    87     88    103    105      9   180.00   0.71128   1 ;    O21-   C38-   C45-   O25
    88     87     85     95      9     0.00   0.00000   0 ;    C38-   O21-   C37-   C41
    88     87     85     95      9     0.00   0.66944   2 ;    C38-   O21-   C37-   C41
    88     87     85     95      9     0.00   1.00416   3 ;    C38-   O21-   C37-   C41
    88     90     93     94      9     0.00   0.00000   0 ;    C38-   C39-   O22-   C40
    88     90     93     94      9     0.00   0.66944   2 ;    C38-   C39-   O22-   C40
    88     90     93     94      9     0.00   1.00416   3 ;    C38-   C39-   O22-   C40
    88    103     99     95      9     0.00   0.46024   1 ;    C38-   C45-   C43-   C41
    88    103     99     95      9     0.00   0.54392   3 ;    C38-   C45-   C43-   C41
    88    103     99     95      9   180.00   1.21336   2 ;    C38-   C45-   C43-   C41
    88    103     99    100      9     0.00   0.65084   3 ;    C38-   C45-   C43-   H34
    88    103     99    101      9     0.00   0.65084   3 ;    C38-   C45-   C43-   O24
    88    103    105    106      9     0.00   0.00000   0 ;    C38-   C45-   O25-   C46
    88    103    105    106      9     0.00   0.66944   2 ;    C38-   C45-   O25-   C46
    88    103    105    106      9     0.00   1.00416   3 ;    C38-   C45-   O25-   C46
    89     88     90     91      9     0.00   0.65084   3 ;    H30-   C38-   C39-   H31
    89     88     90     92      9     0.00   0.65084   3 ;    H30-   C38-   C39-   H32
    89     88     90     93      9     0.00   0.00000   0 ;    H30-   C38-   C39-   O22
    89     88     90     93      9     0.00   1.04600   1 ;    H30-   C38-   C39-   O22
    89     88    103     99      9     0.00   0.65084   3 ;    H30-   C38-   C45-   C43
    89     88    103    104      9     0.00   0.65084   3 ;    H30-   C38-   C45-   H35
    89     88    103    105      9     0.00   0.00000   0 ;    H30-   C38-   C45-   O25
    89     88    103    105      9     0.00   1.04600   1 ;    H30-   C38-   C45-   O25
    90     88    103     99      9     0.00   0.46024   1 ;    C39-   C38-   C45-   C43
    90     88    103     99      9     0.00   0.54392   3 ;    C39-   C38-   C45-   C43
    90     88    103     99      9   180.00   1.21336   2 ;    C39-   C38-   C45-   C43
    90     88    103    104      9     0.00   0.65084   3 ;    C39-   C38-   C45-   H35
    90     88    103    105      9     0.00   0.65084   3 ;    C39-   C38-   C45-   O25
    90     93     94    136      9     0.00   1.41001   3 ;    C39-   O22-   C40-   H52
    90     93     94    137      9     0.00   1.41001   3 ;    C39-   O22-   C40-   H53
    90     93     94    138      9     0.00   1.41001   3 ;    C39-   O22-   C40-   H54
    91     90     88    103      9     0.00   0.65084   3 ;    H31-   C39-   C38-   C45
    91     90     93     94      9     0.00   1.41001   3 ;    H31-   C39-   O22-   C40
    92     90     88    103      9     0.00   0.65084   3 ;    H32-   C39-   C38-   C45
    92     90     93     94      9     0.00   1.41001   3 ;    H32-   C39-   O22-   C40
    93     90     88    103      9     0.00   0.65084   3 ;    O22-   C39-   C38-   C45
    95     97     98    145      9     0.00   1.41001   3 ;    C41-   O23-   C42-   H61
    95     97     98    146      9     0.00   1.41001   3 ;    C41-   O23-   C42-   H62
    95     97     98    147      9     0.00   1.41001   3 ;    C41-   O23-   C42-   H63
    95     99    101    102      9     0.00   0.00000   0 ;    C41-   C43-   O24-   C44
    95     99    101    102      9     0.00   0.66944   2 ;    C41-   C43-   O24-   C44
    95     99    101    102      9     0.00   1.00416   3 ;    C41-   C43-   O24-   C44
    95     99    103    104      9     0.00   0.65084   3 ;    C41-   C43-   C45-   H35
    95     99    103    105      9     0.00   0.65084   3 ;    C41-   C43-   C45-   O25
    96     95     97     98      9     0.00   1.41001   3 ;    H33-   C41-   O23-   C42
    96     95     99    100      9     0.00   0.65084   3 ;    H33-   C41-   C43-   H34
    96     95     99    101      9     0.00   0.00000   0 ;    H33-   C41-   C43-   O24
    96     95     99    101      9     0.00   1.04600   1 ;    H33-   C41-   C43-   O24
    96     95     99    103      9     0.00   0.65084   3 ;    H33-   C41-   C43-   C45
    97     95     99    100      9     0.00   0.00000   0 ;    O23-   C41-   C43-   H34
    97     95     99    100      9     0.00   1.04600   1 ;    O23-   C41-   C43-   H34
    97     95     99    101      9     0.00   0.00000   0 ;    O23-   C41-   C43-   O24
    97     95     99    101      9   180.00   0.00000   2 ;    O23-   C41-   C43-   O24
    97     95     99    101      9   180.00   0.71128   1 ;    O23-   C41-   C43-   O24
    97     95     99    103      9     0.00   0.65084   3 ;    O23-   C41-   C43-   C45
    98     97     95     99      9     0.00   0.00000   0 ;    C42-   O23-   C41-   C43
    98     97     95     99      9     0.00   0.66944   2 ;    C42-   O23-   C41-   C43
    98     97     95     99      9     0.00   1.00416   3 ;    C42-   O23-   C41-   C43
    99    101    102    178      9     0.00   1.41001   3 ;    C43-   O24-   C44-   H94
    99    101    102    179      9     0.00   1.41001   3 ;    C43-   O24-   C44-   H95
    99    101    102    180      9     0.00   1.41001   3 ;    C43-   O24-   C44-   H96
    99    103    105    106      9     0.00   0.00000   0 ;    C43-   C45-   O25-   C46
    99    103    105    106      9     0.00   0.66944   2 ;    C43-   C45-   O25-   C46
    99    103    105    106      9     0.00   1.00416   3 ;    C43-   C45-   O25-   C46
   100     99    101    102      9     0.00   1.41001   3 ;    H34-   C43-   O24-   C44
   100     99    103    104      9     0.00   0.65084   3 ;    H34-   C43-   C45-   H35
   100     99    103    105      9     0.00   0.00000   0 ;    H34-   C43-   C45-   O25
   100     99    103    105      9     0.00   1.04600   1 ;    H34-   C43-   C45-   O25
   101     99    103    104      9     0.00   0.00000   0 ;    O24-   C43-   C45-   H35
   101     99    103    104      9     0.00   1.04600   1 ;    O24-   C43-   C45-   H35
   101     99    103    105      9     0.00   0.00000   0 ;    O24-   C43-   C45-   O25
   101     99    103    105      9   180.00   0.00000   2 ;    O24-   C43-   C45-   O25
   101     99    103    105      9   180.00   0.71128   1 ;    O24-   C43-   C45-   O25
   102    101     99    103      9     0.00   0.00000   0 ;    C44-   O24-   C43-   C45
   102    101     99    103      9     0.00   0.66944   2 ;    C44-   O24-   C43-   C45
   102    101     99    103      9     0.00   1.00416   3 ;    C44-   O24-   C43-   C45
   103    105    106    107      9     0.00   1.60387   3 ;    C45-   O25-   C46-   H36
   103    105    106    108      9     0.00   5.18816   2 ;    C45-   O25-   C46-   O26
   103    105    106    108      9   180.00   0.00000   3 ;    C45-   O25-   C46-   O26
   103    105    106    108      9   180.00   4.05848   1 ;    C45-   O25-   C46-   O26
   103    105    106    116      9     0.00   0.00000   0 ;    C45-   O25-   C46-   C50
   103    105    106    116      9     0.00   0.66944   2 ;    C45-   O25-   C46-   C50
   103    105    106    116      9     0.00   1.00416   3 ;    C45-   O25-   C46-   C50
   104    103    105    106      9     0.00   1.41001   3 ;    H35-   C45-   O25-   C46
   105    106    108    109      9     0.00   5.18816   2 ;    O25-   C46-   O26-   C47
   105    106    108    109      9   180.00   0.00000   3 ;    O25-   C46-   O26-   C47
   105    106    108    109      9   180.00   4.05848   1 ;    O25-   C46-   O26-   C47
   105    106    116    117      9     0.00   0.00000   0 ;    O25-   C46-   C50-   H40
   105    106    116    117      9     0.00   1.04600   1 ;    O25-   C46-   C50-   H40
   105    106    116    118      9     0.00   0.00000   0 ;    O25-   C46-   C50-   O28
   105    106    116    118      9   180.00   0.00000   2 ;    O25-   C46-   C50-   O28
   105    106    116    118      9   180.00   0.71128   1 ;    O25-   C46-   C50-   O28
   105    106    116    120      9     0.00   0.65084   3 ;    O25-   C46-   C50-   C52
   106    108    109    110      9     0.00   1.41001   3 ;    C46-   O26-   C47-   H37
   106    108    109    111      9     0.00   0.00000   0 ;    C46-   O26-   C47-   C48
   106    108    109    111      9     0.00   0.66944   2 ;    C46-   O26-   C47-   C48
   106    108    109    111      9     0.00   1.00416   3 ;    C46-   O26-   C47-   C48
   106    108    109    124      9     0.00   0.00000   0 ;    C46-   O26-   C47-   C54
   106    108    109    124      9     0.00   0.66944   2 ;    C46-   O26-   C47-   C54
   106    108    109    124      9     0.00   1.00416   3 ;    C46-   O26-   C47-   C54
   106    116    118    119      9     0.00   0.00000   0 ;    C46-   C50-   O28-   C51
   106    116    118    119      9     0.00   0.66944   2 ;    C46-   C50-   O28-   C51
   106    116    118    119      9     0.00   1.00416   3 ;    C46-   C50-   O28-   C51
   106    116    120    121      9     0.00   0.65084   3 ;    C46-   C50-   C52-   H41
   106    116    120    122      9     0.00   0.65084   3 ;    C46-   C50-   C52-   O29
   106    116    120    124      9     0.00   0.46024   1 ;    C46-   C50-   C52-   C54
   106    116    120    124      9     0.00   0.54392   3 ;    C46-   C50-   C52-   C54
   106    116    120    124      9   180.00   1.21336   2 ;    C46-   C50-   C52-   C54
   107    106    108    109      9     0.00   1.60387   3 ;    H36-   C46-   O26-   C47
   107    106    116    117      9     0.00   0.65084   3 ;    H36-   C46-   C50-   H40
   107    106    116    118      9     0.00   0.65084   3 ;    H36-   C46-   C50-   O28
   107    106    116    120      9     0.00   0.65084   3 ;    H36-   C46-   C50-   C52
   108    106    116    117      9     0.00   0.00000   0 ;    O26-   C46-   C50-   H40
   108    106    116    117      9     0.00   1.04600   1 ;    O26-   C46-   C50-   H40
   108    106    116    118      9     0.00   0.00000   0 ;    O26-   C46-   C50-   O28
   108    106    116    118      9   180.00   0.00000   2 ;    O26-   C46-   C50-   O28
   108    106    116    118      9   180.00   0.71128   1 ;    O26-   C46-   C50-   O28
   108    106    116    120      9     0.00   0.65084   3 ;    O26-   C46-   C50-   C52
   108    109    111    112      9     0.00   0.00000   0 ;    O26-   C47-   C48-   H38
   108    109    111    112      9     0.00   1.04600   1 ;    O26-   C47-   C48-   H38
   108    109    111    113      9     0.00   0.00000   0 ;    O26-   C47-   C48-   H39
   108    109    111    113      9     0.00   1.04600   1 ;    O26-   C47-   C48-   H39
   108    109    111    114      9     0.00   0.00000   0 ;    O26-   C47-   C48-   O27
   108    109    111    114      9   180.00   0.00000   2 ;    O26-   C47-   C48-   O27
   108    109    111    114      9   180.00   0.71128   1 ;    O26-   C47-   C48-   O27
   108    109    124    120      9     0.00   0.65084   3 ;    O26-   C47-   C54-   C52
   108    109    124    125      9     0.00   0.00000   0 ;    O26-   C47-   C54-   H42
   108    109    124    125      9     0.00   1.04600   1 ;    O26-   C47-   C54-   H42
   108    109    124    126      9     0.00   0.00000   0 ;    O26-   C47-   C54-   O30
   108    109    124    126      9   180.00   0.00000   2 ;    O26-   C47-   C54-   O30
   108    109    124    126      9   180.00   0.71128   1 ;    O26-   C47-   C54-   O30
   109    108    106    116      9     0.00   0.00000   0 ;    C47-   O26-   C46-   C50
   109    108    106    116      9     0.00   0.66944   2 ;    C47-   O26-   C46-   C50
   109    108    106    116      9     0.00   1.00416   3 ;    C47-   O26-   C46-   C50
   109    111    114    115      9     0.00   0.00000   0 ;    C47-   C48-   O27-   C49
   109    111    114    115      9     0.00   0.66944   2 ;    C47-   C48-   O27-   C49
   109    111    114    115      9     0.00   1.00416   3 ;    C47-   C48-   O27-   C49
   109    124    120    116      9     0.00   0.46024   1 ;    C47-   C54-   C52-   C50
   109    124    120    116      9     0.00   0.54392   3 ;    C47-   C54-   C52-   C50
   109    124    120    116      9   180.00   1.21336   2 ;    C47-   C54-   C52-   C50
   109    124    120    121      9     0.00   0.65084   3 ;    C47-   C54-   C52-   H41
   109    124    120    122      9     0.00   0.65084   3 ;    C47-   C54-   C52-   O29
   110    109    111    112      9     0.00   0.65084   3 ;    H37-   C47-   C48-   H38
   110    109    111    113      9     0.00   0.65084   3 ;    H37-   C47-   C48-   H39
   110    109    111    114      9     0.00   0.00000   0 ;    H37-   C47-   C48-   O27
   110    109    111    114      9     0.00   1.04600   1 ;    H37-   C47-   C48-   O27
   110    109    124    120      9     0.00   0.65084   3 ;    H37-   C47-   C54-   C52
   110    109    124    125      9     0.00   0.65084   3 ;    H37-   C47-   C54-   H42
   110    109    124    126      9     0.00   0.00000   0 ;    H37-   C47-   C54-   O30
   110    109    124    126      9     0.00   1.04600   1 ;    H37-   C47-   C54-   O30
   111    109    124    120      9     0.00   0.46024   1 ;    C48-   C47-   C54-   C52
   111    109    124    120      9     0.00   0.54392   3 ;    C48-   C47-   C54-   C52
   111    109    124    120      9   180.00   1.21336   2 ;    C48-   C47-   C54-   C52
   111    109    124    125      9     0.00   0.65084   3 ;    C48-   C47-   C54-   H42
   111    109    124    126      9     0.00   0.65084   3 ;    C48-   C47-   C54-   O30
   111    114    115    133      9     0.00   1.41001   3 ;    C48-   O27-   C49-   H49
   111    114    115    134      9     0.00   1.41001   3 ;    C48-   O27-   C49-   H50
   111    114    115    135      9     0.00   1.41001   3 ;    C48-   O27-   C49-   H51
   112    111    109    124      9     0.00   0.65084   3 ;    H38-   C48-   C47-   C54
   112    111    114    115      9     0.00   1.41001   3 ;    H38-   C48-   O27-   C49
   113    111    109    124      9     0.00   0.65084   3 ;    H39-   C48-   C47-   C54
   113    111    114    115      9     0.00   1.41001   3 ;    H39-   C48-   O27-   C49
   114    111    109    124      9     0.00   0.65084   3 ;    O27-   C48-   C47-   C54
   116    118    119    175      9     0.00   1.41001   3 ;    C50-   O28-   C51-   H91
   116    118    119    176      9     0.00   1.41001   3 ;    C50-   O28-   C51-   H92
   116    118    119    177      9     0.00   1.41001   3 ;    C50-   O28-   C51-   H93
   116    120    122    123      9     0.00   0.00000   0 ;    C50-   C52-   O29-   C53
   116    120    122    123      9     0.00   0.66944   2 ;    C50-   C52-   O29-   C53
   116    120    122    123      9     0.00   1.00416   3 ;    C50-   C52-   O29-   C53
   116    120    124    125      9     0.00   0.65084   3 ;    C50-   C52-   C54-   H42
   116    120    124    126      9     0.00   0.65084   3 ;    C50-   C52-   C54-   O30
   117    116    118    119      9     0.00   1.41001   3 ;    H40-   C50-   O28-   C51
   117    116    120    121      9     0.00   0.65084   3 ;    H40-   C50-   C52-   H41
   117    116    120    122      9     0.00   0.00000   0 ;    H40-   C50-   C52-   O29
   117    116    120    122      9     0.00   1.04600   1 ;    H40-   C50-   C52-   O29
   117    116    120    124      9     0.00   0.65084   3 ;    H40-   C50-   C52-   C54
   118    116    120    121      9     0.00   0.00000   0 ;    O28-   C50-   C52-   H41
   118    116    120    121      9     0.00   1.04600   1 ;    O28-   C50-   C52-   H41
   118    116    120    122      9     0.00   0.00000   0 ;    O28-   C50-   C52-   O29
   118    116    120    122      9   180.00   0.00000   2 ;    O28-   C50-   C52-   O29
   118    116    120    122      9   180.00   0.71128   1 ;    O28-   C50-   C52-   O29
   118    116    120    124      9     0.00   0.65084   3 ;    O28-   C50-   C52-   C54
   119    118    116    120      9     0.00   0.00000   0 ;    C51-   O28-   C50-   C52
   119    118    116    120      9     0.00   0.66944   2 ;    C51-   O28-   C50-   C52
   119    118    116    120      9     0.00   1.00416   3 ;    C51-   O28-   C50-   C52
   120    122    123    172      9     0.00   1.41001   3 ;    C52-   O29-   C53-   H88
   120    122    123    173      9     0.00   1.41001   3 ;    C52-   O29-   C53-   H89
   120    122    123    174      9     0.00   1.41001   3 ;    C52-   O29-   C53-   H90
   121    120    122    123      9     0.00   1.41001   3 ;    H41-   C52-   O29-   C53
   121    120    124    125      9     0.00   0.65084   3 ;    H41-   C52-   C54-   H42
   121    120    124    126      9     0.00   0.00000   0 ;    H41-   C52-   C54-   O30
   121    120    124    126      9     0.00   1.04600   1 ;    H41-   C52-   C54-   O30
   122    120    124    125      9     0.00   0.00000   0 ;    O29-   C52-   C54-   H42
   122    120    124    125      9     0.00   1.04600   1 ;    O29-   C52-   C54-   H42
   122    120    124    126      9     0.00   0.00000   0 ;    O29-   C52-   C54-   O30
   122    120    124    126      9   180.00   0.00000   2 ;    O29-   C52-   C54-   O30
   122    120    124    126      9   180.00   0.71128   1 ;    O29-   C52-   C54-   O30
   123    122    120    124      9     0.00   0.00000   0 ;    C53-   O29-   C52-   C54
   123    122    120    124      9     0.00   0.66944   2 ;    C53-   O29-   C52-   C54
   123    122    120    124      9     0.00   1.00416   3 ;    C53-   O29-   C52-   C54
   126      1      3      4      9     0.00   5.18816   2 ;    O30-    C1-    O1-    C2
   126      1      3      4      9   180.00   0.00000   3 ;    O30-    C1-    O1-    C2
   126      1      3      4      9   180.00   4.05848   1 ;    O30-    C1-    O1-    C2
   126      1     11     12      9     0.00   0.00000   0 ;    O30-    C1-    C5-    H5
   126      1     11     12      9     0.00   1.04600   1 ;    O30-    C1-    C5-    H5
   126      1     11     13      9     0.00   0.00000   0 ;    O30-    C1-    C5-    O3
   126      1     11     13      9   180.00   0.00000   2 ;    O30-    C1-    C5-    O3
   126      1     11     13      9   180.00   0.71128   1 ;    O30-    C1-    C5-    O3
   126      1     11     15      9     0.00   0.65084   3 ;    O30-    C1-    C5-    C7
