; MOL_GMX.itp created by acpype (v: 2023.10.27) on Fri Aug 22 17:05:39 2025

[ moleculetype ]
;name            nrexcl
 MOL              3

[ atoms ]
;   nr  type  resi  res  atom  cgnr     charge      mass       ; qtot   bond_type
     1   c3     1   MOL    C1    1     0.037904     12.01000 ; qtot 0.038
     2   h2     1   MOL    H1    2     0.131316      1.00800 ; qtot 0.169
     3   os     1   MOL    O1    3    -0.371369     16.00000 ; qtot -0.202
     4   c3     1   MOL    C2    4     0.226505     12.01000 ; qtot 0.024
     5   h1     1   MOL    H2    5     0.021010      1.00800 ; qtot 0.045
     6   c3     1   MOL    C3    6     0.166586     12.01000 ; qtot 0.212
     7   h1     1   MOL    H3    7    -0.017069      1.00800 ; qtot 0.195
     8   h1     1   MOL    H4    8     0.031303      1.00800 ; qtot 0.226
     9   oh     1   MOL    O2    9    -0.635393     16.00000 ; qtot -0.409
    10   ho     1   MOL    H5   10     0.430235      1.00800 ; qtot 0.021
    11   c3     1   MOL    C4   11     0.318932     12.01000 ; qtot 0.340
    12   h1     1   MOL    H6   12     0.057571      1.00800 ; qtot 0.398
    13   oh     1   MOL    O3   13    -0.637475     16.00000 ; qtot -0.240
    14   ho     1   MOL    H7   14     0.401502      1.00800 ; qtot 0.162
    15   c3     1   MOL    C5   15    -0.029305     12.01000 ; qtot 0.132
    16   h1     1   MOL    H8   16     0.093154      1.00800 ; qtot 0.225
    17   oh     1   MOL    O4   17    -0.593107     16.00000 ; qtot -0.368
    18   ho     1   MOL    H9   18     0.424425      1.00800 ; qtot 0.057
    19   c3     1   MOL    C6   19     0.212523     12.01000 ; qtot 0.269
    20   h1     1   MOL   H10   20     0.083362      1.00800 ; qtot 0.353
    21   os     1   MOL    O5   21    -0.327515     16.00000 ; qtot 0.025
    22   c3     1   MOL    C7   22    -0.141614     12.01000 ; qtot -0.117
    23   h2     1   MOL   H11   23     0.174379      1.00800 ; qtot 0.058
    24   os     1   MOL    O6   24    -0.293282     16.00000 ; qtot -0.235
    25   c3     1   MOL    C8   25     0.219155     12.01000 ; qtot -0.016
    26   h1     1   MOL   H12   26     0.028849      1.00800 ; qtot 0.013
    27   c3     1   MOL    C9   27     0.094929     12.01000 ; qtot 0.108
    28   h1     1   MOL   H13   28    -0.029498      1.00800 ; qtot 0.078
    29   h1     1   MOL   H14   29     0.089647      1.00800 ; qtot 0.168
    30   oh     1   MOL    O7   30    -0.585224     16.00000 ; qtot -0.418
    31   ho     1   MOL   H15   31     0.392152      1.00800 ; qtot -0.025
    32   c3     1   MOL   C10   32     0.338637     12.01000 ; qtot 0.313
    33   h1     1   MOL   H16   33     0.068732      1.00800 ; qtot 0.382
    34   oh     1   MOL    O8   34    -0.636098     16.00000 ; qtot -0.254
    35   ho     1   MOL   H17   35     0.422553      1.00800 ; qtot 0.168
    36   c3     1   MOL   C11   36    -0.058963     12.01000 ; qtot 0.109
    37   h1     1   MOL   H18   37     0.103160      1.00800 ; qtot 0.213
    38   oh     1   MOL    O9   38    -0.563922     16.00000 ; qtot -0.351
    39   ho     1   MOL   H19   39     0.411727      1.00800 ; qtot 0.060
    40   c3     1   MOL   C12   40     0.219821     12.01000 ; qtot 0.280
    41   h1     1   MOL   H20   41     0.043923      1.00800 ; qtot 0.324
    42   os     1   MOL   O10   42    -0.336587     16.00000 ; qtot -0.012
    43   c3     1   MOL   C13   43    -0.170655     12.01000 ; qtot -0.183
    44   h2     1   MOL   H21   44     0.211814      1.00800 ; qtot 0.029
    45   os     1   MOL   O11   45    -0.354815     16.00000 ; qtot -0.326
    46   c3     1   MOL   C14   46     0.292971     12.01000 ; qtot -0.033
    47   h1     1   MOL   H22   47     0.030259      1.00800 ; qtot -0.003
    48   c3     1   MOL   C15   48     0.210489     12.01000 ; qtot 0.208
    49   h1     1   MOL   H23   49    -0.055648      1.00800 ; qtot 0.152
    50   h1     1   MOL   H24   50     0.054035      1.00800 ; qtot 0.206
    51   oh     1   MOL   O12   51    -0.621383     16.00000 ; qtot -0.415
    52   ho     1   MOL   H25   52     0.409392      1.00800 ; qtot -0.006
    53   c3     1   MOL   C16   53     0.319172     12.01000 ; qtot 0.313
    54   h1     1   MOL   H26   54     0.067777      1.00800 ; qtot 0.381
    55   oh     1   MOL   O13   55    -0.643723     16.00000 ; qtot -0.263
    56   ho     1   MOL   H27   56     0.428267      1.00800 ; qtot 0.166
    57   c3     1   MOL   C17   57     0.039192     12.01000 ; qtot 0.205
    58   h1     1   MOL   H28   58     0.076931      1.00800 ; qtot 0.282
    59   oh     1   MOL   O14   59    -0.575306     16.00000 ; qtot -0.294
    60   ho     1   MOL   H29   60     0.419081      1.00800 ; qtot 0.125
    61   c3     1   MOL   C18   61     0.162094     12.01000 ; qtot 0.288
    62   h1     1   MOL   H30   62     0.057906      1.00800 ; qtot 0.345
    63   os     1   MOL   O15   63    -0.369157     16.00000 ; qtot -0.024
    64   c3     1   MOL   C19   64    -0.113525     12.01000 ; qtot -0.137
    65   h2     1   MOL   H31   65     0.194638      1.00800 ; qtot 0.057
    66   os     1   MOL   O16   66    -0.378507     16.00000 ; qtot -0.321
    67   c3     1   MOL   C20   67     0.261078     12.01000 ; qtot -0.060
    68   h1     1   MOL   H32   68     0.018150      1.00800 ; qtot -0.042
    69   c3     1   MOL   C21   69     0.253159     12.01000 ; qtot 0.211
    70   h1     1   MOL   H33   70    -0.049030      1.00800 ; qtot 0.162
    71   h1     1   MOL   H34   71     0.038163      1.00800 ; qtot 0.200
    72   oh     1   MOL   O17   72    -0.626845     16.00000 ; qtot -0.426
    73   ho     1   MOL   H35   73     0.405682      1.00800 ; qtot -0.021
    74   c3     1   MOL   C22   74     0.338218     12.01000 ; qtot 0.317
    75   h1     1   MOL   H36   75     0.063436      1.00800 ; qtot 0.381
    76   oh     1   MOL   O18   76    -0.642817     16.00000 ; qtot -0.262
    77   ho     1   MOL   H37   77     0.423247      1.00800 ; qtot 0.161
    78   c3     1   MOL   C23   78    -0.025892     12.01000 ; qtot 0.135
    79   h1     1   MOL   H38   79     0.094820      1.00800 ; qtot 0.230
    80   oh     1   MOL   O19   80    -0.569542     16.00000 ; qtot -0.339
    81   ho     1   MOL   H39   81     0.420562      1.00800 ; qtot 0.081
    82   c3     1   MOL   C24   82     0.236570     12.01000 ; qtot 0.318
    83   h1     1   MOL   H40   83     0.045651      1.00800 ; qtot 0.363
    84   os     1   MOL   O20   84    -0.391582     16.00000 ; qtot -0.028
    85   c3     1   MOL   C25   85    -0.072252     12.01000 ; qtot -0.100
    86   h2     1   MOL   H41   86     0.175561      1.00800 ; qtot 0.075
    87   os     1   MOL   O21   87    -0.350434     16.00000 ; qtot -0.275
    88   c3     1   MOL   C26   88     0.203150     12.01000 ; qtot -0.072
    89   h1     1   MOL   H42   89     0.045599      1.00800 ; qtot -0.026
    90   c3     1   MOL   C27   90     0.144976     12.01000 ; qtot 0.118
    91   h1     1   MOL   H43   91     0.017807      1.00800 ; qtot 0.136
    92   h1     1   MOL   H44   92     0.031302      1.00800 ; qtot 0.168
    93   oh     1   MOL   O22   93    -0.630507     16.00000 ; qtot -0.463
    94   ho     1   MOL   H45   94     0.430672      1.00800 ; qtot -0.032
    95   c3     1   MOL   C28   95     0.354099     12.01000 ; qtot 0.322
    96   h1     1   MOL   H46   96     0.061693      1.00800 ; qtot 0.384
    97   oh     1   MOL   O23   97    -0.653602     16.00000 ; qtot -0.270
    98   ho     1   MOL   H47   98     0.423219      1.00800 ; qtot 0.153
    99   c3     1   MOL   C29   99    -0.017816     12.01000 ; qtot 0.135
   100   h1     1   MOL   H48  100     0.103012      1.00800 ; qtot 0.238
   101   oh     1   MOL   O24  101    -0.610450     16.00000 ; qtot -0.372
   102   ho     1   MOL   H49  102     0.435262      1.00800 ; qtot 0.063
   103   c3     1   MOL   C30  103     0.177840     12.01000 ; qtot 0.241
   104   h1     1   MOL   H50  104     0.102004      1.00800 ; qtot 0.343
   105   os     1   MOL   O25  105    -0.318990     16.00000 ; qtot 0.024
   106   c3     1   MOL   C31  106    -0.173752     12.01000 ; qtot -0.150
   107   h2     1   MOL   H51  107     0.175768      1.00800 ; qtot 0.026
   108   os     1   MOL   O26  108    -0.254540     16.00000 ; qtot -0.228
   109   c3     1   MOL   C32  109     0.104047     12.01000 ; qtot -0.124
   110   h1     1   MOL   H52  110     0.047421      1.00800 ; qtot -0.077
   111   c3     1   MOL   C33  111     0.179766     12.01000 ; qtot 0.103
   112   h1     1   MOL   H53  112    -0.014987      1.00800 ; qtot 0.088
   113   h1     1   MOL   H54  113     0.037359      1.00800 ; qtot 0.125
   114   oh     1   MOL   O27  114    -0.607771     16.00000 ; qtot -0.483
   115   ho     1   MOL   H55  115     0.411191      1.00800 ; qtot -0.071
   116   c3     1   MOL   C34  116     0.378675     12.01000 ; qtot 0.307
   117   h1     1   MOL   H56  117     0.067447      1.00800 ; qtot 0.375
   118   oh     1   MOL   O28  118    -0.646225     16.00000 ; qtot -0.272
   119   ho     1   MOL   H57  119     0.430271      1.00800 ; qtot 0.159
   120   c3     1   MOL   C35  120    -0.129505     12.01000 ; qtot 0.029
   121   h1     1   MOL   H58  121     0.128601      1.00800 ; qtot 0.158
   122   oh     1   MOL   O29  122    -0.597130     16.00000 ; qtot -0.439
   123   ho     1   MOL   H59  123     0.428079      1.00800 ; qtot -0.011
   124   c3     1   MOL   C36  124     0.272087     12.01000 ; qtot 0.261
   125   h1     1   MOL   H60  125     0.063718      1.00800 ; qtot 0.325
   126   os     1   MOL   O30  126    -0.348176     16.00000 ; qtot -0.024
   127   c3     1   MOL   C37  127    -0.039847     12.01000 ; qtot -0.063
   128   h2     1   MOL   H61  128     0.177376      1.00800 ; qtot 0.114
   129   os     1   MOL   O31  129    -0.337459     16.00000 ; qtot -0.224
   130   c3     1   MOL   C38  130     0.090423     12.01000 ; qtot -0.133
   131   h1     1   MOL   H62  131     0.120588      1.00800 ; qtot -0.013
   132   c3     1   MOL   C39  132     0.231252     12.01000 ; qtot 0.219
   133   h1     1   MOL   H63  133     0.012793      1.00800 ; qtot 0.232
   134   h1     1   MOL   H64  134     0.027442      1.00800 ; qtot 0.259
   135   oh     1   MOL   O32  135    -0.635323     16.00000 ; qtot -0.376
   136   ho     1   MOL   H65  136     0.419644      1.00800 ; qtot 0.043
   137   c3     1   MOL   C40  137     0.249374     12.01000 ; qtot 0.293
   138   h1     1   MOL   H66  138     0.063348      1.00800 ; qtot 0.356
   139   oh     1   MOL   O33  139    -0.655398     16.00000 ; qtot -0.299
   140   ho     1   MOL   H67  140     0.449833      1.00800 ; qtot 0.150
   141   c3     1   MOL   C41  141     0.050506     12.01000 ; qtot 0.201
   142   h1     1   MOL   H68  142     0.084023      1.00800 ; qtot 0.285
   143   oh     1   MOL   O34  143    -0.576728     16.00000 ; qtot -0.292
   144   ho     1   MOL   H69  144     0.431653      1.00800 ; qtot 0.140
   145   c3     1   MOL   C42  145     0.145593     12.01000 ; qtot 0.285
   146   h1     1   MOL   H70  146     0.071560      1.00800 ; qtot 0.357
   147   os     1   MOL   O35  147    -0.366889     16.00000 ; qtot -0.010
   148   c3     1   MOL   C43  148     0.086549     12.01000 ; qtot 0.077
   149   h2     1   MOL   H71  149     0.136147      1.00800 ; qtot 0.213
   150   os     1   MOL   O36  150    -0.396179     16.00000 ; qtot -0.183
   151   c3     1   MOL   C44  151     0.220601     12.01000 ; qtot 0.037
   152   h1     1   MOL   H72  152     0.094444      1.00800 ; qtot 0.132
   153   c3     1   MOL   C45  153     0.155308     12.01000 ; qtot 0.287
   154   h1     1   MOL   H73  154     0.029594      1.00800 ; qtot 0.317
   155   h1     1   MOL   H74  155     0.026810      1.00800 ; qtot 0.343
   156   oh     1   MOL   O37  156    -0.631688     16.00000 ; qtot -0.288
   157   ho     1   MOL   H75  157     0.415281      1.00800 ; qtot 0.127
   158   c3     1   MOL   C46  158     0.236841     12.01000 ; qtot 0.364
   159   h1     1   MOL   H76  159     0.072147      1.00800 ; qtot 0.436
   160   oh     1   MOL   O38  160    -0.621706     16.00000 ; qtot -0.186
   161   ho     1   MOL   H77  161     0.404577      1.00800 ; qtot 0.219
   162   c3     1   MOL   C47  162     0.038101     12.01000 ; qtot 0.257
   163   h1     1   MOL   H78  163     0.089798      1.00800 ; qtot 0.347
   164   oh     1   MOL   O39  164    -0.546836     16.00000 ; qtot -0.200
   165   ho     1   MOL   H79  165     0.410898      1.00800 ; qtot 0.211
   166   c3     1   MOL   C48  166     0.006322     12.01000 ; qtot 0.217
   167   h1     1   MOL   H80  167     0.097827      1.00800 ; qtot 0.315
   168   os     1   MOL   O40  168    -0.314987     16.00000 ; qtot 0.000

[ bonds ]
;   ai     aj funct   r             k
     1      2   1    1.0960e-01    3.1572e+05 ;     C1 - H1    
     1      3   1    1.4320e-01    2.3832e+05 ;     C1 - O1    
     1     11   1    1.5380e-01    1.9456e+05 ;     C1 - C4    
     1    168   1    1.4320e-01    2.3832e+05 ;     C1 - O40   
     3      4   1    1.4320e-01    2.3832e+05 ;     O1 - C2    
     4      5   1    1.0970e-01    3.1455e+05 ;     C2 - H2    
     4      6   1    1.5380e-01    1.9456e+05 ;     C2 - C3    
     4     19   1    1.5380e-01    1.9456e+05 ;     C2 - C6    
     6      7   1    1.0970e-01    3.1455e+05 ;     C3 - H3    
     6      8   1    1.0970e-01    3.1455e+05 ;     C3 - H4    
     6      9   1    1.4230e-01    2.4552e+05 ;     C3 - O2    
     9     10   1    9.7300e-02    4.7154e+05 ;     O2 - H5    
    11     12   1    1.0970e-01    3.1455e+05 ;     C4 - H6    
    11     13   1    1.4230e-01    2.4552e+05 ;     C4 - O3    
    11     15   1    1.5380e-01    1.9456e+05 ;     C4 - C5    
    13     14   1    9.7300e-02    4.7154e+05 ;     O3 - H7    
    15     16   1    1.0970e-01    3.1455e+05 ;     C5 - H8    
    15     17   1    1.4230e-01    2.4552e+05 ;     C5 - O4    
    15     19   1    1.5380e-01    1.9456e+05 ;     C5 - C6    
    17     18   1    9.7300e-02    4.7154e+05 ;     O4 - H9    
    19     20   1    1.0970e-01    3.1455e+05 ;     C6 - H10   
    19     21   1    1.4320e-01    2.3832e+05 ;     C6 - O5    
    21     22   1    1.4320e-01    2.3832e+05 ;     O5 - C7    
    22     23   1    1.0960e-01    3.1572e+05 ;     C7 - H11   
    22     24   1    1.4320e-01    2.3832e+05 ;     C7 - O6    
    22     32   1    1.5380e-01    1.9456e+05 ;     C7 - C10   
    24     25   1    1.4320e-01    2.3832e+05 ;     O6 - C8    
    25     26   1    1.0970e-01    3.1455e+05 ;     C8 - H12   
    25     27   1    1.5380e-01    1.9456e+05 ;     C8 - C9    
    25     40   1    1.5380e-01    1.9456e+05 ;     C8 - C12   
    27     28   1    1.0970e-01    3.1455e+05 ;     C9 - H13   
    27     29   1    1.0970e-01    3.1455e+05 ;     C9 - H14   
    27     30   1    1.4230e-01    2.4552e+05 ;     C9 - O7    
    30     31   1    9.7300e-02    4.7154e+05 ;     O7 - H15   
    32     33   1    1.0970e-01    3.1455e+05 ;    C10 - H16   
    32     34   1    1.4230e-01    2.4552e+05 ;    C10 - O8    
    32     36   1    1.5380e-01    1.9456e+05 ;    C10 - C11   
    34     35   1    9.7300e-02    4.7154e+05 ;     O8 - H17   
    36     37   1    1.0970e-01    3.1455e+05 ;    C11 - H18   
    36     38   1    1.4230e-01    2.4552e+05 ;    C11 - O9    
    36     40   1    1.5380e-01    1.9456e+05 ;    C11 - C12   
    38     39   1    9.7300e-02    4.7154e+05 ;     O9 - H19   
    40     41   1    1.0970e-01    3.1455e+05 ;    C12 - H20   
    40     42   1    1.4320e-01    2.3832e+05 ;    C12 - O10   
    42     43   1    1.4320e-01    2.3832e+05 ;    O10 - C13   
    43     44   1    1.0960e-01    3.1572e+05 ;    C13 - H21   
    43     45   1    1.4320e-01    2.3832e+05 ;    C13 - O11   
    43     53   1    1.5380e-01    1.9456e+05 ;    C13 - C16   
    45     46   1    1.4320e-01    2.3832e+05 ;    O11 - C14   
    46     47   1    1.0970e-01    3.1455e+05 ;    C14 - H22   
    46     48   1    1.5380e-01    1.9456e+05 ;    C14 - C15   
    46     61   1    1.5380e-01    1.9456e+05 ;    C14 - C18   
    48     49   1    1.0970e-01    3.1455e+05 ;    C15 - H23   
    48     50   1    1.0970e-01    3.1455e+05 ;    C15 - H24   
    48     51   1    1.4230e-01    2.4552e+05 ;    C15 - O12   
    51     52   1    9.7300e-02    4.7154e+05 ;    O12 - H25   
    53     54   1    1.0970e-01    3.1455e+05 ;    C16 - H26   
    53     55   1    1.4230e-01    2.4552e+05 ;    C16 - O13   
    53     57   1    1.5380e-01    1.9456e+05 ;    C16 - C17   
    55     56   1    9.7300e-02    4.7154e+05 ;    O13 - H27   
    57     58   1    1.0970e-01    3.1455e+05 ;    C17 - H28   
    57     59   1    1.4230e-01    2.4552e+05 ;    C17 - O14   
    57     61   1    1.5380e-01    1.9456e+05 ;    C17 - C18   
    59     60   1    9.7300e-02    4.7154e+05 ;    O14 - H29   
    61     62   1    1.0970e-01    3.1455e+05 ;    C18 - H30   
    61     63   1    1.4320e-01    2.3832e+05 ;    C18 - O15   
    63     64   1    1.4320e-01    2.3832e+05 ;    O15 - C19   
    64     65   1    1.0960e-01    3.1572e+05 ;    C19 - H31   
    64     66   1    1.4320e-01    2.3832e+05 ;    C19 - O16   
    64     74   1    1.5380e-01    1.9456e+05 ;    C19 - C22   
    66     67   1    1.4320e-01    2.3832e+05 ;    O16 - C20   
    67     68   1    1.0970e-01    3.1455e+05 ;    C20 - H32   
    67     69   1    1.5380e-01    1.9456e+05 ;    C20 - C21   
    67     82   1    1.5380e-01    1.9456e+05 ;    C20 - C24   
    69     70   1    1.0970e-01    3.1455e+05 ;    C21 - H33   
    69     71   1    1.0970e-01    3.1455e+05 ;    C21 - H34   
    69     72   1    1.4230e-01    2.4552e+05 ;    C21 - O17   
    72     73   1    9.7300e-02    4.7154e+05 ;    O17 - H35   
    74     75   1    1.0970e-01    3.1455e+05 ;    C22 - H36   
    74     76   1    1.4230e-01    2.4552e+05 ;    C22 - O18   
    74     78   1    1.5380e-01    1.9456e+05 ;    C22 - C23   
    76     77   1    9.7300e-02    4.7154e+05 ;    O18 - H37   
    78     79   1    1.0970e-01    3.1455e+05 ;    C23 - H38   
    78     80   1    1.4230e-01    2.4552e+05 ;    C23 - O19   
    78     82   1    1.5380e-01    1.9456e+05 ;    C23 - C24   
    80     81   1    9.7300e-02    4.7154e+05 ;    O19 - H39   
    82     83   1    1.0970e-01    3.1455e+05 ;    C24 - H40   
    82     84   1    1.4320e-01    2.3832e+05 ;    C24 - O20   
    84     85   1    1.4320e-01    2.3832e+05 ;    O20 - C25   
    85     86   1    1.0960e-01    3.1572e+05 ;    C25 - H41   
    85     87   1    1.4320e-01    2.3832e+05 ;    C25 - O21   
    85     95   1    1.5380e-01    1.9456e+05 ;    C25 - C28   
    87     88   1    1.4320e-01    2.3832e+05 ;    O21 - C26   
    88     89   1    1.0970e-01    3.1455e+05 ;    C26 - H42   
    88     90   1    1.5380e-01    1.9456e+05 ;    C26 - C27   
    88    103   1    1.5380e-01    1.9456e+05 ;    C26 - C30   
    90     91   1    1.0970e-01    3.1455e+05 ;    C27 - H43   
    90     92   1    1.0970e-01    3.1455e+05 ;    C27 - H44   
    90     93   1    1.4230e-01    2.4552e+05 ;    C27 - O22   
    93     94   1    9.7300e-02    4.7154e+05 ;    O22 - H45   
    95     96   1    1.0970e-01    3.1455e+05 ;    C28 - H46   
    95     97   1    1.4230e-01    2.4552e+05 ;    C28 - O23   
    95     99   1    1.5380e-01    1.9456e+05 ;    C28 - C29   
    97     98   1    9.7300e-02    4.7154e+05 ;    O23 - H47   
    99    100   1    1.0970e-01    3.1455e+05 ;    C29 - H48   
    99    101   1    1.4230e-01    2.4552e+05 ;    C29 - O24   
    99    103   1    1.5380e-01    1.9456e+05 ;    C29 - C30   
   101    102   1    9.7300e-02    4.7154e+05 ;    O24 - H49   
   103    104   1    1.0970e-01    3.1455e+05 ;    C30 - H50   
   103    105   1    1.4320e-01    2.3832e+05 ;    C30 - O25   
   105    106   1    1.4320e-01    2.3832e+05 ;    O25 - C31   
   106    107   1    1.0960e-01    3.1572e+05 ;    C31 - H51   
   106    108   1    1.4320e-01    2.3832e+05 ;    C31 - O26   
   106    116   1    1.5380e-01    1.9456e+05 ;    C31 - C34   
   108    109   1    1.4320e-01    2.3832e+05 ;    O26 - C32   
   109    110   1    1.0970e-01    3.1455e+05 ;    C32 - H52   
   109    111   1    1.5380e-01    1.9456e+05 ;    C32 - C33   
   109    124   1    1.5380e-01    1.9456e+05 ;    C32 - C36   
   111    112   1    1.0970e-01    3.1455e+05 ;    C33 - H53   
   111    113   1    1.0970e-01    3.1455e+05 ;    C33 - H54   
   111    114   1    1.4230e-01    2.4552e+05 ;    C33 - O27   
   114    115   1    9.7300e-02    4.7154e+05 ;    O27 - H55   
   116    117   1    1.0970e-01    3.1455e+05 ;    C34 - H56   
   116    118   1    1.4230e-01    2.4552e+05 ;    C34 - O28   
   116    120   1    1.5380e-01    1.9456e+05 ;    C34 - C35   
   118    119   1    9.7300e-02    4.7154e+05 ;    O28 - H57   
   120    121   1    1.0970e-01    3.1455e+05 ;    C35 - H58   
   120    122   1    1.4230e-01    2.4552e+05 ;    C35 - O29   
   120    124   1    1.5380e-01    1.9456e+05 ;    C35 - C36   
   122    123   1    9.7300e-02    4.7154e+05 ;    O29 - H59   
   124    125   1    1.0970e-01    3.1455e+05 ;    C36 - H60   
   124    126   1    1.4320e-01    2.3832e+05 ;    C36 - O30   
   126    127   1    1.4320e-01    2.3832e+05 ;    O30 - C37   
   127    128   1    1.0960e-01    3.1572e+05 ;    C37 - H61   
   127    129   1    1.4320e-01    2.3832e+05 ;    C37 - O31   
   127    137   1    1.5380e-01    1.9456e+05 ;    C37 - C40   
   129    130   1    1.4320e-01    2.3832e+05 ;    O31 - C38   
   130    131   1    1.0970e-01    3.1455e+05 ;    C38 - H62   
   130    132   1    1.5380e-01    1.9456e+05 ;    C38 - C39   
   130    145   1    1.5380e-01    1.9456e+05 ;    C38 - C42   
   132    133   1    1.0970e-01    3.1455e+05 ;    C39 - H63   
   132    134   1    1.0970e-01    3.1455e+05 ;    C39 - H64   
   132    135   1    1.4230e-01    2.4552e+05 ;    C39 - O32   
   135    136   1    9.7300e-02    4.7154e+05 ;    O32 - H65   
   137    138   1    1.0970e-01    3.1455e+05 ;    C40 - H66   
   137    139   1    1.4230e-01    2.4552e+05 ;    C40 - O33   
   137    141   1    1.5380e-01    1.9456e+05 ;    C40 - C41   
   139    140   1    9.7300e-02    4.7154e+05 ;    O33 - H67   
   141    142   1    1.0970e-01    3.1455e+05 ;    C41 - H68   
   141    143   1    1.4230e-01    2.4552e+05 ;    C41 - O34   
   141    145   1    1.5380e-01    1.9456e+05 ;    C41 - C42   
   143    144   1    9.7300e-02    4.7154e+05 ;    O34 - H69   
   145    146   1    1.0970e-01    3.1455e+05 ;    C42 - H70   
   145    147   1    1.4320e-01    2.3832e+05 ;    C42 - O35   
   147    148   1    1.4320e-01    2.3832e+05 ;    O35 - C43   
   148    149   1    1.0960e-01    3.1572e+05 ;    C43 - H71   
   148    150   1    1.4320e-01    2.3832e+05 ;    C43 - O36   
   148    158   1    1.5380e-01    1.9456e+05 ;    C43 - C46   
   150    151   1    1.4320e-01    2.3832e+05 ;    O36 - C44   
   151    152   1    1.0970e-01    3.1455e+05 ;    C44 - H72   
   151    153   1    1.5380e-01    1.9456e+05 ;    C44 - C45   
   151    166   1    1.5380e-01    1.9456e+05 ;    C44 - C48   
   153    154   1    1.0970e-01    3.1455e+05 ;    C45 - H73   
   153    155   1    1.0970e-01    3.1455e+05 ;    C45 - H74   
   153    156   1    1.4230e-01    2.4552e+05 ;    C45 - O37   
   156    157   1    9.7300e-02    4.7154e+05 ;    O37 - H75   
   158    159   1    1.0970e-01    3.1455e+05 ;    C46 - H76   
   158    160   1    1.4230e-01    2.4552e+05 ;    C46 - O38   
   158    162   1    1.5380e-01    1.9456e+05 ;    C46 - C47   
   160    161   1    9.7300e-02    4.7154e+05 ;    O38 - H77   
   162    163   1    1.0970e-01    3.1455e+05 ;    C47 - H78   
   162    164   1    1.4230e-01    2.4552e+05 ;    C47 - O39   
   162    166   1    1.5380e-01    1.9456e+05 ;    C47 - C48   
   164    165   1    9.7300e-02    4.7154e+05 ;    O39 - H79   
   166    167   1    1.0970e-01    3.1455e+05 ;    C48 - H80   
   166    168   1    1.4320e-01    2.3832e+05 ;    C48 - O40   

[ pairs ]
;   ai     aj    funct
     1      5      1 ;     C1 - H2    
     1      6      1 ;     C1 - C3    
     1     14      1 ;     C1 - H7    
     1     16      1 ;     C1 - H8    
     1     17      1 ;     C1 - O4    
     1     19      1 ;     C1 - C6    
     1    151      1 ;     C1 - C44   
     1    162      1 ;     C1 - C47   
     1    167      1 ;     C1 - H80   
     2      4      1 ;     H1 - C2    
     2     12      1 ;     H1 - H6    
     2     13      1 ;     H1 - O3    
     2     15      1 ;     H1 - C5    
     2    166      1 ;     H1 - C48   
     3      7      1 ;     O1 - H3    
     3      8      1 ;     O1 - H4    
     3      9      1 ;     O1 - O2    
     3     12      1 ;     O1 - H6    
     3     13      1 ;     O1 - O3    
     3     15      1 ;     O1 - C5    
     3     20      1 ;     O1 - H10   
     3     21      1 ;     O1 - O5    
     3    166      1 ;     O1 - C48   
     4     10      1 ;     C2 - H5    
     4     16      1 ;     C2 - H8    
     4     17      1 ;     C2 - O4    
     4     22      1 ;     C2 - C7    
     5      7      1 ;     H2 - H3    
     5      8      1 ;     H2 - H4    
     5      9      1 ;     H2 - O2    
     5     15      1 ;     H2 - C5    
     5     20      1 ;     H2 - H10   
     5     21      1 ;     H2 - O5    
     6     15      1 ;     C3 - C5    
     6     20      1 ;     C3 - H10   
     6     21      1 ;     C3 - O5    
     7     10      1 ;     H3 - H5    
     7     19      1 ;     H3 - C6    
     8     10      1 ;     H4 - H5    
     8     19      1 ;     H4 - C6    
     9     19      1 ;     O2 - C6    
    11      4      1 ;     C4 - C2    
    11     18      1 ;     C4 - H9    
    11     20      1 ;     C4 - H10   
    11     21      1 ;     C4 - O5    
    11    166      1 ;     C4 - C48   
    12     14      1 ;     H6 - H7    
    12     16      1 ;     H6 - H8    
    12     17      1 ;     H6 - O4    
    12     19      1 ;     H6 - C6    
    13     16      1 ;     O3 - H8    
    13     17      1 ;     O3 - O4    
    13     19      1 ;     O3 - C6    
    14     15      1 ;     H7 - C5    
    15     22      1 ;     C5 - C7    
    16     18      1 ;     H8 - H9    
    16     20      1 ;     H8 - H10   
    16     21      1 ;     H8 - O5    
    17     20      1 ;     O4 - H10   
    17     21      1 ;     O4 - O5    
    18     19      1 ;     H9 - C6    
    19     23      1 ;     C6 - H11   
    19     24      1 ;     C6 - O6    
    19     32      1 ;     C6 - C10   
    20     22      1 ;    H10 - C7    
    21     25      1 ;     O5 - C8    
    21     33      1 ;     O5 - H16   
    21     34      1 ;     O5 - O8    
    21     36      1 ;     O5 - C11   
    22     26      1 ;     C7 - H12   
    22     27      1 ;     C7 - C9    
    22     35      1 ;     C7 - H17   
    22     37      1 ;     C7 - H18   
    22     38      1 ;     C7 - O9    
    22     40      1 ;     C7 - C12   
    23     25      1 ;    H11 - C8    
    23     33      1 ;    H11 - H16   
    23     34      1 ;    H11 - O8    
    23     36      1 ;    H11 - C11   
    24     28      1 ;     O6 - H13   
    24     29      1 ;     O6 - H14   
    24     30      1 ;     O6 - O7    
    24     33      1 ;     O6 - H16   
    24     34      1 ;     O6 - O8    
    24     36      1 ;     O6 - C11   
    24     41      1 ;     O6 - H20   
    24     42      1 ;     O6 - O10   
    25     31      1 ;     C8 - H15   
    25     32      1 ;     C8 - C10   
    25     37      1 ;     C8 - H18   
    25     38      1 ;     C8 - O9    
    25     43      1 ;     C8 - C13   
    26     28      1 ;    H12 - H13   
    26     29      1 ;    H12 - H14   
    26     30      1 ;    H12 - O7    
    26     36      1 ;    H12 - C11   
    26     41      1 ;    H12 - H20   
    26     42      1 ;    H12 - O10   
    27     36      1 ;     C9 - C11   
    27     41      1 ;     C9 - H20   
    27     42      1 ;     C9 - O10   
    28     31      1 ;    H13 - H15   
    28     40      1 ;    H13 - C12   
    29     31      1 ;    H14 - H15   
    29     40      1 ;    H14 - C12   
    30     40      1 ;     O7 - C12   
    32     39      1 ;    C10 - H19   
    32     41      1 ;    C10 - H20   
    32     42      1 ;    C10 - O10   
    33     35      1 ;    H16 - H17   
    33     37      1 ;    H16 - H18   
    33     38      1 ;    H16 - O9    
    33     40      1 ;    H16 - C12   
    34     37      1 ;     O8 - H18   
    34     38      1 ;     O8 - O9    
    34     40      1 ;     O8 - C12   
    35     36      1 ;    H17 - C11   
    36     43      1 ;    C11 - C13   
    37     39      1 ;    H18 - H19   
    37     41      1 ;    H18 - H20   
    37     42      1 ;    H18 - O10   
    38     41      1 ;     O9 - H20   
    38     42      1 ;     O9 - O10   
    39     40      1 ;    H19 - C12   
    40     44      1 ;    C12 - H21   
    40     45      1 ;    C12 - O11   
    40     53      1 ;    C12 - C16   
    41     43      1 ;    H20 - C13   
    42     46      1 ;    O10 - C14   
    42     54      1 ;    O10 - H26   
    42     55      1 ;    O10 - O13   
    42     57      1 ;    O10 - C17   
    43     47      1 ;    C13 - H22   
    43     48      1 ;    C13 - C15   
    43     56      1 ;    C13 - H27   
    43     58      1 ;    C13 - H28   
    43     59      1 ;    C13 - O14   
    43     61      1 ;    C13 - C18   
    44     46      1 ;    H21 - C14   
    44     54      1 ;    H21 - H26   
    44     55      1 ;    H21 - O13   
    44     57      1 ;    H21 - C17   
    45     49      1 ;    O11 - H23   
    45     50      1 ;    O11 - H24   
    45     51      1 ;    O11 - O12   
    45     54      1 ;    O11 - H26   
    45     55      1 ;    O11 - O13   
    45     57      1 ;    O11 - C17   
    45     62      1 ;    O11 - H30   
    45     63      1 ;    O11 - O15   
    46     52      1 ;    C14 - H25   
    46     53      1 ;    C14 - C16   
    46     58      1 ;    C14 - H28   
    46     59      1 ;    C14 - O14   
    46     64      1 ;    C14 - C19   
    47     49      1 ;    H22 - H23   
    47     50      1 ;    H22 - H24   
    47     51      1 ;    H22 - O12   
    47     57      1 ;    H22 - C17   
    47     62      1 ;    H22 - H30   
    47     63      1 ;    H22 - O15   
    48     57      1 ;    C15 - C17   
    48     62      1 ;    C15 - H30   
    48     63      1 ;    C15 - O15   
    49     52      1 ;    H23 - H25   
    49     61      1 ;    H23 - C18   
    50     52      1 ;    H24 - H25   
    50     61      1 ;    H24 - C18   
    51     61      1 ;    O12 - C18   
    53     60      1 ;    C16 - H29   
    53     62      1 ;    C16 - H30   
    53     63      1 ;    C16 - O15   
    54     56      1 ;    H26 - H27   
    54     58      1 ;    H26 - H28   
    54     59      1 ;    H26 - O14   
    54     61      1 ;    H26 - C18   
    55     58      1 ;    O13 - H28   
    55     59      1 ;    O13 - O14   
    55     61      1 ;    O13 - C18   
    56     57      1 ;    H27 - C17   
    57     64      1 ;    C17 - C19   
    58     60      1 ;    H28 - H29   
    58     62      1 ;    H28 - H30   
    58     63      1 ;    H28 - O15   
    59     62      1 ;    O14 - H30   
    59     63      1 ;    O14 - O15   
    60     61      1 ;    H29 - C18   
    61     65      1 ;    C18 - H31   
    61     66      1 ;    C18 - O16   
    61     74      1 ;    C18 - C22   
    62     64      1 ;    H30 - C19   
    63     67      1 ;    O15 - C20   
    63     75      1 ;    O15 - H36   
    63     76      1 ;    O15 - O18   
    63     78      1 ;    O15 - C23   
    64     68      1 ;    C19 - H32   
    64     69      1 ;    C19 - C21   
    64     77      1 ;    C19 - H37   
    64     79      1 ;    C19 - H38   
    64     80      1 ;    C19 - O19   
    64     82      1 ;    C19 - C24   
    65     67      1 ;    H31 - C20   
    65     75      1 ;    H31 - H36   
    65     76      1 ;    H31 - O18   
    65     78      1 ;    H31 - C23   
    66     70      1 ;    O16 - H33   
    66     71      1 ;    O16 - H34   
    66     72      1 ;    O16 - O17   
    66     75      1 ;    O16 - H36   
    66     76      1 ;    O16 - O18   
    66     78      1 ;    O16 - C23   
    66     83      1 ;    O16 - H40   
    66     84      1 ;    O16 - O20   
    67     73      1 ;    C20 - H35   
    67     74      1 ;    C20 - C22   
    67     79      1 ;    C20 - H38   
    67     80      1 ;    C20 - O19   
    67     85      1 ;    C20 - C25   
    68     70      1 ;    H32 - H33   
    68     71      1 ;    H32 - H34   
    68     72      1 ;    H32 - O17   
    68     78      1 ;    H32 - C23   
    68     83      1 ;    H32 - H40   
    68     84      1 ;    H32 - O20   
    69     78      1 ;    C21 - C23   
    69     83      1 ;    C21 - H40   
    69     84      1 ;    C21 - O20   
    70     73      1 ;    H33 - H35   
    70     82      1 ;    H33 - C24   
    71     73      1 ;    H34 - H35   
    71     82      1 ;    H34 - C24   
    72     82      1 ;    O17 - C24   
    74     81      1 ;    C22 - H39   
    74     83      1 ;    C22 - H40   
    74     84      1 ;    C22 - O20   
    75     77      1 ;    H36 - H37   
    75     79      1 ;    H36 - H38   
    75     80      1 ;    H36 - O19   
    75     82      1 ;    H36 - C24   
    76     79      1 ;    O18 - H38   
    76     80      1 ;    O18 - O19   
    76     82      1 ;    O18 - C24   
    77     78      1 ;    H37 - C23   
    78     85      1 ;    C23 - C25   
    79     81      1 ;    H38 - H39   
    79     83      1 ;    H38 - H40   
    79     84      1 ;    H38 - O20   
    80     83      1 ;    O19 - H40   
    80     84      1 ;    O19 - O20   
    81     82      1 ;    H39 - C24   
    82     86      1 ;    C24 - H41   
    82     87      1 ;    C24 - O21   
    82     95      1 ;    C24 - C28   
    83     85      1 ;    H40 - C25   
    84     88      1 ;    O20 - C26   
    84     96      1 ;    O20 - H46   
    84     97      1 ;    O20 - O23   
    84     99      1 ;    O20 - C29   
    85     89      1 ;    C25 - H42   
    85     90      1 ;    C25 - C27   
    85     98      1 ;    C25 - H47   
    85    100      1 ;    C25 - H48   
    85    101      1 ;    C25 - O24   
    85    103      1 ;    C25 - C30   
    86     88      1 ;    H41 - C26   
    86     96      1 ;    H41 - H46   
    86     97      1 ;    H41 - O23   
    86     99      1 ;    H41 - C29   
    87     91      1 ;    O21 - H43   
    87     92      1 ;    O21 - H44   
    87     93      1 ;    O21 - O22   
    87     96      1 ;    O21 - H46   
    87     97      1 ;    O21 - O23   
    87     99      1 ;    O21 - C29   
    87    104      1 ;    O21 - H50   
    87    105      1 ;    O21 - O25   
    88     94      1 ;    C26 - H45   
    88     95      1 ;    C26 - C28   
    88    100      1 ;    C26 - H48   
    88    101      1 ;    C26 - O24   
    88    106      1 ;    C26 - C31   
    89     91      1 ;    H42 - H43   
    89     92      1 ;    H42 - H44   
    89     93      1 ;    H42 - O22   
    89     99      1 ;    H42 - C29   
    89    104      1 ;    H42 - H50   
    89    105      1 ;    H42 - O25   
    90     99      1 ;    C27 - C29   
    90    104      1 ;    C27 - H50   
    90    105      1 ;    C27 - O25   
    91     94      1 ;    H43 - H45   
    91    103      1 ;    H43 - C30   
    92     94      1 ;    H44 - H45   
    92    103      1 ;    H44 - C30   
    93    103      1 ;    O22 - C30   
    95    102      1 ;    C28 - H49   
    95    104      1 ;    C28 - H50   
    95    105      1 ;    C28 - O25   
    96     98      1 ;    H46 - H47   
    96    100      1 ;    H46 - H48   
    96    101      1 ;    H46 - O24   
    96    103      1 ;    H46 - C30   
    97    100      1 ;    O23 - H48   
    97    101      1 ;    O23 - O24   
    97    103      1 ;    O23 - C30   
    98     99      1 ;    H47 - C29   
    99    106      1 ;    C29 - C31   
   100    102      1 ;    H48 - H49   
   100    104      1 ;    H48 - H50   
   100    105      1 ;    H48 - O25   
   101    104      1 ;    O24 - H50   
   101    105      1 ;    O24 - O25   
   102    103      1 ;    H49 - C30   
   103    107      1 ;    C30 - H51   
   103    108      1 ;    C30 - O26   
   103    116      1 ;    C30 - C34   
   104    106      1 ;    H50 - C31   
   105    109      1 ;    O25 - C32   
   105    117      1 ;    O25 - H56   
   105    118      1 ;    O25 - O28   
   105    120      1 ;    O25 - C35   
   106    110      1 ;    C31 - H52   
   106    111      1 ;    C31 - C33   
   106    119      1 ;    C31 - H57   
   106    121      1 ;    C31 - H58   
   106    122      1 ;    C31 - O29   
   106    124      1 ;    C31 - C36   
   107    109      1 ;    H51 - C32   
   107    117      1 ;    H51 - H56   
   107    118      1 ;    H51 - O28   
   107    120      1 ;    H51 - C35   
   108    112      1 ;    O26 - H53   
   108    113      1 ;    O26 - H54   
   108    114      1 ;    O26 - O27   
   108    117      1 ;    O26 - H56   
   108    118      1 ;    O26 - O28   
   108    120      1 ;    O26 - C35   
   108    125      1 ;    O26 - H60   
   108    126      1 ;    O26 - O30   
   109    115      1 ;    C32 - H55   
   109    116      1 ;    C32 - C34   
   109    121      1 ;    C32 - H58   
   109    122      1 ;    C32 - O29   
   109    127      1 ;    C32 - C37   
   110    112      1 ;    H52 - H53   
   110    113      1 ;    H52 - H54   
   110    114      1 ;    H52 - O27   
   110    120      1 ;    H52 - C35   
   110    125      1 ;    H52 - H60   
   110    126      1 ;    H52 - O30   
   111    120      1 ;    C33 - C35   
   111    125      1 ;    C33 - H60   
   111    126      1 ;    C33 - O30   
   112    115      1 ;    H53 - H55   
   112    124      1 ;    H53 - C36   
   113    115      1 ;    H54 - H55   
   113    124      1 ;    H54 - C36   
   114    124      1 ;    O27 - C36   
   116    123      1 ;    C34 - H59   
   116    125      1 ;    C34 - H60   
   116    126      1 ;    C34 - O30   
   117    119      1 ;    H56 - H57   
   117    121      1 ;    H56 - H58   
   117    122      1 ;    H56 - O29   
   117    124      1 ;    H56 - C36   
   118    121      1 ;    O28 - H58   
   118    122      1 ;    O28 - O29   
   118    124      1 ;    O28 - C36   
   119    120      1 ;    H57 - C35   
   120    127      1 ;    C35 - C37   
   121    123      1 ;    H58 - H59   
   121    125      1 ;    H58 - H60   
   121    126      1 ;    H58 - O30   
   122    125      1 ;    O29 - H60   
   122    126      1 ;    O29 - O30   
   123    124      1 ;    H59 - C36   
   124    128      1 ;    C36 - H61   
   124    129      1 ;    C36 - O31   
   124    137      1 ;    C36 - C40   
   125    127      1 ;    H60 - C37   
   126    130      1 ;    O30 - C38   
   126    138      1 ;    O30 - H66   
   126    139      1 ;    O30 - O33   
   126    141      1 ;    O30 - C41   
   127    131      1 ;    C37 - H62   
   127    132      1 ;    C37 - C39   
   127    140      1 ;    C37 - H67   
   127    142      1 ;    C37 - H68   
   127    143      1 ;    C37 - O34   
   127    145      1 ;    C37 - C42   
   128    130      1 ;    H61 - C38   
   128    138      1 ;    H61 - H66   
   128    139      1 ;    H61 - O33   
   128    141      1 ;    H61 - C41   
   129    133      1 ;    O31 - H63   
   129    134      1 ;    O31 - H64   
   129    135      1 ;    O31 - O32   
   129    138      1 ;    O31 - H66   
   129    139      1 ;    O31 - O33   
   129    141      1 ;    O31 - C41   
   129    146      1 ;    O31 - H70   
   129    147      1 ;    O31 - O35   
   130    136      1 ;    C38 - H65   
   130    137      1 ;    C38 - C40   
   130    142      1 ;    C38 - H68   
   130    143      1 ;    C38 - O34   
   130    148      1 ;    C38 - C43   
   131    133      1 ;    H62 - H63   
   131    134      1 ;    H62 - H64   
   131    135      1 ;    H62 - O32   
   131    141      1 ;    H62 - C41   
   131    146      1 ;    H62 - H70   
   131    147      1 ;    H62 - O35   
   132    141      1 ;    C39 - C41   
   132    146      1 ;    C39 - H70   
   132    147      1 ;    C39 - O35   
   133    136      1 ;    H63 - H65   
   133    145      1 ;    H63 - C42   
   134    136      1 ;    H64 - H65   
   134    145      1 ;    H64 - C42   
   135    145      1 ;    O32 - C42   
   137    144      1 ;    C40 - H69   
   137    146      1 ;    C40 - H70   
   137    147      1 ;    C40 - O35   
   138    140      1 ;    H66 - H67   
   138    142      1 ;    H66 - H68   
   138    143      1 ;    H66 - O34   
   138    145      1 ;    H66 - C42   
   139    142      1 ;    O33 - H68   
   139    143      1 ;    O33 - O34   
   139    145      1 ;    O33 - C42   
   140    141      1 ;    H67 - C41   
   141    148      1 ;    C41 - C43   
   142    144      1 ;    H68 - H69   
   142    146      1 ;    H68 - H70   
   142    147      1 ;    H68 - O35   
   143    146      1 ;    O34 - H70   
   143    147      1 ;    O34 - O35   
   144    145      1 ;    H69 - C42   
   145    149      1 ;    C42 - H71   
   145    150      1 ;    C42 - O36   
   145    158      1 ;    C42 - C46   
   146    148      1 ;    H70 - C43   
   147    151      1 ;    O35 - C44   
   147    159      1 ;    O35 - H76   
   147    160      1 ;    O35 - O38   
   147    162      1 ;    O35 - C47   
   148    152      1 ;    C43 - H72   
   148    153      1 ;    C43 - C45   
   148    161      1 ;    C43 - H77   
   148    163      1 ;    C43 - H78   
   148    164      1 ;    C43 - O39   
   148    166      1 ;    C43 - C48   
   149    151      1 ;    H71 - C44   
   149    159      1 ;    H71 - H76   
   149    160      1 ;    H71 - O38   
   149    162      1 ;    H71 - C47   
   150    154      1 ;    O36 - H73   
   150    155      1 ;    O36 - H74   
   150    156      1 ;    O36 - O37   
   150    159      1 ;    O36 - H76   
   150    160      1 ;    O36 - O38   
   150    162      1 ;    O36 - C47   
   150    167      1 ;    O36 - H80   
   150    168      1 ;    O36 - O40   
   151    157      1 ;    C44 - H75   
   151    158      1 ;    C44 - C46   
   151    163      1 ;    C44 - H78   
   151    164      1 ;    C44 - O39   
   152    154      1 ;    H72 - H73   
   152    155      1 ;    H72 - H74   
   152    156      1 ;    H72 - O37   
   152    162      1 ;    H72 - C47   
   152    167      1 ;    H72 - H80   
   152    168      1 ;    H72 - O40   
   153    162      1 ;    C45 - C47   
   153    167      1 ;    C45 - H80   
   153    168      1 ;    C45 - O40   
   154    157      1 ;    H73 - H75   
   154    166      1 ;    H73 - C48   
   155    157      1 ;    H74 - H75   
   155    166      1 ;    H74 - C48   
   156    166      1 ;    O37 - C48   
   158    165      1 ;    C46 - H79   
   158    167      1 ;    C46 - H80   
   158    168      1 ;    C46 - O40   
   159    161      1 ;    H76 - H77   
   159    163      1 ;    H76 - H78   
   159    164      1 ;    H76 - O39   
   159    166      1 ;    H76 - C48   
   160    163      1 ;    O38 - H78   
   160    164      1 ;    O38 - O39   
   160    166      1 ;    O38 - C48   
   161    162      1 ;    H77 - C47   
   163    165      1 ;    H78 - H79   
   163    167      1 ;    H78 - H80   
   163    168      1 ;    H78 - O40   
   164    167      1 ;    O39 - H80   
   164    168      1 ;    O39 - O40   
   165    166      1 ;    H79 - C48   
   168      4      1 ;    O40 - C2    
   168     12      1 ;    O40 - H6    
   168     13      1 ;    O40 - O3    
   168     15      1 ;    O40 - C5    

[ angles ]
;   ai     aj     ak    funct   theta         cth
     1      3      4      1    1.1248e+02    5.5480e+02 ;     C1 - O1     - C2    
     1     11     12      1    1.0956e+02    3.9246e+02 ;     C1 - C4     - H6    
     1     11     13      1    1.1019e+02    7.0793e+02 ;     C1 - C4     - O3    
     1     11     15      1    1.1151e+02    5.4308e+02 ;     C1 - C4     - C5    
     1    168    166      1    1.1248e+02    5.5480e+02 ;     C1 - O40    - C48   
     2      1      3      1    1.0958e+02    5.2216e+02 ;     H1 - C1     - O1    
     2      1     11      1    1.1022e+02    3.9079e+02 ;     H1 - C1     - C4    
     2      1    168      1    1.0958e+02    5.2216e+02 ;     H1 - C1     - O40   
     3      1     11      1    1.0797e+02    7.1379e+02 ;     O1 - C1     - C4    
     3      1    168      1    1.0829e+02    9.2801e+02 ;     O1 - C1     - O40   
     3      4      5      1    1.0978e+02    5.2216e+02 ;     O1 - C2     - H2    
     3      4      6      1    1.0797e+02    7.1379e+02 ;     O1 - C2     - C3    
     3      4     19      1    1.0797e+02    7.1379e+02 ;     O1 - C2     - C6    
     4      6      7      1    1.0956e+02    3.9246e+02 ;     C2 - C3     - H3    
     4      6      8      1    1.0956e+02    3.9246e+02 ;     C2 - C3     - H4    
     4      6      9      1    1.1019e+02    7.0793e+02 ;     C2 - C3     - O2    
     4     19     15      1    1.1151e+02    5.4308e+02 ;     C2 - C6     - C5    
     4     19     20      1    1.0956e+02    3.9246e+02 ;     C2 - C6     - H10   
     4     19     21      1    1.0797e+02    7.1379e+02 ;     C2 - C6     - O5    
     5      4      6      1    1.0956e+02    3.9246e+02 ;     H2 - C2     - C3    
     5      4     19      1    1.0956e+02    3.9246e+02 ;     H2 - C2     - C6    
     6      4     19      1    1.1151e+02    5.4308e+02 ;     C3 - C2     - C6    
     6      9     10      1    1.0726e+02    4.1003e+02 ;     C3 - O2     - H5    
     7      6      8      1    1.0846e+02    3.2468e+02 ;     H3 - C3     - H4    
     7      6      9      1    1.1026e+02    5.2300e+02 ;     H3 - C3     - O2    
     8      6      9      1    1.1026e+02    5.2300e+02 ;     H4 - C3     - O2    
    11      1    168      1    1.0797e+02    7.1379e+02 ;     C4 - C1     - O40   
    11     13     14      1    1.0726e+02    4.1003e+02 ;     C4 - O3     - H7    
    11     15     16      1    1.0956e+02    3.9246e+02 ;     C4 - C5     - H8    
    11     15     17      1    1.1019e+02    7.0793e+02 ;     C4 - C5     - O4    
    11     15     19      1    1.1151e+02    5.4308e+02 ;     C4 - C5     - C6    
    12     11     13      1    1.1026e+02    5.2300e+02 ;     H6 - C4     - O3    
    12     11     15      1    1.0956e+02    3.9246e+02 ;     H6 - C4     - C5    
    13     11     15      1    1.1019e+02    7.0793e+02 ;     O3 - C4     - C5    
    15     17     18      1    1.0726e+02    4.1003e+02 ;     C5 - O4     - H9    
    15     19     20      1    1.0956e+02    3.9246e+02 ;     C5 - C6     - H10   
    15     19     21      1    1.0797e+02    7.1379e+02 ;     C5 - C6     - O5    
    16     15     17      1    1.1026e+02    5.2300e+02 ;     H8 - C5     - O4    
    16     15     19      1    1.0956e+02    3.9246e+02 ;     H8 - C5     - C6    
    17     15     19      1    1.1019e+02    7.0793e+02 ;     O4 - C5     - C6    
    19     21     22      1    1.1248e+02    5.5480e+02 ;     C6 - O5     - C7    
    20     19     21      1    1.0978e+02    5.2216e+02 ;    H10 - C6     - O5    
    21     22     23      1    1.0958e+02    5.2216e+02 ;     O5 - C7     - H11   
    21     22     24      1    1.0829e+02    9.2801e+02 ;     O5 - C7     - O6    
    21     22     32      1    1.0797e+02    7.1379e+02 ;     O5 - C7     - C10   
    22     24     25      1    1.1248e+02    5.5480e+02 ;     C7 - O6     - C8    
    22     32     33      1    1.0956e+02    3.9246e+02 ;     C7 - C10    - H16   
    22     32     34      1    1.1019e+02    7.0793e+02 ;     C7 - C10    - O8    
    22     32     36      1    1.1151e+02    5.4308e+02 ;     C7 - C10    - C11   
    23     22     24      1    1.0958e+02    5.2216e+02 ;    H11 - C7     - O6    
    23     22     32      1    1.1022e+02    3.9079e+02 ;    H11 - C7     - C10   
    24     22     32      1    1.0797e+02    7.1379e+02 ;     O6 - C7     - C10   
    24     25     26      1    1.0978e+02    5.2216e+02 ;     O6 - C8     - H12   
    24     25     27      1    1.0797e+02    7.1379e+02 ;     O6 - C8     - C9    
    24     25     40      1    1.0797e+02    7.1379e+02 ;     O6 - C8     - C12   
    25     27     28      1    1.0956e+02    3.9246e+02 ;     C8 - C9     - H13   
    25     27     29      1    1.0956e+02    3.9246e+02 ;     C8 - C9     - H14   
    25     27     30      1    1.1019e+02    7.0793e+02 ;     C8 - C9     - O7    
    25     40     36      1    1.1151e+02    5.4308e+02 ;     C8 - C12    - C11   
    25     40     41      1    1.0956e+02    3.9246e+02 ;     C8 - C12    - H20   
    25     40     42      1    1.0797e+02    7.1379e+02 ;     C8 - C12    - O10   
    26     25     27      1    1.0956e+02    3.9246e+02 ;    H12 - C8     - C9    
    26     25     40      1    1.0956e+02    3.9246e+02 ;    H12 - C8     - C12   
    27     25     40      1    1.1151e+02    5.4308e+02 ;     C9 - C8     - C12   
    27     30     31      1    1.0726e+02    4.1003e+02 ;     C9 - O7     - H15   
    28     27     29      1    1.0846e+02    3.2468e+02 ;    H13 - C9     - H14   
    28     27     30      1    1.1026e+02    5.2300e+02 ;    H13 - C9     - O7    
    29     27     30      1    1.1026e+02    5.2300e+02 ;    H14 - C9     - O7    
    32     34     35      1    1.0726e+02    4.1003e+02 ;    C10 - O8     - H17   
    32     36     37      1    1.0956e+02    3.9246e+02 ;    C10 - C11    - H18   
    32     36     38      1    1.1019e+02    7.0793e+02 ;    C10 - C11    - O9    
    32     36     40      1    1.1151e+02    5.4308e+02 ;    C10 - C11    - C12   
    33     32     34      1    1.1026e+02    5.2300e+02 ;    H16 - C10    - O8    
    33     32     36      1    1.0956e+02    3.9246e+02 ;    H16 - C10    - C11   
    34     32     36      1    1.1019e+02    7.0793e+02 ;     O8 - C10    - C11   
    36     38     39      1    1.0726e+02    4.1003e+02 ;    C11 - O9     - H19   
    36     40     41      1    1.0956e+02    3.9246e+02 ;    C11 - C12    - H20   
    36     40     42      1    1.0797e+02    7.1379e+02 ;    C11 - C12    - O10   
    37     36     38      1    1.1026e+02    5.2300e+02 ;    H18 - C11    - O9    
    37     36     40      1    1.0956e+02    3.9246e+02 ;    H18 - C11    - C12   
    38     36     40      1    1.1019e+02    7.0793e+02 ;     O9 - C11    - C12   
    40     42     43      1    1.1248e+02    5.5480e+02 ;    C12 - O10    - C13   
    41     40     42      1    1.0978e+02    5.2216e+02 ;    H20 - C12    - O10   
    42     43     44      1    1.0958e+02    5.2216e+02 ;    O10 - C13    - H21   
    42     43     45      1    1.0829e+02    9.2801e+02 ;    O10 - C13    - O11   
    42     43     53      1    1.0797e+02    7.1379e+02 ;    O10 - C13    - C16   
    43     45     46      1    1.1248e+02    5.5480e+02 ;    C13 - O11    - C14   
    43     53     54      1    1.0956e+02    3.9246e+02 ;    C13 - C16    - H26   
    43     53     55      1    1.1019e+02    7.0793e+02 ;    C13 - C16    - O13   
    43     53     57      1    1.1151e+02    5.4308e+02 ;    C13 - C16    - C17   
    44     43     45      1    1.0958e+02    5.2216e+02 ;    H21 - C13    - O11   
    44     43     53      1    1.1022e+02    3.9079e+02 ;    H21 - C13    - C16   
    45     43     53      1    1.0797e+02    7.1379e+02 ;    O11 - C13    - C16   
    45     46     47      1    1.0978e+02    5.2216e+02 ;    O11 - C14    - H22   
    45     46     48      1    1.0797e+02    7.1379e+02 ;    O11 - C14    - C15   
    45     46     61      1    1.0797e+02    7.1379e+02 ;    O11 - C14    - C18   
    46     48     49      1    1.0956e+02    3.9246e+02 ;    C14 - C15    - H23   
    46     48     50      1    1.0956e+02    3.9246e+02 ;    C14 - C15    - H24   
    46     48     51      1    1.1019e+02    7.0793e+02 ;    C14 - C15    - O12   
    46     61     57      1    1.1151e+02    5.4308e+02 ;    C14 - C18    - C17   
    46     61     62      1    1.0956e+02    3.9246e+02 ;    C14 - C18    - H30   
    46     61     63      1    1.0797e+02    7.1379e+02 ;    C14 - C18    - O15   
    47     46     48      1    1.0956e+02    3.9246e+02 ;    H22 - C14    - C15   
    47     46     61      1    1.0956e+02    3.9246e+02 ;    H22 - C14    - C18   
    48     46     61      1    1.1151e+02    5.4308e+02 ;    C15 - C14    - C18   
    48     51     52      1    1.0726e+02    4.1003e+02 ;    C15 - O12    - H25   
    49     48     50      1    1.0846e+02    3.2468e+02 ;    H23 - C15    - H24   
    49     48     51      1    1.1026e+02    5.2300e+02 ;    H23 - C15    - O12   
    50     48     51      1    1.1026e+02    5.2300e+02 ;    H24 - C15    - O12   
    53     55     56      1    1.0726e+02    4.1003e+02 ;    C16 - O13    - H27   
    53     57     58      1    1.0956e+02    3.9246e+02 ;    C16 - C17    - H28   
    53     57     59      1    1.1019e+02    7.0793e+02 ;    C16 - C17    - O14   
    53     57     61      1    1.1151e+02    5.4308e+02 ;    C16 - C17    - C18   
    54     53     55      1    1.1026e+02    5.2300e+02 ;    H26 - C16    - O13   
    54     53     57      1    1.0956e+02    3.9246e+02 ;    H26 - C16    - C17   
    55     53     57      1    1.1019e+02    7.0793e+02 ;    O13 - C16    - C17   
    57     59     60      1    1.0726e+02    4.1003e+02 ;    C17 - O14    - H29   
    57     61     62      1    1.0956e+02    3.9246e+02 ;    C17 - C18    - H30   
    57     61     63      1    1.0797e+02    7.1379e+02 ;    C17 - C18    - O15   
    58     57     59      1    1.1026e+02    5.2300e+02 ;    H28 - C17    - O14   
    58     57     61      1    1.0956e+02    3.9246e+02 ;    H28 - C17    - C18   
    59     57     61      1    1.1019e+02    7.0793e+02 ;    O14 - C17    - C18   
    61     63     64      1    1.1248e+02    5.5480e+02 ;    C18 - O15    - C19   
    62     61     63      1    1.0978e+02    5.2216e+02 ;    H30 - C18    - O15   
    63     64     65      1    1.0958e+02    5.2216e+02 ;    O15 - C19    - H31   
    63     64     66      1    1.0829e+02    9.2801e+02 ;    O15 - C19    - O16   
    63     64     74      1    1.0797e+02    7.1379e+02 ;    O15 - C19    - C22   
    64     66     67      1    1.1248e+02    5.5480e+02 ;    C19 - O16    - C20   
    64     74     75      1    1.0956e+02    3.9246e+02 ;    C19 - C22    - H36   
    64     74     76      1    1.1019e+02    7.0793e+02 ;    C19 - C22    - O18   
    64     74     78      1    1.1151e+02    5.4308e+02 ;    C19 - C22    - C23   
    65     64     66      1    1.0958e+02    5.2216e+02 ;    H31 - C19    - O16   
    65     64     74      1    1.1022e+02    3.9079e+02 ;    H31 - C19    - C22   
    66     64     74      1    1.0797e+02    7.1379e+02 ;    O16 - C19    - C22   
    66     67     68      1    1.0978e+02    5.2216e+02 ;    O16 - C20    - H32   
    66     67     69      1    1.0797e+02    7.1379e+02 ;    O16 - C20    - C21   
    66     67     82      1    1.0797e+02    7.1379e+02 ;    O16 - C20    - C24   
    67     69     70      1    1.0956e+02    3.9246e+02 ;    C20 - C21    - H33   
    67     69     71      1    1.0956e+02    3.9246e+02 ;    C20 - C21    - H34   
    67     69     72      1    1.1019e+02    7.0793e+02 ;    C20 - C21    - O17   
    67     82     78      1    1.1151e+02    5.4308e+02 ;    C20 - C24    - C23   
    67     82     83      1    1.0956e+02    3.9246e+02 ;    C20 - C24    - H40   
    67     82     84      1    1.0797e+02    7.1379e+02 ;    C20 - C24    - O20   
    68     67     69      1    1.0956e+02    3.9246e+02 ;    H32 - C20    - C21   
    68     67     82      1    1.0956e+02    3.9246e+02 ;    H32 - C20    - C24   
    69     67     82      1    1.1151e+02    5.4308e+02 ;    C21 - C20    - C24   
    69     72     73      1    1.0726e+02    4.1003e+02 ;    C21 - O17    - H35   
    70     69     71      1    1.0846e+02    3.2468e+02 ;    H33 - C21    - H34   
    70     69     72      1    1.1026e+02    5.2300e+02 ;    H33 - C21    - O17   
    71     69     72      1    1.1026e+02    5.2300e+02 ;    H34 - C21    - O17   
    74     76     77      1    1.0726e+02    4.1003e+02 ;    C22 - O18    - H37   
    74     78     79      1    1.0956e+02    3.9246e+02 ;    C22 - C23    - H38   
    74     78     80      1    1.1019e+02    7.0793e+02 ;    C22 - C23    - O19   
    74     78     82      1    1.1151e+02    5.4308e+02 ;    C22 - C23    - C24   
    75     74     76      1    1.1026e+02    5.2300e+02 ;    H36 - C22    - O18   
    75     74     78      1    1.0956e+02    3.9246e+02 ;    H36 - C22    - C23   
    76     74     78      1    1.1019e+02    7.0793e+02 ;    O18 - C22    - C23   
    78     80     81      1    1.0726e+02    4.1003e+02 ;    C23 - O19    - H39   
    78     82     83      1    1.0956e+02    3.9246e+02 ;    C23 - C24    - H40   
    78     82     84      1    1.0797e+02    7.1379e+02 ;    C23 - C24    - O20   
    79     78     80      1    1.1026e+02    5.2300e+02 ;    H38 - C23    - O19   
    79     78     82      1    1.0956e+02    3.9246e+02 ;    H38 - C23    - C24   
    80     78     82      1    1.1019e+02    7.0793e+02 ;    O19 - C23    - C24   
    82     84     85      1    1.1248e+02    5.5480e+02 ;    C24 - O20    - C25   
    83     82     84      1    1.0978e+02    5.2216e+02 ;    H40 - C24    - O20   
    84     85     86      1    1.0958e+02    5.2216e+02 ;    O20 - C25    - H41   
    84     85     87      1    1.0829e+02    9.2801e+02 ;    O20 - C25    - O21   
    84     85     95      1    1.0797e+02    7.1379e+02 ;    O20 - C25    - C28   
    85     87     88      1    1.1248e+02    5.5480e+02 ;    C25 - O21    - C26   
    85     95     96      1    1.0956e+02    3.9246e+02 ;    C25 - C28    - H46   
    85     95     97      1    1.1019e+02    7.0793e+02 ;    C25 - C28    - O23   
    85     95     99      1    1.1151e+02    5.4308e+02 ;    C25 - C28    - C29   
    86     85     87      1    1.0958e+02    5.2216e+02 ;    H41 - C25    - O21   
    86     85     95      1    1.1022e+02    3.9079e+02 ;    H41 - C25    - C28   
    87     85     95      1    1.0797e+02    7.1379e+02 ;    O21 - C25    - C28   
    87     88     89      1    1.0978e+02    5.2216e+02 ;    O21 - C26    - H42   
    87     88     90      1    1.0797e+02    7.1379e+02 ;    O21 - C26    - C27   
    87     88    103      1    1.0797e+02    7.1379e+02 ;    O21 - C26    - C30   
    88     90     91      1    1.0956e+02    3.9246e+02 ;    C26 - C27    - H43   
    88     90     92      1    1.0956e+02    3.9246e+02 ;    C26 - C27    - H44   
    88     90     93      1    1.1019e+02    7.0793e+02 ;    C26 - C27    - O22   
    88    103     99      1    1.1151e+02    5.4308e+02 ;    C26 - C30    - C29   
    88    103    104      1    1.0956e+02    3.9246e+02 ;    C26 - C30    - H50   
    88    103    105      1    1.0797e+02    7.1379e+02 ;    C26 - C30    - O25   
    89     88     90      1    1.0956e+02    3.9246e+02 ;    H42 - C26    - C27   
    89     88    103      1    1.0956e+02    3.9246e+02 ;    H42 - C26    - C30   
    90     88    103      1    1.1151e+02    5.4308e+02 ;    C27 - C26    - C30   
    90     93     94      1    1.0726e+02    4.1003e+02 ;    C27 - O22    - H45   
    91     90     92      1    1.0846e+02    3.2468e+02 ;    H43 - C27    - H44   
    91     90     93      1    1.1026e+02    5.2300e+02 ;    H43 - C27    - O22   
    92     90     93      1    1.1026e+02    5.2300e+02 ;    H44 - C27    - O22   
    95     97     98      1    1.0726e+02    4.1003e+02 ;    C28 - O23    - H47   
    95     99    100      1    1.0956e+02    3.9246e+02 ;    C28 - C29    - H48   
    95     99    101      1    1.1019e+02    7.0793e+02 ;    C28 - C29    - O24   
    95     99    103      1    1.1151e+02    5.4308e+02 ;    C28 - C29    - C30   
    96     95     97      1    1.1026e+02    5.2300e+02 ;    H46 - C28    - O23   
    96     95     99      1    1.0956e+02    3.9246e+02 ;    H46 - C28    - C29   
    97     95     99      1    1.1019e+02    7.0793e+02 ;    O23 - C28    - C29   
    99    101    102      1    1.0726e+02    4.1003e+02 ;    C29 - O24    - H49   
    99    103    104      1    1.0956e+02    3.9246e+02 ;    C29 - C30    - H50   
    99    103    105      1    1.0797e+02    7.1379e+02 ;    C29 - C30    - O25   
   100     99    101      1    1.1026e+02    5.2300e+02 ;    H48 - C29    - O24   
   100     99    103      1    1.0956e+02    3.9246e+02 ;    H48 - C29    - C30   
   101     99    103      1    1.1019e+02    7.0793e+02 ;    O24 - C29    - C30   
   103    105    106      1    1.1248e+02    5.5480e+02 ;    C30 - O25    - C31   
   104    103    105      1    1.0978e+02    5.2216e+02 ;    H50 - C30    - O25   
   105    106    107      1    1.0958e+02    5.2216e+02 ;    O25 - C31    - H51   
   105    106    108      1    1.0829e+02    9.2801e+02 ;    O25 - C31    - O26   
   105    106    116      1    1.0797e+02    7.1379e+02 ;    O25 - C31    - C34   
   106    108    109      1    1.1248e+02    5.5480e+02 ;    C31 - O26    - C32   
   106    116    117      1    1.0956e+02    3.9246e+02 ;    C31 - C34    - H56   
   106    116    118      1    1.1019e+02    7.0793e+02 ;    C31 - C34    - O28   
   106    116    120      1    1.1151e+02    5.4308e+02 ;    C31 - C34    - C35   
   107    106    108      1    1.0958e+02    5.2216e+02 ;    H51 - C31    - O26   
   107    106    116      1    1.1022e+02    3.9079e+02 ;    H51 - C31    - C34   
   108    106    116      1    1.0797e+02    7.1379e+02 ;    O26 - C31    - C34   
   108    109    110      1    1.0978e+02    5.2216e+02 ;    O26 - C32    - H52   
   108    109    111      1    1.0797e+02    7.1379e+02 ;    O26 - C32    - C33   
   108    109    124      1    1.0797e+02    7.1379e+02 ;    O26 - C32    - C36   
   109    111    112      1    1.0956e+02    3.9246e+02 ;    C32 - C33    - H53   
   109    111    113      1    1.0956e+02    3.9246e+02 ;    C32 - C33    - H54   
   109    111    114      1    1.1019e+02    7.0793e+02 ;    C32 - C33    - O27   
   109    124    120      1    1.1151e+02    5.4308e+02 ;    C32 - C36    - C35   
   109    124    125      1    1.0956e+02    3.9246e+02 ;    C32 - C36    - H60   
   109    124    126      1    1.0797e+02    7.1379e+02 ;    C32 - C36    - O30   
   110    109    111      1    1.0956e+02    3.9246e+02 ;    H52 - C32    - C33   
   110    109    124      1    1.0956e+02    3.9246e+02 ;    H52 - C32    - C36   
   111    109    124      1    1.1151e+02    5.4308e+02 ;    C33 - C32    - C36   
   111    114    115      1    1.0726e+02    4.1003e+02 ;    C33 - O27    - H55   
   112    111    113      1    1.0846e+02    3.2468e+02 ;    H53 - C33    - H54   
   112    111    114      1    1.1026e+02    5.2300e+02 ;    H53 - C33    - O27   
   113    111    114      1    1.1026e+02    5.2300e+02 ;    H54 - C33    - O27   
   116    118    119      1    1.0726e+02    4.1003e+02 ;    C34 - O28    - H57   
   116    120    121      1    1.0956e+02    3.9246e+02 ;    C34 - C35    - H58   
   116    120    122      1    1.1019e+02    7.0793e+02 ;    C34 - C35    - O29   
   116    120    124      1    1.1151e+02    5.4308e+02 ;    C34 - C35    - C36   
   117    116    118      1    1.1026e+02    5.2300e+02 ;    H56 - C34    - O28   
   117    116    120      1    1.0956e+02    3.9246e+02 ;    H56 - C34    - C35   
   118    116    120      1    1.1019e+02    7.0793e+02 ;    O28 - C34    - C35   
   120    122    123      1    1.0726e+02    4.1003e+02 ;    C35 - O29    - H59   
   120    124    125      1    1.0956e+02    3.9246e+02 ;    C35 - C36    - H60   
   120    124    126      1    1.0797e+02    7.1379e+02 ;    C35 - C36    - O30   
   121    120    122      1    1.1026e+02    5.2300e+02 ;    H58 - C35    - O29   
   121    120    124      1    1.0956e+02    3.9246e+02 ;    H58 - C35    - C36   
   122    120    124      1    1.1019e+02    7.0793e+02 ;    O29 - C35    - C36   
   124    126    127      1    1.1248e+02    5.5480e+02 ;    C36 - O30    - C37   
   125    124    126      1    1.0978e+02    5.2216e+02 ;    H60 - C36    - O30   
   126    127    128      1    1.0958e+02    5.2216e+02 ;    O30 - C37    - H61   
   126    127    129      1    1.0829e+02    9.2801e+02 ;    O30 - C37    - O31   
   126    127    137      1    1.0797e+02    7.1379e+02 ;    O30 - C37    - C40   
   127    129    130      1    1.1248e+02    5.5480e+02 ;    C37 - O31    - C38   
   127    137    138      1    1.0956e+02    3.9246e+02 ;    C37 - C40    - H66   
   127    137    139      1    1.1019e+02    7.0793e+02 ;    C37 - C40    - O33   
   127    137    141      1    1.1151e+02    5.4308e+02 ;    C37 - C40    - C41   
   128    127    129      1    1.0958e+02    5.2216e+02 ;    H61 - C37    - O31   
   128    127    137      1    1.1022e+02    3.9079e+02 ;    H61 - C37    - C40   
   129    127    137      1    1.0797e+02    7.1379e+02 ;    O31 - C37    - C40   
   129    130    131      1    1.0978e+02    5.2216e+02 ;    O31 - C38    - H62   
   129    130    132      1    1.0797e+02    7.1379e+02 ;    O31 - C38    - C39   
   129    130    145      1    1.0797e+02    7.1379e+02 ;    O31 - C38    - C42   
   130    132    133      1    1.0956e+02    3.9246e+02 ;    C38 - C39    - H63   
   130    132    134      1    1.0956e+02    3.9246e+02 ;    C38 - C39    - H64   
   130    132    135      1    1.1019e+02    7.0793e+02 ;    C38 - C39    - O32   
   130    145    141      1    1.1151e+02    5.4308e+02 ;    C38 - C42    - C41   
   130    145    146      1    1.0956e+02    3.9246e+02 ;    C38 - C42    - H70   
   130    145    147      1    1.0797e+02    7.1379e+02 ;    C38 - C42    - O35   
   131    130    132      1    1.0956e+02    3.9246e+02 ;    H62 - C38    - C39   
   131    130    145      1    1.0956e+02    3.9246e+02 ;    H62 - C38    - C42   
   132    130    145      1    1.1151e+02    5.4308e+02 ;    C39 - C38    - C42   
   132    135    136      1    1.0726e+02    4.1003e+02 ;    C39 - O32    - H65   
   133    132    134      1    1.0846e+02    3.2468e+02 ;    H63 - C39    - H64   
   133    132    135      1    1.1026e+02    5.2300e+02 ;    H63 - C39    - O32   
   134    132    135      1    1.1026e+02    5.2300e+02 ;    H64 - C39    - O32   
   137    139    140      1    1.0726e+02    4.1003e+02 ;    C40 - O33    - H67   
   137    141    142      1    1.0956e+02    3.9246e+02 ;    C40 - C41    - H68   
   137    141    143      1    1.1019e+02    7.0793e+02 ;    C40 - C41    - O34   
   137    141    145      1    1.1151e+02    5.4308e+02 ;    C40 - C41    - C42   
   138    137    139      1    1.1026e+02    5.2300e+02 ;    H66 - C40    - O33   
   138    137    141      1    1.0956e+02    3.9246e+02 ;    H66 - C40    - C41   
   139    137    141      1    1.1019e+02    7.0793e+02 ;    O33 - C40    - C41   
   141    143    144      1    1.0726e+02    4.1003e+02 ;    C41 - O34    - H69   
   141    145    146      1    1.0956e+02    3.9246e+02 ;    C41 - C42    - H70   
   141    145    147      1    1.0797e+02    7.1379e+02 ;    C41 - C42    - O35   
   142    141    143      1    1.1026e+02    5.2300e+02 ;    H68 - C41    - O34   
   142    141    145      1    1.0956e+02    3.9246e+02 ;    H68 - C41    - C42   
   143    141    145      1    1.1019e+02    7.0793e+02 ;    O34 - C41    - C42   
   145    147    148      1    1.1248e+02    5.5480e+02 ;    C42 - O35    - C43   
   146    145    147      1    1.0978e+02    5.2216e+02 ;    H70 - C42    - O35   
   147    148    149      1    1.0958e+02    5.2216e+02 ;    O35 - C43    - H71   
   147    148    150      1    1.0829e+02    9.2801e+02 ;    O35 - C43    - O36   
   147    148    158      1    1.0797e+02    7.1379e+02 ;    O35 - C43    - C46   
   148    150    151      1    1.1248e+02    5.5480e+02 ;    C43 - O36    - C44   
   148    158    159      1    1.0956e+02    3.9246e+02 ;    C43 - C46    - H76   
   148    158    160      1    1.1019e+02    7.0793e+02 ;    C43 - C46    - O38   
   148    158    162      1    1.1151e+02    5.4308e+02 ;    C43 - C46    - C47   
   149    148    150      1    1.0958e+02    5.2216e+02 ;    H71 - C43    - O36   
   149    148    158      1    1.1022e+02    3.9079e+02 ;    H71 - C43    - C46   
   150    148    158      1    1.0797e+02    7.1379e+02 ;    O36 - C43    - C46   
   150    151    152      1    1.0978e+02    5.2216e+02 ;    O36 - C44    - H72   
   150    151    153      1    1.0797e+02    7.1379e+02 ;    O36 - C44    - C45   
   150    151    166      1    1.0797e+02    7.1379e+02 ;    O36 - C44    - C48   
   151    153    154      1    1.0956e+02    3.9246e+02 ;    C44 - C45    - H73   
   151    153    155      1    1.0956e+02    3.9246e+02 ;    C44 - C45    - H74   
   151    153    156      1    1.1019e+02    7.0793e+02 ;    C44 - C45    - O37   
   151    166    162      1    1.1151e+02    5.4308e+02 ;    C44 - C48    - C47   
   151    166    167      1    1.0956e+02    3.9246e+02 ;    C44 - C48    - H80   
   151    166    168      1    1.0797e+02    7.1379e+02 ;    C44 - C48    - O40   
   152    151    153      1    1.0956e+02    3.9246e+02 ;    H72 - C44    - C45   
   152    151    166      1    1.0956e+02    3.9246e+02 ;    H72 - C44    - C48   
   153    151    166      1    1.1151e+02    5.4308e+02 ;    C45 - C44    - C48   
   153    156    157      1    1.0726e+02    4.1003e+02 ;    C45 - O37    - H75   
   154    153    155      1    1.0846e+02    3.2468e+02 ;    H73 - C45    - H74   
   154    153    156      1    1.1026e+02    5.2300e+02 ;    H73 - C45    - O37   
   155    153    156      1    1.1026e+02    5.2300e+02 ;    H74 - C45    - O37   
   158    160    161      1    1.0726e+02    4.1003e+02 ;    C46 - O38    - H77   
   158    162    163      1    1.0956e+02    3.9246e+02 ;    C46 - C47    - H78   
   158    162    164      1    1.1019e+02    7.0793e+02 ;    C46 - C47    - O39   
   158    162    166      1    1.1151e+02    5.4308e+02 ;    C46 - C47    - C48   
   159    158    160      1    1.1026e+02    5.2300e+02 ;    H76 - C46    - O38   
   159    158    162      1    1.0956e+02    3.9246e+02 ;    H76 - C46    - C47   
   160    158    162      1    1.1019e+02    7.0793e+02 ;    O38 - C46    - C47   
   162    164    165      1    1.0726e+02    4.1003e+02 ;    C47 - O39    - H79   
   162    166    167      1    1.0956e+02    3.9246e+02 ;    C47 - C48    - H80   
   162    166    168      1    1.0797e+02    7.1379e+02 ;    C47 - C48    - O40   
   163    162    164      1    1.1026e+02    5.2300e+02 ;    H78 - C47    - O39   
   163    162    166      1    1.0956e+02    3.9246e+02 ;    H78 - C47    - C48   
   164    162    166      1    1.1019e+02    7.0793e+02 ;    O39 - C47    - C48   
   167    166    168      1    1.0978e+02    5.2216e+02 ;    H80 - C48    - O40   

[ dihedrals ] ; propers
; for gromacs 4.5 or higher, using funct 9
;    i      j      k      l   func   phase     kd      pn
     1      3      4      5      9     0.00   1.41001   3 ;     C1-    O1-    C2-    H2
     1      3      4      6      9     0.00   0.00000   0 ;     C1-    O1-    C2-    C3
     1      3      4      6      9     0.00   0.66944   2 ;     C1-    O1-    C2-    C3
     1      3      4      6      9     0.00   1.00416   3 ;     C1-    O1-    C2-    C3
     1      3      4     19      9     0.00   0.00000   0 ;     C1-    O1-    C2-    C6
     1      3      4     19      9     0.00   0.66944   2 ;     C1-    O1-    C2-    C6
     1      3      4     19      9     0.00   1.00416   3 ;     C1-    O1-    C2-    C6
     1     11     13     14      9     0.00   0.00000   0 ;     C1-    C4-    O3-    H7
     1     11     15     16      9     0.00   0.65084   3 ;     C1-    C4-    C5-    H8
     1     11     15     17      9     0.00   0.87864   3 ;     C1-    C4-    C5-    O4
     1     11     15     19      9     0.00   0.46024   1 ;     C1-    C4-    C5-    C6
     1     11     15     19      9     0.00   0.54392   3 ;     C1-    C4-    C5-    C6
     1     11     15     19      9   180.00   1.21336   2 ;     C1-    C4-    C5-    C6
     1    168    166    151      9     0.00   0.00000   0 ;     C1-   O40-   C48-   C44
     1    168    166    151      9     0.00   0.66944   2 ;     C1-   O40-   C48-   C44
     1    168    166    151      9     0.00   1.00416   3 ;     C1-   O40-   C48-   C44
     1    168    166    162      9     0.00   0.00000   0 ;     C1-   O40-   C48-   C47
     1    168    166    162      9     0.00   0.66944   2 ;     C1-   O40-   C48-   C47
     1    168    166    162      9     0.00   1.00416   3 ;     C1-   O40-   C48-   C47
     1    168    166    167      9     0.00   1.41001   3 ;     C1-   O40-   C48-   H80
     2      1      3      4      9     0.00   1.60387   3 ;     H1-    C1-    O1-    C2
     2      1     11     12      9     0.00   0.65084   3 ;     H1-    C1-    C4-    H6
     2      1     11     13      9     0.00   0.65084   3 ;     H1-    C1-    C4-    O3
     2      1     11     15      9     0.00   0.65084   3 ;     H1-    C1-    C4-    C5
     2      1    168    166      9     0.00   1.60387   3 ;     H1-    C1-   O40-   C48
     3      1     11     12      9     0.00   0.00000   0 ;     O1-    C1-    C4-    H6
     3      1     11     12      9     0.00   1.04600   1 ;     O1-    C1-    C4-    H6
     3      1     11     13      9     0.00   0.00000   0 ;     O1-    C1-    C4-    O3
     3      1     11     13      9     0.00   4.22584   3 ;     O1-    C1-    C4-    O3
     3      1     11     13      9   180.00   0.08368   1 ;     O1-    C1-    C4-    O3
     3      1     11     15      9     0.00   0.65084   3 ;     O1-    C1-    C4-    C5
     3      1    168    166      9     0.00   5.18816   2 ;     O1-    C1-   O40-   C48
     3      1    168    166      9   180.00   0.00000   3 ;     O1-    C1-   O40-   C48
     3      1    168    166      9   180.00   4.05848   1 ;     O1-    C1-   O40-   C48
     3      4      6      7      9     0.00   0.00000   0 ;     O1-    C2-    C3-    H3
     3      4      6      7      9     0.00   1.04600   1 ;     O1-    C2-    C3-    H3
     3      4      6      8      9     0.00   0.00000   0 ;     O1-    C2-    C3-    H4
     3      4      6      8      9     0.00   1.04600   1 ;     O1-    C2-    C3-    H4
     3      4      6      9      9     0.00   0.00000   0 ;     O1-    C2-    C3-    O2
     3      4      6      9      9     0.00   4.22584   3 ;     O1-    C2-    C3-    O2
     3      4      6      9      9   180.00   0.08368   1 ;     O1-    C2-    C3-    O2
     3      4     19     15      9     0.00   0.65084   3 ;     O1-    C2-    C6-    C5
     3      4     19     20      9     0.00   0.00000   0 ;     O1-    C2-    C6-   H10
     3      4     19     20      9     0.00   1.04600   1 ;     O1-    C2-    C6-   H10
     3      4     19     21      9     0.00   0.00000   0 ;     O1-    C2-    C6-    O5
     3      4     19     21      9   180.00   0.00000   2 ;     O1-    C2-    C6-    O5
     3      4     19     21      9   180.00   0.71128   1 ;     O1-    C2-    C6-    O5
     4      6      9     10      9     0.00   0.00000   0 ;     C2-    C3-    O2-    H5
     4     19     15     11      9     0.00   0.46024   1 ;     C2-    C6-    C5-    C4
     4     19     15     11      9     0.00   0.54392   3 ;     C2-    C6-    C5-    C4
     4     19     15     11      9   180.00   1.21336   2 ;     C2-    C6-    C5-    C4
     4     19     15     16      9     0.00   0.65084   3 ;     C2-    C6-    C5-    H8
     4     19     15     17      9     0.00   0.87864   3 ;     C2-    C6-    C5-    O4
     4     19     21     22      9     0.00   0.00000   0 ;     C2-    C6-    O5-    C7
     4     19     21     22      9     0.00   0.66944   2 ;     C2-    C6-    O5-    C7
     4     19     21     22      9     0.00   1.00416   3 ;     C2-    C6-    O5-    C7
     5      4      6      7      9     0.00   0.65084   3 ;     H2-    C2-    C3-    H3
     5      4      6      8      9     0.00   0.65084   3 ;     H2-    C2-    C3-    H4
     5      4      6      9      9     0.00   0.00000   0 ;     H2-    C2-    C3-    O2
     5      4      6      9      9     0.00   1.04600   1 ;     H2-    C2-    C3-    O2
     5      4     19     15      9     0.00   0.65084   3 ;     H2-    C2-    C6-    C5
     5      4     19     20      9     0.00   0.65084   3 ;     H2-    C2-    C6-   H10
     5      4     19     21      9     0.00   0.00000   0 ;     H2-    C2-    C6-    O5
     5      4     19     21      9     0.00   1.04600   1 ;     H2-    C2-    C6-    O5
     6      4     19     15      9     0.00   0.46024   1 ;     C3-    C2-    C6-    C5
     6      4     19     15      9     0.00   0.54392   3 ;     C3-    C2-    C6-    C5
     6      4     19     15      9   180.00   1.21336   2 ;     C3-    C2-    C6-    C5
     6      4     19     20      9     0.00   0.65084   3 ;     C3-    C2-    C6-   H10
     6      4     19     21      9     0.00   0.65084   3 ;     C3-    C2-    C6-    O5
     7      6      4     19      9     0.00   0.65084   3 ;     H3-    C3-    C2-    C6
     7      6      9     10      9     0.00   0.47279   3 ;     H3-    C3-    O2-    H5
     8      6      4     19      9     0.00   0.65084   3 ;     H4-    C3-    C2-    C6
     8      6      9     10      9     0.00   0.47279   3 ;     H4-    C3-    O2-    H5
     9      6      4     19      9     0.00   0.87864   3 ;     O2-    C3-    C2-    C6
    11      1      3      4      9     0.00   0.00000   0 ;     C4-    C1-    O1-    C2
    11      1      3      4      9     0.00   0.66944   2 ;     C4-    C1-    O1-    C2
    11      1      3      4      9     0.00   1.00416   3 ;     C4-    C1-    O1-    C2
    11      1    168    166      9     0.00   0.00000   0 ;     C4-    C1-   O40-   C48
    11      1    168    166      9     0.00   0.66944   2 ;     C4-    C1-   O40-   C48
    11      1    168    166      9     0.00   1.00416   3 ;     C4-    C1-   O40-   C48
    11     15     17     18      9     0.00   0.00000   0 ;     C4-    C5-    O4-    H9
    11     15     19     20      9     0.00   0.65084   3 ;     C4-    C5-    C6-   H10
    11     15     19     21      9     0.00   0.65084   3 ;     C4-    C5-    C6-    O5
    12     11     13     14      9     0.00   0.47279   3 ;     H6-    C4-    O3-    H7
    12     11     15     16      9     0.00   0.65084   3 ;     H6-    C4-    C5-    H8
    12     11     15     17      9     0.00   0.00000   0 ;     H6-    C4-    C5-    O4
    12     11     15     17      9     0.00   1.04600   1 ;     H6-    C4-    C5-    O4
    12     11     15     19      9     0.00   0.65084   3 ;     H6-    C4-    C5-    C6
    13     11     15     16      9     0.00   0.00000   0 ;     O3-    C4-    C5-    H8
    13     11     15     16      9     0.00   1.04600   1 ;     O3-    C4-    C5-    H8
    13     11     15     17      9     0.00   3.76560   3 ;     O3-    C4-    C5-    O4
    13     11     15     17      9     0.00   4.72792   2 ;     O3-    C4-    C5-    O4
    13     11     15     19      9     0.00   0.87864   3 ;     O3-    C4-    C5-    C6
    14     13     11     15      9     0.00   0.00000   0 ;     H7-    O3-    C4-    C5
    15     19     21     22      9     0.00   0.00000   0 ;     C5-    C6-    O5-    C7
    15     19     21     22      9     0.00   0.66944   2 ;     C5-    C6-    O5-    C7
    15     19     21     22      9     0.00   1.00416   3 ;     C5-    C6-    O5-    C7
    16     15     17     18      9     0.00   0.47279   3 ;     H8-    C5-    O4-    H9
    16     15     19     20      9     0.00   0.65084   3 ;     H8-    C5-    C6-   H10
    16     15     19     21      9     0.00   0.00000   0 ;     H8-    C5-    C6-    O5
    16     15     19     21      9     0.00   1.04600   1 ;     H8-    C5-    C6-    O5
    17     15     19     20      9     0.00   0.00000   0 ;     O4-    C5-    C6-   H10
    17     15     19     20      9     0.00   1.04600   1 ;     O4-    C5-    C6-   H10
    17     15     19     21      9     0.00   0.00000   0 ;     O4-    C5-    C6-    O5
    17     15     19     21      9     0.00   4.22584   3 ;     O4-    C5-    C6-    O5
    17     15     19     21      9   180.00   0.08368   1 ;     O4-    C5-    C6-    O5
    18     17     15     19      9     0.00   0.00000   0 ;     H9-    O4-    C5-    C6
    19     21     22     23      9     0.00   1.60387   3 ;     C6-    O5-    C7-   H11
    19     21     22     24      9     0.00   5.18816   2 ;     C6-    O5-    C7-    O6
    19     21     22     24      9   180.00   0.00000   3 ;     C6-    O5-    C7-    O6
    19     21     22     24      9   180.00   4.05848   1 ;     C6-    O5-    C7-    O6
    19     21     22     32      9     0.00   0.00000   0 ;     C6-    O5-    C7-   C10
    19     21     22     32      9     0.00   0.66944   2 ;     C6-    O5-    C7-   C10
    19     21     22     32      9     0.00   1.00416   3 ;     C6-    O5-    C7-   C10
    20     19     21     22      9     0.00   1.41001   3 ;    H10-    C6-    O5-    C7
    21     22     24     25      9     0.00   5.18816   2 ;     O5-    C7-    O6-    C8
    21     22     24     25      9   180.00   0.00000   3 ;     O5-    C7-    O6-    C8
    21     22     24     25      9   180.00   4.05848   1 ;     O5-    C7-    O6-    C8
    21     22     32     33      9     0.00   0.00000   0 ;     O5-    C7-   C10-   H16
    21     22     32     33      9     0.00   1.04600   1 ;     O5-    C7-   C10-   H16
    21     22     32     34      9     0.00   0.00000   0 ;     O5-    C7-   C10-    O8
    21     22     32     34      9     0.00   4.22584   3 ;     O5-    C7-   C10-    O8
    21     22     32     34      9   180.00   0.08368   1 ;     O5-    C7-   C10-    O8
    21     22     32     36      9     0.00   0.65084   3 ;     O5-    C7-   C10-   C11
    22     24     25     26      9     0.00   1.41001   3 ;     C7-    O6-    C8-   H12
    22     24     25     27      9     0.00   0.00000   0 ;     C7-    O6-    C8-    C9
    22     24     25     27      9     0.00   0.66944   2 ;     C7-    O6-    C8-    C9
    22     24     25     27      9     0.00   1.00416   3 ;     C7-    O6-    C8-    C9
    22     24     25     40      9     0.00   0.00000   0 ;     C7-    O6-    C8-   C12
    22     24     25     40      9     0.00   0.66944   2 ;     C7-    O6-    C8-   C12
    22     24     25     40      9     0.00   1.00416   3 ;     C7-    O6-    C8-   C12
    22     32     34     35      9     0.00   0.00000   0 ;     C7-   C10-    O8-   H17
    22     32     36     37      9     0.00   0.65084   3 ;     C7-   C10-   C11-   H18
    22     32     36     38      9     0.00   0.87864   3 ;     C7-   C10-   C11-    O9
    22     32     36     40      9     0.00   0.46024   1 ;     C7-   C10-   C11-   C12
    22     32     36     40      9     0.00   0.54392   3 ;     C7-   C10-   C11-   C12
    22     32     36     40      9   180.00   1.21336   2 ;     C7-   C10-   C11-   C12
    23     22     24     25      9     0.00   1.60387   3 ;    H11-    C7-    O6-    C8
    23     22     32     33      9     0.00   0.65084   3 ;    H11-    C7-   C10-   H16
    23     22     32     34      9     0.00   0.65084   3 ;    H11-    C7-   C10-    O8
    23     22     32     36      9     0.00   0.65084   3 ;    H11-    C7-   C10-   C11
    24     22     32     33      9     0.00   0.00000   0 ;     O6-    C7-   C10-   H16
    24     22     32     33      9     0.00   1.04600   1 ;     O6-    C7-   C10-   H16
    24     22     32     34      9     0.00   0.00000   0 ;     O6-    C7-   C10-    O8
    24     22     32     34      9     0.00   4.22584   3 ;     O6-    C7-   C10-    O8
    24     22     32     34      9   180.00   0.08368   1 ;     O6-    C7-   C10-    O8
    24     22     32     36      9     0.00   0.65084   3 ;     O6-    C7-   C10-   C11
    24     25     27     28      9     0.00   0.00000   0 ;     O6-    C8-    C9-   H13
    24     25     27     28      9     0.00   1.04600   1 ;     O6-    C8-    C9-   H13
    24     25     27     29      9     0.00   0.00000   0 ;     O6-    C8-    C9-   H14
    24     25     27     29      9     0.00   1.04600   1 ;     O6-    C8-    C9-   H14
    24     25     27     30      9     0.00   0.00000   0 ;     O6-    C8-    C9-    O7
    24     25     27     30      9     0.00   4.22584   3 ;     O6-    C8-    C9-    O7
    24     25     27     30      9   180.00   0.08368   1 ;     O6-    C8-    C9-    O7
    24     25     40     36      9     0.00   0.65084   3 ;     O6-    C8-   C12-   C11
    24     25     40     41      9     0.00   0.00000   0 ;     O6-    C8-   C12-   H20
    24     25     40     41      9     0.00   1.04600   1 ;     O6-    C8-   C12-   H20
    24     25     40     42      9     0.00   0.00000   0 ;     O6-    C8-   C12-   O10
    24     25     40     42      9   180.00   0.00000   2 ;     O6-    C8-   C12-   O10
    24     25     40     42      9   180.00   0.71128   1 ;     O6-    C8-   C12-   O10
    25     24     22     32      9     0.00   0.00000   0 ;     C8-    O6-    C7-   C10
    25     24     22     32      9     0.00   0.66944   2 ;     C8-    O6-    C7-   C10
    25     24     22     32      9     0.00   1.00416   3 ;     C8-    O6-    C7-   C10
    25     27     30     31      9     0.00   0.00000   0 ;     C8-    C9-    O7-   H15
    25     40     36     32      9     0.00   0.46024   1 ;     C8-   C12-   C11-   C10
    25     40     36     32      9     0.00   0.54392   3 ;     C8-   C12-   C11-   C10
    25     40     36     32      9   180.00   1.21336   2 ;     C8-   C12-   C11-   C10
    25     40     36     37      9     0.00   0.65084   3 ;     C8-   C12-   C11-   H18
    25     40     36     38      9     0.00   0.87864   3 ;     C8-   C12-   C11-    O9
    25     40     42     43      9     0.00   0.00000   0 ;     C8-   C12-   O10-   C13
    25     40     42     43      9     0.00   0.66944   2 ;     C8-   C12-   O10-   C13
    25     40     42     43      9     0.00   1.00416   3 ;     C8-   C12-   O10-   C13
    26     25     27     28      9     0.00   0.65084   3 ;    H12-    C8-    C9-   H13
    26     25     27     29      9     0.00   0.65084   3 ;    H12-    C8-    C9-   H14
    26     25     27     30      9     0.00   0.00000   0 ;    H12-    C8-    C9-    O7
    26     25     27     30      9     0.00   1.04600   1 ;    H12-    C8-    C9-    O7
    26     25     40     36      9     0.00   0.65084   3 ;    H12-    C8-   C12-   C11
    26     25     40     41      9     0.00   0.65084   3 ;    H12-    C8-   C12-   H20
    26     25     40     42      9     0.00   0.00000   0 ;    H12-    C8-   C12-   O10
    26     25     40     42      9     0.00   1.04600   1 ;    H12-    C8-   C12-   O10
    27     25     40     36      9     0.00   0.46024   1 ;     C9-    C8-   C12-   C11
    27     25     40     36      9     0.00   0.54392   3 ;     C9-    C8-   C12-   C11
    27     25     40     36      9   180.00   1.21336   2 ;     C9-    C8-   C12-   C11
    27     25     40     41      9     0.00   0.65084   3 ;     C9-    C8-   C12-   H20
    27     25     40     42      9     0.00   0.65084   3 ;     C9-    C8-   C12-   O10
    28     27     25     40      9     0.00   0.65084   3 ;    H13-    C9-    C8-   C12
    28     27     30     31      9     0.00   0.47279   3 ;    H13-    C9-    O7-   H15
    29     27     25     40      9     0.00   0.65084   3 ;    H14-    C9-    C8-   C12
    29     27     30     31      9     0.00   0.47279   3 ;    H14-    C9-    O7-   H15
    30     27     25     40      9     0.00   0.87864   3 ;     O7-    C9-    C8-   C12
    32     36     38     39      9     0.00   0.00000   0 ;    C10-   C11-    O9-   H19
    32     36     40     41      9     0.00   0.65084   3 ;    C10-   C11-   C12-   H20
    32     36     40     42      9     0.00   0.65084   3 ;    C10-   C11-   C12-   O10
    33     32     34     35      9     0.00   0.47279   3 ;    H16-   C10-    O8-   H17
    33     32     36     37      9     0.00   0.65084   3 ;    H16-   C10-   C11-   H18
    33     32     36     38      9     0.00   0.00000   0 ;    H16-   C10-   C11-    O9
    33     32     36     38      9     0.00   1.04600   1 ;    H16-   C10-   C11-    O9
    33     32     36     40      9     0.00   0.65084   3 ;    H16-   C10-   C11-   C12
    34     32     36     37      9     0.00   0.00000   0 ;     O8-   C10-   C11-   H18
    34     32     36     37      9     0.00   1.04600   1 ;     O8-   C10-   C11-   H18
    34     32     36     38      9     0.00   3.76560   3 ;     O8-   C10-   C11-    O9
    34     32     36     38      9     0.00   4.72792   2 ;     O8-   C10-   C11-    O9
    34     32     36     40      9     0.00   0.87864   3 ;     O8-   C10-   C11-   C12
    35     34     32     36      9     0.00   0.00000   0 ;    H17-    O8-   C10-   C11
    36     40     42     43      9     0.00   0.00000   0 ;    C11-   C12-   O10-   C13
    36     40     42     43      9     0.00   0.66944   2 ;    C11-   C12-   O10-   C13
    36     40     42     43      9     0.00   1.00416   3 ;    C11-   C12-   O10-   C13
    37     36     38     39      9     0.00   0.47279   3 ;    H18-   C11-    O9-   H19
    37     36     40     41      9     0.00   0.65084   3 ;    H18-   C11-   C12-   H20
    37     36     40     42      9     0.00   0.00000   0 ;    H18-   C11-   C12-   O10
    37     36     40     42      9     0.00   1.04600   1 ;    H18-   C11-   C12-   O10
    38     36     40     41      9     0.00   0.00000   0 ;     O9-   C11-   C12-   H20
    38     36     40     41      9     0.00   1.04600   1 ;     O9-   C11-   C12-   H20
    38     36     40     42      9     0.00   0.00000   0 ;     O9-   C11-   C12-   O10
    38     36     40     42      9     0.00   4.22584   3 ;     O9-   C11-   C12-   O10
    38     36     40     42      9   180.00   0.08368   1 ;     O9-   C11-   C12-   O10
    39     38     36     40      9     0.00   0.00000   0 ;    H19-    O9-   C11-   C12
    40     42     43     44      9     0.00   1.60387   3 ;    C12-   O10-   C13-   H21
    40     42     43     45      9     0.00   5.18816   2 ;    C12-   O10-   C13-   O11
    40     42     43     45      9   180.00   0.00000   3 ;    C12-   O10-   C13-   O11
    40     42     43     45      9   180.00   4.05848   1 ;    C12-   O10-   C13-   O11
    40     42     43     53      9     0.00   0.00000   0 ;    C12-   O10-   C13-   C16
    40     42     43     53      9     0.00   0.66944   2 ;    C12-   O10-   C13-   C16
    40     42     43     53      9     0.00   1.00416   3 ;    C12-   O10-   C13-   C16
    41     40     42     43      9     0.00   1.41001   3 ;    H20-   C12-   O10-   C13
    42     43     45     46      9     0.00   5.18816   2 ;    O10-   C13-   O11-   C14
    42     43     45     46      9   180.00   0.00000   3 ;    O10-   C13-   O11-   C14
    42     43     45     46      9   180.00   4.05848   1 ;    O10-   C13-   O11-   C14
    42     43     53     54      9     0.00   0.00000   0 ;    O10-   C13-   C16-   H26
    42     43     53     54      9     0.00   1.04600   1 ;    O10-   C13-   C16-   H26
    42     43     53     55      9     0.00   0.00000   0 ;    O10-   C13-   C16-   O13
    42     43     53     55      9     0.00   4.22584   3 ;    O10-   C13-   C16-   O13
    42     43     53     55      9   180.00   0.08368   1 ;    O10-   C13-   C16-   O13
    42     43     53     57      9     0.00   0.65084   3 ;    O10-   C13-   C16-   C17
    43     45     46     47      9     0.00   1.41001   3 ;    C13-   O11-   C14-   H22
    43     45     46     48      9     0.00   0.00000   0 ;    C13-   O11-   C14-   C15
    43     45     46     48      9     0.00   0.66944   2 ;    C13-   O11-   C14-   C15
    43     45     46     48      9     0.00   1.00416   3 ;    C13-   O11-   C14-   C15
    43     45     46     61      9     0.00   0.00000   0 ;    C13-   O11-   C14-   C18
    43     45     46     61      9     0.00   0.66944   2 ;    C13-   O11-   C14-   C18
    43     45     46     61      9     0.00   1.00416   3 ;    C13-   O11-   C14-   C18
    43     53     55     56      9     0.00   0.00000   0 ;    C13-   C16-   O13-   H27
    43     53     57     58      9     0.00   0.65084   3 ;    C13-   C16-   C17-   H28
    43     53     57     59      9     0.00   0.87864   3 ;    C13-   C16-   C17-   O14
    43     53     57     61      9     0.00   0.46024   1 ;    C13-   C16-   C17-   C18
    43     53     57     61      9     0.00   0.54392   3 ;    C13-   C16-   C17-   C18
    43     53     57     61      9   180.00   1.21336   2 ;    C13-   C16-   C17-   C18
    44     43     45     46      9     0.00   1.60387   3 ;    H21-   C13-   O11-   C14
    44     43     53     54      9     0.00   0.65084   3 ;    H21-   C13-   C16-   H26
    44     43     53     55      9     0.00   0.65084   3 ;    H21-   C13-   C16-   O13
    44     43     53     57      9     0.00   0.65084   3 ;    H21-   C13-   C16-   C17
    45     43     53     54      9     0.00   0.00000   0 ;    O11-   C13-   C16-   H26
    45     43     53     54      9     0.00   1.04600   1 ;    O11-   C13-   C16-   H26
    45     43     53     55      9     0.00   0.00000   0 ;    O11-   C13-   C16-   O13
    45     43     53     55      9     0.00   4.22584   3 ;    O11-   C13-   C16-   O13
    45     43     53     55      9   180.00   0.08368   1 ;    O11-   C13-   C16-   O13
    45     43     53     57      9     0.00   0.65084   3 ;    O11-   C13-   C16-   C17
    45     46     48     49      9     0.00   0.00000   0 ;    O11-   C14-   C15-   H23
    45     46     48     49      9     0.00   1.04600   1 ;    O11-   C14-   C15-   H23
    45     46     48     50      9     0.00   0.00000   0 ;    O11-   C14-   C15-   H24
    45     46     48     50      9     0.00   1.04600   1 ;    O11-   C14-   C15-   H24
    45     46     48     51      9     0.00   0.00000   0 ;    O11-   C14-   C15-   O12
    45     46     48     51      9     0.00   4.22584   3 ;    O11-   C14-   C15-   O12
    45     46     48     51      9   180.00   0.08368   1 ;    O11-   C14-   C15-   O12
    45     46     61     57      9     0.00   0.65084   3 ;    O11-   C14-   C18-   C17
    45     46     61     62      9     0.00   0.00000   0 ;    O11-   C14-   C18-   H30
    45     46     61     62      9     0.00   1.04600   1 ;    O11-   C14-   C18-   H30
    45     46     61     63      9     0.00   0.00000   0 ;    O11-   C14-   C18-   O15
    45     46     61     63      9   180.00   0.00000   2 ;    O11-   C14-   C18-   O15
    45     46     61     63      9   180.00   0.71128   1 ;    O11-   C14-   C18-   O15
    46     45     43     53      9     0.00   0.00000   0 ;    C14-   O11-   C13-   C16
    46     45     43     53      9     0.00   0.66944   2 ;    C14-   O11-   C13-   C16
    46     45     43     53      9     0.00   1.00416   3 ;    C14-   O11-   C13-   C16
    46     48     51     52      9     0.00   0.00000   0 ;    C14-   C15-   O12-   H25
    46     61     57     53      9     0.00   0.46024   1 ;    C14-   C18-   C17-   C16
    46     61     57     53      9     0.00   0.54392   3 ;    C14-   C18-   C17-   C16
    46     61     57     53      9   180.00   1.21336   2 ;    C14-   C18-   C17-   C16
    46     61     57     58      9     0.00   0.65084   3 ;    C14-   C18-   C17-   H28
    46     61     57     59      9     0.00   0.87864   3 ;    C14-   C18-   C17-   O14
    46     61     63     64      9     0.00   0.00000   0 ;    C14-   C18-   O15-   C19
    46     61     63     64      9     0.00   0.66944   2 ;    C14-   C18-   O15-   C19
    46     61     63     64      9     0.00   1.00416   3 ;    C14-   C18-   O15-   C19
    47     46     48     49      9     0.00   0.65084   3 ;    H22-   C14-   C15-   H23
    47     46     48     50      9     0.00   0.65084   3 ;    H22-   C14-   C15-   H24
    47     46     48     51      9     0.00   0.00000   0 ;    H22-   C14-   C15-   O12
    47     46     48     51      9     0.00   1.04600   1 ;    H22-   C14-   C15-   O12
    47     46     61     57      9     0.00   0.65084   3 ;    H22-   C14-   C18-   C17
    47     46     61     62      9     0.00   0.65084   3 ;    H22-   C14-   C18-   H30
    47     46     61     63      9     0.00   0.00000   0 ;    H22-   C14-   C18-   O15
    47     46     61     63      9     0.00   1.04600   1 ;    H22-   C14-   C18-   O15
    48     46     61     57      9     0.00   0.46024   1 ;    C15-   C14-   C18-   C17
    48     46     61     57      9     0.00   0.54392   3 ;    C15-   C14-   C18-   C17
    48     46     61     57      9   180.00   1.21336   2 ;    C15-   C14-   C18-   C17
    48     46     61     62      9     0.00   0.65084   3 ;    C15-   C14-   C18-   H30
    48     46     61     63      9     0.00   0.65084   3 ;    C15-   C14-   C18-   O15
    49     48     46     61      9     0.00   0.65084   3 ;    H23-   C15-   C14-   C18
    49     48     51     52      9     0.00   0.47279   3 ;    H23-   C15-   O12-   H25
    50     48     46     61      9     0.00   0.65084   3 ;    H24-   C15-   C14-   C18
    50     48     51     52      9     0.00   0.47279   3 ;    H24-   C15-   O12-   H25
    51     48     46     61      9     0.00   0.87864   3 ;    O12-   C15-   C14-   C18
    53     57     59     60      9     0.00   0.00000   0 ;    C16-   C17-   O14-   H29
    53     57     61     62      9     0.00   0.65084   3 ;    C16-   C17-   C18-   H30
    53     57     61     63      9     0.00   0.65084   3 ;    C16-   C17-   C18-   O15
    54     53     55     56      9     0.00   0.47279   3 ;    H26-   C16-   O13-   H27
    54     53     57     58      9     0.00   0.65084   3 ;    H26-   C16-   C17-   H28
    54     53     57     59      9     0.00   0.00000   0 ;    H26-   C16-   C17-   O14
    54     53     57     59      9     0.00   1.04600   1 ;    H26-   C16-   C17-   O14
    54     53     57     61      9     0.00   0.65084   3 ;    H26-   C16-   C17-   C18
    55     53     57     58      9     0.00   0.00000   0 ;    O13-   C16-   C17-   H28
    55     53     57     58      9     0.00   1.04600   1 ;    O13-   C16-   C17-   H28
    55     53     57     59      9     0.00   3.76560   3 ;    O13-   C16-   C17-   O14
    55     53     57     59      9     0.00   4.72792   2 ;    O13-   C16-   C17-   O14
    55     53     57     61      9     0.00   0.87864   3 ;    O13-   C16-   C17-   C18
    56     55     53     57      9     0.00   0.00000   0 ;    H27-   O13-   C16-   C17
    57     61     63     64      9     0.00   0.00000   0 ;    C17-   C18-   O15-   C19
    57     61     63     64      9     0.00   0.66944   2 ;    C17-   C18-   O15-   C19
    57     61     63     64      9     0.00   1.00416   3 ;    C17-   C18-   O15-   C19
    58     57     59     60      9     0.00   0.47279   3 ;    H28-   C17-   O14-   H29
    58     57     61     62      9     0.00   0.65084   3 ;    H28-   C17-   C18-   H30
    58     57     61     63      9     0.00   0.00000   0 ;    H28-   C17-   C18-   O15
    58     57     61     63      9     0.00   1.04600   1 ;    H28-   C17-   C18-   O15
    59     57     61     62      9     0.00   0.00000   0 ;    O14-   C17-   C18-   H30
    59     57     61     62      9     0.00   1.04600   1 ;    O14-   C17-   C18-   H30
    59     57     61     63      9     0.00   0.00000   0 ;    O14-   C17-   C18-   O15
    59     57     61     63      9     0.00   4.22584   3 ;    O14-   C17-   C18-   O15
    59     57     61     63      9   180.00   0.08368   1 ;    O14-   C17-   C18-   O15
    60     59     57     61      9     0.00   0.00000   0 ;    H29-   O14-   C17-   C18
    61     63     64     65      9     0.00   1.60387   3 ;    C18-   O15-   C19-   H31
    61     63     64     66      9     0.00   5.18816   2 ;    C18-   O15-   C19-   O16
    61     63     64     66      9   180.00   0.00000   3 ;    C18-   O15-   C19-   O16
    61     63     64     66      9   180.00   4.05848   1 ;    C18-   O15-   C19-   O16
    61     63     64     74      9     0.00   0.00000   0 ;    C18-   O15-   C19-   C22
    61     63     64     74      9     0.00   0.66944   2 ;    C18-   O15-   C19-   C22
    61     63     64     74      9     0.00   1.00416   3 ;    C18-   O15-   C19-   C22
    62     61     63     64      9     0.00   1.41001   3 ;    H30-   C18-   O15-   C19
    63     64     66     67      9     0.00   5.18816   2 ;    O15-   C19-   O16-   C20
    63     64     66     67      9   180.00   0.00000   3 ;    O15-   C19-   O16-   C20
    63     64     66     67      9   180.00   4.05848   1 ;    O15-   C19-   O16-   C20
    63     64     74     75      9     0.00   0.00000   0 ;    O15-   C19-   C22-   H36
    63     64     74     75      9     0.00   1.04600   1 ;    O15-   C19-   C22-   H36
    63     64     74     76      9     0.00   0.00000   0 ;    O15-   C19-   C22-   O18
    63     64     74     76      9     0.00   4.22584   3 ;    O15-   C19-   C22-   O18
    63     64     74     76      9   180.00   0.08368   1 ;    O15-   C19-   C22-   O18
    63     64     74     78      9     0.00   0.65084   3 ;    O15-   C19-   C22-   C23
    64     66     67     68      9     0.00   1.41001   3 ;    C19-   O16-   C20-   H32
    64     66     67     69      9     0.00   0.00000   0 ;    C19-   O16-   C20-   C21
    64     66     67     69      9     0.00   0.66944   2 ;    C19-   O16-   C20-   C21
    64     66     67     69      9     0.00   1.00416   3 ;    C19-   O16-   C20-   C21
    64     66     67     82      9     0.00   0.00000   0 ;    C19-   O16-   C20-   C24
    64     66     67     82      9     0.00   0.66944   2 ;    C19-   O16-   C20-   C24
    64     66     67     82      9     0.00   1.00416   3 ;    C19-   O16-   C20-   C24
    64     74     76     77      9     0.00   0.00000   0 ;    C19-   C22-   O18-   H37
    64     74     78     79      9     0.00   0.65084   3 ;    C19-   C22-   C23-   H38
    64     74     78     80      9     0.00   0.87864   3 ;    C19-   C22-   C23-   O19
    64     74     78     82      9     0.00   0.46024   1 ;    C19-   C22-   C23-   C24
    64     74     78     82      9     0.00   0.54392   3 ;    C19-   C22-   C23-   C24
    64     74     78     82      9   180.00   1.21336   2 ;    C19-   C22-   C23-   C24
    65     64     66     67      9     0.00   1.60387   3 ;    H31-   C19-   O16-   C20
    65     64     74     75      9     0.00   0.65084   3 ;    H31-   C19-   C22-   H36
    65     64     74     76      9     0.00   0.65084   3 ;    H31-   C19-   C22-   O18
    65     64     74     78      9     0.00   0.65084   3 ;    H31-   C19-   C22-   C23
    66     64     74     75      9     0.00   0.00000   0 ;    O16-   C19-   C22-   H36
    66     64     74     75      9     0.00   1.04600   1 ;    O16-   C19-   C22-   H36
    66     64     74     76      9     0.00   0.00000   0 ;    O16-   C19-   C22-   O18
    66     64     74     76      9     0.00   4.22584   3 ;    O16-   C19-   C22-   O18
    66     64     74     76      9   180.00   0.08368   1 ;    O16-   C19-   C22-   O18
    66     64     74     78      9     0.00   0.65084   3 ;    O16-   C19-   C22-   C23
    66     67     69     70      9     0.00   0.00000   0 ;    O16-   C20-   C21-   H33
    66     67     69     70      9     0.00   1.04600   1 ;    O16-   C20-   C21-   H33
    66     67     69     71      9     0.00   0.00000   0 ;    O16-   C20-   C21-   H34
    66     67     69     71      9     0.00   1.04600   1 ;    O16-   C20-   C21-   H34
    66     67     69     72      9     0.00   0.00000   0 ;    O16-   C20-   C21-   O17
    66     67     69     72      9     0.00   4.22584   3 ;    O16-   C20-   C21-   O17
    66     67     69     72      9   180.00   0.08368   1 ;    O16-   C20-   C21-   O17
    66     67     82     78      9     0.00   0.65084   3 ;    O16-   C20-   C24-   C23
    66     67     82     83      9     0.00   0.00000   0 ;    O16-   C20-   C24-   H40
    66     67     82     83      9     0.00   1.04600   1 ;    O16-   C20-   C24-   H40
    66     67     82     84      9     0.00   0.00000   0 ;    O16-   C20-   C24-   O20
    66     67     82     84      9   180.00   0.00000   2 ;    O16-   C20-   C24-   O20
    66     67     82     84      9   180.00   0.71128   1 ;    O16-   C20-   C24-   O20
    67     66     64     74      9     0.00   0.00000   0 ;    C20-   O16-   C19-   C22
    67     66     64     74      9     0.00   0.66944   2 ;    C20-   O16-   C19-   C22
    67     66     64     74      9     0.00   1.00416   3 ;    C20-   O16-   C19-   C22
    67     69     72     73      9     0.00   0.00000   0 ;    C20-   C21-   O17-   H35
    67     82     78     74      9     0.00   0.46024   1 ;    C20-   C24-   C23-   C22
    67     82     78     74      9     0.00   0.54392   3 ;    C20-   C24-   C23-   C22
    67     82     78     74      9   180.00   1.21336   2 ;    C20-   C24-   C23-   C22
    67     82     78     79      9     0.00   0.65084   3 ;    C20-   C24-   C23-   H38
    67     82     78     80      9     0.00   0.87864   3 ;    C20-   C24-   C23-   O19
    67     82     84     85      9     0.00   0.00000   0 ;    C20-   C24-   O20-   C25
    67     82     84     85      9     0.00   0.66944   2 ;    C20-   C24-   O20-   C25
    67     82     84     85      9     0.00   1.00416   3 ;    C20-   C24-   O20-   C25
    68     67     69     70      9     0.00   0.65084   3 ;    H32-   C20-   C21-   H33
    68     67     69     71      9     0.00   0.65084   3 ;    H32-   C20-   C21-   H34
    68     67     69     72      9     0.00   0.00000   0 ;    H32-   C20-   C21-   O17
    68     67     69     72      9     0.00   1.04600   1 ;    H32-   C20-   C21-   O17
    68     67     82     78      9     0.00   0.65084   3 ;    H32-   C20-   C24-   C23
    68     67     82     83      9     0.00   0.65084   3 ;    H32-   C20-   C24-   H40
    68     67     82     84      9     0.00   0.00000   0 ;    H32-   C20-   C24-   O20
    68     67     82     84      9     0.00   1.04600   1 ;    H32-   C20-   C24-   O20
    69     67     82     78      9     0.00   0.46024   1 ;    C21-   C20-   C24-   C23
    69     67     82     78      9     0.00   0.54392   3 ;    C21-   C20-   C24-   C23
    69     67     82     78      9   180.00   1.21336   2 ;    C21-   C20-   C24-   C23
    69     67     82     83      9     0.00   0.65084   3 ;    C21-   C20-   C24-   H40
    69     67     82     84      9     0.00   0.65084   3 ;    C21-   C20-   C24-   O20
    70     69     67     82      9     0.00   0.65084   3 ;    H33-   C21-   C20-   C24
    70     69     72     73      9     0.00   0.47279   3 ;    H33-   C21-   O17-   H35
    71     69     67     82      9     0.00   0.65084   3 ;    H34-   C21-   C20-   C24
    71     69     72     73      9     0.00   0.47279   3 ;    H34-   C21-   O17-   H35
    72     69     67     82      9     0.00   0.87864   3 ;    O17-   C21-   C20-   C24
    74     78     80     81      9     0.00   0.00000   0 ;    C22-   C23-   O19-   H39
    74     78     82     83      9     0.00   0.65084   3 ;    C22-   C23-   C24-   H40
    74     78     82     84      9     0.00   0.65084   3 ;    C22-   C23-   C24-   O20
    75     74     76     77      9     0.00   0.47279   3 ;    H36-   C22-   O18-   H37
    75     74     78     79      9     0.00   0.65084   3 ;    H36-   C22-   C23-   H38
    75     74     78     80      9     0.00   0.00000   0 ;    H36-   C22-   C23-   O19
    75     74     78     80      9     0.00   1.04600   1 ;    H36-   C22-   C23-   O19
    75     74     78     82      9     0.00   0.65084   3 ;    H36-   C22-   C23-   C24
    76     74     78     79      9     0.00   0.00000   0 ;    O18-   C22-   C23-   H38
    76     74     78     79      9     0.00   1.04600   1 ;    O18-   C22-   C23-   H38
    76     74     78     80      9     0.00   3.76560   3 ;    O18-   C22-   C23-   O19
    76     74     78     80      9     0.00   4.72792   2 ;    O18-   C22-   C23-   O19
    76     74     78     82      9     0.00   0.87864   3 ;    O18-   C22-   C23-   C24
    77     76     74     78      9     0.00   0.00000   0 ;    H37-   O18-   C22-   C23
    78     82     84     85      9     0.00   0.00000   0 ;    C23-   C24-   O20-   C25
    78     82     84     85      9     0.00   0.66944   2 ;    C23-   C24-   O20-   C25
    78     82     84     85      9     0.00   1.00416   3 ;    C23-   C24-   O20-   C25
    79     78     80     81      9     0.00   0.47279   3 ;    H38-   C23-   O19-   H39
    79     78     82     83      9     0.00   0.65084   3 ;    H38-   C23-   C24-   H40
    79     78     82     84      9     0.00   0.00000   0 ;    H38-   C23-   C24-   O20
    79     78     82     84      9     0.00   1.04600   1 ;    H38-   C23-   C24-   O20
    80     78     82     83      9     0.00   0.00000   0 ;    O19-   C23-   C24-   H40
    80     78     82     83      9     0.00   1.04600   1 ;    O19-   C23-   C24-   H40
    80     78     82     84      9     0.00   0.00000   0 ;    O19-   C23-   C24-   O20
    80     78     82     84      9     0.00   4.22584   3 ;    O19-   C23-   C24-   O20
    80     78     82     84      9   180.00   0.08368   1 ;    O19-   C23-   C24-   O20
    81     80     78     82      9     0.00   0.00000   0 ;    H39-   O19-   C23-   C24
    82     84     85     86      9     0.00   1.60387   3 ;    C24-   O20-   C25-   H41
    82     84     85     87      9     0.00   5.18816   2 ;    C24-   O20-   C25-   O21
    82     84     85     87      9   180.00   0.00000   3 ;    C24-   O20-   C25-   O21
    82     84     85     87      9   180.00   4.05848   1 ;    C24-   O20-   C25-   O21
    82     84     85     95      9     0.00   0.00000   0 ;    C24-   O20-   C25-   C28
    82     84     85     95      9     0.00   0.66944   2 ;    C24-   O20-   C25-   C28
    82     84     85     95      9     0.00   1.00416   3 ;    C24-   O20-   C25-   C28
    83     82     84     85      9     0.00   1.41001   3 ;    H40-   C24-   O20-   C25
    84     85     87     88      9     0.00   5.18816   2 ;    O20-   C25-   O21-   C26
    84     85     87     88      9   180.00   0.00000   3 ;    O20-   C25-   O21-   C26
    84     85     87     88      9   180.00   4.05848   1 ;    O20-   C25-   O21-   C26
    84     85     95     96      9     0.00   0.00000   0 ;    O20-   C25-   C28-   H46
    84     85     95     96      9     0.00   1.04600   1 ;    O20-   C25-   C28-   H46
    84     85     95     97      9     0.00   0.00000   0 ;    O20-   C25-   C28-   O23
    84     85     95     97      9     0.00   4.22584   3 ;    O20-   C25-   C28-   O23
    84     85     95     97      9   180.00   0.08368   1 ;    O20-   C25-   C28-   O23
    84     85     95     99      9     0.00   0.65084   3 ;    O20-   C25-   C28-   C29
    85     87     88     89      9     0.00   1.41001   3 ;    C25-   O21-   C26-   H42
    85     87     88     90      9     0.00   0.00000   0 ;    C25-   O21-   C26-   C27
    85     87     88     90      9     0.00   0.66944   2 ;    C25-   O21-   C26-   C27
    85     87     88     90      9     0.00   1.00416   3 ;    C25-   O21-   C26-   C27
    85     87     88    103      9     0.00   0.00000   0 ;    C25-   O21-   C26-   C30
    85     87     88    103      9     0.00   0.66944   2 ;    C25-   O21-   C26-   C30
    85     87     88    103      9     0.00   1.00416   3 ;    C25-   O21-   C26-   C30
    85     95     97     98      9     0.00   0.00000   0 ;    C25-   C28-   O23-   H47
    85     95     99    100      9     0.00   0.65084   3 ;    C25-   C28-   C29-   H48
    85     95     99    101      9     0.00   0.87864   3 ;    C25-   C28-   C29-   O24
    85     95     99    103      9     0.00   0.46024   1 ;    C25-   C28-   C29-   C30
    85     95     99    103      9     0.00   0.54392   3 ;    C25-   C28-   C29-   C30
    85     95     99    103      9   180.00   1.21336   2 ;    C25-   C28-   C29-   C30
    86     85     87     88      9     0.00   1.60387   3 ;    H41-   C25-   O21-   C26
    86     85     95     96      9     0.00   0.65084   3 ;    H41-   C25-   C28-   H46
    86     85     95     97      9     0.00   0.65084   3 ;    H41-   C25-   C28-   O23
    86     85     95     99      9     0.00   0.65084   3 ;    H41-   C25-   C28-   C29
    87     85     95     96      9     0.00   0.00000   0 ;    O21-   C25-   C28-   H46
    87     85     95     96      9     0.00   1.04600   1 ;    O21-   C25-   C28-   H46
    87     85     95     97      9     0.00   0.00000   0 ;    O21-   C25-   C28-   O23
    87     85     95     97      9     0.00   4.22584   3 ;    O21-   C25-   C28-   O23
    87     85     95     97      9   180.00   0.08368   1 ;    O21-   C25-   C28-   O23
    87     85     95     99      9     0.00   0.65084   3 ;    O21-   C25-   C28-   C29
    87     88     90     91      9     0.00   0.00000   0 ;    O21-   C26-   C27-   H43
    87     88     90     91      9     0.00   1.04600   1 ;    O21-   C26-   C27-   H43
    87     88     90     92      9     0.00   0.00000   0 ;    O21-   C26-   C27-   H44
    87     88     90     92      9     0.00   1.04600   1 ;    O21-   C26-   C27-   H44
    87     88     90     93      9     0.00   0.00000   0 ;    O21-   C26-   C27-   O22
    87     88     90     93      9     0.00   4.22584   3 ;    O21-   C26-   C27-   O22
    87     88     90     93      9   180.00   0.08368   1 ;    O21-   C26-   C27-   O22
    87     88    103     99      9     0.00   0.65084   3 ;    O21-   C26-   C30-   C29
    87     88    103    104      9     0.00   0.00000   0 ;    O21-   C26-   C30-   H50
    87     88    103    104      9     0.00   1.04600   1 ;    O21-   C26-   C30-   H50
    87     88    103    105      9     0.00   0.00000   0 ;    O21-   C26-   C30-   O25
    87     88    103    105      9   180.00   0.00000   2 ;    O21-   C26-   C30-   O25
    87     88    103    105      9   180.00   0.71128   1 ;    O21-   C26-   C30-   O25
    88     87     85     95      9     0.00   0.00000   0 ;    C26-   O21-   C25-   C28
    88     87     85     95      9     0.00   0.66944   2 ;    C26-   O21-   C25-   C28
    88     87     85     95      9     0.00   1.00416   3 ;    C26-   O21-   C25-   C28
    88     90     93     94      9     0.00   0.00000   0 ;    C26-   C27-   O22-   H45
    88    103     99     95      9     0.00   0.46024   1 ;    C26-   C30-   C29-   C28
    88    103     99     95      9     0.00   0.54392   3 ;    C26-   C30-   C29-   C28
    88    103     99     95      9   180.00   1.21336   2 ;    C26-   C30-   C29-   C28
    88    103     99    100      9     0.00   0.65084   3 ;    C26-   C30-   C29-   H48
    88    103     99    101      9     0.00   0.87864   3 ;    C26-   C30-   C29-   O24
    88    103    105    106      9     0.00   0.00000   0 ;    C26-   C30-   O25-   C31
    88    103    105    106      9     0.00   0.66944   2 ;    C26-   C30-   O25-   C31
    88    103    105    106      9     0.00   1.00416   3 ;    C26-   C30-   O25-   C31
    89     88     90     91      9     0.00   0.65084   3 ;    H42-   C26-   C27-   H43
    89     88     90     92      9     0.00   0.65084   3 ;    H42-   C26-   C27-   H44
    89     88     90     93      9     0.00   0.00000   0 ;    H42-   C26-   C27-   O22
    89     88     90     93      9     0.00   1.04600   1 ;    H42-   C26-   C27-   O22
    89     88    103     99      9     0.00   0.65084   3 ;    H42-   C26-   C30-   C29
    89     88    103    104      9     0.00   0.65084   3 ;    H42-   C26-   C30-   H50
    89     88    103    105      9     0.00   0.00000   0 ;    H42-   C26-   C30-   O25
    89     88    103    105      9     0.00   1.04600   1 ;    H42-   C26-   C30-   O25
    90     88    103     99      9     0.00   0.46024   1 ;    C27-   C26-   C30-   C29
    90     88    103     99      9     0.00   0.54392   3 ;    C27-   C26-   C30-   C29
    90     88    103     99      9   180.00   1.21336   2 ;    C27-   C26-   C30-   C29
    90     88    103    104      9     0.00   0.65084   3 ;    C27-   C26-   C30-   H50
    90     88    103    105      9     0.00   0.65084   3 ;    C27-   C26-   C30-   O25
    91     90     88    103      9     0.00   0.65084   3 ;    H43-   C27-   C26-   C30
    91     90     93     94      9     0.00   0.47279   3 ;    H43-   C27-   O22-   H45
    92     90     88    103      9     0.00   0.65084   3 ;    H44-   C27-   C26-   C30
    92     90     93     94      9     0.00   0.47279   3 ;    H44-   C27-   O22-   H45
    93     90     88    103      9     0.00   0.87864   3 ;    O22-   C27-   C26-   C30
    95     99    101    102      9     0.00   0.00000   0 ;    C28-   C29-   O24-   H49
    95     99    103    104      9     0.00   0.65084   3 ;    C28-   C29-   C30-   H50
    95     99    103    105      9     0.00   0.65084   3 ;    C28-   C29-   C30-   O25
    96     95     97     98      9     0.00   0.47279   3 ;    H46-   C28-   O23-   H47
    96     95     99    100      9     0.00   0.65084   3 ;    H46-   C28-   C29-   H48
    96     95     99    101      9     0.00   0.00000   0 ;    H46-   C28-   C29-   O24
    96     95     99    101      9     0.00   1.04600   1 ;    H46-   C28-   C29-   O24
    96     95     99    103      9     0.00   0.65084   3 ;    H46-   C28-   C29-   C30
    97     95     99    100      9     0.00   0.00000   0 ;    O23-   C28-   C29-   H48
    97     95     99    100      9     0.00   1.04600   1 ;    O23-   C28-   C29-   H48
    97     95     99    101      9     0.00   3.76560   3 ;    O23-   C28-   C29-   O24
    97     95     99    101      9     0.00   4.72792   2 ;    O23-   C28-   C29-   O24
    97     95     99    103      9     0.00   0.87864   3 ;    O23-   C28-   C29-   C30
    98     97     95     99      9     0.00   0.00000   0 ;    H47-   O23-   C28-   C29
    99    103    105    106      9     0.00   0.00000   0 ;    C29-   C30-   O25-   C31
    99    103    105    106      9     0.00   0.66944   2 ;    C29-   C30-   O25-   C31
    99    103    105    106      9     0.00   1.00416   3 ;    C29-   C30-   O25-   C31
   100     99    101    102      9     0.00   0.47279   3 ;    H48-   C29-   O24-   H49
   100     99    103    104      9     0.00   0.65084   3 ;    H48-   C29-   C30-   H50
   100     99    103    105      9     0.00   0.00000   0 ;    H48-   C29-   C30-   O25
   100     99    103    105      9     0.00   1.04600   1 ;    H48-   C29-   C30-   O25
   101     99    103    104      9     0.00   0.00000   0 ;    O24-   C29-   C30-   H50
   101     99    103    104      9     0.00   1.04600   1 ;    O24-   C29-   C30-   H50
   101     99    103    105      9     0.00   0.00000   0 ;    O24-   C29-   C30-   O25
   101     99    103    105      9     0.00   4.22584   3 ;    O24-   C29-   C30-   O25
   101     99    103    105      9   180.00   0.08368   1 ;    O24-   C29-   C30-   O25
   102    101     99    103      9     0.00   0.00000   0 ;    H49-   O24-   C29-   C30
   103    105    106    107      9     0.00   1.60387   3 ;    C30-   O25-   C31-   H51
   103    105    106    108      9     0.00   5.18816   2 ;    C30-   O25-   C31-   O26
   103    105    106    108      9   180.00   0.00000   3 ;    C30-   O25-   C31-   O26
   103    105    106    108      9   180.00   4.05848   1 ;    C30-   O25-   C31-   O26
   103    105    106    116      9     0.00   0.00000   0 ;    C30-   O25-   C31-   C34
   103    105    106    116      9     0.00   0.66944   2 ;    C30-   O25-   C31-   C34
   103    105    106    116      9     0.00   1.00416   3 ;    C30-   O25-   C31-   C34
   104    103    105    106      9     0.00   1.41001   3 ;    H50-   C30-   O25-   C31
   105    106    108    109      9     0.00   5.18816   2 ;    O25-   C31-   O26-   C32
   105    106    108    109      9   180.00   0.00000   3 ;    O25-   C31-   O26-   C32
   105    106    108    109      9   180.00   4.05848   1 ;    O25-   C31-   O26-   C32
   105    106    116    117      9     0.00   0.00000   0 ;    O25-   C31-   C34-   H56
   105    106    116    117      9     0.00   1.04600   1 ;    O25-   C31-   C34-   H56
   105    106    116    118      9     0.00   0.00000   0 ;    O25-   C31-   C34-   O28
   105    106    116    118      9     0.00   4.22584   3 ;    O25-   C31-   C34-   O28
   105    106    116    118      9   180.00   0.08368   1 ;    O25-   C31-   C34-   O28
   105    106    116    120      9     0.00   0.65084   3 ;    O25-   C31-   C34-   C35
   106    108    109    110      9     0.00   1.41001   3 ;    C31-   O26-   C32-   H52
   106    108    109    111      9     0.00   0.00000   0 ;    C31-   O26-   C32-   C33
   106    108    109    111      9     0.00   0.66944   2 ;    C31-   O26-   C32-   C33
   106    108    109    111      9     0.00   1.00416   3 ;    C31-   O26-   C32-   C33
   106    108    109    124      9     0.00   0.00000   0 ;    C31-   O26-   C32-   C36
   106    108    109    124      9     0.00   0.66944   2 ;    C31-   O26-   C32-   C36
   106    108    109    124      9     0.00   1.00416   3 ;    C31-   O26-   C32-   C36
   106    116    118    119      9     0.00   0.00000   0 ;    C31-   C34-   O28-   H57
   106    116    120    121      9     0.00   0.65084   3 ;    C31-   C34-   C35-   H58
   106    116    120    122      9     0.00   0.87864   3 ;    C31-   C34-   C35-   O29
   106    116    120    124      9     0.00   0.46024   1 ;    C31-   C34-   C35-   C36
   106    116    120    124      9     0.00   0.54392   3 ;    C31-   C34-   C35-   C36
   106    116    120    124      9   180.00   1.21336   2 ;    C31-   C34-   C35-   C36
   107    106    108    109      9     0.00   1.60387   3 ;    H51-   C31-   O26-   C32
   107    106    116    117      9     0.00   0.65084   3 ;    H51-   C31-   C34-   H56
   107    106    116    118      9     0.00   0.65084   3 ;    H51-   C31-   C34-   O28
   107    106    116    120      9     0.00   0.65084   3 ;    H51-   C31-   C34-   C35
   108    106    116    117      9     0.00   0.00000   0 ;    O26-   C31-   C34-   H56
   108    106    116    117      9     0.00   1.04600   1 ;    O26-   C31-   C34-   H56
   108    106    116    118      9     0.00   0.00000   0 ;    O26-   C31-   C34-   O28
   108    106    116    118      9     0.00   4.22584   3 ;    O26-   C31-   C34-   O28
   108    106    116    118      9   180.00   0.08368   1 ;    O26-   C31-   C34-   O28
   108    106    116    120      9     0.00   0.65084   3 ;    O26-   C31-   C34-   C35
   108    109    111    112      9     0.00   0.00000   0 ;    O26-   C32-   C33-   H53
   108    109    111    112      9     0.00   1.04600   1 ;    O26-   C32-   C33-   H53
   108    109    111    113      9     0.00   0.00000   0 ;    O26-   C32-   C33-   H54
   108    109    111    113      9     0.00   1.04600   1 ;    O26-   C32-   C33-   H54
   108    109    111    114      9     0.00   0.00000   0 ;    O26-   C32-   C33-   O27
   108    109    111    114      9     0.00   4.22584   3 ;    O26-   C32-   C33-   O27
   108    109    111    114      9   180.00   0.08368   1 ;    O26-   C32-   C33-   O27
   108    109    124    120      9     0.00   0.65084   3 ;    O26-   C32-   C36-   C35
   108    109    124    125      9     0.00   0.00000   0 ;    O26-   C32-   C36-   H60
   108    109    124    125      9     0.00   1.04600   1 ;    O26-   C32-   C36-   H60
   108    109    124    126      9     0.00   0.00000   0 ;    O26-   C32-   C36-   O30
   108    109    124    126      9   180.00   0.00000   2 ;    O26-   C32-   C36-   O30
   108    109    124    126      9   180.00   0.71128   1 ;    O26-   C32-   C36-   O30
   109    108    106    116      9     0.00   0.00000   0 ;    C32-   O26-   C31-   C34
   109    108    106    116      9     0.00   0.66944   2 ;    C32-   O26-   C31-   C34
   109    108    106    116      9     0.00   1.00416   3 ;    C32-   O26-   C31-   C34
   109    111    114    115      9     0.00   0.00000   0 ;    C32-   C33-   O27-   H55
   109    124    120    116      9     0.00   0.46024   1 ;    C32-   C36-   C35-   C34
   109    124    120    116      9     0.00   0.54392   3 ;    C32-   C36-   C35-   C34
   109    124    120    116      9   180.00   1.21336   2 ;    C32-   C36-   C35-   C34
   109    124    120    121      9     0.00   0.65084   3 ;    C32-   C36-   C35-   H58
   109    124    120    122      9     0.00   0.87864   3 ;    C32-   C36-   C35-   O29
   109    124    126    127      9     0.00   0.00000   0 ;    C32-   C36-   O30-   C37
   109    124    126    127      9     0.00   0.66944   2 ;    C32-   C36-   O30-   C37
   109    124    126    127      9     0.00   1.00416   3 ;    C32-   C36-   O30-   C37
   110    109    111    112      9     0.00   0.65084   3 ;    H52-   C32-   C33-   H53
   110    109    111    113      9     0.00   0.65084   3 ;    H52-   C32-   C33-   H54
   110    109    111    114      9     0.00   0.00000   0 ;    H52-   C32-   C33-   O27
   110    109    111    114      9     0.00   1.04600   1 ;    H52-   C32-   C33-   O27
   110    109    124    120      9     0.00   0.65084   3 ;    H52-   C32-   C36-   C35
   110    109    124    125      9     0.00   0.65084   3 ;    H52-   C32-   C36-   H60
   110    109    124    126      9     0.00   0.00000   0 ;    H52-   C32-   C36-   O30
   110    109    124    126      9     0.00   1.04600   1 ;    H52-   C32-   C36-   O30
   111    109    124    120      9     0.00   0.46024   1 ;    C33-   C32-   C36-   C35
   111    109    124    120      9     0.00   0.54392   3 ;    C33-   C32-   C36-   C35
   111    109    124    120      9   180.00   1.21336   2 ;    C33-   C32-   C36-   C35
   111    109    124    125      9     0.00   0.65084   3 ;    C33-   C32-   C36-   H60
   111    109    124    126      9     0.00   0.65084   3 ;    C33-   C32-   C36-   O30
   112    111    109    124      9     0.00   0.65084   3 ;    H53-   C33-   C32-   C36
   112    111    114    115      9     0.00   0.47279   3 ;    H53-   C33-   O27-   H55
   113    111    109    124      9     0.00   0.65084   3 ;    H54-   C33-   C32-   C36
   113    111    114    115      9     0.00   0.47279   3 ;    H54-   C33-   O27-   H55
   114    111    109    124      9     0.00   0.87864   3 ;    O27-   C33-   C32-   C36
   116    120    122    123      9     0.00   0.00000   0 ;    C34-   C35-   O29-   H59
   116    120    124    125      9     0.00   0.65084   3 ;    C34-   C35-   C36-   H60
   116    120    124    126      9     0.00   0.65084   3 ;    C34-   C35-   C36-   O30
   117    116    118    119      9     0.00   0.47279   3 ;    H56-   C34-   O28-   H57
   117    116    120    121      9     0.00   0.65084   3 ;    H56-   C34-   C35-   H58
   117    116    120    122      9     0.00   0.00000   0 ;    H56-   C34-   C35-   O29
   117    116    120    122      9     0.00   1.04600   1 ;    H56-   C34-   C35-   O29
   117    116    120    124      9     0.00   0.65084   3 ;    H56-   C34-   C35-   C36
   118    116    120    121      9     0.00   0.00000   0 ;    O28-   C34-   C35-   H58
   118    116    120    121      9     0.00   1.04600   1 ;    O28-   C34-   C35-   H58
   118    116    120    122      9     0.00   3.76560   3 ;    O28-   C34-   C35-   O29
   118    116    120    122      9     0.00   4.72792   2 ;    O28-   C34-   C35-   O29
   118    116    120    124      9     0.00   0.87864   3 ;    O28-   C34-   C35-   C36
   119    118    116    120      9     0.00   0.00000   0 ;    H57-   O28-   C34-   C35
   120    124    126    127      9     0.00   0.00000   0 ;    C35-   C36-   O30-   C37
   120    124    126    127      9     0.00   0.66944   2 ;    C35-   C36-   O30-   C37
   120    124    126    127      9     0.00   1.00416   3 ;    C35-   C36-   O30-   C37
   121    120    122    123      9     0.00   0.47279   3 ;    H58-   C35-   O29-   H59
   121    120    124    125      9     0.00   0.65084   3 ;    H58-   C35-   C36-   H60
   121    120    124    126      9     0.00   0.00000   0 ;    H58-   C35-   C36-   O30
   121    120    124    126      9     0.00   1.04600   1 ;    H58-   C35-   C36-   O30
   122    120    124    125      9     0.00   0.00000   0 ;    O29-   C35-   C36-   H60
   122    120    124    125      9     0.00   1.04600   1 ;    O29-   C35-   C36-   H60
   122    120    124    126      9     0.00   0.00000   0 ;    O29-   C35-   C36-   O30
   122    120    124    126      9     0.00   4.22584   3 ;    O29-   C35-   C36-   O30
   122    120    124    126      9   180.00   0.08368   1 ;    O29-   C35-   C36-   O30
   123    122    120    124      9     0.00   0.00000   0 ;    H59-   O29-   C35-   C36
   124    126    127    128      9     0.00   1.60387   3 ;    C36-   O30-   C37-   H61
   124    126    127    129      9     0.00   5.18816   2 ;    C36-   O30-   C37-   O31
   124    126    127    129      9   180.00   0.00000   3 ;    C36-   O30-   C37-   O31
   124    126    127    129      9   180.00   4.05848   1 ;    C36-   O30-   C37-   O31
   124    126    127    137      9     0.00   0.00000   0 ;    C36-   O30-   C37-   C40
   124    126    127    137      9     0.00   0.66944   2 ;    C36-   O30-   C37-   C40
   124    126    127    137      9     0.00   1.00416   3 ;    C36-   O30-   C37-   C40
   125    124    126    127      9     0.00   1.41001   3 ;    H60-   C36-   O30-   C37
   126    127    129    130      9     0.00   5.18816   2 ;    O30-   C37-   O31-   C38
   126    127    129    130      9   180.00   0.00000   3 ;    O30-   C37-   O31-   C38
   126    127    129    130      9   180.00   4.05848   1 ;    O30-   C37-   O31-   C38
   126    127    137    138      9     0.00   0.00000   0 ;    O30-   C37-   C40-   H66
   126    127    137    138      9     0.00   1.04600   1 ;    O30-   C37-   C40-   H66
   126    127    137    139      9     0.00   0.00000   0 ;    O30-   C37-   C40-   O33
   126    127    137    139      9     0.00   4.22584   3 ;    O30-   C37-   C40-   O33
   126    127    137    139      9   180.00   0.08368   1 ;    O30-   C37-   C40-   O33
   126    127    137    141      9     0.00   0.65084   3 ;    O30-   C37-   C40-   C41
   127    129    130    131      9     0.00   1.41001   3 ;    C37-   O31-   C38-   H62
   127    129    130    132      9     0.00   0.00000   0 ;    C37-   O31-   C38-   C39
   127    129    130    132      9     0.00   0.66944   2 ;    C37-   O31-   C38-   C39
   127    129    130    132      9     0.00   1.00416   3 ;    C37-   O31-   C38-   C39
   127    129    130    145      9     0.00   0.00000   0 ;    C37-   O31-   C38-   C42
   127    129    130    145      9     0.00   0.66944   2 ;    C37-   O31-   C38-   C42
   127    129    130    145      9     0.00   1.00416   3 ;    C37-   O31-   C38-   C42
   127    137    139    140      9     0.00   0.00000   0 ;    C37-   C40-   O33-   H67
   127    137    141    142      9     0.00   0.65084   3 ;    C37-   C40-   C41-   H68
   127    137    141    143      9     0.00   0.87864   3 ;    C37-   C40-   C41-   O34
   127    137    141    145      9     0.00   0.46024   1 ;    C37-   C40-   C41-   C42
   127    137    141    145      9     0.00   0.54392   3 ;    C37-   C40-   C41-   C42
   127    137    141    145      9   180.00   1.21336   2 ;    C37-   C40-   C41-   C42
   128    127    129    130      9     0.00   1.60387   3 ;    H61-   C37-   O31-   C38
   128    127    137    138      9     0.00   0.65084   3 ;    H61-   C37-   C40-   H66
   128    127    137    139      9     0.00   0.65084   3 ;    H61-   C37-   C40-   O33
   128    127    137    141      9     0.00   0.65084   3 ;    H61-   C37-   C40-   C41
   129    127    137    138      9     0.00   0.00000   0 ;    O31-   C37-   C40-   H66
   129    127    137    138      9     0.00   1.04600   1 ;    O31-   C37-   C40-   H66
   129    127    137    139      9     0.00   0.00000   0 ;    O31-   C37-   C40-   O33
   129    127    137    139      9     0.00   4.22584   3 ;    O31-   C37-   C40-   O33
   129    127    137    139      9   180.00   0.08368   1 ;    O31-   C37-   C40-   O33
   129    127    137    141      9     0.00   0.65084   3 ;    O31-   C37-   C40-   C41
   129    130    132    133      9     0.00   0.00000   0 ;    O31-   C38-   C39-   H63
   129    130    132    133      9     0.00   1.04600   1 ;    O31-   C38-   C39-   H63
   129    130    132    134      9     0.00   0.00000   0 ;    O31-   C38-   C39-   H64
   129    130    132    134      9     0.00   1.04600   1 ;    O31-   C38-   C39-   H64
   129    130    132    135      9     0.00   0.00000   0 ;    O31-   C38-   C39-   O32
   129    130    132    135      9     0.00   4.22584   3 ;    O31-   C38-   C39-   O32
   129    130    132    135      9   180.00   0.08368   1 ;    O31-   C38-   C39-   O32
   129    130    145    141      9     0.00   0.65084   3 ;    O31-   C38-   C42-   C41
   129    130    145    146      9     0.00   0.00000   0 ;    O31-   C38-   C42-   H70
   129    130    145    146      9     0.00   1.04600   1 ;    O31-   C38-   C42-   H70
   129    130    145    147      9     0.00   0.00000   0 ;    O31-   C38-   C42-   O35
   129    130    145    147      9   180.00   0.00000   2 ;    O31-   C38-   C42-   O35
   129    130    145    147      9   180.00   0.71128   1 ;    O31-   C38-   C42-   O35
   130    129    127    137      9     0.00   0.00000   0 ;    C38-   O31-   C37-   C40
   130    129    127    137      9     0.00   0.66944   2 ;    C38-   O31-   C37-   C40
   130    129    127    137      9     0.00   1.00416   3 ;    C38-   O31-   C37-   C40
   130    132    135    136      9     0.00   0.00000   0 ;    C38-   C39-   O32-   H65
   130    145    141    137      9     0.00   0.46024   1 ;    C38-   C42-   C41-   C40
   130    145    141    137      9     0.00   0.54392   3 ;    C38-   C42-   C41-   C40
   130    145    141    137      9   180.00   1.21336   2 ;    C38-   C42-   C41-   C40
   130    145    141    142      9     0.00   0.65084   3 ;    C38-   C42-   C41-   H68
   130    145    141    143      9     0.00   0.87864   3 ;    C38-   C42-   C41-   O34
   130    145    147    148      9     0.00   0.00000   0 ;    C38-   C42-   O35-   C43
   130    145    147    148      9     0.00   0.66944   2 ;    C38-   C42-   O35-   C43
   130    145    147    148      9     0.00   1.00416   3 ;    C38-   C42-   O35-   C43
   131    130    132    133      9     0.00   0.65084   3 ;    H62-   C38-   C39-   H63
   131    130    132    134      9     0.00   0.65084   3 ;    H62-   C38-   C39-   H64
   131    130    132    135      9     0.00   0.00000   0 ;    H62-   C38-   C39-   O32
   131    130    132    135      9     0.00   1.04600   1 ;    H62-   C38-   C39-   O32
   131    130    145    141      9     0.00   0.65084   3 ;    H62-   C38-   C42-   C41
   131    130    145    146      9     0.00   0.65084   3 ;    H62-   C38-   C42-   H70
   131    130    145    147      9     0.00   0.00000   0 ;    H62-   C38-   C42-   O35
   131    130    145    147      9     0.00   1.04600   1 ;    H62-   C38-   C42-   O35
   132    130    145    141      9     0.00   0.46024   1 ;    C39-   C38-   C42-   C41
   132    130    145    141      9     0.00   0.54392   3 ;    C39-   C38-   C42-   C41
   132    130    145    141      9   180.00   1.21336   2 ;    C39-   C38-   C42-   C41
   132    130    145    146      9     0.00   0.65084   3 ;    C39-   C38-   C42-   H70
   132    130    145    147      9     0.00   0.65084   3 ;    C39-   C38-   C42-   O35
   133    132    130    145      9     0.00   0.65084   3 ;    H63-   C39-   C38-   C42
   133    132    135    136      9     0.00   0.47279   3 ;    H63-   C39-   O32-   H65
   134    132    130    145      9     0.00   0.65084   3 ;    H64-   C39-   C38-   C42
   134    132    135    136      9     0.00   0.47279   3 ;    H64-   C39-   O32-   H65
   135    132    130    145      9     0.00   0.87864   3 ;    O32-   C39-   C38-   C42
   137    141    143    144      9     0.00   0.00000   0 ;    C40-   C41-   O34-   H69
   137    141    145    146      9     0.00   0.65084   3 ;    C40-   C41-   C42-   H70
   137    141    145    147      9     0.00   0.65084   3 ;    C40-   C41-   C42-   O35
   138    137    139    140      9     0.00   0.47279   3 ;    H66-   C40-   O33-   H67
   138    137    141    142      9     0.00   0.65084   3 ;    H66-   C40-   C41-   H68
   138    137    141    143      9     0.00   0.00000   0 ;    H66-   C40-   C41-   O34
   138    137    141    143      9     0.00   1.04600   1 ;    H66-   C40-   C41-   O34
   138    137    141    145      9     0.00   0.65084   3 ;    H66-   C40-   C41-   C42
   139    137    141    142      9     0.00   0.00000   0 ;    O33-   C40-   C41-   H68
   139    137    141    142      9     0.00   1.04600   1 ;    O33-   C40-   C41-   H68
   139    137    141    143      9     0.00   3.76560   3 ;    O33-   C40-   C41-   O34
   139    137    141    143      9     0.00   4.72792   2 ;    O33-   C40-   C41-   O34
   139    137    141    145      9     0.00   0.87864   3 ;    O33-   C40-   C41-   C42
   140    139    137    141      9     0.00   0.00000   0 ;    H67-   O33-   C40-   C41
   141    145    147    148      9     0.00   0.00000   0 ;    C41-   C42-   O35-   C43
   141    145    147    148      9     0.00   0.66944   2 ;    C41-   C42-   O35-   C43
   141    145    147    148      9     0.00   1.00416   3 ;    C41-   C42-   O35-   C43
   142    141    143    144      9     0.00   0.47279   3 ;    H68-   C41-   O34-   H69
   142    141    145    146      9     0.00   0.65084   3 ;    H68-   C41-   C42-   H70
   142    141    145    147      9     0.00   0.00000   0 ;    H68-   C41-   C42-   O35
   142    141    145    147      9     0.00   1.04600   1 ;    H68-   C41-   C42-   O35
   143    141    145    146      9     0.00   0.00000   0 ;    O34-   C41-   C42-   H70
   143    141    145    146      9     0.00   1.04600   1 ;    O34-   C41-   C42-   H70
   143    141    145    147      9     0.00   0.00000   0 ;    O34-   C41-   C42-   O35
   143    141    145    147      9     0.00   4.22584   3 ;    O34-   C41-   C42-   O35
   143    141    145    147      9   180.00   0.08368   1 ;    O34-   C41-   C42-   O35
   144    143    141    145      9     0.00   0.00000   0 ;    H69-   O34-   C41-   C42
   145    147    148    149      9     0.00   1.60387   3 ;    C42-   O35-   C43-   H71
   145    147    148    150      9     0.00   5.18816   2 ;    C42-   O35-   C43-   O36
   145    147    148    150      9   180.00   0.00000   3 ;    C42-   O35-   C43-   O36
   145    147    148    150      9   180.00   4.05848   1 ;    C42-   O35-   C43-   O36
   145    147    148    158      9     0.00   0.00000   0 ;    C42-   O35-   C43-   C46
   145    147    148    158      9     0.00   0.66944   2 ;    C42-   O35-   C43-   C46
   145    147    148    158      9     0.00   1.00416   3 ;    C42-   O35-   C43-   C46
   146    145    147    148      9     0.00   1.41001   3 ;    H70-   C42-   O35-   C43
   147    148    150    151      9     0.00   5.18816   2 ;    O35-   C43-   O36-   C44
   147    148    150    151      9   180.00   0.00000   3 ;    O35-   C43-   O36-   C44
   147    148    150    151      9   180.00   4.05848   1 ;    O35-   C43-   O36-   C44
   147    148    158    159      9     0.00   0.00000   0 ;    O35-   C43-   C46-   H76
   147    148    158    159      9     0.00   1.04600   1 ;    O35-   C43-   C46-   H76
   147    148    158    160      9     0.00   0.00000   0 ;    O35-   C43-   C46-   O38
   147    148    158    160      9     0.00   4.22584   3 ;    O35-   C43-   C46-   O38
   147    148    158    160      9   180.00   0.08368   1 ;    O35-   C43-   C46-   O38
   147    148    158    162      9     0.00   0.65084   3 ;    O35-   C43-   C46-   C47
   148    150    151    152      9     0.00   1.41001   3 ;    C43-   O36-   C44-   H72
   148    150    151    153      9     0.00   0.00000   0 ;    C43-   O36-   C44-   C45
   148    150    151    153      9     0.00   0.66944   2 ;    C43-   O36-   C44-   C45
   148    150    151    153      9     0.00   1.00416   3 ;    C43-   O36-   C44-   C45
   148    150    151    166      9     0.00   0.00000   0 ;    C43-   O36-   C44-   C48
   148    150    151    166      9     0.00   0.66944   2 ;    C43-   O36-   C44-   C48
   148    150    151    166      9     0.00   1.00416   3 ;    C43-   O36-   C44-   C48
   148    158    160    161      9     0.00   0.00000   0 ;    C43-   C46-   O38-   H77
   148    158    162    163      9     0.00   0.65084   3 ;    C43-   C46-   C47-   H78
   148    158    162    164      9     0.00   0.87864   3 ;    C43-   C46-   C47-   O39
   148    158    162    166      9     0.00   0.46024   1 ;    C43-   C46-   C47-   C48
   148    158    162    166      9     0.00   0.54392   3 ;    C43-   C46-   C47-   C48
   148    158    162    166      9   180.00   1.21336   2 ;    C43-   C46-   C47-   C48
   149    148    150    151      9     0.00   1.60387   3 ;    H71-   C43-   O36-   C44
   149    148    158    159      9     0.00   0.65084   3 ;    H71-   C43-   C46-   H76
   149    148    158    160      9     0.00   0.65084   3 ;    H71-   C43-   C46-   O38
   149    148    158    162      9     0.00   0.65084   3 ;    H71-   C43-   C46-   C47
   150    148    158    159      9     0.00   0.00000   0 ;    O36-   C43-   C46-   H76
   150    148    158    159      9     0.00   1.04600   1 ;    O36-   C43-   C46-   H76
   150    148    158    160      9     0.00   0.00000   0 ;    O36-   C43-   C46-   O38
   150    148    158    160      9     0.00   4.22584   3 ;    O36-   C43-   C46-   O38
   150    148    158    160      9   180.00   0.08368   1 ;    O36-   C43-   C46-   O38
   150    148    158    162      9     0.00   0.65084   3 ;    O36-   C43-   C46-   C47
   150    151    153    154      9     0.00   0.00000   0 ;    O36-   C44-   C45-   H73
   150    151    153    154      9     0.00   1.04600   1 ;    O36-   C44-   C45-   H73
   150    151    153    155      9     0.00   0.00000   0 ;    O36-   C44-   C45-   H74
   150    151    153    155      9     0.00   1.04600   1 ;    O36-   C44-   C45-   H74
   150    151    153    156      9     0.00   0.00000   0 ;    O36-   C44-   C45-   O37
   150    151    153    156      9     0.00   4.22584   3 ;    O36-   C44-   C45-   O37
   150    151    153    156      9   180.00   0.08368   1 ;    O36-   C44-   C45-   O37
   150    151    166    162      9     0.00   0.65084   3 ;    O36-   C44-   C48-   C47
   150    151    166    167      9     0.00   0.00000   0 ;    O36-   C44-   C48-   H80
   150    151    166    167      9     0.00   1.04600   1 ;    O36-   C44-   C48-   H80
   150    151    166    168      9     0.00   0.00000   0 ;    O36-   C44-   C48-   O40
   150    151    166    168      9   180.00   0.00000   2 ;    O36-   C44-   C48-   O40
   150    151    166    168      9   180.00   0.71128   1 ;    O36-   C44-   C48-   O40
   151    150    148    158      9     0.00   0.00000   0 ;    C44-   O36-   C43-   C46
   151    150    148    158      9     0.00   0.66944   2 ;    C44-   O36-   C43-   C46
   151    150    148    158      9     0.00   1.00416   3 ;    C44-   O36-   C43-   C46
   151    153    156    157      9     0.00   0.00000   0 ;    C44-   C45-   O37-   H75
   151    166    162    158      9     0.00   0.46024   1 ;    C44-   C48-   C47-   C46
   151    166    162    158      9     0.00   0.54392   3 ;    C44-   C48-   C47-   C46
   151    166    162    158      9   180.00   1.21336   2 ;    C44-   C48-   C47-   C46
   151    166    162    163      9     0.00   0.65084   3 ;    C44-   C48-   C47-   H78
   151    166    162    164      9     0.00   0.87864   3 ;    C44-   C48-   C47-   O39
   152    151    153    154      9     0.00   0.65084   3 ;    H72-   C44-   C45-   H73
   152    151    153    155      9     0.00   0.65084   3 ;    H72-   C44-   C45-   H74
   152    151    153    156      9     0.00   0.00000   0 ;    H72-   C44-   C45-   O37
   152    151    153    156      9     0.00   1.04600   1 ;    H72-   C44-   C45-   O37
   152    151    166    162      9     0.00   0.65084   3 ;    H72-   C44-   C48-   C47
   152    151    166    167      9     0.00   0.65084   3 ;    H72-   C44-   C48-   H80
   152    151    166    168      9     0.00   0.00000   0 ;    H72-   C44-   C48-   O40
   152    151    166    168      9     0.00   1.04600   1 ;    H72-   C44-   C48-   O40
   153    151    166    162      9     0.00   0.46024   1 ;    C45-   C44-   C48-   C47
   153    151    166    162      9     0.00   0.54392   3 ;    C45-   C44-   C48-   C47
   153    151    166    162      9   180.00   1.21336   2 ;    C45-   C44-   C48-   C47
   153    151    166    167      9     0.00   0.65084   3 ;    C45-   C44-   C48-   H80
   153    151    166    168      9     0.00   0.65084   3 ;    C45-   C44-   C48-   O40
   154    153    151    166      9     0.00   0.65084   3 ;    H73-   C45-   C44-   C48
   154    153    156    157      9     0.00   0.47279   3 ;    H73-   C45-   O37-   H75
   155    153    151    166      9     0.00   0.65084   3 ;    H74-   C45-   C44-   C48
   155    153    156    157      9     0.00   0.47279   3 ;    H74-   C45-   O37-   H75
   156    153    151    166      9     0.00   0.87864   3 ;    O37-   C45-   C44-   C48
   158    162    164    165      9     0.00   0.00000   0 ;    C46-   C47-   O39-   H79
   158    162    166    167      9     0.00   0.65084   3 ;    C46-   C47-   C48-   H80
   158    162    166    168      9     0.00   0.65084   3 ;    C46-   C47-   C48-   O40
   159    158    160    161      9     0.00   0.47279   3 ;    H76-   C46-   O38-   H77
   159    158    162    163      9     0.00   0.65084   3 ;    H76-   C46-   C47-   H78
   159    158    162    164      9     0.00   0.00000   0 ;    H76-   C46-   C47-   O39
   159    158    162    164      9     0.00   1.04600   1 ;    H76-   C46-   C47-   O39
   159    158    162    166      9     0.00   0.65084   3 ;    H76-   C46-   C47-   C48
   160    158    162    163      9     0.00   0.00000   0 ;    O38-   C46-   C47-   H78
   160    158    162    163      9     0.00   1.04600   1 ;    O38-   C46-   C47-   H78
   160    158    162    164      9     0.00   3.76560   3 ;    O38-   C46-   C47-   O39
   160    158    162    164      9     0.00   4.72792   2 ;    O38-   C46-   C47-   O39
   160    158    162    166      9     0.00   0.87864   3 ;    O38-   C46-   C47-   C48
   161    160    158    162      9     0.00   0.00000   0 ;    H77-   O38-   C46-   C47
   163    162    164    165      9     0.00   0.47279   3 ;    H78-   C47-   O39-   H79
   163    162    166    167      9     0.00   0.65084   3 ;    H78-   C47-   C48-   H80
   163    162    166    168      9     0.00   0.00000   0 ;    H78-   C47-   C48-   O40
   163    162    166    168      9     0.00   1.04600   1 ;    H78-   C47-   C48-   O40
   164    162    166    167      9     0.00   0.00000   0 ;    O39-   C47-   C48-   H80
   164    162    166    167      9     0.00   1.04600   1 ;    O39-   C47-   C48-   H80
   164    162    166    168      9     0.00   0.00000   0 ;    O39-   C47-   C48-   O40
   164    162    166    168      9     0.00   4.22584   3 ;    O39-   C47-   C48-   O40
   164    162    166    168      9   180.00   0.08368   1 ;    O39-   C47-   C48-   O40
   165    164    162    166      9     0.00   0.00000   0 ;    H79-   O39-   C47-   C48
   168      1      3      4      9     0.00   5.18816   2 ;    O40-    C1-    O1-    C2
   168      1      3      4      9   180.00   0.00000   3 ;    O40-    C1-    O1-    C2
   168      1      3      4      9   180.00   4.05848   1 ;    O40-    C1-    O1-    C2
   168      1     11     12      9     0.00   0.00000   0 ;    O40-    C1-    C4-    H6
   168      1     11     12      9     0.00   1.04600   1 ;    O40-    C1-    C4-    H6
   168      1     11     13      9     0.00   0.00000   0 ;    O40-    C1-    C4-    O3
   168      1     11     13      9     0.00   4.22584   3 ;    O40-    C1-    C4-    O3
   168      1     11     13      9   180.00   0.08368   1 ;    O40-    C1-    C4-    O3
   168      1     11     15      9     0.00   0.65084   3 ;    O40-    C1-    C4-    C5
