; PEG_30_c_GMX.itp created by acpype (v: 2023.10.27) on Mon Aug 18 16:03:05 2025

[ moleculetype ]
;name            nrexcl
 PEG         3

[ atoms ]
;   nr  type  resi  res  atom  cgnr     charge      mass       ; qtot   bond_type
     1   os     1   LIG     O    1    -0.606032     16.00000 ; qtot -0.606032
     2   c3     1   LIG     C    2     0.364236     12.01000 ; qtot -0.241796
     3   c3     1   LIG    C1    3     0.364236     12.01000 ; qtot 0.122440
     4   os     1   LIG    O1    4    -0.606032     16.00000 ; qtot -0.483592
     5   c3     1   LIG    C2    5     0.364236     12.01000 ; qtot -0.119356
     6   c3     1   LIG    C3    6     0.364236     12.01000 ; qtot 0.244880
     7   os     1   LIG    O2    7    -0.606032     16.00000 ; qtot -0.361152
     8   c3     1   LIG    C4    8     0.364236     12.01000 ; qtot 0.003084
     9   c3     1   LIG    C5    9     0.364236     12.01000 ; qtot 0.367320
    10   os     1   LIG    O3   10    -0.606032     16.00000 ; qtot -0.238712
    11   c3     1   LIG    C6   11     0.364236     12.01000 ; qtot 0.125524
    12   c3     1   LIG    C7   12     0.364236     12.01000 ; qtot 0.489760
    13   os     1   LIG    O4   13    -0.606032     16.00000 ; qtot -0.116272
    14   c3     1   LIG    C8   14     0.364236     12.01000 ; qtot 0.247964
    15   c3     1   LIG    C9   15     0.364236     12.01000 ; qtot 0.612200
    16   os     1   LIG    O5   16    -0.606032     16.00000 ; qtot 0.006168
    17   c3     1   LIG   C10   17     0.364236     12.01000 ; qtot 0.370404
    18   c3     1   LIG   C11   18     0.364236     12.01000 ; qtot 0.734640
    19   os     1   LIG    O6   19    -0.606032     16.00000 ; qtot 0.128608
    20   c3     1   LIG   C12   20     0.364236     12.01000 ; qtot 0.492844
    21   c3     1   LIG   C13   21     0.364236     12.01000 ; qtot 0.857080
    22   os     1   LIG    O7   22    -0.606032     16.00000 ; qtot 0.251048
    23   c3     1   LIG   C14   23     0.364236     12.01000 ; qtot 0.615284
    24   c3     1   LIG   C15   24     0.364236     12.01000 ; qtot 0.979520
    25   os     1   LIG    O8   25    -0.606032     16.00000 ; qtot 0.373488
    26   c3     1   LIG   C16   26     0.364236     12.01000 ; qtot 0.737724
    27   c3     1   LIG   C17   27     0.364236     12.01000 ; qtot 1.101960
    28   os     1   LIG    O9   28    -0.606032     16.00000 ; qtot 0.495928
    29   c3     1   LIG   C18   29     0.364236     12.01000 ; qtot 0.860164
    30   c3     1   LIG   C19   30     0.364236     12.01000 ; qtot 1.224400
    31   os     1   LIG   O10   31    -0.606032     16.00000 ; qtot 0.618368
    32   c3     1   LIG   C20   32     0.364236     12.01000 ; qtot 0.982604
    33   c3     1   LIG   C21   33     0.364236     12.01000 ; qtot 1.346840
    34   os     1   LIG   O11   34    -0.606032     16.00000 ; qtot 0.740808
    35   c3     1   LIG   C22   35     0.364236     12.01000 ; qtot 1.105044
    36   c3     1   LIG   C23   36     0.364236     12.01000 ; qtot 1.469280
    37   os     1   LIG   O12   37    -0.606032     16.00000 ; qtot 0.863248
    38   c3     1   LIG   C24   38     0.364236     12.01000 ; qtot 1.227484
    39   c3     1   LIG   C25   39     0.364236     12.01000 ; qtot 1.591720
    40   os     1   LIG   O13   40    -0.606032     16.00000 ; qtot 0.985688
    41   c3     1   LIG   C26   41     0.364236     12.01000 ; qtot 1.349924
    42   c3     1   LIG   C27   42     0.364236     12.01000 ; qtot 1.714160
    43   os     1   LIG   O14   43    -0.606032     16.00000 ; qtot 1.108128
    44   c3     1   LIG   C28   44     0.364236     12.01000 ; qtot 1.472364
    45   c3     1   LIG   C29   45     0.364236     12.01000 ; qtot 1.836600
    46   os     1   LIG   O15   46    -0.606032     16.00000 ; qtot 1.230568
    47   c3     1   LIG   C30   47     0.364236     12.01000 ; qtot 1.594804
    48   c3     1   LIG   C31   48     0.364236     12.01000 ; qtot 1.959040
    49   os     1   LIG   O16   49    -0.606032     16.00000 ; qtot 1.353008
    50   c3     1   LIG   C32   50     0.364236     12.01000 ; qtot 1.717244
    51   c3     1   LIG   C33   51     0.364236     12.01000 ; qtot 2.081480
    52   os     1   LIG   O17   52    -0.606032     16.00000 ; qtot 1.475448
    53   c3     1   LIG   C34   53     0.364236     12.01000 ; qtot 1.839684
    54   c3     1   LIG   C35   54     0.364236     12.01000 ; qtot 2.203920
    55   os     1   LIG   O18   55    -0.606032     16.00000 ; qtot 1.597888
    56   c3     1   LIG   C36   56     0.364236     12.01000 ; qtot 1.962124
    57   c3     1   LIG   C37   57     0.364236     12.01000 ; qtot 2.326360
    58   os     1   LIG   O19   58    -0.606032     16.00000 ; qtot 1.720328
    59   c3     1   LIG   C38   59     0.364236     12.01000 ; qtot 2.084564
    60   c3     1   LIG   C39   60     0.364236     12.01000 ; qtot 2.448800
    61   os     1   LIG   O20   61    -0.606032     16.00000 ; qtot 1.842768
    62   c3     1   LIG   C40   62     0.364236     12.01000 ; qtot 2.207004
    63   c3     1   LIG   C41   63     0.364236     12.01000 ; qtot 2.571240
    64   os     1   LIG   O21   64    -0.606032     16.00000 ; qtot 1.965208
    65   c3     1   LIG   C42   65     0.364236     12.01000 ; qtot 2.329444
    66   c3     1   LIG   C43   66     0.364236     12.01000 ; qtot 2.693680
    67   os     1   LIG   O22   67    -0.606032     16.00000 ; qtot 2.087648
    68   c3     1   LIG   C44   68     0.364236     12.01000 ; qtot 2.451884
    69   c3     1   LIG   C45   69     0.364236     12.01000 ; qtot 2.816120
    70   os     1   LIG   O23   70    -0.606032     16.00000 ; qtot 2.210088
    71   c3     1   LIG   C46   71     0.364236     12.01000 ; qtot 2.574324
    72   c3     1   LIG   C47   72     0.364236     12.01000 ; qtot 2.938560
    73   os     1   LIG   O24   73    -0.606032     16.00000 ; qtot 2.332528
    74   c3     1   LIG   C48   74     0.364236     12.01000 ; qtot 2.696764
    75   c3     1   LIG   C49   75     0.364236     12.01000 ; qtot 3.061000
    76   os     1   LIG   O25   76    -0.606032     16.00000 ; qtot 2.454968
    77   c3     1   LIG   C50   77     0.364236     12.01000 ; qtot 2.819204
    78   c3     1   LIG   C51   78     0.364236     12.01000 ; qtot 3.183440
    79   os     1   LIG   O26   79    -0.606032     16.00000 ; qtot 2.577408
    80   c3     1   LIG   C52   80     0.364236     12.01000 ; qtot 2.941644
    81   c3     1   LIG   C53   81     0.364236     12.01000 ; qtot 3.305880
    82   os     1   LIG   O27   82    -0.606032     16.00000 ; qtot 2.699848
    83   c3     1   LIG   C54   83     0.364236     12.01000 ; qtot 3.064084
    84   c3     1   LIG   C55   84     0.364236     12.01000 ; qtot 3.428320
    85   os     1   LIG   O28   85    -0.606032     16.00000 ; qtot 2.822288
    86   c3     1   LIG   C56   86     0.364236     12.01000 ; qtot 3.186524
    87   c3     1   LIG   C57   87     0.364236     12.01000 ; qtot 3.550760
    88   os     1   LIG   O29   88    -0.606032     16.00000 ; qtot 2.944728
    89   c3     1   LIG   C58   89     0.364236     12.01000 ; qtot 3.308964
    90   c3     1   LIG   C59   90     0.364236     12.01000 ; qtot 3.673200
    91   h1     1   LIG     H   91    -0.030610      1.00800 ; qtot 3.642590
    92   h1     1   LIG    H1   92    -0.030610      1.00800 ; qtot 3.611980
    93   h1     1   LIG    H2   93    -0.030610      1.00800 ; qtot 3.581370
    94   h1     1   LIG    H3   94    -0.030610      1.00800 ; qtot 3.550760
    95   h1     1   LIG    H4   95    -0.030610      1.00800 ; qtot 3.520150
    96   h1     1   LIG    H5   96    -0.030610      1.00800 ; qtot 3.489540
    97   h1     1   LIG    H6   97    -0.030610      1.00800 ; qtot 3.458930
    98   h1     1   LIG    H7   98    -0.030610      1.00800 ; qtot 3.428320
    99   h1     1   LIG    H8   99    -0.030610      1.00800 ; qtot 3.397710
   100   h1     1   LIG    H9  100    -0.030610      1.00800 ; qtot 3.367100
   101   h1     1   LIG   H10  101    -0.030610      1.00800 ; qtot 3.336490
   102   h1     1   LIG   H11  102    -0.030610      1.00800 ; qtot 3.305880
   103   h1     1   LIG   H12  103    -0.030610      1.00800 ; qtot 3.275270
   104   h1     1   LIG   H13  104    -0.030610      1.00800 ; qtot 3.244660
   105   h1     1   LIG   H14  105    -0.030610      1.00800 ; qtot 3.214050
   106   h1     1   LIG   H15  106    -0.030610      1.00800 ; qtot 3.183440
   107   h1     1   LIG   H16  107    -0.030610      1.00800 ; qtot 3.152830
   108   h1     1   LIG   H17  108    -0.030610      1.00800 ; qtot 3.122220
   109   h1     1   LIG   H18  109    -0.030610      1.00800 ; qtot 3.091610
   110   h1     1   LIG   H19  110    -0.030610      1.00800 ; qtot 3.061000
   111   h1     1   LIG   H20  111    -0.030610      1.00800 ; qtot 3.030390
   112   h1     1   LIG   H21  112    -0.030610      1.00800 ; qtot 2.999780
   113   h1     1   LIG   H22  113    -0.030610      1.00800 ; qtot 2.969170
   114   h1     1   LIG   H23  114    -0.030610      1.00800 ; qtot 2.938560
   115   h1     1   LIG   H24  115    -0.030610      1.00800 ; qtot 2.907950
   116   h1     1   LIG   H25  116    -0.030610      1.00800 ; qtot 2.877340
   117   h1     1   LIG   H26  117    -0.030610      1.00800 ; qtot 2.846730
   118   h1     1   LIG   H27  118    -0.030610      1.00800 ; qtot 2.816120
   119   h1     1   LIG   H28  119    -0.030610      1.00800 ; qtot 2.785510
   120   h1     1   LIG   H29  120    -0.030610      1.00800 ; qtot 2.754900
   121   h1     1   LIG   H30  121    -0.030610      1.00800 ; qtot 2.724290
   122   h1     1   LIG   H31  122    -0.030610      1.00800 ; qtot 2.693680
   123   h1     1   LIG   H32  123    -0.030610      1.00800 ; qtot 2.663070
   124   h1     1   LIG   H33  124    -0.030610      1.00800 ; qtot 2.632460
   125   h1     1   LIG   H34  125    -0.030610      1.00800 ; qtot 2.601850
   126   h1     1   LIG   H35  126    -0.030610      1.00800 ; qtot 2.571240
   127   h1     1   LIG   H36  127    -0.030610      1.00800 ; qtot 2.540630
   128   h1     1   LIG   H37  128    -0.030610      1.00800 ; qtot 2.510020
   129   h1     1   LIG   H38  129    -0.030610      1.00800 ; qtot 2.479410
   130   h1     1   LIG   H39  130    -0.030610      1.00800 ; qtot 2.448800
   131   h1     1   LIG   H40  131    -0.030610      1.00800 ; qtot 2.418190
   132   h1     1   LIG   H41  132    -0.030610      1.00800 ; qtot 2.387580
   133   h1     1   LIG   H42  133    -0.030610      1.00800 ; qtot 2.356970
   134   h1     1   LIG   H43  134    -0.030610      1.00800 ; qtot 2.326360
   135   h1     1   LIG   H44  135    -0.030610      1.00800 ; qtot 2.295750
   136   h1     1   LIG   H45  136    -0.030610      1.00800 ; qtot 2.265140
   137   h1     1   LIG   H46  137    -0.030610      1.00800 ; qtot 2.234530
   138   h1     1   LIG   H47  138    -0.030610      1.00800 ; qtot 2.203920
   139   h1     1   LIG   H48  139    -0.030610      1.00800 ; qtot 2.173310
   140   h1     1   LIG   H49  140    -0.030610      1.00800 ; qtot 2.142700
   141   h1     1   LIG   H50  141    -0.030610      1.00800 ; qtot 2.112090
   142   h1     1   LIG   H51  142    -0.030610      1.00800 ; qtot 2.081480
   143   h1     1   LIG   H52  143    -0.030610      1.00800 ; qtot 2.050870
   144   h1     1   LIG   H53  144    -0.030610      1.00800 ; qtot 2.020260
   145   h1     1   LIG   H54  145    -0.030610      1.00800 ; qtot 1.989650
   146   h1     1   LIG   H55  146    -0.030610      1.00800 ; qtot 1.959040
   147   h1     1   LIG   H56  147    -0.030610      1.00800 ; qtot 1.928430
   148   h1     1   LIG   H57  148    -0.030610      1.00800 ; qtot 1.897820
   149   h1     1   LIG   H58  149    -0.030610      1.00800 ; qtot 1.867210
   150   h1     1   LIG   H59  150    -0.030610      1.00800 ; qtot 1.836600
   151   h1     1   LIG   H60  151    -0.030610      1.00800 ; qtot 1.805990
   152   h1     1   LIG   H61  152    -0.030610      1.00800 ; qtot 1.775380
   153   h1     1   LIG   H62  153    -0.030610      1.00800 ; qtot 1.744770
   154   h1     1   LIG   H63  154    -0.030610      1.00800 ; qtot 1.714160
   155   h1     1   LIG   H64  155    -0.030610      1.00800 ; qtot 1.683550
   156   h1     1   LIG   H65  156    -0.030610      1.00800 ; qtot 1.652940
   157   h1     1   LIG   H66  157    -0.030610      1.00800 ; qtot 1.622330
   158   h1     1   LIG   H67  158    -0.030610      1.00800 ; qtot 1.591720
   159   h1     1   LIG   H68  159    -0.030610      1.00800 ; qtot 1.561110
   160   h1     1   LIG   H69  160    -0.030610      1.00800 ; qtot 1.530500
   161   h1     1   LIG   H70  161    -0.030610      1.00800 ; qtot 1.499890
   162   h1     1   LIG   H71  162    -0.030610      1.00800 ; qtot 1.469280
   163   h1     1   LIG   H72  163    -0.030610      1.00800 ; qtot 1.438670
   164   h1     1   LIG   H73  164    -0.030610      1.00800 ; qtot 1.408060
   165   h1     1   LIG   H74  165    -0.030610      1.00800 ; qtot 1.377450
   166   h1     1   LIG   H75  166    -0.030610      1.00800 ; qtot 1.346840
   167   h1     1   LIG   H76  167    -0.030610      1.00800 ; qtot 1.316230
   168   h1     1   LIG   H77  168    -0.030610      1.00800 ; qtot 1.285620
   169   h1     1   LIG   H78  169    -0.030610      1.00800 ; qtot 1.255010
   170   h1     1   LIG   H79  170    -0.030610      1.00800 ; qtot 1.224400
   171   h1     1   LIG   H80  171    -0.030610      1.00800 ; qtot 1.193790
   172   h1     1   LIG   H81  172    -0.030610      1.00800 ; qtot 1.163180
   173   h1     1   LIG   H82  173    -0.030610      1.00800 ; qtot 1.132570
   174   h1     1   LIG   H83  174    -0.030610      1.00800 ; qtot 1.101960
   175   h1     1   LIG   H84  175    -0.030610      1.00800 ; qtot 1.071350
   176   h1     1   LIG   H85  176    -0.030610      1.00800 ; qtot 1.040740
   177   h1     1   LIG   H86  177    -0.030610      1.00800 ; qtot 1.010130
   178   h1     1   LIG   H87  178    -0.030610      1.00800 ; qtot 0.979520
   179   h1     1   LIG   H88  179    -0.030610      1.00800 ; qtot 0.948910
   180   h1     1   LIG   H89  180    -0.030610      1.00800 ; qtot 0.918300
   181   h1     1   LIG   H90  181    -0.030610      1.00800 ; qtot 0.887690
   182   h1     1   LIG   H91  182    -0.030610      1.00800 ; qtot 0.857080
   183   h1     1   LIG   H92  183    -0.030610      1.00800 ; qtot 0.826470
   184   h1     1   LIG   H93  184    -0.030610      1.00800 ; qtot 0.795860
   185   h1     1   LIG   H94  185    -0.030610      1.00800 ; qtot 0.765250
   186   h1     1   LIG   H95  186    -0.030610      1.00800 ; qtot 0.734640
   187   h1     1   LIG   H96  187    -0.030610      1.00800 ; qtot 0.704030
   188   h1     1   LIG   H97  188    -0.030610      1.00800 ; qtot 0.673420
   189   h1     1   LIG   H98  189    -0.030610      1.00800 ; qtot 0.642810
   190   h1     1   LIG   H99  190    -0.030610      1.00800 ; qtot 0.612200
   191   h1     1   LIG  H100  191    -0.030610      1.00800 ; qtot 0.581590
   192   h1     1   LIG  H101  192    -0.030610      1.00800 ; qtot 0.550980
   193   h1     1   LIG  H102  193    -0.030610      1.00800 ; qtot 0.520370
   194   h1     1   LIG  H103  194    -0.030610      1.00800 ; qtot 0.489760
   195   h1     1   LIG  H104  195    -0.030610      1.00800 ; qtot 0.459150
   196   h1     1   LIG  H105  196    -0.030610      1.00800 ; qtot 0.428540
   197   h1     1   LIG  H106  197    -0.030610      1.00800 ; qtot 0.397930
   198   h1     1   LIG  H107  198    -0.030610      1.00800 ; qtot 0.367320
   199   h1     1   LIG  H108  199    -0.030610      1.00800 ; qtot 0.336710
   200   h1     1   LIG  H109  200    -0.030610      1.00800 ; qtot 0.306100
   201   h1     1   LIG  H110  201    -0.030610      1.00800 ; qtot 0.275490
   202   h1     1   LIG  H111  202    -0.030610      1.00800 ; qtot 0.244880
   203   h1     1   LIG  H112  203    -0.030610      1.00800 ; qtot 0.214270
   204   h1     1   LIG  H113  204    -0.030610      1.00800 ; qtot 0.183660
   205   h1     1   LIG  H114  205    -0.030610      1.00800 ; qtot 0.153050
   206   h1     1   LIG  H115  206    -0.030610      1.00800 ; qtot 0.122440
   207   h1     1   LIG  H116  207    -0.030610      1.00800 ; qtot 0.091830
   208   h1     1   LIG  H117  208    -0.030610      1.00800 ; qtot 0.061220
   209   h1     1   LIG  H118  209    -0.030610      1.00800 ; qtot 0.030610
   210   h1     1   LIG  H119  210    -0.030610      1.00800 ; qtot 0.000000

[ bonds ]
;   ai     aj funct   r             k
     1      2   1    1.4320e-01    2.3832e+05 ;      O - C     
     1     90   1    1.4320e-01    2.3832e+05 ;      O - C59   
     2      3   1    1.5380e-01    1.9456e+05 ;      C - C1    
     2     91   1    1.0970e-01    3.1455e+05 ;      C - H     
     2     92   1    1.0970e-01    3.1455e+05 ;      C - H1    
     3      4   1    1.4320e-01    2.3832e+05 ;     C1 - O1    
     3     93   1    1.0970e-01    3.1455e+05 ;     C1 - H2    
     3     94   1    1.0970e-01    3.1455e+05 ;     C1 - H3    
     4      5   1    1.4320e-01    2.3832e+05 ;     O1 - C2    
     5      6   1    1.5380e-01    1.9456e+05 ;     C2 - C3    
     5     95   1    1.0970e-01    3.1455e+05 ;     C2 - H4    
     5     96   1    1.0970e-01    3.1455e+05 ;     C2 - H5    
     6      7   1    1.4320e-01    2.3832e+05 ;     C3 - O2    
     6     97   1    1.0970e-01    3.1455e+05 ;     C3 - H6    
     6     98   1    1.0970e-01    3.1455e+05 ;     C3 - H7    
     7      8   1    1.4320e-01    2.3832e+05 ;     O2 - C4    
     8      9   1    1.5380e-01    1.9456e+05 ;     C4 - C5    
     8     99   1    1.0970e-01    3.1455e+05 ;     C4 - H8    
     8    100   1    1.0970e-01    3.1455e+05 ;     C4 - H9    
     9     10   1    1.4320e-01    2.3832e+05 ;     C5 - O3    
     9    101   1    1.0970e-01    3.1455e+05 ;     C5 - H10   
     9    102   1    1.0970e-01    3.1455e+05 ;     C5 - H11   
    10     11   1    1.4320e-01    2.3832e+05 ;     O3 - C6    
    11     12   1    1.5380e-01    1.9456e+05 ;     C6 - C7    
    11    103   1    1.0970e-01    3.1455e+05 ;     C6 - H12   
    11    104   1    1.0970e-01    3.1455e+05 ;     C6 - H13   
    12     13   1    1.4320e-01    2.3832e+05 ;     C7 - O4    
    12    105   1    1.0970e-01    3.1455e+05 ;     C7 - H14   
    12    106   1    1.0970e-01    3.1455e+05 ;     C7 - H15   
    13     14   1    1.4320e-01    2.3832e+05 ;     O4 - C8    
    14     15   1    1.5380e-01    1.9456e+05 ;     C8 - C9    
    14    107   1    1.0970e-01    3.1455e+05 ;     C8 - H16   
    14    108   1    1.0970e-01    3.1455e+05 ;     C8 - H17   
    15     16   1    1.4320e-01    2.3832e+05 ;     C9 - O5    
    15    109   1    1.0970e-01    3.1455e+05 ;     C9 - H18   
    15    110   1    1.0970e-01    3.1455e+05 ;     C9 - H19   
    16     17   1    1.4320e-01    2.3832e+05 ;     O5 - C10   
    17     18   1    1.5380e-01    1.9456e+05 ;    C10 - C11   
    17    111   1    1.0970e-01    3.1455e+05 ;    C10 - H20   
    17    112   1    1.0970e-01    3.1455e+05 ;    C10 - H21   
    18     19   1    1.4320e-01    2.3832e+05 ;    C11 - O6    
    18    113   1    1.0970e-01    3.1455e+05 ;    C11 - H22   
    18    114   1    1.0970e-01    3.1455e+05 ;    C11 - H23   
    19     20   1    1.4320e-01    2.3832e+05 ;     O6 - C12   
    20     21   1    1.5380e-01    1.9456e+05 ;    C12 - C13   
    20    115   1    1.0970e-01    3.1455e+05 ;    C12 - H24   
    20    116   1    1.0970e-01    3.1455e+05 ;    C12 - H25   
    21     22   1    1.4320e-01    2.3832e+05 ;    C13 - O7    
    21    117   1    1.0970e-01    3.1455e+05 ;    C13 - H26   
    21    118   1    1.0970e-01    3.1455e+05 ;    C13 - H27   
    22     23   1    1.4320e-01    2.3832e+05 ;     O7 - C14   
    23     24   1    1.5380e-01    1.9456e+05 ;    C14 - C15   
    23    119   1    1.0970e-01    3.1455e+05 ;    C14 - H28   
    23    120   1    1.0970e-01    3.1455e+05 ;    C14 - H29   
    24     25   1    1.4320e-01    2.3832e+05 ;    C15 - O8    
    24    121   1    1.0970e-01    3.1455e+05 ;    C15 - H30   
    24    122   1    1.0970e-01    3.1455e+05 ;    C15 - H31   
    25     26   1    1.4320e-01    2.3832e+05 ;     O8 - C16   
    26     27   1    1.5380e-01    1.9456e+05 ;    C16 - C17   
    26    123   1    1.0970e-01    3.1455e+05 ;    C16 - H32   
    26    124   1    1.0970e-01    3.1455e+05 ;    C16 - H33   
    27     28   1    1.4320e-01    2.3832e+05 ;    C17 - O9    
    27    125   1    1.0970e-01    3.1455e+05 ;    C17 - H34   
    27    126   1    1.0970e-01    3.1455e+05 ;    C17 - H35   
    28     29   1    1.4320e-01    2.3832e+05 ;     O9 - C18   
    29     30   1    1.5380e-01    1.9456e+05 ;    C18 - C19   
    29    127   1    1.0970e-01    3.1455e+05 ;    C18 - H36   
    29    128   1    1.0970e-01    3.1455e+05 ;    C18 - H37   
    30     31   1    1.4320e-01    2.3832e+05 ;    C19 - O10   
    30    129   1    1.0970e-01    3.1455e+05 ;    C19 - H38   
    30    130   1    1.0970e-01    3.1455e+05 ;    C19 - H39   
    31     32   1    1.4320e-01    2.3832e+05 ;    O10 - C20   
    32     33   1    1.5380e-01    1.9456e+05 ;    C20 - C21   
    32    131   1    1.0970e-01    3.1455e+05 ;    C20 - H40   
    32    132   1    1.0970e-01    3.1455e+05 ;    C20 - H41   
    33     34   1    1.4320e-01    2.3832e+05 ;    C21 - O11   
    33    133   1    1.0970e-01    3.1455e+05 ;    C21 - H42   
    33    134   1    1.0970e-01    3.1455e+05 ;    C21 - H43   
    34     35   1    1.4320e-01    2.3832e+05 ;    O11 - C22   
    35     36   1    1.5380e-01    1.9456e+05 ;    C22 - C23   
    35    135   1    1.0970e-01    3.1455e+05 ;    C22 - H44   
    35    136   1    1.0970e-01    3.1455e+05 ;    C22 - H45   
    36     37   1    1.4320e-01    2.3832e+05 ;    C23 - O12   
    36    137   1    1.0970e-01    3.1455e+05 ;    C23 - H46   
    36    138   1    1.0970e-01    3.1455e+05 ;    C23 - H47   
    37     38   1    1.4320e-01    2.3832e+05 ;    O12 - C24   
    38     39   1    1.5380e-01    1.9456e+05 ;    C24 - C25   
    38    139   1    1.0970e-01    3.1455e+05 ;    C24 - H48   
    38    140   1    1.0970e-01    3.1455e+05 ;    C24 - H49   
    39     40   1    1.4320e-01    2.3832e+05 ;    C25 - O13   
    39    141   1    1.0970e-01    3.1455e+05 ;    C25 - H50   
    39    142   1    1.0970e-01    3.1455e+05 ;    C25 - H51   
    40     41   1    1.4320e-01    2.3832e+05 ;    O13 - C26   
    41     42   1    1.5380e-01    1.9456e+05 ;    C26 - C27   
    41    143   1    1.0970e-01    3.1455e+05 ;    C26 - H52   
    41    144   1    1.0970e-01    3.1455e+05 ;    C26 - H53   
    42     43   1    1.4320e-01    2.3832e+05 ;    C27 - O14   
    42    145   1    1.0970e-01    3.1455e+05 ;    C27 - H54   
    42    146   1    1.0970e-01    3.1455e+05 ;    C27 - H55   
    43     44   1    1.4320e-01    2.3832e+05 ;    O14 - C28   
    44     45   1    1.5380e-01    1.9456e+05 ;    C28 - C29   
    44    147   1    1.0970e-01    3.1455e+05 ;    C28 - H56   
    44    148   1    1.0970e-01    3.1455e+05 ;    C28 - H57   
    45     46   1    1.4320e-01    2.3832e+05 ;    C29 - O15   
    45    149   1    1.0970e-01    3.1455e+05 ;    C29 - H58   
    45    150   1    1.0970e-01    3.1455e+05 ;    C29 - H59   
    46     47   1    1.4320e-01    2.3832e+05 ;    O15 - C30   
    47     48   1    1.5380e-01    1.9456e+05 ;    C30 - C31   
    47    151   1    1.0970e-01    3.1455e+05 ;    C30 - H60   
    47    152   1    1.0970e-01    3.1455e+05 ;    C30 - H61   
    48     49   1    1.4320e-01    2.3832e+05 ;    C31 - O16   
    48    153   1    1.0970e-01    3.1455e+05 ;    C31 - H62   
    48    154   1    1.0970e-01    3.1455e+05 ;    C31 - H63   
    49     50   1    1.4320e-01    2.3832e+05 ;    O16 - C32   
    50     51   1    1.5380e-01    1.9456e+05 ;    C32 - C33   
    50    155   1    1.0970e-01    3.1455e+05 ;    C32 - H64   
    50    156   1    1.0970e-01    3.1455e+05 ;    C32 - H65   
    51     52   1    1.4320e-01    2.3832e+05 ;    C33 - O17   
    51    157   1    1.0970e-01    3.1455e+05 ;    C33 - H66   
    51    158   1    1.0970e-01    3.1455e+05 ;    C33 - H67   
    52     53   1    1.4320e-01    2.3832e+05 ;    O17 - C34   
    53     54   1    1.5380e-01    1.9456e+05 ;    C34 - C35   
    53    159   1    1.0970e-01    3.1455e+05 ;    C34 - H68   
    53    160   1    1.0970e-01    3.1455e+05 ;    C34 - H69   
    54     55   1    1.4320e-01    2.3832e+05 ;    C35 - O18   
    54    161   1    1.0970e-01    3.1455e+05 ;    C35 - H70   
    54    162   1    1.0970e-01    3.1455e+05 ;    C35 - H71   
    55     56   1    1.4320e-01    2.3832e+05 ;    O18 - C36   
    56     57   1    1.5380e-01    1.9456e+05 ;    C36 - C37   
    56    163   1    1.0970e-01    3.1455e+05 ;    C36 - H72   
    56    164   1    1.0970e-01    3.1455e+05 ;    C36 - H73   
    57     58   1    1.4320e-01    2.3832e+05 ;    C37 - O19   
    57    165   1    1.0970e-01    3.1455e+05 ;    C37 - H74   
    57    166   1    1.0970e-01    3.1455e+05 ;    C37 - H75   
    58     59   1    1.4320e-01    2.3832e+05 ;    O19 - C38   
    59     60   1    1.5380e-01    1.9456e+05 ;    C38 - C39   
    59    167   1    1.0970e-01    3.1455e+05 ;    C38 - H76   
    59    168   1    1.0970e-01    3.1455e+05 ;    C38 - H77   
    60     61   1    1.4320e-01    2.3832e+05 ;    C39 - O20   
    60    169   1    1.0970e-01    3.1455e+05 ;    C39 - H78   
    60    170   1    1.0970e-01    3.1455e+05 ;    C39 - H79   
    61     62   1    1.4320e-01    2.3832e+05 ;    O20 - C40   
    62     63   1    1.5380e-01    1.9456e+05 ;    C40 - C41   
    62    171   1    1.0970e-01    3.1455e+05 ;    C40 - H80   
    62    172   1    1.0970e-01    3.1455e+05 ;    C40 - H81   
    63     64   1    1.4320e-01    2.3832e+05 ;    C41 - O21   
    63    173   1    1.0970e-01    3.1455e+05 ;    C41 - H82   
    63    174   1    1.0970e-01    3.1455e+05 ;    C41 - H83   
    64     65   1    1.4320e-01    2.3832e+05 ;    O21 - C42   
    65     66   1    1.5380e-01    1.9456e+05 ;    C42 - C43   
    65    175   1    1.0970e-01    3.1455e+05 ;    C42 - H84   
    65    176   1    1.0970e-01    3.1455e+05 ;    C42 - H85   
    66     67   1    1.4320e-01    2.3832e+05 ;    C43 - O22   
    66    177   1    1.0970e-01    3.1455e+05 ;    C43 - H86   
    66    178   1    1.0970e-01    3.1455e+05 ;    C43 - H87   
    67     68   1    1.4320e-01    2.3832e+05 ;    O22 - C44   
    68     69   1    1.5380e-01    1.9456e+05 ;    C44 - C45   
    68    179   1    1.0970e-01    3.1455e+05 ;    C44 - H88   
    68    180   1    1.0970e-01    3.1455e+05 ;    C44 - H89   
    69     70   1    1.4320e-01    2.3832e+05 ;    C45 - O23   
    69    181   1    1.0970e-01    3.1455e+05 ;    C45 - H90   
    69    182   1    1.0970e-01    3.1455e+05 ;    C45 - H91   
    70     71   1    1.4320e-01    2.3832e+05 ;    O23 - C46   
    71     72   1    1.5380e-01    1.9456e+05 ;    C46 - C47   
    71    183   1    1.0970e-01    3.1455e+05 ;    C46 - H92   
    71    184   1    1.0970e-01    3.1455e+05 ;    C46 - H93   
    72     73   1    1.4320e-01    2.3832e+05 ;    C47 - O24   
    72    185   1    1.0970e-01    3.1455e+05 ;    C47 - H94   
    72    186   1    1.0970e-01    3.1455e+05 ;    C47 - H95   
    73     74   1    1.4320e-01    2.3832e+05 ;    O24 - C48   
    74     75   1    1.5380e-01    1.9456e+05 ;    C48 - C49   
    74    187   1    1.0970e-01    3.1455e+05 ;    C48 - H96   
    74    188   1    1.0970e-01    3.1455e+05 ;    C48 - H97   
    75     76   1    1.4320e-01    2.3832e+05 ;    C49 - O25   
    75    189   1    1.0970e-01    3.1455e+05 ;    C49 - H98   
    75    190   1    1.0970e-01    3.1455e+05 ;    C49 - H99   
    76     77   1    1.4320e-01    2.3832e+05 ;    O25 - C50   
    77     78   1    1.5380e-01    1.9456e+05 ;    C50 - C51   
    77    191   1    1.0970e-01    3.1455e+05 ;    C50 - H100  
    77    192   1    1.0970e-01    3.1455e+05 ;    C50 - H101  
    78     79   1    1.4320e-01    2.3832e+05 ;    C51 - O26   
    78    193   1    1.0970e-01    3.1455e+05 ;    C51 - H102  
    78    194   1    1.0970e-01    3.1455e+05 ;    C51 - H103  
    79     80   1    1.4320e-01    2.3832e+05 ;    O26 - C52   
    80     81   1    1.5380e-01    1.9456e+05 ;    C52 - C53   
    80    195   1    1.0970e-01    3.1455e+05 ;    C52 - H104  
    80    196   1    1.0970e-01    3.1455e+05 ;    C52 - H105  
    81     82   1    1.4320e-01    2.3832e+05 ;    C53 - O27   
    81    197   1    1.0970e-01    3.1455e+05 ;    C53 - H106  
    81    198   1    1.0970e-01    3.1455e+05 ;    C53 - H107  
    82     83   1    1.4320e-01    2.3832e+05 ;    O27 - C54   
    83     84   1    1.5380e-01    1.9456e+05 ;    C54 - C55   
    83    199   1    1.0970e-01    3.1455e+05 ;    C54 - H108  
    83    200   1    1.0970e-01    3.1455e+05 ;    C54 - H109  
    84     85   1    1.4320e-01    2.3832e+05 ;    C55 - O28   
    84    201   1    1.0970e-01    3.1455e+05 ;    C55 - H110  
    84    202   1    1.0970e-01    3.1455e+05 ;    C55 - H111  
    85     86   1    1.4320e-01    2.3832e+05 ;    O28 - C56   
    86     87   1    1.5380e-01    1.9456e+05 ;    C56 - C57   
    86    203   1    1.0970e-01    3.1455e+05 ;    C56 - H112  
    86    204   1    1.0970e-01    3.1455e+05 ;    C56 - H113  
    87     88   1    1.4320e-01    2.3832e+05 ;    C57 - O29   
    87    205   1    1.0970e-01    3.1455e+05 ;    C57 - H114  
    87    206   1    1.0970e-01    3.1455e+05 ;    C57 - H115  
    88     89   1    1.4320e-01    2.3832e+05 ;    O29 - C58   
    89     90   1    1.5380e-01    1.9456e+05 ;    C58 - C59   
    89    207   1    1.0970e-01    3.1455e+05 ;    C58 - H116  
    89    208   1    1.0970e-01    3.1455e+05 ;    C58 - H117  
    90    209   1    1.0970e-01    3.1455e+05 ;    C59 - H118  
    90    210   1    1.0970e-01    3.1455e+05 ;    C59 - H119  

[ pairs ]
;   ai     aj    funct
     1      4      1 ;      O - O1    
     1     88      1 ;      O - O29   
     1     93      1 ;      O - H2    
     1     94      1 ;      O - H3    
     1    207      1 ;      O - H116  
     1    208      1 ;      O - H117  
     2      5      1 ;      C - C2    
     2     89      1 ;      C - C58   
     2    209      1 ;      C - H118  
     2    210      1 ;      C - H119  
     3      6      1 ;     C1 - C3    
     3     95      1 ;     C1 - H4    
     3     96      1 ;     C1 - H5    
     4      7      1 ;     O1 - O2    
     4     91      1 ;     O1 - H     
     4     92      1 ;     O1 - H1    
     4     97      1 ;     O1 - H6    
     4     98      1 ;     O1 - H7    
     5      8      1 ;     C2 - C4    
     5     93      1 ;     C2 - H2    
     5     94      1 ;     C2 - H3    
     6      9      1 ;     C3 - C5    
     6     99      1 ;     C3 - H8    
     6    100      1 ;     C3 - H9    
     7     10      1 ;     O2 - O3    
     7     95      1 ;     O2 - H4    
     7     96      1 ;     O2 - H5    
     7    101      1 ;     O2 - H10   
     7    102      1 ;     O2 - H11   
     8     11      1 ;     C4 - C6    
     8     97      1 ;     C4 - H6    
     8     98      1 ;     C4 - H7    
     9     12      1 ;     C5 - C7    
     9    103      1 ;     C5 - H12   
     9    104      1 ;     C5 - H13   
    10     13      1 ;     O3 - O4    
    10     99      1 ;     O3 - H8    
    10    100      1 ;     O3 - H9    
    10    105      1 ;     O3 - H14   
    10    106      1 ;     O3 - H15   
    11     14      1 ;     C6 - C8    
    11    101      1 ;     C6 - H10   
    11    102      1 ;     C6 - H11   
    12     15      1 ;     C7 - C9    
    12    107      1 ;     C7 - H16   
    12    108      1 ;     C7 - H17   
    13     16      1 ;     O4 - O5    
    13    103      1 ;     O4 - H12   
    13    104      1 ;     O4 - H13   
    13    109      1 ;     O4 - H18   
    13    110      1 ;     O4 - H19   
    14     17      1 ;     C8 - C10   
    14    105      1 ;     C8 - H14   
    14    106      1 ;     C8 - H15   
    15     18      1 ;     C9 - C11   
    15    111      1 ;     C9 - H20   
    15    112      1 ;     C9 - H21   
    16     19      1 ;     O5 - O6    
    16    107      1 ;     O5 - H16   
    16    108      1 ;     O5 - H17   
    16    113      1 ;     O5 - H22   
    16    114      1 ;     O5 - H23   
    17     20      1 ;    C10 - C12   
    17    109      1 ;    C10 - H18   
    17    110      1 ;    C10 - H19   
    18     21      1 ;    C11 - C13   
    18    115      1 ;    C11 - H24   
    18    116      1 ;    C11 - H25   
    19     22      1 ;     O6 - O7    
    19    111      1 ;     O6 - H20   
    19    112      1 ;     O6 - H21   
    19    117      1 ;     O6 - H26   
    19    118      1 ;     O6 - H27   
    20     23      1 ;    C12 - C14   
    20    113      1 ;    C12 - H22   
    20    114      1 ;    C12 - H23   
    21     24      1 ;    C13 - C15   
    21    119      1 ;    C13 - H28   
    21    120      1 ;    C13 - H29   
    22     25      1 ;     O7 - O8    
    22    115      1 ;     O7 - H24   
    22    116      1 ;     O7 - H25   
    22    121      1 ;     O7 - H30   
    22    122      1 ;     O7 - H31   
    23     26      1 ;    C14 - C16   
    23    117      1 ;    C14 - H26   
    23    118      1 ;    C14 - H27   
    24     27      1 ;    C15 - C17   
    24    123      1 ;    C15 - H32   
    24    124      1 ;    C15 - H33   
    25     28      1 ;     O8 - O9    
    25    119      1 ;     O8 - H28   
    25    120      1 ;     O8 - H29   
    25    125      1 ;     O8 - H34   
    25    126      1 ;     O8 - H35   
    26     29      1 ;    C16 - C18   
    26    121      1 ;    C16 - H30   
    26    122      1 ;    C16 - H31   
    27     30      1 ;    C17 - C19   
    27    127      1 ;    C17 - H36   
    27    128      1 ;    C17 - H37   
    28     31      1 ;     O9 - O10   
    28    123      1 ;     O9 - H32   
    28    124      1 ;     O9 - H33   
    28    129      1 ;     O9 - H38   
    28    130      1 ;     O9 - H39   
    29     32      1 ;    C18 - C20   
    29    125      1 ;    C18 - H34   
    29    126      1 ;    C18 - H35   
    30     33      1 ;    C19 - C21   
    30    131      1 ;    C19 - H40   
    30    132      1 ;    C19 - H41   
    31     34      1 ;    O10 - O11   
    31    127      1 ;    O10 - H36   
    31    128      1 ;    O10 - H37   
    31    133      1 ;    O10 - H42   
    31    134      1 ;    O10 - H43   
    32     35      1 ;    C20 - C22   
    32    129      1 ;    C20 - H38   
    32    130      1 ;    C20 - H39   
    33     36      1 ;    C21 - C23   
    33    135      1 ;    C21 - H44   
    33    136      1 ;    C21 - H45   
    34     37      1 ;    O11 - O12   
    34    131      1 ;    O11 - H40   
    34    132      1 ;    O11 - H41   
    34    137      1 ;    O11 - H46   
    34    138      1 ;    O11 - H47   
    35     38      1 ;    C22 - C24   
    35    133      1 ;    C22 - H42   
    35    134      1 ;    C22 - H43   
    36     39      1 ;    C23 - C25   
    36    139      1 ;    C23 - H48   
    36    140      1 ;    C23 - H49   
    37     40      1 ;    O12 - O13   
    37    135      1 ;    O12 - H44   
    37    136      1 ;    O12 - H45   
    37    141      1 ;    O12 - H50   
    37    142      1 ;    O12 - H51   
    38     41      1 ;    C24 - C26   
    38    137      1 ;    C24 - H46   
    38    138      1 ;    C24 - H47   
    39     42      1 ;    C25 - C27   
    39    143      1 ;    C25 - H52   
    39    144      1 ;    C25 - H53   
    40     43      1 ;    O13 - O14   
    40    139      1 ;    O13 - H48   
    40    140      1 ;    O13 - H49   
    40    145      1 ;    O13 - H54   
    40    146      1 ;    O13 - H55   
    41     44      1 ;    C26 - C28   
    41    141      1 ;    C26 - H50   
    41    142      1 ;    C26 - H51   
    42     45      1 ;    C27 - C29   
    42    147      1 ;    C27 - H56   
    42    148      1 ;    C27 - H57   
    43     46      1 ;    O14 - O15   
    43    143      1 ;    O14 - H52   
    43    144      1 ;    O14 - H53   
    43    149      1 ;    O14 - H58   
    43    150      1 ;    O14 - H59   
    44     47      1 ;    C28 - C30   
    44    145      1 ;    C28 - H54   
    44    146      1 ;    C28 - H55   
    45     48      1 ;    C29 - C31   
    45    151      1 ;    C29 - H60   
    45    152      1 ;    C29 - H61   
    46     49      1 ;    O15 - O16   
    46    147      1 ;    O15 - H56   
    46    148      1 ;    O15 - H57   
    46    153      1 ;    O15 - H62   
    46    154      1 ;    O15 - H63   
    47     50      1 ;    C30 - C32   
    47    149      1 ;    C30 - H58   
    47    150      1 ;    C30 - H59   
    48     51      1 ;    C31 - C33   
    48    155      1 ;    C31 - H64   
    48    156      1 ;    C31 - H65   
    49     52      1 ;    O16 - O17   
    49    151      1 ;    O16 - H60   
    49    152      1 ;    O16 - H61   
    49    157      1 ;    O16 - H66   
    49    158      1 ;    O16 - H67   
    50     53      1 ;    C32 - C34   
    50    153      1 ;    C32 - H62   
    50    154      1 ;    C32 - H63   
    51     54      1 ;    C33 - C35   
    51    159      1 ;    C33 - H68   
    51    160      1 ;    C33 - H69   
    52     55      1 ;    O17 - O18   
    52    155      1 ;    O17 - H64   
    52    156      1 ;    O17 - H65   
    52    161      1 ;    O17 - H70   
    52    162      1 ;    O17 - H71   
    53     56      1 ;    C34 - C36   
    53    157      1 ;    C34 - H66   
    53    158      1 ;    C34 - H67   
    54     57      1 ;    C35 - C37   
    54    163      1 ;    C35 - H72   
    54    164      1 ;    C35 - H73   
    55     58      1 ;    O18 - O19   
    55    159      1 ;    O18 - H68   
    55    160      1 ;    O18 - H69   
    55    165      1 ;    O18 - H74   
    55    166      1 ;    O18 - H75   
    56     59      1 ;    C36 - C38   
    56    161      1 ;    C36 - H70   
    56    162      1 ;    C36 - H71   
    57     60      1 ;    C37 - C39   
    57    167      1 ;    C37 - H76   
    57    168      1 ;    C37 - H77   
    58     61      1 ;    O19 - O20   
    58    163      1 ;    O19 - H72   
    58    164      1 ;    O19 - H73   
    58    169      1 ;    O19 - H78   
    58    170      1 ;    O19 - H79   
    59     62      1 ;    C38 - C40   
    59    165      1 ;    C38 - H74   
    59    166      1 ;    C38 - H75   
    60     63      1 ;    C39 - C41   
    60    171      1 ;    C39 - H80   
    60    172      1 ;    C39 - H81   
    61     64      1 ;    O20 - O21   
    61    167      1 ;    O20 - H76   
    61    168      1 ;    O20 - H77   
    61    173      1 ;    O20 - H82   
    61    174      1 ;    O20 - H83   
    62     65      1 ;    C40 - C42   
    62    169      1 ;    C40 - H78   
    62    170      1 ;    C40 - H79   
    63     66      1 ;    C41 - C43   
    63    175      1 ;    C41 - H84   
    63    176      1 ;    C41 - H85   
    64     67      1 ;    O21 - O22   
    64    171      1 ;    O21 - H80   
    64    172      1 ;    O21 - H81   
    64    177      1 ;    O21 - H86   
    64    178      1 ;    O21 - H87   
    65     68      1 ;    C42 - C44   
    65    173      1 ;    C42 - H82   
    65    174      1 ;    C42 - H83   
    66     69      1 ;    C43 - C45   
    66    179      1 ;    C43 - H88   
    66    180      1 ;    C43 - H89   
    67     70      1 ;    O22 - O23   
    67    175      1 ;    O22 - H84   
    67    176      1 ;    O22 - H85   
    67    181      1 ;    O22 - H90   
    67    182      1 ;    O22 - H91   
    68     71      1 ;    C44 - C46   
    68    177      1 ;    C44 - H86   
    68    178      1 ;    C44 - H87   
    69     72      1 ;    C45 - C47   
    69    183      1 ;    C45 - H92   
    69    184      1 ;    C45 - H93   
    70     73      1 ;    O23 - O24   
    70    179      1 ;    O23 - H88   
    70    180      1 ;    O23 - H89   
    70    185      1 ;    O23 - H94   
    70    186      1 ;    O23 - H95   
    71     74      1 ;    C46 - C48   
    71    181      1 ;    C46 - H90   
    71    182      1 ;    C46 - H91   
    72     75      1 ;    C47 - C49   
    72    187      1 ;    C47 - H96   
    72    188      1 ;    C47 - H97   
    73     76      1 ;    O24 - O25   
    73    183      1 ;    O24 - H92   
    73    184      1 ;    O24 - H93   
    73    189      1 ;    O24 - H98   
    73    190      1 ;    O24 - H99   
    74     77      1 ;    C48 - C50   
    74    185      1 ;    C48 - H94   
    74    186      1 ;    C48 - H95   
    75     78      1 ;    C49 - C51   
    75    191      1 ;    C49 - H100  
    75    192      1 ;    C49 - H101  
    76     79      1 ;    O25 - O26   
    76    187      1 ;    O25 - H96   
    76    188      1 ;    O25 - H97   
    76    193      1 ;    O25 - H102  
    76    194      1 ;    O25 - H103  
    77     80      1 ;    C50 - C52   
    77    189      1 ;    C50 - H98   
    77    190      1 ;    C50 - H99   
    78     81      1 ;    C51 - C53   
    78    195      1 ;    C51 - H104  
    78    196      1 ;    C51 - H105  
    79     82      1 ;    O26 - O27   
    79    191      1 ;    O26 - H100  
    79    192      1 ;    O26 - H101  
    79    197      1 ;    O26 - H106  
    79    198      1 ;    O26 - H107  
    80     83      1 ;    C52 - C54   
    80    193      1 ;    C52 - H102  
    80    194      1 ;    C52 - H103  
    81     84      1 ;    C53 - C55   
    81    199      1 ;    C53 - H108  
    81    200      1 ;    C53 - H109  
    82     85      1 ;    O27 - O28   
    82    195      1 ;    O27 - H104  
    82    196      1 ;    O27 - H105  
    82    201      1 ;    O27 - H110  
    82    202      1 ;    O27 - H111  
    83     86      1 ;    C54 - C56   
    83    197      1 ;    C54 - H106  
    83    198      1 ;    C54 - H107  
    84     87      1 ;    C55 - C57   
    84    203      1 ;    C55 - H112  
    84    204      1 ;    C55 - H113  
    85     88      1 ;    O28 - O29   
    85    199      1 ;    O28 - H108  
    85    200      1 ;    O28 - H109  
    85    205      1 ;    O28 - H114  
    85    206      1 ;    O28 - H115  
    86     89      1 ;    C56 - C58   
    86    201      1 ;    C56 - H110  
    86    202      1 ;    C56 - H111  
    87     90      1 ;    C57 - C59   
    87    207      1 ;    C57 - H116  
    87    208      1 ;    C57 - H117  
    88    203      1 ;    O29 - H112  
    88    204      1 ;    O29 - H113  
    88    209      1 ;    O29 - H118  
    88    210      1 ;    O29 - H119  
    89    205      1 ;    C58 - H114  
    89    206      1 ;    C58 - H115  
    90      3      1 ;    C59 - C1    
    90     91      1 ;    C59 - H     
    90     92      1 ;    C59 - H1    
    91     93      1 ;      H - H2    
    91     94      1 ;      H - H3    
    92     93      1 ;     H1 - H2    
    92     94      1 ;     H1 - H3    
    95     97      1 ;     H4 - H6    
    95     98      1 ;     H4 - H7    
    96     97      1 ;     H5 - H6    
    96     98      1 ;     H5 - H7    
    99    101      1 ;     H8 - H10   
    99    102      1 ;     H8 - H11   
   100    101      1 ;     H9 - H10   
   100    102      1 ;     H9 - H11   
   103    105      1 ;    H12 - H14   
   103    106      1 ;    H12 - H15   
   104    105      1 ;    H13 - H14   
   104    106      1 ;    H13 - H15   
   107    109      1 ;    H16 - H18   
   107    110      1 ;    H16 - H19   
   108    109      1 ;    H17 - H18   
   108    110      1 ;    H17 - H19   
   111    113      1 ;    H20 - H22   
   111    114      1 ;    H20 - H23   
   112    113      1 ;    H21 - H22   
   112    114      1 ;    H21 - H23   
   115    117      1 ;    H24 - H26   
   115    118      1 ;    H24 - H27   
   116    117      1 ;    H25 - H26   
   116    118      1 ;    H25 - H27   
   119    121      1 ;    H28 - H30   
   119    122      1 ;    H28 - H31   
   120    121      1 ;    H29 - H30   
   120    122      1 ;    H29 - H31   
   123    125      1 ;    H32 - H34   
   123    126      1 ;    H32 - H35   
   124    125      1 ;    H33 - H34   
   124    126      1 ;    H33 - H35   
   127    129      1 ;    H36 - H38   
   127    130      1 ;    H36 - H39   
   128    129      1 ;    H37 - H38   
   128    130      1 ;    H37 - H39   
   131    133      1 ;    H40 - H42   
   131    134      1 ;    H40 - H43   
   132    133      1 ;    H41 - H42   
   132    134      1 ;    H41 - H43   
   135    137      1 ;    H44 - H46   
   135    138      1 ;    H44 - H47   
   136    137      1 ;    H45 - H46   
   136    138      1 ;    H45 - H47   
   139    141      1 ;    H48 - H50   
   139    142      1 ;    H48 - H51   
   140    141      1 ;    H49 - H50   
   140    142      1 ;    H49 - H51   
   143    145      1 ;    H52 - H54   
   143    146      1 ;    H52 - H55   
   144    145      1 ;    H53 - H54   
   144    146      1 ;    H53 - H55   
   147    149      1 ;    H56 - H58   
   147    150      1 ;    H56 - H59   
   148    149      1 ;    H57 - H58   
   148    150      1 ;    H57 - H59   
   151    153      1 ;    H60 - H62   
   151    154      1 ;    H60 - H63   
   152    153      1 ;    H61 - H62   
   152    154      1 ;    H61 - H63   
   155    157      1 ;    H64 - H66   
   155    158      1 ;    H64 - H67   
   156    157      1 ;    H65 - H66   
   156    158      1 ;    H65 - H67   
   159    161      1 ;    H68 - H70   
   159    162      1 ;    H68 - H71   
   160    161      1 ;    H69 - H70   
   160    162      1 ;    H69 - H71   
   163    165      1 ;    H72 - H74   
   163    166      1 ;    H72 - H75   
   164    165      1 ;    H73 - H74   
   164    166      1 ;    H73 - H75   
   167    169      1 ;    H76 - H78   
   167    170      1 ;    H76 - H79   
   168    169      1 ;    H77 - H78   
   168    170      1 ;    H77 - H79   
   171    173      1 ;    H80 - H82   
   171    174      1 ;    H80 - H83   
   172    173      1 ;    H81 - H82   
   172    174      1 ;    H81 - H83   
   175    177      1 ;    H84 - H86   
   175    178      1 ;    H84 - H87   
   176    177      1 ;    H85 - H86   
   176    178      1 ;    H85 - H87   
   179    181      1 ;    H88 - H90   
   179    182      1 ;    H88 - H91   
   180    181      1 ;    H89 - H90   
   180    182      1 ;    H89 - H91   
   183    185      1 ;    H92 - H94   
   183    186      1 ;    H92 - H95   
   184    185      1 ;    H93 - H94   
   184    186      1 ;    H93 - H95   
   187    189      1 ;    H96 - H98   
   187    190      1 ;    H96 - H99   
   188    189      1 ;    H97 - H98   
   188    190      1 ;    H97 - H99   
   191    193      1 ;   H100 - H102  
   191    194      1 ;   H100 - H103  
   192    193      1 ;   H101 - H102  
   192    194      1 ;   H101 - H103  
   195    197      1 ;   H104 - H106  
   195    198      1 ;   H104 - H107  
   196    197      1 ;   H105 - H106  
   196    198      1 ;   H105 - H107  
   199    201      1 ;   H108 - H110  
   199    202      1 ;   H108 - H111  
   200    201      1 ;   H109 - H110  
   200    202      1 ;   H109 - H111  
   203    205      1 ;   H112 - H114  
   203    206      1 ;   H112 - H115  
   204    205      1 ;   H113 - H114  
   204    206      1 ;   H113 - H115  
   207    209      1 ;   H116 - H118  
   207    210      1 ;   H116 - H119  
   208    209      1 ;   H117 - H118  
   208    210      1 ;   H117 - H119  

[ angles ]
;   ai     aj     ak    funct   theta         cth
     1      2      3      1    1.0797e+02    7.1379e+02 ;      O - C      - C1    
     1      2     91      1    1.0978e+02    5.2216e+02 ;      O - C      - H     
     1      2     92      1    1.0978e+02    5.2216e+02 ;      O - C      - H1    
     1     90     89      1    1.0797e+02    7.1379e+02 ;      O - C59    - C58   
     1     90    209      1    1.0978e+02    5.2216e+02 ;      O - C59    - H118  
     1     90    210      1    1.0978e+02    5.2216e+02 ;      O - C59    - H119  
     2      1     90      1    1.1248e+02    5.5480e+02 ;      C - O      - C59   
     2      3      4      1    1.0797e+02    7.1379e+02 ;      C - C1     - O1    
     2      3     93      1    1.0956e+02    3.9246e+02 ;      C - C1     - H2    
     2      3     94      1    1.0956e+02    3.9246e+02 ;      C - C1     - H3    
     3      2     91      1    1.0956e+02    3.9246e+02 ;     C1 - C      - H     
     3      2     92      1    1.0956e+02    3.9246e+02 ;     C1 - C      - H1    
     3      4      5      1    1.1248e+02    5.5480e+02 ;     C1 - O1     - C2    
     4      3     93      1    1.0978e+02    5.2216e+02 ;     O1 - C1     - H2    
     4      3     94      1    1.0978e+02    5.2216e+02 ;     O1 - C1     - H3    
     4      5      6      1    1.0797e+02    7.1379e+02 ;     O1 - C2     - C3    
     4      5     95      1    1.0978e+02    5.2216e+02 ;     O1 - C2     - H4    
     4      5     96      1    1.0978e+02    5.2216e+02 ;     O1 - C2     - H5    
     5      6      7      1    1.0797e+02    7.1379e+02 ;     C2 - C3     - O2    
     5      6     97      1    1.0956e+02    3.9246e+02 ;     C2 - C3     - H6    
     5      6     98      1    1.0956e+02    3.9246e+02 ;     C2 - C3     - H7    
     6      5     95      1    1.0956e+02    3.9246e+02 ;     C3 - C2     - H4    
     6      5     96      1    1.0956e+02    3.9246e+02 ;     C3 - C2     - H5    
     6      7      8      1    1.1248e+02    5.5480e+02 ;     C3 - O2     - C4    
     7      6     97      1    1.0978e+02    5.2216e+02 ;     O2 - C3     - H6    
     7      6     98      1    1.0978e+02    5.2216e+02 ;     O2 - C3     - H7    
     7      8      9      1    1.0797e+02    7.1379e+02 ;     O2 - C4     - C5    
     7      8     99      1    1.0978e+02    5.2216e+02 ;     O2 - C4     - H8    
     7      8    100      1    1.0978e+02    5.2216e+02 ;     O2 - C4     - H9    
     8      9     10      1    1.0797e+02    7.1379e+02 ;     C4 - C5     - O3    
     8      9    101      1    1.0956e+02    3.9246e+02 ;     C4 - C5     - H10   
     8      9    102      1    1.0956e+02    3.9246e+02 ;     C4 - C5     - H11   
     9      8     99      1    1.0956e+02    3.9246e+02 ;     C5 - C4     - H8    
     9      8    100      1    1.0956e+02    3.9246e+02 ;     C5 - C4     - H9    
     9     10     11      1    1.1248e+02    5.5480e+02 ;     C5 - O3     - C6    
    10      9    101      1    1.0978e+02    5.2216e+02 ;     O3 - C5     - H10   
    10      9    102      1    1.0978e+02    5.2216e+02 ;     O3 - C5     - H11   
    10     11     12      1    1.0797e+02    7.1379e+02 ;     O3 - C6     - C7    
    10     11    103      1    1.0978e+02    5.2216e+02 ;     O3 - C6     - H12   
    10     11    104      1    1.0978e+02    5.2216e+02 ;     O3 - C6     - H13   
    11     12     13      1    1.0797e+02    7.1379e+02 ;     C6 - C7     - O4    
    11     12    105      1    1.0956e+02    3.9246e+02 ;     C6 - C7     - H14   
    11     12    106      1    1.0956e+02    3.9246e+02 ;     C6 - C7     - H15   
    12     11    103      1    1.0956e+02    3.9246e+02 ;     C7 - C6     - H12   
    12     11    104      1    1.0956e+02    3.9246e+02 ;     C7 - C6     - H13   
    12     13     14      1    1.1248e+02    5.5480e+02 ;     C7 - O4     - C8    
    13     12    105      1    1.0978e+02    5.2216e+02 ;     O4 - C7     - H14   
    13     12    106      1    1.0978e+02    5.2216e+02 ;     O4 - C7     - H15   
    13     14     15      1    1.0797e+02    7.1379e+02 ;     O4 - C8     - C9    
    13     14    107      1    1.0978e+02    5.2216e+02 ;     O4 - C8     - H16   
    13     14    108      1    1.0978e+02    5.2216e+02 ;     O4 - C8     - H17   
    14     15     16      1    1.0797e+02    7.1379e+02 ;     C8 - C9     - O5    
    14     15    109      1    1.0956e+02    3.9246e+02 ;     C8 - C9     - H18   
    14     15    110      1    1.0956e+02    3.9246e+02 ;     C8 - C9     - H19   
    15     14    107      1    1.0956e+02    3.9246e+02 ;     C9 - C8     - H16   
    15     14    108      1    1.0956e+02    3.9246e+02 ;     C9 - C8     - H17   
    15     16     17      1    1.1248e+02    5.5480e+02 ;     C9 - O5     - C10   
    16     15    109      1    1.0978e+02    5.2216e+02 ;     O5 - C9     - H18   
    16     15    110      1    1.0978e+02    5.2216e+02 ;     O5 - C9     - H19   
    16     17     18      1    1.0797e+02    7.1379e+02 ;     O5 - C10    - C11   
    16     17    111      1    1.0978e+02    5.2216e+02 ;     O5 - C10    - H20   
    16     17    112      1    1.0978e+02    5.2216e+02 ;     O5 - C10    - H21   
    17     18     19      1    1.0797e+02    7.1379e+02 ;    C10 - C11    - O6    
    17     18    113      1    1.0956e+02    3.9246e+02 ;    C10 - C11    - H22   
    17     18    114      1    1.0956e+02    3.9246e+02 ;    C10 - C11    - H23   
    18     17    111      1    1.0956e+02    3.9246e+02 ;    C11 - C10    - H20   
    18     17    112      1    1.0956e+02    3.9246e+02 ;    C11 - C10    - H21   
    18     19     20      1    1.1248e+02    5.5480e+02 ;    C11 - O6     - C12   
    19     18    113      1    1.0978e+02    5.2216e+02 ;     O6 - C11    - H22   
    19     18    114      1    1.0978e+02    5.2216e+02 ;     O6 - C11    - H23   
    19     20     21      1    1.0797e+02    7.1379e+02 ;     O6 - C12    - C13   
    19     20    115      1    1.0978e+02    5.2216e+02 ;     O6 - C12    - H24   
    19     20    116      1    1.0978e+02    5.2216e+02 ;     O6 - C12    - H25   
    20     21     22      1    1.0797e+02    7.1379e+02 ;    C12 - C13    - O7    
    20     21    117      1    1.0956e+02    3.9246e+02 ;    C12 - C13    - H26   
    20     21    118      1    1.0956e+02    3.9246e+02 ;    C12 - C13    - H27   
    21     20    115      1    1.0956e+02    3.9246e+02 ;    C13 - C12    - H24   
    21     20    116      1    1.0956e+02    3.9246e+02 ;    C13 - C12    - H25   
    21     22     23      1    1.1248e+02    5.5480e+02 ;    C13 - O7     - C14   
    22     21    117      1    1.0978e+02    5.2216e+02 ;     O7 - C13    - H26   
    22     21    118      1    1.0978e+02    5.2216e+02 ;     O7 - C13    - H27   
    22     23     24      1    1.0797e+02    7.1379e+02 ;     O7 - C14    - C15   
    22     23    119      1    1.0978e+02    5.2216e+02 ;     O7 - C14    - H28   
    22     23    120      1    1.0978e+02    5.2216e+02 ;     O7 - C14    - H29   
    23     24     25      1    1.0797e+02    7.1379e+02 ;    C14 - C15    - O8    
    23     24    121      1    1.0956e+02    3.9246e+02 ;    C14 - C15    - H30   
    23     24    122      1    1.0956e+02    3.9246e+02 ;    C14 - C15    - H31   
    24     23    119      1    1.0956e+02    3.9246e+02 ;    C15 - C14    - H28   
    24     23    120      1    1.0956e+02    3.9246e+02 ;    C15 - C14    - H29   
    24     25     26      1    1.1248e+02    5.5480e+02 ;    C15 - O8     - C16   
    25     24    121      1    1.0978e+02    5.2216e+02 ;     O8 - C15    - H30   
    25     24    122      1    1.0978e+02    5.2216e+02 ;     O8 - C15    - H31   
    25     26     27      1    1.0797e+02    7.1379e+02 ;     O8 - C16    - C17   
    25     26    123      1    1.0978e+02    5.2216e+02 ;     O8 - C16    - H32   
    25     26    124      1    1.0978e+02    5.2216e+02 ;     O8 - C16    - H33   
    26     27     28      1    1.0797e+02    7.1379e+02 ;    C16 - C17    - O9    
    26     27    125      1    1.0956e+02    3.9246e+02 ;    C16 - C17    - H34   
    26     27    126      1    1.0956e+02    3.9246e+02 ;    C16 - C17    - H35   
    27     26    123      1    1.0956e+02    3.9246e+02 ;    C17 - C16    - H32   
    27     26    124      1    1.0956e+02    3.9246e+02 ;    C17 - C16    - H33   
    27     28     29      1    1.1248e+02    5.5480e+02 ;    C17 - O9     - C18   
    28     27    125      1    1.0978e+02    5.2216e+02 ;     O9 - C17    - H34   
    28     27    126      1    1.0978e+02    5.2216e+02 ;     O9 - C17    - H35   
    28     29     30      1    1.0797e+02    7.1379e+02 ;     O9 - C18    - C19   
    28     29    127      1    1.0978e+02    5.2216e+02 ;     O9 - C18    - H36   
    28     29    128      1    1.0978e+02    5.2216e+02 ;     O9 - C18    - H37   
    29     30     31      1    1.0797e+02    7.1379e+02 ;    C18 - C19    - O10   
    29     30    129      1    1.0956e+02    3.9246e+02 ;    C18 - C19    - H38   
    29     30    130      1    1.0956e+02    3.9246e+02 ;    C18 - C19    - H39   
    30     29    127      1    1.0956e+02    3.9246e+02 ;    C19 - C18    - H36   
    30     29    128      1    1.0956e+02    3.9246e+02 ;    C19 - C18    - H37   
    30     31     32      1    1.1248e+02    5.5480e+02 ;    C19 - O10    - C20   
    31     30    129      1    1.0978e+02    5.2216e+02 ;    O10 - C19    - H38   
    31     30    130      1    1.0978e+02    5.2216e+02 ;    O10 - C19    - H39   
    31     32     33      1    1.0797e+02    7.1379e+02 ;    O10 - C20    - C21   
    31     32    131      1    1.0978e+02    5.2216e+02 ;    O10 - C20    - H40   
    31     32    132      1    1.0978e+02    5.2216e+02 ;    O10 - C20    - H41   
    32     33     34      1    1.0797e+02    7.1379e+02 ;    C20 - C21    - O11   
    32     33    133      1    1.0956e+02    3.9246e+02 ;    C20 - C21    - H42   
    32     33    134      1    1.0956e+02    3.9246e+02 ;    C20 - C21    - H43   
    33     32    131      1    1.0956e+02    3.9246e+02 ;    C21 - C20    - H40   
    33     32    132      1    1.0956e+02    3.9246e+02 ;    C21 - C20    - H41   
    33     34     35      1    1.1248e+02    5.5480e+02 ;    C21 - O11    - C22   
    34     33    133      1    1.0978e+02    5.2216e+02 ;    O11 - C21    - H42   
    34     33    134      1    1.0978e+02    5.2216e+02 ;    O11 - C21    - H43   
    34     35     36      1    1.0797e+02    7.1379e+02 ;    O11 - C22    - C23   
    34     35    135      1    1.0978e+02    5.2216e+02 ;    O11 - C22    - H44   
    34     35    136      1    1.0978e+02    5.2216e+02 ;    O11 - C22    - H45   
    35     36     37      1    1.0797e+02    7.1379e+02 ;    C22 - C23    - O12   
    35     36    137      1    1.0956e+02    3.9246e+02 ;    C22 - C23    - H46   
    35     36    138      1    1.0956e+02    3.9246e+02 ;    C22 - C23    - H47   
    36     35    135      1    1.0956e+02    3.9246e+02 ;    C23 - C22    - H44   
    36     35    136      1    1.0956e+02    3.9246e+02 ;    C23 - C22    - H45   
    36     37     38      1    1.1248e+02    5.5480e+02 ;    C23 - O12    - C24   
    37     36    137      1    1.0978e+02    5.2216e+02 ;    O12 - C23    - H46   
    37     36    138      1    1.0978e+02    5.2216e+02 ;    O12 - C23    - H47   
    37     38     39      1    1.0797e+02    7.1379e+02 ;    O12 - C24    - C25   
    37     38    139      1    1.0978e+02    5.2216e+02 ;    O12 - C24    - H48   
    37     38    140      1    1.0978e+02    5.2216e+02 ;    O12 - C24    - H49   
    38     39     40      1    1.0797e+02    7.1379e+02 ;    C24 - C25    - O13   
    38     39    141      1    1.0956e+02    3.9246e+02 ;    C24 - C25    - H50   
    38     39    142      1    1.0956e+02    3.9246e+02 ;    C24 - C25    - H51   
    39     38    139      1    1.0956e+02    3.9246e+02 ;    C25 - C24    - H48   
    39     38    140      1    1.0956e+02    3.9246e+02 ;    C25 - C24    - H49   
    39     40     41      1    1.1248e+02    5.5480e+02 ;    C25 - O13    - C26   
    40     39    141      1    1.0978e+02    5.2216e+02 ;    O13 - C25    - H50   
    40     39    142      1    1.0978e+02    5.2216e+02 ;    O13 - C25    - H51   
    40     41     42      1    1.0797e+02    7.1379e+02 ;    O13 - C26    - C27   
    40     41    143      1    1.0978e+02    5.2216e+02 ;    O13 - C26    - H52   
    40     41    144      1    1.0978e+02    5.2216e+02 ;    O13 - C26    - H53   
    41     42     43      1    1.0797e+02    7.1379e+02 ;    C26 - C27    - O14   
    41     42    145      1    1.0956e+02    3.9246e+02 ;    C26 - C27    - H54   
    41     42    146      1    1.0956e+02    3.9246e+02 ;    C26 - C27    - H55   
    42     41    143      1    1.0956e+02    3.9246e+02 ;    C27 - C26    - H52   
    42     41    144      1    1.0956e+02    3.9246e+02 ;    C27 - C26    - H53   
    42     43     44      1    1.1248e+02    5.5480e+02 ;    C27 - O14    - C28   
    43     42    145      1    1.0978e+02    5.2216e+02 ;    O14 - C27    - H54   
    43     42    146      1    1.0978e+02    5.2216e+02 ;    O14 - C27    - H55   
    43     44     45      1    1.0797e+02    7.1379e+02 ;    O14 - C28    - C29   
    43     44    147      1    1.0978e+02    5.2216e+02 ;    O14 - C28    - H56   
    43     44    148      1    1.0978e+02    5.2216e+02 ;    O14 - C28    - H57   
    44     45     46      1    1.0797e+02    7.1379e+02 ;    C28 - C29    - O15   
    44     45    149      1    1.0956e+02    3.9246e+02 ;    C28 - C29    - H58   
    44     45    150      1    1.0956e+02    3.9246e+02 ;    C28 - C29    - H59   
    45     44    147      1    1.0956e+02    3.9246e+02 ;    C29 - C28    - H56   
    45     44    148      1    1.0956e+02    3.9246e+02 ;    C29 - C28    - H57   
    45     46     47      1    1.1248e+02    5.5480e+02 ;    C29 - O15    - C30   
    46     45    149      1    1.0978e+02    5.2216e+02 ;    O15 - C29    - H58   
    46     45    150      1    1.0978e+02    5.2216e+02 ;    O15 - C29    - H59   
    46     47     48      1    1.0797e+02    7.1379e+02 ;    O15 - C30    - C31   
    46     47    151      1    1.0978e+02    5.2216e+02 ;    O15 - C30    - H60   
    46     47    152      1    1.0978e+02    5.2216e+02 ;    O15 - C30    - H61   
    47     48     49      1    1.0797e+02    7.1379e+02 ;    C30 - C31    - O16   
    47     48    153      1    1.0956e+02    3.9246e+02 ;    C30 - C31    - H62   
    47     48    154      1    1.0956e+02    3.9246e+02 ;    C30 - C31    - H63   
    48     47    151      1    1.0956e+02    3.9246e+02 ;    C31 - C30    - H60   
    48     47    152      1    1.0956e+02    3.9246e+02 ;    C31 - C30    - H61   
    48     49     50      1    1.1248e+02    5.5480e+02 ;    C31 - O16    - C32   
    49     48    153      1    1.0978e+02    5.2216e+02 ;    O16 - C31    - H62   
    49     48    154      1    1.0978e+02    5.2216e+02 ;    O16 - C31    - H63   
    49     50     51      1    1.0797e+02    7.1379e+02 ;    O16 - C32    - C33   
    49     50    155      1    1.0978e+02    5.2216e+02 ;    O16 - C32    - H64   
    49     50    156      1    1.0978e+02    5.2216e+02 ;    O16 - C32    - H65   
    50     51     52      1    1.0797e+02    7.1379e+02 ;    C32 - C33    - O17   
    50     51    157      1    1.0956e+02    3.9246e+02 ;    C32 - C33    - H66   
    50     51    158      1    1.0956e+02    3.9246e+02 ;    C32 - C33    - H67   
    51     50    155      1    1.0956e+02    3.9246e+02 ;    C33 - C32    - H64   
    51     50    156      1    1.0956e+02    3.9246e+02 ;    C33 - C32    - H65   
    51     52     53      1    1.1248e+02    5.5480e+02 ;    C33 - O17    - C34   
    52     51    157      1    1.0978e+02    5.2216e+02 ;    O17 - C33    - H66   
    52     51    158      1    1.0978e+02    5.2216e+02 ;    O17 - C33    - H67   
    52     53     54      1    1.0797e+02    7.1379e+02 ;    O17 - C34    - C35   
    52     53    159      1    1.0978e+02    5.2216e+02 ;    O17 - C34    - H68   
    52     53    160      1    1.0978e+02    5.2216e+02 ;    O17 - C34    - H69   
    53     54     55      1    1.0797e+02    7.1379e+02 ;    C34 - C35    - O18   
    53     54    161      1    1.0956e+02    3.9246e+02 ;    C34 - C35    - H70   
    53     54    162      1    1.0956e+02    3.9246e+02 ;    C34 - C35    - H71   
    54     53    159      1    1.0956e+02    3.9246e+02 ;    C35 - C34    - H68   
    54     53    160      1    1.0956e+02    3.9246e+02 ;    C35 - C34    - H69   
    54     55     56      1    1.1248e+02    5.5480e+02 ;    C35 - O18    - C36   
    55     54    161      1    1.0978e+02    5.2216e+02 ;    O18 - C35    - H70   
    55     54    162      1    1.0978e+02    5.2216e+02 ;    O18 - C35    - H71   
    55     56     57      1    1.0797e+02    7.1379e+02 ;    O18 - C36    - C37   
    55     56    163      1    1.0978e+02    5.2216e+02 ;    O18 - C36    - H72   
    55     56    164      1    1.0978e+02    5.2216e+02 ;    O18 - C36    - H73   
    56     57     58      1    1.0797e+02    7.1379e+02 ;    C36 - C37    - O19   
    56     57    165      1    1.0956e+02    3.9246e+02 ;    C36 - C37    - H74   
    56     57    166      1    1.0956e+02    3.9246e+02 ;    C36 - C37    - H75   
    57     56    163      1    1.0956e+02    3.9246e+02 ;    C37 - C36    - H72   
    57     56    164      1    1.0956e+02    3.9246e+02 ;    C37 - C36    - H73   
    57     58     59      1    1.1248e+02    5.5480e+02 ;    C37 - O19    - C38   
    58     57    165      1    1.0978e+02    5.2216e+02 ;    O19 - C37    - H74   
    58     57    166      1    1.0978e+02    5.2216e+02 ;    O19 - C37    - H75   
    58     59     60      1    1.0797e+02    7.1379e+02 ;    O19 - C38    - C39   
    58     59    167      1    1.0978e+02    5.2216e+02 ;    O19 - C38    - H76   
    58     59    168      1    1.0978e+02    5.2216e+02 ;    O19 - C38    - H77   
    59     60     61      1    1.0797e+02    7.1379e+02 ;    C38 - C39    - O20   
    59     60    169      1    1.0956e+02    3.9246e+02 ;    C38 - C39    - H78   
    59     60    170      1    1.0956e+02    3.9246e+02 ;    C38 - C39    - H79   
    60     59    167      1    1.0956e+02    3.9246e+02 ;    C39 - C38    - H76   
    60     59    168      1    1.0956e+02    3.9246e+02 ;    C39 - C38    - H77   
    60     61     62      1    1.1248e+02    5.5480e+02 ;    C39 - O20    - C40   
    61     60    169      1    1.0978e+02    5.2216e+02 ;    O20 - C39    - H78   
    61     60    170      1    1.0978e+02    5.2216e+02 ;    O20 - C39    - H79   
    61     62     63      1    1.0797e+02    7.1379e+02 ;    O20 - C40    - C41   
    61     62    171      1    1.0978e+02    5.2216e+02 ;    O20 - C40    - H80   
    61     62    172      1    1.0978e+02    5.2216e+02 ;    O20 - C40    - H81   
    62     63     64      1    1.0797e+02    7.1379e+02 ;    C40 - C41    - O21   
    62     63    173      1    1.0956e+02    3.9246e+02 ;    C40 - C41    - H82   
    62     63    174      1    1.0956e+02    3.9246e+02 ;    C40 - C41    - H83   
    63     62    171      1    1.0956e+02    3.9246e+02 ;    C41 - C40    - H80   
    63     62    172      1    1.0956e+02    3.9246e+02 ;    C41 - C40    - H81   
    63     64     65      1    1.1248e+02    5.5480e+02 ;    C41 - O21    - C42   
    64     63    173      1    1.0978e+02    5.2216e+02 ;    O21 - C41    - H82   
    64     63    174      1    1.0978e+02    5.2216e+02 ;    O21 - C41    - H83   
    64     65     66      1    1.0797e+02    7.1379e+02 ;    O21 - C42    - C43   
    64     65    175      1    1.0978e+02    5.2216e+02 ;    O21 - C42    - H84   
    64     65    176      1    1.0978e+02    5.2216e+02 ;    O21 - C42    - H85   
    65     66     67      1    1.0797e+02    7.1379e+02 ;    C42 - C43    - O22   
    65     66    177      1    1.0956e+02    3.9246e+02 ;    C42 - C43    - H86   
    65     66    178      1    1.0956e+02    3.9246e+02 ;    C42 - C43    - H87   
    66     65    175      1    1.0956e+02    3.9246e+02 ;    C43 - C42    - H84   
    66     65    176      1    1.0956e+02    3.9246e+02 ;    C43 - C42    - H85   
    66     67     68      1    1.1248e+02    5.5480e+02 ;    C43 - O22    - C44   
    67     66    177      1    1.0978e+02    5.2216e+02 ;    O22 - C43    - H86   
    67     66    178      1    1.0978e+02    5.2216e+02 ;    O22 - C43    - H87   
    67     68     69      1    1.0797e+02    7.1379e+02 ;    O22 - C44    - C45   
    67     68    179      1    1.0978e+02    5.2216e+02 ;    O22 - C44    - H88   
    67     68    180      1    1.0978e+02    5.2216e+02 ;    O22 - C44    - H89   
    68     69     70      1    1.0797e+02    7.1379e+02 ;    C44 - C45    - O23   
    68     69    181      1    1.0956e+02    3.9246e+02 ;    C44 - C45    - H90   
    68     69    182      1    1.0956e+02    3.9246e+02 ;    C44 - C45    - H91   
    69     68    179      1    1.0956e+02    3.9246e+02 ;    C45 - C44    - H88   
    69     68    180      1    1.0956e+02    3.9246e+02 ;    C45 - C44    - H89   
    69     70     71      1    1.1248e+02    5.5480e+02 ;    C45 - O23    - C46   
    70     69    181      1    1.0978e+02    5.2216e+02 ;    O23 - C45    - H90   
    70     69    182      1    1.0978e+02    5.2216e+02 ;    O23 - C45    - H91   
    70     71     72      1    1.0797e+02    7.1379e+02 ;    O23 - C46    - C47   
    70     71    183      1    1.0978e+02    5.2216e+02 ;    O23 - C46    - H92   
    70     71    184      1    1.0978e+02    5.2216e+02 ;    O23 - C46    - H93   
    71     72     73      1    1.0797e+02    7.1379e+02 ;    C46 - C47    - O24   
    71     72    185      1    1.0956e+02    3.9246e+02 ;    C46 - C47    - H94   
    71     72    186      1    1.0956e+02    3.9246e+02 ;    C46 - C47    - H95   
    72     71    183      1    1.0956e+02    3.9246e+02 ;    C47 - C46    - H92   
    72     71    184      1    1.0956e+02    3.9246e+02 ;    C47 - C46    - H93   
    72     73     74      1    1.1248e+02    5.5480e+02 ;    C47 - O24    - C48   
    73     72    185      1    1.0978e+02    5.2216e+02 ;    O24 - C47    - H94   
    73     72    186      1    1.0978e+02    5.2216e+02 ;    O24 - C47    - H95   
    73     74     75      1    1.0797e+02    7.1379e+02 ;    O24 - C48    - C49   
    73     74    187      1    1.0978e+02    5.2216e+02 ;    O24 - C48    - H96   
    73     74    188      1    1.0978e+02    5.2216e+02 ;    O24 - C48    - H97   
    74     75     76      1    1.0797e+02    7.1379e+02 ;    C48 - C49    - O25   
    74     75    189      1    1.0956e+02    3.9246e+02 ;    C48 - C49    - H98   
    74     75    190      1    1.0956e+02    3.9246e+02 ;    C48 - C49    - H99   
    75     74    187      1    1.0956e+02    3.9246e+02 ;    C49 - C48    - H96   
    75     74    188      1    1.0956e+02    3.9246e+02 ;    C49 - C48    - H97   
    75     76     77      1    1.1248e+02    5.5480e+02 ;    C49 - O25    - C50   
    76     75    189      1    1.0978e+02    5.2216e+02 ;    O25 - C49    - H98   
    76     75    190      1    1.0978e+02    5.2216e+02 ;    O25 - C49    - H99   
    76     77     78      1    1.0797e+02    7.1379e+02 ;    O25 - C50    - C51   
    76     77    191      1    1.0978e+02    5.2216e+02 ;    O25 - C50    - H100  
    76     77    192      1    1.0978e+02    5.2216e+02 ;    O25 - C50    - H101  
    77     78     79      1    1.0797e+02    7.1379e+02 ;    C50 - C51    - O26   
    77     78    193      1    1.0956e+02    3.9246e+02 ;    C50 - C51    - H102  
    77     78    194      1    1.0956e+02    3.9246e+02 ;    C50 - C51    - H103  
    78     77    191      1    1.0956e+02    3.9246e+02 ;    C51 - C50    - H100  
    78     77    192      1    1.0956e+02    3.9246e+02 ;    C51 - C50    - H101  
    78     79     80      1    1.1248e+02    5.5480e+02 ;    C51 - O26    - C52   
    79     78    193      1    1.0978e+02    5.2216e+02 ;    O26 - C51    - H102  
    79     78    194      1    1.0978e+02    5.2216e+02 ;    O26 - C51    - H103  
    79     80     81      1    1.0797e+02    7.1379e+02 ;    O26 - C52    - C53   
    79     80    195      1    1.0978e+02    5.2216e+02 ;    O26 - C52    - H104  
    79     80    196      1    1.0978e+02    5.2216e+02 ;    O26 - C52    - H105  
    80     81     82      1    1.0797e+02    7.1379e+02 ;    C52 - C53    - O27   
    80     81    197      1    1.0956e+02    3.9246e+02 ;    C52 - C53    - H106  
    80     81    198      1    1.0956e+02    3.9246e+02 ;    C52 - C53    - H107  
    81     80    195      1    1.0956e+02    3.9246e+02 ;    C53 - C52    - H104  
    81     80    196      1    1.0956e+02    3.9246e+02 ;    C53 - C52    - H105  
    81     82     83      1    1.1248e+02    5.5480e+02 ;    C53 - O27    - C54   
    82     81    197      1    1.0978e+02    5.2216e+02 ;    O27 - C53    - H106  
    82     81    198      1    1.0978e+02    5.2216e+02 ;    O27 - C53    - H107  
    82     83     84      1    1.0797e+02    7.1379e+02 ;    O27 - C54    - C55   
    82     83    199      1    1.0978e+02    5.2216e+02 ;    O27 - C54    - H108  
    82     83    200      1    1.0978e+02    5.2216e+02 ;    O27 - C54    - H109  
    83     84     85      1    1.0797e+02    7.1379e+02 ;    C54 - C55    - O28   
    83     84    201      1    1.0956e+02    3.9246e+02 ;    C54 - C55    - H110  
    83     84    202      1    1.0956e+02    3.9246e+02 ;    C54 - C55    - H111  
    84     83    199      1    1.0956e+02    3.9246e+02 ;    C55 - C54    - H108  
    84     83    200      1    1.0956e+02    3.9246e+02 ;    C55 - C54    - H109  
    84     85     86      1    1.1248e+02    5.5480e+02 ;    C55 - O28    - C56   
    85     84    201      1    1.0978e+02    5.2216e+02 ;    O28 - C55    - H110  
    85     84    202      1    1.0978e+02    5.2216e+02 ;    O28 - C55    - H111  
    85     86     87      1    1.0797e+02    7.1379e+02 ;    O28 - C56    - C57   
    85     86    203      1    1.0978e+02    5.2216e+02 ;    O28 - C56    - H112  
    85     86    204      1    1.0978e+02    5.2216e+02 ;    O28 - C56    - H113  
    86     87     88      1    1.0797e+02    7.1379e+02 ;    C56 - C57    - O29   
    86     87    205      1    1.0956e+02    3.9246e+02 ;    C56 - C57    - H114  
    86     87    206      1    1.0956e+02    3.9246e+02 ;    C56 - C57    - H115  
    87     86    203      1    1.0956e+02    3.9246e+02 ;    C57 - C56    - H112  
    87     86    204      1    1.0956e+02    3.9246e+02 ;    C57 - C56    - H113  
    87     88     89      1    1.1248e+02    5.5480e+02 ;    C57 - O29    - C58   
    88     87    205      1    1.0978e+02    5.2216e+02 ;    O29 - C57    - H114  
    88     87    206      1    1.0978e+02    5.2216e+02 ;    O29 - C57    - H115  
    88     89     90      1    1.0797e+02    7.1379e+02 ;    O29 - C58    - C59   
    88     89    207      1    1.0978e+02    5.2216e+02 ;    O29 - C58    - H116  
    88     89    208      1    1.0978e+02    5.2216e+02 ;    O29 - C58    - H117  
    89     90    209      1    1.0956e+02    3.9246e+02 ;    C58 - C59    - H118  
    89     90    210      1    1.0956e+02    3.9246e+02 ;    C58 - C59    - H119  
    90     89    207      1    1.0956e+02    3.9246e+02 ;    C59 - C58    - H116  
    90     89    208      1    1.0956e+02    3.9246e+02 ;    C59 - C58    - H117  
    91      2     92      1    1.0846e+02    3.2468e+02 ;      H - C      - H1    
    93      3     94      1    1.0846e+02    3.2468e+02 ;     H2 - C1     - H3    
    95      5     96      1    1.0846e+02    3.2468e+02 ;     H4 - C2     - H5    
    97      6     98      1    1.0846e+02    3.2468e+02 ;     H6 - C3     - H7    
    99      8    100      1    1.0846e+02    3.2468e+02 ;     H8 - C4     - H9    
   101      9    102      1    1.0846e+02    3.2468e+02 ;    H10 - C5     - H11   
   103     11    104      1    1.0846e+02    3.2468e+02 ;    H12 - C6     - H13   
   105     12    106      1    1.0846e+02    3.2468e+02 ;    H14 - C7     - H15   
   107     14    108      1    1.0846e+02    3.2468e+02 ;    H16 - C8     - H17   
   109     15    110      1    1.0846e+02    3.2468e+02 ;    H18 - C9     - H19   
   111     17    112      1    1.0846e+02    3.2468e+02 ;    H20 - C10    - H21   
   113     18    114      1    1.0846e+02    3.2468e+02 ;    H22 - C11    - H23   
   115     20    116      1    1.0846e+02    3.2468e+02 ;    H24 - C12    - H25   
   117     21    118      1    1.0846e+02    3.2468e+02 ;    H26 - C13    - H27   
   119     23    120      1    1.0846e+02    3.2468e+02 ;    H28 - C14    - H29   
   121     24    122      1    1.0846e+02    3.2468e+02 ;    H30 - C15    - H31   
   123     26    124      1    1.0846e+02    3.2468e+02 ;    H32 - C16    - H33   
   125     27    126      1    1.0846e+02    3.2468e+02 ;    H34 - C17    - H35   
   127     29    128      1    1.0846e+02    3.2468e+02 ;    H36 - C18    - H37   
   129     30    130      1    1.0846e+02    3.2468e+02 ;    H38 - C19    - H39   
   131     32    132      1    1.0846e+02    3.2468e+02 ;    H40 - C20    - H41   
   133     33    134      1    1.0846e+02    3.2468e+02 ;    H42 - C21    - H43   
   135     35    136      1    1.0846e+02    3.2468e+02 ;    H44 - C22    - H45   
   137     36    138      1    1.0846e+02    3.2468e+02 ;    H46 - C23    - H47   
   139     38    140      1    1.0846e+02    3.2468e+02 ;    H48 - C24    - H49   
   141     39    142      1    1.0846e+02    3.2468e+02 ;    H50 - C25    - H51   
   143     41    144      1    1.0846e+02    3.2468e+02 ;    H52 - C26    - H53   
   145     42    146      1    1.0846e+02    3.2468e+02 ;    H54 - C27    - H55   
   147     44    148      1    1.0846e+02    3.2468e+02 ;    H56 - C28    - H57   
   149     45    150      1    1.0846e+02    3.2468e+02 ;    H58 - C29    - H59   
   151     47    152      1    1.0846e+02    3.2468e+02 ;    H60 - C30    - H61   
   153     48    154      1    1.0846e+02    3.2468e+02 ;    H62 - C31    - H63   
   155     50    156      1    1.0846e+02    3.2468e+02 ;    H64 - C32    - H65   
   157     51    158      1    1.0846e+02    3.2468e+02 ;    H66 - C33    - H67   
   159     53    160      1    1.0846e+02    3.2468e+02 ;    H68 - C34    - H69   
   161     54    162      1    1.0846e+02    3.2468e+02 ;    H70 - C35    - H71   
   163     56    164      1    1.0846e+02    3.2468e+02 ;    H72 - C36    - H73   
   165     57    166      1    1.0846e+02    3.2468e+02 ;    H74 - C37    - H75   
   167     59    168      1    1.0846e+02    3.2468e+02 ;    H76 - C38    - H77   
   169     60    170      1    1.0846e+02    3.2468e+02 ;    H78 - C39    - H79   
   171     62    172      1    1.0846e+02    3.2468e+02 ;    H80 - C40    - H81   
   173     63    174      1    1.0846e+02    3.2468e+02 ;    H82 - C41    - H83   
   175     65    176      1    1.0846e+02    3.2468e+02 ;    H84 - C42    - H85   
   177     66    178      1    1.0846e+02    3.2468e+02 ;    H86 - C43    - H87   
   179     68    180      1    1.0846e+02    3.2468e+02 ;    H88 - C44    - H89   
   181     69    182      1    1.0846e+02    3.2468e+02 ;    H90 - C45    - H91   
   183     71    184      1    1.0846e+02    3.2468e+02 ;    H92 - C46    - H93   
   185     72    186      1    1.0846e+02    3.2468e+02 ;    H94 - C47    - H95   
   187     74    188      1    1.0846e+02    3.2468e+02 ;    H96 - C48    - H97   
   189     75    190      1    1.0846e+02    3.2468e+02 ;    H98 - C49    - H99   
   191     77    192      1    1.0846e+02    3.2468e+02 ;   H100 - C50    - H101  
   193     78    194      1    1.0846e+02    3.2468e+02 ;   H102 - C51    - H103  
   195     80    196      1    1.0846e+02    3.2468e+02 ;   H104 - C52    - H105  
   197     81    198      1    1.0846e+02    3.2468e+02 ;   H106 - C53    - H107  
   199     83    200      1    1.0846e+02    3.2468e+02 ;   H108 - C54    - H109  
   201     84    202      1    1.0846e+02    3.2468e+02 ;   H110 - C55    - H111  
   203     86    204      1    1.0846e+02    3.2468e+02 ;   H112 - C56    - H113  
   205     87    206      1    1.0846e+02    3.2468e+02 ;   H114 - C57    - H115  
   207     89    208      1    1.0846e+02    3.2468e+02 ;   H116 - C58    - H117  
   209     90    210      1    1.0846e+02    3.2468e+02 ;   H118 - C59    - H119  

[ dihedrals ] ; propers
; for gromacs 4.5 or higher, using funct 9
;    i      j      k      l   func   phase     kd      pn
     1      2      3      4      9     0.00   0.00000   0 ;      O-     C-    C1-    O1
     1      2      3      4      9   180.00   0.00000   2 ;      O-     C-    C1-    O1
     1      2      3      4      9   180.00   0.71128   1 ;      O-     C-    C1-    O1
     1      2      3     93      9     0.00   0.00000   0 ;      O-     C-    C1-    H2
     1      2      3     93      9     0.00   1.04600   1 ;      O-     C-    C1-    H2
     1      2      3     94      9     0.00   0.00000   0 ;      O-     C-    C1-    H3
     1      2      3     94      9     0.00   1.04600   1 ;      O-     C-    C1-    H3
     1     90     89     88      9     0.00   0.00000   0 ;      O-   C59-   C58-   O29
     1     90     89     88      9   180.00   0.00000   2 ;      O-   C59-   C58-   O29
     1     90     89     88      9   180.00   0.71128   1 ;      O-   C59-   C58-   O29
     1     90     89    207      9     0.00   0.00000   0 ;      O-   C59-   C58-  H116
     1     90     89    207      9     0.00   1.04600   1 ;      O-   C59-   C58-  H116
     1     90     89    208      9     0.00   0.00000   0 ;      O-   C59-   C58-  H117
     1     90     89    208      9     0.00   1.04600   1 ;      O-   C59-   C58-  H117
     2      1     90     89      9     0.00   0.00000   0 ;      C-     O-   C59-   C58
     2      1     90     89      9     0.00   0.66944   2 ;      C-     O-   C59-   C58
     2      1     90     89      9     0.00   1.00416   3 ;      C-     O-   C59-   C58
     2      1     90    209      9     0.00   1.41001   3 ;      C-     O-   C59-  H118
     2      1     90    210      9     0.00   1.41001   3 ;      C-     O-   C59-  H119
     2      3      4      5      9     0.00   0.00000   0 ;      C-    C1-    O1-    C2
     2      3      4      5      9     0.00   0.66944   2 ;      C-    C1-    O1-    C2
     2      3      4      5      9     0.00   1.00416   3 ;      C-    C1-    O1-    C2
     3      4      5      6      9     0.00   0.00000   0 ;     C1-    O1-    C2-    C3
     3      4      5      6      9     0.00   0.66944   2 ;     C1-    O1-    C2-    C3
     3      4      5      6      9     0.00   1.00416   3 ;     C1-    O1-    C2-    C3
     3      4      5     95      9     0.00   1.41001   3 ;     C1-    O1-    C2-    H4
     3      4      5     96      9     0.00   1.41001   3 ;     C1-    O1-    C2-    H5
     4      3      2     91      9     0.00   0.00000   0 ;     O1-    C1-     C-     H
     4      3      2     91      9     0.00   1.04600   1 ;     O1-    C1-     C-     H
     4      3      2     92      9     0.00   0.00000   0 ;     O1-    C1-     C-    H1
     4      3      2     92      9     0.00   1.04600   1 ;     O1-    C1-     C-    H1
     4      5      6      7      9     0.00   0.00000   0 ;     O1-    C2-    C3-    O2
     4      5      6      7      9   180.00   0.00000   2 ;     O1-    C2-    C3-    O2
     4      5      6      7      9   180.00   0.71128   1 ;     O1-    C2-    C3-    O2
     4      5      6     97      9     0.00   0.00000   0 ;     O1-    C2-    C3-    H6
     4      5      6     97      9     0.00   1.04600   1 ;     O1-    C2-    C3-    H6
     4      5      6     98      9     0.00   0.00000   0 ;     O1-    C2-    C3-    H7
     4      5      6     98      9     0.00   1.04600   1 ;     O1-    C2-    C3-    H7
     5      4      3     93      9     0.00   1.41001   3 ;     C2-    O1-    C1-    H2
     5      4      3     94      9     0.00   1.41001   3 ;     C2-    O1-    C1-    H3
     5      6      7      8      9     0.00   0.00000   0 ;     C2-    C3-    O2-    C4
     5      6      7      8      9     0.00   0.66944   2 ;     C2-    C3-    O2-    C4
     5      6      7      8      9     0.00   1.00416   3 ;     C2-    C3-    O2-    C4
     6      7      8      9      9     0.00   0.00000   0 ;     C3-    O2-    C4-    C5
     6      7      8      9      9     0.00   0.66944   2 ;     C3-    O2-    C4-    C5
     6      7      8      9      9     0.00   1.00416   3 ;     C3-    O2-    C4-    C5
     6      7      8     99      9     0.00   1.41001   3 ;     C3-    O2-    C4-    H8
     6      7      8    100      9     0.00   1.41001   3 ;     C3-    O2-    C4-    H9
     7      6      5     95      9     0.00   0.00000   0 ;     O2-    C3-    C2-    H4
     7      6      5     95      9     0.00   1.04600   1 ;     O2-    C3-    C2-    H4
     7      6      5     96      9     0.00   0.00000   0 ;     O2-    C3-    C2-    H5
     7      6      5     96      9     0.00   1.04600   1 ;     O2-    C3-    C2-    H5
     7      8      9     10      9     0.00   0.00000   0 ;     O2-    C4-    C5-    O3
     7      8      9     10      9   180.00   0.00000   2 ;     O2-    C4-    C5-    O3
     7      8      9     10      9   180.00   0.71128   1 ;     O2-    C4-    C5-    O3
     7      8      9    101      9     0.00   0.00000   0 ;     O2-    C4-    C5-   H10
     7      8      9    101      9     0.00   1.04600   1 ;     O2-    C4-    C5-   H10
     7      8      9    102      9     0.00   0.00000   0 ;     O2-    C4-    C5-   H11
     7      8      9    102      9     0.00   1.04600   1 ;     O2-    C4-    C5-   H11
     8      7      6     97      9     0.00   1.41001   3 ;     C4-    O2-    C3-    H6
     8      7      6     98      9     0.00   1.41001   3 ;     C4-    O2-    C3-    H7
     8      9     10     11      9     0.00   0.00000   0 ;     C4-    C5-    O3-    C6
     8      9     10     11      9     0.00   0.66944   2 ;     C4-    C5-    O3-    C6
     8      9     10     11      9     0.00   1.00416   3 ;     C4-    C5-    O3-    C6
     9     10     11     12      9     0.00   0.00000   0 ;     C5-    O3-    C6-    C7
     9     10     11     12      9     0.00   0.66944   2 ;     C5-    O3-    C6-    C7
     9     10     11     12      9     0.00   1.00416   3 ;     C5-    O3-    C6-    C7
     9     10     11    103      9     0.00   1.41001   3 ;     C5-    O3-    C6-   H12
     9     10     11    104      9     0.00   1.41001   3 ;     C5-    O3-    C6-   H13
    10      9      8     99      9     0.00   0.00000   0 ;     O3-    C5-    C4-    H8
    10      9      8     99      9     0.00   1.04600   1 ;     O3-    C5-    C4-    H8
    10      9      8    100      9     0.00   0.00000   0 ;     O3-    C5-    C4-    H9
    10      9      8    100      9     0.00   1.04600   1 ;     O3-    C5-    C4-    H9
    10     11     12     13      9     0.00   0.00000   0 ;     O3-    C6-    C7-    O4
    10     11     12     13      9   180.00   0.00000   2 ;     O3-    C6-    C7-    O4
    10     11     12     13      9   180.00   0.71128   1 ;     O3-    C6-    C7-    O4
    10     11     12    105      9     0.00   0.00000   0 ;     O3-    C6-    C7-   H14
    10     11     12    105      9     0.00   1.04600   1 ;     O3-    C6-    C7-   H14
    10     11     12    106      9     0.00   0.00000   0 ;     O3-    C6-    C7-   H15
    10     11     12    106      9     0.00   1.04600   1 ;     O3-    C6-    C7-   H15
    11     10      9    101      9     0.00   1.41001   3 ;     C6-    O3-    C5-   H10
    11     10      9    102      9     0.00   1.41001   3 ;     C6-    O3-    C5-   H11
    11     12     13     14      9     0.00   0.00000   0 ;     C6-    C7-    O4-    C8
    11     12     13     14      9     0.00   0.66944   2 ;     C6-    C7-    O4-    C8
    11     12     13     14      9     0.00   1.00416   3 ;     C6-    C7-    O4-    C8
    12     13     14     15      9     0.00   0.00000   0 ;     C7-    O4-    C8-    C9
    12     13     14     15      9     0.00   0.66944   2 ;     C7-    O4-    C8-    C9
    12     13     14     15      9     0.00   1.00416   3 ;     C7-    O4-    C8-    C9
    12     13     14    107      9     0.00   1.41001   3 ;     C7-    O4-    C8-   H16
    12     13     14    108      9     0.00   1.41001   3 ;     C7-    O4-    C8-   H17
    13     12     11    103      9     0.00   0.00000   0 ;     O4-    C7-    C6-   H12
    13     12     11    103      9     0.00   1.04600   1 ;     O4-    C7-    C6-   H12
    13     12     11    104      9     0.00   0.00000   0 ;     O4-    C7-    C6-   H13
    13     12     11    104      9     0.00   1.04600   1 ;     O4-    C7-    C6-   H13
    13     14     15     16      9     0.00   0.00000   0 ;     O4-    C8-    C9-    O5
    13     14     15     16      9   180.00   0.00000   2 ;     O4-    C8-    C9-    O5
    13     14     15     16      9   180.00   0.71128   1 ;     O4-    C8-    C9-    O5
    13     14     15    109      9     0.00   0.00000   0 ;     O4-    C8-    C9-   H18
    13     14     15    109      9     0.00   1.04600   1 ;     O4-    C8-    C9-   H18
    13     14     15    110      9     0.00   0.00000   0 ;     O4-    C8-    C9-   H19
    13     14     15    110      9     0.00   1.04600   1 ;     O4-    C8-    C9-   H19
    14     13     12    105      9     0.00   1.41001   3 ;     C8-    O4-    C7-   H14
    14     13     12    106      9     0.00   1.41001   3 ;     C8-    O4-    C7-   H15
    14     15     16     17      9     0.00   0.00000   0 ;     C8-    C9-    O5-   C10
    14     15     16     17      9     0.00   0.66944   2 ;     C8-    C9-    O5-   C10
    14     15     16     17      9     0.00   1.00416   3 ;     C8-    C9-    O5-   C10
    15     16     17     18      9     0.00   0.00000   0 ;     C9-    O5-   C10-   C11
    15     16     17     18      9     0.00   0.66944   2 ;     C9-    O5-   C10-   C11
    15     16     17     18      9     0.00   1.00416   3 ;     C9-    O5-   C10-   C11
    15     16     17    111      9     0.00   1.41001   3 ;     C9-    O5-   C10-   H20
    15     16     17    112      9     0.00   1.41001   3 ;     C9-    O5-   C10-   H21
    16     15     14    107      9     0.00   0.00000   0 ;     O5-    C9-    C8-   H16
    16     15     14    107      9     0.00   1.04600   1 ;     O5-    C9-    C8-   H16
    16     15     14    108      9     0.00   0.00000   0 ;     O5-    C9-    C8-   H17
    16     15     14    108      9     0.00   1.04600   1 ;     O5-    C9-    C8-   H17
    16     17     18     19      9     0.00   0.00000   0 ;     O5-   C10-   C11-    O6
    16     17     18     19      9   180.00   0.00000   2 ;     O5-   C10-   C11-    O6
    16     17     18     19      9   180.00   0.71128   1 ;     O5-   C10-   C11-    O6
    16     17     18    113      9     0.00   0.00000   0 ;     O5-   C10-   C11-   H22
    16     17     18    113      9     0.00   1.04600   1 ;     O5-   C10-   C11-   H22
    16     17     18    114      9     0.00   0.00000   0 ;     O5-   C10-   C11-   H23
    16     17     18    114      9     0.00   1.04600   1 ;     O5-   C10-   C11-   H23
    17     16     15    109      9     0.00   1.41001   3 ;    C10-    O5-    C9-   H18
    17     16     15    110      9     0.00   1.41001   3 ;    C10-    O5-    C9-   H19
    17     18     19     20      9     0.00   0.00000   0 ;    C10-   C11-    O6-   C12
    17     18     19     20      9     0.00   0.66944   2 ;    C10-   C11-    O6-   C12
    17     18     19     20      9     0.00   1.00416   3 ;    C10-   C11-    O6-   C12
    18     19     20     21      9     0.00   0.00000   0 ;    C11-    O6-   C12-   C13
    18     19     20     21      9     0.00   0.66944   2 ;    C11-    O6-   C12-   C13
    18     19     20     21      9     0.00   1.00416   3 ;    C11-    O6-   C12-   C13
    18     19     20    115      9     0.00   1.41001   3 ;    C11-    O6-   C12-   H24
    18     19     20    116      9     0.00   1.41001   3 ;    C11-    O6-   C12-   H25
    19     18     17    111      9     0.00   0.00000   0 ;     O6-   C11-   C10-   H20
    19     18     17    111      9     0.00   1.04600   1 ;     O6-   C11-   C10-   H20
    19     18     17    112      9     0.00   0.00000   0 ;     O6-   C11-   C10-   H21
    19     18     17    112      9     0.00   1.04600   1 ;     O6-   C11-   C10-   H21
    19     20     21     22      9     0.00   0.00000   0 ;     O6-   C12-   C13-    O7
    19     20     21     22      9   180.00   0.00000   2 ;     O6-   C12-   C13-    O7
    19     20     21     22      9   180.00   0.71128   1 ;     O6-   C12-   C13-    O7
    19     20     21    117      9     0.00   0.00000   0 ;     O6-   C12-   C13-   H26
    19     20     21    117      9     0.00   1.04600   1 ;     O6-   C12-   C13-   H26
    19     20     21    118      9     0.00   0.00000   0 ;     O6-   C12-   C13-   H27
    19     20     21    118      9     0.00   1.04600   1 ;     O6-   C12-   C13-   H27
    20     19     18    113      9     0.00   1.41001   3 ;    C12-    O6-   C11-   H22
    20     19     18    114      9     0.00   1.41001   3 ;    C12-    O6-   C11-   H23
    20     21     22     23      9     0.00   0.00000   0 ;    C12-   C13-    O7-   C14
    20     21     22     23      9     0.00   0.66944   2 ;    C12-   C13-    O7-   C14
    20     21     22     23      9     0.00   1.00416   3 ;    C12-   C13-    O7-   C14
    21     22     23     24      9     0.00   0.00000   0 ;    C13-    O7-   C14-   C15
    21     22     23     24      9     0.00   0.66944   2 ;    C13-    O7-   C14-   C15
    21     22     23     24      9     0.00   1.00416   3 ;    C13-    O7-   C14-   C15
    21     22     23    119      9     0.00   1.41001   3 ;    C13-    O7-   C14-   H28
    21     22     23    120      9     0.00   1.41001   3 ;    C13-    O7-   C14-   H29
    22     21     20    115      9     0.00   0.00000   0 ;     O7-   C13-   C12-   H24
    22     21     20    115      9     0.00   1.04600   1 ;     O7-   C13-   C12-   H24
    22     21     20    116      9     0.00   0.00000   0 ;     O7-   C13-   C12-   H25
    22     21     20    116      9     0.00   1.04600   1 ;     O7-   C13-   C12-   H25
    22     23     24     25      9     0.00   0.00000   0 ;     O7-   C14-   C15-    O8
    22     23     24     25      9   180.00   0.00000   2 ;     O7-   C14-   C15-    O8
    22     23     24     25      9   180.00   0.71128   1 ;     O7-   C14-   C15-    O8
    22     23     24    121      9     0.00   0.00000   0 ;     O7-   C14-   C15-   H30
    22     23     24    121      9     0.00   1.04600   1 ;     O7-   C14-   C15-   H30
    22     23     24    122      9     0.00   0.00000   0 ;     O7-   C14-   C15-   H31
    22     23     24    122      9     0.00   1.04600   1 ;     O7-   C14-   C15-   H31
    23     22     21    117      9     0.00   1.41001   3 ;    C14-    O7-   C13-   H26
    23     22     21    118      9     0.00   1.41001   3 ;    C14-    O7-   C13-   H27
    23     24     25     26      9     0.00   0.00000   0 ;    C14-   C15-    O8-   C16
    23     24     25     26      9     0.00   0.66944   2 ;    C14-   C15-    O8-   C16
    23     24     25     26      9     0.00   1.00416   3 ;    C14-   C15-    O8-   C16
    24     25     26     27      9     0.00   0.00000   0 ;    C15-    O8-   C16-   C17
    24     25     26     27      9     0.00   0.66944   2 ;    C15-    O8-   C16-   C17
    24     25     26     27      9     0.00   1.00416   3 ;    C15-    O8-   C16-   C17
    24     25     26    123      9     0.00   1.41001   3 ;    C15-    O8-   C16-   H32
    24     25     26    124      9     0.00   1.41001   3 ;    C15-    O8-   C16-   H33
    25     24     23    119      9     0.00   0.00000   0 ;     O8-   C15-   C14-   H28
    25     24     23    119      9     0.00   1.04600   1 ;     O8-   C15-   C14-   H28
    25     24     23    120      9     0.00   0.00000   0 ;     O8-   C15-   C14-   H29
    25     24     23    120      9     0.00   1.04600   1 ;     O8-   C15-   C14-   H29
    25     26     27     28      9     0.00   0.00000   0 ;     O8-   C16-   C17-    O9
    25     26     27     28      9   180.00   0.00000   2 ;     O8-   C16-   C17-    O9
    25     26     27     28      9   180.00   0.71128   1 ;     O8-   C16-   C17-    O9
    25     26     27    125      9     0.00   0.00000   0 ;     O8-   C16-   C17-   H34
    25     26     27    125      9     0.00   1.04600   1 ;     O8-   C16-   C17-   H34
    25     26     27    126      9     0.00   0.00000   0 ;     O8-   C16-   C17-   H35
    25     26     27    126      9     0.00   1.04600   1 ;     O8-   C16-   C17-   H35
    26     25     24    121      9     0.00   1.41001   3 ;    C16-    O8-   C15-   H30
    26     25     24    122      9     0.00   1.41001   3 ;    C16-    O8-   C15-   H31
    26     27     28     29      9     0.00   0.00000   0 ;    C16-   C17-    O9-   C18
    26     27     28     29      9     0.00   0.66944   2 ;    C16-   C17-    O9-   C18
    26     27     28     29      9     0.00   1.00416   3 ;    C16-   C17-    O9-   C18
    27     28     29     30      9     0.00   0.00000   0 ;    C17-    O9-   C18-   C19
    27     28     29     30      9     0.00   0.66944   2 ;    C17-    O9-   C18-   C19
    27     28     29     30      9     0.00   1.00416   3 ;    C17-    O9-   C18-   C19
    27     28     29    127      9     0.00   1.41001   3 ;    C17-    O9-   C18-   H36
    27     28     29    128      9     0.00   1.41001   3 ;    C17-    O9-   C18-   H37
    28     27     26    123      9     0.00   0.00000   0 ;     O9-   C17-   C16-   H32
    28     27     26    123      9     0.00   1.04600   1 ;     O9-   C17-   C16-   H32
    28     27     26    124      9     0.00   0.00000   0 ;     O9-   C17-   C16-   H33
    28     27     26    124      9     0.00   1.04600   1 ;     O9-   C17-   C16-   H33
    28     29     30     31      9     0.00   0.00000   0 ;     O9-   C18-   C19-   O10
    28     29     30     31      9   180.00   0.00000   2 ;     O9-   C18-   C19-   O10
    28     29     30     31      9   180.00   0.71128   1 ;     O9-   C18-   C19-   O10
    28     29     30    129      9     0.00   0.00000   0 ;     O9-   C18-   C19-   H38
    28     29     30    129      9     0.00   1.04600   1 ;     O9-   C18-   C19-   H38
    28     29     30    130      9     0.00   0.00000   0 ;     O9-   C18-   C19-   H39
    28     29     30    130      9     0.00   1.04600   1 ;     O9-   C18-   C19-   H39
    29     28     27    125      9     0.00   1.41001   3 ;    C18-    O9-   C17-   H34
    29     28     27    126      9     0.00   1.41001   3 ;    C18-    O9-   C17-   H35
    29     30     31     32      9     0.00   0.00000   0 ;    C18-   C19-   O10-   C20
    29     30     31     32      9     0.00   0.66944   2 ;    C18-   C19-   O10-   C20
    29     30     31     32      9     0.00   1.00416   3 ;    C18-   C19-   O10-   C20
    30     31     32     33      9     0.00   0.00000   0 ;    C19-   O10-   C20-   C21
    30     31     32     33      9     0.00   0.66944   2 ;    C19-   O10-   C20-   C21
    30     31     32     33      9     0.00   1.00416   3 ;    C19-   O10-   C20-   C21
    30     31     32    131      9     0.00   1.41001   3 ;    C19-   O10-   C20-   H40
    30     31     32    132      9     0.00   1.41001   3 ;    C19-   O10-   C20-   H41
    31     30     29    127      9     0.00   0.00000   0 ;    O10-   C19-   C18-   H36
    31     30     29    127      9     0.00   1.04600   1 ;    O10-   C19-   C18-   H36
    31     30     29    128      9     0.00   0.00000   0 ;    O10-   C19-   C18-   H37
    31     30     29    128      9     0.00   1.04600   1 ;    O10-   C19-   C18-   H37
    31     32     33     34      9     0.00   0.00000   0 ;    O10-   C20-   C21-   O11
    31     32     33     34      9   180.00   0.00000   2 ;    O10-   C20-   C21-   O11
    31     32     33     34      9   180.00   0.71128   1 ;    O10-   C20-   C21-   O11
    31     32     33    133      9     0.00   0.00000   0 ;    O10-   C20-   C21-   H42
    31     32     33    133      9     0.00   1.04600   1 ;    O10-   C20-   C21-   H42
    31     32     33    134      9     0.00   0.00000   0 ;    O10-   C20-   C21-   H43
    31     32     33    134      9     0.00   1.04600   1 ;    O10-   C20-   C21-   H43
    32     31     30    129      9     0.00   1.41001   3 ;    C20-   O10-   C19-   H38
    32     31     30    130      9     0.00   1.41001   3 ;    C20-   O10-   C19-   H39
    32     33     34     35      9     0.00   0.00000   0 ;    C20-   C21-   O11-   C22
    32     33     34     35      9     0.00   0.66944   2 ;    C20-   C21-   O11-   C22
    32     33     34     35      9     0.00   1.00416   3 ;    C20-   C21-   O11-   C22
    33     34     35     36      9     0.00   0.00000   0 ;    C21-   O11-   C22-   C23
    33     34     35     36      9     0.00   0.66944   2 ;    C21-   O11-   C22-   C23
    33     34     35     36      9     0.00   1.00416   3 ;    C21-   O11-   C22-   C23
    33     34     35    135      9     0.00   1.41001   3 ;    C21-   O11-   C22-   H44
    33     34     35    136      9     0.00   1.41001   3 ;    C21-   O11-   C22-   H45
    34     33     32    131      9     0.00   0.00000   0 ;    O11-   C21-   C20-   H40
    34     33     32    131      9     0.00   1.04600   1 ;    O11-   C21-   C20-   H40
    34     33     32    132      9     0.00   0.00000   0 ;    O11-   C21-   C20-   H41
    34     33     32    132      9     0.00   1.04600   1 ;    O11-   C21-   C20-   H41
    34     35     36     37      9     0.00   0.00000   0 ;    O11-   C22-   C23-   O12
    34     35     36     37      9   180.00   0.00000   2 ;    O11-   C22-   C23-   O12
    34     35     36     37      9   180.00   0.71128   1 ;    O11-   C22-   C23-   O12
    34     35     36    137      9     0.00   0.00000   0 ;    O11-   C22-   C23-   H46
    34     35     36    137      9     0.00   1.04600   1 ;    O11-   C22-   C23-   H46
    34     35     36    138      9     0.00   0.00000   0 ;    O11-   C22-   C23-   H47
    34     35     36    138      9     0.00   1.04600   1 ;    O11-   C22-   C23-   H47
    35     34     33    133      9     0.00   1.41001   3 ;    C22-   O11-   C21-   H42
    35     34     33    134      9     0.00   1.41001   3 ;    C22-   O11-   C21-   H43
    35     36     37     38      9     0.00   0.00000   0 ;    C22-   C23-   O12-   C24
    35     36     37     38      9     0.00   0.66944   2 ;    C22-   C23-   O12-   C24
    35     36     37     38      9     0.00   1.00416   3 ;    C22-   C23-   O12-   C24
    36     37     38     39      9     0.00   0.00000   0 ;    C23-   O12-   C24-   C25
    36     37     38     39      9     0.00   0.66944   2 ;    C23-   O12-   C24-   C25
    36     37     38     39      9     0.00   1.00416   3 ;    C23-   O12-   C24-   C25
    36     37     38    139      9     0.00   1.41001   3 ;    C23-   O12-   C24-   H48
    36     37     38    140      9     0.00   1.41001   3 ;    C23-   O12-   C24-   H49
    37     36     35    135      9     0.00   0.00000   0 ;    O12-   C23-   C22-   H44
    37     36     35    135      9     0.00   1.04600   1 ;    O12-   C23-   C22-   H44
    37     36     35    136      9     0.00   0.00000   0 ;    O12-   C23-   C22-   H45
    37     36     35    136      9     0.00   1.04600   1 ;    O12-   C23-   C22-   H45
    37     38     39     40      9     0.00   0.00000   0 ;    O12-   C24-   C25-   O13
    37     38     39     40      9   180.00   0.00000   2 ;    O12-   C24-   C25-   O13
    37     38     39     40      9   180.00   0.71128   1 ;    O12-   C24-   C25-   O13
    37     38     39    141      9     0.00   0.00000   0 ;    O12-   C24-   C25-   H50
    37     38     39    141      9     0.00   1.04600   1 ;    O12-   C24-   C25-   H50
    37     38     39    142      9     0.00   0.00000   0 ;    O12-   C24-   C25-   H51
    37     38     39    142      9     0.00   1.04600   1 ;    O12-   C24-   C25-   H51
    38     37     36    137      9     0.00   1.41001   3 ;    C24-   O12-   C23-   H46
    38     37     36    138      9     0.00   1.41001   3 ;    C24-   O12-   C23-   H47
    38     39     40     41      9     0.00   0.00000   0 ;    C24-   C25-   O13-   C26
    38     39     40     41      9     0.00   0.66944   2 ;    C24-   C25-   O13-   C26
    38     39     40     41      9     0.00   1.00416   3 ;    C24-   C25-   O13-   C26
    39     40     41     42      9     0.00   0.00000   0 ;    C25-   O13-   C26-   C27
    39     40     41     42      9     0.00   0.66944   2 ;    C25-   O13-   C26-   C27
    39     40     41     42      9     0.00   1.00416   3 ;    C25-   O13-   C26-   C27
    39     40     41    143      9     0.00   1.41001   3 ;    C25-   O13-   C26-   H52
    39     40     41    144      9     0.00   1.41001   3 ;    C25-   O13-   C26-   H53
    40     39     38    139      9     0.00   0.00000   0 ;    O13-   C25-   C24-   H48
    40     39     38    139      9     0.00   1.04600   1 ;    O13-   C25-   C24-   H48
    40     39     38    140      9     0.00   0.00000   0 ;    O13-   C25-   C24-   H49
    40     39     38    140      9     0.00   1.04600   1 ;    O13-   C25-   C24-   H49
    40     41     42     43      9     0.00   0.00000   0 ;    O13-   C26-   C27-   O14
    40     41     42     43      9   180.00   0.00000   2 ;    O13-   C26-   C27-   O14
    40     41     42     43      9   180.00   0.71128   1 ;    O13-   C26-   C27-   O14
    40     41     42    145      9     0.00   0.00000   0 ;    O13-   C26-   C27-   H54
    40     41     42    145      9     0.00   1.04600   1 ;    O13-   C26-   C27-   H54
    40     41     42    146      9     0.00   0.00000   0 ;    O13-   C26-   C27-   H55
    40     41     42    146      9     0.00   1.04600   1 ;    O13-   C26-   C27-   H55
    41     40     39    141      9     0.00   1.41001   3 ;    C26-   O13-   C25-   H50
    41     40     39    142      9     0.00   1.41001   3 ;    C26-   O13-   C25-   H51
    41     42     43     44      9     0.00   0.00000   0 ;    C26-   C27-   O14-   C28
    41     42     43     44      9     0.00   0.66944   2 ;    C26-   C27-   O14-   C28
    41     42     43     44      9     0.00   1.00416   3 ;    C26-   C27-   O14-   C28
    42     43     44     45      9     0.00   0.00000   0 ;    C27-   O14-   C28-   C29
    42     43     44     45      9     0.00   0.66944   2 ;    C27-   O14-   C28-   C29
    42     43     44     45      9     0.00   1.00416   3 ;    C27-   O14-   C28-   C29
    42     43     44    147      9     0.00   1.41001   3 ;    C27-   O14-   C28-   H56
    42     43     44    148      9     0.00   1.41001   3 ;    C27-   O14-   C28-   H57
    43     42     41    143      9     0.00   0.00000   0 ;    O14-   C27-   C26-   H52
    43     42     41    143      9     0.00   1.04600   1 ;    O14-   C27-   C26-   H52
    43     42     41    144      9     0.00   0.00000   0 ;    O14-   C27-   C26-   H53
    43     42     41    144      9     0.00   1.04600   1 ;    O14-   C27-   C26-   H53
    43     44     45     46      9     0.00   0.00000   0 ;    O14-   C28-   C29-   O15
    43     44     45     46      9   180.00   0.00000   2 ;    O14-   C28-   C29-   O15
    43     44     45     46      9   180.00   0.71128   1 ;    O14-   C28-   C29-   O15
    43     44     45    149      9     0.00   0.00000   0 ;    O14-   C28-   C29-   H58
    43     44     45    149      9     0.00   1.04600   1 ;    O14-   C28-   C29-   H58
    43     44     45    150      9     0.00   0.00000   0 ;    O14-   C28-   C29-   H59
    43     44     45    150      9     0.00   1.04600   1 ;    O14-   C28-   C29-   H59
    44     43     42    145      9     0.00   1.41001   3 ;    C28-   O14-   C27-   H54
    44     43     42    146      9     0.00   1.41001   3 ;    C28-   O14-   C27-   H55
    44     45     46     47      9     0.00   0.00000   0 ;    C28-   C29-   O15-   C30
    44     45     46     47      9     0.00   0.66944   2 ;    C28-   C29-   O15-   C30
    44     45     46     47      9     0.00   1.00416   3 ;    C28-   C29-   O15-   C30
    45     46     47     48      9     0.00   0.00000   0 ;    C29-   O15-   C30-   C31
    45     46     47     48      9     0.00   0.66944   2 ;    C29-   O15-   C30-   C31
    45     46     47     48      9     0.00   1.00416   3 ;    C29-   O15-   C30-   C31
    45     46     47    151      9     0.00   1.41001   3 ;    C29-   O15-   C30-   H60
    45     46     47    152      9     0.00   1.41001   3 ;    C29-   O15-   C30-   H61
    46     45     44    147      9     0.00   0.00000   0 ;    O15-   C29-   C28-   H56
    46     45     44    147      9     0.00   1.04600   1 ;    O15-   C29-   C28-   H56
    46     45     44    148      9     0.00   0.00000   0 ;    O15-   C29-   C28-   H57
    46     45     44    148      9     0.00   1.04600   1 ;    O15-   C29-   C28-   H57
    46     47     48     49      9     0.00   0.00000   0 ;    O15-   C30-   C31-   O16
    46     47     48     49      9   180.00   0.00000   2 ;    O15-   C30-   C31-   O16
    46     47     48     49      9   180.00   0.71128   1 ;    O15-   C30-   C31-   O16
    46     47     48    153      9     0.00   0.00000   0 ;    O15-   C30-   C31-   H62
    46     47     48    153      9     0.00   1.04600   1 ;    O15-   C30-   C31-   H62
    46     47     48    154      9     0.00   0.00000   0 ;    O15-   C30-   C31-   H63
    46     47     48    154      9     0.00   1.04600   1 ;    O15-   C30-   C31-   H63
    47     46     45    149      9     0.00   1.41001   3 ;    C30-   O15-   C29-   H58
    47     46     45    150      9     0.00   1.41001   3 ;    C30-   O15-   C29-   H59
    47     48     49     50      9     0.00   0.00000   0 ;    C30-   C31-   O16-   C32
    47     48     49     50      9     0.00   0.66944   2 ;    C30-   C31-   O16-   C32
    47     48     49     50      9     0.00   1.00416   3 ;    C30-   C31-   O16-   C32
    48     49     50     51      9     0.00   0.00000   0 ;    C31-   O16-   C32-   C33
    48     49     50     51      9     0.00   0.66944   2 ;    C31-   O16-   C32-   C33
    48     49     50     51      9     0.00   1.00416   3 ;    C31-   O16-   C32-   C33
    48     49     50    155      9     0.00   1.41001   3 ;    C31-   O16-   C32-   H64
    48     49     50    156      9     0.00   1.41001   3 ;    C31-   O16-   C32-   H65
    49     48     47    151      9     0.00   0.00000   0 ;    O16-   C31-   C30-   H60
    49     48     47    151      9     0.00   1.04600   1 ;    O16-   C31-   C30-   H60
    49     48     47    152      9     0.00   0.00000   0 ;    O16-   C31-   C30-   H61
    49     48     47    152      9     0.00   1.04600   1 ;    O16-   C31-   C30-   H61
    49     50     51     52      9     0.00   0.00000   0 ;    O16-   C32-   C33-   O17
    49     50     51     52      9   180.00   0.00000   2 ;    O16-   C32-   C33-   O17
    49     50     51     52      9   180.00   0.71128   1 ;    O16-   C32-   C33-   O17
    49     50     51    157      9     0.00   0.00000   0 ;    O16-   C32-   C33-   H66
    49     50     51    157      9     0.00   1.04600   1 ;    O16-   C32-   C33-   H66
    49     50     51    158      9     0.00   0.00000   0 ;    O16-   C32-   C33-   H67
    49     50     51    158      9     0.00   1.04600   1 ;    O16-   C32-   C33-   H67
    50     49     48    153      9     0.00   1.41001   3 ;    C32-   O16-   C31-   H62
    50     49     48    154      9     0.00   1.41001   3 ;    C32-   O16-   C31-   H63
    50     51     52     53      9     0.00   0.00000   0 ;    C32-   C33-   O17-   C34
    50     51     52     53      9     0.00   0.66944   2 ;    C32-   C33-   O17-   C34
    50     51     52     53      9     0.00   1.00416   3 ;    C32-   C33-   O17-   C34
    51     52     53     54      9     0.00   0.00000   0 ;    C33-   O17-   C34-   C35
    51     52     53     54      9     0.00   0.66944   2 ;    C33-   O17-   C34-   C35
    51     52     53     54      9     0.00   1.00416   3 ;    C33-   O17-   C34-   C35
    51     52     53    159      9     0.00   1.41001   3 ;    C33-   O17-   C34-   H68
    51     52     53    160      9     0.00   1.41001   3 ;    C33-   O17-   C34-   H69
    52     51     50    155      9     0.00   0.00000   0 ;    O17-   C33-   C32-   H64
    52     51     50    155      9     0.00   1.04600   1 ;    O17-   C33-   C32-   H64
    52     51     50    156      9     0.00   0.00000   0 ;    O17-   C33-   C32-   H65
    52     51     50    156      9     0.00   1.04600   1 ;    O17-   C33-   C32-   H65
    52     53     54     55      9     0.00   0.00000   0 ;    O17-   C34-   C35-   O18
    52     53     54     55      9   180.00   0.00000   2 ;    O17-   C34-   C35-   O18
    52     53     54     55      9   180.00   0.71128   1 ;    O17-   C34-   C35-   O18
    52     53     54    161      9     0.00   0.00000   0 ;    O17-   C34-   C35-   H70
    52     53     54    161      9     0.00   1.04600   1 ;    O17-   C34-   C35-   H70
    52     53     54    162      9     0.00   0.00000   0 ;    O17-   C34-   C35-   H71
    52     53     54    162      9     0.00   1.04600   1 ;    O17-   C34-   C35-   H71
    53     52     51    157      9     0.00   1.41001   3 ;    C34-   O17-   C33-   H66
    53     52     51    158      9     0.00   1.41001   3 ;    C34-   O17-   C33-   H67
    53     54     55     56      9     0.00   0.00000   0 ;    C34-   C35-   O18-   C36
    53     54     55     56      9     0.00   0.66944   2 ;    C34-   C35-   O18-   C36
    53     54     55     56      9     0.00   1.00416   3 ;    C34-   C35-   O18-   C36
    54     55     56     57      9     0.00   0.00000   0 ;    C35-   O18-   C36-   C37
    54     55     56     57      9     0.00   0.66944   2 ;    C35-   O18-   C36-   C37
    54     55     56     57      9     0.00   1.00416   3 ;    C35-   O18-   C36-   C37
    54     55     56    163      9     0.00   1.41001   3 ;    C35-   O18-   C36-   H72
    54     55     56    164      9     0.00   1.41001   3 ;    C35-   O18-   C36-   H73
    55     54     53    159      9     0.00   0.00000   0 ;    O18-   C35-   C34-   H68
    55     54     53    159      9     0.00   1.04600   1 ;    O18-   C35-   C34-   H68
    55     54     53    160      9     0.00   0.00000   0 ;    O18-   C35-   C34-   H69
    55     54     53    160      9     0.00   1.04600   1 ;    O18-   C35-   C34-   H69
    55     56     57     58      9     0.00   0.00000   0 ;    O18-   C36-   C37-   O19
    55     56     57     58      9   180.00   0.00000   2 ;    O18-   C36-   C37-   O19
    55     56     57     58      9   180.00   0.71128   1 ;    O18-   C36-   C37-   O19
    55     56     57    165      9     0.00   0.00000   0 ;    O18-   C36-   C37-   H74
    55     56     57    165      9     0.00   1.04600   1 ;    O18-   C36-   C37-   H74
    55     56     57    166      9     0.00   0.00000   0 ;    O18-   C36-   C37-   H75
    55     56     57    166      9     0.00   1.04600   1 ;    O18-   C36-   C37-   H75
    56     55     54    161      9     0.00   1.41001   3 ;    C36-   O18-   C35-   H70
    56     55     54    162      9     0.00   1.41001   3 ;    C36-   O18-   C35-   H71
    56     57     58     59      9     0.00   0.00000   0 ;    C36-   C37-   O19-   C38
    56     57     58     59      9     0.00   0.66944   2 ;    C36-   C37-   O19-   C38
    56     57     58     59      9     0.00   1.00416   3 ;    C36-   C37-   O19-   C38
    57     58     59     60      9     0.00   0.00000   0 ;    C37-   O19-   C38-   C39
    57     58     59     60      9     0.00   0.66944   2 ;    C37-   O19-   C38-   C39
    57     58     59     60      9     0.00   1.00416   3 ;    C37-   O19-   C38-   C39
    57     58     59    167      9     0.00   1.41001   3 ;    C37-   O19-   C38-   H76
    57     58     59    168      9     0.00   1.41001   3 ;    C37-   O19-   C38-   H77
    58     57     56    163      9     0.00   0.00000   0 ;    O19-   C37-   C36-   H72
    58     57     56    163      9     0.00   1.04600   1 ;    O19-   C37-   C36-   H72
    58     57     56    164      9     0.00   0.00000   0 ;    O19-   C37-   C36-   H73
    58     57     56    164      9     0.00   1.04600   1 ;    O19-   C37-   C36-   H73
    58     59     60     61      9     0.00   0.00000   0 ;    O19-   C38-   C39-   O20
    58     59     60     61      9   180.00   0.00000   2 ;    O19-   C38-   C39-   O20
    58     59     60     61      9   180.00   0.71128   1 ;    O19-   C38-   C39-   O20
    58     59     60    169      9     0.00   0.00000   0 ;    O19-   C38-   C39-   H78
    58     59     60    169      9     0.00   1.04600   1 ;    O19-   C38-   C39-   H78
    58     59     60    170      9     0.00   0.00000   0 ;    O19-   C38-   C39-   H79
    58     59     60    170      9     0.00   1.04600   1 ;    O19-   C38-   C39-   H79
    59     58     57    165      9     0.00   1.41001   3 ;    C38-   O19-   C37-   H74
    59     58     57    166      9     0.00   1.41001   3 ;    C38-   O19-   C37-   H75
    59     60     61     62      9     0.00   0.00000   0 ;    C38-   C39-   O20-   C40
    59     60     61     62      9     0.00   0.66944   2 ;    C38-   C39-   O20-   C40
    59     60     61     62      9     0.00   1.00416   3 ;    C38-   C39-   O20-   C40
    60     61     62     63      9     0.00   0.00000   0 ;    C39-   O20-   C40-   C41
    60     61     62     63      9     0.00   0.66944   2 ;    C39-   O20-   C40-   C41
    60     61     62     63      9     0.00   1.00416   3 ;    C39-   O20-   C40-   C41
    60     61     62    171      9     0.00   1.41001   3 ;    C39-   O20-   C40-   H80
    60     61     62    172      9     0.00   1.41001   3 ;    C39-   O20-   C40-   H81
    61     60     59    167      9     0.00   0.00000   0 ;    O20-   C39-   C38-   H76
    61     60     59    167      9     0.00   1.04600   1 ;    O20-   C39-   C38-   H76
    61     60     59    168      9     0.00   0.00000   0 ;    O20-   C39-   C38-   H77
    61     60     59    168      9     0.00   1.04600   1 ;    O20-   C39-   C38-   H77
    61     62     63     64      9     0.00   0.00000   0 ;    O20-   C40-   C41-   O21
    61     62     63     64      9   180.00   0.00000   2 ;    O20-   C40-   C41-   O21
    61     62     63     64      9   180.00   0.71128   1 ;    O20-   C40-   C41-   O21
    61     62     63    173      9     0.00   0.00000   0 ;    O20-   C40-   C41-   H82
    61     62     63    173      9     0.00   1.04600   1 ;    O20-   C40-   C41-   H82
    61     62     63    174      9     0.00   0.00000   0 ;    O20-   C40-   C41-   H83
    61     62     63    174      9     0.00   1.04600   1 ;    O20-   C40-   C41-   H83
    62     61     60    169      9     0.00   1.41001   3 ;    C40-   O20-   C39-   H78
    62     61     60    170      9     0.00   1.41001   3 ;    C40-   O20-   C39-   H79
    62     63     64     65      9     0.00   0.00000   0 ;    C40-   C41-   O21-   C42
    62     63     64     65      9     0.00   0.66944   2 ;    C40-   C41-   O21-   C42
    62     63     64     65      9     0.00   1.00416   3 ;    C40-   C41-   O21-   C42
    63     64     65     66      9     0.00   0.00000   0 ;    C41-   O21-   C42-   C43
    63     64     65     66      9     0.00   0.66944   2 ;    C41-   O21-   C42-   C43
    63     64     65     66      9     0.00   1.00416   3 ;    C41-   O21-   C42-   C43
    63     64     65    175      9     0.00   1.41001   3 ;    C41-   O21-   C42-   H84
    63     64     65    176      9     0.00   1.41001   3 ;    C41-   O21-   C42-   H85
    64     63     62    171      9     0.00   0.00000   0 ;    O21-   C41-   C40-   H80
    64     63     62    171      9     0.00   1.04600   1 ;    O21-   C41-   C40-   H80
    64     63     62    172      9     0.00   0.00000   0 ;    O21-   C41-   C40-   H81
    64     63     62    172      9     0.00   1.04600   1 ;    O21-   C41-   C40-   H81
    64     65     66     67      9     0.00   0.00000   0 ;    O21-   C42-   C43-   O22
    64     65     66     67      9   180.00   0.00000   2 ;    O21-   C42-   C43-   O22
    64     65     66     67      9   180.00   0.71128   1 ;    O21-   C42-   C43-   O22
    64     65     66    177      9     0.00   0.00000   0 ;    O21-   C42-   C43-   H86
    64     65     66    177      9     0.00   1.04600   1 ;    O21-   C42-   C43-   H86
    64     65     66    178      9     0.00   0.00000   0 ;    O21-   C42-   C43-   H87
    64     65     66    178      9     0.00   1.04600   1 ;    O21-   C42-   C43-   H87
    65     64     63    173      9     0.00   1.41001   3 ;    C42-   O21-   C41-   H82
    65     64     63    174      9     0.00   1.41001   3 ;    C42-   O21-   C41-   H83
    65     66     67     68      9     0.00   0.00000   0 ;    C42-   C43-   O22-   C44
    65     66     67     68      9     0.00   0.66944   2 ;    C42-   C43-   O22-   C44
    65     66     67     68      9     0.00   1.00416   3 ;    C42-   C43-   O22-   C44
    66     67     68     69      9     0.00   0.00000   0 ;    C43-   O22-   C44-   C45
    66     67     68     69      9     0.00   0.66944   2 ;    C43-   O22-   C44-   C45
    66     67     68     69      9     0.00   1.00416   3 ;    C43-   O22-   C44-   C45
    66     67     68    179      9     0.00   1.41001   3 ;    C43-   O22-   C44-   H88
    66     67     68    180      9     0.00   1.41001   3 ;    C43-   O22-   C44-   H89
    67     66     65    175      9     0.00   0.00000   0 ;    O22-   C43-   C42-   H84
    67     66     65    175      9     0.00   1.04600   1 ;    O22-   C43-   C42-   H84
    67     66     65    176      9     0.00   0.00000   0 ;    O22-   C43-   C42-   H85
    67     66     65    176      9     0.00   1.04600   1 ;    O22-   C43-   C42-   H85
    67     68     69     70      9     0.00   0.00000   0 ;    O22-   C44-   C45-   O23
    67     68     69     70      9   180.00   0.00000   2 ;    O22-   C44-   C45-   O23
    67     68     69     70      9   180.00   0.71128   1 ;    O22-   C44-   C45-   O23
    67     68     69    181      9     0.00   0.00000   0 ;    O22-   C44-   C45-   H90
    67     68     69    181      9     0.00   1.04600   1 ;    O22-   C44-   C45-   H90
    67     68     69    182      9     0.00   0.00000   0 ;    O22-   C44-   C45-   H91
    67     68     69    182      9     0.00   1.04600   1 ;    O22-   C44-   C45-   H91
    68     67     66    177      9     0.00   1.41001   3 ;    C44-   O22-   C43-   H86
    68     67     66    178      9     0.00   1.41001   3 ;    C44-   O22-   C43-   H87
    68     69     70     71      9     0.00   0.00000   0 ;    C44-   C45-   O23-   C46
    68     69     70     71      9     0.00   0.66944   2 ;    C44-   C45-   O23-   C46
    68     69     70     71      9     0.00   1.00416   3 ;    C44-   C45-   O23-   C46
    69     70     71     72      9     0.00   0.00000   0 ;    C45-   O23-   C46-   C47
    69     70     71     72      9     0.00   0.66944   2 ;    C45-   O23-   C46-   C47
    69     70     71     72      9     0.00   1.00416   3 ;    C45-   O23-   C46-   C47
    69     70     71    183      9     0.00   1.41001   3 ;    C45-   O23-   C46-   H92
    69     70     71    184      9     0.00   1.41001   3 ;    C45-   O23-   C46-   H93
    70     69     68    179      9     0.00   0.00000   0 ;    O23-   C45-   C44-   H88
    70     69     68    179      9     0.00   1.04600   1 ;    O23-   C45-   C44-   H88
    70     69     68    180      9     0.00   0.00000   0 ;    O23-   C45-   C44-   H89
    70     69     68    180      9     0.00   1.04600   1 ;    O23-   C45-   C44-   H89
    70     71     72     73      9     0.00   0.00000   0 ;    O23-   C46-   C47-   O24
    70     71     72     73      9   180.00   0.00000   2 ;    O23-   C46-   C47-   O24
    70     71     72     73      9   180.00   0.71128   1 ;    O23-   C46-   C47-   O24
    70     71     72    185      9     0.00   0.00000   0 ;    O23-   C46-   C47-   H94
    70     71     72    185      9     0.00   1.04600   1 ;    O23-   C46-   C47-   H94
    70     71     72    186      9     0.00   0.00000   0 ;    O23-   C46-   C47-   H95
    70     71     72    186      9     0.00   1.04600   1 ;    O23-   C46-   C47-   H95
    71     70     69    181      9     0.00   1.41001   3 ;    C46-   O23-   C45-   H90
    71     70     69    182      9     0.00   1.41001   3 ;    C46-   O23-   C45-   H91
    71     72     73     74      9     0.00   0.00000   0 ;    C46-   C47-   O24-   C48
    71     72     73     74      9     0.00   0.66944   2 ;    C46-   C47-   O24-   C48
    71     72     73     74      9     0.00   1.00416   3 ;    C46-   C47-   O24-   C48
    72     73     74     75      9     0.00   0.00000   0 ;    C47-   O24-   C48-   C49
    72     73     74     75      9     0.00   0.66944   2 ;    C47-   O24-   C48-   C49
    72     73     74     75      9     0.00   1.00416   3 ;    C47-   O24-   C48-   C49
    72     73     74    187      9     0.00   1.41001   3 ;    C47-   O24-   C48-   H96
    72     73     74    188      9     0.00   1.41001   3 ;    C47-   O24-   C48-   H97
    73     72     71    183      9     0.00   0.00000   0 ;    O24-   C47-   C46-   H92
    73     72     71    183      9     0.00   1.04600   1 ;    O24-   C47-   C46-   H92
    73     72     71    184      9     0.00   0.00000   0 ;    O24-   C47-   C46-   H93
    73     72     71    184      9     0.00   1.04600   1 ;    O24-   C47-   C46-   H93
    73     74     75     76      9     0.00   0.00000   0 ;    O24-   C48-   C49-   O25
    73     74     75     76      9   180.00   0.00000   2 ;    O24-   C48-   C49-   O25
    73     74     75     76      9   180.00   0.71128   1 ;    O24-   C48-   C49-   O25
    73     74     75    189      9     0.00   0.00000   0 ;    O24-   C48-   C49-   H98
    73     74     75    189      9     0.00   1.04600   1 ;    O24-   C48-   C49-   H98
    73     74     75    190      9     0.00   0.00000   0 ;    O24-   C48-   C49-   H99
    73     74     75    190      9     0.00   1.04600   1 ;    O24-   C48-   C49-   H99
    74     73     72    185      9     0.00   1.41001   3 ;    C48-   O24-   C47-   H94
    74     73     72    186      9     0.00   1.41001   3 ;    C48-   O24-   C47-   H95
    74     75     76     77      9     0.00   0.00000   0 ;    C48-   C49-   O25-   C50
    74     75     76     77      9     0.00   0.66944   2 ;    C48-   C49-   O25-   C50
    74     75     76     77      9     0.00   1.00416   3 ;    C48-   C49-   O25-   C50
    75     76     77     78      9     0.00   0.00000   0 ;    C49-   O25-   C50-   C51
    75     76     77     78      9     0.00   0.66944   2 ;    C49-   O25-   C50-   C51
    75     76     77     78      9     0.00   1.00416   3 ;    C49-   O25-   C50-   C51
    75     76     77    191      9     0.00   1.41001   3 ;    C49-   O25-   C50-  H100
    75     76     77    192      9     0.00   1.41001   3 ;    C49-   O25-   C50-  H101
    76     75     74    187      9     0.00   0.00000   0 ;    O25-   C49-   C48-   H96
    76     75     74    187      9     0.00   1.04600   1 ;    O25-   C49-   C48-   H96
    76     75     74    188      9     0.00   0.00000   0 ;    O25-   C49-   C48-   H97
    76     75     74    188      9     0.00   1.04600   1 ;    O25-   C49-   C48-   H97
    76     77     78     79      9     0.00   0.00000   0 ;    O25-   C50-   C51-   O26
    76     77     78     79      9   180.00   0.00000   2 ;    O25-   C50-   C51-   O26
    76     77     78     79      9   180.00   0.71128   1 ;    O25-   C50-   C51-   O26
    76     77     78    193      9     0.00   0.00000   0 ;    O25-   C50-   C51-  H102
    76     77     78    193      9     0.00   1.04600   1 ;    O25-   C50-   C51-  H102
    76     77     78    194      9     0.00   0.00000   0 ;    O25-   C50-   C51-  H103
    76     77     78    194      9     0.00   1.04600   1 ;    O25-   C50-   C51-  H103
    77     76     75    189      9     0.00   1.41001   3 ;    C50-   O25-   C49-   H98
    77     76     75    190      9     0.00   1.41001   3 ;    C50-   O25-   C49-   H99
    77     78     79     80      9     0.00   0.00000   0 ;    C50-   C51-   O26-   C52
    77     78     79     80      9     0.00   0.66944   2 ;    C50-   C51-   O26-   C52
    77     78     79     80      9     0.00   1.00416   3 ;    C50-   C51-   O26-   C52
    78     79     80     81      9     0.00   0.00000   0 ;    C51-   O26-   C52-   C53
    78     79     80     81      9     0.00   0.66944   2 ;    C51-   O26-   C52-   C53
    78     79     80     81      9     0.00   1.00416   3 ;    C51-   O26-   C52-   C53
    78     79     80    195      9     0.00   1.41001   3 ;    C51-   O26-   C52-  H104
    78     79     80    196      9     0.00   1.41001   3 ;    C51-   O26-   C52-  H105
    79     78     77    191      9     0.00   0.00000   0 ;    O26-   C51-   C50-  H100
    79     78     77    191      9     0.00   1.04600   1 ;    O26-   C51-   C50-  H100
    79     78     77    192      9     0.00   0.00000   0 ;    O26-   C51-   C50-  H101
    79     78     77    192      9     0.00   1.04600   1 ;    O26-   C51-   C50-  H101
    79     80     81     82      9     0.00   0.00000   0 ;    O26-   C52-   C53-   O27
    79     80     81     82      9   180.00   0.00000   2 ;    O26-   C52-   C53-   O27
    79     80     81     82      9   180.00   0.71128   1 ;    O26-   C52-   C53-   O27
    79     80     81    197      9     0.00   0.00000   0 ;    O26-   C52-   C53-  H106
    79     80     81    197      9     0.00   1.04600   1 ;    O26-   C52-   C53-  H106
    79     80     81    198      9     0.00   0.00000   0 ;    O26-   C52-   C53-  H107
    79     80     81    198      9     0.00   1.04600   1 ;    O26-   C52-   C53-  H107
    80     79     78    193      9     0.00   1.41001   3 ;    C52-   O26-   C51-  H102
    80     79     78    194      9     0.00   1.41001   3 ;    C52-   O26-   C51-  H103
    80     81     82     83      9     0.00   0.00000   0 ;    C52-   C53-   O27-   C54
    80     81     82     83      9     0.00   0.66944   2 ;    C52-   C53-   O27-   C54
    80     81     82     83      9     0.00   1.00416   3 ;    C52-   C53-   O27-   C54
    81     82     83     84      9     0.00   0.00000   0 ;    C53-   O27-   C54-   C55
    81     82     83     84      9     0.00   0.66944   2 ;    C53-   O27-   C54-   C55
    81     82     83     84      9     0.00   1.00416   3 ;    C53-   O27-   C54-   C55
    81     82     83    199      9     0.00   1.41001   3 ;    C53-   O27-   C54-  H108
    81     82     83    200      9     0.00   1.41001   3 ;    C53-   O27-   C54-  H109
    82     81     80    195      9     0.00   0.00000   0 ;    O27-   C53-   C52-  H104
    82     81     80    195      9     0.00   1.04600   1 ;    O27-   C53-   C52-  H104
    82     81     80    196      9     0.00   0.00000   0 ;    O27-   C53-   C52-  H105
    82     81     80    196      9     0.00   1.04600   1 ;    O27-   C53-   C52-  H105
    82     83     84     85      9     0.00   0.00000   0 ;    O27-   C54-   C55-   O28
    82     83     84     85      9   180.00   0.00000   2 ;    O27-   C54-   C55-   O28
    82     83     84     85      9   180.00   0.71128   1 ;    O27-   C54-   C55-   O28
    82     83     84    201      9     0.00   0.00000   0 ;    O27-   C54-   C55-  H110
    82     83     84    201      9     0.00   1.04600   1 ;    O27-   C54-   C55-  H110
    82     83     84    202      9     0.00   0.00000   0 ;    O27-   C54-   C55-  H111
    82     83     84    202      9     0.00   1.04600   1 ;    O27-   C54-   C55-  H111
    83     82     81    197      9     0.00   1.41001   3 ;    C54-   O27-   C53-  H106
    83     82     81    198      9     0.00   1.41001   3 ;    C54-   O27-   C53-  H107
    83     84     85     86      9     0.00   0.00000   0 ;    C54-   C55-   O28-   C56
    83     84     85     86      9     0.00   0.66944   2 ;    C54-   C55-   O28-   C56
    83     84     85     86      9     0.00   1.00416   3 ;    C54-   C55-   O28-   C56
    84     85     86     87      9     0.00   0.00000   0 ;    C55-   O28-   C56-   C57
    84     85     86     87      9     0.00   0.66944   2 ;    C55-   O28-   C56-   C57
    84     85     86     87      9     0.00   1.00416   3 ;    C55-   O28-   C56-   C57
    84     85     86    203      9     0.00   1.41001   3 ;    C55-   O28-   C56-  H112
    84     85     86    204      9     0.00   1.41001   3 ;    C55-   O28-   C56-  H113
    85     84     83    199      9     0.00   0.00000   0 ;    O28-   C55-   C54-  H108
    85     84     83    199      9     0.00   1.04600   1 ;    O28-   C55-   C54-  H108
    85     84     83    200      9     0.00   0.00000   0 ;    O28-   C55-   C54-  H109
    85     84     83    200      9     0.00   1.04600   1 ;    O28-   C55-   C54-  H109
    85     86     87     88      9     0.00   0.00000   0 ;    O28-   C56-   C57-   O29
    85     86     87     88      9   180.00   0.00000   2 ;    O28-   C56-   C57-   O29
    85     86     87     88      9   180.00   0.71128   1 ;    O28-   C56-   C57-   O29
    85     86     87    205      9     0.00   0.00000   0 ;    O28-   C56-   C57-  H114
    85     86     87    205      9     0.00   1.04600   1 ;    O28-   C56-   C57-  H114
    85     86     87    206      9     0.00   0.00000   0 ;    O28-   C56-   C57-  H115
    85     86     87    206      9     0.00   1.04600   1 ;    O28-   C56-   C57-  H115
    86     85     84    201      9     0.00   1.41001   3 ;    C56-   O28-   C55-  H110
    86     85     84    202      9     0.00   1.41001   3 ;    C56-   O28-   C55-  H111
    86     87     88     89      9     0.00   0.00000   0 ;    C56-   C57-   O29-   C58
    86     87     88     89      9     0.00   0.66944   2 ;    C56-   C57-   O29-   C58
    86     87     88     89      9     0.00   1.00416   3 ;    C56-   C57-   O29-   C58
    87     88     89     90      9     0.00   0.00000   0 ;    C57-   O29-   C58-   C59
    87     88     89     90      9     0.00   0.66944   2 ;    C57-   O29-   C58-   C59
    87     88     89     90      9     0.00   1.00416   3 ;    C57-   O29-   C58-   C59
    87     88     89    207      9     0.00   1.41001   3 ;    C57-   O29-   C58-  H116
    87     88     89    208      9     0.00   1.41001   3 ;    C57-   O29-   C58-  H117
    88     87     86    203      9     0.00   0.00000   0 ;    O29-   C57-   C56-  H112
    88     87     86    203      9     0.00   1.04600   1 ;    O29-   C57-   C56-  H112
    88     87     86    204      9     0.00   0.00000   0 ;    O29-   C57-   C56-  H113
    88     87     86    204      9     0.00   1.04600   1 ;    O29-   C57-   C56-  H113
    88     89     90    209      9     0.00   0.00000   0 ;    O29-   C58-   C59-  H118
    88     89     90    209      9     0.00   1.04600   1 ;    O29-   C58-   C59-  H118
    88     89     90    210      9     0.00   0.00000   0 ;    O29-   C58-   C59-  H119
    88     89     90    210      9     0.00   1.04600   1 ;    O29-   C58-   C59-  H119
    89     88     87    205      9     0.00   1.41001   3 ;    C58-   O29-   C57-  H114
    89     88     87    206      9     0.00   1.41001   3 ;    C58-   O29-   C57-  H115
    90      1      2      3      9     0.00   0.00000   0 ;    C59-     O-     C-    C1
    90      1      2      3      9     0.00   0.66944   2 ;    C59-     O-     C-    C1
    90      1      2      3      9     0.00   1.00416   3 ;    C59-     O-     C-    C1
    90      1      2     91      9     0.00   1.41001   3 ;    C59-     O-     C-     H
    90      1      2     92      9     0.00   1.41001   3 ;    C59-     O-     C-    H1
    91      2      3     93      9     0.00   0.65084   3 ;      H-     C-    C1-    H2
    91      2      3     94      9     0.00   0.65084   3 ;      H-     C-    C1-    H3
    92      2      3     93      9     0.00   0.65084   3 ;     H1-     C-    C1-    H2
    92      2      3     94      9     0.00   0.65084   3 ;     H1-     C-    C1-    H3
    95      5      6     97      9     0.00   0.65084   3 ;     H4-    C2-    C3-    H6
    95      5      6     98      9     0.00   0.65084   3 ;     H4-    C2-    C3-    H7
    96      5      6     97      9     0.00   0.65084   3 ;     H5-    C2-    C3-    H6
    96      5      6     98      9     0.00   0.65084   3 ;     H5-    C2-    C3-    H7
    99      8      9    101      9     0.00   0.65084   3 ;     H8-    C4-    C5-   H10
    99      8      9    102      9     0.00   0.65084   3 ;     H8-    C4-    C5-   H11
   100      8      9    101      9     0.00   0.65084   3 ;     H9-    C4-    C5-   H10
   100      8      9    102      9     0.00   0.65084   3 ;     H9-    C4-    C5-   H11
   103     11     12    105      9     0.00   0.65084   3 ;    H12-    C6-    C7-   H14
   103     11     12    106      9     0.00   0.65084   3 ;    H12-    C6-    C7-   H15
   104     11     12    105      9     0.00   0.65084   3 ;    H13-    C6-    C7-   H14
   104     11     12    106      9     0.00   0.65084   3 ;    H13-    C6-    C7-   H15
   107     14     15    109      9     0.00   0.65084   3 ;    H16-    C8-    C9-   H18
   107     14     15    110      9     0.00   0.65084   3 ;    H16-    C8-    C9-   H19
   108     14     15    109      9     0.00   0.65084   3 ;    H17-    C8-    C9-   H18
   108     14     15    110      9     0.00   0.65084   3 ;    H17-    C8-    C9-   H19
   111     17     18    113      9     0.00   0.65084   3 ;    H20-   C10-   C11-   H22
   111     17     18    114      9     0.00   0.65084   3 ;    H20-   C10-   C11-   H23
   112     17     18    113      9     0.00   0.65084   3 ;    H21-   C10-   C11-   H22
   112     17     18    114      9     0.00   0.65084   3 ;    H21-   C10-   C11-   H23
   115     20     21    117      9     0.00   0.65084   3 ;    H24-   C12-   C13-   H26
   115     20     21    118      9     0.00   0.65084   3 ;    H24-   C12-   C13-   H27
   116     20     21    117      9     0.00   0.65084   3 ;    H25-   C12-   C13-   H26
   116     20     21    118      9     0.00   0.65084   3 ;    H25-   C12-   C13-   H27
   119     23     24    121      9     0.00   0.65084   3 ;    H28-   C14-   C15-   H30
   119     23     24    122      9     0.00   0.65084   3 ;    H28-   C14-   C15-   H31
   120     23     24    121      9     0.00   0.65084   3 ;    H29-   C14-   C15-   H30
   120     23     24    122      9     0.00   0.65084   3 ;    H29-   C14-   C15-   H31
   123     26     27    125      9     0.00   0.65084   3 ;    H32-   C16-   C17-   H34
   123     26     27    126      9     0.00   0.65084   3 ;    H32-   C16-   C17-   H35
   124     26     27    125      9     0.00   0.65084   3 ;    H33-   C16-   C17-   H34
   124     26     27    126      9     0.00   0.65084   3 ;    H33-   C16-   C17-   H35
   127     29     30    129      9     0.00   0.65084   3 ;    H36-   C18-   C19-   H38
   127     29     30    130      9     0.00   0.65084   3 ;    H36-   C18-   C19-   H39
   128     29     30    129      9     0.00   0.65084   3 ;    H37-   C18-   C19-   H38
   128     29     30    130      9     0.00   0.65084   3 ;    H37-   C18-   C19-   H39
   131     32     33    133      9     0.00   0.65084   3 ;    H40-   C20-   C21-   H42
   131     32     33    134      9     0.00   0.65084   3 ;    H40-   C20-   C21-   H43
   132     32     33    133      9     0.00   0.65084   3 ;    H41-   C20-   C21-   H42
   132     32     33    134      9     0.00   0.65084   3 ;    H41-   C20-   C21-   H43
   135     35     36    137      9     0.00   0.65084   3 ;    H44-   C22-   C23-   H46
   135     35     36    138      9     0.00   0.65084   3 ;    H44-   C22-   C23-   H47
   136     35     36    137      9     0.00   0.65084   3 ;    H45-   C22-   C23-   H46
   136     35     36    138      9     0.00   0.65084   3 ;    H45-   C22-   C23-   H47
   139     38     39    141      9     0.00   0.65084   3 ;    H48-   C24-   C25-   H50
   139     38     39    142      9     0.00   0.65084   3 ;    H48-   C24-   C25-   H51
   140     38     39    141      9     0.00   0.65084   3 ;    H49-   C24-   C25-   H50
   140     38     39    142      9     0.00   0.65084   3 ;    H49-   C24-   C25-   H51
   143     41     42    145      9     0.00   0.65084   3 ;    H52-   C26-   C27-   H54
   143     41     42    146      9     0.00   0.65084   3 ;    H52-   C26-   C27-   H55
   144     41     42    145      9     0.00   0.65084   3 ;    H53-   C26-   C27-   H54
   144     41     42    146      9     0.00   0.65084   3 ;    H53-   C26-   C27-   H55
   147     44     45    149      9     0.00   0.65084   3 ;    H56-   C28-   C29-   H58
   147     44     45    150      9     0.00   0.65084   3 ;    H56-   C28-   C29-   H59
   148     44     45    149      9     0.00   0.65084   3 ;    H57-   C28-   C29-   H58
   148     44     45    150      9     0.00   0.65084   3 ;    H57-   C28-   C29-   H59
   151     47     48    153      9     0.00   0.65084   3 ;    H60-   C30-   C31-   H62
   151     47     48    154      9     0.00   0.65084   3 ;    H60-   C30-   C31-   H63
   152     47     48    153      9     0.00   0.65084   3 ;    H61-   C30-   C31-   H62
   152     47     48    154      9     0.00   0.65084   3 ;    H61-   C30-   C31-   H63
   155     50     51    157      9     0.00   0.65084   3 ;    H64-   C32-   C33-   H66
   155     50     51    158      9     0.00   0.65084   3 ;    H64-   C32-   C33-   H67
   156     50     51    157      9     0.00   0.65084   3 ;    H65-   C32-   C33-   H66
   156     50     51    158      9     0.00   0.65084   3 ;    H65-   C32-   C33-   H67
   159     53     54    161      9     0.00   0.65084   3 ;    H68-   C34-   C35-   H70
   159     53     54    162      9     0.00   0.65084   3 ;    H68-   C34-   C35-   H71
   160     53     54    161      9     0.00   0.65084   3 ;    H69-   C34-   C35-   H70
   160     53     54    162      9     0.00   0.65084   3 ;    H69-   C34-   C35-   H71
   163     56     57    165      9     0.00   0.65084   3 ;    H72-   C36-   C37-   H74
   163     56     57    166      9     0.00   0.65084   3 ;    H72-   C36-   C37-   H75
   164     56     57    165      9     0.00   0.65084   3 ;    H73-   C36-   C37-   H74
   164     56     57    166      9     0.00   0.65084   3 ;    H73-   C36-   C37-   H75
   167     59     60    169      9     0.00   0.65084   3 ;    H76-   C38-   C39-   H78
   167     59     60    170      9     0.00   0.65084   3 ;    H76-   C38-   C39-   H79
   168     59     60    169      9     0.00   0.65084   3 ;    H77-   C38-   C39-   H78
   168     59     60    170      9     0.00   0.65084   3 ;    H77-   C38-   C39-   H79
   171     62     63    173      9     0.00   0.65084   3 ;    H80-   C40-   C41-   H82
   171     62     63    174      9     0.00   0.65084   3 ;    H80-   C40-   C41-   H83
   172     62     63    173      9     0.00   0.65084   3 ;    H81-   C40-   C41-   H82
   172     62     63    174      9     0.00   0.65084   3 ;    H81-   C40-   C41-   H83
   175     65     66    177      9     0.00   0.65084   3 ;    H84-   C42-   C43-   H86
   175     65     66    178      9     0.00   0.65084   3 ;    H84-   C42-   C43-   H87
   176     65     66    177      9     0.00   0.65084   3 ;    H85-   C42-   C43-   H86
   176     65     66    178      9     0.00   0.65084   3 ;    H85-   C42-   C43-   H87
   179     68     69    181      9     0.00   0.65084   3 ;    H88-   C44-   C45-   H90
   179     68     69    182      9     0.00   0.65084   3 ;    H88-   C44-   C45-   H91
   180     68     69    181      9     0.00   0.65084   3 ;    H89-   C44-   C45-   H90
   180     68     69    182      9     0.00   0.65084   3 ;    H89-   C44-   C45-   H91
   183     71     72    185      9     0.00   0.65084   3 ;    H92-   C46-   C47-   H94
   183     71     72    186      9     0.00   0.65084   3 ;    H92-   C46-   C47-   H95
   184     71     72    185      9     0.00   0.65084   3 ;    H93-   C46-   C47-   H94
   184     71     72    186      9     0.00   0.65084   3 ;    H93-   C46-   C47-   H95
   187     74     75    189      9     0.00   0.65084   3 ;    H96-   C48-   C49-   H98
   187     74     75    190      9     0.00   0.65084   3 ;    H96-   C48-   C49-   H99
   188     74     75    189      9     0.00   0.65084   3 ;    H97-   C48-   C49-   H98
   188     74     75    190      9     0.00   0.65084   3 ;    H97-   C48-   C49-   H99
   191     77     78    193      9     0.00   0.65084   3 ;   H100-   C50-   C51-  H102
   191     77     78    194      9     0.00   0.65084   3 ;   H100-   C50-   C51-  H103
   192     77     78    193      9     0.00   0.65084   3 ;   H101-   C50-   C51-  H102
   192     77     78    194      9     0.00   0.65084   3 ;   H101-   C50-   C51-  H103
   195     80     81    197      9     0.00   0.65084   3 ;   H104-   C52-   C53-  H106
   195     80     81    198      9     0.00   0.65084   3 ;   H104-   C52-   C53-  H107
   196     80     81    197      9     0.00   0.65084   3 ;   H105-   C52-   C53-  H106
   196     80     81    198      9     0.00   0.65084   3 ;   H105-   C52-   C53-  H107
   199     83     84    201      9     0.00   0.65084   3 ;   H108-   C54-   C55-  H110
   199     83     84    202      9     0.00   0.65084   3 ;   H108-   C54-   C55-  H111
   200     83     84    201      9     0.00   0.65084   3 ;   H109-   C54-   C55-  H110
   200     83     84    202      9     0.00   0.65084   3 ;   H109-   C54-   C55-  H111
   203     86     87    205      9     0.00   0.65084   3 ;   H112-   C56-   C57-  H114
   203     86     87    206      9     0.00   0.65084   3 ;   H112-   C56-   C57-  H115
   204     86     87    205      9     0.00   0.65084   3 ;   H113-   C56-   C57-  H114
   204     86     87    206      9     0.00   0.65084   3 ;   H113-   C56-   C57-  H115
   207     89     90    209      9     0.00   0.65084   3 ;   H116-   C58-   C59-  H118
   207     89     90    210      9     0.00   0.65084   3 ;   H116-   C58-   C59-  H119
   208     89     90    209      9     0.00   0.65084   3 ;   H117-   C58-   C59-  H118
   208     89     90    210      9     0.00   0.65084   3 ;   H117-   C58-   C59-  H119
