2aCDOC_1PEG_l11
21948
    1LIG      O    1   2.214   2.278   0.025
    1LIG      C    2   2.295   2.292   0.151
    1LIG     C1    3   2.223   2.236   0.282
    1LIG     O1    4   2.283   2.287   0.407
    1LIG     C2    5   2.222   2.233   0.531
    1LIG     C3    6   2.296   2.280   0.663
    1LIG     O2    7   2.234   2.222   0.783
    1LIG     C4    8   2.289   2.274   0.908
    1LIG     C5    9   2.209   2.222   1.034
    1LIG     O3   10   2.267   2.274   1.158
    1LIG     C6   11   2.210   2.222   1.281
    1LIG     C7   12   2.286   2.280   1.406
    1LIG     O4   13   2.218   2.244   1.529
    1LIG     C8   14   2.294   2.277   1.648
    1LIG     C9   15   2.218   2.225   1.774
    1LIG     O5   16   2.282   2.272   1.894
    1LIG    C10   17   2.222   2.222   2.016
    1LIG    C11   18   2.297   2.276   2.141
    1LIG     O6   19   2.241   2.217   2.262
    1LIG    C12   20   2.292   2.280   2.382
    1LIG    C13   21   2.216   2.227   2.508
    1LIG     O7   22   2.284   2.272   2.629
    1LIG    C14   23   2.213   2.244   2.752
    1LIG    C15   24   2.294   2.301   2.876
    1LIG     O8   25   2.243   2.250   3.002
    1LIG    C16   26   2.304   2.302   3.123
    1LIG    C17   27   2.232   2.239   3.246
    1LIG     O9   28   2.281   2.298   3.370
    1LIG    C18   29   2.222   2.238   3.489
    1LIG    C19   30   2.297   2.287   3.617
    1LIG    O10   31   2.231   2.238   3.736
    1LIG    C20   32   2.295   2.285   3.859
    1LIG    C21   33   2.216   2.235   3.984
    1LIG    O11   34   2.275   2.286   4.107
    1LIG    C22   35   2.212   2.231   4.225
    1LIG    C23   36   2.288   2.277   4.354
    1LIG    O12   37   2.228   2.219   4.472
    1LIG    C24   38   2.284   2.276   4.593
    1LIG    C25   39   2.208   2.222   4.718
    1LIG    O13   40   2.268   2.274   4.838
    1LIG    C26   41   2.207   2.224   4.959
    1LIG    C27   42   2.281   2.283   5.083
    1LIG    O14   43   2.223   2.232   5.205
    1LIG    C28   44   2.286   2.285   5.325
    1LIG    C29   45   2.213   2.230   5.451
    1LIG    O15   46   2.262   2.290   5.573
    1LIG    C30   47   2.204   2.238   5.697
    1LIG    C31   48   2.285   2.286   5.823
    1LIG    O16   49   2.217   2.241   5.944
    1LIG    C32   50   2.282   2.281   6.069
    1LIG    C33   51   2.203   2.222   6.191
    1LIG    O17   52   2.255   2.275   6.317
    1LIG    C34   53   2.186   2.227   6.436
    1LIG    C35   54   2.258   2.285   6.564
    1LIG    O18   55   2.190   2.250   6.687
    1LIG    C36   56   2.263   2.296   6.805
    1LIG    C37   57   2.206   2.226   6.932
    1LIG    O19   58   2.260   2.288   7.051
    1LIG    C38   59   2.210   2.226   7.173
    1LIG    C39   60   2.289   2.278   7.297
    1LIG    O20   61   2.228   2.230   7.419
    1LIG    C40   62   2.294   2.281   7.539
    1LIG    C41   63   2.218   2.230   7.665
    1LIG    O21   64   2.284   2.272   7.787
    1LIG    C42   65   2.213   2.228   7.905
    1LIG    C43   66   2.287   2.280   8.033
    1LIG    O22   67   2.231   2.218   8.152
    1LIG    C44   68   2.286   2.276   8.274
    1LIG    C45   69   2.211   2.221   8.399
    1LIG    O23   70   2.270   2.276   8.521
    1LIG    C46   71   2.216   2.220   8.643
    1LIG    C47   72   2.292   2.281   8.766
    1LIG    O24   73   2.222   2.247   8.890
    1LIG    C48   74   2.296   2.282   9.010
    1LIG    C49   75   2.224   2.226   9.137
    1LIG    O25   76   2.292   2.271   9.257
    1LIG    C50   77   2.230   2.226   9.380
    1LIG    C51   78   2.306   2.278   9.506
    1LIG    O26   79   2.245   2.225   9.627
    1LIG    C52   80   2.293   2.286   9.750
    1LIG    C53   81   2.211   2.231   9.873
    1LIG    O27   82   2.271   2.268  10.000
    1LIG    C54   83   2.205   2.217  10.121
    1LIG    C55   84   2.277   2.273  10.251
    1LIG    O28   85   2.213   2.235  10.377
    1LIG    C56   86   2.276   2.291  10.497
    1LIG    C57   87   2.214   2.226  10.628
    1LIG    O29   88   2.264   2.281  10.756
    1LIG    C58   89   2.199   2.216  10.873
    1LIG    C59   90   2.283   2.215  11.010
    1LIG      H   91   2.315   2.398   0.167
    1LIG     H1   92   2.391   2.242   0.139
    1LIG     H2   93   2.231   2.127   0.283
    1LIG     H3   94   2.116   2.261   0.281
    1LIG     H4   95   2.227   2.124   0.526
    1LIG     H5   96   2.117   2.262   0.535
    1LIG     H6   97   2.291   2.389   0.671
    1LIG     H7   98   2.401   2.251   0.659
    1LIG     H8   99   2.284   2.384   0.907
    1LIG     H9  100   2.394   2.245   0.918
    1LIG    H10  101   2.212   2.112   1.036
    1LIG    H11  102   2.104   2.253   1.027
    1LIG    H12  103   2.218   2.112   1.282
    1LIG    H13  104   2.104   2.248   1.287
    1LIG    H14  105   2.291   2.390   1.398
    1LIG    H15  106   2.388   2.241   1.408
    1LIG    H16  107   2.306   2.386   1.656
    1LIG    H17  108   2.394   2.232   1.644
    1LIG    H18  109   2.216   2.115   1.773
    1LIG    H19  110   2.115   2.262   1.770
    1LIG    H20  111   2.223   2.112   2.016
    1LIG    H21  112   2.118   2.255   2.022
    1LIG    H22  113   2.285   2.385   2.145
    1LIG    H23  114   2.404   2.252   2.135
    1LIG    H24  115   2.281   2.389   2.376
    1LIG    H25  116   2.399   2.257   2.392
    1LIG    H26  117   2.214   2.118   2.507
    1LIG    H27  118   2.113   2.265   2.507
    1LIG    H28  119   2.201   2.136   2.761
    1LIG    H29  120   2.114   2.291   2.748
    1LIG    H30  121   2.289   2.410   2.875
    1LIG    H31  122   2.399   2.270   2.867
    1LIG    H32  123   2.294   2.411   3.126
    1LIG    H33  124   2.411   2.276   3.125
    1LIG    H34  125   2.246   2.130   3.247
    1LIG    H35  126   2.125   2.260   3.237
    1LIG    H36  127   2.228   2.128   3.483
    1LIG    H37  128   2.117   2.267   3.496
    1LIG    H38  129   2.298   2.396   3.619
    1LIG    H39  130   2.400   2.250   3.615
    1LIG    H40  131   2.298   2.394   3.859
    1LIG    H41  132   2.398   2.248   3.863
    1LIG    H42  133   2.219   2.126   3.987
    1LIG    H43  134   2.111   2.267   3.978
    1LIG    H44  135   2.214   2.122   4.220
    1LIG    H45  136   2.107   2.263   4.229
    1LIG    H46  137   2.283   2.386   4.361
    1LIG    H47  138   2.393   2.247   4.347
    1LIG    H48  139   2.276   2.385   4.591
    1LIG    H49  140   2.391   2.249   4.600
    1LIG    H50  141   2.212   2.112   4.719
    1LIG    H51  142   2.103   2.253   4.713
    1LIG    H52  143   2.213   2.114   4.962
    1LIG    H53  144   2.101   2.253   4.962
    1LIG    H54  145   2.273   2.392   5.080
    1LIG    H55  146   2.387   2.257   5.078
    1LIG    H56  147   2.279   2.394   5.323
    1LIG    H57  148   2.391   2.256   5.328
    1LIG    H58  149   2.231   2.123   5.454
    1LIG    H59  150   2.105   2.244   5.442
    1LIG    H60  151   2.204   2.129   5.695
    1LIG    H61  152   2.100   2.272   5.704
    1LIG    H62  153   2.291   2.396   5.823
    1LIG    H63  154   2.387   2.246   5.820
    1LIG    H64  155   2.284   2.390   6.075
    1LIG    H65  156   2.385   2.244   6.070
    1LIG    H66  157   2.211   2.113   6.191
    1LIG    H67  158   2.097   2.249   6.182
    1LIG    H68  159   2.188   2.118   6.439
    1LIG    H69  160   2.082   2.261   6.435
    1LIG    H70  161   2.263   2.394   6.556
    1LIG    H71  162   2.360   2.247   6.569
    1LIG    H72  163   2.252   2.405   6.814
    1LIG    H73  164   2.370   2.274   6.796
    1LIG    H74  165   2.230   2.119   6.930
    1LIG    H75  166   2.097   2.237   6.932
    1LIG    H76  167   2.220   2.117   7.166
    1LIG    H77  168   2.103   2.250   7.184
    1LIG    H78  169   2.289   2.387   7.297
    1LIG    H79  170   2.393   2.243   7.291
    1LIG    H80  171   2.295   2.390   7.537
    1LIG    H81  172   2.398   2.246   7.541
    1LIG    H82  173   2.216   2.121   7.663
    1LIG    H83  174   2.115   2.267   7.665
    1LIG    H84  175   2.211   2.119   7.906
    1LIG    H85  176   2.110   2.265   7.904
    1LIG    H86  177   2.277   2.389   8.039
    1LIG    H87  178   2.394   2.255   8.026
    1LIG    H88  179   2.277   2.385   8.271
    1LIG    H89  180   2.393   2.250   8.281
    1LIG    H90  181   2.218   2.112   8.401
    1LIG    H91  182   2.105   2.250   8.395
    1LIG    H92  183   2.226   2.111   8.643
    1LIG    H93  184   2.110   2.246   8.650
    1LIG    H94  185   2.296   2.390   8.757
    1LIG    H95  186   2.395   2.243   8.769
    1LIG    H96  187   2.303   2.390   9.017
    1LIG    H97  188   2.398   2.242   9.005
    1LIG    H98  189   2.223   2.116   9.133
    1LIG    H99  190   2.120   2.262   9.137
    1LIG   H100  191   2.226   2.116   9.381
    1LIG   H101  192   2.127   2.264   9.384
    1LIG   H102  193   2.301   2.388   9.507
    1LIG   H103  194   2.411   2.248   9.502
    1LIG   H104  195   2.283   2.395   9.745
    1LIG   H105  196   2.399   2.261   9.763
    1LIG   H106  197   2.211   2.122   9.864
    1LIG   H107  198   2.108   2.266   9.867
    1LIG   H108  199   2.208   2.107  10.121
    1LIG   H109  200   2.099   2.248  10.121
    1LIG   H110  201   2.280   2.382  10.244
    1LIG   H111  202   2.380   2.235  10.251
    1LIG   H112  203   2.262   2.400  10.498
    1LIG   H113  204   2.384   2.271  10.494
    1LIG   H114  205   2.234   2.119  10.625
    1LIG   H115  206   2.105   2.240  10.624
    1LIG   H116  207   2.183   2.111  10.847
    1LIG   H117  208   2.100   2.261  10.888
    1LIG   H118  209   2.382   2.259  10.995
    1LIG   H119  210   2.298   2.109  11.036
    2MOL     C1  211   1.897   1.837   5.035
    2MOL     H1  212   1.893   1.728   5.048
    2MOL     O1  213   1.846   1.902   5.152
    2MOL     C2  214   1.849   2.047   5.151
    2MOL     H2  215   1.953   2.084   5.151
    2MOL     C3  216   1.779   2.092   5.278
    2MOL     H3  217   1.681   2.045   5.285
    2MOL     H4  218   1.768   2.200   5.280
    2MOL     O2  219   1.862   2.051   5.384
    2MOL     C4  220   1.813   2.090   5.510
    2MOL     C5  221   1.806   1.879   4.919
    2MOL     H5  222   1.703   1.848   4.942
    2MOL     O3  223   1.850   1.821   4.796
    2MOL     C6  224   1.814   1.684   4.782
    2MOL     C7  225   1.807   2.031   4.900
    2MOL     H6  226   1.906   2.063   4.867
    2MOL     O4  227   1.704   2.063   4.804
    2MOL     C8  228   1.754   2.097   4.674
    2MOL     C9  229   1.772   2.102   5.029
    2MOL     H7  230   1.665   2.092   5.048
    2MOL     O5  231   1.809   2.239   5.008
    2MOL    C10  232   1.709   2.336   5.043
    2MOL     H8  233   1.611   2.290   5.056
    2MOL     O6  234   1.749   2.399   5.164
    2MOL    C11  235   1.882   2.456   5.165
    2MOL     H9  236   1.958   2.378   5.144
    2MOL    C12  237   1.905   2.506   5.305
    2MOL    H10  238   1.831   2.583   5.331
    2MOL    H11  239   2.006   2.547   5.316
    2MOL     O7  240   1.888   2.390   5.386
    2MOL    C13  241   1.930   2.409   5.518
    2MOL    C14  242   1.703   2.446   4.937
    2MOL    H12  243   1.627   2.519   4.969
    2MOL     O8  244   1.666   2.392   4.809
    2MOL    C15  245   1.530   2.350   4.800
    2MOL    C16  246   1.838   2.519   4.923
    2MOL    H13  247   1.912   2.449   4.880
    2MOL     O9  248   1.817   2.634   4.842
    2MOL    C17  249   1.857   2.618   4.707
    2MOL    C18  250   1.892   2.566   5.059
    2MOL    H14  251   1.829   2.650   5.093
    2MOL    O10  252   2.029   2.607   5.041
    2MOL    C19  253   2.057   2.743   5.078
    2MOL    H15  254   1.963   2.795   5.103
    2MOL    O11  255   2.143   2.744   5.193
    2MOL    C20  256   2.273   2.681   5.175
    2MOL    H16  257   2.261   2.573   5.165
    2MOL    C21  258   2.356   2.715   5.298
    2MOL    H17  259   2.329   2.814   5.334
    2MOL    H18  260   2.463   2.715   5.275
    2MOL    O12  261   2.331   2.616   5.396
    2MOL    C22  262   2.397   2.654   5.515
    2MOL    C23  263   2.131   2.821   4.967
    2MOL    H19  264   2.155   2.921   5.004
    2MOL    O13  265   2.049   2.831   4.850
    2MOL    C24  266   1.954   2.938   4.859
    2MOL    C25  267   2.263   2.755   4.928
    2MOL    H20  268   2.246   2.659   4.882
    2MOL    O14  269   2.334   2.847   4.843
    2MOL    C26  270   2.340   2.807   4.706
    2MOL    C27  271   2.350   2.737   5.053
    2MOL    H21  272   2.393   2.833   5.079
    2MOL    O15  273   2.453   2.641   5.016
    2MOL    C28  274   2.589   2.680   5.046
    2MOL    H22  275   2.596   2.787   5.067
    2MOL    O16  276   2.634   2.604   5.160
    2MOL    C29  277   2.626   2.460   5.149
    2MOL    H23  278   2.521   2.431   5.133
    2MOL    C30  279   2.671   2.401   5.282
    2MOL    H24  280   2.644   2.296   5.290
    2MOL    H25  281   2.617   2.458   5.357
    2MOL    O17  282   2.814   2.420   5.298
    2MOL    C31  283   2.869   2.357   5.415
    2MOL    C32  284   2.682   2.643   4.928
    2MOL    H26  285   2.785   2.671   4.955
    2MOL    O18  286   2.641   2.714   4.809
    2MOL    C33  287   2.673   2.854   4.808
    2MOL    C34  288   2.680   2.492   4.901
    2MOL    H27  289   2.579   2.463   4.865
    2MOL    O19  290   2.782   2.462   4.803
    2MOL    C35  291   2.730   2.426   4.674
    2MOL    C36  292   2.709   2.410   5.028
    2MOL    H28  293   2.817   2.421   5.051
    2MOL    O20  294   2.674   2.273   5.001
    2MOL    C37  295   2.771   2.174   5.040
    2MOL    H29  296   2.868   2.220   5.062
    2MOL    O21  297   2.723   2.106   5.158
    2MOL    C38  298   2.593   2.041   5.144
    2MOL    H30  299   2.518   2.114   5.117
    2MOL    C39  300   2.554   1.983   5.279
    2MOL    H31  301   2.452   1.947   5.278
    2MOL    H32  302   2.557   2.067   5.348
    2MOL    O22  303   2.649   1.879   5.311
    2MOL    C40  304   2.611   1.793   5.419
    2MOL    C41  305   2.787   2.068   4.928
    2MOL    H33  306   2.862   1.995   4.957
    2MOL    O23  307   2.825   2.134   4.805
    2MOL    C42  308   2.962   2.178   4.799
    2MOL    C43  309   2.653   1.995   4.904
    2MOL    H34  310   2.579   2.068   4.867
    2MOL    O24  311   2.674   1.890   4.808
    2MOL    C44  312   2.619   1.915   4.679
    2MOL    C45  313   2.598   1.934   5.034
    2MOL    H35  314   2.662   1.850   5.063
    2MOL    O25  315   2.462   1.891   5.009
    2MOL    C46  316   2.428   1.758   5.053
    2MOL    H36  317   2.518   1.699   5.075
    2MOL    O26  318   2.346   1.765   5.170
    2MOL    C47  319   2.223   1.842   5.158
    2MOL    H37  320   2.244   1.948   5.141
    2MOL    C48  321   2.144   1.822   5.285
    2MOL    H38  322   2.151   1.718   5.316
    2MOL    H39  323   2.039   1.846   5.268
    2MOL    O27  324   2.193   1.908   5.386
    2MOL    C49  325   2.110   1.898   5.502
    2MOL    C50  326   2.345   1.688   4.942
    2MOL    H40  327   2.322   1.585   4.974
    2MOL    O28  328   2.417   1.687   4.819
    2MOL    C51  329   2.537   1.610   4.821
    2MOL    C52  330   2.214   1.763   4.915
    2MOL    H41  331   2.237   1.861   4.872
    2MOL    O29  332   2.132   1.683   4.828
    2MOL    C53  333   2.127   1.729   4.692
    2MOL    C54  334   2.136   1.786   5.044
    2MOL    H42  335   2.093   1.690   5.076
    2MOL    O30  336   2.032   1.882   5.013
    2MOL    H43  337   1.907   2.322   5.579
    2MOL    H44  338   2.038   2.421   5.521
    2MOL    H45  339   1.879   2.498   5.558
    2MOL    H46  340   1.898   2.090   5.576
    2MOL    H47  341   1.773   2.192   5.505
    2MOL    H48  342   1.735   2.022   5.545
    2MOL    H49  343   2.127   1.983   5.569
    2MOL    H50  344   2.006   1.899   5.472
    2MOL    H51  345   2.131   1.805   5.555
    2MOL    H52  346   2.672   1.702   5.418
    2MOL    H53  347   2.630   1.842   5.515
    2MOL    H54  348   2.506   1.763   5.410
    2MOL    H55  349   2.977   2.375   5.421
    2MOL    H56  350   2.823   2.396   5.506
    2MOL    H57  351   2.852   2.248   5.410
    2MOL    H58  352   2.371   2.586   5.596
    2MOL    H59  353   2.505   2.654   5.499
    2MOL    H60  354   2.365   2.754   5.546
    2MOL    H61  355   2.986   2.206   4.696
    2MOL    H62  356   2.976   2.266   4.864
    2MOL    H63  357   3.029   2.097   4.830
    2MOL    H64  358   2.812   2.406   4.605
    2MOL    H65  359   2.668   2.336   4.682
    2MOL    H66  360   2.669   2.508   4.633
    2MOL    H67  361   2.654   2.896   4.709
    2MOL    H68  362   2.611   2.908   4.881
    2MOL    H69  363   2.779   2.869   4.834
    2MOL    H70  364   2.404   2.879   4.652
    2MOL    H71  365   2.385   2.708   4.697
    2MOL    H72  366   2.240   2.807   4.662
    2MOL    H73  367   1.912   2.958   4.761
    2MOL    H74  368   1.873   2.913   4.928
    2MOL    H75  369   2.004   3.030   4.892
    2MOL    H76  370   1.824   2.705   4.651
    2MOL    H77  371   1.967   2.609   4.702
    2MOL    H78  372   1.812   2.529   4.662
    2MOL    H79  373   1.506   2.318   4.698
    2MOL    H80  374   1.514   2.264   4.866
    2MOL    H81  375   1.462   2.430   4.830
    2MOL    H82  376   1.670   2.117   4.607
    2MOL    H83  377   1.818   2.186   4.679
    2MOL    H84  378   1.813   2.014   4.633
    2MOL    H85  379   1.831   1.650   4.679
    2MOL    H86  380   1.876   1.621   4.849
    2MOL    H87  381   1.709   1.669   4.808
    2MOL    H88  382   2.081   1.652   4.629
    2MOL    H89  383   2.070   1.822   4.685
    2MOL    H90  384   2.228   1.749   4.655
    2MOL    H91  385   2.581   1.604   4.721
    2MOL    H92  386   2.610   1.660   4.886
    2MOL    H93  387   2.518   1.509   4.859
    2MOL    H94  388   2.634   1.829   4.614
    2MOL    H95  389   2.511   1.933   4.687
    2MOL    H96  390   2.667   2.003   4.634
    3MOL     C1  391   2.602   1.834   6.063
    3MOL     H1  392   2.608   1.725   6.045
    3MOL     O1  393   2.651   1.903   5.946
    3MOL     C2  394   2.651   2.049   5.950
    3MOL     H2  395   2.549   2.087   5.949
    3MOL     C3  396   2.726   2.095   5.825
    3MOL     H3  397   2.824   2.047   5.818
    3MOL     H4  398   2.739   2.203   5.824
    3MOL     O2  399   2.647   2.058   5.714
    3MOL     C4  400   2.706   2.090   5.590
    3MOL     C5  401   2.696   1.873   6.179
    3MOL     H5  402   2.798   1.844   6.152
    3MOL     O3  403   2.657   1.807   6.301
    3MOL     C6  404   2.692   1.668   6.308
    3MOL     C7  405   2.695   2.025   6.202
    3MOL     H6  406   2.595   2.056   6.237
    3MOL     O4  407   2.799   2.057   6.298
    3MOL     C8  408   2.749   2.097   6.426
    3MOL     C9  409   2.727   2.102   6.074
    3MOL     H7  410   2.835   2.093   6.055
    3MOL     O5  411   2.690   2.240   6.097
    3MOL    C10  412   2.790   2.339   6.061
    3MOL     H8  413   2.888   2.292   6.049
    3MOL     O6  414   2.752   2.402   5.940
    3MOL    C11  415   2.620   2.460   5.939
    3MOL     H9  416   2.544   2.384   5.963
    3MOL    C12  417   2.595   2.505   5.797
    3MOL    H10  418   2.671   2.579   5.767
    3MOL    H11  419   2.495   2.548   5.786
    3MOL     O7  420   2.609   2.385   5.720
    3MOL    C13  421   2.555   2.396   5.592
    3MOL    C14  422   2.799   2.452   6.166
    3MOL    H12  423   2.878   2.522   6.134
    3MOL     O8  424   2.832   2.397   6.295
    3MOL    C15  425   2.967   2.351   6.306
    3MOL    C16  426   2.668   2.531   6.178
    3MOL    H13  427   2.593   2.466   6.225
    3MOL     O9  428   2.695   2.651   6.254
    3MOL    C17  429   2.651   2.647   6.389
    3MOL    C18  430   2.612   2.574   6.043
    3MOL    H14  431   2.674   2.657   6.007
    3MOL    O10  432   2.475   2.616   6.063
    3MOL    C19  433   2.444   2.748   6.016
    3MOL    H15  434   2.537   2.801   5.986
    3MOL    O11  435   2.356   2.739   5.903
    3MOL    C20  436   2.227   2.675   5.924
    3MOL    H16  437   2.238   2.568   5.939
    3MOL    C21  438   2.143   2.707   5.801
    3MOL    H17  439   2.173   2.806   5.764
    3MOL    H18  440   2.037   2.712   5.824
    3MOL    O12  441   2.163   2.608   5.702
    3MOL    C22  442   2.102   2.655   5.582
    3MOL    C23  443   2.372   2.832   6.123
    3MOL    H19  444   2.352   2.931   6.082
    3MOL    O13  445   2.452   2.844   6.242
    3MOL    C24  446   2.564   2.935   6.232
    3MOL    C25  447   2.238   2.768   6.163
    3MOL    H20  448   2.257   2.675   6.216
    3MOL    O14  449   2.163   2.863   6.243
    3MOL    C26  450   2.145   2.818   6.377
    3MOL    C27  451   2.150   2.738   6.042
    3MOL    H21  452   2.105   2.832   6.010
    3MOL    O15  453   2.048   2.645   6.089
    3MOL    C28  454   1.911   2.678   6.055
    3MOL    H22  455   1.901   2.784   6.035
    3MOL    O16  456   1.872   2.602   5.941
    3MOL    C29  457   1.879   2.458   5.953
    3MOL    H23  458   1.984   2.427   5.970
    3MOL    C30  459   1.835   2.403   5.819
    3MOL    H24  460   1.859   2.296   5.810
    3MOL    H25  461   1.894   2.460   5.748
    3MOL    O17  462   1.694   2.427   5.800
    3MOL    C31  463   1.641   2.375   5.677
    3MOL    C32  464   1.817   2.638   6.171
    3MOL    H26  465   1.714   2.666   6.142
    3MOL    O18  466   1.853   2.706   6.292
    3MOL    C33  467   1.818   2.844   6.295
    3MOL    C34  468   1.820   2.488   6.197
    3MOL    H27  469   1.921   2.460   6.233
    3MOL    O19  470   1.719   2.457   6.295
    3MOL    C35  471   1.771   2.425   6.424
    3MOL    C36  472   1.792   2.408   6.071
    3MOL    H28  473   1.685   2.419   6.046
    3MOL    O20  474   1.827   2.271   6.099
    3MOL    C37  475   1.729   2.172   6.063
    3MOL    H29  476   1.631   2.219   6.044
    3MOL    O21  477   1.774   2.104   5.945
    3MOL    C38  478   1.904   2.039   5.957
    3MOL    H30  479   1.982   2.113   5.980
    3MOL    C39  480   1.938   1.977   5.823
    3MOL    H31  481   2.041   1.943   5.818
    3MOL    H32  482   1.928   2.058   5.752
    3MOL    O22  483   1.844   1.869   5.796
    3MOL    C40  484   1.876   1.784   5.685
    3MOL    C41  485   1.716   2.067   6.177
    3MOL    H33  486   1.641   1.993   6.148
    3MOL    O23  487   1.678   2.131   6.300
    3MOL    C42  488   1.543   2.179   6.303
    3MOL    C43  489   1.850   1.994   6.200
    3MOL    H34  490   1.924   2.064   6.238
    3MOL    O24  491   1.826   1.885   6.293
    3MOL    C44  492   1.872   1.906   6.426
    3MOL    C45  493   1.902   1.933   6.069
    3MOL    H35  494   1.837   1.850   6.040
    3MOL    O25  495   2.037   1.889   6.092
    3MOL    C46  496   2.067   1.755   6.046
    3MOL    H36  497   1.975   1.700   6.023
    3MOL    O26  498   2.150   1.762   5.929
    3MOL    C47  499   2.275   1.836   5.944
    3MOL    H37  500   2.256   1.942   5.964
    3MOL    C48  501   2.352   1.821   5.814
    3MOL    H38  502   2.339   1.721   5.772
    3MOL    H39  503   2.459   1.837   5.831
    3MOL    O27  504   2.308   1.920   5.723
    3MOL    C49  505   2.388   1.917   5.605
    3MOL    C50  506   2.147   1.679   6.155
    3MOL    H40  507   2.167   1.578   6.119
    3MOL    O28  508   2.071   1.674   6.277
    3MOL    C51  509   1.961   1.582   6.278
    3MOL    C52  510   2.281   1.749   6.184
    3MOL    H41  511   2.262   1.845   6.232
    3MOL    O29  512   2.359   1.660   6.268
    3MOL    C53  513   2.356   1.698   6.406
    3MOL    C54  514   2.362   1.777   6.056
    3MOL    H42  515   2.406   1.682   6.021
    3MOL    O30  516   2.465   1.873   6.090
    3MOL    H43  517   2.570   2.306   5.532
    3MOL    H44  518   2.448   2.411   5.601
    3MOL    H45  519   2.601   2.482   5.544
    3MOL    H46  520   2.632   2.072   5.515
    3MOL    H47  521   2.734   2.196   5.588
    3MOL    H48  522   2.794   2.028   5.571
    3MOL    H49  523   2.368   2.003   5.541
    3MOL    H50  524   2.492   1.918   5.633
    3MOL    H51  525   2.368   1.824   5.549
    3MOL    H52  526   1.811   1.696   5.683
    3MOL    H53  527   1.860   1.837   5.591
    3MOL    H54  528   1.980   1.750   5.692
    3MOL    H55  529   1.532   2.374   5.680
    3MOL    H56  530   1.673   2.435   5.591
    3MOL    H57  531   1.677   2.273   5.664
    3MOL    H58  532   2.126   2.588   5.499
    3MOL    H59  533   1.994   2.662   5.595
    3MOL    H60  534   2.143   2.754   5.556
    3MOL    H61  535   1.517   2.209   6.405
    3MOL    H62  536   1.531   2.266   6.238
    3MOL    H63  537   1.473   2.100   6.271
    3MOL    H64  538   1.690   2.405   6.494
    3MOL    H65  539   1.835   2.336   6.418
    3MOL    H66  540   1.831   2.509   6.463
    3MOL    H67  541   1.841   2.887   6.393
    3MOL    H68  542   1.875   2.897   6.218
    3MOL    H69  543   1.711   2.857   6.275
    3MOL    H70  544   2.086   2.891   6.434
    3MOL    H71  545   2.093   2.722   6.377
    3MOL    H72  546   2.243   2.806   6.424
    3MOL    H73  547   2.603   2.955   6.333
    3MOL    H74  548   2.644   2.892   6.171
    3MOL    H75  549   2.532   3.030   6.188
    3MOL    H76  550   2.685   2.737   6.443
    3MOL    H77  551   2.542   2.644   6.392
    3MOL    H78  552   2.692   2.559   6.439
    3MOL    H79  553   2.991   2.339   6.412
    3MOL    H80  554   2.979   2.255   6.255
    3MOL    H81  555   3.037   2.425   6.263
    3MOL    H82  556   2.832   2.121   6.493
    3MOL    H83  557   2.684   2.185   6.416
    3MOL    H84  558   2.691   2.015   6.471
    3MOL    H85  559   2.677   1.632   6.410
    3MOL    H86  560   2.630   1.609   6.241
    3MOL    H87  561   2.798   1.654   6.282
    3MOL    H88  562   2.421   1.632   6.464
    3MOL    H89  563   2.392   1.800   6.415
    3MOL    H90  564   2.254   1.693   6.446
    3MOL    H91  565   1.925   1.568   6.380
    3MOL    H92  566   1.878   1.620   6.217
    3MOL    H93  567   1.993   1.485   6.239
    3MOL    H94  568   1.844   1.819   6.486
    3MOL    H95  569   1.981   1.916   6.427
    3MOL    H96  570   1.826   1.996   6.469
    4SOL     OW  571   0.244   0.600   0.110
    4SOL    HW1  572   0.169   0.604   0.170
    4SOL    HW2  573   0.209   0.629   0.026
    5SOL     OW  574   0.198   0.292   0.989
    5SOL    HW1  575   0.235   0.270   1.075
    5SOL    HW2  576   0.131   0.225   0.974
    6SOL     OW  577   0.007   0.377   0.643
    6SOL    HW1  578   4.428   0.415   0.683
    6SOL    HW2  579   4.473   0.305   0.588
    7SOL     OW  580   0.567   1.282   1.172
    7SOL    HW1  581   0.479   1.287   1.134
    7SOL    HW2  582   0.583   1.369   1.207
    8SOL     OW  583   1.557   1.511   0.705
    8SOL    HW1  584   1.513   1.494   0.788
    8SOL    HW2  585   1.486   1.516   0.641
    9SOL     OW  586   1.131   0.700   0.702
    9SOL    HW1  587   1.180   0.782   0.690
    9SOL    HW2  588   1.082   0.713   0.783
   10SOL     OW  589   1.772   0.604   0.221
   10SOL    HW1  590   1.726   0.600   0.137
   10SOL    HW2  591   1.733   0.533   0.273
   11SOL     OW  592   0.759   1.144   1.037
   11SOL    HW1  593   0.689   1.178   1.093
   11SOL    HW2  594   0.793   1.222   0.992
   12SOL     OW  595   0.862   0.780   1.820
   12SOL    HW1  596   0.849   0.851   1.883
   12SOL    HW2  597   0.885   0.824   1.739
   13SOL     OW  598   0.686   1.008   0.649
   13SOL    HW1  599   0.750   0.992   0.718
   13SOL    HW2  600   0.616   1.057   0.692
   14SOL     OW  601   0.708   1.151   1.809
   14SOL    HW1  602   0.755   1.231   1.833
   14SOL    HW2  603   0.624   1.183   1.775
   15SOL     OW  604   0.337   1.424   1.069
   15SOL    HW1  605   0.256   1.405   1.022
   15SOL    HW2  606   0.387   1.479   1.009
   16SOL     OW  607   1.462   1.498   1.350
   16SOL    HW1  608   1.506   1.583   1.360
   16SOL    HW2  609   1.408   1.490   1.429
   17SOL     OW  610   0.436   0.396   1.494
   17SOL    HW1  611   0.524   0.359   1.496
   17SOL    HW2  612   0.378   0.322   1.508
   18SOL     OW  613   1.613   0.449   0.738
   18SOL    HW1  614   1.532   0.472   0.692
   18SOL    HW2  615   1.634   0.526   0.790
   19SOL     OW  616   0.245   1.692   0.483
   19SOL    HW1  617   0.234   1.778   0.523
   19SOL    HW2  618   0.300   1.707   0.407
   20SOL     OW  619   1.136   1.341   1.691
   20SOL    HW1  620   1.175   1.338   1.778
   20SOL    HW2  621   1.083   1.261   1.686
   21SOL     OW  622   0.241   1.428   0.529
   21SOL    HW1  623   0.237   1.523   0.532
   21SOL    HW2  624   0.175   1.399   0.592
   22SOL     OW  625   0.243   1.081   0.881
   22SOL    HW1  626   0.263   0.994   0.917
   22SOL    HW2  627   0.187   1.122   0.947
   23SOL     OW  628   0.617   1.790   1.433
   23SOL    HW1  629   0.533   1.773   1.475
   23SOL    HW2  630   0.637   1.881   1.456
   24SOL     OW  631   0.578   0.990   0.143
   24SOL    HW1  632   0.621   1.037   0.071
   24SOL    HW2  633   0.629   1.013   0.221
   25SOL     OW  634   1.586   0.114   1.474
   25SOL    HW1  635   1.596   0.183   1.408
   25SOL    HW2  636   1.576   0.162   1.557
   26SOL     OW  637   0.138   0.642   0.576
   26SOL    HW1  638   0.083   0.565   0.588
   26SOL    HW2  639   0.108   0.703   0.644
   27SOL     OW  640   1.840   1.763   0.335
   27SOL    HW1  641   1.898   1.731   0.404
   27SOL    HW2  642   1.871   1.852   0.318
   28SOL     OW  643   0.069   1.594   0.150
   28SOL    HW1  644   0.034   1.504   0.151
   28SOL    HW2  645   0.013   1.642   0.211
   29SOL     OW  646   1.690   0.919   0.637
   29SOL    HW1  647   1.776   0.881   0.618
   29SOL    HW2  648   1.669   0.970   0.559
   30SOL     OW  649   1.645   1.107   0.432
   30SOL    HW1  650   1.727   1.120   0.384
   30SOL    HW2  651   1.650   1.168   0.505
   31SOL     OW  652   0.107   0.760   1.589
   31SOL    HW1  653   0.201   0.760   1.575
   31SOL    HW2  654   0.084   0.853   1.593
   32SOL     OW  655   0.613   1.382   0.735
   32SOL    HW1  656   0.566   1.299   0.744
   32SOL    HW2  657   0.596   1.410   0.645
   33SOL     OW  658   1.290   1.238   1.425
   33SOL    HW1  659   1.323   1.171   1.365
   33SOL    HW2  660   1.346   1.231   1.502
   34SOL     OW  661   0.817   0.009   0.548
   34SOL    HW1  662   0.854   0.088   0.509
   34SOL    HW2  663   0.723   0.019   0.538
   35SOL     OW  664   0.183   0.944   1.279
   35SOL    HW1  665   0.275   0.927   1.256
   35SOL    HW2  666   0.133   0.920   1.201
   36SOL     OW  667   1.522   0.997   0.200
   36SOL    HW1  668   1.457   0.935   0.233
   36SOL    HW2  669   1.568   1.027   0.278
   37SOL     OW  670   1.185   1.803   1.620
   37SOL    HW1  671   1.202   1.860   1.545
   37SOL    HW2  672   1.200   1.715   1.586
   38SOL     OW  673   0.318   0.260   1.773
   38SOL    HW1  674   0.386   0.313   1.814
   38SOL    HW2  675   0.242   0.269   1.831
   39SOL     OW  676   1.465   1.419   0.953
   39SOL    HW1  677   1.397   1.434   1.019
   39SOL    HW2  678   1.454   1.328   0.926
   40SOL     OW  679   1.663   1.732   0.578
   40SOL    HW1  680   1.638   1.705   0.489
   40SOL    HW2  681   1.635   1.659   0.634
   41SOL     OW  682   0.595   0.721   0.263
   41SOL    HW1  683   0.602   0.801   0.210
   41SOL    HW2  684   0.532   0.743   0.331
   42SOL     OW  685   1.288   0.357   0.935
   42SOL    HW1  686   1.199   0.324   0.923
   42SOL    HW2  687   1.328   0.296   0.997
   43SOL     OW  688   1.582   1.668   0.311
   43SOL    HW1  689   1.671   1.703   0.304
   43SOL    HW2  690   1.557   1.649   0.220
   44SOL     OW  691   0.797   0.616   1.454
   44SOL    HW1  692   0.769   0.594   1.543
   44SOL    HW2  693   0.751   0.554   1.398
   45SOL     OW  694   1.389   0.477   1.676
   45SOL    HW1  695   1.391   0.521   1.761
   45SOL    HW2  696   1.456   0.410   1.683
   46SOL     OW  697   0.958   0.889   1.581
   46SOL    HW1  698   1.012   0.817   1.547
   46SOL    HW2  699   0.911   0.922   1.504
   47SOL     OW  700   0.996   0.417   1.238
   47SOL    HW1  701   0.912   0.431   1.282
   47SOL    HW2  702   0.974   0.367   1.160
   48SOL     OW  703   1.048   0.701   0.428
   48SOL    HW1  704   1.064   0.692   0.522
   48SOL    HW2  705   0.967   0.652   0.413
   49SOL     OW  706   0.098   0.822   0.783
   49SOL    HW1  707   0.185   0.803   0.820
   49SOL    HW2  708   0.054   0.873   0.851
   50SOL     OW  709   0.125   1.853   1.576
   50SOL    HW1  710   0.119   1.828   1.668
   50SOL    HW2  711   0.045   1.818   1.537
   51SOL     OW  712   0.877   0.357   0.201
   51SOL    HW1  713   0.932   0.411   0.144
   51SOL    HW2  714   0.904   0.267   0.185
   52SOL     OW  715   1.707   0.576   1.828
   52SOL    HW1  716   1.672   0.653   1.784
   52SOL    HW2  717   1.739   0.520   1.757
   53SOL     OW  718   1.375   1.142   0.542
   53SOL    HW1  719   1.453   1.127   0.488
   53SOL    HW2  720   1.323   1.205   0.491
   54SOL     OW  721   0.543   0.202   0.900
   54SOL    HW1  722   0.562   0.220   0.992
   54SOL    HW2  723   0.536   0.288   0.859
   55SOL     OW  724   1.009   1.446   0.475
   55SOL    HW1  725   0.967   1.517   0.425
   55SOL    HW2  726   0.993   1.469   0.566
   56SOL     OW  727   0.354   1.807   0.857
   56SOL    HW1  728   0.398   1.723   0.866
   56SOL    HW2  729   0.424   1.872   0.868
   57SOL     OW  730   1.798   1.059   0.867
   57SOL    HW1  731   1.741   1.045   0.792
   57SOL    HW2  732   1.739   1.065   0.942
   58SOL     OW  733   1.228   1.540   1.513
   58SOL    HW1  734   1.214   1.466   1.572
   58SOL    HW2  735   1.168   1.523   1.440
   59SOL     OW  736   0.315   0.956   0.276
   59SOL    HW1  737   0.398   0.983   0.237
   59SOL    HW2  738   0.304   0.866   0.245
   60SOL     OW  739   1.476   0.738   0.725
   60SOL    HW1  740   1.462   0.692   0.808
   60SOL    HW2  741   1.552   0.795   0.742
   61SOL     OW  742   0.465   1.261   1.735
   61SOL    HW1  743   0.437   1.267   1.644
   61SOL    HW2  744   0.384   1.266   1.786
   62SOL     OW  745   1.107   1.778   0.226
   62SOL    HW1  746   1.050   1.726   0.282
   62SOL    HW2  747   1.147   1.715   0.166
   63SOL     OW  748   0.167   0.262   1.508
   63SOL    HW1  749   0.135   0.349   1.482
   63SOL    HW2  750   0.199   0.274   1.598
   64SOL     OW  751   1.628   1.375   0.089
   64SOL    HW1  752   1.586   1.460   0.076
   64SOL    HW2  753   1.563   1.311   0.061
   65SOL     OW  754   0.470   1.742   0.317
   65SOL    HW1  755   0.505   1.797   0.387
   65SOL    HW2  756   0.546   1.717   0.264
   66SOL     OW  757   1.416   0.128   0.425
   66SOL    HW1  758   1.392   0.094   0.338
   66SOL    HW2  759   1.511   0.132   0.424
   67SOL     OW  760   0.256   1.791   1.236
   67SOL    HW1  761   0.306   1.719   1.275
   67SOL    HW2  762   0.229   1.758   1.150
   68SOL     OW  763   0.938   1.698   0.900
   68SOL    HW1  764   1.015   1.645   0.921
   68SOL    HW2  765   0.892   1.649   0.832
   69SOL     OW  766   0.391   0.694   0.473
   69SOL    HW1  767   0.418   0.603   0.484
   69SOL    HW2  768   0.300   0.696   0.502
   70SOL     OW  769   1.527   0.232   1.722
   70SOL    HW1  770   1.525   0.257   1.815
   70SOL    HW2  771   1.452   0.174   1.711
   71SOL     OW  772   0.602   0.106   0.117
   71SOL    HW1  773   0.695   0.083   0.119
   71SOL    HW2  774   0.572   0.077   0.031
   72SOL     OW  775   0.769   0.268   1.752
   72SOL    HW1  776   0.835   0.201   1.769
   72SOL    HW2  777   0.724   0.279   1.836
   73SOL     OW  778   0.877   1.521   1.193
   73SOL    HW1  779   0.862   1.485   1.106
   73SOL    HW2  780   0.946   1.466   1.230
   74SOL     OW  781   1.342   0.589   1.430
   74SOL    HW1  782   1.370   0.559   1.516
   74SOL    HW2  783   1.376   0.678   1.423
   75SOL     OW  784   0.813   1.398   0.936
   75SOL    HW1  785   0.897   1.388   0.890
   75SOL    HW2  786   0.747   1.396   0.866
   76SOL     OW  787   0.922   0.513   0.902
   76SOL    HW1  788   0.905   0.513   0.808
   76SOL    HW2  789   0.964   0.429   0.919
   77SOL     OW  790   0.558   0.067   0.512
   77SOL    HW1  791   0.469   0.055   0.547
   77SOL    HW2  792   0.549   0.139   0.450
   78SOL     OW  793   1.427   1.196   0.032
   78SOL    HW1  794   1.460   1.123   0.085
   78SOL    HW2  795   1.343   1.219   0.073
   79SOL     OW  796   0.294   0.057   0.189
   79SOL    HW1  797   0.369   0.099   0.147
   79SOL    HW2  798   0.333   0.002   0.257
   80SOL     OW  799   0.948   0.227   0.446
   80SOL    HW1  800   0.902   0.291   0.393
   80SOL    HW2  801   1.037   0.261   0.453
   81SOL     OW  802   1.080   0.679   1.461
   81SOL    HW1  803   1.008   0.616   1.463
   81SOL    HW2  804   1.159   0.626   1.450
   82SOL     OW  805   1.225   1.569   0.793
   82SOL    HW1  806   1.243   1.637   0.729
   82SOL    HW2  807   1.292   1.581   0.860
   83SOL     OW  808   0.466   1.147   0.740
   83SOL    HW1  809   0.393   1.129   0.800
   83SOL    HW2  810   0.430   1.133   0.653
   84SOL     OW  811   1.271   1.795   0.604
   84SOL    HW1  812   1.315   1.857   0.546
   84SOL    HW2  813   1.207   1.849   0.652
   85SOL     OW  814   1.022   0.536   0.031
   85SOL    HW1  815   0.985   0.620   0.005
   85SOL    HW2  816   1.094   0.558   0.090
   86SOL     OW  817   0.090   0.525   1.411
   86SOL    HW1  818   0.153   0.536   1.339
   86SOL    HW2  819   0.062   0.615   1.432
   87SOL     OW  820   0.564   0.241   1.164
   87SOL    HW1  821   0.594   0.157   1.196
   87SOL    HW2  822   0.470   0.243   1.185
   88SOL     OW  823   0.863   0.505   0.627
   88SOL    HW1  824   0.815   0.542   0.553
   88SOL    HW2  825   0.850   0.411   0.619
   89SOL     OW  826   0.969   0.036   0.774
   89SOL    HW1  827   0.921   0.028   0.692
   89SOL    HW2  828   0.984   4.446   0.802
   90SOL     OW  829   1.436   1.163   0.858
   90SOL    HW1  830   1.368   1.096   0.856
   90SOL    HW2  831   1.458   1.178   0.766
   91SOL     OW  832   1.468   0.602   0.980
   91SOL    HW1  833   1.417   0.521   0.983
   91SOL    HW2  834   1.527   0.597   1.055
   92SOL     OW  835   1.850   0.817   0.379
   92SOL    HW1  836   1.903   0.765   0.439
   92SOL    HW2  837   1.820   0.754   0.313
   93SOL     OW  838   0.493   1.421   0.175
   93SOL    HW1  839   0.415   1.394   0.223
   93SOL    HW2  840   0.486   1.377   0.090
   94SOL     OW  841   1.668   1.265   0.650
   94SOL    HW1  842   1.763   1.272   0.661
   94SOL    HW2  843   1.635   1.353   0.670
   95SOL     OW  844   1.390   0.576   0.076
   95SOL    HW1  845   1.330   0.556   0.148
   95SOL    HW2  846   1.465   0.519   0.091
   96SOL     OW  847   0.525   0.262   0.325
   96SOL    HW1  848   0.558   0.205   0.256
   96SOL    HW2  849   0.513   0.347   0.283
   97SOL     OW  850   1.754   1.235   1.578
   97SOL    HW1  851   1.842   1.197   1.573
   97SOL    HW2  852   1.768   1.326   1.606
   98SOL     OW  853   1.061   1.353   1.335
   98SOL    HW1  854   0.986   1.322   1.386
   98SOL    HW2  855   1.137   1.312   1.376
   99SOL     OW  856   1.605   1.624   1.650
   99SOL    HW1  857   1.603   1.660   1.562
   99SOL    HW2  858   1.690   1.579   1.656
  100SOL     OW  859   1.125   1.201   1.107
  100SOL    HW1  860   1.067   1.240   1.173
  100SOL    HW2  861   1.091   1.232   1.023
  101SOL     OW  862   1.632   1.100   1.079
  101SOL    HW1  863   1.627   1.162   1.151
  101SOL    HW2  864   1.551   1.115   1.029
  102SOL     OW  865   0.904   0.131   1.390
  102SOL    HW1  866   0.927   0.085   1.309
  102SOL    HW2  867   0.988   0.143   1.435
  103SOL     OW  868   0.984   1.114   1.722
  103SOL    HW1  869   0.891   1.129   1.741
  103SOL    HW2  870   0.984   1.037   1.666
  104SOL     OW  871   0.709   1.059   0.373
  104SOL    HW1  872   0.696   1.046   0.467
  104SOL    HW2  873   0.786   1.005   0.353
  105SOL     OW  874   0.429   0.822   1.238
  105SOL    HW1  875   0.497   0.834   1.305
  105SOL    HW2  876   0.369   0.757   1.276
  106SOL     OW  877   1.270   0.377   1.272
  106SOL    HW1  878   1.301   0.455   1.317
  106SOL    HW2  879   1.181   0.400   1.243
  107SOL     OW  880   0.061   1.575   1.339
  107SOL    HW1  881   0.033   1.663   1.313
  107SOL    HW2  882   0.156   1.582   1.346
  108SOL     OW  883   0.353   1.112   0.499
  108SOL    HW1  884   0.356   1.186   0.438
  108SOL    HW2  885   0.348   1.035   0.442
  109SOL     OW  886   0.564   0.530   0.856
  109SOL    HW1  887   0.577   0.590   0.782
  109SOL    HW2  888   0.622   0.563   0.924
  110SOL     OW  889   1.247   1.346   0.393
  110SOL    HW1  890   1.303   1.419   0.421
  110SOL    HW2  891   1.160   1.369   0.425
  111SOL     OW  892   1.277   1.455   1.146
  111SOL    HW1  893   1.331   1.458   1.224
  111SOL    HW2  894   1.221   1.378   1.158
  112SOL     OW  895   1.586   0.628   0.474
  112SOL    HW1  896   1.539   0.676   0.542
  112SOL    HW2  897   1.624   0.697   0.419
  113SOL     OW  898   0.348   1.528   1.318
  113SOL    HW1  899   0.333   1.481   1.236
  113SOL    HW2  900   0.443   1.539   1.323
  114SOL     OW  901   0.476   0.760   1.662
  114SOL    HW1  902   0.502   0.800   1.579
  114SOL    HW2  903   0.508   0.670   1.657
  115SOL     OW  904   1.597   0.777   1.678
  115SOL    HW1  905   1.511   0.818   1.671
  115SOL    HW2  906   1.650   0.819   1.610
  116SOL     OW  907   1.007   0.087   1.727
  116SOL    HW1  908   1.029   0.171   1.688
  116SOL    HW2  909   1.033   0.022   1.662
  117SOL     OW  910   0.497   0.047   1.749
  117SOL    HW1  911   0.478   4.497   1.669
  117SOL    HW2  912   0.429   0.114   1.752
  118SOL     OW  913   0.587   0.873   1.024
  118SOL    HW1  914   0.617   0.965   1.025
  118SOL    HW2  915   0.531   0.865   1.101
  119SOL     OW  916   1.361   0.859   1.034
  119SOL    HW1  917   1.280   0.853   0.983
  119SOL    HW2  918   1.398   0.770   1.030
  120SOL     OW  919   1.204   0.531   0.268
  120SOL    HW1  920   1.212   0.452   0.322
  120SOL    HW2  921   1.163   0.596   0.326
  121SOL     OW  922   0.285   0.220   1.234
  121SOL    HW1  923   0.250   0.237   1.322
  121SOL    HW2  924   0.320   0.131   1.239
  122SOL     OW  925   0.048   1.313   1.284
  122SOL    HW1  926   0.078   1.266   1.362
  122SOL    HW2  927   0.049   1.405   1.309
  123SOL     OW  928   0.726   0.632   1.061
  123SOL    HW1  929   0.798   0.611   1.001
  123SOL    HW2  930   0.700   0.721   1.036
  124SOL     OW  931   1.733   0.958   1.851
  124SOL    HW1  932   1.684   0.905   1.788
  124SOL    HW2  933   1.673   0.970   1.925
  125SOL     OW  934   0.315   0.075   0.630
  125SOL    HW1  935   0.300   0.163   0.665
  125SOL    HW2  936   0.305   0.018   0.705
  126SOL     OW  937   1.613   0.374   0.367
  126SOL    HW1  938   1.643   0.310   0.432
  126SOL    HW2  939   1.589   0.451   0.418
  127SOL     OW  940   1.027   0.761   0.962
  127SOL    HW1  941   1.027   0.777   1.057
  127SOL    HW2  942   0.999   0.670   0.954
  128SOL     OW  943   0.983   1.566   1.714
  128SOL    HW1  944   0.967   1.611   1.631
  128SOL    HW2  945   1.025   1.484   1.690
  129SOL     OW  946   1.857   1.508   1.605
  129SOL    HW1  947   1.870   1.536   1.515
  129SOL    HW2  948   1.938   1.533   1.650
  130SOL     OW  949   0.347   0.930   1.818
  130SOL    HW1  950   0.422   0.958   1.871
  130SOL    HW2  951   0.384   0.864   1.758
  131SOL     OW  952   1.537   0.290   0.115
  131SOL    HW1  953   1.477   0.217   0.128
  131SOL    HW2  954   1.566   0.314   0.203
  132SOL     OW  955   1.290   0.825   0.033
  132SOL    HW1  956   1.333   0.740   0.043
  132SOL    HW2  957   1.322   0.858  11.049
  133SOL     OW  958   1.065   1.334   0.852
  133SOL    HW1  959   1.068   1.262   0.790
  133SOL    HW2  960   1.128   1.398   0.818
  134SOL     OW  961   0.317   0.813   0.950
  134SOL    HW1  962   0.411   0.831   0.945
  134SOL    HW2  963   0.311   0.723   0.981
  135SOL     OW  964   0.337   0.527   0.994
  135SOL    HW1  965   0.293   0.444   0.975
  135SOL    HW2  966   0.414   0.527   0.937
  136SOL     OW  967   1.135   0.376   1.692
  136SOL    HW1  968   1.088   0.440   1.745
  136SOL    HW2  969   1.222   0.414   1.679
  137SOL     OW  970   1.160   0.211   1.474
  137SOL    HW1  971   1.152   0.275   1.544
  137SOL    HW2  972   1.195   0.261   1.400
  138SOL     OW  973   4.495   1.324   0.197
  138SOL    HW1  974   4.401   1.341   0.188
  138SOL    HW2  975   0.001   1.233   0.224
  139SOL     OW  976   0.094   1.782   0.939
  139SOL    HW1  977   0.057   1.721   0.875
  139SOL    HW2  978   0.182   1.801   0.906
  140SOL     OW  979   0.499   1.573   0.907
  140SOL    HW1  980   0.567   1.636   0.930
  140SOL    HW2  981   0.544   1.508   0.852
  141SOL     OW  982   0.989   0.795   1.229
  141SOL    HW1  983   1.041   0.769   1.305
  141SOL    HW2  984   0.902   0.759   1.246
  142SOL     OW  985   0.039   0.564   1.109
  142SOL    HW1  986   0.116   0.521   1.071
  142SOL    HW2  987   0.027   0.521   1.194
  143SOL     OW  988   0.180   0.517   1.710
  143SOL    HW1  989   0.266   0.501   1.670
  143SOL    HW2  990   0.150   0.599   1.670
  144SOL     OW  991   1.376   0.941   1.660
  144SOL    HW1  992   1.396   1.035   1.660
  144SOL    HW2  993   1.374   0.918   1.567
  145SOL     OW  994   0.812   0.574   0.356
  145SOL    HW1  995   0.818   0.498   0.298
  145SOL    HW2  996   0.737   0.624   0.322
  146SOL     OW  997   1.642   0.601   1.190
  146SOL    HW1  998   1.631   0.541   1.263
  146SOL    HW2  999   1.729   0.580   1.155
  147SOL     OW 1000   0.271   1.562   1.742
  147SOL    HW1 1001   0.217   1.614   1.802
  147SOL    HW2 1002   0.250   1.471   1.764
  148SOL     OW 1003   0.682   0.464   1.268
  148SOL    HW1 1004   0.646   0.383   1.231
  148SOL    HW2 1005   0.691   0.522   1.193
  149SOL     OW 1006   0.930   1.678   1.466
  149SOL    HW1 1007   0.903   1.648   1.379
  149SOL    HW2 1008   0.930   1.774   1.460
  150SOL     OW 1009   0.476   0.486   0.185
  150SOL    HW1 1010   0.532   0.561   0.205
  150SOL    HW2 1011   0.390   0.524   0.169
  151SOL     OW 1012   0.161   1.141   1.463
  151SOL    HW1 1013   0.148   1.092   1.545
  151SOL    HW2 1014   0.170   1.073   1.396
  152SOL     OW 1015   1.329   1.049   1.225
  152SOL    HW1 1016   1.354   0.986   1.157
  152SOL    HW2 1017   1.257   1.098   1.188
  153SOL     OW 1018   1.308   0.852   0.310
  153SOL    HW1 1019   1.229   0.823   0.357
  153SOL    HW2 1020   1.285   0.841   0.217
  154SOL     OW 1021   1.763   1.746   1.146
  154SOL    HW1 1022   1.826   1.774   1.079
  154SOL    HW2 1023   1.744   1.655   1.125
  155SOL     OW 1024   1.242   1.732   1.117
  155SOL    HW1 1025   1.323   1.751   1.071
  155SOL    HW2 1026   1.245   1.638   1.134
  156SOL     OW 1027   0.068   1.188   1.048
  156SOL    HW1 1028   0.073   1.224   1.137
  156SOL    HW2 1029   0.012   1.250   1.001
  157SOL     OW 1030   0.679   1.663   1.724
  157SOL    HW1 1031   0.626   1.743   1.722
  157SOL    HW2 1032   0.741   1.673   1.652
  158SOL     OW 1033   0.880   0.063   0.124
  158SOL    HW1 1034   0.964   0.092   0.088
  158SOL    HW2 1035   0.903   0.019   0.206
  159SOL     OW 1036   1.720   0.133   0.502
  159SOL    HW1 1037   1.794   0.135   0.441
  159SOL    HW2 1038   1.733   0.054   0.553
  160SOL     OW 1039   1.389   1.568   0.483
  160SOL    HW1 1040   1.451   1.598   0.416
  160SOL    HW2 1041   1.343   1.647   0.511
  161SOL     OW 1042   0.120   1.808   1.848
  161SOL    HW1 1043   0.082   1.734   1.894
  161SOL    HW2 1044   0.184   1.844   1.909
  162SOL     OW 1045   1.278   0.926   0.672
  162SOL    HW1 1046   1.351   0.863   0.675
  162SOL    HW2 1047   1.311   0.998   0.620
  163SOL     OW 1048   0.819   1.272   1.431
  163SOL    HW1 1049   0.793   1.311   1.515
  163SOL    HW2 1050   0.747   1.294   1.372
  164SOL     OW 1051   0.676   1.617   0.165
  164SOL    HW1 1052   0.681   1.627   0.070
  164SOL    HW2 1053   0.618   1.542   0.178
  165SOL     OW 1054   1.632   1.726   1.391
  165SOL    HW1 1055   1.680   1.735   1.309
  165SOL    HW2 1056   1.618   1.816   1.421
  166SOL     OW 1057   1.839   0.156   0.967
  166SOL    HW1 1058   1.867   0.079   0.917
  166SOL    HW2 1059   1.752   0.177   0.932
  167SOL     OW 1060   0.267   0.325   0.724
  167SOL    HW1 1061   0.185   0.362   0.691
  167SOL    HW2 1062   0.252   0.317   0.819
  168SOL     OW 1063   1.221   1.604   0.050
  168SOL    HW1 1064   1.208   1.511   0.071
  168SOL    HW2 1065   1.154   1.623  11.084
  169SOL     OW 1066   0.825   1.006   1.371
  169SOL    HW1 1067   0.867   1.004   1.285
  169SOL    HW2 1068   0.826   1.099   1.396
  170SOL     OW 1069   0.914   0.908   0.283
  170SOL    HW1 1070   0.982   0.946   0.227
  170SOL    HW2 1071   0.960   0.840   0.333
  171SOL     OW 1072   1.500   1.622   0.045
  171SOL    HW1 1073   1.405   1.620   0.041
  171SOL    HW2 1074   1.528   1.636  11.055
  172SOL     OW 1075   0.372   1.304   1.491
  172SOL    HW1 1076   0.356   1.383   1.439
  172SOL    HW2 1077   0.296   1.249   1.475
  173SOL     OW 1078   1.612   1.283   1.281
  173SOL    HW1 1079   1.672   1.277   1.356
  173SOL    HW2 1080   1.551   1.354   1.305
  174SOL     OW 1081   1.047   1.105   0.704
  174SOL    HW1 1082   0.978   1.053   0.745
  174SOL    HW2 1083   1.109   1.039   0.671
  175SOL     OW 1084   1.011   0.239   0.989
  175SOL    HW1 1085   1.015   0.203   0.901
  175SOL    HW2 1086   1.003   0.163   1.047
  176SOL     OW 1087   0.602   1.490   0.484
  176SOL    HW1 1088   0.639   1.440   0.412
  176SOL    HW2 1089   0.532   1.543   0.443
  177SOL     OW 1090   1.719   0.392   1.378
  177SOL    HW1 1091   1.791   0.456   1.377
  177SOL    HW2 1092   1.749   0.321   1.322
  178SOL     OW 1093   0.261   1.333   0.284
  178SOL    HW1 1094   0.172   1.346   0.249
  178SOL    HW2 1095   0.258   1.373   0.371
  179SOL     OW 1096   0.117   1.007   1.697
  179SOL    HW1 1097   0.052   1.045   1.755
  179SOL    HW2 1098   0.195   0.996   1.751
  180SOL     OW 1099   0.659   0.207   1.495
  180SOL    HW1 1100   0.739   0.181   1.450
  180SOL    HW2 1101   0.687   0.222   1.586
  181SOL     OW 1102   0.054   0.338   0.012
  181SOL    HW1 1103   4.462   0.334   0.037
  181SOL    HW2 1104   0.075   0.432   0.013
  182SOL     OW 1105   1.432   0.858   1.401
  182SOL    HW1 1106   1.383   0.918   1.344
  182SOL    HW2 1107   1.522   0.862   1.369
  183SOL     OW 1108   0.080   0.186   0.299
  183SOL    HW1 1109   0.085   0.262   0.241
  183SOL    HW2 1110   0.156   0.133   0.275
  184SOL     OW 1111   1.181   1.343   0.121
  184SOL    HW1 1112   1.088   1.320   0.118
  184SOL    HW2 1113   1.204   1.336   0.214
  185SOL     OW 1114   0.620   0.831   1.428
  185SOL    HW1 1115   0.674   0.909   1.416
  185SOL    HW2 1116   0.683   0.760   1.438
  186SOL     OW 1117   1.486   1.773   0.974
  186SOL    HW1 1118   1.513   1.832   0.904
  186SOL    HW2 1119   1.566   1.761   1.026
  187SOL     OW 1120   0.715   0.562   1.705
  187SOL    HW1 1121   0.746   0.629   1.766
  187SOL    HW2 1122   0.756   0.481   1.737
  188SOL     OW 1123   1.468   1.203   1.633
  188SOL    HW1 1124   1.456   1.217   1.727
  188SOL    HW2 1125   1.562   1.216   1.619
  189SOL     OW 1126   0.383   1.743   1.563
  189SOL    HW1 1127   0.297   1.782   1.548
  189SOL    HW2 1128   0.364   1.661   1.609
  190SOL     OW 1129   1.672   0.882   1.255
  190SOL    HW1 1130   1.662   0.797   1.212
  190SOL    HW2 1131   1.663   0.946   1.185
  191SOL     OW 1132   1.219   0.326   0.447
  191SOL    HW1 1133   1.284   0.256   0.439
  191SOL    HW2 1134   1.243   0.372   0.528
  192SOL     OW 1135   0.588   0.740   0.668
  192SOL    HW1 1136   0.630   0.825   0.651
  192SOL    HW2 1137   0.519   0.734   0.602
  193SOL     OW 1138   1.766   0.360   1.643
  193SOL    HW1 1139   1.750   0.374   1.549
  193SOL    HW2 1140   1.687   0.317   1.675
  194SOL     OW 1141   1.743   0.933   1.513
  194SOL    HW1 1142   1.746   1.028   1.526
  194SOL    HW2 1143   1.728   0.923   1.419
  195SOL     OW 1144   0.895   1.358   0.059
  195SOL    HW1 1145   0.826   1.363   0.125
  195SOL    HW2 1146   0.890   1.442   0.013
  196SOL     OW 1147   0.659   1.794   0.949
  196SOL    HW1 1148   0.637   1.884   0.923
  196SOL    HW2 1149   0.754   1.790   0.939
  197SOL     OW 1150   0.866   0.965   0.856
  197SOL    HW1 1151   0.916   0.894   0.896
  197SOL    HW2 1152   0.833   1.016   0.929
  198SOL     OW 1153   1.081   0.990   0.087
  198SOL    HW1 1154   1.057   1.026   0.001
  198SOL    HW2 1155   1.156   0.935   0.069
  199SOL     OW 1156   1.858   1.555   0.844
  199SOL    HW1 1157   1.780   1.547   0.790
  199SOL    HW2 1158   1.846   1.491   0.914
  200SOL     OW 1159   0.228   1.307   1.856
  200SOL    HW1 1160   0.159   1.245   1.831
  200SOL    HW2 1161   0.218   1.317   1.951
  201SOL     OW 1162   0.099   1.237   0.666
  201SOL    HW1 1163   0.108   1.188   0.747
  201SOL    HW2 1164   0.164   1.199   0.608
  202SOL     OW 1165   0.680   1.400   1.626
  202SOL    HW1 1166   0.600   1.356   1.655
  202SOL    HW2 1167   0.674   1.488   1.663
  203SOL     OW 1168   1.812   0.184   1.239
  203SOL    HW1 1169   1.810   0.091   1.260
  203SOL    HW2 1170   1.826   0.187   1.144
  204SOL     OW 1171   0.437   0.431   0.528
  204SOL    HW1 1172   0.459   0.360   0.468
  204SOL    HW2 1173   0.381   0.391   0.594
  205SOL     OW 1174   1.704   1.488   1.097
  205SOL    HW1 1175   1.620   1.464   1.056
  205SOL    HW2 1176   1.717   1.423   1.165
  206SOL     OW 1177   0.312   0.503   1.258
  206SOL    HW1 1178   0.385   0.457   1.300
  206SOL    HW2 1179   0.340   0.512   1.167
  207SOL     OW 1180   0.825   1.577   0.680
  207SOL    HW1 1181   0.819   1.623   0.596
  207SOL    HW2 1182   0.746   1.524   0.684
  208SOL     OW 1183   1.432   0.216   1.118
  208SOL    HW1 1184   1.469   0.146   1.171
  208SOL    HW2 1185   1.381   0.269   1.179
  209SOL     OW 1186   0.997   0.015   1.148
  209SOL    HW1 1187   0.951   4.432   1.136
  209SOL    HW2 1188   1.089   4.489   1.161
  210SOL     OW 1189   0.767   1.329   0.312
  210SOL    HW1 1190   0.737   1.239   0.325
  210SOL    HW2 1191   0.852   1.331   0.356
  211SOL     OW 1192   0.621   1.559   1.284
  211SOL    HW1 1193   0.623   1.640   1.335
  211SOL    HW2 1194   0.708   1.552   1.245
  212SOL     OW 1195   1.347   0.059   0.168
  212SOL    HW1 1196   1.384   0.006   0.098
  212SOL    HW2 1197   1.269   0.012   0.196
  213SOL     OW 1198   1.315   0.463   0.682
  213SOL    HW1 1199   1.251   0.534   0.682
  213SOL    HW2 1200   1.302   0.419   0.766
  214SOL     OW 1201   1.587   0.203   0.869
  214SOL    HW1 1202   1.524   0.217   0.939
  214SOL    HW2 1203   1.589   0.287   0.822
  215SOL     OW 1204   0.039   1.048   0.282
  215SOL    HW1 1205   0.135   1.051   0.286
  215SOL    HW2 1206   0.013   1.012   0.366
  216SOL     OW 1207   0.882   1.650   0.347
  216SOL    HW1 1208   0.812   1.630   0.286
  216SOL    HW2 1209   0.850   1.725   0.397
  217SOL     OW 1210   0.247   0.626   1.981
  217SOL    HW1 1211   0.171   0.612   2.037
  217SOL    HW2 1212   0.215   0.609   1.892
  218SOL     OW 1213   0.197   0.292   2.851
  218SOL    HW1 1214   0.234   0.269   2.937
  218SOL    HW2 1215   0.132   0.224   2.835
  219SOL     OW 1216   0.007   0.377   2.505
  219SOL    HW1 1217   4.428   0.414   2.543
  219SOL    HW2 1218   4.475   0.306   2.449
  220SOL     OW 1219   0.567   1.282   3.034
  220SOL    HW1 1220   0.479   1.286   2.996
  220SOL    HW2 1221   0.582   1.369   3.069
  221SOL     OW 1222   1.557   1.512   2.568
  221SOL    HW1 1223   1.513   1.494   2.651
  221SOL    HW2 1224   1.486   1.517   2.503
  222SOL     OW 1225   1.131   0.700   2.564
  222SOL    HW1 1226   1.180   0.781   2.552
  222SOL    HW2 1227   1.082   0.713   2.645
  223SOL     OW 1228   1.764   0.609   2.092
  223SOL    HW1 1229   1.745   0.598   1.999
  223SOL    HW2 1230   1.732   0.528   2.132
  224SOL     OW 1231   0.759   1.144   2.899
  224SOL    HW1 1232   0.689   1.178   2.955
  224SOL    HW2 1233   0.793   1.222   2.854
  225SOL     OW 1234   0.862   0.780   3.682
  225SOL    HW1 1235   0.849   0.851   3.745
  225SOL    HW2 1236   0.885   0.824   3.601
  226SOL     OW 1237   0.686   1.008   2.511
  226SOL    HW1 1238   0.750   0.992   2.581
  226SOL    HW2 1239   0.616   1.057   2.554
  227SOL     OW 1240   0.708   1.151   3.671
  227SOL    HW1 1241   0.755   1.231   3.695
  227SOL    HW2 1242   0.624   1.183   3.637
  228SOL     OW 1243   0.337   1.424   2.932
  228SOL    HW1 1244   0.256   1.404   2.885
  228SOL    HW2 1245   0.387   1.479   2.871
  229SOL     OW 1246   1.462   1.498   3.212
  229SOL    HW1 1247   1.506   1.583   3.222
  229SOL    HW2 1248   1.409   1.489   3.291
  230SOL     OW 1249   0.436   0.396   3.356
  230SOL    HW1 1250   0.524   0.359   3.358
  230SOL    HW2 1251   0.378   0.322   3.370
  231SOL     OW 1252   1.613   0.448   2.600
  231SOL    HW1 1253   1.533   0.473   2.553
  231SOL    HW2 1254   1.635   0.525   2.652
  232SOL     OW 1255   0.245   1.692   2.341
  232SOL    HW1 1256   0.233   1.777   2.385
  232SOL    HW2 1257   0.307   1.710   2.271
  233SOL     OW 1258   1.136   1.341   3.553
  233SOL    HW1 1259   1.175   1.337   3.640
  233SOL    HW2 1260   1.083   1.261   3.548
  234SOL     OW 1261   0.243   1.428   2.390
  234SOL    HW1 1262   0.236   1.523   2.395
  234SOL    HW2 1263   0.179   1.395   2.453
  235SOL     OW 1264   0.244   1.081   2.744
  235SOL    HW1 1265   0.263   0.994   2.779
  235SOL    HW2 1266   0.188   1.122   2.810
  236SOL     OW 1267   0.616   1.790   3.295
  236SOL    HW1 1268   0.533   1.773   3.337
  236SOL    HW2 1269   0.637   1.881   3.318
  237SOL     OW 1270   0.584   0.983   1.997
  237SOL    HW1 1271   0.629   1.031   1.926
  237SOL    HW2 1272   0.630   1.009   2.076
  238SOL     OW 1273   1.585   0.114   3.336
  238SOL    HW1 1274   1.596   0.183   3.270
  238SOL    HW2 1275   1.576   0.162   3.419
  239SOL     OW 1276   0.136   0.642   2.437
  239SOL    HW1 1277   0.083   0.564   2.450
  239SOL    HW2 1278   0.107   0.703   2.505
  240SOL     OW 1279   1.840   1.762   2.198
  240SOL    HW1 1280   1.899   1.733   2.268
  240SOL    HW2 1281   1.867   1.852   2.179
  241SOL     OW 1282   0.033   1.601   1.997
  241SOL    HW1 1283   0.021   1.506   1.999
  241SOL    HW2 1284   0.010   1.630   2.085
  242SOL     OW 1285   1.691   0.920   2.499
  242SOL    HW1 1286   1.776   0.880   2.480
  242SOL    HW2 1287   1.669   0.969   2.420
  243SOL     OW 1288   1.645   1.108   2.292
  243SOL    HW1 1289   1.730   1.117   2.249
  243SOL    HW2 1290   1.650   1.168   2.366
  244SOL     OW 1291   0.107   0.760   3.451
  244SOL    HW1 1292   0.201   0.759   3.436
  244SOL    HW2 1293   0.084   0.853   3.455
  245SOL     OW 1294   0.612   1.381   2.598
  245SOL    HW1 1295   0.566   1.298   2.606
  245SOL    HW2 1296   0.596   1.409   2.507
  246SOL     OW 1297   1.290   1.238   3.287
  246SOL    HW1 1298   1.323   1.171   3.227
  246SOL    HW2 1299   1.346   1.231   3.364
  247SOL     OW 1300   0.817   0.011   2.407
  247SOL    HW1 1301   0.850   0.097   2.384
  247SOL    HW2 1302   0.722   0.018   2.398
  248SOL     OW 1303   0.184   0.945   3.141
  248SOL    HW1 1304   0.275   0.927   3.118
  248SOL    HW2 1305   0.133   0.920   3.064
  249SOL     OW 1306   1.532   0.991   2.058
  249SOL    HW1 1307   1.462   0.933   2.088
  249SOL    HW2 1308   1.571   1.025   2.139
  250SOL     OW 1309   1.184   1.803   3.482
  250SOL    HW1 1310   1.202   1.860   3.407
  250SOL    HW2 1311   1.200   1.715   3.449
  251SOL     OW 1312   0.318   0.260   3.635
  251SOL    HW1 1313   0.386   0.313   3.676
  251SOL    HW2 1314   0.242   0.269   3.693
  252SOL     OW 1315   1.465   1.419   2.815
  252SOL    HW1 1316   1.397   1.434   2.881
  252SOL    HW2 1317   1.454   1.328   2.788
  253SOL     OW 1318   1.663   1.732   2.439
  253SOL    HW1 1319   1.637   1.704   2.351
  253SOL    HW2 1320   1.636   1.660   2.496
  254SOL     OW 1321   0.596   0.723   2.126
  254SOL    HW1 1322   0.602   0.803   2.074
  254SOL    HW2 1323   0.530   0.743   2.193
  255SOL     OW 1324   1.290   0.358   2.797
  255SOL    HW1 1325   1.201   0.326   2.781
  255SOL    HW2 1326   1.327   0.295   2.859
  256SOL     OW 1327   1.581   1.668   2.171
  256SOL    HW1 1328   1.670   1.703   2.165
  256SOL    HW2 1329   1.556   1.650   2.080
  257SOL     OW 1330   0.797   0.616   3.317
  257SOL    HW1 1331   0.769   0.594   3.405
  257SOL    HW2 1332   0.752   0.554   3.260
  258SOL     OW 1333   1.389   0.477   3.538
  258SOL    HW1 1334   1.391   0.521   3.623
  258SOL    HW2 1335   1.456   0.410   3.545
  259SOL     OW 1336   0.958   0.889   3.443
  259SOL    HW1 1337   1.012   0.817   3.409
  259SOL    HW2 1338   0.911   0.922   3.366
  260SOL     OW 1339   0.996   0.417   3.100
  260SOL    HW1 1340   0.911   0.431   3.143
  260SOL    HW2 1341   0.975   0.365   3.022
  261SOL     OW 1342   1.049   0.698   2.290
  261SOL    HW1 1343   1.064   0.691   2.384
  261SOL    HW2 1344   0.967   0.651   2.275
  262SOL     OW 1345   0.099   0.822   2.645
  262SOL    HW1 1346   0.185   0.803   2.681
  262SOL    HW2 1347   0.054   0.872   2.713
  263SOL     OW 1348   0.125   1.853   3.438
  263SOL    HW1 1349   0.119   1.828   3.530
  263SOL    HW2 1350   0.045   1.818   3.399
  264SOL     OW 1351   0.853   0.367   2.038
  264SOL    HW1 1352   0.929   0.404   1.994
  264SOL    HW2 1353   0.872   0.274   2.046
  265SOL     OW 1354   1.706   0.576   3.690
  265SOL    HW1 1355   1.672   0.653   3.646
  265SOL    HW2 1356   1.739   0.520   3.619
  266SOL     OW 1357   1.375   1.143   2.404
  266SOL    HW1 1358   1.453   1.128   2.351
  266SOL    HW2 1359   1.323   1.205   2.353
  267SOL     OW 1360   0.544   0.201   2.763
  267SOL    HW1 1361   0.562   0.221   2.855
  267SOL    HW2 1362   0.534   0.287   2.722
  268SOL     OW 1363   1.009   1.446   2.336
  268SOL    HW1 1364   0.968   1.517   2.287
  268SOL    HW2 1365   0.995   1.469   2.428
  269SOL     OW 1366   0.354   1.807   2.718
  269SOL    HW1 1367   0.398   1.723   2.728
  269SOL    HW2 1368   0.424   1.872   2.731
  270SOL     OW 1369   1.798   1.060   2.729
  270SOL    HW1 1370   1.741   1.044   2.654
  270SOL    HW2 1371   1.738   1.065   2.803
  271SOL     OW 1372   1.228   1.540   3.375
  271SOL    HW1 1373   1.214   1.466   3.434
  271SOL    HW2 1374   1.168   1.523   3.302
  272SOL     OW 1375   0.318   0.954   2.111
  272SOL    HW1 1376   0.402   0.976   2.071
  272SOL    HW2 1377   0.300   0.865   2.080
  273SOL     OW 1378   1.476   0.739   2.588
  273SOL    HW1 1379   1.462   0.692   2.670
  273SOL    HW2 1380   1.552   0.795   2.604
  274SOL     OW 1381   0.465   1.261   3.597
  274SOL    HW1 1382   0.437   1.267   3.506
  274SOL    HW2 1383   0.384   1.266   3.648
  275SOL     OW 1384   1.121   1.777   2.094
  275SOL    HW1 1385   1.049   1.734   2.141
  275SOL    HW2 1386   1.142   1.718   2.022
  276SOL     OW 1387   0.167   0.262   3.370
  276SOL    HW1 1388   0.135   0.349   3.344
  276SOL    HW2 1389   0.199   0.274   3.460
  277SOL     OW 1390   1.629   1.379   1.949
  277SOL    HW1 1391   1.588   1.464   1.933
  277SOL    HW2 1392   1.560   1.315   1.930
  278SOL     OW 1393   0.469   1.744   2.177
  278SOL    HW1 1394   0.508   1.796   2.247
  278SOL    HW2 1395   0.544   1.713   2.125
  279SOL     OW 1396   1.416   0.131   2.281
  279SOL    HW1 1397   1.398   0.084   2.199
  279SOL    HW2 1398   1.511   0.130   2.289
  280SOL     OW 1399   0.257   1.791   3.098
  280SOL    HW1 1400   0.306   1.719   3.137
  280SOL    HW2 1401   0.229   1.758   3.013
  281SOL     OW 1402   0.938   1.698   2.763
  281SOL    HW1 1403   1.015   1.645   2.783
  281SOL    HW2 1404   0.892   1.649   2.694
  282SOL     OW 1405   0.392   0.695   2.336
  282SOL    HW1 1406   0.418   0.603   2.347
  282SOL    HW2 1407   0.300   0.696   2.363
  283SOL     OW 1408   1.527   0.232   3.584
  283SOL    HW1 1409   1.525   0.257   3.677
  283SOL    HW2 1410   1.452   0.174   3.573
  284SOL     OW 1411   0.621   0.123   1.978
  284SOL    HW1 1412   0.710   0.088   1.991
  284SOL    HW2 1413   0.593   0.087   1.894
  285SOL     OW 1414   0.769   0.268   3.614
  285SOL    HW1 1415   0.835   0.201   3.631
  285SOL    HW2 1416   0.724   0.280   3.698
  286SOL     OW 1417   0.877   1.521   3.055
  286SOL    HW1 1418   0.862   1.485   2.968
  286SOL    HW2 1419   0.946   1.466   3.092
  287SOL     OW 1420   1.342   0.589   3.292
  287SOL    HW1 1421   1.370   0.559   3.378
  287SOL    HW2 1422   1.376   0.678   3.285
  288SOL     OW 1423   0.813   1.398   2.798
  288SOL    HW1 1424   0.897   1.388   2.752
  288SOL    HW2 1425   0.747   1.396   2.728
  289SOL     OW 1426   0.922   0.514   2.764
  289SOL    HW1 1427   0.905   0.513   2.670
  289SOL    HW2 1428   0.964   0.430   2.783
  290SOL     OW 1429   0.558   0.067   2.371
  290SOL    HW1 1430   0.470   0.054   2.407
  290SOL    HW2 1431   0.548   0.140   2.310
  291SOL     OW 1432   1.429   1.197   1.903
  291SOL    HW1 1433   1.459   1.122   1.953
  291SOL    HW2 1434   1.343   1.217   1.940
  292SOL     OW 1435   0.303   0.077   2.046
  292SOL    HW1 1436   0.386   0.123   2.040
  292SOL    HW2 1437   0.321   4.500   2.099
  293SOL     OW 1438   0.949   0.241   2.336
  293SOL    HW1 1439   0.898   0.287   2.270
  293SOL    HW2 1440   1.038   0.275   2.325
  294SOL     OW 1441   1.080   0.679   3.323
  294SOL    HW1 1442   1.008   0.616   3.325
  294SOL    HW2 1443   1.159   0.626   3.311
  295SOL     OW 1444   1.225   1.569   2.655
  295SOL    HW1 1445   1.243   1.637   2.591
  295SOL    HW2 1446   1.292   1.581   2.722
  296SOL     OW 1447   0.465   1.147   2.600
  296SOL    HW1 1448   0.393   1.129   2.660
  296SOL    HW2 1449   0.428   1.131   2.513
  297SOL     OW 1450   1.271   1.795   2.467
  297SOL    HW1 1451   1.315   1.857   2.408
  297SOL    HW2 1452   1.207   1.848   2.514
  298SOL     OW 1453   1.031   0.549   1.876
  298SOL    HW1 1454   0.983   0.631   1.860
  298SOL    HW2 1455   1.089   0.570   1.949
  299SOL     OW 1456   0.090   0.525   3.273
  299SOL    HW1 1457   0.152   0.536   3.201
  299SOL    HW2 1458   0.062   0.614   3.294
  300SOL     OW 1459   0.564   0.242   3.027
  300SOL    HW1 1460   0.594   0.157   3.058
  300SOL    HW2 1461   0.470   0.243   3.047
  301SOL     OW 1462   0.866   0.500   2.488
  301SOL    HW1 1463   0.814   0.542   2.420
  301SOL    HW2 1464   0.852   0.406   2.475
  302SOL     OW 1465   0.971   0.032   2.636
  302SOL    HW1 1466   0.922   0.027   2.554
  302SOL    HW2 1467   0.981   4.441   2.664
  303SOL     OW 1468   1.436   1.163   2.720
  303SOL    HW1 1469   1.368   1.095   2.718
  303SOL    HW2 1470   1.458   1.178   2.628
  304SOL     OW 1471   1.468   0.602   2.842
  304SOL    HW1 1472   1.417   0.521   2.845
  304SOL    HW2 1473   1.527   0.597   2.917
  305SOL     OW 1474   1.847   0.819   2.243
  305SOL    HW1 1475   1.903   0.767   2.301
  305SOL    HW2 1476   1.818   0.758   2.176
  306SOL     OW 1477   0.493   1.413   2.024
  306SOL    HW1 1478   0.416   1.383   2.074
  306SOL    HW2 1479   0.471   1.394   1.933
  307SOL     OW 1480   1.668   1.266   2.510
  307SOL    HW1 1481   1.763   1.272   2.523
  307SOL    HW2 1482   1.635   1.353   2.532
  308SOL     OW 1483   1.394   0.570   1.932
  308SOL    HW1 1484   1.333   0.554   2.004
  308SOL    HW2 1485   1.480   0.548   1.967
  309SOL     OW 1486   0.523   0.264   2.185
  309SOL    HW1 1487   0.568   0.213   2.117
  309SOL    HW2 1488   0.510   0.350   2.145
  310SOL     OW 1489   1.754   1.235   3.440
  310SOL    HW1 1490   1.842   1.197   3.435
  310SOL    HW2 1491   1.768   1.326   3.468
  311SOL     OW 1492   1.061   1.353   3.197
  311SOL    HW1 1493   0.986   1.322   3.248
  311SOL    HW2 1494   1.137   1.312   3.238
  312SOL     OW 1495   1.605   1.624   3.513
  312SOL    HW1 1496   1.603   1.660   3.424
  312SOL    HW2 1497   1.690   1.579   3.518
  313SOL     OW 1498   1.125   1.201   2.969
  313SOL    HW1 1499   1.067   1.240   3.035
  313SOL    HW2 1500   1.090   1.232   2.886
  314SOL     OW 1501   1.631   1.100   2.941
  314SOL    HW1 1502   1.627   1.162   3.013
  314SOL    HW2 1503   1.551   1.115   2.891
  315SOL     OW 1504   0.904   0.130   3.252
  315SOL    HW1 1505   0.927   0.086   3.170
  315SOL    HW2 1506   0.988   0.143   3.297
  316SOL     OW 1507   0.984   1.114   3.584
  316SOL    HW1 1508   0.891   1.129   3.603
  316SOL    HW2 1509   0.984   1.037   3.528
  317SOL     OW 1510   0.708   1.060   2.235
  317SOL    HW1 1511   0.696   1.046   2.329
  317SOL    HW2 1512   0.784   1.006   2.212
  318SOL     OW 1513   0.429   0.822   3.100
  318SOL    HW1 1514   0.497   0.834   3.167
  318SOL    HW2 1515   0.369   0.757   3.138
  319SOL     OW 1516   1.270   0.377   3.133
  319SOL    HW1 1517   1.301   0.455   3.179
  319SOL    HW2 1518   1.181   0.400   3.105
  320SOL     OW 1519   0.061   1.575   3.201
  320SOL    HW1 1520   0.033   1.663   3.175
  320SOL    HW2 1521   0.156   1.582   3.208
  321SOL     OW 1522   0.351   1.106   2.356
  321SOL    HW1 1523   0.360   1.180   2.295
  321SOL    HW2 1524   0.354   1.028   2.300
  322SOL     OW 1525   0.564   0.530   2.718
  322SOL    HW1 1526   0.577   0.590   2.644
  322SOL    HW2 1527   0.622   0.563   2.787
  323SOL     OW 1528   1.248   1.348   2.251
  323SOL    HW1 1529   1.303   1.420   2.282
  323SOL    HW2 1530   1.161   1.368   2.285
  324SOL     OW 1531   1.277   1.455   3.008
  324SOL    HW1 1532   1.331   1.458   3.086
  324SOL    HW2 1533   1.221   1.378   3.020
  325SOL     OW 1534   1.583   0.625   2.337
  325SOL    HW1 1535   1.539   0.679   2.403
  325SOL    HW2 1536   1.628   0.688   2.280
  326SOL     OW 1537   0.348   1.528   3.180
  326SOL    HW1 1538   0.333   1.481   3.098
  326SOL    HW2 1539   0.443   1.539   3.185
  327SOL     OW 1540   0.476   0.760   3.524
  327SOL    HW1 1541   0.502   0.800   3.441
  327SOL    HW2 1542   0.507   0.670   3.518
  328SOL     OW 1543   1.597   0.776   3.540
  328SOL    HW1 1544   1.511   0.818   3.533
  328SOL    HW2 1545   1.650   0.819   3.472
  329SOL     OW 1546   1.007   0.087   3.589
  329SOL    HW1 1547   1.029   0.171   3.550
  329SOL    HW2 1548   1.034   0.022   3.524
  330SOL     OW 1549   0.496   0.046   3.611
  330SOL    HW1 1550   0.478   4.498   3.531
  330SOL    HW2 1551   0.429   0.114   3.614
  331SOL     OW 1552   0.587   0.873   2.886
  331SOL    HW1 1553   0.617   0.965   2.888
  331SOL    HW2 1554   0.531   0.865   2.962
  332SOL     OW 1555   1.361   0.859   2.896
  332SOL    HW1 1556   1.280   0.853   2.845
  332SOL    HW2 1557   1.398   0.770   2.892
  333SOL     OW 1558   1.207   0.534   2.129
  333SOL    HW1 1559   1.213   0.453   2.180
  333SOL    HW2 1560   1.165   0.597   2.187
  334SOL     OW 1561   0.285   0.220   3.096
  334SOL    HW1 1562   0.250   0.237   3.184
  334SOL    HW2 1563   0.320   0.131   3.101
  335SOL     OW 1564   0.048   1.313   3.146
  335SOL    HW1 1565   0.078   1.266   3.224
  335SOL    HW2 1566   0.049   1.405   3.171
  336SOL     OW 1567   0.726   0.632   2.923
  336SOL    HW1 1568   0.798   0.611   2.864
  336SOL    HW2 1569   0.700   0.721   2.898
  337SOL     OW 1570   1.733   0.958   3.713
  337SOL    HW1 1571   1.684   0.905   3.650
  337SOL    HW2 1572   1.673   0.970   3.787
  338SOL     OW 1573   0.317   0.076   2.493
  338SOL    HW1 1574   0.300   0.164   2.527
  338SOL    HW2 1575   0.305   0.018   2.569
  339SOL     OW 1576   1.610   0.374   2.229
  339SOL    HW1 1577   1.642   0.312   2.294
  339SOL    HW2 1578   1.589   0.453   2.279
  340SOL     OW 1579   1.027   0.761   2.824
  340SOL    HW1 1580   1.027   0.777   2.919
  340SOL    HW2 1581   0.999   0.670   2.816
  341SOL     OW 1582   0.983   1.566   3.576
  341SOL    HW1 1583   0.967   1.610   3.493
  341SOL    HW2 1584   1.025   1.484   3.552
  342SOL     OW 1585   1.857   1.508   3.467
  342SOL    HW1 1586   1.871   1.536   3.377
  342SOL    HW2 1587   1.937   1.533   3.512
  343SOL     OW 1588   0.347   0.930   3.680
  343SOL    HW1 1589   0.422   0.958   3.733
  343SOL    HW2 1590   0.384   0.864   3.620
  344SOL     OW 1591   1.532   0.268   1.990
  344SOL    HW1 1592   1.460   0.211   2.017
  344SOL    HW2 1593   1.560   0.312   2.070
  345SOL     OW 1594   1.295   0.827   1.895
  345SOL    HW1 1595   1.336   0.741   1.897
  345SOL    HW2 1596   1.325   0.866   1.813
  346SOL     OW 1597   1.065   1.335   2.714
  346SOL    HW1 1598   1.068   1.262   2.652
  346SOL    HW2 1599   1.128   1.398   2.680
  347SOL     OW 1600   0.317   0.813   2.812
  347SOL    HW1 1601   0.411   0.831   2.807
  347SOL    HW2 1602   0.311   0.723   2.843
  348SOL     OW 1603   0.337   0.526   2.857
  348SOL    HW1 1604   0.292   0.444   2.837
  348SOL    HW2 1605   0.414   0.526   2.799
  349SOL     OW 1606   1.135   0.375   3.554
  349SOL    HW1 1607   1.088   0.440   3.607
  349SOL    HW2 1608   1.222   0.414   3.541
  350SOL     OW 1609   1.160   0.211   3.336
  350SOL    HW1 1610   1.152   0.275   3.406
  350SOL    HW2 1611   1.195   0.261   3.262
  351SOL     OW 1612   4.492   1.323   2.063
  351SOL    HW1 1613   4.399   1.338   2.045
  351SOL    HW2 1614   4.498   1.231   2.087
  352SOL     OW 1615   0.094   1.782   2.801
  352SOL    HW1 1616   0.057   1.721   2.738
  352SOL    HW2 1617   0.182   1.801   2.767
  353SOL     OW 1618   0.499   1.573   2.768
  353SOL    HW1 1619   0.567   1.636   2.792
  353SOL    HW2 1620   0.544   1.508   2.714
  354SOL     OW 1621   0.989   0.795   3.091
  354SOL    HW1 1622   1.041   0.769   3.167
  354SOL    HW2 1623   0.902   0.758   3.108
  355SOL     OW 1624   0.040   0.565   2.972
  355SOL    HW1 1625   0.115   0.521   2.933
  355SOL    HW2 1626   0.026   0.520   3.055
  356SOL     OW 1627   0.180   0.517   3.572
  356SOL    HW1 1628   0.266   0.501   3.532
  356SOL    HW2 1629   0.150   0.599   3.532
  357SOL     OW 1630   1.376   0.941   3.522
  357SOL    HW1 1631   1.396   1.035   3.522
  357SOL    HW2 1632   1.374   0.918   3.429
  358SOL     OW 1633   0.812   0.572   2.214
  358SOL    HW1 1634   0.815   0.500   2.151
  358SOL    HW2 1635   0.738   0.626   2.186
  359SOL     OW 1636   1.642   0.601   3.052
  359SOL    HW1 1637   1.631   0.541   3.125
  359SOL    HW2 1638   1.729   0.580   3.017
  360SOL     OW 1639   0.271   1.562   3.604
  360SOL    HW1 1640   0.217   1.614   3.664
  360SOL    HW2 1641   0.250   1.471   3.626
  361SOL     OW 1642   0.682   0.464   3.130
  361SOL    HW1 1643   0.646   0.383   3.093
  361SOL    HW2 1644   0.691   0.522   3.055
  362SOL     OW 1645   0.930   1.678   3.328
  362SOL    HW1 1646   0.904   1.648   3.241
  362SOL    HW2 1647   0.930   1.774   3.322
  363SOL     OW 1648   0.473   0.491   2.048
  363SOL    HW1 1649   0.532   0.564   2.069
  363SOL    HW2 1650   0.388   0.532   2.035
  364SOL     OW 1651   0.161   1.141   3.325
  364SOL    HW1 1652   0.148   1.092   3.407
  364SOL    HW2 1653   0.170   1.073   3.258
  365SOL     OW 1654   1.329   1.049   3.087
  365SOL    HW1 1655   1.354   0.986   3.019
  365SOL    HW2 1656   1.256   1.098   3.050
  366SOL     OW 1657   1.309   0.856   2.169
  366SOL    HW1 1658   1.232   0.827   2.218
  366SOL    HW2 1659   1.285   0.843   2.077
  367SOL     OW 1660   1.763   1.745   3.010
  367SOL    HW1 1661   1.826   1.774   2.944
  367SOL    HW2 1662   1.746   1.653   2.987
  368SOL     OW 1663   1.242   1.733   2.979
  368SOL    HW1 1664   1.324   1.751   2.933
  368SOL    HW2 1665   1.244   1.638   2.996
  369SOL     OW 1666   0.069   1.189   2.910
  369SOL    HW1 1667   0.074   1.224   2.999
  369SOL    HW2 1668   0.010   1.249   2.864
  370SOL     OW 1669   0.679   1.663   3.586
  370SOL    HW1 1670   0.626   1.743   3.583
  370SOL    HW2 1671   0.741   1.673   3.514
  371SOL     OW 1672   1.718   0.130   2.360
  371SOL    HW1 1673   1.792   0.135   2.300
  371SOL    HW2 1674   1.737   0.055   2.416
  372SOL     OW 1675   1.390   1.568   2.345
  372SOL    HW1 1676   1.450   1.599   2.277
  372SOL    HW2 1677   1.342   1.646   2.372
  373SOL     OW 1678   0.120   1.808   3.710
  373SOL    HW1 1679   0.082   1.734   3.756
  373SOL    HW2 1680   0.184   1.844   3.771
  374SOL     OW 1681   1.278   0.925   2.534
  374SOL    HW1 1682   1.351   0.863   2.537
  374SOL    HW2 1683   1.311   0.998   2.482
  375SOL     OW 1684   0.819   1.272   3.293
  375SOL    HW1 1685   0.793   1.311   3.377
  375SOL    HW2 1686   0.747   1.294   3.234
  376SOL     OW 1687   0.673   1.616   2.017
  376SOL    HW1 1688   0.681   1.627   1.922
  376SOL    HW2 1689   0.620   1.537   2.028
  377SOL     OW 1690   1.631   1.726   3.254
  377SOL    HW1 1691   1.680   1.734   3.172
  377SOL    HW2 1692   1.618   1.816   3.283
  378SOL     OW 1693   1.839   0.156   2.829
  378SOL    HW1 1694   1.868   0.080   2.779
  378SOL    HW2 1695   1.752   0.176   2.794
  379SOL     OW 1696   0.267   0.326   2.587
  379SOL    HW1 1697   0.185   0.361   2.552
  379SOL    HW2 1698   0.251   0.317   2.681
  380SOL     OW 1699   1.205   1.608   1.893
  380SOL    HW1 1700   1.197   1.517   1.920
  380SOL    HW2 1701   1.141   1.618   1.823
  381SOL     OW 1702   0.825   1.006   3.233
  381SOL    HW1 1703   0.867   1.004   3.148
  381SOL    HW2 1704   0.826   1.099   3.258
  382SOL     OW 1705   0.915   0.910   2.151
  382SOL    HW1 1706   0.977   0.942   2.086
  382SOL    HW2 1707   0.961   0.839   2.196
  383SOL     OW 1708   1.496   1.624   1.904
  383SOL    HW1 1709   1.401   1.621   1.893
  383SOL    HW2 1710   1.530   1.630   1.815
  384SOL     OW 1711   0.372   1.304   3.353
  384SOL    HW1 1712   0.356   1.383   3.301
  384SOL    HW2 1713   0.296   1.249   3.337
  385SOL     OW 1714   1.611   1.283   3.143
  385SOL    HW1 1715   1.672   1.277   3.217
  385SOL    HW2 1716   1.551   1.354   3.167
  386SOL     OW 1717   1.048   1.105   2.566
  386SOL    HW1 1718   0.978   1.054   2.607
  386SOL    HW2 1719   1.109   1.039   2.532
  387SOL     OW 1720   1.007   0.241   2.858
  387SOL    HW1 1721   1.014   0.211   2.767
  387SOL    HW2 1722   1.001   0.160   2.909
  388SOL     OW 1723   0.602   1.489   2.345
  388SOL    HW1 1724   0.641   1.439   2.274
  388SOL    HW2 1725   0.533   1.541   2.304
  389SOL     OW 1726   1.719   0.393   3.240
  389SOL    HW1 1727   1.791   0.456   3.239
  389SOL    HW2 1728   1.749   0.321   3.184
  390SOL     OW 1729   0.252   1.345   2.140
  390SOL    HW1 1730   0.157   1.347   2.125
  390SOL    HW2 1731   0.263   1.378   2.229
  391SOL     OW 1732   0.117   1.007   3.559
  391SOL    HW1 1733   0.052   1.045   3.617
  391SOL    HW2 1734   0.195   0.996   3.613
  392SOL     OW 1735   0.659   0.207   3.357
  392SOL    HW1 1736   0.739   0.181   3.312
  392SOL    HW2 1737   0.687   0.222   3.448
  393SOL     OW 1738   0.070   0.321   1.888
  393SOL    HW1 1739   4.475   0.330   1.897
  393SOL    HW2 1740   0.100   0.407   1.857
  394SOL     OW 1741   1.432   0.858   3.263
  394SOL    HW1 1742   1.383   0.918   3.206
  394SOL    HW2 1743   1.522   0.862   3.231
  395SOL     OW 1744   0.083   0.188   2.165
  395SOL    HW1 1745   0.080   0.260   2.102
  395SOL    HW2 1746   0.161   0.138   2.141
  396SOL     OW 1747   1.180   1.342   1.979
  396SOL    HW1 1748   1.089   1.312   1.982
  396SOL    HW2 1749   1.209   1.341   2.070
  397SOL     OW 1750   0.620   0.831   3.290
  397SOL    HW1 1751   0.674   0.909   3.278
  397SOL    HW2 1752   0.683   0.760   3.300
  398SOL     OW 1753   1.486   1.773   2.836
  398SOL    HW1 1754   1.511   1.833   2.766
  398SOL    HW2 1755   1.566   1.761   2.888
  399SOL     OW 1756   0.715   0.562   3.567
  399SOL    HW1 1757   0.746   0.629   3.628
  399SOL    HW2 1758   0.756   0.481   3.599
  400SOL     OW 1759   1.468   1.203   3.495
  400SOL    HW1 1760   1.456   1.216   3.589
  400SOL    HW2 1761   1.562   1.216   3.481
  401SOL     OW 1762   0.383   1.743   3.425
  401SOL    HW1 1763   0.297   1.782   3.411
  401SOL    HW2 1764   0.364   1.661   3.471
  402SOL     OW 1765   1.672   0.882   3.117
  402SOL    HW1 1766   1.662   0.797   3.074
  402SOL    HW2 1767   1.663   0.946   3.047
  403SOL     OW 1768   1.218   0.327   2.310
  403SOL    HW1 1769   1.283   0.257   2.301
  403SOL    HW2 1770   1.245   0.374   2.389
  404SOL     OW 1771   0.589   0.740   2.530
  404SOL    HW1 1772   0.630   0.825   2.513
  404SOL    HW2 1773   0.519   0.734   2.464
  405SOL     OW 1774   1.766   0.360   3.505
  405SOL    HW1 1775   1.750   0.374   3.412
  405SOL    HW2 1776   1.687   0.317   3.537
  406SOL     OW 1777   1.743   0.933   3.375
  406SOL    HW1 1778   1.747   1.028   3.388
  406SOL    HW2 1779   1.728   0.923   3.281
  407SOL     OW 1780   0.863   1.369   1.892
  407SOL    HW1 1781   0.823   1.394   1.975
  407SOL    HW2 1782   0.882   1.451   1.847
  408SOL     OW 1783   0.659   1.794   2.811
  408SOL    HW1 1784   0.637   1.884   2.785
  408SOL    HW2 1785   0.754   1.789   2.802
  409SOL     OW 1786   0.866   0.965   2.718
  409SOL    HW1 1787   0.916   0.894   2.758
  409SOL    HW2 1788   0.833   1.016   2.792
  410SOL     OW 1789   1.080   0.988   1.951
  410SOL    HW1 1790   1.058   1.038   1.872
  410SOL    HW2 1791   1.156   0.935   1.925
  411SOL     OW 1792   1.858   1.554   2.705
  411SOL    HW1 1793   1.778   1.545   2.653
  411SOL    HW2 1794   1.847   1.491   2.776
  412SOL     OW 1795   0.228   1.307   3.718
  412SOL    HW1 1796   0.159   1.245   3.693
  412SOL    HW2 1797   0.218   1.317   3.813
  413SOL     OW 1798   0.101   1.239   2.528
  413SOL    HW1 1799   0.105   1.188   2.609
  413SOL    HW2 1800   0.162   1.196   2.469
  414SOL     OW 1801   0.680   1.400   3.488
  414SOL    HW1 1802   0.600   1.356   3.516
  414SOL    HW2 1803   0.674   1.488   3.525
  415SOL     OW 1804   1.812   0.184   3.101
  415SOL    HW1 1805   1.810   0.091   3.122
  415SOL    HW2 1806   1.826   0.187   3.006
  416SOL     OW 1807   0.438   0.431   2.390
  416SOL    HW1 1808   0.458   0.360   2.330
  416SOL    HW2 1809   0.381   0.391   2.456
  417SOL     OW 1810   1.704   1.488   2.958
  417SOL    HW1 1811   1.620   1.464   2.919
  417SOL    HW2 1812   1.718   1.423   3.027
  418SOL     OW 1813   0.313   0.504   3.120
  418SOL    HW1 1814   0.385   0.457   3.162
  418SOL    HW2 1815   0.340   0.512   3.028
  419SOL     OW 1816   0.825   1.578   2.542
  419SOL    HW1 1817   0.819   1.623   2.457
  419SOL    HW2 1818   0.746   1.524   2.545
  420SOL     OW 1819   1.432   0.215   2.980
  420SOL    HW1 1820   1.469   0.145   3.034
  420SOL    HW2 1821   1.381   0.268   3.041
  421SOL     OW 1822   0.997   0.013   3.010
  421SOL    HW1 1823   0.951   4.430   2.999
  421SOL    HW2 1824   1.089   4.488   3.023
  422SOL     OW 1825   0.771   1.332   2.172
  422SOL    HW1 1826   0.738   1.243   2.179
  422SOL    HW2 1827   0.854   1.330   2.220
  423SOL     OW 1828   0.621   1.559   3.146
  423SOL    HW1 1829   0.624   1.640   3.197
  423SOL    HW2 1830   0.708   1.551   3.107
  424SOL     OW 1831   1.342   0.054   2.014
  424SOL    HW1 1832   1.383   4.480   1.968
  424SOL    HW2 1833   1.267   0.016   2.060
  425SOL     OW 1834   1.314   0.462   2.543
  425SOL    HW1 1835   1.252   0.535   2.544
  425SOL    HW2 1836   1.302   0.419   2.628
  426SOL     OW 1837   1.586   0.203   2.730
  426SOL    HW1 1838   1.524   0.217   2.802
  426SOL    HW2 1839   1.589   0.287   2.684
  427SOL     OW 1840   0.041   1.054   2.148
  427SOL    HW1 1841   0.136   1.043   2.142
  427SOL    HW2 1842   0.018   1.013   2.232
  428SOL     OW 1843   0.881   1.649   2.207
  428SOL    HW1 1844   0.810   1.631   2.145
  428SOL    HW2 1845   0.851   1.725   2.256
  429SOL     OW 1846   0.247   0.625   3.843
  429SOL    HW1 1847   0.171   0.612   3.899
  429SOL    HW2 1848   0.215   0.609   3.754
  430SOL     OW 1849   0.197   0.292   4.713
  430SOL    HW1 1850   0.234   0.269   4.799
  430SOL    HW2 1851   0.132   0.224   4.697
  431SOL     OW 1852   0.007   0.377   4.367
  431SOL    HW1 1853   4.428   0.414   4.405
  431SOL    HW2 1854   4.475   0.306   4.311
  432SOL     OW 1855   0.567   1.282   4.896
  432SOL    HW1 1856   0.479   1.286   4.858
  432SOL    HW2 1857   0.582   1.369   4.931
  433SOL     OW 1858   1.552   1.512   4.426
  433SOL    HW1 1859   1.511   1.493   4.511
  433SOL    HW2 1860   1.479   1.516   4.364
  434SOL     OW 1861   1.131   0.700   4.426
  434SOL    HW1 1862   1.180   0.781   4.414
  434SOL    HW2 1863   1.082   0.713   4.507
  435SOL     OW 1864   1.764   0.609   3.954
  435SOL    HW1 1865   1.745   0.597   3.860
  435SOL    HW2 1866   1.732   0.528   3.994
  436SOL     OW 1867   0.760   1.145   4.762
  436SOL    HW1 1868   0.689   1.178   4.817
  436SOL    HW2 1869   0.793   1.222   4.716
  437SOL     OW 1870   0.862   0.780   5.545
  437SOL    HW1 1871   0.849   0.851   5.607
  437SOL    HW2 1872   0.885   0.824   5.463
  438SOL     OW 1873   0.686   1.008   4.373
  438SOL    HW1 1874   0.750   0.992   4.443
  438SOL    HW2 1875   0.616   1.057   4.416
  439SOL     OW 1876   0.708   1.152   5.533
  439SOL    HW1 1877   0.755   1.231   5.557
  439SOL    HW2 1878   0.624   1.182   5.499
  440SOL     OW 1879   0.337   1.424   4.794
  440SOL    HW1 1880   0.256   1.404   4.747
  440SOL    HW2 1881   0.387   1.479   4.733
  441SOL     OW 1882   1.469   1.501   5.083
  441SOL    HW1 1883   1.458   1.596   5.081
  441SOL    HW2 1884   1.412   1.472   5.154
  442SOL     OW 1885   0.436   0.396   5.218
  442SOL    HW1 1886   0.524   0.359   5.220
  442SOL    HW2 1887   0.378   0.322   5.232
  443SOL     OW 1888   1.613   0.448   4.462
  443SOL    HW1 1889   1.533   0.473   4.415
  443SOL    HW2 1890   1.635   0.525   4.514
  444SOL     OW 1891   0.245   1.692   4.203
  444SOL    HW1 1892   0.233   1.777   4.247
  444SOL    HW2 1893   0.307   1.710   4.132
  445SOL     OW 1894   1.136   1.341   5.414
  445SOL    HW1 1895   1.175   1.338   5.502
  445SOL    HW2 1896   1.083   1.262   5.409
  446SOL     OW 1897   0.243   1.428   4.252
  446SOL    HW1 1898   0.236   1.523   4.258
  446SOL    HW2 1899   0.179   1.395   4.315
  447SOL     OW 1900   0.244   1.081   4.606
  447SOL    HW1 1901   0.263   0.994   4.641
  447SOL    HW2 1902   0.188   1.122   4.672
  448SOL     OW 1903   0.617   1.790   5.158
  448SOL    HW1 1904   0.533   1.773   5.200
  448SOL    HW2 1905   0.637   1.881   5.180
  449SOL     OW 1906   0.584   0.983   3.859
  449SOL    HW1 1907   0.629   1.031   3.788
  449SOL    HW2 1908   0.630   1.009   3.938
  450SOL     OW 1909   1.586   0.114   5.198
  450SOL    HW1 1910   1.596   0.183   5.132
  450SOL    HW2 1911   1.575   0.162   5.281
  451SOL     OW 1912   0.136   0.642   4.299
  451SOL    HW1 1913   0.082   0.564   4.312
  451SOL    HW2 1914   0.107   0.703   4.367
  452SOL     OW 1915   1.841   1.762   4.061
  452SOL    HW1 1916   1.898   1.731   4.131
  452SOL    HW2 1917   1.870   1.852   4.044
  453SOL     OW 1918   0.033   1.601   3.859
  453SOL    HW1 1919   0.021   1.506   3.861
  453SOL    HW2 1920   0.010   1.630   3.947
  454SOL     OW 1921   1.689   0.918   4.360
  454SOL    HW1 1922   1.775   0.881   4.343
  454SOL    HW2 1923   1.669   0.969   4.281
  455SOL     OW 1924   1.645   1.109   4.154
  455SOL    HW1 1925   1.730   1.117   4.111
  455SOL    HW2 1926   1.650   1.169   4.228
  456SOL     OW 1927   0.107   0.760   5.313
  456SOL    HW1 1928   0.201   0.760   5.299
  456SOL    HW2 1929   0.083   0.853   5.317
  457SOL     OW 1930   0.612   1.381   4.460
  457SOL    HW1 1931   0.566   1.298   4.468
  457SOL    HW2 1932   0.596   1.409   4.369
  458SOL     OW 1933   1.295   1.243   5.146
  458SOL    HW1 1934   1.324   1.173   5.088
  458SOL    HW2 1935   1.347   1.231   5.226
  459SOL     OW 1936   0.817   0.011   4.269
  459SOL    HW1 1937   0.850   0.097   4.246
  459SOL    HW2 1938   0.722   0.018   4.260
  460SOL     OW 1939   0.183   0.944   5.003
  460SOL    HW1 1940   0.274   0.927   4.980
  460SOL    HW2 1941   0.133   0.920   4.926
  461SOL     OW 1942   1.532   0.991   3.920
  461SOL    HW1 1943   1.462   0.933   3.950
  461SOL    HW2 1944   1.571   1.025   4.001
  462SOL     OW 1945   1.188   1.803   5.344
  462SOL    HW1 1946   1.198   1.861   5.269
  462SOL    HW2 1947   1.199   1.715   5.308
  463SOL     OW 1948   0.318   0.260   5.497
  463SOL    HW1 1949   0.386   0.313   5.538
  463SOL    HW2 1950   0.242   0.269   5.555
  464SOL     OW 1951   1.453   1.423   4.671
  464SOL    HW1 1952   1.388   1.433   4.740
  464SOL    HW2 1953   1.448   1.330   4.646
  465SOL     OW 1954   1.663   1.732   4.302
  465SOL    HW1 1955   1.636   1.703   4.215
  465SOL    HW2 1956   1.642   1.659   4.360
  466SOL     OW 1957   0.596   0.723   3.988
  466SOL    HW1 1958   0.602   0.803   3.936
  466SOL    HW2 1959   0.530   0.743   4.055
  467SOL     OW 1960   1.290   0.358   4.659
  467SOL    HW1 1961   1.201   0.326   4.643
  467SOL    HW2 1962   1.327   0.295   4.721
  468SOL     OW 1963   1.581   1.669   4.033
  468SOL    HW1 1964   1.670   1.703   4.027
  468SOL    HW2 1965   1.556   1.650   3.942
  469SOL     OW 1966   0.797   0.616   5.179
  469SOL    HW1 1967   0.769   0.594   5.267
  469SOL    HW2 1968   0.752   0.554   5.122
  470SOL     OW 1969   1.389   0.478   5.400
  470SOL    HW1 1970   1.391   0.521   5.485
  470SOL    HW2 1971   1.456   0.410   5.407
  471SOL     OW 1972   0.959   0.889   5.305
  471SOL    HW1 1973   1.012   0.817   5.271
  471SOL    HW2 1974   0.911   0.922   5.228
  472SOL     OW 1975   0.996   0.417   4.962
  472SOL    HW1 1976   0.911   0.431   5.005
  472SOL    HW2 1977   0.975   0.365   4.884
  473SOL     OW 1978   1.049   0.698   4.152
  473SOL    HW1 1979   1.064   0.691   4.246
  473SOL    HW2 1980   0.967   0.651   4.137
  474SOL     OW 1981   0.099   0.822   4.507
  474SOL    HW1 1982   0.185   0.803   4.544
  474SOL    HW2 1983   0.053   0.871   4.575
  475SOL     OW 1984   0.125   1.853   5.300
  475SOL    HW1 1985   0.119   1.828   5.392
  475SOL    HW2 1986   0.045   1.818   5.261
  476SOL     OW 1987   0.853   0.367   3.900
  476SOL    HW1 1988   0.929   0.404   3.856
  476SOL    HW2 1989   0.872   0.274   3.908
  477SOL     OW 1990   1.707   0.576   5.552
  477SOL    HW1 1991   1.672   0.653   5.507
  477SOL    HW2 1992   1.739   0.520   5.481
  478SOL     OW 1993   1.374   1.142   4.265
  478SOL    HW1 1994   1.454   1.129   4.214
  478SOL    HW2 1995   1.323   1.205   4.215
  479SOL     OW 1996   0.544   0.201   4.625
  479SOL    HW1 1997   0.562   0.221   4.717
  479SOL    HW2 1998   0.534   0.287   4.584
  480SOL     OW 1999   1.009   1.446   4.198
  480SOL    HW1 2000   0.968   1.517   4.149
  480SOL    HW2 2001   0.994   1.469   4.290
  481SOL     OW 2002   0.355   1.807   4.580
  481SOL    HW1 2003   0.398   1.722   4.590
  481SOL    HW2 2004   0.424   1.871   4.593
  482SOL     OW 2005   1.798   1.058   4.588
  482SOL    HW1 2006   1.737   1.044   4.515
  482SOL    HW2 2007   1.742   1.066   4.665
  483SOL     OW 2008   1.230   1.539   5.232
  483SOL    HW1 2009   1.216   1.468   5.295
  483SOL    HW2 2010   1.164   1.524   5.164
  484SOL     OW 2011   0.318   0.954   3.973
  484SOL    HW1 2012   0.402   0.976   3.933
  484SOL    HW2 2013   0.300   0.865   3.943
  485SOL     OW 2014   1.476   0.739   4.450
  485SOL    HW1 2015   1.463   0.692   4.533
  485SOL    HW2 2016   1.552   0.795   4.465
  486SOL     OW 2017   0.465   1.261   5.459
  486SOL    HW1 2018   0.437   1.267   5.368
  486SOL    HW2 2019   0.384   1.266   5.510
  487SOL     OW 2020   1.121   1.777   3.956
  487SOL    HW1 2021   1.049   1.734   4.003
  487SOL    HW2 2022   1.142   1.718   3.884
  488SOL     OW 2023   0.167   0.262   5.232
  488SOL    HW1 2024   0.135   0.349   5.206
  488SOL    HW2 2025   0.199   0.274   5.322
  489SOL     OW 2026   1.629   1.379   3.811
  489SOL    HW1 2027   1.588   1.464   3.795
  489SOL    HW2 2028   1.560   1.315   3.792
  490SOL     OW 2029   0.469   1.744   4.038
  490SOL    HW1 2030   0.508   1.796   4.109
  490SOL    HW2 2031   0.544   1.713   3.987
  491SOL     OW 2032   1.416   0.130   4.143
  491SOL    HW1 2033   1.398   0.085   4.061
  491SOL    HW2 2034   1.511   0.130   4.151
  492SOL     OW 2035   0.257   1.791   4.960
  492SOL    HW1 2036   0.306   1.718   4.999
  492SOL    HW2 2037   0.229   1.758   4.875
  493SOL     OW 2038   0.939   1.698   4.625
  493SOL    HW1 2039   1.016   1.645   4.643
  493SOL    HW2 2040   0.892   1.650   4.556
  494SOL     OW 2041   0.392   0.695   4.198
  494SOL    HW1 2042   0.418   0.603   4.209
  494SOL    HW2 2043   0.300   0.696   4.225
  495SOL     OW 2044   1.527   0.232   5.446
  495SOL    HW1 2045   1.525   0.257   5.539
  495SOL    HW2 2046   1.452   0.174   5.435
  496SOL     OW 2047   0.621   0.123   3.840
  496SOL    HW1 2048   0.710   0.089   3.853
  496SOL    HW2 2049   0.593   0.087   3.756
  497SOL     OW 2050   0.769   0.269   5.476
  497SOL    HW1 2051   0.835   0.201   5.493
  497SOL    HW2 2052   0.724   0.279   5.560
  498SOL     OW 2053   0.877   1.521   4.917
  498SOL    HW1 2054   0.862   1.486   4.830
  498SOL    HW2 2055   0.946   1.465   4.954
  499SOL     OW 2056   1.342   0.589   5.154
  499SOL    HW1 2057   1.370   0.559   5.240
  499SOL    HW2 2058   1.377   0.678   5.147
  500SOL     OW 2059   0.813   1.398   4.660
  500SOL    HW1 2060   0.897   1.389   4.614
  500SOL    HW2 2061   0.747   1.396   4.590
  501SOL     OW 2062   0.922   0.514   4.626
  501SOL    HW1 2063   0.905   0.513   4.532
  501SOL    HW2 2064   0.964   0.430   4.645
  502SOL     OW 2065   0.558   0.067   4.233
  502SOL    HW1 2066   0.470   0.054   4.269
  502SOL    HW2 2067   0.548   0.140   4.172
  503SOL     OW 2068   1.429   1.197   3.765
  503SOL    HW1 2069   1.459   1.122   3.815
  503SOL    HW2 2070   1.343   1.217   3.802
  504SOL     OW 2071   0.303   0.076   3.908
  504SOL    HW1 2072   0.386   0.123   3.902
  504SOL    HW2 2073   0.321   4.500   3.962
  505SOL     OW 2074   0.950   0.241   4.198
  505SOL    HW1 2075   0.898   0.288   4.132
  505SOL    HW2 2076   1.038   0.275   4.187
  506SOL     OW 2077   1.080   0.679   5.185
  506SOL    HW1 2078   1.008   0.616   5.187
  506SOL    HW2 2079   1.159   0.626   5.173
  507SOL     OW 2080   1.223   1.571   4.519
  507SOL    HW1 2081   1.243   1.638   4.454
  507SOL    HW2 2082   1.295   1.576   4.581
  508SOL     OW 2083   0.465   1.147   4.462
  508SOL    HW1 2084   0.393   1.129   4.522
  508SOL    HW2 2085   0.428   1.131   4.375
  509SOL     OW 2086   1.272   1.796   4.330
  509SOL    HW1 2087   1.314   1.857   4.270
  509SOL    HW2 2088   1.207   1.848   4.376
  510SOL     OW 2089   1.031   0.549   3.738
  510SOL    HW1 2090   0.983   0.631   3.722
  510SOL    HW2 2091   1.089   0.570   3.811
  511SOL     OW 2092   0.090   0.525   5.135
  511SOL    HW1 2093   0.152   0.536   5.063
  511SOL    HW2 2094   0.062   0.614   5.156
  512SOL     OW 2095   0.564   0.242   4.889
  512SOL    HW1 2096   0.594   0.157   4.920
  512SOL    HW2 2097   0.470   0.243   4.909
  513SOL     OW 2098   0.866   0.500   4.350
  513SOL    HW1 2099   0.814   0.542   4.282
  513SOL    HW2 2100   0.852   0.406   4.337
  514SOL     OW 2101   0.971   0.032   4.498
  514SOL    HW1 2102   0.922   0.027   4.416
  514SOL    HW2 2103   0.980   4.441   4.526
  515SOL     OW 2104   1.436   1.163   4.583
  515SOL    HW1 2105   1.369   1.095   4.579
  515SOL    HW2 2106   1.461   1.179   4.492
  516SOL     OW 2107   1.468   0.602   4.704
  516SOL    HW1 2108   1.417   0.521   4.707
  516SOL    HW2 2109   1.527   0.597   4.779
  517SOL     OW 2110   1.848   0.819   4.105
  517SOL    HW1 2111   1.903   0.767   4.163
  517SOL    HW2 2112   1.818   0.758   4.038
  518SOL     OW 2113   0.493   1.413   3.886
  518SOL    HW1 2114   0.416   1.383   3.936
  518SOL    HW2 2115   0.471   1.394   3.795
  519SOL     OW 2116   1.669   1.268   4.373
  519SOL    HW1 2117   1.763   1.273   4.388
  519SOL    HW2 2118   1.636   1.355   4.396
  520SOL     OW 2119   1.394   0.570   3.794
  520SOL    HW1 2120   1.333   0.554   3.867
  520SOL    HW2 2121   1.480   0.549   3.829
  521SOL     OW 2122   0.523   0.264   4.047
  521SOL    HW1 2123   0.568   0.213   3.979
  521SOL    HW2 2124   0.510   0.350   4.007
  522SOL     OW 2125   1.752   1.233   5.303
  522SOL    HW1 2126   1.840   1.195   5.299
  522SOL    HW2 2127   1.766   1.323   5.334
  523SOL     OW 2128   1.060   1.354   5.061
  523SOL    HW1 2129   0.985   1.322   5.111
  523SOL    HW2 2130   1.136   1.312   5.101
  524SOL     OW 2131   1.604   1.631   5.371
  524SOL    HW1 2132   1.608   1.673   5.285
  524SOL    HW2 2133   1.685   1.581   5.377
  525SOL     OW 2134   1.126   1.204   4.831
  525SOL    HW1 2135   1.065   1.239   4.896
  525SOL    HW2 2136   1.090   1.231   4.747
  526SOL     OW 2137   1.631   1.097   4.803
  526SOL    HW1 2138   1.625   1.159   4.876
  526SOL    HW2 2139   1.553   1.115   4.751
  527SOL     OW 2140   0.904   0.130   5.114
  527SOL    HW1 2141   0.927   0.086   5.032
  527SOL    HW2 2142   0.988   0.143   5.159
  528SOL     OW 2143   0.984   1.115   5.445
  528SOL    HW1 2144   0.892   1.129   5.465
  528SOL    HW2 2145   0.984   1.037   5.390
  529SOL     OW 2146   0.708   1.060   4.097
  529SOL    HW1 2147   0.696   1.046   4.191
  529SOL    HW2 2148   0.784   1.006   4.074
  530SOL     OW 2149   0.429   0.822   4.962
  530SOL    HW1 2150   0.496   0.833   5.029
  530SOL    HW2 2151   0.369   0.757   4.999
  531SOL     OW 2152   1.270   0.377   4.995
  531SOL    HW1 2153   1.301   0.455   5.041
  531SOL    HW2 2154   1.181   0.400   4.966
  532SOL     OW 2155   0.061   1.575   5.063
  532SOL    HW1 2156   0.032   1.663   5.038
  532SOL    HW2 2157   0.156   1.582   5.070
  533SOL     OW 2158   0.351   1.106   4.218
  533SOL    HW1 2159   0.360   1.180   4.157
  533SOL    HW2 2160   0.354   1.028   4.162
  534SOL     OW 2161   0.564   0.530   4.580
  534SOL    HW1 2162   0.577   0.590   4.506
  534SOL    HW2 2163   0.622   0.563   4.649
  535SOL     OW 2164   1.248   1.347   4.113
  535SOL    HW1 2165   1.302   1.420   4.143
  535SOL    HW2 2166   1.160   1.368   4.147
  536SOL     OW 2167   1.276   1.453   4.873
  536SOL    HW1 2168   1.327   1.448   4.954
  536SOL    HW2 2169   1.219   1.377   4.877
  537SOL     OW 2170   1.583   0.625   4.199
  537SOL    HW1 2171   1.539   0.679   4.265
  537SOL    HW2 2172   1.629   0.688   4.143
  538SOL     OW 2173   0.348   1.528   5.042
  538SOL    HW1 2174   0.333   1.481   4.960
  538SOL    HW2 2175   0.443   1.539   5.047
  539SOL     OW 2176   0.476   0.760   5.387
  539SOL    HW1 2177   0.502   0.800   5.303
  539SOL    HW2 2178   0.507   0.670   5.380
  540SOL     OW 2179   1.597   0.777   5.402
  540SOL    HW1 2180   1.511   0.818   5.395
  540SOL    HW2 2181   1.650   0.819   5.334
  541SOL     OW 2182   1.007   0.087   5.452
  541SOL    HW1 2183   1.029   0.171   5.412
  541SOL    HW2 2184   1.034   0.022   5.386
  542SOL     OW 2185   0.497   0.046   5.473
  542SOL    HW1 2186   0.478   4.497   5.393
  542SOL    HW2 2187   0.429   0.114   5.476
  543SOL     OW 2188   0.588   0.873   4.748
  543SOL    HW1 2189   0.616   0.965   4.749
  543SOL    HW2 2190   0.531   0.864   4.824
  544SOL     OW 2191   1.360   0.858   4.759
  544SOL    HW1 2192   1.280   0.853   4.707
  544SOL    HW2 2193   1.398   0.770   4.754
  545SOL     OW 2194   1.207   0.534   3.991
  545SOL    HW1 2195   1.213   0.453   4.042
  545SOL    HW2 2196   1.165   0.597   4.049
  546SOL     OW 2197   0.285   0.220   4.958
  546SOL    HW1 2198   0.250   0.237   5.046
  546SOL    HW2 2199   0.320   0.131   4.963
  547SOL     OW 2200   0.049   1.313   5.008
  547SOL    HW1 2201   0.078   1.266   5.086
  547SOL    HW2 2202   0.049   1.405   5.033
  548SOL     OW 2203   0.726   0.632   4.785
  548SOL    HW1 2204   0.798   0.611   4.726
  548SOL    HW2 2205   0.700   0.721   4.760
  549SOL     OW 2206   1.733   0.959   5.574
  549SOL    HW1 2207   1.684   0.904   5.513
  549SOL    HW2 2208   1.674   0.970   5.648
  550SOL     OW 2209   0.317   0.076   4.355
  550SOL    HW1 2210   0.300   0.164   4.389
  550SOL    HW2 2211   0.305   0.018   4.431
  551SOL     OW 2212   1.609   0.374   4.091
  551SOL    HW1 2213   1.642   0.312   4.156
  551SOL    HW2 2214   1.588   0.453   4.141
  552SOL     OW 2215   1.027   0.761   4.686
  552SOL    HW1 2216   1.027   0.777   4.781
  552SOL    HW2 2217   0.999   0.670   4.678
  553SOL     OW 2218   0.984   1.567   5.438
  553SOL    HW1 2219   0.967   1.611   5.354
  553SOL    HW2 2220   1.024   1.484   5.414
  554SOL     OW 2221   1.852   1.514   5.328
  554SOL    HW1 2222   1.881   1.544   5.241
  554SOL    HW2 2223   1.928   1.529   5.384
  555SOL     OW 2224   0.348   0.930   5.542
  555SOL    HW1 2225   0.422   0.958   5.595
  555SOL    HW2 2226   0.384   0.864   5.483
  556SOL     OW 2227   1.533   0.268   3.852
  556SOL    HW1 2228   1.461   0.211   3.879
  556SOL    HW2 2229   1.560   0.312   3.932
  557SOL     OW 2230   1.295   0.827   3.757
  557SOL    HW1 2231   1.336   0.741   3.759
  557SOL    HW2 2232   1.325   0.866   3.675
  558SOL     OW 2233   1.065   1.334   4.577
  558SOL    HW1 2234   1.068   1.261   4.515
  558SOL    HW2 2235   1.127   1.398   4.542
  559SOL     OW 2236   0.317   0.813   4.674
  559SOL    HW1 2237   0.411   0.831   4.669
  559SOL    HW2 2238   0.311   0.723   4.705
  560SOL     OW 2239   0.338   0.526   4.719
  560SOL    HW1 2240   0.292   0.444   4.699
  560SOL    HW2 2241   0.414   0.526   4.661
  561SOL     OW 2242   1.135   0.375   5.416
  561SOL    HW1 2243   1.088   0.440   5.469
  561SOL    HW2 2244   1.222   0.414   5.403
  562SOL     OW 2245   1.160   0.211   5.198
  562SOL    HW1 2246   1.152   0.275   5.268
  562SOL    HW2 2247   1.195   0.261   5.124
  563SOL     OW 2248   4.492   1.323   3.924
  563SOL    HW1 2249   4.399   1.338   3.907
  563SOL    HW2 2250   4.498   1.231   3.949
  564SOL     OW 2251   0.095   1.782   4.663
  564SOL    HW1 2252   0.057   1.721   4.601
  564SOL    HW2 2253   0.182   1.801   4.629
  565SOL     OW 2254   0.499   1.573   4.630
  565SOL    HW1 2255   0.567   1.636   4.654
  565SOL    HW2 2256   0.544   1.508   4.576
  566SOL     OW 2257   0.989   0.795   4.953
  566SOL    HW1 2258   1.041   0.769   5.029
  566SOL    HW2 2259   0.902   0.758   4.969
  567SOL     OW 2260   0.040   0.565   4.834
  567SOL    HW1 2261   0.115   0.521   4.795
  567SOL    HW2 2262   0.026   0.520   4.917
  568SOL     OW 2263   0.180   0.517   5.434
  568SOL    HW1 2264   0.265   0.501   5.394
  568SOL    HW2 2265   0.150   0.599   5.394
  569SOL     OW 2266   1.376   0.941   5.383
  569SOL    HW1 2267   1.396   1.035   5.384
  569SOL    HW2 2268   1.374   0.918   5.291
  570SOL     OW 2269   0.812   0.572   4.076
  570SOL    HW1 2270   0.814   0.500   4.013
  570SOL    HW2 2271   0.738   0.626   4.048
  571SOL     OW 2272   1.642   0.601   4.914
  571SOL    HW1 2273   1.631   0.541   4.987
  571SOL    HW2 2274   1.729   0.580   4.879
  572SOL     OW 2275   0.271   1.562   5.466
  572SOL    HW1 2276   0.217   1.614   5.525
  572SOL    HW2 2277   0.250   1.471   5.488
  573SOL     OW 2278   0.682   0.464   4.992
  573SOL    HW1 2279   0.646   0.383   4.955
  573SOL    HW2 2280   0.691   0.522   4.917
  574SOL     OW 2281   0.934   1.679   5.189
  574SOL    HW1 2282   0.904   1.648   5.103
  574SOL    HW2 2283   0.930   1.774   5.183
  575SOL     OW 2284   0.473   0.491   3.910
  575SOL    HW1 2285   0.532   0.564   3.931
  575SOL    HW2 2286   0.388   0.532   3.897
  576SOL     OW 2287   0.162   1.141   5.188
  576SOL    HW1 2288   0.148   1.092   5.269
  576SOL    HW2 2289   0.170   1.073   5.121
  577SOL     OW 2290   1.328   1.049   4.950
  577SOL    HW1 2291   1.354   0.987   4.882
  577SOL    HW2 2292   1.256   1.098   4.911
  578SOL     OW 2293   1.309   0.855   4.031
  578SOL    HW1 2294   1.232   0.827   4.080
  578SOL    HW2 2295   1.285   0.843   3.939
  579SOL     OW 2296   1.241   1.730   4.847
  579SOL    HW1 2297   1.319   1.753   4.796
  579SOL    HW2 2298   1.246   1.635   4.855
  580SOL     OW 2299   0.069   1.189   4.771
  580SOL    HW1 2300   0.074   1.224   4.861
  580SOL    HW2 2301   0.010   1.249   4.726
  581SOL     OW 2302   0.679   1.664   5.448
  581SOL    HW1 2303   0.626   1.743   5.447
  581SOL    HW2 2304   0.739   1.674   5.375
  582SOL     OW 2305   1.718   0.130   4.222
  582SOL    HW1 2306   1.792   0.135   4.162
  582SOL    HW2 2307   1.737   0.055   4.278
  583SOL     OW 2308   1.386   1.568   4.204
  583SOL    HW1 2309   1.449   1.599   4.139
  583SOL    HW2 2310   1.341   1.647   4.233
  584SOL     OW 2311   0.121   1.808   5.572
  584SOL    HW1 2312   0.082   1.734   5.618
  584SOL    HW2 2313   0.184   1.844   5.633
  585SOL     OW 2314   1.278   0.925   4.396
  585SOL    HW1 2315   1.351   0.863   4.399
  585SOL    HW2 2316   1.311   0.998   4.344
  586SOL     OW 2317   0.819   1.272   5.155
  586SOL    HW1 2318   0.792   1.310   5.239
  586SOL    HW2 2319   0.747   1.294   5.096
  587SOL     OW 2320   0.673   1.616   3.879
  587SOL    HW1 2321   0.681   1.627   3.784
  587SOL    HW2 2322   0.620   1.537   3.890
  588SOL     OW 2323   1.839   0.156   4.691
  588SOL    HW1 2324   1.868   0.080   4.640
  588SOL    HW2 2325   1.752   0.176   4.656
  589SOL     OW 2326   0.267   0.326   4.449
  589SOL    HW1 2327   0.185   0.361   4.414
  589SOL    HW2 2328   0.251   0.317   4.543
  590SOL     OW 2329   1.205   1.608   3.755
  590SOL    HW1 2330   1.198   1.517   3.783
  590SOL    HW2 2331   1.141   1.618   3.685
  591SOL     OW 2332   0.825   1.006   5.096
  591SOL    HW1 2333   0.867   1.003   5.010
  591SOL    HW2 2334   0.826   1.099   5.120
  592SOL     OW 2335   0.915   0.910   4.013
  592SOL    HW1 2336   0.977   0.942   3.948
  592SOL    HW2 2337   0.961   0.839   4.058
  593SOL     OW 2338   1.495   1.624   3.766
  593SOL    HW1 2339   1.400   1.621   3.755
  593SOL    HW2 2340   1.530   1.630   3.677
  594SOL     OW 2341   0.373   1.304   5.215
  594SOL    HW1 2342   0.356   1.383   5.164
  594SOL    HW2 2343   0.297   1.249   5.199
  595SOL     OW 2344   1.605   1.273   5.019
  595SOL    HW1 2345   1.673   1.271   5.086
  595SOL    HW2 2346   1.550   1.348   5.043
  596SOL     OW 2347   1.048   1.105   4.429
  596SOL    HW1 2348   0.978   1.054   4.469
  596SOL    HW2 2349   1.109   1.040   4.394
  597SOL     OW 2350   1.007   0.241   4.720
  597SOL    HW1 2351   1.015   0.212   4.629
  597SOL    HW2 2352   1.001   0.160   4.771
  598SOL     OW 2353   0.602   1.489   4.207
  598SOL    HW1 2354   0.641   1.439   4.136
  598SOL    HW2 2355   0.533   1.540   4.166
  599SOL     OW 2356   1.719   0.392   5.102
  599SOL    HW1 2357   1.791   0.456   5.101
  599SOL    HW2 2358   1.749   0.321   5.046
  600SOL     OW 2359   0.252   1.345   4.002
  600SOL    HW1 2360   0.157   1.347   3.987
  600SOL    HW2 2361   0.263   1.378   4.091
  601SOL     OW 2362   0.117   1.007   5.421
  601SOL    HW1 2363   0.052   1.045   5.479
  601SOL    HW2 2364   0.195   0.996   5.476
  602SOL     OW 2365   0.659   0.207   5.219
  602SOL    HW1 2366   0.739   0.181   5.174
  602SOL    HW2 2367   0.687   0.222   5.310
  603SOL     OW 2368   0.070   0.321   3.750
  603SOL    HW1 2369   4.475   0.330   3.759
  603SOL    HW2 2370   0.100   0.407   3.719
  604SOL     OW 2371   1.432   0.858   5.126
  604SOL    HW1 2372   1.383   0.917   5.068
  604SOL    HW2 2373   1.522   0.862   5.092
  605SOL     OW 2374   0.083   0.188   4.027
  605SOL    HW1 2375   0.080   0.260   3.964
  605SOL    HW2 2376   0.161   0.138   4.003
  606SOL     OW 2377   1.180   1.342   3.841
  606SOL    HW1 2378   1.089   1.312   3.844
  606SOL    HW2 2379   1.209   1.341   3.932
  607SOL     OW 2380   0.620   0.831   5.152
  607SOL    HW1 2381   0.674   0.909   5.140
  607SOL    HW2 2382   0.683   0.759   5.162
  608SOL     OW 2383   1.481   1.767   4.696
  608SOL    HW1 2384   1.500   1.824   4.621
  608SOL    HW2 2385   1.565   1.754   4.739
  609SOL     OW 2386   0.715   0.561   5.429
  609SOL    HW1 2387   0.746   0.629   5.490
  609SOL    HW2 2388   0.756   0.481   5.461
  610SOL     OW 2389   1.467   1.204   5.358
  610SOL    HW1 2390   1.456   1.216   5.452
  610SOL    HW2 2391   1.561   1.213   5.343
  611SOL     OW 2392   0.383   1.742   5.287
  611SOL    HW1 2393   0.297   1.782   5.272
  611SOL    HW2 2394   0.364   1.661   5.333
  612SOL     OW 2395   1.672   0.882   4.980
  612SOL    HW1 2396   1.662   0.797   4.936
  612SOL    HW2 2397   1.663   0.946   4.909
  613SOL     OW 2398   1.218   0.327   4.172
  613SOL    HW1 2399   1.283   0.257   4.163
  613SOL    HW2 2400   1.245   0.374   4.251
  614SOL     OW 2401   0.589   0.740   4.392
  614SOL    HW1 2402   0.630   0.825   4.375
  614SOL    HW2 2403   0.519   0.734   4.327
  615SOL     OW 2404   1.766   0.360   5.367
  615SOL    HW1 2405   1.750   0.374   5.274
  615SOL    HW2 2406   1.687   0.317   5.399
  616SOL     OW 2407   1.744   0.933   5.236
  616SOL    HW1 2408   1.744   1.028   5.249
  616SOL    HW2 2409   1.729   0.922   5.143
  617SOL     OW 2410   0.863   1.369   3.754
  617SOL    HW1 2411   0.823   1.394   3.837
  617SOL    HW2 2412   0.882   1.451   3.710
  618SOL     OW 2413   0.659   1.794   4.673
  618SOL    HW1 2414   0.637   1.884   4.647
  618SOL    HW2 2415   0.754   1.790   4.664
  619SOL     OW 2416   0.866   0.965   4.580
  619SOL    HW1 2417   0.916   0.894   4.620
  619SOL    HW2 2418   0.833   1.016   4.654
  620SOL     OW 2419   1.080   0.988   3.813
  620SOL    HW1 2420   1.058   1.038   3.734
  620SOL    HW2 2421   1.156   0.935   3.787
  621SOL     OW 2422   0.228   1.307   5.580
  621SOL    HW1 2423   0.159   1.246   5.555
  621SOL    HW2 2424   0.218   1.317   5.675
  622SOL     OW 2425   0.101   1.240   4.390
  622SOL    HW1 2426   0.104   1.188   4.470
  622SOL    HW2 2427   0.162   1.196   4.331
  623SOL     OW 2428   0.680   1.400   5.350
  623SOL    HW1 2429   0.600   1.356   5.378
  623SOL    HW2 2430   0.674   1.488   5.387
  624SOL     OW 2431   1.811   0.184   4.963
  624SOL    HW1 2432   1.810   0.091   4.984
  624SOL    HW2 2433   1.826   0.187   4.868
  625SOL     OW 2434   0.438   0.431   4.253
  625SOL    HW1 2435   0.458   0.360   4.192
  625SOL    HW2 2436   0.381   0.391   4.318
  626SOL     OW 2437   1.702   1.419   4.808
  626SOL    HW1 2438   1.613   1.429   4.774
  626SOL    HW2 2439   1.691   1.376   4.893
  627SOL     OW 2440   0.313   0.504   4.982
  627SOL    HW1 2441   0.385   0.457   5.024
  627SOL    HW2 2442   0.340   0.512   4.890
  628SOL     OW 2443   0.825   1.578   4.404
  628SOL    HW1 2444   0.819   1.622   4.319
  628SOL    HW2 2445   0.746   1.524   4.408
  629SOL     OW 2446   1.432   0.215   4.842
  629SOL    HW1 2447   1.469   0.146   4.896
  629SOL    HW2 2448   1.381   0.268   4.903
  630SOL     OW 2449   0.997   0.013   4.872
  630SOL    HW1 2450   0.951   4.430   4.861
  630SOL    HW2 2451   1.089   4.488   4.885
  631SOL     OW 2452   0.771   1.332   4.034
  631SOL    HW1 2453   0.738   1.243   4.041
  631SOL    HW2 2454   0.854   1.330   4.082
  632SOL     OW 2455   0.621   1.559   5.008
  632SOL    HW1 2456   0.623   1.640   5.059
  632SOL    HW2 2457   0.708   1.552   4.969
  633SOL     OW 2458   1.343   0.054   3.876
  633SOL    HW1 2459   1.383   4.480   3.830
  633SOL    HW2 2460   1.267   0.016   3.922
  634SOL     OW 2461   1.314   0.462   4.405
  634SOL    HW1 2462   1.252   0.535   4.406
  634SOL    HW2 2463   1.302   0.419   4.490
  635SOL     OW 2464   1.586   0.203   4.592
  635SOL    HW1 2465   1.524   0.217   4.664
  635SOL    HW2 2466   1.589   0.287   4.546
  636SOL     OW 2467   0.041   1.054   4.010
  636SOL    HW1 2468   0.136   1.043   4.004
  636SOL    HW2 2469   0.018   1.013   4.094
  637SOL     OW 2470   0.881   1.649   4.069
  637SOL    HW1 2471   0.810   1.631   4.007
  637SOL    HW2 2472   0.851   1.725   4.118
  638SOL     OW 2473   0.247   0.625   5.705
  638SOL    HW1 2474   0.171   0.612   5.761
  638SOL    HW2 2475   0.215   0.609   5.616
  639SOL     OW 2476   0.197   0.292   6.575
  639SOL    HW1 2477   0.234   0.269   6.661
  639SOL    HW2 2478   0.132   0.224   6.558
  640SOL     OW 2479   0.007   0.377   6.229
  640SOL    HW1 2480   4.427   0.414   6.267
  640SOL    HW2 2481   4.475   0.306   6.173
  641SOL     OW 2482   0.567   1.282   6.758
  641SOL    HW1 2483   0.479   1.286   6.720
  641SOL    HW2 2484   0.582   1.369   6.793
  642SOL     OW 2485   1.550   1.507   6.289
  642SOL    HW1 2486   1.510   1.491   6.374
  642SOL    HW2 2487   1.476   1.514   6.229
  643SOL     OW 2488   1.131   0.700   6.288
  643SOL    HW1 2489   1.180   0.781   6.276
  643SOL    HW2 2490   1.082   0.713   6.369
  644SOL     OW 2491   1.764   0.609   5.816
  644SOL    HW1 2492   1.745   0.597   5.722
  644SOL    HW2 2493   1.732   0.528   5.856
  645SOL     OW 2494   0.759   1.144   6.623
  645SOL    HW1 2495   0.689   1.178   6.679
  645SOL    HW2 2496   0.793   1.222   6.578
  646SOL     OW 2497   0.862   0.780   7.407
  646SOL    HW1 2498   0.849   0.851   7.469
  646SOL    HW2 2499   0.885   0.824   7.325
  647SOL     OW 2500   0.686   1.008   6.235
  647SOL    HW1 2501   0.750   0.992   6.305
  647SOL    HW2 2502   0.616   1.057   6.278
  648SOL     OW 2503   0.708   1.151   7.395
  648SOL    HW1 2504   0.755   1.231   7.419
  648SOL    HW2 2505   0.624   1.183   7.361
  649SOL     OW 2506   0.337   1.424   6.656
  649SOL    HW1 2507   0.256   1.404   6.609
  649SOL    HW2 2508   0.387   1.479   6.595
  650SOL     OW 2509   1.461   1.497   6.936
  650SOL    HW1 2510   1.504   1.582   6.947
  650SOL    HW2 2511   1.407   1.488   7.015
  651SOL     OW 2512   0.436   0.396   7.080
  651SOL    HW1 2513   0.524   0.359   7.082
  651SOL    HW2 2514   0.378   0.322   7.094
  652SOL     OW 2515   1.613   0.448   6.323
  652SOL    HW1 2516   1.532   0.473   6.278
  652SOL    HW2 2517   1.635   0.525   6.376
  653SOL     OW 2518   0.245   1.692   6.066
  653SOL    HW1 2519   0.233   1.777   6.109
  653SOL    HW2 2520   0.306   1.710   5.994
  654SOL     OW 2521   1.136   1.341   7.277
  654SOL    HW1 2522   1.175   1.338   7.364
  654SOL    HW2 2523   1.083   1.261   7.272
  655SOL     OW 2524   0.243   1.428   6.114
  655SOL    HW1 2525   0.236   1.523   6.119
  655SOL    HW2 2526   0.179   1.395   6.177
  656SOL     OW 2527   0.244   1.081   6.468
  656SOL    HW1 2528   0.263   0.994   6.503
  656SOL    HW2 2529   0.188   1.122   6.534
  657SOL     OW 2530   0.617   1.790   7.019
  657SOL    HW1 2531   0.533   1.773   7.061
  657SOL    HW2 2532   0.637   1.881   7.042
  658SOL     OW 2533   0.585   0.983   5.721
  658SOL    HW1 2534   0.629   1.031   5.651
  658SOL    HW2 2535   0.630   1.009   5.800
  659SOL     OW 2536   1.586   0.114   7.060
  659SOL    HW1 2537   1.596   0.183   6.994
  659SOL    HW2 2538   1.575   0.162   7.143
  660SOL     OW 2539   0.136   0.642   6.161
  660SOL    HW1 2540   0.082   0.564   6.174
  660SOL    HW2 2541   0.107   0.703   6.229
  661SOL     OW 2542   0.033   1.600   5.721
  661SOL    HW1 2543   0.021   1.506   5.723
  661SOL    HW2 2544   0.009   1.630   5.809
  662SOL     OW 2545   1.690   0.919   6.222
  662SOL    HW1 2546   1.776   0.881   6.205
  662SOL    HW2 2547   1.669   0.970   6.144
  663SOL     OW 2548   1.645   1.109   6.016
  663SOL    HW1 2549   1.730   1.117   5.973
  663SOL    HW2 2550   1.650   1.169   6.091
  664SOL     OW 2551   0.107   0.760   7.175
  664SOL    HW1 2552   0.201   0.759   7.160
  664SOL    HW2 2553   0.084   0.853   7.179
  665SOL     OW 2554   0.612   1.381   6.321
  665SOL    HW1 2555   0.566   1.298   6.330
  665SOL    HW2 2556   0.596   1.409   6.231
  666SOL     OW 2557   1.290   1.239   7.010
  666SOL    HW1 2558   1.323   1.171   6.951
  666SOL    HW2 2559   1.346   1.231   7.088
  667SOL     OW 2560   0.817   0.011   6.131
  667SOL    HW1 2561   0.850   0.097   6.108
  667SOL    HW2 2562   0.722   0.018   6.122
  668SOL     OW 2563   0.183   0.944   6.865
  668SOL    HW1 2564   0.275   0.927   6.842
  668SOL    HW2 2565   0.133   0.920   6.788
  669SOL     OW 2566   1.532   0.991   5.782
  669SOL    HW1 2567   1.462   0.933   5.812
  669SOL    HW2 2568   1.571   1.025   5.863
  670SOL     OW 2569   1.185   1.803   7.206
  670SOL    HW1 2570   1.200   1.861   7.131
  670SOL    HW2 2571   1.200   1.715   7.172
  671SOL     OW 2572   0.318   0.260   7.359
  671SOL    HW1 2573   0.386   0.313   7.400
  671SOL    HW2 2574   0.242   0.269   7.417
  672SOL     OW 2575   1.465   1.420   6.540
  672SOL    HW1 2576   1.397   1.433   6.606
  672SOL    HW2 2577   1.454   1.329   6.512
  673SOL     OW 2578   1.645   1.717   6.143
  673SOL    HW1 2579   1.618   1.679   6.060
  673SOL    HW2 2580   1.632   1.647   6.207
  674SOL     OW 2581   0.596   0.723   5.850
  674SOL    HW1 2582   0.602   0.803   5.798
  674SOL    HW2 2583   0.530   0.743   5.917
  675SOL     OW 2584   1.290   0.358   6.521
  675SOL    HW1 2585   1.201   0.326   6.505
  675SOL    HW2 2586   1.327   0.295   6.583
  676SOL     OW 2587   1.581   1.663   5.885
  676SOL    HW1 2588   1.662   1.713   5.873
  676SOL    HW2 2589   1.551   1.645   5.796
  677SOL     OW 2590   0.797   0.616   7.041
  677SOL    HW1 2591   0.769   0.594   7.129
  677SOL    HW2 2592   0.752   0.554   6.984
  678SOL     OW 2593   1.389   0.477   7.262
  678SOL    HW1 2594   1.391   0.521   7.347
  678SOL    HW2 2595   1.456   0.410   7.269
  679SOL     OW 2596   0.958   0.889   7.167
  679SOL    HW1 2597   1.012   0.817   7.133
  679SOL    HW2 2598   0.911   0.922   7.090
  680SOL     OW 2599   0.996   0.417   6.824
  680SOL    HW1 2600   0.911   0.431   6.867
  680SOL    HW2 2601   0.975   0.365   6.746
  681SOL     OW 2602   1.049   0.698   6.014
  681SOL    HW1 2603   1.064   0.691   6.108
  681SOL    HW2 2604   0.967   0.651   5.999
  682SOL     OW 2605   0.099   0.822   6.369
  682SOL    HW1 2606   0.185   0.803   6.406
  682SOL    HW2 2607   0.054   0.872   6.437
  683SOL     OW 2608   0.125   1.853   7.162
  683SOL    HW1 2609   0.119   1.828   7.254
  683SOL    HW2 2610   0.045   1.818   7.123
  684SOL     OW 2611   0.853   0.367   5.762
  684SOL    HW1 2612   0.929   0.404   5.718
  684SOL    HW2 2613   0.872   0.274   5.770
  685SOL     OW 2614   1.707   0.576   7.414
  685SOL    HW1 2615   1.672   0.653   7.370
  685SOL    HW2 2616   1.739   0.520   7.343
  686SOL     OW 2617   1.374   1.142   6.128
  686SOL    HW1 2618   1.454   1.129   6.076
  686SOL    HW2 2619   1.323   1.205   6.077
  687SOL     OW 2620   0.544   0.201   6.487
  687SOL    HW1 2621   0.562   0.221   6.579
  687SOL    HW2 2622   0.534   0.287   6.446
  688SOL     OW 2623   1.009   1.446   6.060
  688SOL    HW1 2624   0.967   1.517   6.011
  688SOL    HW2 2625   0.994   1.468   6.152
  689SOL     OW 2626   0.354   1.807   6.442
  689SOL    HW1 2627   0.398   1.723   6.452
  689SOL    HW2 2628   0.424   1.872   6.455
  690SOL     OW 2629   1.799   1.058   6.453
  690SOL    HW1 2630   1.741   1.046   6.378
  690SOL    HW2 2631   1.741   1.065   6.528
  691SOL     OW 2632   1.228   1.540   7.098
  691SOL    HW1 2633   1.214   1.467   7.158
  691SOL    HW2 2634   1.167   1.523   7.026
  692SOL     OW 2635   0.318   0.954   5.835
  692SOL    HW1 2636   0.402   0.976   5.795
  692SOL    HW2 2637   0.299   0.865   5.805
  693SOL     OW 2638   1.476   0.739   6.312
  693SOL    HW1 2639   1.463   0.692   6.394
  693SOL    HW2 2640   1.552   0.795   6.328
  694SOL     OW 2641   0.465   1.261   7.321
  694SOL    HW1 2642   0.437   1.267   7.230
  694SOL    HW2 2643   0.384   1.266   7.372
  695SOL     OW 2644   1.114   1.774   5.818
  695SOL    HW1 2645   1.043   1.730   5.865
  695SOL    HW2 2646   1.136   1.714   5.746
  696SOL     OW 2647   0.167   0.262   7.094
  696SOL    HW1 2648   0.135   0.349   7.068
  696SOL    HW2 2649   0.199   0.274   7.184
  697SOL     OW 2650   1.633   1.379   5.669
  697SOL    HW1 2651   1.589   1.464   5.658
  697SOL    HW2 2652   1.565   1.314   5.654
  698SOL     OW 2653   0.469   1.744   5.901
  698SOL    HW1 2654   0.508   1.796   5.971
  698SOL    HW2 2655   0.544   1.713   5.849
  699SOL     OW 2656   1.416   0.131   6.005
  699SOL    HW1 2657   1.398   0.084   5.923
  699SOL    HW2 2658   1.511   0.130   6.013
  700SOL     OW 2659   0.256   1.791   6.822
  700SOL    HW1 2660   0.306   1.719   6.861
  700SOL    HW2 2661   0.229   1.758   6.737
  701SOL     OW 2662   0.938   1.698   6.487
  701SOL    HW1 2663   1.015   1.645   6.507
  701SOL    HW2 2664   0.892   1.649   6.418
  702SOL     OW 2665   0.392   0.695   6.060
  702SOL    HW1 2666   0.418   0.603   6.071
  702SOL    HW2 2667   0.300   0.696   6.087
  703SOL     OW 2668   1.527   0.232   7.308
  703SOL    HW1 2669   1.525   0.256   7.400
  703SOL    HW2 2670   1.452   0.174   7.297
  704SOL     OW 2671   0.621   0.123   5.702
  704SOL    HW1 2672   0.710   0.088   5.715
  704SOL    HW2 2673   0.593   0.087   5.618
  705SOL     OW 2674   0.769   0.269   7.338
  705SOL    HW1 2675   0.835   0.201   7.355
  705SOL    HW2 2676   0.724   0.279   7.422
  706SOL     OW 2677   0.877   1.521   6.779
  706SOL    HW1 2678   0.862   1.485   6.692
  706SOL    HW2 2679   0.946   1.466   6.816
  707SOL     OW 2680   1.342   0.589   7.016
  707SOL    HW1 2681   1.370   0.559   7.102
  707SOL    HW2 2682   1.376   0.678   7.009
  708SOL     OW 2683   0.813   1.398   6.522
  708SOL    HW1 2684   0.897   1.388   6.476
  708SOL    HW2 2685   0.747   1.396   6.452
  709SOL     OW 2686   0.922   0.514   6.488
  709SOL    HW1 2687   0.905   0.513   6.394
  709SOL    HW2 2688   0.964   0.430   6.507
  710SOL     OW 2689   0.558   0.067   6.095
  710SOL    HW1 2690   0.470   0.054   6.131
  710SOL    HW2 2691   0.548   0.140   6.034
  711SOL     OW 2692   1.429   1.198   5.628
  711SOL    HW1 2693   1.460   1.122   5.678
  711SOL    HW2 2694   1.343   1.217   5.664
  712SOL     OW 2695   0.303   0.077   5.770
  712SOL    HW1 2696   0.386   0.123   5.764
  712SOL    HW2 2697   0.321   4.500   5.824
  713SOL     OW 2698   0.949   0.241   6.059
  713SOL    HW1 2699   0.898   0.288   5.994
  713SOL    HW2 2700   1.038   0.275   6.049
  714SOL     OW 2701   1.080   0.679   7.047
  714SOL    HW1 2702   1.008   0.616   7.049
  714SOL    HW2 2703   1.159   0.626   7.035
  715SOL     OW 2704   1.225   1.569   6.379
  715SOL    HW1 2705   1.243   1.638   6.315
  715SOL    HW2 2706   1.292   1.579   6.446
  716SOL     OW 2707   0.465   1.147   6.324
  716SOL    HW1 2708   0.393   1.129   6.384
  716SOL    HW2 2709   0.428   1.131   6.237
  717SOL     OW 2710   1.272   1.796   6.191
  717SOL    HW1 2711   1.314   1.860   6.133
  717SOL    HW2 2712   1.205   1.847   6.238
  718SOL     OW 2713   1.031   0.549   5.600
  718SOL    HW1 2714   0.983   0.631   5.584
  718SOL    HW2 2715   1.089   0.570   5.674
  719SOL     OW 2716   0.090   0.525   6.997
  719SOL    HW1 2717   0.152   0.536   6.925
  719SOL    HW2 2718   0.062   0.614   7.018
  720SOL     OW 2719   0.564   0.242   6.751
  720SOL    HW1 2720   0.594   0.157   6.782
  720SOL    HW2 2721   0.470   0.243   6.771
  721SOL     OW 2722   0.866   0.500   6.212
  721SOL    HW1 2723   0.814   0.542   6.144
  721SOL    HW2 2724   0.852   0.406   6.199
  722SOL     OW 2725   0.971   0.032   6.360
  722SOL    HW1 2726   0.922   0.027   6.278
  722SOL    HW2 2727   0.981   4.441   6.388
  723SOL     OW 2728   1.436   1.164   6.445
  723SOL    HW1 2729   1.368   1.096   6.441
  723SOL    HW2 2730   1.460   1.179   6.353
  724SOL     OW 2731   1.468   0.602   6.566
  724SOL    HW1 2732   1.417   0.521   6.569
  724SOL    HW2 2733   1.527   0.597   6.641
  725SOL     OW 2734   1.848   0.819   5.967
  725SOL    HW1 2735   1.903   0.766   6.025
  725SOL    HW2 2736   1.818   0.757   5.900
  726SOL     OW 2737   0.493   1.413   5.748
  726SOL    HW1 2738   0.416   1.383   5.798
  726SOL    HW2 2739   0.470   1.395   5.657
  727SOL     OW 2740   1.669   1.266   6.235
  727SOL    HW1 2741   1.764   1.273   6.246
  727SOL    HW2 2742   1.636   1.353   6.258
  728SOL     OW 2743   1.394   0.570   5.656
  728SOL    HW1 2744   1.333   0.554   5.728
  728SOL    HW2 2745   1.480   0.548   5.691
  729SOL     OW 2746   0.523   0.264   5.909
  729SOL    HW1 2747   0.568   0.213   5.841
  729SOL    HW2 2748   0.510   0.350   5.869
  730SOL     OW 2749   1.754   1.235   7.163
  730SOL    HW1 2750   1.841   1.197   7.160
  730SOL    HW2 2751   1.768   1.325   7.193
  731SOL     OW 2752   1.061   1.353   6.921
  731SOL    HW1 2753   0.986   1.322   6.972
  731SOL    HW2 2754   1.137   1.312   6.962
  732SOL     OW 2755   1.605   1.625   7.237
  732SOL    HW1 2756   1.603   1.659   7.148
  732SOL    HW2 2757   1.689   1.579   7.243
  733SOL     OW 2758   1.125   1.201   6.693
  733SOL    HW1 2759   1.067   1.240   6.759
  733SOL    HW2 2760   1.090   1.232   6.610
  734SOL     OW 2761   1.631   1.100   6.664
  734SOL    HW1 2762   1.627   1.162   6.737
  734SOL    HW2 2763   1.551   1.115   6.614
  735SOL     OW 2764   0.904   0.130   6.976
  735SOL    HW1 2765   0.927   0.086   6.894
  735SOL    HW2 2766   0.988   0.143   7.021
  736SOL     OW 2767   0.984   1.114   7.308
  736SOL    HW1 2768   0.891   1.129   7.327
  736SOL    HW2 2769   0.984   1.037   7.252
  737SOL     OW 2770   0.708   1.060   5.959
  737SOL    HW1 2771   0.695   1.046   6.053
  737SOL    HW2 2772   0.784   1.006   5.937
  738SOL     OW 2773   0.429   0.822   6.824
  738SOL    HW1 2774   0.497   0.833   6.891
  738SOL    HW2 2775   0.369   0.757   6.862
  739SOL     OW 2776   1.270   0.377   6.857
  739SOL    HW1 2777   1.301   0.455   6.903
  739SOL    HW2 2778   1.181   0.400   6.828
  740SOL     OW 2779   0.061   1.575   6.925
  740SOL    HW1 2780   0.033   1.663   6.899
  740SOL    HW2 2781   0.156   1.582   6.932
  741SOL     OW 2782   0.351   1.106   6.080
  741SOL    HW1 2783   0.359   1.180   6.019
  741SOL    HW2 2784   0.354   1.028   6.024
  742SOL     OW 2785   0.564   0.530   6.442
  742SOL    HW1 2786   0.577   0.590   6.368
  742SOL    HW2 2787   0.622   0.563   6.511
  743SOL     OW 2788   1.247   1.347   5.975
  743SOL    HW1 2789   1.302   1.419   6.006
  743SOL    HW2 2790   1.160   1.367   6.009
  744SOL     OW 2791   1.276   1.455   6.732
  744SOL    HW1 2792   1.331   1.457   6.810
  744SOL    HW2 2793   1.221   1.378   6.744
  745SOL     OW 2794   1.583   0.625   6.061
  745SOL    HW1 2795   1.539   0.679   6.127
  745SOL    HW2 2796   1.628   0.689   6.005
  746SOL     OW 2797   0.348   1.528   6.904
  746SOL    HW1 2798   0.333   1.481   6.822
  746SOL    HW2 2799   0.443   1.539   6.909
  747SOL     OW 2800   0.476   0.760   7.249
  747SOL    HW1 2801   0.502   0.800   7.165
  747SOL    HW2 2802   0.507   0.670   7.242
  748SOL     OW 2803   1.597   0.777   7.264
  748SOL    HW1 2804   1.511   0.818   7.257
  748SOL    HW2 2805   1.650   0.819   7.196
  749SOL     OW 2806   1.007   0.087   7.314
  749SOL    HW1 2807   1.029   0.171   7.274
  749SOL    HW2 2808   1.033   0.022   7.248
  750SOL     OW 2809   0.496   0.046   7.335
  750SOL    HW1 2810   0.478   4.497   7.255
  750SOL    HW2 2811   0.429   0.114   7.338
  751SOL     OW 2812   0.587   0.873   6.610
  751SOL    HW1 2813   0.616   0.965   6.612
  751SOL    HW2 2814   0.531   0.865   6.686
  752SOL     OW 2815   1.361   0.859   6.620
  752SOL    HW1 2816   1.280   0.853   6.569
  752SOL    HW2 2817   1.398   0.770   6.616
  753SOL     OW 2818   1.207   0.534   5.853
  753SOL    HW1 2819   1.213   0.454   5.904
  753SOL    HW2 2820   1.165   0.597   5.911
  754SOL     OW 2821   0.285   0.220   6.820
  754SOL    HW1 2822   0.250   0.237   6.908
  754SOL    HW2 2823   0.320   0.131   6.825
  755SOL     OW 2824   0.048   1.313   6.870
  755SOL    HW1 2825   0.078   1.266   6.947
  755SOL    HW2 2826   0.049   1.405   6.895
  756SOL     OW 2827   0.726   0.632   6.647
  756SOL    HW1 2828   0.798   0.611   6.588
  756SOL    HW2 2829   0.700   0.721   6.622
  757SOL     OW 2830   1.733   0.958   7.437
  757SOL    HW1 2831   1.684   0.905   7.374
  757SOL    HW2 2832   1.673   0.970   7.511
  758SOL     OW 2833   0.317   0.076   6.217
  758SOL    HW1 2834   0.300   0.164   6.251
  758SOL    HW2 2835   0.305   0.018   6.293
  759SOL     OW 2836   1.610   0.374   5.953
  759SOL    HW1 2837   1.642   0.312   6.018
  759SOL    HW2 2838   1.588   0.453   6.003
  760SOL     OW 2839   1.027   0.761   6.548
  760SOL    HW1 2840   1.027   0.777   6.643
  760SOL    HW2 2841   0.999   0.670   6.540
  761SOL     OW 2842   0.983   1.566   7.300
  761SOL    HW1 2843   0.967   1.611   7.217
  761SOL    HW2 2844   1.025   1.484   7.276
  762SOL     OW 2845   1.856   1.509   7.193
  762SOL    HW1 2846   1.872   1.534   7.102
  762SOL    HW2 2847   1.937   1.531   7.238
  763SOL     OW 2848   0.347   0.930   7.404
  763SOL    HW1 2849   0.422   0.958   7.457
  763SOL    HW2 2850   0.384   0.864   7.344
  764SOL     OW 2851   1.532   0.268   5.714
  764SOL    HW1 2852   1.460   0.211   5.741
  764SOL    HW2 2853   1.560   0.312   5.794
  765SOL     OW 2854   1.295   0.827   5.619
  765SOL    HW1 2855   1.336   0.741   5.621
  765SOL    HW2 2856   1.325   0.866   5.537
  766SOL     OW 2857   1.065   1.335   6.438
  766SOL    HW1 2858   1.068   1.261   6.376
  766SOL    HW2 2859   1.128   1.398   6.404
  767SOL     OW 2860   0.317   0.813   6.536
  767SOL    HW1 2861   0.411   0.831   6.531
  767SOL    HW2 2862   0.311   0.723   6.567
  768SOL     OW 2863   0.338   0.526   6.581
  768SOL    HW1 2864   0.292   0.444   6.561
  768SOL    HW2 2865   0.414   0.526   6.523
  769SOL     OW 2866   1.135   0.375   7.278
  769SOL    HW1 2867   1.088   0.440   7.331
  769SOL    HW2 2868   1.222   0.414   7.265
  770SOL     OW 2869   1.160   0.211   7.060
  770SOL    HW1 2870   1.152   0.275   7.130
  770SOL    HW2 2871   1.194   0.261   6.986
  771SOL     OW 2872   4.492   1.323   5.786
  771SOL    HW1 2873   4.399   1.338   5.769
  771SOL    HW2 2874   4.498   1.231   5.811
  772SOL     OW 2875   0.094   1.782   6.525
  772SOL    HW1 2876   0.057   1.721   6.462
  772SOL    HW2 2877   0.182   1.801   6.491
  773SOL     OW 2878   0.499   1.573   6.492
  773SOL    HW1 2879   0.567   1.636   6.516
  773SOL    HW2 2880   0.544   1.508   6.438
  774SOL     OW 2881   0.989   0.795   6.815
  774SOL    HW1 2882   1.041   0.769   6.891
  774SOL    HW2 2883   0.902   0.758   6.831
  775SOL     OW 2884   0.040   0.565   6.696
  775SOL    HW1 2885   0.115   0.521   6.657
  775SOL    HW2 2886   0.026   0.520   6.779
  776SOL     OW 2887   0.180   0.517   7.296
  776SOL    HW1 2888   0.265   0.501   7.256
  776SOL    HW2 2889   0.150   0.599   7.256
  777SOL     OW 2890   1.376   0.941   7.246
  777SOL    HW1 2891   1.396   1.035   7.246
  777SOL    HW2 2892   1.374   0.918   7.153
  778SOL     OW 2893   0.812   0.572   5.938
  778SOL    HW1 2894   0.814   0.500   5.875
  778SOL    HW2 2895   0.738   0.626   5.910
  779SOL     OW 2896   1.642   0.601   6.776
  779SOL    HW1 2897   1.631   0.541   6.849
  779SOL    HW2 2898   1.729   0.580   6.741
  780SOL     OW 2899   0.271   1.562   7.328
  780SOL    HW1 2900   0.218   1.614   7.388
  780SOL    HW2 2901   0.250   1.471   7.350
  781SOL     OW 2902   0.682   0.464   6.854
  781SOL    HW1 2903   0.646   0.383   6.817
  781SOL    HW2 2904   0.691   0.522   6.779
  782SOL     OW 2905   0.931   1.679   7.052
  782SOL    HW1 2906   0.904   1.648   6.965
  782SOL    HW2 2907   0.930   1.774   7.045
  783SOL     OW 2908   0.473   0.491   5.772
  783SOL    HW1 2909   0.532   0.564   5.793
  783SOL    HW2 2910   0.388   0.532   5.759
  784SOL     OW 2911   0.161   1.141   7.049
  784SOL    HW1 2912   0.148   1.092   7.131
  784SOL    HW2 2913   0.170   1.073   6.982
  785SOL     OW 2914   1.329   1.049   6.811
  785SOL    HW1 2915   1.354   0.987   6.743
  785SOL    HW2 2916   1.256   1.098   6.774
  786SOL     OW 2917   1.309   0.856   5.893
  786SOL    HW1 2918   1.232   0.827   5.942
  786SOL    HW2 2919   1.285   0.843   5.801
  787SOL     OW 2920   1.760   1.749   6.733
  787SOL    HW1 2921   1.827   1.765   6.667
  787SOL    HW2 2922   1.735   1.658   6.721
  788SOL     OW 2923   1.241   1.732   6.704
  788SOL    HW1 2924   1.322   1.751   6.657
  788SOL    HW2 2925   1.244   1.638   6.721
  789SOL     OW 2926   0.069   1.189   6.634
  789SOL    HW1 2927   0.074   1.224   6.723
  789SOL    HW2 2928   0.011   1.250   6.587
  790SOL     OW 2929   0.679   1.663   7.310
  790SOL    HW1 2930   0.626   1.743   7.308
  790SOL    HW2 2931   0.740   1.673   7.238
  791SOL     OW 2932   1.718   0.130   6.084
  791SOL    HW1 2933   1.792   0.134   6.024
  791SOL    HW2 2934   1.737   0.055   6.141
  792SOL     OW 2935   1.385   1.568   6.064
  792SOL    HW1 2936   1.445   1.598   5.996
  792SOL    HW2 2937   1.342   1.647   6.095
  793SOL     OW 2938   0.120   1.808   7.434
  793SOL    HW1 2939   0.082   1.734   7.480
  793SOL    HW2 2940   0.184   1.844   7.495
  794SOL     OW 2941   1.278   0.925   6.258
  794SOL    HW1 2942   1.351   0.863   6.261
  794SOL    HW2 2943   1.311   0.998   6.206
  795SOL     OW 2944   0.819   1.272   7.017
  795SOL    HW1 2945   0.793   1.311   7.101
  795SOL    HW2 2946   0.747   1.294   6.958
  796SOL     OW 2947   0.673   1.616   5.741
  796SOL    HW1 2948   0.681   1.627   5.646
  796SOL    HW2 2949   0.620   1.537   5.752
  797SOL     OW 2950   1.633   1.727   6.980
  797SOL    HW1 2951   1.678   1.735   6.896
  797SOL    HW2 2952   1.619   1.817   7.008
  798SOL     OW 2953   1.839   0.156   6.553
  798SOL    HW1 2954   1.868   0.079   6.503
  798SOL    HW2 2955   1.752   0.176   6.518
  799SOL     OW 2956   0.267   0.326   6.311
  799SOL    HW1 2957   0.185   0.361   6.276
  799SOL    HW2 2958   0.251   0.317   6.405
  800SOL     OW 2959   1.206   1.608   5.617
  800SOL    HW1 2960   1.197   1.517   5.645
  800SOL    HW2 2961   1.140   1.617   5.548
  801SOL     OW 2962   0.825   1.006   6.957
  801SOL    HW1 2963   0.867   1.004   6.872
  801SOL    HW2 2964   0.826   1.099   6.982
  802SOL     OW 2965   0.915   0.910   5.875
  802SOL    HW1 2966   0.977   0.942   5.810
  802SOL    HW2 2967   0.961   0.839   5.920
  803SOL     OW 2968   1.495   1.622   5.625
  803SOL    HW1 2969   1.400   1.621   5.618
  803SOL    HW2 2970   1.526   1.631   5.535
  804SOL     OW 2971   0.373   1.304   7.077
  804SOL    HW1 2972   0.356   1.383   7.026
  804SOL    HW2 2973   0.296   1.249   7.061
  805SOL     OW 2974   1.612   1.282   6.868
  805SOL    HW1 2975   1.671   1.276   6.943
  805SOL    HW2 2976   1.551   1.353   6.890
  806SOL     OW 2977   1.048   1.105   6.290
  806SOL    HW1 2978   0.978   1.054   6.331
  806SOL    HW2 2979   1.109   1.039   6.257
  807SOL     OW 2980   1.007   0.241   6.582
  807SOL    HW1 2981   1.015   0.211   6.491
  807SOL    HW2 2982   1.001   0.160   6.633
  808SOL     OW 2983   0.602   1.489   6.069
  808SOL    HW1 2984   0.640   1.439   5.997
  808SOL    HW2 2985   0.533   1.541   6.028
  809SOL     OW 2986   1.719   0.393   6.964
  809SOL    HW1 2987   1.791   0.456   6.963
  809SOL    HW2 2988   1.749   0.321   6.908
  810SOL     OW 2989   0.252   1.345   5.864
  810SOL    HW1 2990   0.158   1.347   5.849
  810SOL    HW2 2991   0.263   1.378   5.953
  811SOL     OW 2992   0.117   1.008   7.283
  811SOL    HW1 2993   0.052   1.045   7.342
  811SOL    HW2 2994   0.195   0.996   7.337
  812SOL     OW 2995   0.659   0.207   7.081
  812SOL    HW1 2996   0.739   0.181   7.036
  812SOL    HW2 2997   0.687   0.222   7.172
  813SOL     OW 2998   0.070   0.321   5.612
  813SOL    HW1 2999   4.475   0.330   5.621
  813SOL    HW2 3000   0.100   0.407   5.581
  814SOL     OW 3001   1.432   0.858   6.987
  814SOL    HW1 3002   1.383   0.917   6.930
  814SOL    HW2 3003   1.522   0.862   6.954
  815SOL     OW 3004   0.083   0.188   5.889
  815SOL    HW1 3005   0.080   0.260   5.826
  815SOL    HW2 3006   0.161   0.138   5.865
  816SOL     OW 3007   1.180   1.342   5.703
  816SOL    HW1 3008   1.089   1.312   5.706
  816SOL    HW2 3009   1.209   1.341   5.794
  817SOL     OW 3010   0.620   0.831   7.014
  817SOL    HW1 3011   0.674   0.909   7.002
  817SOL    HW2 3012   0.683   0.760   7.024
  818SOL     OW 3013   1.482   1.772   6.562
  818SOL    HW1 3014   1.511   1.817   6.483
  818SOL    HW2 3015   1.563   1.756   6.611
  819SOL     OW 3016   0.715   0.561   7.291
  819SOL    HW1 3017   0.746   0.629   7.352
  819SOL    HW2 3018   0.756   0.481   7.323
  820SOL     OW 3019   1.468   1.203   7.219
  820SOL    HW1 3020   1.456   1.216   7.313
  820SOL    HW2 3021   1.562   1.215   7.205
  821SOL     OW 3022   0.383   1.743   7.149
  821SOL    HW1 3023   0.297   1.782   7.134
  821SOL    HW2 3024   0.364   1.661   7.195
  822SOL     OW 3025   1.672   0.882   6.841
  822SOL    HW1 3026   1.662   0.797   6.798
  822SOL    HW2 3027   1.663   0.946   6.771
  823SOL     OW 3028   1.218   0.327   6.034
  823SOL    HW1 3029   1.283   0.257   6.025
  823SOL    HW2 3030   1.244   0.374   6.113
  824SOL     OW 3031   0.589   0.740   6.254
  824SOL    HW1 3032   0.630   0.825   6.237
  824SOL    HW2 3033   0.519   0.734   6.188
  825SOL     OW 3034   1.766   0.360   7.229
  825SOL    HW1 3035   1.750   0.374   7.136
  825SOL    HW2 3036   1.687   0.317   7.261
  826SOL     OW 3037   1.744   0.933   7.099
  826SOL    HW1 3038   1.746   1.028   7.112
  826SOL    HW2 3039   1.728   0.923   7.005
  827SOL     OW 3040   0.864   1.369   5.616
  827SOL    HW1 3041   0.823   1.393   5.699
  827SOL    HW2 3042   0.881   1.452   5.573
  828SOL     OW 3043   0.659   1.794   6.535
  828SOL    HW1 3044   0.637   1.884   6.509
  828SOL    HW2 3045   0.754   1.790   6.526
  829SOL     OW 3046   0.866   0.965   6.442
  829SOL    HW1 3047   0.916   0.894   6.482
  829SOL    HW2 3048   0.833   1.016   6.516
  830SOL     OW 3049   1.080   0.988   5.675
  830SOL    HW1 3050   1.058   1.038   5.596
  830SOL    HW2 3051   1.156   0.935   5.649
  831SOL     OW 3052   0.228   1.307   7.442
  831SOL    HW1 3053   0.159   1.245   7.417
  831SOL    HW2 3054   0.218   1.317   7.537
  832SOL     OW 3055   0.101   1.240   6.252
  832SOL    HW1 3056   0.105   1.188   6.333
  832SOL    HW2 3057   0.162   1.196   6.193
  833SOL     OW 3058   0.680   1.400   7.212
  833SOL    HW1 3059   0.600   1.356   7.241
  833SOL    HW2 3060   0.674   1.488   7.249
  834SOL     OW 3061   1.812   0.184   6.825
  834SOL    HW1 3062   1.810   0.091   6.846
  834SOL    HW2 3063   1.826   0.187   6.730
  835SOL     OW 3064   0.438   0.431   6.115
  835SOL    HW1 3065   0.458   0.360   6.054
  835SOL    HW2 3066   0.381   0.391   6.180
  836SOL     OW 3067   1.697   1.497   6.693
  836SOL    HW1 3068   1.622   1.467   6.641
  836SOL    HW2 3069   1.715   1.424   6.752
  837SOL     OW 3070   0.313   0.504   6.844
  837SOL    HW1 3071   0.385   0.457   6.886
  837SOL    HW2 3072   0.340   0.512   6.752
  838SOL     OW 3073   0.825   1.578   6.266
  838SOL    HW1 3074   0.819   1.623   6.182
  838SOL    HW2 3075   0.746   1.524   6.270
  839SOL     OW 3076   1.432   0.215   6.704
  839SOL    HW1 3077   1.469   0.145   6.758
  839SOL    HW2 3078   1.381   0.268   6.765
  840SOL     OW 3079   0.997   0.013   6.734
  840SOL    HW1 3080   0.951   4.430   6.723
  840SOL    HW2 3081   1.089   4.488   6.747
  841SOL     OW 3082   0.772   1.332   5.895
  841SOL    HW1 3083   0.738   1.243   5.903
  841SOL    HW2 3084   0.854   1.330   5.945
  842SOL     OW 3085   0.621   1.559   6.870
  842SOL    HW1 3086   0.623   1.640   6.921
  842SOL    HW2 3087   0.708   1.552   6.831
  843SOL     OW 3088   1.343   0.054   5.738
  843SOL    HW1 3089   1.382   4.480   5.692
  843SOL    HW2 3090   1.267   0.017   5.784
  844SOL     OW 3091   1.314   0.462   6.267
  844SOL    HW1 3092   1.252   0.535   6.268
  844SOL    HW2 3093   1.302   0.419   6.352
  845SOL     OW 3094   1.586   0.203   6.454
  845SOL    HW1 3095   1.524   0.217   6.526
  845SOL    HW2 3096   1.589   0.287   6.408
  846SOL     OW 3097   0.041   1.054   5.872
  846SOL    HW1 3098   0.136   1.043   5.866
  846SOL    HW2 3099   0.018   1.013   5.956
  847SOL     OW 3100   0.881   1.649   5.930
  847SOL    HW1 3101   0.809   1.631   5.869
  847SOL    HW2 3102   0.851   1.725   5.980
  848SOL     OW 3103   0.247   0.626   7.567
  848SOL    HW1 3104   0.171   0.612   7.623
  848SOL    HW2 3105   0.215   0.609   7.478
  849SOL     OW 3106   0.197   0.292   8.437
  849SOL    HW1 3107   0.234   0.269   8.523
  849SOL    HW2 3108   0.132   0.224   8.420
  850SOL     OW 3109   0.007   0.377   8.091
  850SOL    HW1 3110   4.427   0.414   8.129
  850SOL    HW2 3111   4.475   0.306   8.035
  851SOL     OW 3112   0.567   1.282   8.620
  851SOL    HW1 3113   0.479   1.287   8.582
  851SOL    HW2 3114   0.582   1.369   8.655
  852SOL     OW 3115   1.557   1.511   8.153
  852SOL    HW1 3116   1.513   1.495   8.237
  852SOL    HW2 3117   1.486   1.517   8.089
  853SOL     OW 3118   1.131   0.700   8.150
  853SOL    HW1 3119   1.180   0.781   8.138
  853SOL    HW2 3120   1.082   0.713   8.231
  854SOL     OW 3121   1.764   0.609   7.678
  854SOL    HW1 3122   1.745   0.598   7.585
  854SOL    HW2 3123   1.732   0.528   7.718
  855SOL     OW 3124   0.759   1.144   8.485
  855SOL    HW1 3125   0.689   1.178   8.541
  855SOL    HW2 3126   0.793   1.222   8.440
  856SOL     OW 3127   0.862   0.780   9.269
  856SOL    HW1 3128   0.849   0.851   9.331
  856SOL    HW2 3129   0.885   0.824   9.187
  857SOL     OW 3130   0.686   1.008   8.097
  857SOL    HW1 3131   0.750   0.992   8.167
  857SOL    HW2 3132   0.616   1.057   8.140
  858SOL     OW 3133   0.707   1.151   9.257
  858SOL    HW1 3134   0.755   1.231   9.281
  858SOL    HW2 3135   0.624   1.183   9.223
  859SOL     OW 3136   0.337   1.424   8.518
  859SOL    HW1 3137   0.256   1.404   8.470
  859SOL    HW2 3138   0.387   1.479   8.457
  860SOL     OW 3139   1.462   1.498   8.798
  860SOL    HW1 3140   1.506   1.583   8.807
  860SOL    HW2 3141   1.409   1.490   8.877
  861SOL     OW 3142   0.436   0.396   8.942
  861SOL    HW1 3143   0.524   0.359   8.944
  861SOL    HW2 3144   0.378   0.321   8.956
  862SOL     OW 3145   1.613   0.448   8.186
  862SOL    HW1 3146   1.533   0.473   8.139
  862SOL    HW2 3147   1.635   0.525   8.238
  863SOL     OW 3148   0.245   1.692   7.927
  863SOL    HW1 3149   0.233   1.777   7.971
  863SOL    HW2 3150   0.307   1.710   7.857
  864SOL     OW 3151   1.136   1.341   9.139
  864SOL    HW1 3152   1.175   1.337   9.226
  864SOL    HW2 3153   1.083   1.261   9.134
  865SOL     OW 3154   0.243   1.428   7.976
  865SOL    HW1 3155   0.236   1.523   7.981
  865SOL    HW2 3156   0.178   1.395   8.039
  866SOL     OW 3157   0.244   1.081   8.330
  866SOL    HW1 3158   0.263   0.994   8.365
  866SOL    HW2 3159   0.188   1.122   8.396
  867SOL     OW 3160   0.616   1.790   8.881
  867SOL    HW1 3161   0.533   1.773   8.923
  867SOL    HW2 3162   0.637   1.881   8.904
  868SOL     OW 3163   0.584   0.983   7.583
  868SOL    HW1 3164   0.629   1.031   7.512
  868SOL    HW2 3165   0.630   1.010   7.662
  869SOL     OW 3166   1.586   0.114   8.922
  869SOL    HW1 3167   1.596   0.183   8.856
  869SOL    HW2 3168   1.575   0.162   9.005
  870SOL     OW 3169   0.136   0.642   8.023
  870SOL    HW1 3170   0.083   0.564   8.036
  870SOL    HW2 3171   0.107   0.703   8.091
  871SOL     OW 3172   1.841   1.761   7.784
  871SOL    HW1 3173   1.897   1.732   7.856
  871SOL    HW2 3174   1.869   1.852   7.768
  872SOL     OW 3175   0.033   1.601   7.583
  872SOL    HW1 3176   0.021   1.506   7.585
  872SOL    HW2 3177   0.010   1.630   7.671
  873SOL     OW 3178   1.691   0.920   8.085
  873SOL    HW1 3179   1.776   0.880   8.066
  873SOL    HW2 3180   1.669   0.969   8.006
  874SOL     OW 3181   1.645   1.108   7.878
  874SOL    HW1 3182   1.730   1.117   7.835
  874SOL    HW2 3183   1.649   1.168   7.952
  875SOL     OW 3184   0.107   0.760   9.037
  875SOL    HW1 3185   0.201   0.759   9.022
  875SOL    HW2 3186   0.084   0.853   9.041
  876SOL     OW 3187   0.612   1.381   8.184
  876SOL    HW1 3188   0.566   1.298   8.192
  876SOL    HW2 3189   0.596   1.409   8.093
  877SOL     OW 3190   1.290   1.238   8.873
  877SOL    HW1 3191   1.323   1.171   8.813
  877SOL    HW2 3192   1.346   1.231   8.950
  878SOL     OW 3193   0.817   0.011   7.993
  878SOL    HW1 3194   0.850   0.097   7.970
  878SOL    HW2 3195   0.722   0.018   7.984
  879SOL     OW 3196   0.184   0.945   8.727
  879SOL    HW1 3197   0.275   0.927   8.704
  879SOL    HW2 3198   0.133   0.920   8.650
  880SOL     OW 3199   1.532   0.991   7.644
  880SOL    HW1 3200   1.462   0.933   7.674
  880SOL    HW2 3201   1.571   1.025   7.725
  881SOL     OW 3202   1.184   1.803   9.068
  881SOL    HW1 3203   1.202   1.860   8.993
  881SOL    HW2 3204   1.200   1.715   9.034
  882SOL     OW 3205   0.318   0.260   9.221
  882SOL    HW1 3206   0.386   0.313   9.262
  882SOL    HW2 3207   0.243   0.269   9.279
  883SOL     OW 3208   1.465   1.419   8.401
  883SOL    HW1 3209   1.397   1.434   8.467
  883SOL    HW2 3210   1.454   1.328   8.374
  884SOL     OW 3211   1.664   1.731   8.025
  884SOL    HW1 3212   1.637   1.704   7.937
  884SOL    HW2 3213   1.636   1.659   8.082
  885SOL     OW 3214   0.596   0.723   7.712
  885SOL    HW1 3215   0.602   0.803   7.660
  885SOL    HW2 3216   0.530   0.743   7.779
  886SOL     OW 3217   1.290   0.358   8.383
  886SOL    HW1 3218   1.201   0.326   8.367
  886SOL    HW2 3219   1.327   0.295   8.445
  887SOL     OW 3220   1.581   1.668   7.757
  887SOL    HW1 3221   1.670   1.703   7.751
  887SOL    HW2 3222   1.556   1.651   7.666
  888SOL     OW 3223   0.797   0.616   8.903
  888SOL    HW1 3224   0.769   0.594   8.991
  888SOL    HW2 3225   0.752   0.554   8.846
  889SOL     OW 3226   1.389   0.477   9.124
  889SOL    HW1 3227   1.391   0.521   9.209
  889SOL    HW2 3228   1.456   0.410   9.131
  890SOL     OW 3229   0.958   0.889   9.029
  890SOL    HW1 3230   1.012   0.817   8.995
  890SOL    HW2 3231   0.911   0.922   8.952
  891SOL     OW 3232   0.996   0.417   8.686
  891SOL    HW1 3233   0.911   0.431   8.729
  891SOL    HW2 3234   0.975   0.365   8.608
  892SOL     OW 3235   1.049   0.698   7.876
  892SOL    HW1 3236   1.064   0.691   7.970
  892SOL    HW2 3237   0.967   0.651   7.861
  893SOL     OW 3238   0.099   0.822   8.231
  893SOL    HW1 3239   0.185   0.803   8.267
  893SOL    HW2 3240   0.054   0.872   8.299
  894SOL     OW 3241   0.125   1.853   9.024
  894SOL    HW1 3242   0.119   1.828   9.116
  894SOL    HW2 3243   0.045   1.818   8.985
  895SOL     OW 3244   0.853   0.367   7.624
  895SOL    HW1 3245   0.929   0.404   7.580
  895SOL    HW2 3246   0.872   0.274   7.632
  896SOL     OW 3247   1.707   0.576   9.276
  896SOL    HW1 3248   1.672   0.653   9.232
  896SOL    HW2 3249   1.739   0.520   9.205
  897SOL     OW 3250   1.375   1.143   7.990
  897SOL    HW1 3251   1.453   1.128   7.937
  897SOL    HW2 3252   1.322   1.205   7.939
  898SOL     OW 3253   0.544   0.201   8.349
  898SOL    HW1 3254   0.562   0.221   8.441
  898SOL    HW2 3255   0.534   0.287   8.308
  899SOL     OW 3256   1.009   1.446   7.922
  899SOL    HW1 3257   0.968   1.517   7.873
  899SOL    HW2 3258   0.995   1.469   8.014
  900SOL     OW 3259   0.354   1.807   8.304
  900SOL    HW1 3260   0.398   1.723   8.314
  900SOL    HW2 3261   0.424   1.872   8.317
  901SOL     OW 3262   1.798   1.060   8.315
  901SOL    HW1 3263   1.741   1.044   8.240
  901SOL    HW2 3264   1.739   1.065   8.389
  902SOL     OW 3265   1.228   1.540   8.961
  902SOL    HW1 3266   1.214   1.466   9.020
  902SOL    HW2 3267   1.168   1.523   8.888
  903SOL     OW 3268   0.318   0.954   7.697
  903SOL    HW1 3269   0.402   0.976   7.658
  903SOL    HW2 3270   0.300   0.865   7.666
  904SOL     OW 3271   1.476   0.739   8.174
  904SOL    HW1 3272   1.462   0.692   8.256
  904SOL    HW2 3273   1.552   0.795   8.191
  905SOL     OW 3274   0.465   1.261   9.184
  905SOL    HW1 3275   0.437   1.267   9.092
  905SOL    HW2 3276   0.384   1.266   9.234
  906SOL     OW 3277   1.120   1.777   7.680
  906SOL    HW1 3278   1.049   1.734   7.727
  906SOL    HW2 3279   1.142   1.718   7.608
  907SOL     OW 3280   0.167   0.262   8.956
  907SOL    HW1 3281   0.135   0.349   8.930
  907SOL    HW2 3282   0.199   0.274   9.046
  908SOL     OW 3283   1.629   1.379   7.534
  908SOL    HW1 3284   1.589   1.464   7.520
  908SOL    HW2 3285   1.560   1.315   7.516
  909SOL     OW 3286   0.469   1.744   7.763
  909SOL    HW1 3287   0.508   1.796   7.833
  909SOL    HW2 3288   0.544   1.713   7.711
  910SOL     OW 3289   1.416   0.131   7.867
  910SOL    HW1 3290   1.398   0.084   7.785
  910SOL    HW2 3291   1.511   0.130   7.875
  911SOL     OW 3292   0.256   1.791   8.684
  911SOL    HW1 3293   0.306   1.719   8.723
  911SOL    HW2 3294   0.229   1.758   8.599
  912SOL     OW 3295   0.938   1.698   8.349
  912SOL    HW1 3296   1.015   1.645   8.369
  912SOL    HW2 3297   0.892   1.649   8.280
  913SOL     OW 3298   0.392   0.695   7.922
  913SOL    HW1 3299   0.418   0.603   7.933
  913SOL    HW2 3300   0.300   0.696   7.949
  914SOL     OW 3301   1.527   0.232   9.170
  914SOL    HW1 3302   1.525   0.256   9.263
  914SOL    HW2 3303   1.452   0.174   9.159
  915SOL     OW 3304   0.621   0.123   7.564
  915SOL    HW1 3305   0.710   0.088   7.577
  915SOL    HW2 3306   0.593   0.087   7.480
  916SOL     OW 3307   0.769   0.269   9.200
  916SOL    HW1 3308   0.835   0.201   9.217
  916SOL    HW2 3309   0.724   0.279   9.284
  917SOL     OW 3310   0.877   1.521   8.641
  917SOL    HW1 3311   0.862   1.485   8.554
  917SOL    HW2 3312   0.946   1.466   8.678
  918SOL     OW 3313   1.342   0.589   8.878
  918SOL    HW1 3314   1.370   0.559   8.964
  918SOL    HW2 3315   1.376   0.678   8.871
  919SOL     OW 3316   0.813   1.398   8.384
  919SOL    HW1 3317   0.897   1.388   8.338
  919SOL    HW2 3318   0.747   1.396   8.314
  920SOL     OW 3319   0.922   0.514   8.350
  920SOL    HW1 3320   0.905   0.513   8.256
  920SOL    HW2 3321   0.964   0.430   8.369
  921SOL     OW 3322   0.558   0.067   7.957
  921SOL    HW1 3323   0.470   0.054   7.993
  921SOL    HW2 3324   0.548   0.140   7.896
  922SOL     OW 3325   1.429   1.197   7.489
  922SOL    HW1 3326   1.459   1.122   7.539
  922SOL    HW2 3327   1.343   1.217   7.526
  923SOL     OW 3328   0.302   0.077   7.632
  923SOL    HW1 3329   0.386   0.123   7.626
  923SOL    HW2 3330   0.321   4.500   7.685
  924SOL     OW 3331   0.949   0.241   7.922
  924SOL    HW1 3332   0.898   0.287   7.856
  924SOL    HW2 3333   1.038   0.275   7.911
  925SOL     OW 3334   1.080   0.679   8.909
  925SOL    HW1 3335   1.008   0.616   8.911
  925SOL    HW2 3336   1.159   0.626   8.897
  926SOL     OW 3337   1.225   1.569   8.241
  926SOL    HW1 3338   1.243   1.637   8.177
  926SOL    HW2 3339   1.292   1.581   8.308
  927SOL     OW 3340   0.465   1.147   8.186
  927SOL    HW1 3341   0.393   1.129   8.246
  927SOL    HW2 3342   0.428   1.131   8.099
  928SOL     OW 3343   1.271   1.795   8.053
  928SOL    HW1 3344   1.315   1.856   7.994
  928SOL    HW2 3345   1.207   1.848   8.100
  929SOL     OW 3346   1.031   0.549   7.462
  929SOL    HW1 3347   0.983   0.631   7.446
  929SOL    HW2 3348   1.089   0.570   7.535
  930SOL     OW 3349   0.090   0.525   8.859
  930SOL    HW1 3350   0.152   0.536   8.787
  930SOL    HW2 3351   0.062   0.614   8.880
  931SOL     OW 3352   0.564   0.242   8.613
  931SOL    HW1 3353   0.594   0.157   8.644
  931SOL    HW2 3354   0.470   0.243   8.633
  932SOL     OW 3355   0.866   0.500   8.074
  932SOL    HW1 3356   0.814   0.542   8.006
  932SOL    HW2 3357   0.852   0.406   8.061
  933SOL     OW 3358   0.971   0.032   8.222
  933SOL    HW1 3359   0.922   0.027   8.140
  933SOL    HW2 3360   0.981   4.441   8.250
  934SOL     OW 3361   1.436   1.163   8.306
  934SOL    HW1 3362   1.368   1.095   8.304
  934SOL    HW2 3363   1.458   1.178   8.214
  935SOL     OW 3364   1.468   0.602   8.428
  935SOL    HW1 3365   1.417   0.521   8.431
  935SOL    HW2 3366   1.527   0.597   8.503
  936SOL     OW 3367   1.848   0.819   7.829
  936SOL    HW1 3368   1.903   0.766   7.887
  936SOL    HW2 3369   1.818   0.758   7.762
  937SOL     OW 3370   0.493   1.413   7.610
  937SOL    HW1 3371   0.416   1.383   7.660
  937SOL    HW2 3372   0.471   1.394   7.519
  938SOL     OW 3373   1.668   1.266   8.096
  938SOL    HW1 3374   1.763   1.272   8.109
  938SOL    HW2 3375   1.635   1.353   8.118
  939SOL     OW 3376   1.394   0.570   7.518
  939SOL    HW1 3377   1.333   0.554   7.590
  939SOL    HW2 3378   1.480   0.548   7.553
  940SOL     OW 3379   0.523   0.264   7.771
  940SOL    HW1 3380   0.568   0.213   7.703
  940SOL    HW2 3381   0.510   0.350   7.731
  941SOL     OW 3382   1.754   1.235   9.026
  941SOL    HW1 3383   1.842   1.197   9.021
  941SOL    HW2 3384   1.768   1.326   9.054
  942SOL     OW 3385   1.061   1.353   8.783
  942SOL    HW1 3386   0.986   1.322   8.834
  942SOL    HW2 3387   1.137   1.312   8.824
  943SOL     OW 3388   1.605   1.624   9.098
  943SOL    HW1 3389   1.603   1.660   9.010
  943SOL    HW2 3390   1.690   1.579   9.104
  944SOL     OW 3391   1.125   1.201   8.555
  944SOL    HW1 3392   1.067   1.240   8.621
  944SOL    HW2 3393   1.090   1.232   8.472
  945SOL     OW 3394   1.632   1.100   8.527
  945SOL    HW1 3395   1.627   1.162   8.599
  945SOL    HW2 3396   1.551   1.115   8.477
  946SOL     OW 3397   0.904   0.130   8.838
  946SOL    HW1 3398   0.927   0.086   8.756
  946SOL    HW2 3399   0.988   0.143   8.883
  947SOL     OW 3400   0.984   1.114   9.170
  947SOL    HW1 3401   0.891   1.129   9.189
  947SOL    HW2 3402   0.985   1.037   9.114
  948SOL     OW 3403   0.708   1.060   7.821
  948SOL    HW1 3404   0.696   1.046   7.915
  948SOL    HW2 3405   0.784   1.006   7.798
  949SOL     OW 3406   0.429   0.822   8.686
  949SOL    HW1 3407   0.497   0.834   8.753
  949SOL    HW2 3408   0.369   0.757   8.724
  950SOL     OW 3409   1.270   0.377   8.719
  950SOL    HW1 3410   1.301   0.455   8.765
  950SOL    HW2 3411   1.181   0.400   8.690
  951SOL     OW 3412   0.061   1.575   8.787
  951SOL    HW1 3413   0.033   1.663   8.761
  951SOL    HW2 3414   0.156   1.581   8.794
  952SOL     OW 3415   0.351   1.106   7.942
  952SOL    HW1 3416   0.360   1.180   7.881
  952SOL    HW2 3417   0.354   1.028   7.886
  953SOL     OW 3418   0.564   0.530   8.304
  953SOL    HW1 3419   0.577   0.590   8.230
  953SOL    HW2 3420   0.622   0.563   8.373
  954SOL     OW 3421   1.248   1.348   7.837
  954SOL    HW1 3422   1.303   1.420   7.868
  954SOL    HW2 3423   1.161   1.368   7.871
  955SOL     OW 3424   1.277   1.455   8.594
  955SOL    HW1 3425   1.332   1.458   8.672
  955SOL    HW2 3426   1.221   1.378   8.606
  956SOL     OW 3427   1.583   0.625   7.923
  956SOL    HW1 3428   1.539   0.679   7.989
  956SOL    HW2 3429   1.628   0.688   7.866
  957SOL     OW 3430   0.348   1.528   8.766
  957SOL    HW1 3431   0.333   1.481   8.684
  957SOL    HW2 3432   0.443   1.539   8.771
  958SOL     OW 3433   0.476   0.760   9.110
  958SOL    HW1 3434   0.502   0.800   9.027
  958SOL    HW2 3435   0.507   0.670   9.104
  959SOL     OW 3436   1.597   0.777   9.126
  959SOL    HW1 3437   1.511   0.818   9.119
  959SOL    HW2 3438   1.650   0.819   9.058
  960SOL     OW 3439   1.007   0.087   9.176
  960SOL    HW1 3440   1.029   0.171   9.136
  960SOL    HW2 3441   1.033   0.022   9.110
  961SOL     OW 3442   0.496   0.046   9.197
  961SOL    HW1 3443   0.478   4.497   9.117
  961SOL    HW2 3444   0.429   0.114   9.200
  962SOL     OW 3445   0.587   0.874   8.472
  962SOL    HW1 3446   0.617   0.965   8.474
  962SOL    HW2 3447   0.531   0.865   8.548
  963SOL     OW 3448   1.361   0.859   8.482
  963SOL    HW1 3449   1.280   0.853   8.431
  963SOL    HW2 3450   1.398   0.770   8.478
  964SOL     OW 3451   1.207   0.534   7.715
  964SOL    HW1 3452   1.213   0.453   7.766
  964SOL    HW2 3453   1.165   0.597   7.773
  965SOL     OW 3454   0.285   0.220   8.682
  965SOL    HW1 3455   0.250   0.237   8.770
  965SOL    HW2 3456   0.320   0.131   8.687
  966SOL     OW 3457   0.048   1.313   8.732
  966SOL    HW1 3458   0.078   1.266   8.809
  966SOL    HW2 3459   0.049   1.405   8.757
  967SOL     OW 3460   0.726   0.632   8.509
  967SOL    HW1 3461   0.798   0.611   8.450
  967SOL    HW2 3462   0.700   0.721   8.484
  968SOL     OW 3463   1.733   0.958   9.299
  968SOL    HW1 3464   1.684   0.905   9.236
  968SOL    HW2 3465   1.673   0.970   9.373
  969SOL     OW 3466   0.317   0.076   8.079
  969SOL    HW1 3467   0.300   0.164   8.113
  969SOL    HW2 3468   0.305   0.018   8.155
  970SOL     OW 3469   1.610   0.374   7.815
  970SOL    HW1 3470   1.642   0.312   7.880
  970SOL    HW2 3471   1.589   0.453   7.865
  971SOL     OW 3472   1.027   0.761   8.410
  971SOL    HW1 3473   1.027   0.777   8.505
  971SOL    HW2 3474   0.999   0.670   8.402
  972SOL     OW 3475   0.982   1.566   9.162
  972SOL    HW1 3476   0.967   1.611   9.079
  972SOL    HW2 3477   1.025   1.484   9.138
  973SOL     OW 3478   1.857   1.508   9.053
  973SOL    HW1 3479   1.870   1.536   8.963
  973SOL    HW2 3480   1.937   1.533   9.099
  974SOL     OW 3481   0.347   0.930   9.266
  974SOL    HW1 3482   0.422   0.958   9.319
  974SOL    HW2 3483   0.384   0.864   9.206
  975SOL     OW 3484   1.532   0.268   7.576
  975SOL    HW1 3485   1.460   0.211   7.603
  975SOL    HW2 3486   1.560   0.312   7.656
  976SOL     OW 3487   1.295   0.827   7.481
  976SOL    HW1 3488   1.336   0.741   7.483
  976SOL    HW2 3489   1.325   0.866   7.399
  977SOL     OW 3490   1.065   1.335   8.300
  977SOL    HW1 3491   1.068   1.262   8.238
  977SOL    HW2 3492   1.128   1.398   8.266
  978SOL     OW 3493   0.317   0.813   8.398
  978SOL    HW1 3494   0.411   0.831   8.393
  978SOL    HW2 3495   0.311   0.723   8.429
  979SOL     OW 3496   0.337   0.526   8.443
  979SOL    HW1 3497   0.292   0.444   8.423
  979SOL    HW2 3498   0.414   0.526   8.385
  980SOL     OW 3499   1.135   0.375   9.140
  980SOL    HW1 3500   1.088   0.440   9.193
  980SOL    HW2 3501   1.222   0.414   9.127
  981SOL     OW 3502   1.160   0.211   8.922
  981SOL    HW1 3503   1.152   0.275   8.992
  981SOL    HW2 3504   1.195   0.261   8.848
  982SOL     OW 3505   4.492   1.323   7.649
  982SOL    HW1 3506   4.399   1.338   7.631
  982SOL    HW2 3507   4.498   1.231   7.673
  983SOL     OW 3508   0.094   1.782   8.387
  983SOL    HW1 3509   0.057   1.721   8.324
  983SOL    HW2 3510   0.182   1.801   8.353
  984SOL     OW 3511   0.499   1.573   8.354
  984SOL    HW1 3512   0.567   1.636   8.378
  984SOL    HW2 3513   0.544   1.508   8.300
  985SOL     OW 3514   0.989   0.795   8.677
  985SOL    HW1 3515   1.041   0.769   8.753
  985SOL    HW2 3516   0.902   0.758   8.693
  986SOL     OW 3517   0.040   0.565   8.558
  986SOL    HW1 3518   0.115   0.521   8.519
  986SOL    HW2 3519   0.026   0.520   8.641
  987SOL     OW 3520   0.180   0.517   9.158
  987SOL    HW1 3521   0.265   0.501   9.118
  987SOL    HW2 3522   0.150   0.599   9.118
  988SOL     OW 3523   1.376   0.941   9.108
  988SOL    HW1 3524   1.396   1.035   9.108
  988SOL    HW2 3525   1.374   0.918   9.015
  989SOL     OW 3526   0.812   0.572   7.800
  989SOL    HW1 3527   0.815   0.500   7.737
  989SOL    HW2 3528   0.738   0.626   7.772
  990SOL     OW 3529   1.642   0.601   8.638
  990SOL    HW1 3530   1.631   0.541   8.711
  990SOL    HW2 3531   1.729   0.580   8.603
  991SOL     OW 3532   0.271   1.562   9.190
  991SOL    HW1 3533   0.217   1.614   9.250
  991SOL    HW2 3534   0.250   1.471   9.212
  992SOL     OW 3535   0.682   0.464   8.716
  992SOL    HW1 3536   0.646   0.383   8.679
  992SOL    HW2 3537   0.691   0.522   8.641
  993SOL     OW 3538   0.930   1.678   8.914
  993SOL    HW1 3539   0.904   1.649   8.827
  993SOL    HW2 3540   0.931   1.774   8.908
  994SOL     OW 3541   0.473   0.491   7.634
  994SOL    HW1 3542   0.532   0.564   7.655
  994SOL    HW2 3543   0.388   0.533   7.621
  995SOL     OW 3544   0.161   1.141   8.911
  995SOL    HW1 3545   0.149   1.092   8.993
  995SOL    HW2 3546   0.170   1.073   8.844
  996SOL     OW 3547   1.329   1.049   8.673
  996SOL    HW1 3548   1.354   0.986   8.605
  996SOL    HW2 3549   1.256   1.098   8.636
  997SOL     OW 3550   1.309   0.856   7.755
  997SOL    HW1 3551   1.232   0.827   7.804
  997SOL    HW2 3552   1.285   0.843   7.663
  998SOL     OW 3553   1.761   1.746   8.593
  998SOL    HW1 3554   1.826   1.774   8.528
  998SOL    HW2 3555   1.744   1.654   8.572
  999SOL     OW 3556   1.241   1.732   8.564
  999SOL    HW1 3557   1.324   1.751   8.519
  999SOL    HW2 3558   1.245   1.638   8.582
 1000SOL     OW 3559   0.069   1.189   8.496
 1000SOL    HW1 3560   0.074   1.224   8.585
 1000SOL    HW2 3561   0.011   1.250   8.449
 1001SOL     OW 3562   0.679   1.663   9.172
 1001SOL    HW1 3563   0.627   1.744   9.169
 1001SOL    HW2 3564   0.741   1.673   9.100
 1002SOL     OW 3565   1.718   0.130   7.946
 1002SOL    HW1 3566   1.792   0.135   7.886
 1002SOL    HW2 3567   1.737   0.055   8.002
 1003SOL     OW 3568   1.390   1.568   7.930
 1003SOL    HW1 3569   1.450   1.599   7.863
 1003SOL    HW2 3570   1.342   1.646   7.958
 1004SOL     OW 3571   0.120   1.808   9.296
 1004SOL    HW1 3572   0.082   1.734   9.342
 1004SOL    HW2 3573   0.184   1.844   9.357
 1005SOL     OW 3574   1.278   0.925   8.120
 1005SOL    HW1 3575   1.351   0.863   8.123
 1005SOL    HW2 3576   1.311   0.998   8.068
 1006SOL     OW 3577   0.819   1.272   8.879
 1006SOL    HW1 3578   0.793   1.311   8.963
 1006SOL    HW2 3579   0.747   1.294   8.820
 1007SOL     OW 3580   0.673   1.616   7.603
 1007SOL    HW1 3581   0.681   1.627   7.508
 1007SOL    HW2 3582   0.620   1.537   7.614
 1008SOL     OW 3583   1.632   1.726   8.839
 1008SOL    HW1 3584   1.680   1.735   8.757
 1008SOL    HW2 3585   1.618   1.816   8.869
 1009SOL     OW 3586   1.839   0.156   8.415
 1009SOL    HW1 3587   1.868   0.079   8.365
 1009SOL    HW2 3588   1.752   0.176   8.380
 1010SOL     OW 3589   0.267   0.326   8.173
 1010SOL    HW1 3590   0.185   0.361   8.138
 1010SOL    HW2 3591   0.251   0.317   8.267
 1011SOL     OW 3592   1.206   1.608   7.479
 1011SOL    HW1 3593   1.197   1.517   7.506
 1011SOL    HW2 3594   1.141   1.618   7.409
 1012SOL     OW 3595   0.825   1.006   8.819
 1012SOL    HW1 3596   0.867   1.004   8.734
 1012SOL    HW2 3597   0.826   1.099   8.844
 1013SOL     OW 3598   0.915   0.910   7.737
 1013SOL    HW1 3599   0.977   0.942   7.672
 1013SOL    HW2 3600   0.961   0.839   7.782
 1014SOL     OW 3601   1.495   1.624   7.490
 1014SOL    HW1 3602   1.400   1.621   7.479
 1014SOL    HW2 3603   1.529   1.630   7.401
 1015SOL     OW 3604   0.372   1.304   8.939
 1015SOL    HW1 3605   0.356   1.383   8.887
 1015SOL    HW2 3606   0.296   1.249   8.923
 1016SOL     OW 3607   1.611   1.283   8.729
 1016SOL    HW1 3608   1.672   1.277   8.803
 1016SOL    HW2 3609   1.551   1.354   8.753
 1017SOL     OW 3610   1.048   1.105   8.152
 1017SOL    HW1 3611   0.978   1.054   8.193
 1017SOL    HW2 3612   1.109   1.039   8.118
 1018SOL     OW 3613   1.007   0.241   8.444
 1018SOL    HW1 3614   1.014   0.211   8.353
 1018SOL    HW2 3615   1.001   0.160   8.495
 1019SOL     OW 3616   0.602   1.489   7.931
 1019SOL    HW1 3617   0.641   1.439   7.860
 1019SOL    HW2 3618   0.533   1.541   7.890
 1020SOL     OW 3619   1.719   0.392   8.826
 1020SOL    HW1 3620   1.791   0.456   8.825
 1020SOL    HW2 3621   1.749   0.321   8.770
 1021SOL     OW 3622   0.252   1.345   7.726
 1021SOL    HW1 3623   0.157   1.347   7.711
 1021SOL    HW2 3624   0.263   1.378   7.815
 1022SOL     OW 3625   0.117   1.008   9.145
 1022SOL    HW1 3626   0.052   1.045   9.204
 1022SOL    HW2 3627   0.195   0.995   9.199
 1023SOL     OW 3628   0.659   0.207   8.943
 1023SOL    HW1 3629   0.739   0.181   8.898
 1023SOL    HW2 3630   0.687   0.222   9.034
 1024SOL     OW 3631   0.070   0.321   7.474
 1024SOL    HW1 3632   4.475   0.330   7.483
 1024SOL    HW2 3633   0.100   0.407   7.443
 1025SOL     OW 3634   1.432   0.858   8.849
 1025SOL    HW1 3635   1.383   0.918   8.792
 1025SOL    HW2 3636   1.522   0.862   8.817
 1026SOL     OW 3637   0.083   0.188   7.751
 1026SOL    HW1 3638   0.080   0.260   7.688
 1026SOL    HW2 3639   0.161   0.138   7.727
 1027SOL     OW 3640   1.180   1.342   7.565
 1027SOL    HW1 3641   1.089   1.312   7.568
 1027SOL    HW2 3642   1.209   1.341   7.656
 1028SOL     OW 3643   0.620   0.831   8.876
 1028SOL    HW1 3644   0.674   0.909   8.864
 1028SOL    HW2 3645   0.683   0.760   8.886
 1029SOL     OW 3646   1.487   1.773   8.422
 1029SOL    HW1 3647   1.513   1.833   8.352
 1029SOL    HW2 3648   1.566   1.761   8.475
 1030SOL     OW 3649   0.715   0.562   9.153
 1030SOL    HW1 3650   0.746   0.629   9.214
 1030SOL    HW2 3651   0.756   0.481   9.185
 1031SOL     OW 3652   1.468   1.203   9.081
 1031SOL    HW1 3653   1.456   1.217   9.175
 1031SOL    HW2 3654   1.562   1.216   9.067
 1032SOL     OW 3655   0.383   1.743   9.011
 1032SOL    HW1 3656   0.297   1.782   8.997
 1032SOL    HW2 3657   0.364   1.661   9.057
 1033SOL     OW 3658   1.672   0.882   8.703
 1033SOL    HW1 3659   1.662   0.797   8.660
 1033SOL    HW2 3660   1.663   0.946   8.633
 1034SOL     OW 3661   1.218   0.327   7.896
 1034SOL    HW1 3662   1.283   0.257   7.887
 1034SOL    HW2 3663   1.245   0.374   7.975
 1035SOL     OW 3664   0.588   0.740   8.116
 1035SOL    HW1 3665   0.630   0.825   8.099
 1035SOL    HW2 3666   0.519   0.734   8.050
 1036SOL     OW 3667   1.766   0.360   9.091
 1036SOL    HW1 3668   1.750   0.374   8.998
 1036SOL    HW2 3669   1.687   0.317   9.123
 1037SOL     OW 3670   1.743   0.933   8.961
 1037SOL    HW1 3671   1.746   1.028   8.974
 1037SOL    HW2 3672   1.728   0.923   8.867
 1038SOL     OW 3673   0.863   1.369   7.478
 1038SOL    HW1 3674   0.823   1.394   7.561
 1038SOL    HW2 3675   0.882   1.451   7.434
 1039SOL     OW 3676   0.659   1.794   8.397
 1039SOL    HW1 3677   0.637   1.884   8.371
 1039SOL    HW2 3678   0.754   1.789   8.388
 1040SOL     OW 3679   0.866   0.965   8.304
 1040SOL    HW1 3680   0.916   0.894   8.344
 1040SOL    HW2 3681   0.833   1.016   8.378
 1041SOL     OW 3682   1.080   0.988   7.537
 1041SOL    HW1 3683   1.058   1.038   7.458
 1041SOL    HW2 3684   1.156   0.935   7.511
 1042SOL     OW 3685   1.858   1.555   8.292
 1042SOL    HW1 3686   1.779   1.547   8.239
 1042SOL    HW2 3687   1.847   1.491   8.363
 1043SOL     OW 3688   0.228   1.307   9.304
 1043SOL    HW1 3689   0.159   1.245   9.279
 1043SOL    HW2 3690   0.218   1.317   9.399
 1044SOL     OW 3691   0.101   1.239   8.114
 1044SOL    HW1 3692   0.105   1.188   8.195
 1044SOL    HW2 3693   0.162   1.196   8.055
 1045SOL     OW 3694   0.680   1.400   9.074
 1045SOL    HW1 3695   0.600   1.356   9.103
 1045SOL    HW2 3696   0.674   1.488   9.111
 1046SOL     OW 3697   1.812   0.184   8.687
 1046SOL    HW1 3698   1.810   0.091   8.708
 1046SOL    HW2 3699   1.826   0.187   8.592
 1047SOL     OW 3700   0.438   0.431   7.976
 1047SOL    HW1 3701   0.458   0.360   7.916
 1047SOL    HW2 3702   0.381   0.391   8.042
 1048SOL     OW 3703   1.704   1.488   8.544
 1048SOL    HW1 3704   1.620   1.464   8.505
 1048SOL    HW2 3705   1.718   1.423   8.613
 1049SOL     OW 3706   0.313   0.504   8.706
 1049SOL    HW1 3707   0.385   0.457   8.748
 1049SOL    HW2 3708   0.340   0.512   8.614
 1050SOL     OW 3709   0.825   1.578   8.128
 1050SOL    HW1 3710   0.819   1.623   8.043
 1050SOL    HW2 3711   0.746   1.524   8.131
 1051SOL     OW 3712   1.432   0.215   8.566
 1051SOL    HW1 3713   1.469   0.145   8.620
 1051SOL    HW2 3714   1.381   0.268   8.627
 1052SOL     OW 3715   0.997   0.013   8.596
 1052SOL    HW1 3716   0.951   4.430   8.585
 1052SOL    HW2 3717   1.089   4.488   8.609
 1053SOL     OW 3718   0.771   1.332   7.758
 1053SOL    HW1 3719   0.738   1.243   7.765
 1053SOL    HW2 3720   0.854   1.330   7.806
 1054SOL     OW 3721   0.621   1.559   8.732
 1054SOL    HW1 3722   0.623   1.640   8.783
 1054SOL    HW2 3723   0.708   1.551   8.693
 1055SOL     OW 3724   1.343   0.054   7.600
 1055SOL    HW1 3725   1.382   4.480   7.554
 1055SOL    HW2 3726   1.267   0.016   7.646
 1056SOL     OW 3727   1.314   0.462   8.129
 1056SOL    HW1 3728   1.252   0.535   8.130
 1056SOL    HW2 3729   1.302   0.419   8.214
 1057SOL     OW 3730   1.586   0.203   8.316
 1057SOL    HW1 3731   1.524   0.217   8.388
 1057SOL    HW2 3732   1.589   0.287   8.270
 1058SOL     OW 3733   0.041   1.054   7.734
 1058SOL    HW1 3734   0.136   1.043   7.728
 1058SOL    HW2 3735   0.018   1.013   7.818
 1059SOL     OW 3736   0.881   1.649   7.793
 1059SOL    HW1 3737   0.810   1.631   7.731
 1059SOL    HW2 3738   0.851   1.725   7.842
 1060SOL     OW 3739   0.247   0.626   9.429
 1060SOL    HW1 3740   0.171   0.612   9.485
 1060SOL    HW2 3741   0.215   0.608   9.340
 1061SOL     OW 3742   0.199   0.292  10.300
 1061SOL    HW1 3743   0.236   0.270  10.385
 1061SOL    HW2 3744   0.134   0.224  10.284
 1062SOL     OW 3745   0.007   0.377   9.953
 1062SOL    HW1 3746   4.427   0.414   9.991
 1062SOL    HW2 3747   4.476   0.306   9.897
 1063SOL     OW 3748   0.567   1.282  10.483
 1063SOL    HW1 3749   0.479   1.286  10.444
 1063SOL    HW2 3750   0.582   1.370  10.517
 1064SOL     OW 3751   1.557   1.512  10.015
 1064SOL    HW1 3752   1.513   1.494  10.098
 1064SOL    HW2 3753   1.486   1.517   9.951
 1065SOL     OW 3754   1.131   0.700  10.012
 1065SOL    HW1 3755   1.180   0.782  10.000
 1065SOL    HW2 3756   1.082   0.713  10.093
 1066SOL     OW 3757   1.764   0.609   9.540
 1066SOL    HW1 3758   1.745   0.598   9.447
 1066SOL    HW2 3759   1.732   0.528   9.580
 1067SOL     OW 3760   0.760   1.145  10.348
 1067SOL    HW1 3761   0.689   1.178  10.403
 1067SOL    HW2 3762   0.793   1.222  10.302
 1068SOL     OW 3763   0.850   0.782   0.020
 1068SOL    HW1 3764   0.858   0.840   0.096
 1068SOL    HW2 3765   0.883   0.834  11.047
 1069SOL     OW 3766   0.686   1.008   9.959
 1069SOL    HW1 3767   0.750   0.992  10.029
 1069SOL    HW2 3768   0.616   1.057  10.002
 1070SOL     OW 3769   0.337   1.424  10.379
 1070SOL    HW1 3770   0.256   1.404  10.332
 1070SOL    HW2 3771   0.387   1.479  10.318
 1071SOL     OW 3772   1.463   1.500  10.656
 1071SOL    HW1 3773   1.513   1.581  10.667
 1071SOL    HW2 3774   1.419   1.488  10.740
 1072SOL     OW 3775   0.440   0.394  10.789
 1072SOL    HW1 3776   0.526   0.354  10.798
 1072SOL    HW2 3777   0.382   0.336  10.838
 1073SOL     OW 3778   1.613   0.448  10.048
 1073SOL    HW1 3779   1.533   0.473  10.002
 1073SOL    HW2 3780   1.635   0.525  10.100
 1074SOL     OW 3781   0.245   1.692   9.789
 1074SOL    HW1 3782   0.233   1.777   9.833
 1074SOL    HW2 3783   0.307   1.710   9.718
 1075SOL     OW 3784   0.243   1.428   9.838
 1075SOL    HW1 3785   0.236   1.523   9.843
 1075SOL    HW2 3786   0.179   1.395   9.901
 1076SOL     OW 3787   0.244   1.081  10.192
 1076SOL    HW1 3788   0.263   0.994  10.227
 1076SOL    HW2 3789   0.188   1.122  10.258
 1077SOL     OW 3790   0.615   1.790  10.741
 1077SOL    HW1 3791   0.534   1.771  10.787
 1077SOL    HW2 3792   0.637   1.880  10.765
 1078SOL     OW 3793   0.584   0.983   9.445
 1078SOL    HW1 3794   0.629   1.031   9.374
 1078SOL    HW2 3795   0.630   1.009   9.524
 1079SOL     OW 3796   1.557   0.131  10.781
 1079SOL    HW1 3797   1.603   0.191  10.722
 1079SOL    HW2 3798   1.609   0.131  10.861
 1080SOL     OW 3799   0.136   0.642   9.885
 1080SOL    HW1 3800   0.083   0.563   9.898
 1080SOL    HW2 3801   0.107   0.703   9.953
 1081SOL     OW 3802   1.840   1.762   9.646
 1081SOL    HW1 3803   1.899   1.731   9.714
 1081SOL    HW2 3804   1.868   1.852   9.629
 1082SOL     OW 3805   0.033   1.601   9.445
 1082SOL    HW1 3806   0.021   1.506   9.447
 1082SOL    HW2 3807   0.010   1.630   9.533
 1083SOL     OW 3808   1.691   0.920   9.947
 1083SOL    HW1 3809   1.776   0.880   9.928
 1083SOL    HW2 3810   1.669   0.969   9.868
 1084SOL     OW 3811   1.645   1.108   9.740
 1084SOL    HW1 3812   1.730   1.117   9.696
 1084SOL    HW2 3813   1.649   1.168   9.814
 1085SOL     OW 3814   0.097   0.756  10.910
 1085SOL    HW1 3815   0.190   0.740  10.898
 1085SOL    HW2 3816   0.086   0.851  10.897
 1086SOL     OW 3817   0.612   1.381  10.046
 1086SOL    HW1 3818   0.566   1.298  10.054
 1086SOL    HW2 3819   0.596   1.409   9.955
 1087SOL     OW 3820   1.297   1.238  10.750
 1087SOL    HW1 3821   1.321   1.176  10.681
 1087SOL    HW2 3822   1.352   1.213  10.824
 1088SOL     OW 3823   0.817   0.011   9.855
 1088SOL    HW1 3824   0.850   0.097   9.832
 1088SOL    HW2 3825   0.722   0.018   9.846
 1089SOL     OW 3826   0.183   0.944  10.589
 1089SOL    HW1 3827   0.274   0.926  10.567
 1089SOL    HW2 3828   0.133   0.918  10.512
 1090SOL     OW 3829   1.532   0.991   9.506
 1090SOL    HW1 3830   1.462   0.933   9.536
 1090SOL    HW2 3831   1.571   1.025   9.587
 1091SOL     OW 3832   1.194   1.804  10.926
 1091SOL    HW1 3833   1.198   1.866  10.853
 1091SOL    HW2 3834   1.202   1.718  10.885
 1092SOL     OW 3835   0.327   0.286  11.069
 1092SOL    HW1 3836   0.390   0.331   0.025
 1092SOL    HW2 3837   0.247   0.282   0.021
 1093SOL     OW 3838   1.466   1.419  10.263
 1093SOL    HW1 3839   1.397   1.434  10.328
 1093SOL    HW2 3840   1.454   1.328  10.235
 1094SOL     OW 3841   1.663   1.732   9.887
 1094SOL    HW1 3842   1.638   1.704   9.799
 1094SOL    HW2 3843   1.636   1.660   9.943
 1095SOL     OW 3844   0.596   0.723   9.574
 1095SOL    HW1 3845   0.602   0.803   9.522
 1095SOL    HW2 3846   0.530   0.743   9.641
 1096SOL     OW 3847   1.290   0.358  10.245
 1096SOL    HW1 3848   1.201   0.326  10.229
 1096SOL    HW2 3849   1.327   0.295  10.307
 1097SOL     OW 3850   1.581   1.668   9.619
 1097SOL    HW1 3851   1.670   1.703   9.613
 1097SOL    HW2 3852   1.556   1.650   9.528
 1098SOL     OW 3853   0.797   0.617  10.765
 1098SOL    HW1 3854   0.768   0.593  10.853
 1098SOL    HW2 3855   0.753   0.553  10.708
 1099SOL     OW 3856   0.966   0.897  10.899
 1099SOL    HW1 3857   1.014   0.824  10.860
 1099SOL    HW2 3858   0.916   0.934  10.826
 1100SOL     OW 3859   0.996   0.418  10.548
 1100SOL    HW1 3860   0.911   0.430  10.590
 1100SOL    HW2 3861   0.976   0.365  10.470
 1101SOL     OW 3862   1.049   0.698   9.738
 1101SOL    HW1 3863   1.064   0.691   9.832
 1101SOL    HW2 3864   0.967   0.651   9.723
 1102SOL     OW 3865   0.099   0.823  10.093
 1102SOL    HW1 3866   0.185   0.803  10.129
 1102SOL    HW2 3867   0.054   0.871  10.162
 1103SOL     OW 3868   0.118   1.852  10.899
 1103SOL    HW1 3869   0.117   1.791  10.973
 1103SOL    HW2 3870   0.051   1.818  10.839
 1104SOL     OW 3871   0.853   0.367   9.486
 1104SOL    HW1 3872   0.929   0.404   9.442
 1104SOL    HW2 3873   0.872   0.274   9.494
 1105SOL     OW 3874   1.375   1.143   9.852
 1105SOL    HW1 3875   1.453   1.128   9.799
 1105SOL    HW2 3876   1.323   1.205   9.801
 1106SOL     OW 3877   0.544   0.202  10.211
 1106SOL    HW1 3878   0.561   0.221  10.303
 1106SOL    HW2 3879   0.534   0.288  10.170
 1107SOL     OW 3880   1.009   1.446   9.784
 1107SOL    HW1 3881   0.968   1.517   9.735
 1107SOL    HW2 3882   0.994   1.469   9.876
 1108SOL     OW 3883   0.354   1.807  10.166
 1108SOL    HW1 3884   0.398   1.723  10.176
 1108SOL    HW2 3885   0.424   1.872  10.179
 1109SOL     OW 3886   1.798   1.060  10.177
 1109SOL    HW1 3887   1.741   1.043  10.102
 1109SOL    HW2 3888   1.739   1.065  10.251
 1110SOL     OW 3889   1.225   1.541  10.825
 1110SOL    HW1 3890   1.235   1.454  10.864
 1110SOL    HW2 3891   1.168   1.527  10.749
 1111SOL     OW 3892   0.318   0.954   9.559
 1111SOL    HW1 3893   0.402   0.976   9.520
 1111SOL    HW2 3894   0.300   0.865   9.529
 1112SOL     OW 3895   1.476   0.739  10.036
 1112SOL    HW1 3896   1.462   0.692  10.118
 1112SOL    HW2 3897   1.552   0.795  10.053
 1113SOL     OW 3898   0.455   1.269  11.052
 1113SOL    HW1 3899   0.427   1.276  10.960
 1113SOL    HW2 3900   0.386   1.218  11.094
 1114SOL     OW 3901   1.120   1.777   9.542
 1114SOL    HW1 3902   1.049   1.734   9.589
 1114SOL    HW2 3903   1.142   1.718   9.470
 1115SOL     OW 3904   0.168   0.261  10.818
 1115SOL    HW1 3905   0.141   0.350  10.797
 1115SOL    HW2 3906   0.205   0.267  10.906
 1116SOL     OW 3907   1.629   1.379   9.397
 1116SOL    HW1 3908   1.589   1.464   9.381
 1116SOL    HW2 3909   1.560   1.315   9.378
 1117SOL     OW 3910   0.469   1.744   9.625
 1117SOL    HW1 3911   0.508   1.796   9.695
 1117SOL    HW2 3912   0.544   1.713   9.573
 1118SOL     OW 3913   1.416   0.131   9.729
 1118SOL    HW1 3914   1.398   0.084   9.647
 1118SOL    HW2 3915   1.511   0.130   9.737
 1119SOL     OW 3916   0.254   1.791  10.548
 1119SOL    HW1 3917   0.306   1.721  10.587
 1119SOL    HW2 3918   0.231   1.757  10.461
 1120SOL     OW 3919   0.938   1.698  10.211
 1120SOL    HW1 3920   1.016   1.645  10.230
 1120SOL    HW2 3921   0.892   1.649  10.142
 1121SOL     OW 3922   0.392   0.695   9.784
 1121SOL    HW1 3923   0.418   0.603   9.795
 1121SOL    HW2 3924   0.300   0.696   9.811
 1122SOL     OW 3925   0.621   0.123   9.426
 1122SOL    HW1 3926   0.710   0.088   9.439
 1122SOL    HW2 3927   0.593   0.087   9.342
 1123SOL     OW 3928   0.770   0.270  11.043
 1123SOL    HW1 3929   0.831   0.205  11.077
 1123SOL    HW2 3930   0.712   0.290   0.017
 1124SOL     OW 3931   0.876   1.521  10.503
 1124SOL    HW1 3932   0.862   1.486  10.415
 1124SOL    HW2 3933   0.947   1.467  10.539
 1125SOL     OW 3934   1.344   0.589  10.752
 1125SOL    HW1 3935   1.392   0.570  10.833
 1125SOL    HW2 3936   1.371   0.678  10.728
 1126SOL     OW 3937   0.813   1.398  10.245
 1126SOL    HW1 3938   0.897   1.388  10.200
 1126SOL    HW2 3939   0.747   1.396  10.176
 1127SOL     OW 3940   0.922   0.515  10.212
 1127SOL    HW1 3941   0.905   0.512  10.118
 1127SOL    HW2 3942   0.963   0.431  10.231
 1128SOL     OW 3943   0.558   0.067   9.819
 1128SOL    HW1 3944   0.470   0.054   9.855
 1128SOL    HW2 3945   0.548   0.140   9.759
 1129SOL     OW 3946   1.429   1.197   9.351
 1129SOL    HW1 3947   1.459   1.122   9.401
 1129SOL    HW2 3948   1.343   1.217   9.388
 1130SOL     OW 3949   0.302   0.076   9.494
 1130SOL    HW1 3950   0.386   0.123   9.488
 1130SOL    HW2 3951   0.321   4.500   9.548
 1131SOL     OW 3952   0.949   0.241   9.783
 1131SOL    HW1 3953   0.898   0.288   9.718
 1131SOL    HW2 3954   1.038   0.275   9.773
 1132SOL     OW 3955   1.079   0.682  10.773
 1132SOL    HW1 3956   1.006   0.620  10.773
 1132SOL    HW2 3957   1.157   0.628  10.764
 1133SOL     OW 3958   1.225   1.569  10.104
 1133SOL    HW1 3959   1.243   1.637  10.038
 1133SOL    HW2 3960   1.293   1.581  10.170
 1134SOL     OW 3961   0.465   1.147  10.048
 1134SOL    HW1 3962   0.393   1.129  10.108
 1134SOL    HW2 3963   0.428   1.131   9.961
 1135SOL     OW 3964   1.271   1.795   9.915
 1135SOL    HW1 3965   1.315   1.856   9.856
 1135SOL    HW2 3966   1.207   1.848   9.962
 1136SOL     OW 3967   1.031   0.549   9.324
 1136SOL    HW1 3968   0.983   0.631   9.308
 1136SOL    HW2 3969   1.089   0.570   9.397
 1137SOL     OW 3970   0.083   0.526  10.720
 1137SOL    HW1 3971   0.152   0.536  10.653
 1137SOL    HW2 3972   0.065   0.616  10.749
 1138SOL     OW 3973   0.563   0.243  10.475
 1138SOL    HW1 3974   0.592   0.155  10.501
 1138SOL    HW2 3975   0.470   0.245  10.497
 1139SOL     OW 3976   0.866   0.500   9.936
 1139SOL    HW1 3977   0.814   0.542   9.868
 1139SOL    HW2 3978   0.852   0.406   9.923
 1140SOL     OW 3979   0.972   0.032  10.084
 1140SOL    HW1 3980   0.922   0.027  10.002
 1140SOL    HW2 3981   0.981   4.441  10.112
 1141SOL     OW 3982   1.435   1.164  10.168
 1141SOL    HW1 3983   1.368   1.095  10.166
 1141SOL    HW2 3984   1.458   1.178  10.076
 1142SOL     OW 3985   1.468   0.602  10.289
 1142SOL    HW1 3986   1.417   0.521  10.293
 1142SOL    HW2 3987   1.527   0.597  10.364
 1143SOL     OW 3988   1.848   0.819   9.692
 1143SOL    HW1 3989   1.903   0.766   9.749
 1143SOL    HW2 3990   1.818   0.758   9.624
 1144SOL     OW 3991   0.493   1.413   9.472
 1144SOL    HW1 3992   0.416   1.383   9.522
 1144SOL    HW2 3993   0.471   1.394   9.381
 1145SOL     OW 3994   1.668   1.266   9.959
 1145SOL    HW1 3995   1.763   1.271   9.971
 1145SOL    HW2 3996   1.635   1.353   9.980
 1146SOL     OW 3997   1.394   0.570   9.380
 1146SOL    HW1 3998   1.333   0.554   9.452
 1146SOL    HW2 3999   1.480   0.548   9.415
 1147SOL     OW 4000   0.523   0.264   9.633
 1147SOL    HW1 4001   0.568   0.213   9.565
 1147SOL    HW2 4002   0.510   0.350   9.593
 1148SOL     OW 4003   1.760   1.228  10.875
 1148SOL    HW1 4004   1.851   1.199  10.879
 1148SOL    HW2 4005   1.762   1.316  10.914
 1149SOL     OW 4006   1.065   1.353  10.650
 1149SOL    HW1 4007   0.987   1.321  10.695
 1149SOL    HW2 4008   1.138   1.306  10.690
 1150SOL     OW 4009   1.125   1.203  10.418
 1150SOL    HW1 4010   1.062   1.240  10.480
 1150SOL    HW2 4011   1.093   1.231  10.332
 1151SOL     OW 4012   1.632   1.100  10.388
 1151SOL    HW1 4013   1.628   1.162  10.461
 1151SOL    HW2 4014   1.551   1.116  10.340
 1152SOL     OW 4015   0.901   0.128  10.699
 1152SOL    HW1 4016   0.928   0.086  10.617
 1152SOL    HW2 4017   0.982   0.140  10.748
 1153SOL     OW 4018   0.708   1.060   9.683
 1153SOL    HW1 4019   0.696   1.046   9.777
 1153SOL    HW2 4020   0.784   1.006   9.660
 1154SOL     OW 4021   0.428   0.822  10.549
 1154SOL    HW1 4022   0.496   0.831  10.616
 1154SOL    HW2 4023   0.368   0.756  10.585
 1155SOL     OW 4024   1.271   0.381  10.580
 1155SOL    HW1 4025   1.300   0.459  10.628
 1155SOL    HW2 4026   1.182   0.403  10.551
 1156SOL     OW 4027   0.062   1.577  10.653
 1156SOL    HW1 4028   0.036   1.662  10.618
 1156SOL    HW2 4029   0.157   1.580  10.655
 1157SOL     OW 4030   0.351   1.106   9.804
 1157SOL    HW1 4031   0.360   1.180   9.743
 1157SOL    HW2 4032   0.354   1.028   9.748
 1158SOL     OW 4033   0.564   0.530  10.165
 1158SOL    HW1 4034   0.577   0.590  10.092
 1158SOL    HW2 4035   0.621   0.563  10.235
 1159SOL     OW 4036   1.248   1.348   9.699
 1159SOL    HW1 4037   1.303   1.420   9.730
 1159SOL    HW2 4038   1.161   1.368   9.733
 1160SOL     OW 4039   1.276   1.456  10.454
 1160SOL    HW1 4040   1.331   1.460  10.532
 1160SOL    HW2 4041   1.223   1.378  10.466
 1161SOL     OW 4042   1.583   0.625   9.785
 1161SOL    HW1 4043   1.539   0.679   9.850
 1161SOL    HW2 4044   1.628   0.688   9.728
 1162SOL     OW 4045   0.348   1.524  10.628
 1162SOL    HW1 4046   0.334   1.480  10.544
 1162SOL    HW2 4047   0.442   1.538  10.633
 1163SOL     OW 4048   0.481   0.749  10.966
 1163SOL    HW1 4049   0.511   0.787  10.884
 1163SOL    HW2 4050   0.508   0.657  10.961
 1164SOL     OW 4051   1.590   0.763  10.971
 1164SOL    HW1 4052   1.513   0.819  10.966
 1164SOL    HW2 4053   1.659   0.812  10.927
 1165SOL     OW 4054   0.587   0.873  10.334
 1165SOL    HW1 4055   0.616   0.965  10.336
 1165SOL    HW2 4056   0.531   0.864  10.411
 1166SOL     OW 4057   1.360   0.860  10.346
 1166SOL    HW1 4058   1.280   0.854  10.294
 1166SOL    HW2 4059   1.398   0.772  10.342
 1167SOL     OW 4060   1.207   0.534   9.577
 1167SOL    HW1 4061   1.213   0.453   9.628
 1167SOL    HW2 4062   1.165   0.597   9.635
 1168SOL     OW 4063   0.287   0.219  10.545
 1168SOL    HW1 4064   0.255   0.237  10.634
 1168SOL    HW2 4065   0.314   0.128  10.548
 1169SOL     OW 4066   0.049   1.314  10.593
 1169SOL    HW1 4067   0.077   1.266  10.671
 1169SOL    HW2 4068   0.048   1.406  10.621
 1170SOL     OW 4069   0.726   0.633  10.371
 1170SOL    HW1 4070   0.797   0.611  10.311
 1170SOL    HW2 4071   0.700   0.721  10.345
 1171SOL     OW 4072   0.317   0.076   9.941
 1171SOL    HW1 4073   0.300   0.164   9.975
 1171SOL    HW2 4074   0.305   0.018  10.017
 1172SOL     OW 4075   1.610   0.374   9.677
 1172SOL    HW1 4076   1.642   0.312   9.742
 1172SOL    HW2 4077   1.589   0.453   9.727
 1173SOL     OW 4078   1.027   0.761  10.272
 1173SOL    HW1 4079   1.027   0.777  10.367
 1173SOL    HW2 4080   0.999   0.670  10.264
 1174SOL     OW 4081   0.974   1.571  11.004
 1174SOL    HW1 4082   0.960   1.621  10.924
 1174SOL    HW2 4083   1.007   1.487  10.975
 1175SOL     OW 4084   1.860   1.497  10.912
 1175SOL    HW1 4085   1.872   1.531  10.823
 1175SOL    HW2 4086   1.927   1.542  10.964
 1176SOL     OW 4087   0.349   0.932  11.097
 1176SOL    HW1 4088   0.424   0.959   0.049
 1176SOL    HW2 4089   0.381   0.860  11.043
 1177SOL     OW 4090   1.532   0.268   9.438
 1177SOL    HW1 4091   1.460   0.211   9.465
 1177SOL    HW2 4092   1.560   0.312   9.518
 1178SOL     OW 4093   1.295   0.827   9.343
 1178SOL    HW1 4094   1.336   0.741   9.345
 1178SOL    HW2 4095   1.325   0.866   9.261
 1179SOL     OW 4096   1.065   1.334  10.163
 1179SOL    HW1 4097   1.068   1.261  10.101
 1179SOL    HW2 4098   1.128   1.398  10.128
 1180SOL     OW 4099   0.317   0.813  10.260
 1180SOL    HW1 4100   0.411   0.830  10.255
 1180SOL    HW2 4101   0.311   0.722  10.291
 1181SOL     OW 4102   0.337   0.527  10.304
 1181SOL    HW1 4103   0.292   0.445  10.286
 1181SOL    HW2 4104   0.414   0.526  10.247
 1182SOL     OW 4105   1.156   0.216  10.773
 1182SOL    HW1 4106   1.165   0.272  10.850
 1182SOL    HW2 4107   1.191   0.269  10.701
 1183SOL     OW 4108   4.492   1.323   9.511
 1183SOL    HW1 4109   4.399   1.338   9.493
 1183SOL    HW2 4110   4.498   1.231   9.535
 1184SOL     OW 4111   0.094   1.781  10.249
 1184SOL    HW1 4112   0.057   1.720  10.185
 1184SOL    HW2 4113   0.181   1.801  10.215
 1185SOL     OW 4114   0.499   1.573  10.216
 1185SOL    HW1 4115   0.567   1.636  10.239
 1185SOL    HW2 4116   0.544   1.508  10.162
 1186SOL     OW 4117   0.988   0.796  10.539
 1186SOL    HW1 4118   1.040   0.771  10.616
 1186SOL    HW2 4119   0.902   0.758  10.555
 1187SOL     OW 4120   0.037   0.562  10.418
 1187SOL    HW1 4121   0.116   0.522  10.382
 1187SOL    HW2 4122   0.029   0.526  10.506
 1188SOL     OW 4123   0.812   0.572   9.662
 1188SOL    HW1 4124   0.815   0.500   9.599
 1188SOL    HW2 4125   0.738   0.626   9.634
 1189SOL     OW 4126   1.642   0.601  10.499
 1189SOL    HW1 4127   1.632   0.541  10.573
 1189SOL    HW2 4128   1.729   0.581  10.464
 1190SOL     OW 4129   0.264   1.571  11.058
 1190SOL    HW1 4130   0.212   1.603   0.032
 1190SOL    HW2 4131   0.243   1.478  11.051
 1191SOL     OW 4132   0.687   0.462  10.577
 1191SOL    HW1 4133   0.647   0.383  10.543
 1191SOL    HW2 4134   0.693   0.521  10.502
 1192SOL     OW 4135   0.941   1.682  10.761
 1192SOL    HW1 4136   0.902   1.652  10.678
 1192SOL    HW2 4137   0.929   1.777  10.760
 1193SOL     OW 4138   0.473   0.491   9.496
 1193SOL    HW1 4139   0.532   0.564   9.517
 1193SOL    HW2 4140   0.388   0.533   9.483
 1194SOL     OW 4141   0.162   1.141  10.772
 1194SOL    HW1 4142   0.142   1.096  10.854
 1194SOL    HW2 4143   0.170   1.071  10.707
 1195SOL     OW 4144   1.328   1.054  10.539
 1195SOL    HW1 4145   1.355   0.989  10.473
 1195SOL    HW2 4146   1.255   1.100  10.497
 1196SOL     OW 4147   1.309   0.856   9.617
 1196SOL    HW1 4148   1.232   0.827   9.666
 1196SOL    HW2 4149   1.285   0.843   9.525
 1197SOL     OW 4150   1.764   1.748  10.458
 1197SOL    HW1 4151   1.826   1.775  10.391
 1197SOL    HW2 4152   1.744   1.657  10.438
 1198SOL     OW 4153   1.242   1.733  10.427
 1198SOL    HW1 4154   1.324   1.752  10.381
 1198SOL    HW2 4155   1.244   1.639  10.444
 1199SOL     OW 4156   0.069   1.189  10.358
 1199SOL    HW1 4157   0.074   1.224  10.447
 1199SOL    HW2 4158   0.010   1.249  10.312
 1200SOL     OW 4159   1.718   0.130   9.808
 1200SOL    HW1 4160   1.792   0.134   9.748
 1200SOL    HW2 4161   1.737   0.055   9.865
 1201SOL     OW 4162   1.390   1.568   9.793
 1201SOL    HW1 4163   1.450   1.598   9.725
 1201SOL    HW2 4164   1.343   1.646   9.820
 1202SOL     OW 4165   1.278   0.926   9.982
 1202SOL    HW1 4166   1.350   0.863   9.985
 1202SOL    HW2 4167   1.312   0.998   9.930
 1203SOL     OW 4168   0.822   1.272  10.739
 1203SOL    HW1 4169   0.793   1.307  10.824
 1203SOL    HW2 4170   0.751   1.294  10.679
 1204SOL     OW 4171   0.673   1.616   9.465
 1204SOL    HW1 4172   0.681   1.627   9.370
 1204SOL    HW2 4173   0.620   1.537   9.476
 1205SOL     OW 4174   1.628   1.719  10.700
 1205SOL    HW1 4175   1.679   1.734  10.621
 1205SOL    HW2 4176   1.613   1.807  10.736
 1206SOL     OW 4177   1.839   0.156  10.277
 1206SOL    HW1 4178   1.868   0.079  10.228
 1206SOL    HW2 4179   1.752   0.176  10.242
 1207SOL     OW 4180   0.267   0.326  10.035
 1207SOL    HW1 4181   0.185   0.361  10.001
 1207SOL    HW2 4182   0.252   0.318  10.129
 1208SOL     OW 4183   1.205   1.608   9.341
 1208SOL    HW1 4184   1.197   1.517   9.368
 1208SOL    HW2 4185   1.141   1.618   9.271
 1209SOL     OW 4186   0.825   1.006  10.684
 1209SOL    HW1 4187   0.867   1.001  10.598
 1209SOL    HW2 4188   0.827   1.099  10.706
 1210SOL     OW 4189   0.915   0.910   9.599
 1210SOL    HW1 4190   0.977   0.942   9.534
 1210SOL    HW2 4191   0.961   0.839   9.644
 1211SOL     OW 4192   1.496   1.624   9.352
 1211SOL    HW1 4193   1.401   1.621   9.341
 1211SOL    HW2 4194   1.530   1.630   9.263
 1212SOL     OW 4195   0.369   1.306  10.805
 1212SOL    HW1 4196   0.356   1.382  10.748
 1212SOL    HW2 4197   0.295   1.249  10.785
 1213SOL     OW 4198   1.612   1.283  10.593
 1213SOL    HW1 4199   1.670   1.274  10.669
 1213SOL    HW2 4200   1.555   1.356  10.615
 1214SOL     OW 4201   1.048   1.105  10.015
 1214SOL    HW1 4202   0.978   1.054  10.055
 1214SOL    HW2 4203   1.109   1.040   9.980
 1215SOL     OW 4204   1.007   0.241  10.306
 1215SOL    HW1 4205   1.015   0.212  10.215
 1215SOL    HW2 4206   1.001   0.161  10.357
 1216SOL     OW 4207   0.602   1.489   9.793
 1216SOL    HW1 4208   0.641   1.439   9.722
 1216SOL    HW2 4209   0.533   1.541   9.752
 1217SOL     OW 4210   1.716   0.393  10.688
 1217SOL    HW1 4211   1.788   0.457  10.689
 1217SOL    HW2 4212   1.747   0.323  10.630
 1218SOL     OW 4213   0.252   1.345   9.588
 1218SOL    HW1 4214   0.157   1.347   9.573
 1218SOL    HW2 4215   0.263   1.378   9.677
 1219SOL     OW 4216   0.110   1.017  11.006
 1219SOL    HW1 4217   0.049   1.017  11.080
 1219SOL    HW2 4218   0.196   1.000  11.047
 1220SOL     OW 4219   0.657   0.198  10.803
 1220SOL    HW1 4220   0.736   0.173  10.755
 1220SOL    HW2 4221   0.689   0.224  10.890
 1221SOL     OW 4222   0.070   0.321   9.336
 1221SOL    HW1 4223   4.475   0.330   9.345
 1221SOL    HW2 4224   0.100   0.407   9.305
 1222SOL     OW 4225   1.431   0.849  10.709
 1222SOL    HW1 4226   1.383   0.916  10.660
 1222SOL    HW2 4227   1.522   0.859  10.681
 1223SOL     OW 4228   0.083   0.188   9.613
 1223SOL    HW1 4229   0.080   0.260   9.550
 1223SOL    HW2 4230   0.161   0.138   9.589
 1224SOL     OW 4231   1.180   1.342   9.427
 1224SOL    HW1 4232   1.089   1.312   9.430
 1224SOL    HW2 4233   1.209   1.341   9.518
 1225SOL     OW 4234   0.621   0.830  10.737
 1225SOL    HW1 4235   0.675   0.908  10.724
 1225SOL    HW2 4236   0.684   0.759  10.747
 1226SOL     OW 4237   1.486   1.774  10.284
 1226SOL    HW1 4238   1.513   1.832  10.214
 1226SOL    HW2 4239   1.566   1.760  10.336
 1227SOL     OW 4240   0.715   0.561  11.015
 1227SOL    HW1 4241   0.744   0.634  11.070
 1227SOL    HW2 4242   0.767   0.486  11.044
 1228SOL     OW 4243   0.384   1.736  10.869
 1228SOL    HW1 4244   0.306   1.791  10.865
 1228SOL    HW2 4245   0.359   1.663  10.926
 1229SOL     OW 4246   1.673   0.883  10.566
 1229SOL    HW1 4247   1.662   0.798  10.524
 1229SOL    HW2 4248   1.664   0.946  10.495
 1230SOL     OW 4249   1.218   0.327   9.758
 1230SOL    HW1 4250   1.283   0.257   9.749
 1230SOL    HW2 4251   1.244   0.374   9.837
 1231SOL     OW 4252   0.588   0.740   9.978
 1231SOL    HW1 4253   0.630   0.825   9.960
 1231SOL    HW2 4254   0.519   0.734   9.913
 1232SOL     OW 4255   1.756   0.316  10.948
 1232SOL    HW1 4256   1.737   0.356  10.863
 1232SOL    HW2 4257   1.677   0.330  11.000
 1233SOL     OW 4258   1.748   0.935  10.825
 1233SOL    HW1 4259   1.743   1.030  10.839
 1233SOL    HW2 4260   1.730   0.924  10.732
 1234SOL     OW 4261   0.863   1.369   9.340
 1234SOL    HW1 4262   0.823   1.395   9.423
 1234SOL    HW2 4263   0.882   1.451   9.295
 1235SOL     OW 4264   0.659   1.794  10.259
 1235SOL    HW1 4265   0.637   1.884  10.233
 1235SOL    HW2 4266   0.754   1.790  10.249
 1236SOL     OW 4267   0.866   0.965  10.166
 1236SOL    HW1 4268   0.916   0.894  10.206
 1236SOL    HW2 4269   0.833   1.016  10.240
 1237SOL     OW 4270   1.080   0.988   9.399
 1237SOL    HW1 4271   1.058   1.038   9.320
 1237SOL    HW2 4272   1.156   0.935   9.373
 1238SOL     OW 4273   1.858   1.556  10.154
 1238SOL    HW1 4274   1.780   1.546  10.101
 1238SOL    HW2 4275   1.848   1.491  10.224
 1239SOL     OW 4276   0.101   1.240   9.976
 1239SOL    HW1 4277   0.105   1.188  10.057
 1239SOL    HW2 4278   0.162   1.196   9.917
 1240SOL     OW 4279   0.678   1.394  10.934
 1240SOL    HW1 4280   0.605   1.344  10.970
 1240SOL    HW2 4281   0.651   1.485  10.942
 1241SOL     OW 4282   1.807   0.183  10.549
 1241SOL    HW1 4283   1.816   0.090  10.570
 1241SOL    HW2 4284   1.823   0.188  10.455
 1242SOL     OW 4285   0.437   0.431   9.838
 1242SOL    HW1 4286   0.458   0.360   9.778
 1242SOL    HW2 4287   0.381   0.391   9.904
 1243SOL     OW 4288   1.703   1.490  10.408
 1243SOL    HW1 4289   1.621   1.464  10.367
 1243SOL    HW2 4290   1.719   1.424  10.475
 1244SOL     OW 4291   0.309   0.505  10.569
 1244SOL    HW1 4292   0.376   0.456  10.616
 1244SOL    HW2 4293   0.341   0.511  10.479
 1245SOL     OW 4294   0.825   1.578   9.990
 1245SOL    HW1 4295   0.820   1.623   9.906
 1245SOL    HW2 4296   0.746   1.524   9.993
 1246SOL     OW 4297   1.431   0.214  10.429
 1246SOL    HW1 4298   1.471   0.147  10.483
 1246SOL    HW2 4299   1.381   0.268  10.490
 1247SOL     OW 4300   0.997   0.013  10.457
 1247SOL    HW1 4301   0.951   4.430  10.447
 1247SOL    HW2 4302   1.088   4.488  10.473
 1248SOL     OW 4303   0.771   1.332   9.620
 1248SOL    HW1 4304   0.737   1.243   9.627
 1248SOL    HW2 4305   0.854   1.330   9.668
 1249SOL     OW 4306   0.620   1.558  10.595
 1249SOL    HW1 4307   0.622   1.640  10.644
 1249SOL    HW2 4308   0.707   1.552  10.555
 1250SOL     OW 4309   1.342   0.054   9.462
 1250SOL    HW1 4310   1.382   4.480   9.416
 1250SOL    HW2 4311   1.267   0.016   9.508
 1251SOL     OW 4312   1.314   0.462   9.991
 1251SOL    HW1 4313   1.251   0.535   9.992
 1251SOL    HW2 4314   1.302   0.419  10.076
 1252SOL     OW 4315   1.586   0.203  10.178
 1252SOL    HW1 4316   1.524   0.217  10.250
 1252SOL    HW2 4317   1.589   0.287  10.132
 1253SOL     OW 4318   0.041   1.054   9.596
 1253SOL    HW1 4319   0.136   1.043   9.590
 1253SOL    HW2 4320   0.018   1.013   9.680
 1254SOL     OW 4321   0.881   1.649   9.655
 1254SOL    HW1 4322   0.810   1.631   9.593
 1254SOL    HW2 4323   0.851   1.725   9.704
 1255SOL     OW 4324   0.244   2.460   0.109
 1255SOL    HW1 4325   0.170   2.465   0.170
 1255SOL    HW2 4326   0.208   2.493   0.026
 1256SOL     OW 4327   0.213   2.138   0.992
 1256SOL    HW1 4328   0.250   2.112   1.076
 1256SOL    HW2 4329   0.137   2.081   0.980
 1257SOL     OW 4330   0.010   2.249   0.638
 1257SOL    HW1 4331   4.430   2.278   0.682
 1257SOL    HW2 4332   4.485   2.167   0.595
 1258SOL     OW 4333   0.567   3.144   1.172
 1258SOL    HW1 4334   0.479   3.148   1.134
 1258SOL    HW2 4335   0.582   3.231   1.207
 1259SOL     OW 4336   1.557   3.373   0.705
 1259SOL    HW1 4337   1.513   3.355   0.788
 1259SOL    HW2 4338   1.486   3.378   0.641
 1260SOL     OW 4339   1.129   2.561   0.704
 1260SOL    HW1 4340   1.180   2.641   0.690
 1260SOL    HW2 4341   1.083   2.577   0.786
 1261SOL     OW 4342   1.767   2.468   0.226
 1261SOL    HW1 4343   1.736   2.459   0.137
 1261SOL    HW2 4344   1.732   2.391   0.272
 1262SOL     OW 4345   0.759   3.007   1.037
 1262SOL    HW1 4346   0.689   3.039   1.093
 1262SOL    HW2 4347   0.793   3.084   0.992
 1263SOL     OW 4348   0.862   2.642   1.821
 1263SOL    HW1 4349   0.849   2.714   1.883
 1263SOL    HW2 4350   0.885   2.686   1.738
 1264SOL     OW 4351   0.686   2.870   0.649
 1264SOL    HW1 4352   0.750   2.854   0.719
 1264SOL    HW2 4353   0.616   2.919   0.692
 1265SOL     OW 4354   0.708   3.013   1.809
 1265SOL    HW1 4355   0.755   3.093   1.833
 1265SOL    HW2 4356   0.624   3.044   1.775
 1266SOL     OW 4357   0.337   3.286   1.070
 1266SOL    HW1 4358   0.256   3.266   1.023
 1266SOL    HW2 4359   0.387   3.341   1.009
 1267SOL     OW 4360   1.462   3.360   1.350
 1267SOL    HW1 4361   1.504   3.445   1.361
 1267SOL    HW2 4362   1.407   3.350   1.428
 1268SOL     OW 4363   0.442   2.266   1.496
 1268SOL    HW1 4364   0.522   2.213   1.498
 1268SOL    HW2 4365   0.371   2.202   1.499
 1269SOL     OW 4366   1.612   2.311   0.741
 1269SOL    HW1 4367   1.537   2.337   0.687
 1269SOL    HW2 4368   1.634   2.389   0.791
 1270SOL     OW 4369   0.245   3.553   0.483
 1270SOL    HW1 4370   0.234   3.640   0.523
 1270SOL    HW2 4371   0.299   3.570   0.406
 1271SOL     OW 4372   1.136   3.203   1.691
 1271SOL    HW1 4373   1.175   3.199   1.778
 1271SOL    HW2 4374   1.083   3.123   1.685
 1272SOL     OW 4375   0.242   3.290   0.529
 1272SOL    HW1 4376   0.237   3.385   0.532
 1272SOL    HW2 4377   0.175   3.260   0.591
 1273SOL     OW 4378   0.244   2.943   0.882
 1273SOL    HW1 4379   0.262   2.856   0.917
 1273SOL    HW2 4380   0.187   2.984   0.948
 1274SOL     OW 4381   0.617   3.652   1.433
 1274SOL    HW1 4382   0.533   3.635   1.475
 1274SOL    HW2 4383   0.637   3.743   1.456
 1275SOL     OW 4384   0.578   2.852   0.143
 1275SOL    HW1 4385   0.621   2.899   0.072
 1275SOL    HW2 4386   0.628   2.875   0.221
 1276SOL     OW 4387   1.591   1.982   1.469
 1276SOL    HW1 4388   1.598   2.060   1.415
 1276SOL    HW2 4389   1.585   2.015   1.559
 1277SOL     OW 4390   0.137   2.506   0.575
 1277SOL    HW1 4391   0.086   2.426   0.587
 1277SOL    HW2 4392   0.106   2.565   0.645
 1278SOL     OW 4393   1.841   3.624   0.337
 1278SOL    HW1 4394   1.901   3.593   0.405
 1278SOL    HW2 4395   1.871   3.713   0.317
 1279SOL     OW 4396   0.069   3.456   0.150
 1279SOL    HW1 4397   0.034   3.367   0.151
 1279SOL    HW2 4398   0.012   3.505   0.209
 1280SOL     OW 4399   1.690   2.781   0.638
 1280SOL    HW1 4400   1.775   2.742   0.617
 1280SOL    HW2 4401   1.668   2.832   0.560
 1281SOL     OW 4402   1.645   2.969   0.432
 1281SOL    HW1 4403   1.727   2.981   0.384
 1281SOL    HW2 4404   1.650   3.030   0.505
 1282SOL     OW 4405   0.110   2.620   1.590
 1282SOL    HW1 4406   0.205   2.622   1.577
 1282SOL    HW2 4407   0.085   2.713   1.592
 1283SOL     OW 4408   0.613   3.244   0.735
 1283SOL    HW1 4409   0.566   3.161   0.744
 1283SOL    HW2 4410   0.596   3.272   0.645
 1284SOL     OW 4411   1.291   3.101   1.424
 1284SOL    HW1 4412   1.323   3.033   1.365
 1284SOL    HW2 4413   1.346   3.093   1.502
 1285SOL     OW 4414   0.813   1.861   0.505
 1285SOL    HW1 4415   0.852   1.947   0.491
 1285SOL    HW2 4416   0.719   1.879   0.515
 1286SOL     OW 4417   0.184   2.807   1.279
 1286SOL    HW1 4418   0.275   2.789   1.256
 1286SOL    HW2 4419   0.133   2.781   1.202
 1287SOL     OW 4420   1.521   2.861   0.199
 1287SOL    HW1 4421   1.458   2.796   0.231
 1287SOL    HW2 4422   1.568   2.889   0.278
 1288SOL     OW 4423   1.186   3.666   1.620
 1288SOL    HW1 4424   1.201   3.722   1.544
 1288SOL    HW2 4425   1.200   3.577   1.587
 1289SOL     OW 4426   0.328   2.117   1.795
 1289SOL    HW1 4427   0.381   2.190   1.828
 1289SOL    HW2 4428   0.243   2.129   1.838
 1290SOL     OW 4429   1.466   3.282   0.954
 1290SOL    HW1 4430   1.397   3.295   1.019
 1290SOL    HW2 4431   1.454   3.191   0.925
 1291SOL     OW 4432   1.661   3.595   0.579
 1291SOL    HW1 4433   1.639   3.568   0.490
 1291SOL    HW2 4434   1.635   3.521   0.633
 1292SOL     OW 4435   0.596   2.583   0.263
 1292SOL    HW1 4436   0.602   2.662   0.211
 1292SOL    HW2 4437   0.532   2.604   0.331
 1293SOL     OW 4438   1.280   2.210   0.932
 1293SOL    HW1 4439   1.190   2.176   0.940
 1293SOL    HW2 4440   1.330   2.158   0.995
 1294SOL     OW 4441   1.582   3.530   0.311
 1294SOL    HW1 4442   1.671   3.564   0.305
 1294SOL    HW2 4443   1.557   3.512   0.221
 1295SOL     OW 4444   0.794   2.478   1.453
 1295SOL    HW1 4445   0.768   2.456   1.542
 1295SOL    HW2 4446   0.750   2.414   1.398
 1296SOL     OW 4447   1.393   2.336   1.678
 1296SOL    HW1 4448   1.394   2.379   1.763
 1296SOL    HW2 4449   1.458   2.266   1.686
 1297SOL     OW 4450   0.958   2.751   1.580
 1297SOL    HW1 4451   1.012   2.679   1.546
 1297SOL    HW2 4452   0.911   2.784   1.504
 1298SOL     OW 4453   0.993   2.276   1.239
 1298SOL    HW1 4454   0.910   2.299   1.282
 1298SOL    HW2 4455   0.967   2.227   1.161
 1299SOL     OW 4456   1.049   2.563   0.428
 1299SOL    HW1 4457   1.064   2.555   0.522
 1299SOL    HW2 4458   0.967   2.515   0.412
 1300SOL     OW 4459   0.098   2.685   0.783
 1300SOL    HW1 4460   0.184   2.665   0.820
 1300SOL    HW2 4461   0.054   2.735   0.852
 1301SOL     OW 4462   0.126   3.712   1.575
 1301SOL    HW1 4463   0.119   3.690   1.668
 1301SOL    HW2 4464   0.044   3.681   1.537
 1302SOL     OW 4465   0.884   2.216   0.206
 1302SOL    HW1 4466   0.934   2.270   0.144
 1302SOL    HW2 4467   0.898   2.126   0.177
 1303SOL     OW 4468   1.713   2.443   1.829
 1303SOL    HW1 4469   1.675   2.518   1.783
 1303SOL    HW2 4470   1.730   2.378   1.760
 1304SOL     OW 4471   1.375   3.004   0.542
 1304SOL    HW1 4472   1.453   2.989   0.489
 1304SOL    HW2 4473   1.323   3.066   0.492
 1305SOL     OW 4474   0.551   2.046   0.892
 1305SOL    HW1 4475   0.553   2.074   0.984
 1305SOL    HW2 4476   0.552   2.128   0.842
 1306SOL     OW 4477   1.009   3.309   0.475
 1306SOL    HW1 4478   0.967   3.379   0.426
 1306SOL    HW2 4479   0.993   3.331   0.567
 1307SOL     OW 4480   0.354   3.669   0.857
 1307SOL    HW1 4481   0.397   3.584   0.866
 1307SOL    HW2 4482   0.424   3.733   0.868
 1308SOL     OW 4483   1.799   2.921   0.867
 1308SOL    HW1 4484   1.742   2.906   0.791
 1308SOL    HW2 4485   1.738   2.926   0.942
 1309SOL     OW 4486   1.228   3.402   1.512
 1309SOL    HW1 4487   1.214   3.329   1.572
 1309SOL    HW2 4488   1.167   3.385   1.440
 1310SOL     OW 4489   0.315   2.818   0.276
 1310SOL    HW1 4490   0.398   2.845   0.237
 1310SOL    HW2 4491   0.303   2.728   0.246
 1311SOL     OW 4492   1.475   2.600   0.728
 1311SOL    HW1 4493   1.464   2.554   0.811
 1311SOL    HW2 4494   1.551   2.656   0.741
 1312SOL     OW 4495   0.465   3.123   1.735
 1312SOL    HW1 4496   0.437   3.129   1.644
 1312SOL    HW2 4497   0.384   3.128   1.786
 1313SOL     OW 4498   1.107   3.640   0.227
 1313SOL    HW1 4499   1.050   3.588   0.282
 1313SOL    HW2 4500   1.147   3.577   0.166
 1314SOL     OW 4501   0.195   2.140   1.488
 1314SOL    HW1 4502   0.131   2.211   1.492
 1314SOL    HW2 4503   0.186   2.095   1.572
 1315SOL     OW 4504   1.629   3.237   0.088
 1315SOL    HW1 4505   1.586   3.322   0.076
 1315SOL    HW2 4506   1.562   3.173   0.062
 1316SOL     OW 4507   0.470   3.604   0.316
 1316SOL    HW1 4508   0.506   3.659   0.387
 1316SOL    HW2 4509   0.546   3.579   0.265
 1317SOL     OW 4510   1.401   1.970   0.430
 1317SOL    HW1 4511   1.391   1.946   0.337
 1317SOL    HW2 4512   1.496   1.978   0.442
 1318SOL     OW 4513   0.260   3.656   1.234
 1318SOL    HW1 4514   0.306   3.583   1.275
 1318SOL    HW2 4515   0.229   3.621   1.150
 1319SOL     OW 4516   0.939   3.560   0.900
 1319SOL    HW1 4517   1.015   3.506   0.921
 1319SOL    HW2 4518   0.892   3.512   0.832
 1320SOL     OW 4519   0.391   2.557   0.473
 1320SOL    HW1 4520   0.417   2.465   0.484
 1320SOL    HW2 4521   0.300   2.560   0.502
 1321SOL     OW 4522   1.538   2.086   1.726
 1321SOL    HW1 4523   1.544   2.107   1.820
 1321SOL    HW2 4524   1.470   2.019   1.721
 1322SOL     OW 4525   0.613   1.970   0.122
 1322SOL    HW1 4526   0.704   1.942   0.123
 1322SOL    HW2 4527   0.584   1.954   0.032
 1323SOL     OW 4528   0.769   2.137   1.752
 1323SOL    HW1 4529   0.841   2.075   1.760
 1323SOL    HW2 4530   0.718   2.125   1.833
 1324SOL     OW 4531   0.878   3.384   1.193
 1324SOL    HW1 4532   0.862   3.347   1.106
 1324SOL    HW2 4533   0.946   3.328   1.230
 1325SOL     OW 4534   1.341   2.451   1.432
 1325SOL    HW1 4535   1.372   2.418   1.516
 1325SOL    HW2 4536   1.378   2.539   1.426
 1326SOL     OW 4537   0.813   3.260   0.936
 1326SOL    HW1 4538   0.897   3.250   0.890
 1326SOL    HW2 4539   0.747   3.258   0.866
 1327SOL     OW 4540   0.926   2.371   0.904
 1327SOL    HW1 4541   0.904   2.363   0.811
 1327SOL    HW2 4542   0.960   2.285   0.928
 1328SOL     OW 4543   0.550   1.923   0.506
 1328SOL    HW1 4544   0.468   1.922   0.556
 1328SOL    HW2 4545   0.545   2.002   0.452
 1329SOL     OW 4546   1.427   3.058   0.032
 1329SOL    HW1 4547   1.460   2.986   0.084
 1329SOL    HW2 4548   1.343   3.081   0.073
 1330SOL     OW 4549   0.287   1.910   0.192
 1330SOL    HW1 4550   0.337   1.962   0.129
 1330SOL    HW2 4551   0.348   1.844   0.223
 1331SOL     OW 4552   0.937   2.105   0.464
 1331SOL    HW1 4553   0.907   2.152   0.387
 1331SOL    HW2 4554   1.032   2.120   0.466
 1332SOL     OW 4555   1.080   2.541   1.460
 1332SOL    HW1 4556   1.009   2.476   1.466
 1332SOL    HW2 4557   1.160   2.489   1.452
 1333SOL     OW 4558   1.225   3.431   0.794
 1333SOL    HW1 4559   1.243   3.499   0.728
 1333SOL    HW2 4560   1.293   3.443   0.860
 1334SOL     OW 4561   0.466   3.009   0.740
 1334SOL    HW1 4562   0.393   2.991   0.800
 1334SOL    HW2 4563   0.430   2.995   0.653
 1335SOL     OW 4564   1.271   3.657   0.604
 1335SOL    HW1 4565   1.316   3.719   0.546
 1335SOL    HW2 4566   1.207   3.711   0.651
 1336SOL     OW 4567   1.015   2.401   0.033
 1336SOL    HW1 4568   0.983   2.488   0.008
 1336SOL    HW2 4569   1.093   2.418   0.086
 1337SOL     OW 4570   0.080   2.396   1.406
 1337SOL    HW1 4571   0.149   2.397   1.341
 1337SOL    HW2 4572   0.068   2.488   1.430
 1338SOL     OW 4573   0.562   2.089   1.164
 1338SOL    HW1 4574   0.601   2.008   1.196
 1338SOL    HW2 4575   0.470   2.084   1.191
 1339SOL     OW 4576   0.870   2.322   0.640
 1339SOL    HW1 4577   0.823   2.376   0.576
 1339SOL    HW2 4578   0.888   2.240   0.594
 1340SOL     OW 4579   1.014   1.914   0.754
 1340SOL    HW1 4580   0.955   1.907   0.679
 1340SOL    HW2 4581   0.994   1.838   0.808
 1341SOL     OW 4582   1.436   3.026   0.858
 1341SOL    HW1 4583   1.368   2.958   0.856
 1341SOL    HW2 4584   1.458   3.040   0.766
 1342SOL     OW 4585   1.467   2.464   0.982
 1342SOL    HW1 4586   1.420   2.381   0.985
 1342SOL    HW2 4587   1.527   2.461   1.056
 1343SOL     OW 4588   1.850   2.679   0.382
 1343SOL    HW1 4589   1.904   2.625   0.439
 1343SOL    HW2 4590   1.819   2.618   0.314
 1344SOL     OW 4591   0.494   3.283   0.175
 1344SOL    HW1 4592   0.415   3.257   0.223
 1344SOL    HW2 4593   0.486   3.239   0.090
 1345SOL     OW 4594   1.668   3.127   0.651
 1345SOL    HW1 4595   1.763   3.134   0.661
 1345SOL    HW2 4596   1.636   3.215   0.670
 1346SOL     OW 4597   1.390   2.442   0.079
 1346SOL    HW1 4598   1.332   2.417   0.151
 1346SOL    HW2 4599   1.464   2.380   0.086
 1347SOL     OW 4600   0.529   2.124   0.328
 1347SOL    HW1 4601   0.555   2.066   0.257
 1347SOL    HW2 4602   0.513   2.209   0.285
 1348SOL     OW 4603   1.753   3.098   1.576
 1348SOL    HW1 4604   1.841   3.059   1.574
 1348SOL    HW2 4605   1.768   3.188   1.606
 1349SOL     OW 4606   1.061   3.216   1.335
 1349SOL    HW1 4607   0.986   3.184   1.386
 1349SOL    HW2 4608   1.137   3.174   1.376
 1350SOL     OW 4609   1.605   3.487   1.651
 1350SOL    HW1 4610   1.603   3.521   1.561
 1350SOL    HW2 4611   1.689   3.441   1.657
 1351SOL     OW 4612   1.125   3.063   1.107
 1351SOL    HW1 4613   1.067   3.101   1.173
 1351SOL    HW2 4614   1.090   3.094   1.023
 1352SOL     OW 4615   1.632   2.962   1.078
 1352SOL    HW1 4616   1.627   3.024   1.151
 1352SOL    HW2 4617   1.551   2.977   1.029
 1353SOL     OW 4618   0.917   1.961   1.399
 1353SOL    HW1 4619   0.940   1.941   1.308
 1353SOL    HW2 4620   0.997   2.000   1.436
 1354SOL     OW 4621   0.984   2.976   1.722
 1354SOL    HW1 4622   0.891   2.991   1.741
 1354SOL    HW2 4623   0.985   2.899   1.666
 1355SOL     OW 4624   0.709   2.921   0.373
 1355SOL    HW1 4625   0.695   2.908   0.467
 1355SOL    HW2 4626   0.786   2.868   0.353
 1356SOL     OW 4627   0.429   2.684   1.238
 1356SOL    HW1 4628   0.497   2.696   1.304
 1356SOL    HW2 4629   0.369   2.620   1.277
 1357SOL     OW 4630   1.268   2.241   1.272
 1357SOL    HW1 4631   1.299   2.318   1.319
 1357SOL    HW2 4632   1.178   2.263   1.247
 1358SOL     OW 4633   0.061   3.437   1.338
 1358SOL    HW1 4634   0.032   3.525   1.315
 1358SOL    HW2 4635   0.156   3.444   1.346
 1359SOL     OW 4636   0.354   2.974   0.498
 1359SOL    HW1 4637   0.355   3.048   0.437
 1359SOL    HW2 4638   0.348   2.896   0.442
 1360SOL     OW 4639   0.562   2.397   0.858
 1360SOL    HW1 4640   0.576   2.457   0.784
 1360SOL    HW2 4641   0.621   2.430   0.926
 1361SOL     OW 4642   1.247   3.208   0.393
 1361SOL    HW1 4643   1.303   3.281   0.421
 1361SOL    HW2 4644   1.160   3.231   0.425
 1362SOL     OW 4645   1.277   3.317   1.146
 1362SOL    HW1 4646   1.331   3.319   1.224
 1362SOL    HW2 4647   1.221   3.240   1.156
 1363SOL     OW 4648   1.585   2.489   0.476
 1363SOL    HW1 4649   1.539   2.543   0.541
 1363SOL    HW2 4650   1.624   2.553   0.416
 1364SOL     OW 4651   0.348   3.390   1.318
 1364SOL    HW1 4652   0.333   3.344   1.236
 1364SOL    HW2 4653   0.443   3.401   1.323
 1365SOL     OW 4654   0.471   2.621   1.659
 1365SOL    HW1 4655   0.501   2.661   1.578
 1365SOL    HW2 4656   0.504   2.531   1.655
 1366SOL     OW 4657   1.598   2.640   1.680
 1366SOL    HW1 4658   1.511   2.680   1.672
 1366SOL    HW2 4659   1.649   2.682   1.611
 1367SOL     OW 4660   0.997   1.979   1.757
 1367SOL    HW1 4661   1.047   2.053   1.723
 1367SOL    HW2 4662   1.046   1.902   1.730
 1368SOL     OW 4663   0.498   1.906   1.745
 1368SOL    HW1 4664   0.459   1.850   1.679
 1368SOL    HW2 4665   0.437   1.979   1.755
 1369SOL     OW 4666   0.588   2.735   1.024
 1369SOL    HW1 4667   0.616   2.827   1.026
 1369SOL    HW2 4668   0.531   2.726   1.100
 1370SOL     OW 4669   1.361   2.721   1.034
 1370SOL    HW1 4670   1.280   2.715   0.983
 1370SOL    HW2 4671   1.398   2.633   1.032
 1371SOL     OW 4672   1.205   2.389   0.272
 1371SOL    HW1 4673   1.214   2.311   0.327
 1371SOL    HW2 4674   1.164   2.454   0.328
 1372SOL     OW 4675   0.303   2.056   1.241
 1372SOL    HW1 4676   0.265   2.091   1.322
 1372SOL    HW2 4677   0.285   1.962   1.244
 1373SOL     OW 4678   0.048   3.175   1.283
 1373SOL    HW1 4679   0.078   3.128   1.361
 1373SOL    HW2 4680   0.049   3.267   1.309
 1374SOL     OW 4681   0.727   2.495   1.061
 1374SOL    HW1 4682   0.799   2.475   1.001
 1374SOL    HW2 4683   0.700   2.583   1.038
 1375SOL     OW 4684   1.732   2.822   1.850
 1375SOL    HW1 4685   1.686   2.765   1.789
 1375SOL    HW2 4686   1.673   2.833   1.924
 1376SOL     OW 4687   0.308   1.933   0.620
 1376SOL    HW1 4688   0.287   2.021   0.649
 1376SOL    HW2 4689   0.303   1.879   0.699
 1377SOL     OW 4690   1.613   2.233   0.369
 1377SOL    HW1 4691   1.642   2.171   0.436
 1377SOL    HW2 4692   1.590   2.312   0.419
 1378SOL     OW 4693   1.027   2.622   0.962
 1378SOL    HW1 4694   1.027   2.640   1.056
 1378SOL    HW2 4695   1.000   2.530   0.955
 1379SOL     OW 4696   0.983   3.429   1.714
 1379SOL    HW1 4697   0.967   3.472   1.630
 1379SOL    HW2 4698   1.025   3.346   1.690
 1380SOL     OW 4699   1.856   3.372   1.606
 1380SOL    HW1 4700   1.873   3.397   1.515
 1380SOL    HW2 4701   1.938   3.393   1.652
 1381SOL     OW 4702   0.348   2.792   1.818
 1381SOL    HW1 4703   0.423   2.819   1.871
 1381SOL    HW2 4704   0.383   2.726   1.758
 1382SOL     OW 4705   1.536   2.146   0.119
 1382SOL    HW1 4706   1.475   2.074   0.136
 1382SOL    HW2 4707   1.567   2.174   0.205
 1383SOL     OW 4708   1.290   2.688   0.034
 1383SOL    HW1 4709   1.333   2.603   0.045
 1383SOL    HW2 4710   1.323   2.720  11.050
 1384SOL     OW 4711   1.065   3.197   0.852
 1384SOL    HW1 4712   1.068   3.124   0.790
 1384SOL    HW2 4713   1.128   3.260   0.817
 1385SOL     OW 4714   0.317   2.675   0.950
 1385SOL    HW1 4715   0.411   2.692   0.946
 1385SOL    HW2 4716   0.310   2.584   0.980
 1386SOL     OW 4717   0.334   2.385   0.994
 1386SOL    HW1 4718   0.295   2.299   0.978
 1386SOL    HW2 4719   0.411   2.387   0.937
 1387SOL     OW 4720   1.134   2.241   1.679
 1387SOL    HW1 4721   1.089   2.296   1.743
 1387SOL    HW2 4722   1.223   2.277   1.675
 1388SOL     OW 4723   1.159   2.067   1.470
 1388SOL    HW1 4724   1.151   2.129   1.542
 1388SOL    HW2 4725   1.198   2.117   1.398
 1389SOL     OW 4726   4.495   3.186   0.197
 1389SOL    HW1 4727   4.401   3.203   0.188
 1389SOL    HW2 4728   0.001   3.095   0.224
 1390SOL     OW 4729   0.094   3.644   0.940
 1390SOL    HW1 4730   0.056   3.584   0.876
 1390SOL    HW2 4731   0.182   3.663   0.906
 1391SOL     OW 4732   0.499   3.435   0.906
 1391SOL    HW1 4733   0.567   3.497   0.930
 1391SOL    HW2 4734   0.544   3.370   0.852
 1392SOL     OW 4735   0.989   2.657   1.228
 1392SOL    HW1 4736   1.041   2.631   1.304
 1392SOL    HW2 4737   0.901   2.621   1.246
 1393SOL     OW 4738   0.037   2.423   1.106
 1393SOL    HW1 4739   0.119   2.386   1.074
 1393SOL    HW2 4740   0.028   2.387   1.195
 1394SOL     OW 4741   0.179   2.377   1.713
 1394SOL    HW1 4742   0.258   2.349   1.666
 1394SOL    HW2 4743   0.153   2.458   1.670
 1395SOL     OW 4744   1.375   2.804   1.659
 1395SOL    HW1 4745   1.396   2.897   1.659
 1395SOL    HW2 4746   1.374   2.780   1.567
 1396SOL     OW 4747   0.815   2.435   0.360
 1396SOL    HW1 4748   0.823   2.360   0.301
 1396SOL    HW2 4749   0.739   2.484   0.327
 1397SOL     OW 4750   1.641   2.464   1.191
 1397SOL    HW1 4751   1.632   2.401   1.262
 1397SOL    HW2 4752   1.729   2.447   1.155
 1398SOL     OW 4753   0.272   3.423   1.742
 1398SOL    HW1 4754   0.218   3.476   1.801
 1398SOL    HW2 4755   0.250   3.333   1.765
 1399SOL     OW 4756   0.685   2.319   1.265
 1399SOL    HW1 4757   0.644   2.240   1.229
 1399SOL    HW2 4758   0.690   2.379   1.191
 1400SOL     OW 4759   0.931   3.541   1.466
 1400SOL    HW1 4760   0.903   3.510   1.379
 1400SOL    HW2 4761   0.929   3.636   1.459
 1401SOL     OW 4762   0.476   2.348   0.186
 1401SOL    HW1 4763   0.532   2.422   0.207
 1401SOL    HW2 4764   0.389   2.385   0.171
 1402SOL     OW 4765   0.162   3.003   1.463
 1402SOL    HW1 4766   0.148   2.954   1.545
 1402SOL    HW2 4767   0.171   2.935   1.396
 1403SOL     OW 4768   1.330   2.911   1.225
 1403SOL    HW1 4769   1.354   2.848   1.157
 1403SOL    HW2 4770   1.257   2.961   1.188
 1404SOL     OW 4771   1.306   2.715   0.310
 1404SOL    HW1 4772   1.228   2.684   0.356
 1404SOL    HW2 4773   1.286   2.702   0.218
 1405SOL     OW 4774   1.768   3.609   1.148
 1405SOL    HW1 4775   1.828   3.635   1.078
 1405SOL    HW2 4776   1.744   3.519   1.128
 1406SOL     OW 4777   1.242   3.595   1.118
 1406SOL    HW1 4778   1.323   3.613   1.070
 1406SOL    HW2 4779   1.244   3.501   1.135
 1407SOL     OW 4780   0.068   3.051   1.048
 1407SOL    HW1 4781   0.073   3.086   1.137
 1407SOL    HW2 4782   0.011   3.112   1.001
 1408SOL     OW 4783   0.679   3.526   1.725
 1408SOL    HW1 4784   0.626   3.605   1.721
 1408SOL    HW2 4785   0.740   3.535   1.651
 1409SOL     OW 4786   0.916   1.954   0.113
 1409SOL    HW1 4787   0.968   1.920   0.040
 1409SOL    HW2 4788   0.952   1.911   0.190
 1410SOL     OW 4789   1.719   2.004   0.513
 1410SOL    HW1 4790   1.791   1.989   0.452
 1410SOL    HW2 4791   1.703   1.918   0.552
 1411SOL     OW 4792   1.389   3.430   0.483
 1411SOL    HW1 4793   1.451   3.460   0.416
 1411SOL    HW2 4794   1.344   3.509   0.511
 1412SOL     OW 4795   0.121   3.669   1.847
 1412SOL    HW1 4796   0.082   3.595   1.894
 1412SOL    HW2 4797   0.184   3.706   1.909
 1413SOL     OW 4798   1.277   2.787   0.671
 1413SOL    HW1 4799   1.350   2.725   0.675
 1413SOL    HW2 4800   1.310   2.860   0.619
 1414SOL     OW 4801   0.819   3.134   1.431
 1414SOL    HW1 4802   0.793   3.173   1.515
 1414SOL    HW2 4803   0.747   3.156   1.372
 1415SOL     OW 4804   0.676   3.479   0.165
 1415SOL    HW1 4805   0.681   3.489   0.070
 1415SOL    HW2 4806   0.618   3.404   0.178
 1416SOL     OW 4807   1.634   3.588   1.392
 1416SOL    HW1 4808   1.680   3.596   1.309
 1416SOL    HW2 4809   1.620   3.679   1.421
 1417SOL     OW 4810   1.845   2.044   0.966
 1417SOL    HW1 4811   1.879   1.958   0.940
 1417SOL    HW2 4812   1.758   2.049   0.926
 1418SOL     OW 4813   0.267   2.183   0.720
 1418SOL    HW1 4814   0.184   2.222   0.691
 1418SOL    HW2 4815   0.255   2.170   0.814
 1419SOL     OW 4816   1.221   3.466   0.049
 1419SOL    HW1 4817   1.209   3.373   0.071
 1419SOL    HW2 4818   1.154   3.485  11.084
 1420SOL     OW 4819   0.825   2.868   1.372
 1420SOL    HW1 4820   0.867   2.866   1.286
 1420SOL    HW2 4821   0.826   2.961   1.396
 1421SOL     OW 4822   0.914   2.770   0.283
 1421SOL    HW1 4823   0.982   2.808   0.227
 1421SOL    HW2 4824   0.960   2.702   0.333
 1422SOL     OW 4825   1.500   3.484   0.046
 1422SOL    HW1 4826   1.404   3.481   0.041
 1422SOL    HW2 4827   1.528   3.496  11.055
 1423SOL     OW 4828   0.373   3.166   1.491
 1423SOL    HW1 4829   0.356   3.245   1.439
 1423SOL    HW2 4830   0.297   3.111   1.475
 1424SOL     OW 4831   1.613   3.145   1.281
 1424SOL    HW1 4832   1.670   3.138   1.357
 1424SOL    HW2 4833   1.551   3.215   1.305
 1425SOL     OW 4834   1.048   2.967   0.704
 1425SOL    HW1 4835   0.978   2.916   0.745
 1425SOL    HW2 4836   1.109   2.902   0.671
 1426SOL     OW 4837   1.019   2.102   0.966
 1426SOL    HW1 4838   1.014   2.054   0.883
 1426SOL    HW2 4839   1.015   2.034   1.033
 1427SOL     OW 4840   0.602   3.353   0.484
 1427SOL    HW1 4841   0.638   3.302   0.412
 1427SOL    HW2 4842   0.531   3.404   0.444
 1428SOL     OW 4843   1.716   2.256   1.379
 1428SOL    HW1 4844   1.791   2.315   1.381
 1428SOL    HW2 4845   1.746   2.181   1.327
 1429SOL     OW 4846   0.261   3.195   0.284
 1429SOL    HW1 4847   0.173   3.208   0.249
 1429SOL    HW2 4848   0.258   3.235   0.371
 1430SOL     OW 4849   0.118   2.870   1.696
 1430SOL    HW1 4850   0.052   2.906   1.755
 1430SOL    HW2 4851   0.195   2.857   1.751
 1431SOL     OW 4852   0.672   2.061   1.498
 1431SOL    HW1 4853   0.756   2.040   1.456
 1431SOL    HW2 4854   0.696   2.087   1.587
 1432SOL     OW 4855   0.060   2.201   0.007
 1432SOL    HW1 4856   4.469   2.195   0.036
 1432SOL    HW2 4857   0.081   2.295   0.010
 1433SOL     OW 4858   1.433   2.721   1.402
 1433SOL    HW1 4859   1.384   2.780   1.344
 1433SOL    HW2 4860   1.522   2.724   1.369
 1434SOL     OW 4861   0.079   2.035   0.307
 1434SOL    HW1 4862   0.083   2.115   0.254
 1434SOL    HW2 4863   0.154   1.984   0.279
 1435SOL     OW 4864   1.181   3.205   0.121
 1435SOL    HW1 4865   1.088   3.181   0.118
 1435SOL    HW2 4866   1.204   3.198   0.214
 1436SOL     OW 4867   0.620   2.693   1.428
 1436SOL    HW1 4868   0.675   2.771   1.416
 1436SOL    HW2 4869   0.682   2.621   1.438
 1437SOL     OW 4870   1.485   3.636   0.975
 1437SOL    HW1 4871   1.512   3.693   0.902
 1437SOL    HW2 4872   1.566   3.621   1.024
 1438SOL     OW 4873   0.716   2.425   1.705
 1438SOL    HW1 4874   0.749   2.490   1.766
 1438SOL    HW2 4875   0.755   2.342   1.735
 1439SOL     OW 4876   1.468   3.066   1.633
 1439SOL    HW1 4877   1.456   3.078   1.727
 1439SOL    HW2 4878   1.562   3.077   1.619
 1440SOL     OW 4879   0.383   3.604   1.564
 1440SOL    HW1 4880   0.297   3.644   1.549
 1440SOL    HW2 4881   0.364   3.522   1.609
 1441SOL     OW 4882   1.673   2.744   1.255
 1441SOL    HW1 4883   1.662   2.659   1.214
 1441SOL    HW2 4884   1.663   2.807   1.184
 1442SOL     OW 4885   1.218   2.180   0.458
 1442SOL    HW1 4886   1.283   2.111   0.448
 1442SOL    HW2 4887   1.247   2.229   0.536
 1443SOL     OW 4888   0.591   2.602   0.667
 1443SOL    HW1 4889   0.630   2.688   0.650
 1443SOL    HW2 4890   0.520   2.595   0.603
 1444SOL     OW 4891   1.755   2.234   1.657
 1444SOL    HW1 4892   1.755   2.233   1.561
 1444SOL    HW2 4893   1.687   2.170   1.681
 1445SOL     OW 4894   1.743   2.796   1.513
 1445SOL    HW1 4895   1.745   2.891   1.525
 1445SOL    HW2 4896   1.728   2.785   1.419
 1446SOL     OW 4897   0.895   3.220   0.059
 1446SOL    HW1 4898   0.826   3.224   0.125
 1446SOL    HW2 4899   0.890   3.305   0.014
 1447SOL     OW 4900   0.659   3.656   0.950
 1447SOL    HW1 4901   0.637   3.745   0.923
 1447SOL    HW2 4902   0.754   3.652   0.939
 1448SOL     OW 4903   0.866   2.827   0.856
 1448SOL    HW1 4904   0.916   2.756   0.897
 1448SOL    HW2 4905   0.833   2.878   0.929
 1449SOL     OW 4906   1.080   2.852   0.086
 1449SOL    HW1 4907   1.057   2.887   0.000
 1449SOL    HW2 4908   1.157   2.797   0.070
 1450SOL     OW 4909   1.856   3.419   0.846
 1450SOL    HW1 4910   1.781   3.408   0.789
 1450SOL    HW2 4911   1.847   3.350   0.912
 1451SOL     OW 4912   0.228   3.169   1.856
 1451SOL    HW1 4913   0.159   3.107   1.831
 1451SOL    HW2 4914   0.218   3.179   1.951
 1452SOL     OW 4915   0.099   3.100   0.666
 1452SOL    HW1 4916   0.106   3.049   0.747
 1452SOL    HW2 4917   0.164   3.060   0.608
 1453SOL     OW 4918   0.680   3.262   1.626
 1453SOL    HW1 4919   0.600   3.218   1.654
 1453SOL    HW2 4920   0.674   3.350   1.663
 1454SOL     OW 4921   1.806   2.054   1.232
 1454SOL    HW1 4922   1.839   1.969   1.261
 1454SOL    HW2 4923   1.821   2.054   1.137
 1455SOL     OW 4924   0.433   2.296   0.525
 1455SOL    HW1 4925   0.460   2.223   0.469
 1455SOL    HW2 4926   0.384   2.255   0.596
 1456SOL     OW 4927   1.701   3.353   1.101
 1456SOL    HW1 4928   1.620   3.327   1.057
 1456SOL    HW2 4929   1.716   3.285   1.166
 1457SOL     OW 4930   0.306   2.352   1.258
 1457SOL    HW1 4931   0.379   2.311   1.304
 1457SOL    HW2 4932   0.338   2.365   1.168
 1458SOL     OW 4933   0.825   3.440   0.680
 1458SOL    HW1 4934   0.818   3.484   0.595
 1458SOL    HW2 4935   0.746   3.385   0.684
 1459SOL     OW 4936   1.432   2.085   1.118
 1459SOL    HW1 4937   1.466   2.010   1.166
 1459SOL    HW2 4938   1.380   2.133   1.182
 1460SOL     OW 4939   1.008   1.883   1.146
 1460SOL    HW1 4940   0.953   1.814   1.108
 1460SOL    HW2 4941   1.096   1.846   1.148
 1461SOL     OW 4942   0.768   3.191   0.312
 1461SOL    HW1 4943   0.736   3.101   0.324
 1461SOL    HW2 4944   0.853   3.193   0.356
 1462SOL     OW 4945   0.621   3.420   1.284
 1462SOL    HW1 4946   0.624   3.501   1.335
 1462SOL    HW2 4947   0.708   3.414   1.245
 1463SOL     OW 4948   1.351   1.915   0.165
 1463SOL    HW1 4949   1.373   1.867   0.084
 1463SOL    HW2 4950   1.265   1.882   0.189
 1464SOL     OW 4951   1.297   2.322   0.683
 1464SOL    HW1 4952   1.243   2.400   0.692
 1464SOL    HW2 4953   1.295   2.281   0.770
 1465SOL     OW 4954   1.588   2.066   0.877
 1465SOL    HW1 4955   1.524   2.084   0.946
 1465SOL    HW2 4956   1.588   2.145   0.823
 1466SOL     OW 4957   0.039   2.911   0.282
 1466SOL    HW1 4958   0.135   2.913   0.286
 1466SOL    HW2 4959   0.012   2.873   0.366
 1467SOL     OW 4960   0.882   3.512   0.347
 1467SOL    HW1 4961   0.812   3.491   0.286
 1467SOL    HW2 4962   0.850   3.587   0.397
 1468SOL     OW 4963   0.248   2.489   1.980
 1468SOL    HW1 4964   0.173   2.475   2.037
 1468SOL    HW2 4965   0.217   2.468   1.892
 1469SOL     OW 4966   0.213   2.138   2.854
 1469SOL    HW1 4967   0.250   2.111   2.938
 1469SOL    HW2 4968   0.137   2.081   2.842
 1470SOL     OW 4969   0.010   2.249   2.501
 1470SOL    HW1 4970   4.429   2.279   2.544
 1470SOL    HW2 4971   4.484   2.169   2.455
 1471SOL     OW 4972   0.567   3.144   3.034
 1471SOL    HW1 4973   0.479   3.148   2.996
 1471SOL    HW2 4974   0.582   3.231   3.069
 1472SOL     OW 4975   1.557   3.373   2.567
 1472SOL    HW1 4976   1.513   3.356   2.650
 1472SOL    HW2 4977   1.487   3.379   2.503
 1473SOL     OW 4978   1.129   2.561   2.566
 1473SOL    HW1 4979   1.180   2.641   2.551
 1473SOL    HW2 4980   1.083   2.577   2.648
 1474SOL     OW 4981   1.766   2.468   2.092
 1474SOL    HW1 4982   1.745   2.460   1.999
 1474SOL    HW2 4983   1.730   2.390   2.133
 1475SOL     OW 4984   0.759   3.007   2.899
 1475SOL    HW1 4985   0.689   3.040   2.955
 1475SOL    HW2 4986   0.793   3.084   2.854
 1476SOL     OW 4987   0.863   2.642   3.683
 1476SOL    HW1 4988   0.848   2.714   3.744
 1476SOL    HW2 4989   0.885   2.685   3.600
 1477SOL     OW 4990   0.686   2.870   2.511
 1477SOL    HW1 4991   0.750   2.854   2.581
 1477SOL    HW2 4992   0.616   2.919   2.554
 1478SOL     OW 4993   0.708   3.014   3.671
 1478SOL    HW1 4994   0.755   3.093   3.695
 1478SOL    HW2 4995   0.624   3.044   3.637
 1479SOL     OW 4996   0.337   3.286   2.932
 1479SOL    HW1 4997   0.256   3.266   2.885
 1479SOL    HW2 4998   0.387   3.341   2.871
 1480SOL     OW 4999   1.462   3.360   3.212
 1480SOL    HW1 5000   1.504   3.445   3.223
 1480SOL    HW2 5001   1.407   3.350   3.290
 1481SOL     OW 5002   0.442   2.266   3.358
 1481SOL    HW1 5003   0.522   2.213   3.360
 1481SOL    HW2 5004   0.371   2.202   3.361
 1482SOL     OW 5005   1.610   2.312   2.603
 1482SOL    HW1 5006   1.536   2.339   2.550
 1482SOL    HW2 5007   1.635   2.391   2.651
 1483SOL     OW 5008   0.246   3.554   2.342
 1483SOL    HW1 5009   0.233   3.638   2.385
 1483SOL    HW2 5010   0.306   3.572   2.270
 1484SOL     OW 5011   1.136   3.203   3.553
 1484SOL    HW1 5012   1.175   3.199   3.640
 1484SOL    HW2 5013   1.082   3.123   3.547
 1485SOL     OW 5014   0.244   3.290   2.390
 1485SOL    HW1 5015   0.236   3.385   2.396
 1485SOL    HW2 5016   0.179   3.257   2.453
 1486SOL     OW 5017   0.245   2.943   2.744
 1486SOL    HW1 5018   0.263   2.856   2.779
 1486SOL    HW2 5019   0.188   2.984   2.810
 1487SOL     OW 5020   0.617   3.652   3.295
 1487SOL    HW1 5021   0.533   3.635   3.337
 1487SOL    HW2 5022   0.637   3.743   3.318
 1488SOL     OW 5023   0.585   2.845   1.996
 1488SOL    HW1 5024   0.629   2.893   1.926
 1488SOL    HW2 5025   0.630   2.871   2.076
 1489SOL     OW 5026   1.590   1.981   3.333
 1489SOL    HW1 5027   1.598   2.058   3.276
 1489SOL    HW2 5028   1.584   2.017   3.421
 1490SOL     OW 5029   0.137   2.505   2.437
 1490SOL    HW1 5030   0.086   2.425   2.449
 1490SOL    HW2 5031   0.106   2.564   2.506
 1491SOL     OW 5032   1.841   3.623   2.199
 1491SOL    HW1 5033   1.900   3.594   2.269
 1491SOL    HW2 5034   1.869   3.713   2.181
 1492SOL     OW 5035   0.033   3.462   1.997
 1492SOL    HW1 5036   0.021   3.367   2.000
 1492SOL    HW2 5037   0.009   3.492   2.085
 1493SOL     OW 5038   1.691   2.782   2.500
 1493SOL    HW1 5039   1.774   2.739   2.480
 1493SOL    HW2 5040   1.669   2.831   2.420
 1494SOL     OW 5041   1.644   2.970   2.292
 1494SOL    HW1 5042   1.729   2.978   2.249
 1494SOL    HW2 5043   1.649   3.030   2.366
 1495SOL     OW 5044   0.110   2.621   3.452
 1495SOL    HW1 5045   0.205   2.622   3.439
 1495SOL    HW2 5046   0.085   2.713   3.454
 1496SOL     OW 5047   0.613   3.243   2.598
 1496SOL    HW1 5048   0.566   3.160   2.606
 1496SOL    HW2 5049   0.596   3.271   2.507
 1497SOL     OW 5050   1.291   3.101   3.286
 1497SOL    HW1 5051   1.323   3.033   3.227
 1497SOL    HW2 5052   1.346   3.093   3.364
 1498SOL     OW 5053   0.812   1.860   2.367
 1498SOL    HW1 5054   0.853   1.946   2.352
 1498SOL    HW2 5055   0.719   1.879   2.378
 1499SOL     OW 5056   0.184   2.807   3.141
 1499SOL    HW1 5057   0.275   2.789   3.117
 1499SOL    HW2 5058   0.133   2.781   3.064
 1500SOL     OW 5059   1.532   2.853   2.058
 1500SOL    HW1 5060   1.462   2.795   2.087
 1500SOL    HW2 5061   1.570   2.887   2.139
 1501SOL     OW 5062   1.186   3.666   3.482
 1501SOL    HW1 5063   1.200   3.722   3.406
 1501SOL    HW2 5064   1.200   3.577   3.449
 1502SOL     OW 5065   0.328   2.117   3.657
 1502SOL    HW1 5066   0.381   2.190   3.690
 1502SOL    HW2 5067   0.243   2.129   3.700
 1503SOL     OW 5068   1.466   3.281   2.816
 1503SOL    HW1 5069   1.397   3.295   2.881
 1503SOL    HW2 5070   1.454   3.191   2.788
 1504SOL     OW 5071   1.662   3.594   2.440
 1504SOL    HW1 5072   1.638   3.567   2.351
 1504SOL    HW2 5073   1.635   3.521   2.495
 1505SOL     OW 5074   0.597   2.585   2.126
 1505SOL    HW1 5075   0.603   2.664   2.073
 1505SOL    HW2 5076   0.531   2.604   2.193
 1506SOL     OW 5077   1.279   2.211   2.795
 1506SOL    HW1 5078   1.190   2.177   2.802
 1506SOL    HW2 5079   1.330   2.158   2.857
 1507SOL     OW 5080   1.582   3.530   2.171
 1507SOL    HW1 5081   1.670   3.565   2.165
 1507SOL    HW2 5082   1.556   3.513   2.080
 1508SOL     OW 5083   0.795   2.478   3.315
 1508SOL    HW1 5084   0.768   2.456   3.404
 1508SOL    HW2 5085   0.750   2.414   3.260
 1509SOL     OW 5086   1.394   2.336   3.539
 1509SOL    HW1 5087   1.394   2.379   3.625
 1509SOL    HW2 5088   1.457   2.265   3.548
 1510SOL     OW 5089   0.958   2.751   3.442
 1510SOL    HW1 5090   1.012   2.679   3.408
 1510SOL    HW2 5091   0.911   2.784   3.366
 1511SOL     OW 5092   0.993   2.276   3.102
 1511SOL    HW1 5093   0.910   2.299   3.144
 1511SOL    HW2 5094   0.967   2.227   3.023
 1512SOL     OW 5095   1.049   2.561   2.289
 1512SOL    HW1 5096   1.064   2.554   2.383
 1512SOL    HW2 5097   0.968   2.513   2.274
 1513SOL     OW 5098   0.098   2.685   2.645
 1513SOL    HW1 5099   0.184   2.665   2.681
 1513SOL    HW2 5100   0.054   2.734   2.715
 1514SOL     OW 5101   0.127   3.711   3.437
 1514SOL    HW1 5102   0.119   3.690   3.530
 1514SOL    HW2 5103   0.044   3.682   3.399
 1515SOL     OW 5104   0.886   2.208   2.056
 1515SOL    HW1 5105   0.930   2.269   1.997
 1515SOL    HW2 5106   0.905   2.121   2.020
 1516SOL     OW 5107   1.712   2.442   3.691
 1516SOL    HW1 5108   1.675   2.517   3.645
 1516SOL    HW2 5109   1.732   2.379   3.622
 1517SOL     OW 5110   1.375   3.005   2.405
 1517SOL    HW1 5111   1.453   2.990   2.351
 1517SOL    HW2 5112   1.322   3.067   2.354
 1518SOL     OW 5113   0.550   2.047   2.754
 1518SOL    HW1 5114   0.553   2.074   2.846
 1518SOL    HW2 5115   0.552   2.128   2.704
 1519SOL     OW 5116   1.009   3.308   2.336
 1519SOL    HW1 5117   0.968   3.379   2.287
 1519SOL    HW2 5118   0.994   3.331   2.428
 1520SOL     OW 5119   0.354   3.669   2.718
 1520SOL    HW1 5120   0.397   3.584   2.729
 1520SOL    HW2 5121   0.424   3.733   2.730
 1521SOL     OW 5122   1.799   2.922   2.729
 1521SOL    HW1 5123   1.742   2.905   2.653
 1521SOL    HW2 5124   1.738   2.927   2.803
 1522SOL     OW 5125   1.228   3.402   3.374
 1522SOL    HW1 5126   1.214   3.329   3.434
 1522SOL    HW2 5127   1.167   3.385   3.302
 1523SOL     OW 5128   0.317   2.816   2.111
 1523SOL    HW1 5129   0.402   2.838   2.071
 1523SOL    HW2 5130   0.299   2.727   2.081
 1524SOL     OW 5131   1.475   2.600   2.590
 1524SOL    HW1 5132   1.463   2.554   2.673
 1524SOL    HW2 5133   1.552   2.656   2.604
 1525SOL     OW 5134   0.465   3.123   3.597
 1525SOL    HW1 5135   0.437   3.129   3.506
 1525SOL    HW2 5136   0.384   3.128   3.648
 1526SOL     OW 5137   1.120   3.639   2.094
 1526SOL    HW1 5138   1.049   3.596   2.141
 1526SOL    HW2 5139   1.142   3.580   2.022
 1527SOL     OW 5140   0.195   2.140   3.350
 1527SOL    HW1 5141   0.131   2.211   3.354
 1527SOL    HW2 5142   0.185   2.094   3.433
 1528SOL     OW 5143   1.630   3.241   1.949
 1528SOL    HW1 5144   1.588   3.326   1.934
 1528SOL    HW2 5145   1.560   3.177   1.930
 1529SOL     OW 5146   0.469   3.607   2.176
 1529SOL    HW1 5147   0.508   3.658   2.247
 1529SOL    HW2 5148   0.544   3.575   2.125
 1530SOL     OW 5149   1.401   1.970   2.292
 1530SOL    HW1 5150   1.389   1.944   2.200
 1530SOL    HW2 5151   1.495   1.978   2.303
 1531SOL     OW 5152   0.260   3.656   3.096
 1531SOL    HW1 5153   0.306   3.583   3.137
 1531SOL    HW2 5154   0.229   3.621   3.013
 1532SOL     OW 5155   0.939   3.560   2.762
 1532SOL    HW1 5156   1.015   3.506   2.783
 1532SOL    HW2 5157   0.892   3.512   2.694
 1533SOL     OW 5158   0.392   2.557   2.337
 1533SOL    HW1 5159   0.417   2.466   2.346
 1533SOL    HW2 5160   0.300   2.560   2.363
 1534SOL     OW 5161   1.539   2.089   3.589
 1534SOL    HW1 5162   1.544   2.108   3.682
 1534SOL    HW2 5163   1.472   2.020   3.583
 1535SOL     OW 5164   0.629   1.989   1.968
 1535SOL    HW1 5165   0.704   1.930   1.981
 1535SOL    HW2 5166   0.585   1.954   1.890
 1536SOL     OW 5167   0.769   2.138   3.615
 1536SOL    HW1 5168   0.841   2.075   3.622
 1536SOL    HW2 5169   0.718   2.124   3.694
 1537SOL     OW 5170   0.878   3.384   3.055
 1537SOL    HW1 5171   0.862   3.347   2.968
 1537SOL    HW2 5172   0.946   3.328   3.092
 1538SOL     OW 5173   1.342   2.451   3.294
 1538SOL    HW1 5174   1.372   2.418   3.378
 1538SOL    HW2 5175   1.377   2.539   3.288
 1539SOL     OW 5176   0.813   3.261   2.798
 1539SOL    HW1 5177   0.897   3.250   2.752
 1539SOL    HW2 5178   0.747   3.258   2.728
 1540SOL     OW 5179   0.926   2.371   2.766
 1540SOL    HW1 5180   0.904   2.363   2.674
 1540SOL    HW2 5181   0.960   2.285   2.790
 1541SOL     OW 5182   0.550   1.924   2.367
 1541SOL    HW1 5183   0.469   1.923   2.418
 1541SOL    HW2 5184   0.544   2.003   2.313
 1542SOL     OW 5185   1.429   3.060   1.903
 1542SOL    HW1 5186   1.460   2.984   1.953
 1542SOL    HW2 5187   1.342   3.079   1.940
 1543SOL     OW 5188   0.295   1.908   2.040
 1543SOL    HW1 5189   0.357   1.976   2.013
 1543SOL    HW2 5190   0.349   1.842   2.084
 1544SOL     OW 5191   0.936   2.106   2.326
 1544SOL    HW1 5192   0.907   2.149   2.246
 1544SOL    HW2 5193   1.031   2.118   2.327
 1545SOL     OW 5194   1.080   2.541   3.322
 1545SOL    HW1 5195   1.009   2.477   3.328
 1545SOL    HW2 5196   1.160   2.489   3.314
 1546SOL     OW 5197   1.225   3.431   2.655
 1546SOL    HW1 5198   1.243   3.499   2.590
 1546SOL    HW2 5199   1.293   3.443   2.722
 1547SOL     OW 5200   0.465   3.009   2.600
 1547SOL    HW1 5201   0.393   2.991   2.660
 1547SOL    HW2 5202   0.428   2.993   2.513
 1548SOL     OW 5203   1.271   3.657   2.467
 1548SOL    HW1 5204   1.315   3.718   2.408
 1548SOL    HW2 5205   1.207   3.710   2.514
 1549SOL     OW 5206   1.026   2.407   1.881
 1549SOL    HW1 5207   0.983   2.491   1.860
 1549SOL    HW2 5208   1.090   2.429   1.949
 1550SOL     OW 5209   0.080   2.396   3.269
 1550SOL    HW1 5210   0.149   2.397   3.203
 1550SOL    HW2 5211   0.068   2.488   3.292
 1551SOL     OW 5212   0.562   2.089   3.026
 1551SOL    HW1 5213   0.601   2.008   3.058
 1551SOL    HW2 5214   0.470   2.084   3.053
 1552SOL     OW 5215   0.870   2.322   2.502
 1552SOL    HW1 5216   0.822   2.375   2.439
 1552SOL    HW2 5217   0.889   2.240   2.455
 1553SOL     OW 5218   1.014   1.915   2.616
 1553SOL    HW1 5219   0.956   1.906   2.541
 1553SOL    HW2 5220   0.994   1.838   2.670
 1554SOL     OW 5221   1.436   3.026   2.720
 1554SOL    HW1 5222   1.368   2.958   2.718
 1554SOL    HW2 5223   1.458   3.039   2.628
 1555SOL     OW 5224   1.467   2.465   2.844
 1555SOL    HW1 5225   1.420   2.381   2.847
 1555SOL    HW2 5226   1.528   2.460   2.918
 1556SOL     OW 5227   1.848   2.680   2.244
 1556SOL    HW1 5228   1.903   2.627   2.302
 1556SOL    HW2 5229   1.819   2.620   2.176
 1557SOL     OW 5230   0.493   3.275   2.024
 1557SOL    HW1 5231   0.416   3.245   2.074
 1557SOL    HW2 5232   0.470   3.256   1.933
 1558SOL     OW 5233   1.668   3.128   2.511
 1558SOL    HW1 5234   1.763   3.134   2.523
 1558SOL    HW2 5235   1.635   3.215   2.532
 1559SOL     OW 5236   1.394   2.434   1.933
 1559SOL    HW1 5237   1.334   2.415   2.006
 1559SOL    HW2 5238   1.478   2.400   1.963
 1560SOL     OW 5239   0.525   2.122   2.183
 1560SOL    HW1 5240   0.567   2.074   2.112
 1560SOL    HW2 5241   0.509   2.210   2.146
 1561SOL     OW 5242   1.753   3.098   3.438
 1561SOL    HW1 5243   1.841   3.059   3.437
 1561SOL    HW2 5244   1.768   3.188   3.468
 1562SOL     OW 5245   1.061   3.216   3.197
 1562SOL    HW1 5246   0.986   3.185   3.248
 1562SOL    HW2 5247   1.137   3.174   3.238
 1563SOL     OW 5248   1.605   3.487   3.513
 1563SOL    HW1 5249   1.603   3.521   3.423
 1563SOL    HW2 5250   1.689   3.441   3.519
 1564SOL     OW 5251   1.125   3.064   2.969
 1564SOL    HW1 5252   1.067   3.101   3.035
 1564SOL    HW2 5253   1.090   3.094   2.885
 1565SOL     OW 5254   1.632   2.962   2.940
 1565SOL    HW1 5255   1.627   3.024   3.013
 1565SOL    HW2 5256   1.551   2.976   2.891
 1566SOL     OW 5257   0.917   1.961   3.261
 1566SOL    HW1 5258   0.940   1.941   3.170
 1566SOL    HW2 5259   0.997   2.000   3.298
 1567SOL     OW 5260   0.984   2.976   3.584
 1567SOL    HW1 5261   0.891   2.991   3.603
 1567SOL    HW2 5262   0.985   2.899   3.528
 1568SOL     OW 5263   0.708   2.922   2.235
 1568SOL    HW1 5264   0.695   2.908   2.328
 1568SOL    HW2 5265   0.784   2.869   2.212
 1569SOL     OW 5266   0.429   2.684   3.100
 1569SOL    HW1 5267   0.497   2.696   3.166
 1569SOL    HW2 5268   0.369   2.620   3.139
 1570SOL     OW 5269   1.268   2.240   3.134
 1570SOL    HW1 5270   1.299   2.318   3.181
 1570SOL    HW2 5271   1.178   2.263   3.108
 1571SOL     OW 5272   0.061   3.437   3.200
 1571SOL    HW1 5273   0.032   3.526   3.177
 1571SOL    HW2 5274   0.156   3.444   3.208
 1572SOL     OW 5275   0.352   2.968   2.356
 1572SOL    HW1 5276   0.359   3.041   2.295
 1572SOL    HW2 5277   0.354   2.890   2.300
 1573SOL     OW 5278   0.562   2.397   2.719
 1573SOL    HW1 5279   0.576   2.457   2.646
 1573SOL    HW2 5280   0.621   2.430   2.788
 1574SOL     OW 5281   1.248   3.210   2.252
 1574SOL    HW1 5282   1.303   3.282   2.282
 1574SOL    HW2 5283   1.161   3.230   2.285
 1575SOL     OW 5284   1.277   3.317   3.007
 1575SOL    HW1 5285   1.331   3.319   3.086
 1575SOL    HW2 5286   1.221   3.240   3.018
 1576SOL     OW 5287   1.582   2.488   2.337
 1576SOL    HW1 5288   1.538   2.544   2.401
 1576SOL    HW2 5289   1.629   2.548   2.280
 1577SOL     OW 5290   0.348   3.390   3.180
 1577SOL    HW1 5291   0.333   3.344   3.098
 1577SOL    HW2 5292   0.443   3.401   3.185
 1578SOL     OW 5293   0.472   2.621   3.521
 1578SOL    HW1 5294   0.501   2.661   3.440
 1578SOL    HW2 5295   0.504   2.531   3.517
 1579SOL     OW 5296   1.598   2.640   3.542
 1579SOL    HW1 5297   1.511   2.680   3.534
 1579SOL    HW2 5298   1.650   2.682   3.473
 1580SOL     OW 5299   0.997   1.979   3.619
 1580SOL    HW1 5300   1.047   2.053   3.585
 1580SOL    HW2 5301   1.046   1.902   3.592
 1581SOL     OW 5302   0.498   1.907   3.607
 1581SOL    HW1 5303   0.459   1.850   3.541
 1581SOL    HW2 5304   0.436   1.979   3.617
 1582SOL     OW 5305   0.588   2.735   2.886
 1582SOL    HW1 5306   0.616   2.827   2.888
 1582SOL    HW2 5307   0.531   2.726   2.962
 1583SOL     OW 5308   1.361   2.721   2.896
 1583SOL    HW1 5309   1.280   2.715   2.845
 1583SOL    HW2 5310   1.398   2.633   2.893
 1584SOL     OW 5311   1.208   2.391   2.132
 1584SOL    HW1 5312   1.215   2.313   2.186
 1584SOL    HW2 5313   1.165   2.455   2.188
 1585SOL     OW 5314   0.303   2.056   3.103
 1585SOL    HW1 5315   0.265   2.091   3.184
 1585SOL    HW2 5316   0.285   1.963   3.106
 1586SOL     OW 5317   0.048   3.174   3.145
 1586SOL    HW1 5318   0.078   3.128   3.224
 1586SOL    HW2 5319   0.049   3.267   3.171
 1587SOL     OW 5320   0.727   2.495   2.923
 1587SOL    HW1 5321   0.799   2.475   2.863
 1587SOL    HW2 5322   0.699   2.583   2.899
 1588SOL     OW 5323   1.732   2.822   3.713
 1588SOL    HW1 5324   1.686   2.765   3.651
 1588SOL    HW2 5325   1.672   2.833   3.786
 1589SOL     OW 5326   0.308   1.932   2.481
 1589SOL    HW1 5327   0.287   2.021   2.510
 1589SOL    HW2 5328   0.303   1.879   2.561
 1590SOL     OW 5329   1.613   2.234   2.232
 1590SOL    HW1 5330   1.641   2.171   2.299
 1590SOL    HW2 5331   1.590   2.313   2.280
 1591SOL     OW 5332   1.027   2.622   2.824
 1591SOL    HW1 5333   1.027   2.639   2.918
 1591SOL    HW2 5334   1.000   2.530   2.817
 1592SOL     OW 5335   0.983   3.429   3.576
 1592SOL    HW1 5336   0.967   3.473   3.492
 1592SOL    HW2 5337   1.025   3.346   3.552
 1593SOL     OW 5338   1.856   3.372   3.468
 1593SOL    HW1 5339   1.872   3.397   3.377
 1593SOL    HW2 5340   1.937   3.393   3.514
 1594SOL     OW 5341   0.348   2.792   3.680
 1594SOL    HW1 5342   0.423   2.819   3.733
 1594SOL    HW2 5343   0.383   2.726   3.620
 1595SOL     OW 5344   1.531   2.136   1.990
 1595SOL    HW1 5345   1.467   2.070   2.016
 1595SOL    HW2 5346   1.563   2.172   2.072
 1596SOL     OW 5347   1.295   2.690   1.895
 1596SOL    HW1 5348   1.337   2.603   1.899
 1596SOL    HW2 5349   1.325   2.728   1.813
 1597SOL     OW 5350   1.065   3.197   2.714
 1597SOL    HW1 5351   1.068   3.124   2.653
 1597SOL    HW2 5352   1.128   3.260   2.679
 1598SOL     OW 5353   0.317   2.675   2.812
 1598SOL    HW1 5354   0.411   2.692   2.807
 1598SOL    HW2 5355   0.310   2.584   2.842
 1599SOL     OW 5356   0.334   2.385   2.856
 1599SOL    HW1 5357   0.295   2.299   2.840
 1599SOL    HW2 5358   0.411   2.387   2.799
 1600SOL     OW 5359   1.135   2.241   3.541
 1600SOL    HW1 5360   1.089   2.296   3.605
 1600SOL    HW2 5361   1.223   2.277   3.537
 1601SOL     OW 5362   1.159   2.067   3.332
 1601SOL    HW1 5363   1.151   2.129   3.403
 1601SOL    HW2 5364   1.198   2.117   3.260
 1602SOL     OW 5365   4.492   3.185   2.063
 1602SOL    HW1 5366   4.399   3.200   2.045
 1602SOL    HW2 5367   4.498   3.093   2.087
 1603SOL     OW 5368   0.095   3.644   2.802
 1603SOL    HW1 5369   0.057   3.583   2.739
 1603SOL    HW2 5370   0.182   3.663   2.768
 1604SOL     OW 5371   0.499   3.435   2.768
 1604SOL    HW1 5372   0.567   3.497   2.792
 1604SOL    HW2 5373   0.544   3.370   2.714
 1605SOL     OW 5374   0.989   2.657   3.091
 1605SOL    HW1 5375   1.041   2.631   3.167
 1605SOL    HW2 5376   0.902   2.621   3.108
 1606SOL     OW 5377   0.037   2.423   2.969
 1606SOL    HW1 5378   0.119   2.386   2.936
 1606SOL    HW2 5379   0.028   2.387   3.057
 1607SOL     OW 5380   0.179   2.377   3.575
 1607SOL    HW1 5381   0.258   2.349   3.528
 1607SOL    HW2 5382   0.153   2.458   3.532
 1608SOL     OW 5383   1.375   2.804   3.522
 1608SOL    HW1 5384   1.396   2.897   3.521
 1608SOL    HW2 5385   1.373   2.779   3.429
 1609SOL     OW 5386   0.816   2.431   2.216
 1609SOL    HW1 5387   0.818   2.355   2.157
 1609SOL    HW2 5388   0.741   2.482   2.187
 1610SOL     OW 5389   1.646   2.464   3.051
 1610SOL    HW1 5390   1.635   2.402   3.123
 1610SOL    HW2 5391   1.733   2.445   3.016
 1611SOL     OW 5392   0.272   3.423   3.604
 1611SOL    HW1 5393   0.218   3.477   3.662
 1611SOL    HW2 5394   0.250   3.333   3.627
 1612SOL     OW 5395   0.686   2.319   3.127
 1612SOL    HW1 5396   0.644   2.240   3.091
 1612SOL    HW2 5397   0.690   2.379   3.053
 1613SOL     OW 5398   0.931   3.541   3.328
 1613SOL    HW1 5399   0.903   3.510   3.241
 1613SOL    HW2 5400   0.929   3.636   3.321
 1614SOL     OW 5401   0.473   2.353   2.051
 1614SOL    HW1 5402   0.531   2.426   2.071
 1614SOL    HW2 5403   0.387   2.393   2.037
 1615SOL     OW 5404   0.162   3.003   3.325
 1615SOL    HW1 5405   0.148   2.954   3.407
 1615SOL    HW2 5406   0.171   2.935   3.258
 1616SOL     OW 5407   1.330   2.911   3.087
 1616SOL    HW1 5408   1.353   2.848   3.019
 1616SOL    HW2 5409   1.257   2.961   3.050
 1617SOL     OW 5410   1.308   2.719   2.170
 1617SOL    HW1 5411   1.231   2.688   2.218
 1617SOL    HW2 5412   1.286   2.705   2.078
 1618SOL     OW 5413   1.767   3.609   3.010
 1618SOL    HW1 5414   1.828   3.635   2.940
 1618SOL    HW2 5415   1.744   3.518   2.990
 1619SOL     OW 5416   1.242   3.595   2.980
 1619SOL    HW1 5417   1.323   3.613   2.932
 1619SOL    HW2 5418   1.244   3.501   2.997
 1620SOL     OW 5419   0.069   3.051   2.909
 1620SOL    HW1 5420   0.074   3.086   2.999
 1620SOL    HW2 5421   0.011   3.112   2.863
 1621SOL     OW 5422   0.679   3.526   3.587
 1621SOL    HW1 5423   0.625   3.605   3.584
 1621SOL    HW2 5424   0.740   3.535   3.513
 1622SOL     OW 5425   1.719   2.003   2.376
 1622SOL    HW1 5426   1.790   1.987   2.314
 1622SOL    HW2 5427   1.701   1.918   2.415
 1623SOL     OW 5428   1.390   3.430   2.345
 1623SOL    HW1 5429   1.450   3.460   2.277
 1623SOL    HW2 5430   1.343   3.508   2.372
 1624SOL     OW 5431   0.121   3.669   3.709
 1624SOL    HW1 5432   0.082   3.595   3.756
 1624SOL    HW2 5433   0.184   3.706   3.771
 1625SOL     OW 5434   1.277   2.786   2.533
 1625SOL    HW1 5435   1.350   2.724   2.537
 1625SOL    HW2 5436   1.311   2.859   2.481
 1626SOL     OW 5437   0.819   3.134   3.293
 1626SOL    HW1 5438   0.793   3.173   3.377
 1626SOL    HW2 5439   0.747   3.156   3.234
 1627SOL     OW 5440   0.673   3.478   2.017
 1627SOL    HW1 5441   0.681   3.489   1.922
 1627SOL    HW2 5442   0.620   3.399   2.028
 1628SOL     OW 5443   1.634   3.588   3.255
 1628SOL    HW1 5444   1.680   3.596   3.171
 1628SOL    HW2 5445   1.620   3.679   3.283
 1629SOL     OW 5446   1.805   2.005   2.832
 1629SOL    HW1 5447   1.845   1.930   2.788
 1629SOL    HW2 5448   1.725   2.023   2.782
 1630SOL     OW 5449   0.267   2.182   2.582
 1630SOL    HW1 5450   0.184   2.221   2.552
 1630SOL    HW2 5451   0.255   2.170   2.676
 1631SOL     OW 5452   1.205   3.470   1.893
 1631SOL    HW1 5453   1.197   3.379   1.921
 1631SOL    HW2 5454   1.141   3.480   1.823
 1632SOL     OW 5455   0.825   2.868   3.234
 1632SOL    HW1 5456   0.867   2.866   3.148
 1632SOL    HW2 5457   0.826   2.961   3.258
 1633SOL     OW 5458   0.915   2.773   2.151
 1633SOL    HW1 5459   0.977   2.804   2.085
 1633SOL    HW2 5460   0.962   2.701   2.195
 1634SOL     OW 5461   1.495   3.486   1.904
 1634SOL    HW1 5462   1.400   3.483   1.893
 1634SOL    HW2 5463   1.530   3.492   1.815
 1635SOL     OW 5464   0.373   3.166   3.353
 1635SOL    HW1 5465   0.356   3.245   3.301
 1635SOL    HW2 5466   0.297   3.111   3.337
 1636SOL     OW 5467   1.613   3.146   3.143
 1636SOL    HW1 5468   1.670   3.138   3.219
 1636SOL    HW2 5469   1.551   3.215   3.167
 1637SOL     OW 5470   1.048   2.967   2.567
 1637SOL    HW1 5471   0.978   2.916   2.607
 1637SOL    HW2 5472   1.108   2.902   2.532
 1638SOL     OW 5473   1.019   2.102   2.828
 1638SOL    HW1 5474   1.014   2.054   2.745
 1638SOL    HW2 5475   1.014   2.034   2.895
 1639SOL     OW 5476   0.603   3.352   2.345
 1639SOL    HW1 5477   0.641   3.301   2.274
 1639SOL    HW2 5478   0.532   3.402   2.304
 1640SOL     OW 5479   1.717   2.257   3.246
 1640SOL    HW1 5480   1.791   2.318   3.241
 1640SOL    HW2 5481   1.744   2.182   3.192
 1641SOL     OW 5482   0.252   3.207   2.140
 1641SOL    HW1 5483   0.158   3.208   2.125
 1641SOL    HW2 5484   0.262   3.240   2.229
 1642SOL     OW 5485   0.118   2.870   3.558
 1642SOL    HW1 5486   0.052   2.906   3.617
 1642SOL    HW2 5487   0.195   2.857   3.613
 1643SOL     OW 5488   0.672   2.061   3.360
 1643SOL    HW1 5489   0.756   2.040   3.318
 1643SOL    HW2 5490   0.696   2.087   3.449
 1644SOL     OW 5491   0.072   2.189   1.896
 1644SOL    HW1 5492   4.477   2.197   1.892
 1644SOL    HW2 5493   0.105   2.270   1.857
 1645SOL     OW 5494   1.433   2.721   3.264
 1645SOL    HW1 5495   1.384   2.780   3.207
 1645SOL    HW2 5496   1.522   2.724   3.231
 1646SOL     OW 5497   0.084   2.040   2.169
 1646SOL    HW1 5498   0.078   2.111   2.105
 1646SOL    HW2 5499   0.160   1.989   2.141
 1647SOL     OW 5500   1.180   3.204   1.979
 1647SOL    HW1 5501   1.089   3.174   1.982
 1647SOL    HW2 5502   1.209   3.203   2.070
 1648SOL     OW 5503   0.620   2.693   3.290
 1648SOL    HW1 5504   0.675   2.771   3.278
 1648SOL    HW2 5505   0.682   2.621   3.300
 1649SOL     OW 5506   1.485   3.636   2.837
 1649SOL    HW1 5507   1.511   3.693   2.764
 1649SOL    HW2 5508   1.566   3.621   2.886
 1650SOL     OW 5509   0.716   2.425   3.567
 1650SOL    HW1 5510   0.749   2.490   3.628
 1650SOL    HW2 5511   0.754   2.342   3.597
 1651SOL     OW 5512   1.468   3.066   3.495
 1651SOL    HW1 5513   1.456   3.078   3.589
 1651SOL    HW2 5514   1.562   3.077   3.481
 1652SOL     OW 5515   0.383   3.604   3.425
 1652SOL    HW1 5516   0.297   3.644   3.411
 1652SOL    HW2 5517   0.364   3.522   3.471
 1653SOL     OW 5518   1.673   2.744   3.117
 1653SOL    HW1 5519   1.663   2.659   3.076
 1653SOL    HW2 5520   1.663   2.807   3.046
 1654SOL     OW 5521   1.219   2.182   2.319
 1654SOL    HW1 5522   1.282   2.111   2.310
 1654SOL    HW2 5523   1.247   2.230   2.397
 1655SOL     OW 5524   0.591   2.602   2.529
 1655SOL    HW1 5525   0.630   2.688   2.512
 1655SOL    HW2 5526   0.521   2.594   2.465
 1656SOL     OW 5527   1.763   2.228   3.517
 1656SOL    HW1 5528   1.749   2.238   3.423
 1656SOL    HW2 5529   1.692   2.170   3.546
 1657SOL     OW 5530   1.743   2.796   3.375
 1657SOL    HW1 5531   1.745   2.891   3.387
 1657SOL    HW2 5532   1.728   2.784   3.281
 1658SOL     OW 5533   0.864   3.231   1.892
 1658SOL    HW1 5534   0.823   3.256   1.975
 1658SOL    HW2 5535   0.882   3.314   1.848
 1659SOL     OW 5536   0.659   3.656   2.811
 1659SOL    HW1 5537   0.637   3.746   2.785
 1659SOL    HW2 5538   0.754   3.652   2.801
 1660SOL     OW 5539   0.866   2.827   2.718
 1660SOL    HW1 5540   0.916   2.756   2.759
 1660SOL    HW2 5541   0.833   2.878   2.792
 1661SOL     OW 5542   1.080   2.850   1.951
 1661SOL    HW1 5543   1.058   2.900   1.872
 1661SOL    HW2 5544   1.156   2.797   1.925
 1662SOL     OW 5545   1.857   3.418   2.707
 1662SOL    HW1 5546   1.780   3.408   2.651
 1662SOL    HW2 5547   1.847   3.351   2.774
 1663SOL     OW 5548   0.228   3.169   3.718
 1663SOL    HW1 5549   0.159   3.107   3.693
 1663SOL    HW2 5550   0.218   3.179   3.813
 1664SOL     OW 5551   0.101   3.102   2.528
 1664SOL    HW1 5552   0.105   3.050   2.609
 1664SOL    HW2 5553   0.162   3.058   2.469
 1665SOL     OW 5554   0.681   3.262   3.488
 1665SOL    HW1 5555   0.600   3.218   3.516
 1665SOL    HW2 5556   0.674   3.350   3.525
 1666SOL     OW 5557   1.789   2.046   3.103
 1666SOL    HW1 5558   1.835   1.967   3.133
 1666SOL    HW2 5559   1.798   2.044   3.008
 1667SOL     OW 5560   0.435   2.295   2.387
 1667SOL    HW1 5561   0.458   2.221   2.330
 1667SOL    HW2 5562   0.384   2.255   2.458
 1668SOL     OW 5563   1.702   3.353   2.962
 1668SOL    HW1 5564   1.620   3.328   2.919
 1668SOL    HW2 5565   1.716   3.285   3.028
 1669SOL     OW 5566   0.306   2.352   3.120
 1669SOL    HW1 5567   0.379   2.311   3.166
 1669SOL    HW2 5568   0.338   2.365   3.030
 1670SOL     OW 5569   0.825   3.440   2.542
 1670SOL    HW1 5570   0.819   3.484   2.457
 1670SOL    HW2 5571   0.746   3.386   2.546
 1671SOL     OW 5572   1.433   2.086   2.979
 1671SOL    HW1 5573   1.466   2.010   3.027
 1671SOL    HW2 5574   1.381   2.134   3.043
 1672SOL     OW 5575   1.008   1.883   3.008
 1672SOL    HW1 5576   0.953   1.814   2.970
 1672SOL    HW2 5577   1.096   1.846   3.010
 1673SOL     OW 5578   0.771   3.194   2.172
 1673SOL    HW1 5579   0.737   3.105   2.178
 1673SOL    HW2 5580   0.854   3.192   2.220
 1674SOL     OW 5581   0.621   3.420   3.146
 1674SOL    HW1 5582   0.623   3.501   3.197
 1674SOL    HW2 5583   0.708   3.414   3.107
 1675SOL     OW 5584   1.352   1.915   2.026
 1675SOL    HW1 5585   1.377   1.857   1.954
 1675SOL    HW2 5586   1.266   1.884   2.053
 1676SOL     OW 5587   1.297   2.322   2.545
 1676SOL    HW1 5588   1.243   2.400   2.554
 1676SOL    HW2 5589   1.295   2.281   2.632
 1677SOL     OW 5590   1.569   2.066   2.726
 1677SOL    HW1 5591   1.515   2.087   2.802
 1677SOL    HW2 5592   1.577   2.149   2.679
 1678SOL     OW 5593   0.041   2.916   2.149
 1678SOL    HW1 5594   0.136   2.905   2.142
 1678SOL    HW2 5595   0.018   2.874   2.232
 1679SOL     OW 5596   0.881   3.511   2.207
 1679SOL    HW1 5597   0.810   3.493   2.145
 1679SOL    HW2 5598   0.851   3.588   2.256
 1680SOL     OW 5599   0.249   2.489   3.842
 1680SOL    HW1 5600   0.173   2.475   3.899
 1680SOL    HW2 5601   0.217   2.467   3.754
 1681SOL     OW 5602   0.213   2.138   4.716
 1681SOL    HW1 5603   0.250   2.112   4.800
 1681SOL    HW2 5604   0.137   2.082   4.704
 1682SOL     OW 5605   0.010   2.249   4.363
 1682SOL    HW1 5606   4.430   2.278   4.406
 1682SOL    HW2 5607   4.484   2.169   4.317
 1683SOL     OW 5608   0.567   3.144   4.896
 1683SOL    HW1 5609   0.479   3.148   4.858
 1683SOL    HW2 5610   0.582   3.231   4.932
 1684SOL     OW 5611   1.556   3.373   4.429
 1684SOL    HW1 5612   1.512   3.357   4.513
 1684SOL    HW2 5613   1.486   3.379   4.365
 1685SOL     OW 5614   1.131   2.560   4.430
 1685SOL    HW1 5615   1.179   2.642   4.413
 1685SOL    HW2 5616   1.083   2.576   4.510
 1686SOL     OW 5617   1.767   2.468   3.954
 1686SOL    HW1 5618   1.746   2.460   3.861
 1686SOL    HW2 5619   1.730   2.390   3.995
 1687SOL     OW 5620   0.760   3.007   4.761
 1687SOL    HW1 5621   0.689   3.039   4.817
 1687SOL    HW2 5622   0.793   3.085   4.716
 1688SOL     OW 5623   0.862   2.642   5.545
 1688SOL    HW1 5624   0.849   2.714   5.608
 1688SOL    HW2 5625   0.885   2.686   5.463
 1689SOL     OW 5626   0.687   2.870   4.374
 1689SOL    HW1 5627   0.750   2.854   4.444
 1689SOL    HW2 5628   0.616   2.919   4.416
 1690SOL     OW 5629   0.708   3.014   5.533
 1690SOL    HW1 5630   0.755   3.093   5.557
 1690SOL    HW2 5631   0.624   3.044   5.499
 1691SOL     OW 5632   0.337   3.286   4.794
 1691SOL    HW1 5633   0.255   3.266   4.747
 1691SOL    HW2 5634   0.386   3.341   4.733
 1692SOL     OW 5635   1.463   3.361   5.074
 1692SOL    HW1 5636   1.504   3.446   5.086
 1692SOL    HW2 5637   1.408   3.350   5.151
 1693SOL     OW 5638   0.442   2.266   5.219
 1693SOL    HW1 5639   0.522   2.213   5.222
 1693SOL    HW2 5640   0.371   2.203   5.223
 1694SOL     OW 5641   1.623   2.317   4.450
 1694SOL    HW1 5642   1.537   2.332   4.410
 1694SOL    HW2 5643   1.632   2.387   4.514
 1695SOL     OW 5644   0.246   3.554   4.204
 1695SOL    HW1 5645   0.233   3.638   4.247
 1695SOL    HW2 5646   0.306   3.572   4.132
 1696SOL     OW 5647   1.136   3.203   5.415
 1696SOL    HW1 5648   1.174   3.200   5.502
 1696SOL    HW2 5649   1.082   3.123   5.409
 1697SOL     OW 5650   0.244   3.290   4.252
 1697SOL    HW1 5651   0.236   3.385   4.258
 1697SOL    HW2 5652   0.179   3.257   4.315
 1698SOL     OW 5653   0.245   2.943   4.607
 1698SOL    HW1 5654   0.262   2.856   4.641
 1698SOL    HW2 5655   0.188   2.984   4.672
 1699SOL     OW 5656   0.617   3.652   5.157
 1699SOL    HW1 5657   0.533   3.634   5.199
 1699SOL    HW2 5658   0.637   3.743   5.180
 1700SOL     OW 5659   0.585   2.844   3.858
 1700SOL    HW1 5660   0.629   2.893   3.788
 1700SOL    HW2 5661   0.630   2.871   3.938
 1701SOL     OW 5662   0.137   2.505   4.299
 1701SOL    HW1 5663   0.086   2.425   4.311
 1701SOL    HW2 5664   0.106   2.564   4.368
 1702SOL     OW 5665   1.842   3.624   4.061
 1702SOL    HW1 5666   1.900   3.595   4.131
 1702SOL    HW2 5667   1.869   3.713   4.042
 1703SOL     OW 5668   0.033   3.462   3.859
 1703SOL    HW1 5669   0.021   3.367   3.862
 1703SOL    HW2 5670   0.009   3.492   3.947
 1704SOL     OW 5671   1.691   2.777   4.356
 1704SOL    HW1 5672   1.777   2.742   4.332
 1704SOL    HW2 5673   1.664   2.829   4.279
 1705SOL     OW 5674   1.644   2.969   4.154
 1705SOL    HW1 5675   1.728   2.978   4.110
 1705SOL    HW2 5676   1.649   3.031   4.227
 1706SOL     OW 5677   0.110   2.620   5.313
 1706SOL    HW1 5678   0.206   2.622   5.302
 1706SOL    HW2 5679   0.085   2.713   5.316
 1707SOL     OW 5680   0.613   3.243   4.459
 1707SOL    HW1 5681   0.566   3.160   4.468
 1707SOL    HW2 5682   0.596   3.271   4.369
 1708SOL     OW 5683   1.291   3.101   5.148
 1708SOL    HW1 5684   1.324   3.034   5.089
 1708SOL    HW2 5685   1.346   3.093   5.226
 1709SOL     OW 5686   0.812   1.860   4.229
 1709SOL    HW1 5687   0.853   1.946   4.214
 1709SOL    HW2 5688   0.719   1.879   4.240
 1710SOL     OW 5689   0.184   2.807   5.003
 1710SOL    HW1 5690   0.275   2.789   4.979
 1710SOL    HW2 5691   0.133   2.780   4.927
 1711SOL     OW 5692   1.532   2.853   3.920
 1711SOL    HW1 5693   1.462   2.795   3.948
 1711SOL    HW2 5694   1.570   2.886   4.002
 1712SOL     OW 5695   1.187   3.666   5.344
 1712SOL    HW1 5696   1.200   3.722   5.268
 1712SOL    HW2 5697   1.200   3.577   5.311
 1713SOL     OW 5698   0.328   2.118   5.519
 1713SOL    HW1 5699   0.381   2.190   5.552
 1713SOL    HW2 5700   0.243   2.128   5.562
 1714SOL     OW 5701   1.467   3.281   4.678
 1714SOL    HW1 5702   1.398   3.296   4.743
 1714SOL    HW2 5703   1.454   3.190   4.650
 1715SOL     OW 5704   1.663   3.593   4.302
 1715SOL    HW1 5705   1.639   3.567   4.213
 1715SOL    HW2 5706   1.634   3.520   4.357
 1716SOL     OW 5707   0.597   2.585   3.988
 1716SOL    HW1 5708   0.602   2.664   3.935
 1716SOL    HW2 5709   0.531   2.604   4.055
 1717SOL     OW 5710   1.274   2.203   4.651
 1717SOL    HW1 5711   1.185   2.171   4.665
 1717SOL    HW2 5712   1.329   2.149   4.708
 1718SOL     OW 5713   1.582   3.530   4.033
 1718SOL    HW1 5714   1.670   3.565   4.027
 1718SOL    HW2 5715   1.556   3.513   3.942
 1719SOL     OW 5716   0.795   2.478   5.177
 1719SOL    HW1 5717   0.768   2.456   5.266
 1719SOL    HW2 5718   0.750   2.414   5.122
 1720SOL     OW 5719   1.390   2.343   5.400
 1720SOL    HW1 5720   1.404   2.381   5.486
 1720SOL    HW2 5721   1.441   2.262   5.401
 1721SOL     OW 5722   0.959   2.751   5.304
 1721SOL    HW1 5723   1.012   2.679   5.270
 1721SOL    HW2 5724   0.911   2.783   5.228
 1722SOL     OW 5725   0.994   2.277   4.963
 1722SOL    HW1 5726   0.911   2.298   5.006
 1722SOL    HW2 5727   0.969   2.226   4.886
 1723SOL     OW 5728   1.049   2.560   4.151
 1723SOL    HW1 5729   1.063   2.553   4.246
 1723SOL    HW2 5730   0.968   2.513   4.135
 1724SOL     OW 5731   0.098   2.686   4.507
 1724SOL    HW1 5732   0.184   2.665   4.543
 1724SOL    HW2 5733   0.053   2.733   4.577
 1725SOL     OW 5734   0.127   3.711   5.299
 1725SOL    HW1 5735   0.119   3.690   5.392
 1725SOL    HW2 5736   0.044   3.682   5.261
 1726SOL     OW 5737   0.887   2.208   3.918
 1726SOL    HW1 5738   0.930   2.269   3.858
 1726SOL    HW2 5739   0.904   2.121   3.882
 1727SOL     OW 5740   1.375   3.006   4.267
 1727SOL    HW1 5741   1.452   2.990   4.212
 1727SOL    HW2 5742   1.322   3.067   4.217
 1728SOL     OW 5743   0.550   2.047   4.616
 1728SOL    HW1 5744   0.553   2.074   4.708
 1728SOL    HW2 5745   0.552   2.128   4.567
 1729SOL     OW 5746   1.010   3.309   4.198
 1729SOL    HW1 5747   0.968   3.379   4.149
 1729SOL    HW2 5748   0.993   3.331   4.290
 1730SOL     OW 5749   0.354   3.669   4.580
 1730SOL    HW1 5750   0.397   3.584   4.591
 1730SOL    HW2 5751   0.424   3.733   4.592
 1731SOL     OW 5752   1.795   2.934   4.561
 1731SOL    HW1 5753   1.727   2.910   4.498
 1731SOL    HW2 5754   1.748   2.947   4.643
 1732SOL     OW 5755   1.229   3.401   5.236
 1732SOL    HW1 5756   1.214   3.329   5.296
 1732SOL    HW2 5757   1.166   3.386   5.165
 1733SOL     OW 5758   0.317   2.816   3.973
 1733SOL    HW1 5759   0.402   2.838   3.933
 1733SOL    HW2 5760   0.299   2.727   3.943
 1734SOL     OW 5761   1.474   2.605   4.440
 1734SOL    HW1 5762   1.457   2.556   4.521
 1734SOL    HW2 5763   1.551   2.659   4.461
 1735SOL     OW 5764   0.465   3.123   5.459
 1735SOL    HW1 5765   0.437   3.129   5.368
 1735SOL    HW2 5766   0.385   3.128   5.510
 1736SOL     OW 5767   1.121   3.639   3.956
 1736SOL    HW1 5768   1.049   3.596   4.003
 1736SOL    HW2 5769   1.141   3.580   3.884
 1737SOL     OW 5770   0.195   2.140   5.212
 1737SOL    HW1 5771   0.131   2.211   5.216
 1737SOL    HW2 5772   0.185   2.095   5.296
 1738SOL     OW 5773   1.629   3.241   3.811
 1738SOL    HW1 5774   1.589   3.326   3.796
 1738SOL    HW2 5775   1.560   3.178   3.792
 1739SOL     OW 5776   0.469   3.607   4.038
 1739SOL    HW1 5777   0.508   3.658   4.109
 1739SOL    HW2 5778   0.544   3.575   3.987
 1740SOL     OW 5779   1.401   1.971   4.153
 1740SOL    HW1 5780   1.388   1.944   4.062
 1740SOL    HW2 5781   1.496   1.976   4.164
 1741SOL     OW 5782   0.260   3.656   4.958
 1741SOL    HW1 5783   0.305   3.583   4.999
 1741SOL    HW2 5784   0.228   3.621   4.875
 1742SOL     OW 5785   0.939   3.560   4.624
 1742SOL    HW1 5786   1.014   3.506   4.645
 1742SOL    HW2 5787   0.892   3.512   4.556
 1743SOL     OW 5788   0.392   2.557   4.199
 1743SOL    HW1 5789   0.417   2.465   4.208
 1743SOL    HW2 5790   0.300   2.560   4.225
 1744SOL     OW 5791   1.497   2.103   5.449
 1744SOL    HW1 5792   1.518   2.106   5.542
 1744SOL    HW2 5793   1.470   2.012   5.434
 1745SOL     OW 5794   0.630   1.989   3.829
 1745SOL    HW1 5795   0.703   1.930   3.843
 1745SOL    HW2 5796   0.585   1.954   3.752
 1746SOL     OW 5797   0.768   2.137   5.476
 1746SOL    HW1 5798   0.841   2.075   5.484
 1746SOL    HW2 5799   0.718   2.125   5.557
 1747SOL     OW 5800   0.878   3.384   4.917
 1747SOL    HW1 5801   0.862   3.347   4.830
 1747SOL    HW2 5802   0.946   3.327   4.954
 1748SOL     OW 5803   1.346   2.451   5.153
 1748SOL    HW1 5804   1.374   2.417   5.238
 1748SOL    HW2 5805   1.375   2.542   5.153
 1749SOL     OW 5806   0.813   3.260   4.660
 1749SOL    HW1 5807   0.896   3.251   4.614
 1749SOL    HW2 5808   0.747   3.258   4.590
 1750SOL     OW 5809   0.927   2.372   4.628
 1750SOL    HW1 5810   0.904   2.363   4.535
 1750SOL    HW2 5811   0.960   2.286   4.653
 1751SOL     OW 5812   0.550   1.924   4.229
 1751SOL    HW1 5813   0.469   1.923   4.280
 1751SOL    HW2 5814   0.543   2.003   4.175
 1752SOL     OW 5815   1.429   3.060   3.765
 1752SOL    HW1 5816   1.459   2.984   3.815
 1752SOL    HW2 5817   1.342   3.079   3.801
 1753SOL     OW 5818   0.295   1.908   3.902
 1753SOL    HW1 5819   0.357   1.976   3.875
 1753SOL    HW2 5820   0.349   1.842   3.946
 1754SOL     OW 5821   0.935   2.106   4.188
 1754SOL    HW1 5822   0.907   2.148   4.108
 1754SOL    HW2 5823   1.030   2.117   4.189
 1755SOL     OW 5824   1.080   2.541   5.183
 1755SOL    HW1 5825   1.009   2.478   5.191
 1755SOL    HW2 5826   1.159   2.486   5.178
 1756SOL     OW 5827   1.226   3.430   4.517
 1756SOL    HW1 5828   1.243   3.499   4.452
 1756SOL    HW2 5829   1.292   3.444   4.584
 1757SOL     OW 5830   0.465   3.009   4.462
 1757SOL    HW1 5831   0.393   2.991   4.522
 1757SOL    HW2 5832   0.428   2.993   4.375
 1758SOL     OW 5833   1.271   3.657   4.330
 1758SOL    HW1 5834   1.315   3.718   4.270
 1758SOL    HW2 5835   1.206   3.710   4.375
 1759SOL     OW 5836   1.026   2.408   3.743
 1759SOL    HW1 5837   0.983   2.491   3.722
 1759SOL    HW2 5838   1.089   2.429   3.811
 1760SOL     OW 5839   0.080   2.396   5.131
 1760SOL    HW1 5840   0.150   2.397   5.065
 1760SOL    HW2 5841   0.068   2.487   5.155
 1761SOL     OW 5842   0.562   2.089   4.888
 1761SOL    HW1 5843   0.601   2.008   4.920
 1761SOL    HW2 5844   0.470   2.084   4.915
 1762SOL     OW 5845   0.871   2.323   4.363
 1762SOL    HW1 5846   0.822   2.375   4.300
 1762SOL    HW2 5847   0.889   2.241   4.318
 1763SOL     OW 5848   1.014   1.914   4.477
 1763SOL    HW1 5849   0.955   1.906   4.403
 1763SOL    HW2 5850   0.995   1.839   4.532
 1764SOL     OW 5851   1.436   3.025   4.581
 1764SOL    HW1 5852   1.367   2.958   4.580
 1764SOL    HW2 5853   1.454   3.041   4.488
 1765SOL     OW 5854   1.848   2.680   4.107
 1765SOL    HW1 5855   1.906   2.625   4.160
 1765SOL    HW2 5856   1.818   2.622   4.037
 1766SOL     OW 5857   0.493   3.275   3.886
 1766SOL    HW1 5858   0.416   3.245   3.936
 1766SOL    HW2 5859   0.470   3.257   3.795
 1767SOL     OW 5860   1.668   3.131   4.369
 1767SOL    HW1 5861   1.762   3.140   4.387
 1767SOL    HW2 5862   1.631   3.216   4.392
 1768SOL     OW 5863   1.394   2.434   3.795
 1768SOL    HW1 5864   1.334   2.415   3.868
 1768SOL    HW2 5865   1.478   2.399   3.824
 1769SOL     OW 5866   0.525   2.122   4.045
 1769SOL    HW1 5867   0.567   2.074   3.973
 1769SOL    HW2 5868   0.509   2.209   4.008
 1770SOL     OW 5869   1.752   3.097   5.309
 1770SOL    HW1 5870   1.841   3.063   5.300
 1770SOL    HW2 5871   1.763   3.189   5.331
 1771SOL     OW 5872   1.061   3.215   5.058
 1771SOL    HW1 5873   0.986   3.185   5.109
 1771SOL    HW2 5874   1.137   3.174   5.100
 1772SOL     OW 5875   1.606   3.487   5.375
 1772SOL    HW1 5876   1.603   3.521   5.285
 1772SOL    HW2 5877   1.689   3.441   5.380
 1773SOL     OW 5878   1.125   3.062   4.830
 1773SOL    HW1 5879   1.068   3.101   4.897
 1773SOL    HW2 5880   1.090   3.094   4.747
 1774SOL     OW 5881   1.633   2.971   4.793
 1774SOL    HW1 5882   1.625   3.033   4.865
 1774SOL    HW2 5883   1.553   2.982   4.743
 1775SOL     OW 5884   0.917   1.960   5.123
 1775SOL    HW1 5885   0.939   1.940   5.032
 1775SOL    HW2 5886   0.996   2.000   5.159
 1776SOL     OW 5887   0.984   2.977   5.445
 1776SOL    HW1 5888   0.891   2.991   5.465
 1776SOL    HW2 5889   0.984   2.898   5.390
 1777SOL     OW 5890   0.708   2.922   4.097
 1777SOL    HW1 5891   0.695   2.908   4.190
 1777SOL    HW2 5892   0.784   2.869   4.074
 1778SOL     OW 5893   0.429   2.684   4.962
 1778SOL    HW1 5894   0.497   2.696   5.028
 1778SOL    HW2 5895   0.369   2.620   5.001
 1779SOL     OW 5896   1.269   2.240   4.999
 1779SOL    HW1 5897   1.299   2.318   5.046
 1779SOL    HW2 5898   1.180   2.262   4.970
 1780SOL     OW 5899   0.061   3.437   5.061
 1780SOL    HW1 5900   0.032   3.526   5.040
 1780SOL    HW2 5901   0.156   3.444   5.070
 1781SOL     OW 5902   0.353   2.968   4.218
 1781SOL    HW1 5903   0.359   3.041   4.156
 1781SOL    HW2 5904   0.354   2.890   4.162
 1782SOL     OW 5905   0.563   2.397   4.581
 1782SOL    HW1 5906   0.577   2.457   4.508
 1782SOL    HW2 5907   0.620   2.430   4.650
 1783SOL     OW 5908   1.248   3.209   4.114
 1783SOL    HW1 5909   1.303   3.282   4.144
 1783SOL    HW2 5910   1.161   3.230   4.147
 1784SOL     OW 5911   1.277   3.317   4.869
 1784SOL    HW1 5912   1.331   3.319   4.948
 1784SOL    HW2 5913   1.220   3.241   4.881
 1785SOL     OW 5914   1.582   2.490   4.196
 1785SOL    HW1 5915   1.539   2.545   4.261
 1785SOL    HW2 5916   1.628   2.551   4.139
 1786SOL     OW 5917   0.348   3.390   5.042
 1786SOL    HW1 5918   0.333   3.344   4.960
 1786SOL    HW2 5919   0.443   3.401   5.046
 1787SOL     OW 5920   0.471   2.621   5.383
 1787SOL    HW1 5921   0.501   2.660   5.301
 1787SOL    HW2 5922   0.503   2.531   5.379
 1788SOL     OW 5923   1.588   2.645   5.410
 1788SOL    HW1 5924   1.503   2.687   5.397
 1788SOL    HW2 5925   1.643   2.678   5.340
 1789SOL     OW 5926   0.997   1.979   5.481
 1789SOL    HW1 5927   1.048   2.053   5.448
 1789SOL    HW2 5928   1.047   1.902   5.454
 1790SOL     OW 5929   0.498   1.906   5.469
 1790SOL    HW1 5930   0.459   1.850   5.403
 1790SOL    HW2 5931   0.437   1.979   5.479
 1791SOL     OW 5932   0.589   2.735   4.749
 1791SOL    HW1 5933   0.615   2.827   4.750
 1791SOL    HW2 5934   0.531   2.725   4.824
 1792SOL     OW 5935   1.364   2.722   4.748
 1792SOL    HW1 5936   1.278   2.719   4.707
 1792SOL    HW2 5937   1.376   2.635   4.786
 1793SOL     OW 5938   1.208   2.391   3.994
 1793SOL    HW1 5939   1.215   2.313   4.048
 1793SOL    HW2 5940   1.165   2.455   4.050
 1794SOL     OW 5941   0.303   2.057   4.965
 1794SOL    HW1 5942   0.265   2.091   5.046
 1794SOL    HW2 5943   0.285   1.963   4.968
 1795SOL     OW 5944   0.048   3.174   5.007
 1795SOL    HW1 5945   0.078   3.128   5.086
 1795SOL    HW2 5946   0.049   3.267   5.032
 1796SOL     OW 5947   0.727   2.495   4.785
 1796SOL    HW1 5948   0.798   2.475   4.724
 1796SOL    HW2 5949   0.699   2.583   4.761
 1797SOL     OW 5950   1.731   2.820   5.574
 1797SOL    HW1 5951   1.688   2.758   5.515
 1797SOL    HW2 5952   1.671   2.829   5.648
 1798SOL     OW 5953   0.308   1.932   4.343
 1798SOL    HW1 5954   0.287   2.021   4.373
 1798SOL    HW2 5955   0.303   1.879   4.423
 1799SOL     OW 5956   1.614   2.234   4.095
 1799SOL    HW1 5957   1.641   2.171   4.162
 1799SOL    HW2 5958   1.591   2.313   4.143
 1800SOL     OW 5959   1.030   2.621   4.688
 1800SOL    HW1 5960   1.026   2.639   4.782
 1800SOL    HW2 5961   1.001   2.530   4.679
 1801SOL     OW 5962   0.984   3.429   5.438
 1801SOL    HW1 5963   0.967   3.473   5.354
 1801SOL    HW2 5964   1.024   3.346   5.414
 1802SOL     OW 5965   1.857   3.371   5.329
 1802SOL    HW1 5966   1.872   3.400   5.239
 1802SOL    HW2 5967   1.937   3.393   5.375
 1803SOL     OW 5968   0.348   2.792   5.542
 1803SOL    HW1 5969   0.422   2.819   5.595
 1803SOL    HW2 5970   0.384   2.726   5.482
 1804SOL     OW 5971   1.531   2.136   3.852
 1804SOL    HW1 5972   1.467   2.070   3.878
 1804SOL    HW2 5973   1.563   2.172   3.935
 1805SOL     OW 5974   1.296   2.690   3.758
 1805SOL    HW1 5975   1.337   2.603   3.761
 1805SOL    HW2 5976   1.325   2.728   3.675
 1806SOL     OW 5977   1.066   3.197   4.577
 1806SOL    HW1 5978   1.068   3.124   4.515
 1806SOL    HW2 5979   1.128   3.260   4.541
 1807SOL     OW 5980   0.316   2.674   4.674
 1807SOL    HW1 5981   0.411   2.691   4.669
 1807SOL    HW2 5982   0.310   2.584   4.704
 1808SOL     OW 5983   0.334   2.385   4.717
 1808SOL    HW1 5984   0.295   2.299   4.702
 1808SOL    HW2 5985   0.411   2.386   4.661
 1809SOL     OW 5986   1.134   2.241   5.402
 1809SOL    HW1 5987   1.090   2.295   5.467
 1809SOL    HW2 5988   1.223   2.276   5.398
 1810SOL     OW 5989   1.160   2.065   5.194
 1810SOL    HW1 5990   1.152   2.127   5.266
 1810SOL    HW2 5991   1.199   2.115   5.122
 1811SOL     OW 5992   4.492   3.185   3.925
 1811SOL    HW1 5993   4.399   3.200   3.907
 1811SOL    HW2 5994   4.498   3.093   3.949
 1812SOL     OW 5995   0.095   3.644   4.664
 1812SOL    HW1 5996   0.057   3.583   4.601
 1812SOL    HW2 5997   0.182   3.663   4.629
 1813SOL     OW 5998   0.499   3.435   4.630
 1813SOL    HW1 5999   0.567   3.498   4.654
 1813SOL    HW2 6000   0.544   3.370   4.576
 1814SOL     OW 6001   0.989   2.656   4.952
 1814SOL    HW1 6002   1.040   2.630   5.029
 1814SOL    HW2 6003   0.901   2.622   4.969
 1815SOL     OW 6004   0.038   2.424   4.831
 1815SOL    HW1 6005   0.119   2.386   4.798
 1815SOL    HW2 6006   0.027   2.387   4.918
 1816SOL     OW 6007   0.179   2.377   5.438
 1816SOL    HW1 6008   0.258   2.349   5.390
 1816SOL    HW2 6009   0.153   2.458   5.394
 1817SOL     OW 6010   1.369   2.807   5.385
 1817SOL    HW1 6011   1.394   2.900   5.383
 1817SOL    HW2 6012   1.367   2.781   5.293
 1818SOL     OW 6013   0.816   2.431   4.078
 1818SOL    HW1 6014   0.818   2.355   4.019
 1818SOL    HW2 6015   0.741   2.482   4.048
 1819SOL     OW 6016   0.272   3.423   5.466
 1819SOL    HW1 6017   0.218   3.477   5.524
 1819SOL    HW2 6018   0.250   3.333   5.489
 1820SOL     OW 6019   0.686   2.318   4.989
 1820SOL    HW1 6020   0.644   2.240   4.954
 1820SOL    HW2 6021   0.691   2.379   4.915
 1821SOL     OW 6022   0.932   3.541   5.189
 1821SOL    HW1 6023   0.903   3.510   5.103
 1821SOL    HW2 6024   0.929   3.636   5.183
 1822SOL     OW 6025   0.473   2.353   3.913
 1822SOL    HW1 6026   0.531   2.426   3.933
 1822SOL    HW2 6027   0.387   2.393   3.899
 1823SOL     OW 6028   0.162   3.003   5.188
 1823SOL    HW1 6029   0.148   2.954   5.269
 1823SOL    HW2 6030   0.171   2.935   5.120
 1824SOL     OW 6031   1.326   2.910   4.949
 1824SOL    HW1 6032   1.357   2.854   4.878
 1824SOL    HW2 6033   1.254   2.960   4.911
 1825SOL     OW 6034   1.308   2.718   4.032
 1825SOL    HW1 6035   1.231   2.688   4.079
 1825SOL    HW2 6036   1.287   2.705   3.940
 1826SOL     OW 6037   1.767   3.609   4.872
 1826SOL    HW1 6038   1.827   3.635   4.802
 1826SOL    HW2 6039   1.745   3.518   4.852
 1827SOL     OW 6040   1.242   3.595   4.841
 1827SOL    HW1 6041   1.324   3.612   4.794
 1827SOL    HW2 6042   1.244   3.501   4.859
 1828SOL     OW 6043   0.069   3.051   4.771
 1828SOL    HW1 6044   0.074   3.086   4.860
 1828SOL    HW2 6045   0.010   3.111   4.726
 1829SOL     OW 6046   0.679   3.526   5.449
 1829SOL    HW1 6047   0.625   3.605   5.446
 1829SOL    HW2 6048   0.739   3.535   5.375
 1830SOL     OW 6049   1.720   2.002   4.239
 1830SOL    HW1 6050   1.792   1.989   4.177
 1830SOL    HW2 6051   1.703   1.915   4.275
 1831SOL     OW 6052   1.391   3.430   4.207
 1831SOL    HW1 6053   1.450   3.461   4.139
 1831SOL    HW2 6054   1.342   3.508   4.234
 1832SOL     OW 6055   0.121   3.668   5.571
 1832SOL    HW1 6056   0.082   3.595   5.618
 1832SOL    HW2 6057   0.184   3.706   5.633
 1833SOL     OW 6058   1.276   2.788   4.394
 1833SOL    HW1 6059   1.348   2.726   4.396
 1833SOL    HW2 6060   1.308   2.862   4.343
 1834SOL     OW 6061   0.819   3.135   5.155
 1834SOL    HW1 6062   0.793   3.172   5.239
 1834SOL    HW2 6063   0.746   3.156   5.096
 1835SOL     OW 6064   0.673   3.478   3.879
 1835SOL    HW1 6065   0.681   3.489   3.784
 1835SOL    HW2 6066   0.620   3.399   3.890
 1836SOL     OW 6067   1.633   3.589   5.117
 1836SOL    HW1 6068   1.680   3.597   5.034
 1836SOL    HW2 6069   1.619   3.679   5.145
 1837SOL     OW 6070   0.267   2.183   4.444
 1837SOL    HW1 6071   0.184   2.221   4.415
 1837SOL    HW2 6072   0.255   2.170   4.538
 1838SOL     OW 6073   1.205   3.470   3.755
 1838SOL    HW1 6074   1.197   3.379   3.782
 1838SOL    HW2 6075   1.141   3.480   3.685
 1839SOL     OW 6076   0.826   2.868   5.096
 1839SOL    HW1 6077   0.866   2.867   5.009
 1839SOL    HW2 6078   0.826   2.961   5.121
 1840SOL     OW 6079   0.916   2.773   4.014
 1840SOL    HW1 6080   0.977   2.804   3.947
 1840SOL    HW2 6081   0.962   2.701   4.057
 1841SOL     OW 6082   1.495   3.486   3.766
 1841SOL    HW1 6083   1.400   3.483   3.755
 1841SOL    HW2 6084   1.530   3.492   3.677
 1842SOL     OW 6085   0.373   3.166   5.214
 1842SOL    HW1 6086   0.356   3.245   5.164
 1842SOL    HW2 6087   0.297   3.110   5.199
 1843SOL     OW 6088   1.602   3.139   5.004
 1843SOL    HW1 6089   1.678   3.144   5.061
 1843SOL    HW2 6090   1.546   3.212   5.030
 1844SOL     OW 6091   1.048   2.968   4.429
 1844SOL    HW1 6092   0.977   2.917   4.469
 1844SOL    HW2 6093   1.108   2.902   4.393
 1845SOL     OW 6094   1.016   2.102   4.690
 1845SOL    HW1 6095   1.012   2.054   4.608
 1845SOL    HW2 6096   1.014   2.034   4.758
 1846SOL     OW 6097   0.603   3.352   4.207
 1846SOL    HW1 6098   0.640   3.301   4.136
 1846SOL    HW2 6099   0.532   3.402   4.167
 1847SOL     OW 6100   0.252   3.207   4.002
 1847SOL    HW1 6101   0.158   3.208   3.987
 1847SOL    HW2 6102   0.262   3.240   4.091
 1848SOL     OW 6103   0.118   2.869   5.420
 1848SOL    HW1 6104   0.051   2.906   5.479
 1848SOL    HW2 6105   0.195   2.857   5.475
 1849SOL     OW 6106   0.672   2.061   5.222
 1849SOL    HW1 6107   0.756   2.040   5.180
 1849SOL    HW2 6108   0.696   2.086   5.311
 1850SOL     OW 6109   0.073   2.189   3.758
 1850SOL    HW1 6110   4.477   2.196   3.754
 1850SOL    HW2 6111   0.104   2.270   3.719
 1851SOL     OW 6112   1.418   2.720   5.129
 1851SOL    HW1 6113   1.366   2.780   5.075
 1851SOL    HW2 6114   1.507   2.730   5.096
 1852SOL     OW 6115   0.084   2.040   4.031
 1852SOL    HW1 6116   0.078   2.111   3.967
 1852SOL    HW2 6117   0.160   1.989   4.003
 1853SOL     OW 6118   1.180   3.204   3.841
 1853SOL    HW1 6119   1.089   3.175   3.843
 1853SOL    HW2 6120   1.208   3.203   3.932
 1854SOL     OW 6121   0.620   2.694   5.152
 1854SOL    HW1 6122   0.675   2.771   5.140
 1854SOL    HW2 6123   0.682   2.621   5.162
 1855SOL     OW 6124   1.486   3.635   4.698
 1855SOL    HW1 6125   1.511   3.694   4.627
 1855SOL    HW2 6126   1.566   3.624   4.749
 1856SOL     OW 6127   0.717   2.425   5.428
 1856SOL    HW1 6128   0.749   2.490   5.490
 1856SOL    HW2 6129   0.754   2.342   5.459
 1857SOL     OW 6130   1.468   3.065   5.358
 1857SOL    HW1 6131   1.456   3.078   5.452
 1857SOL    HW2 6132   1.562   3.078   5.344
 1858SOL     OW 6133   0.383   3.604   5.287
 1858SOL    HW1 6134   0.297   3.644   5.273
 1858SOL    HW2 6135   0.364   3.522   5.333
 1859SOL     OW 6136   1.641   2.777   4.985
 1859SOL    HW1 6137   1.685   2.706   4.939
 1859SOL    HW2 6138   1.637   2.848   4.922
 1860SOL     OW 6139   1.220   2.183   4.183
 1860SOL    HW1 6140   1.282   2.111   4.172
 1860SOL    HW2 6141   1.250   2.230   4.260
 1861SOL     OW 6142   0.592   2.602   4.391
 1861SOL    HW1 6143   0.630   2.688   4.373
 1861SOL    HW2 6144   0.521   2.594   4.327
 1862SOL     OW 6145   1.730   2.814   5.241
 1862SOL    HW1 6146   1.730   2.907   5.264
 1862SOL    HW2 6147   1.700   2.811   5.151
 1863SOL     OW 6148   0.865   3.231   3.754
 1863SOL    HW1 6149   0.822   3.256   3.837
 1863SOL    HW2 6150   0.882   3.314   3.710
 1864SOL     OW 6151   0.659   3.656   4.673
 1864SOL    HW1 6152   0.636   3.745   4.648
 1864SOL    HW2 6153   0.755   3.652   4.663
 1865SOL     OW 6154   0.867   2.827   4.580
 1865SOL    HW1 6155   0.916   2.756   4.622
 1865SOL    HW2 6156   0.833   2.879   4.653
 1866SOL     OW 6157   1.081   2.850   3.813
 1866SOL    HW1 6158   1.058   2.900   3.734
 1866SOL    HW2 6159   1.156   2.797   3.787
 1867SOL     OW 6160   1.857   3.413   4.571
 1867SOL    HW1 6161   1.783   3.412   4.510
 1867SOL    HW2 6162   1.827   3.360   4.645
 1868SOL     OW 6163   0.228   3.169   5.580
 1868SOL    HW1 6164   0.159   3.107   5.555
 1868SOL    HW2 6165   0.218   3.179   5.675
 1869SOL     OW 6166   0.101   3.102   4.390
 1869SOL    HW1 6167   0.104   3.050   4.470
 1869SOL    HW2 6168   0.162   3.057   4.331
 1870SOL     OW 6169   0.680   3.262   5.350
 1870SOL    HW1 6170   0.600   3.218   5.378
 1870SOL    HW2 6171   0.674   3.350   5.387
 1871SOL     OW 6172   0.435   2.295   4.249
 1871SOL    HW1 6173   0.458   2.221   4.192
 1871SOL    HW2 6174   0.384   2.255   4.320
 1872SOL     OW 6175   1.708   3.350   4.819
 1872SOL    HW1 6176   1.623   3.324   4.784
 1872SOL    HW2 6177   1.726   3.285   4.887
 1873SOL     OW 6178   0.306   2.352   4.981
 1873SOL    HW1 6179   0.379   2.311   5.028
 1873SOL    HW2 6180   0.338   2.365   4.892
 1874SOL     OW 6181   0.826   3.439   4.403
 1874SOL    HW1 6182   0.819   3.485   4.319
 1874SOL    HW2 6183   0.746   3.386   4.408
 1875SOL     OW 6184   1.394   2.051   4.842
 1875SOL    HW1 6185   1.477   2.022   4.880
 1875SOL    HW2 6186   1.359   2.112   4.907
 1876SOL     OW 6187   1.008   1.883   4.870
 1876SOL    HW1 6188   0.955   1.813   4.831
 1876SOL    HW2 6189   1.096   1.848   4.873
 1877SOL     OW 6190   0.771   3.194   4.034
 1877SOL    HW1 6191   0.737   3.105   4.040
 1877SOL    HW2 6192   0.854   3.191   4.082
 1878SOL     OW 6193   0.621   3.420   5.008
 1878SOL    HW1 6194   0.623   3.501   5.059
 1878SOL    HW2 6195   0.708   3.414   4.969
 1879SOL     OW 6196   1.352   1.915   3.888
 1879SOL    HW1 6197   1.378   1.857   3.817
 1879SOL    HW2 6198   1.266   1.884   3.915
 1880SOL     OW 6199   1.305   2.326   4.411
 1880SOL    HW1 6200   1.242   2.398   4.417
 1880SOL    HW2 6201   1.296   2.279   4.494
 1881SOL     OW 6202   0.041   2.916   4.011
 1881SOL    HW1 6203   0.136   2.905   4.004
 1881SOL    HW2 6204   0.018   2.874   4.094
 1882SOL     OW 6205   0.881   3.511   4.068
 1882SOL    HW1 6206   0.810   3.493   4.007
 1882SOL    HW2 6207   0.851   3.587   4.118
 1883SOL     OW 6208   0.248   2.489   5.704
 1883SOL    HW1 6209   0.173   2.475   5.761
 1883SOL    HW2 6210   0.217   2.468   5.616
 1884SOL     OW 6211   0.213   2.138   6.578
 1884SOL    HW1 6212   0.250   2.112   6.662
 1884SOL    HW2 6213   0.137   2.081   6.566
 1885SOL     OW 6214   0.010   2.249   6.225
 1885SOL    HW1 6215   4.429   2.279   6.268
 1885SOL    HW2 6216   4.484   2.169   6.179
 1886SOL     OW 6217   0.567   3.144   6.758
 1886SOL    HW1 6218   0.479   3.148   6.720
 1886SOL    HW2 6219   0.582   3.231   6.794
 1887SOL     OW 6220   1.556   3.373   6.292
 1887SOL    HW1 6221   1.512   3.355   6.375
 1887SOL    HW2 6222   1.485   3.378   6.228
 1888SOL     OW 6223   1.126   2.563   6.290
 1888SOL    HW1 6224   1.178   2.641   6.275
 1888SOL    HW2 6225   1.082   2.580   6.374
 1889SOL     OW 6226   0.759   3.007   6.623
 1889SOL    HW1 6227   0.689   3.040   6.679
 1889SOL    HW2 6228   0.793   3.084   6.578
 1890SOL     OW 6229   0.862   2.642   7.407
 1890SOL    HW1 6230   0.849   2.714   7.469
 1890SOL    HW2 6231   0.885   2.685   7.324
 1891SOL     OW 6232   0.686   2.870   6.235
 1891SOL    HW1 6233   0.750   2.854   6.305
 1891SOL    HW2 6234   0.616   2.919   6.278
 1892SOL     OW 6235   0.707   3.013   7.395
 1892SOL    HW1 6236   0.755   3.093   7.419
 1892SOL    HW2 6237   0.624   3.045   7.361
 1893SOL     OW 6238   0.337   3.286   6.656
 1893SOL    HW1 6239   0.256   3.266   6.609
 1893SOL    HW2 6240   0.387   3.341   6.595
 1894SOL     OW 6241   1.462   3.360   6.936
 1894SOL    HW1 6242   1.504   3.445   6.948
 1894SOL    HW2 6243   1.407   3.349   7.014
 1895SOL     OW 6244   0.442   2.266   7.082
 1895SOL    HW1 6245   0.522   2.213   7.084
 1895SOL    HW2 6246   0.371   2.202   7.085
 1896SOL     OW 6247   0.246   3.554   6.066
 1896SOL    HW1 6248   0.233   3.638   6.109
 1896SOL    HW2 6249   0.306   3.572   5.994
 1897SOL     OW 6250   1.136   3.203   7.277
 1897SOL    HW1 6251   1.175   3.199   7.364
 1897SOL    HW2 6252   1.083   3.123   7.271
 1898SOL     OW 6253   0.244   3.290   6.114
 1898SOL    HW1 6254   0.236   3.385   6.120
 1898SOL    HW2 6255   0.179   3.257   6.177
 1899SOL     OW 6256   0.244   2.943   6.468
 1899SOL    HW1 6257   0.263   2.856   6.503
 1899SOL    HW2 6258   0.188   2.984   6.534
 1900SOL     OW 6259   0.617   3.652   7.019
 1900SOL    HW1 6260   0.533   3.635   7.061
 1900SOL    HW2 6261   0.637   3.743   7.042
 1901SOL     OW 6262   0.585   2.845   5.720
 1901SOL    HW1 6263   0.629   2.893   5.651
 1901SOL    HW2 6264   0.630   2.871   5.800
 1902SOL     OW 6265   1.598   1.984   7.055
 1902SOL    HW1 6266   1.590   2.063   7.003
 1902SOL    HW2 6267   1.586   2.013   7.145
 1903SOL     OW 6268   0.137   2.506   6.161
 1903SOL    HW1 6269   0.086   2.425   6.173
 1903SOL    HW2 6270   0.106   2.564   6.230
 1904SOL     OW 6271   1.842   3.623   5.922
 1904SOL    HW1 6272   1.899   3.595   5.993
 1904SOL    HW2 6273   1.869   3.713   5.904
 1905SOL     OW 6274   0.033   3.462   5.721
 1905SOL    HW1 6275   0.021   3.367   5.724
 1905SOL    HW2 6276   0.009   3.492   5.809
 1906SOL     OW 6277   1.638   2.969   6.018
 1906SOL    HW1 6278   1.724   2.985   5.978
 1906SOL    HW2 6279   1.640   3.019   6.099
 1907SOL     OW 6280   0.111   2.620   7.176
 1907SOL    HW1 6281   0.205   2.622   7.163
 1907SOL    HW2 6282   0.086   2.713   7.178
 1908SOL     OW 6283   0.613   3.244   6.321
 1908SOL    HW1 6284   0.566   3.161   6.330
 1908SOL    HW2 6285   0.596   3.271   6.231
 1909SOL     OW 6286   1.291   3.102   7.010
 1909SOL    HW1 6287   1.323   3.033   6.951
 1909SOL    HW2 6288   1.346   3.093   7.088
 1910SOL     OW 6289   0.812   1.860   6.091
 1910SOL    HW1 6290   0.853   1.945   6.076
 1910SOL    HW2 6291   0.719   1.879   6.102
 1911SOL     OW 6292   0.184   2.807   6.865
 1911SOL    HW1 6293   0.275   2.789   6.842
 1911SOL    HW2 6294   0.134   2.781   6.788
 1912SOL     OW 6295   1.533   2.853   5.785
 1912SOL    HW1 6296   1.462   2.793   5.809
 1912SOL    HW2 6297   1.567   2.885   5.868
 1913SOL     OW 6298   1.186   3.666   7.206
 1913SOL    HW1 6299   1.201   3.722   7.130
 1913SOL    HW2 6300   1.200   3.577   7.173
 1914SOL     OW 6301   0.328   2.117   7.381
 1914SOL    HW1 6302   0.381   2.190   7.413
 1914SOL    HW2 6303   0.243   2.129   7.424
 1915SOL     OW 6304   1.466   3.282   6.539
 1915SOL    HW1 6305   1.397   3.296   6.605
 1915SOL    HW2 6306   1.455   3.191   6.512
 1916SOL     OW 6307   1.663   3.593   6.163
 1916SOL    HW1 6308   1.637   3.566   6.075
 1916SOL    HW2 6309   1.635   3.521   6.220
 1917SOL     OW 6310   0.597   2.584   5.850
 1917SOL    HW1 6311   0.603   2.664   5.798
 1917SOL    HW2 6312   0.531   2.604   5.917
 1918SOL     OW 6313   1.283   2.210   6.520
 1918SOL    HW1 6314   1.195   2.174   6.531
 1918SOL    HW2 6315   1.338   2.156   6.575
 1919SOL     OW 6316   1.582   3.529   5.895
 1919SOL    HW1 6317   1.670   3.566   5.888
 1919SOL    HW2 6318   1.556   3.513   5.804
 1920SOL     OW 6319   0.794   2.478   7.039
 1920SOL    HW1 6320   0.767   2.456   7.128
 1920SOL    HW2 6321   0.749   2.414   6.984
 1921SOL     OW 6322   1.394   2.336   7.264
 1921SOL    HW1 6323   1.394   2.380   7.349
 1921SOL    HW2 6324   1.458   2.266   7.273
 1922SOL     OW 6325   0.958   2.751   7.166
 1922SOL    HW1 6326   1.012   2.679   7.132
 1922SOL    HW2 6327   0.911   2.784   7.090
 1923SOL     OW 6328   0.993   2.275   6.826
 1923SOL    HW1 6329   0.909   2.299   6.867
 1923SOL    HW2 6330   0.967   2.228   6.747
 1924SOL     OW 6331   1.049   2.563   6.014
 1924SOL    HW1 6332   1.064   2.556   6.108
 1924SOL    HW2 6333   0.968   2.514   5.999
 1925SOL     OW 6334   0.098   2.685   6.369
 1925SOL    HW1 6335   0.184   2.664   6.405
 1925SOL    HW2 6336   0.054   2.734   6.439
 1926SOL     OW 6337   0.126   3.711   7.161
 1926SOL    HW1 6338   0.119   3.690   7.254
 1926SOL    HW2 6339   0.044   3.681   7.123
 1927SOL     OW 6340   0.885   2.208   5.779
 1927SOL    HW1 6341   0.932   2.268   5.722
 1927SOL    HW2 6342   0.905   2.121   5.745
 1928SOL     OW 6343   1.709   2.441   7.415
 1928SOL    HW1 6344   1.674   2.516   7.368
 1928SOL    HW2 6345   1.734   2.379   7.346
 1929SOL     OW 6346   1.377   3.007   6.131
 1929SOL    HW1 6347   1.451   2.986   6.074
 1929SOL    HW2 6348   1.323   3.067   6.078
 1930SOL     OW 6349   0.550   2.046   6.478
 1930SOL    HW1 6350   0.553   2.074   6.570
 1930SOL    HW2 6351   0.552   2.128   6.428
 1931SOL     OW 6352   1.009   3.308   6.060
 1931SOL    HW1 6353   0.968   3.380   6.011
 1931SOL    HW2 6354   0.994   3.330   6.152
 1932SOL     OW 6355   0.354   3.669   6.442
 1932SOL    HW1 6356   0.397   3.584   6.453
 1932SOL    HW2 6357   0.424   3.733   6.455
 1933SOL     OW 6358   1.228   3.402   7.098
 1933SOL    HW1 6359   1.215   3.329   7.158
 1933SOL    HW2 6360   1.167   3.385   7.026
 1934SOL     OW 6361   0.317   2.817   5.834
 1934SOL    HW1 6362   0.402   2.838   5.795
 1934SOL    HW2 6363   0.299   2.727   5.805
 1935SOL     OW 6364   1.464   2.614   6.331
 1935SOL    HW1 6365   1.450   2.541   6.390
 1935SOL    HW2 6366   1.560   2.621   6.324
 1936SOL     OW 6367   0.465   3.123   7.321
 1936SOL    HW1 6368   0.437   3.130   7.230
 1936SOL    HW2 6369   0.384   3.128   7.372
 1937SOL     OW 6370   1.121   3.639   5.818
 1937SOL    HW1 6371   1.049   3.596   5.865
 1937SOL    HW2 6372   1.141   3.580   5.746
 1938SOL     OW 6373   0.194   2.140   7.074
 1938SOL    HW1 6374   0.131   2.211   7.078
 1938SOL    HW2 6375   0.186   2.095   7.158
 1939SOL     OW 6376   1.630   3.242   5.673
 1939SOL    HW1 6377   1.589   3.327   5.658
 1939SOL    HW2 6378   1.561   3.178   5.655
 1940SOL     OW 6379   0.469   3.607   5.900
 1940SOL    HW1 6380   0.508   3.658   5.971
 1940SOL    HW2 6381   0.544   3.575   5.850
 1941SOL     OW 6382   1.403   1.974   6.014
 1941SOL    HW1 6383   1.379   1.942   5.927
 1941SOL    HW2 6384   1.498   1.958   6.020
 1942SOL     OW 6385   0.260   3.656   6.820
 1942SOL    HW1 6386   0.306   3.583   6.861
 1942SOL    HW2 6387   0.229   3.621   6.737
 1943SOL     OW 6388   0.939   3.560   6.486
 1943SOL    HW1 6389   1.014   3.506   6.507
 1943SOL    HW2 6390   0.892   3.512   6.418
 1944SOL     OW 6391   0.392   2.558   6.061
 1944SOL    HW1 6392   0.417   2.466   6.070
 1944SOL    HW2 6393   0.300   2.560   6.087
 1945SOL     OW 6394   1.538   2.087   7.311
 1945SOL    HW1 6395   1.546   2.109   7.404
 1945SOL    HW2 6396   1.469   2.021   7.308
 1946SOL     OW 6397   0.629   1.989   5.692
 1946SOL    HW1 6398   0.703   1.931   5.705
 1946SOL    HW2 6399   0.585   1.953   5.614
 1947SOL     OW 6400   0.768   2.137   7.338
 1947SOL    HW1 6401   0.841   2.075   7.346
 1947SOL    HW2 6402   0.718   2.125   7.419
 1948SOL     OW 6403   0.878   3.384   6.779
 1948SOL    HW1 6404   0.862   3.347   6.692
 1948SOL    HW2 6405   0.946   3.328   6.817
 1949SOL     OW 6406   1.342   2.451   7.018
 1949SOL    HW1 6407   1.372   2.419   7.103
 1949SOL    HW2 6408   1.378   2.539   7.011
 1950SOL     OW 6409   0.813   3.261   6.522
 1950SOL    HW1 6410   0.897   3.250   6.476
 1950SOL    HW2 6411   0.747   3.257   6.452
 1951SOL     OW 6412   0.926   2.370   6.491
 1951SOL    HW1 6413   0.903   2.363   6.398
 1951SOL    HW2 6414   0.962   2.285   6.514
 1952SOL     OW 6415   0.550   1.923   6.091
 1952SOL    HW1 6416   0.469   1.923   6.142
 1952SOL    HW2 6417   0.544   2.003   6.037
 1953SOL     OW 6418   1.430   3.060   5.629
 1953SOL    HW1 6419   1.459   2.984   5.679
 1953SOL    HW2 6420   1.343   3.080   5.663
 1954SOL     OW 6421   0.295   1.908   5.764
 1954SOL    HW1 6422   0.357   1.976   5.738
 1954SOL    HW2 6423   0.349   1.842   5.808
 1955SOL     OW 6424   0.936   2.105   6.050
 1955SOL    HW1 6425   0.906   2.149   5.971
 1955SOL    HW2 6426   1.031   2.119   6.051
 1956SOL     OW 6427   1.080   2.541   7.046
 1956SOL    HW1 6428   1.010   2.476   7.051
 1956SOL    HW2 6429   1.160   2.489   7.038
 1957SOL     OW 6430   1.225   3.431   6.379
 1957SOL    HW1 6431   1.244   3.500   6.315
 1957SOL    HW2 6432   1.292   3.442   6.446
 1958SOL     OW 6433   0.465   3.010   6.324
 1958SOL    HW1 6434   0.393   2.991   6.384
 1958SOL    HW2 6435   0.428   2.993   6.237
 1959SOL     OW 6436   1.272   3.657   6.191
 1959SOL    HW1 6437   1.315   3.719   6.132
 1959SOL    HW2 6438   1.207   3.710   6.238
 1960SOL     OW 6439   1.030   2.408   5.604
 1960SOL    HW1 6440   0.987   2.492   5.588
 1960SOL    HW2 6441   1.089   2.425   5.678
 1961SOL     OW 6442   0.080   2.396   6.992
 1961SOL    HW1 6443   0.149   2.397   6.927
 1961SOL    HW2 6444   0.068   2.488   7.016
 1962SOL     OW 6445   0.562   2.089   6.750
 1962SOL    HW1 6446   0.601   2.008   6.782
 1962SOL    HW2 6447   0.470   2.084   6.777
 1963SOL     OW 6448   0.868   2.321   6.227
 1963SOL    HW1 6449   0.823   2.376   6.162
 1963SOL    HW2 6450   0.889   2.240   6.179
 1964SOL     OW 6451   1.016   1.913   6.339
 1964SOL    HW1 6452   0.955   1.907   6.265
 1964SOL    HW2 6453   0.995   1.838   6.394
 1965SOL     OW 6454   1.434   3.028   6.442
 1965SOL    HW1 6455   1.371   2.956   6.447
 1965SOL    HW2 6456   1.452   3.038   6.349
 1966SOL     OW 6457   1.454   2.462   6.578
 1966SOL    HW1 6458   1.415   2.375   6.579
 1966SOL    HW2 6459   1.520   2.458   6.647
 1967SOL     OW 6460   0.493   3.275   5.748
 1967SOL    HW1 6461   0.416   3.245   5.798
 1967SOL    HW2 6462   0.470   3.257   5.657
 1968SOL     OW 6463   1.672   3.131   6.232
 1968SOL    HW1 6464   1.766   3.145   6.247
 1968SOL    HW2 6465   1.632   3.214   6.255
 1969SOL     OW 6466   0.525   2.122   5.907
 1969SOL    HW1 6467   0.567   2.074   5.836
 1969SOL    HW2 6468   0.509   2.210   5.870
 1970SOL     OW 6469   1.753   3.098   7.161
 1970SOL    HW1 6470   1.840   3.059   7.160
 1970SOL    HW2 6471   1.768   3.188   7.193
 1971SOL     OW 6472   1.061   3.216   6.922
 1971SOL    HW1 6473   0.986   3.184   6.972
 1971SOL    HW2 6474   1.137   3.174   6.962
 1972SOL     OW 6475   1.605   3.488   7.237
 1972SOL    HW1 6476   1.603   3.521   7.147
 1972SOL    HW2 6477   1.689   3.441   7.243
 1973SOL     OW 6478   1.126   3.065   6.693
 1973SOL    HW1 6479   1.066   3.102   6.759
 1973SOL    HW2 6480   1.090   3.094   6.609
 1974SOL     OW 6481   1.647   2.966   6.661
 1974SOL    HW1 6482   1.632   3.027   6.733
 1974SOL    HW2 6483   1.568   2.974   6.607
 1975SOL     OW 6484   0.917   1.961   6.985
 1975SOL    HW1 6485   0.940   1.941   6.894
 1975SOL    HW2 6486   0.997   2.000   7.022
 1976SOL     OW 6487   0.984   2.976   7.308
 1976SOL    HW1 6488   0.891   2.991   7.327
 1976SOL    HW2 6489   0.985   2.899   7.252
 1977SOL     OW 6490   0.708   2.922   5.959
 1977SOL    HW1 6491   0.695   2.908   6.053
 1977SOL    HW2 6492   0.784   2.868   5.936
 1978SOL     OW 6493   0.429   2.684   6.824
 1978SOL    HW1 6494   0.498   2.696   6.890
 1978SOL    HW2 6495   0.369   2.620   6.863
 1979SOL     OW 6496   1.268   2.239   6.860
 1979SOL    HW1 6497   1.300   2.317   6.905
 1979SOL    HW2 6498   1.179   2.263   6.832
 1980SOL     OW 6499   0.061   3.437   6.924
 1980SOL    HW1 6500   0.032   3.526   6.901
 1980SOL    HW2 6501   0.156   3.444   6.932
 1981SOL     OW 6502   0.352   2.968   6.080
 1981SOL    HW1 6503   0.359   3.041   6.018
 1981SOL    HW2 6504   0.354   2.890   6.024
 1982SOL     OW 6505   0.562   2.397   6.444
 1982SOL    HW1 6506   0.576   2.457   6.370
 1982SOL    HW2 6507   0.621   2.429   6.512
 1983SOL     OW 6508   1.248   3.210   5.974
 1983SOL    HW1 6509   1.303   3.282   6.007
 1983SOL    HW2 6510   1.161   3.229   6.009
 1984SOL     OW 6511   1.276   3.318   6.731
 1984SOL    HW1 6512   1.331   3.319   6.810
 1984SOL    HW2 6513   1.222   3.240   6.741
 1985SOL     OW 6514   0.348   3.390   6.904
 1985SOL    HW1 6515   0.333   3.344   6.822
 1985SOL    HW2 6516   0.443   3.401   6.909
 1986SOL     OW 6517   0.471   2.620   7.245
 1986SOL    HW1 6518   0.501   2.661   7.164
 1986SOL    HW2 6519   0.505   2.531   7.242
 1987SOL     OW 6520   1.598   2.640   7.266
 1987SOL    HW1 6521   1.511   2.680   7.257
 1987SOL    HW2 6522   1.650   2.682   7.197
 1988SOL     OW 6523   0.997   1.979   7.343
 1988SOL    HW1 6524   1.048   2.053   7.309
 1988SOL    HW2 6525   1.046   1.902   7.316
 1989SOL     OW 6526   0.498   1.906   7.331
 1989SOL    HW1 6527   0.459   1.850   7.265
 1989SOL    HW2 6528   0.437   1.979   7.341
 1990SOL     OW 6529   0.588   2.735   6.610
 1990SOL    HW1 6530   0.616   2.826   6.612
 1990SOL    HW2 6531   0.531   2.726   6.686
 1991SOL     OW 6532   1.359   2.720   6.624
 1991SOL    HW1 6533   1.283   2.716   6.566
 1991SOL    HW2 6534   1.399   2.633   6.616
 1992SOL     OW 6535   1.197   2.393   5.847
 1992SOL    HW1 6536   1.213   2.315   5.901
 1992SOL    HW2 6537   1.163   2.458   5.910
 1993SOL     OW 6538   0.303   2.056   6.827
 1993SOL    HW1 6539   0.265   2.091   6.908
 1993SOL    HW2 6540   0.285   1.962   6.830
 1994SOL     OW 6541   0.048   3.174   6.869
 1994SOL    HW1 6542   0.078   3.128   6.947
 1994SOL    HW2 6543   0.049   3.267   6.895
 1995SOL     OW 6544   0.727   2.494   6.647
 1995SOL    HW1 6545   0.799   2.475   6.587
 1995SOL    HW2 6546   0.700   2.583   6.623
 1996SOL     OW 6547   1.732   2.823   7.435
 1996SOL    HW1 6548   1.686   2.765   7.375
 1996SOL    HW2 6549   1.673   2.833   7.510
 1997SOL     OW 6550   0.308   1.932   6.205
 1997SOL    HW1 6551   0.287   2.021   6.234
 1997SOL    HW2 6552   0.303   1.879   6.285
 1998SOL     OW 6553   1.025   2.622   6.548
 1998SOL    HW1 6554   1.028   2.640   6.642
 1998SOL    HW2 6555   1.000   2.530   6.541
 1999SOL     OW 6556   0.983   3.429   7.300
 1999SOL    HW1 6557   0.967   3.472   7.216
 1999SOL    HW2 6558   1.025   3.346   7.276
 2000SOL     OW 6559   1.856   3.372   7.192
 2000SOL    HW1 6560   1.872   3.397   7.101
 2000SOL    HW2 6561   1.937   3.393   7.238
 2001SOL     OW 6562   0.348   2.792   7.404
 2001SOL    HW1 6563   0.423   2.819   7.457
 2001SOL    HW2 6564   0.383   2.726   7.344
 2002SOL     OW 6565   1.516   2.102   5.717
 2002SOL    HW1 6566   1.451   2.039   5.749
 2002SOL    HW2 6567   1.547   2.147   5.795
 2003SOL     OW 6568   1.295   2.688   5.618
 2003SOL    HW1 6569   1.349   2.610   5.624
 2003SOL    HW2 6570   1.322   2.730   5.536
 2004SOL     OW 6571   1.064   3.197   6.437
 2004SOL    HW1 6572   1.067   3.123   6.376
 2004SOL    HW2 6573   1.128   3.259   6.403
 2005SOL     OW 6574   0.317   2.675   6.536
 2005SOL    HW1 6575   0.411   2.692   6.532
 2005SOL    HW2 6576   0.310   2.584   6.566
 2006SOL     OW 6577   0.333   2.385   6.580
 2006SOL    HW1 6578   0.295   2.299   6.564
 2006SOL    HW2 6579   0.411   2.387   6.524
 2007SOL     OW 6580   1.135   2.240   7.266
 2007SOL    HW1 6581   1.089   2.295   7.329
 2007SOL    HW2 6582   1.223   2.277   7.261
 2008SOL     OW 6583   1.160   2.066   7.056
 2008SOL    HW1 6584   1.151   2.129   7.128
 2008SOL    HW2 6585   1.197   2.118   6.984
 2009SOL     OW 6586   4.492   3.185   5.786
 2009SOL    HW1 6587   4.399   3.200   5.769
 2009SOL    HW2 6588   4.498   3.093   5.811
 2010SOL     OW 6589   0.095   3.644   6.526
 2010SOL    HW1 6590   0.057   3.583   6.463
 2010SOL    HW2 6591   0.182   3.663   6.491
 2011SOL     OW 6592   0.499   3.435   6.492
 2011SOL    HW1 6593   0.567   3.497   6.516
 2011SOL    HW2 6594   0.544   3.370   6.438
 2012SOL     OW 6595   0.988   2.658   6.815
 2012SOL    HW1 6596   1.041   2.631   6.890
 2012SOL    HW2 6597   0.902   2.620   6.832
 2013SOL     OW 6598   0.037   2.423   6.692
 2013SOL    HW1 6599   0.119   2.386   6.660
 2013SOL    HW2 6600   0.028   2.387   6.781
 2014SOL     OW 6601   0.179   2.377   7.299
 2014SOL    HW1 6602   0.258   2.349   7.253
 2014SOL    HW2 6603   0.153   2.458   7.256
 2015SOL     OW 6604   1.375   2.804   7.245
 2015SOL    HW1 6605   1.396   2.897   7.245
 2015SOL    HW2 6606   1.374   2.780   7.153
 2016SOL     OW 6607   0.816   2.430   5.940
 2016SOL    HW1 6608   0.817   2.355   5.881
 2016SOL    HW2 6609   0.741   2.482   5.911
 2017SOL     OW 6610   1.644   2.464   6.776
 2017SOL    HW1 6611   1.631   2.403   6.849
 2017SOL    HW2 6612   1.730   2.441   6.741
 2018SOL     OW 6613   0.272   3.423   7.328
 2018SOL    HW1 6614   0.218   3.476   7.387
 2018SOL    HW2 6615   0.250   3.333   7.351
 2019SOL     OW 6616   0.685   2.319   6.851
 2019SOL    HW1 6617   0.644   2.240   6.815
 2019SOL    HW2 6618   0.690   2.379   6.777
 2020SOL     OW 6619   0.931   3.541   7.052
 2020SOL    HW1 6620   0.904   3.510   6.966
 2020SOL    HW2 6621   0.929   3.636   7.045
 2021SOL     OW 6622   0.473   2.353   5.774
 2021SOL    HW1 6623   0.531   2.426   5.795
 2021SOL    HW2 6624   0.387   2.393   5.761
 2022SOL     OW 6625   0.161   3.003   7.049
 2022SOL    HW1 6626   0.148   2.954   7.131
 2022SOL    HW2 6627   0.171   2.935   6.982
 2023SOL     OW 6628   1.330   2.912   6.812
 2023SOL    HW1 6629   1.353   2.848   6.745
 2023SOL    HW2 6630   1.257   2.961   6.773
 2024SOL     OW 6631   1.306   2.722   5.892
 2024SOL    HW1 6632   1.233   2.689   5.945
 2024SOL    HW2 6633   1.279   2.705   5.802
 2025SOL     OW 6634   1.767   3.609   6.734
 2025SOL    HW1 6635   1.828   3.634   6.664
 2025SOL    HW2 6636   1.744   3.518   6.714
 2026SOL     OW 6637   1.242   3.595   6.704
 2026SOL    HW1 6638   1.323   3.612   6.656
 2026SOL    HW2 6639   1.244   3.501   6.721
 2027SOL     OW 6640   0.069   3.051   6.633
 2027SOL    HW1 6641   0.074   3.086   6.722
 2027SOL    HW2 6642   0.010   3.112   6.587
 2028SOL     OW 6643   0.679   3.526   7.311
 2028SOL    HW1 6644   0.626   3.605   7.307
 2028SOL    HW2 6645   0.740   3.535   7.238
 2029SOL     OW 6646   1.390   3.430   6.069
 2029SOL    HW1 6647   1.450   3.461   6.001
 2029SOL    HW2 6648   1.342   3.508   6.096
 2030SOL     OW 6649   0.121   3.669   7.433
 2030SOL    HW1 6650   0.082   3.595   7.480
 2030SOL    HW2 6651   0.184   3.706   7.495
 2031SOL     OW 6652   1.272   2.789   6.254
 2031SOL    HW1 6653   1.345   2.729   6.271
 2031SOL    HW2 6654   1.310   2.860   6.203
 2032SOL     OW 6655   0.819   3.134   7.017
 2032SOL    HW1 6656   0.793   3.173   7.101
 2032SOL    HW2 6657   0.747   3.155   6.958
 2033SOL     OW 6658   0.673   3.478   5.741
 2033SOL    HW1 6659   0.681   3.489   5.646
 2033SOL    HW2 6660   0.620   3.399   5.752
 2034SOL     OW 6661   1.634   3.589   6.979
 2034SOL    HW1 6662   1.680   3.596   6.895
 2034SOL    HW2 6663   1.620   3.679   7.007
 2035SOL     OW 6664   0.267   2.182   6.306
 2035SOL    HW1 6665   0.184   2.221   6.277
 2035SOL    HW2 6666   0.256   2.170   6.400
 2036SOL     OW 6667   1.206   3.470   5.617
 2036SOL    HW1 6668   1.197   3.379   5.645
 2036SOL    HW2 6669   1.141   3.480   5.547
 2037SOL     OW 6670   0.825   2.868   6.958
 2037SOL    HW1 6671   0.868   2.865   6.872
 2037SOL    HW2 6672   0.826   2.961   6.981
 2038SOL     OW 6673   0.915   2.772   5.874
 2038SOL    HW1 6674   0.978   2.804   5.810
 2038SOL    HW2 6675   0.961   2.702   5.920
 2039SOL     OW 6676   1.496   3.485   5.628
 2039SOL    HW1 6677   1.401   3.482   5.618
 2039SOL    HW2 6678   1.529   3.492   5.539
 2040SOL     OW 6679   0.373   3.166   7.077
 2040SOL    HW1 6680   0.356   3.245   7.026
 2040SOL    HW2 6681   0.297   3.111   7.061
 2041SOL     OW 6682   1.615   3.148   6.867
 2041SOL    HW1 6683   1.668   3.136   6.946
 2041SOL    HW2 6684   1.552   3.215   6.890
 2042SOL     OW 6685   1.047   2.967   6.290
 2042SOL    HW1 6686   0.978   2.916   6.330
 2042SOL    HW2 6687   1.110   2.902   6.258
 2043SOL     OW 6688   1.020   2.102   6.553
 2043SOL    HW1 6689   1.015   2.054   6.470
 2043SOL    HW2 6690   1.014   2.033   6.619
 2044SOL     OW 6691   0.603   3.352   6.069
 2044SOL    HW1 6692   0.640   3.301   5.997
 2044SOL    HW2 6693   0.532   3.402   6.029
 2045SOL     OW 6694   1.721   2.253   6.968
 2045SOL    HW1 6695   1.793   2.317   6.966
 2045SOL    HW2 6696   1.751   2.183   6.910
 2046SOL     OW 6697   0.252   3.208   5.864
 2046SOL    HW1 6698   0.158   3.208   5.849
 2046SOL    HW2 6699   0.262   3.240   5.953
 2047SOL     OW 6700   0.118   2.870   7.282
 2047SOL    HW1 6701   0.052   2.906   7.341
 2047SOL    HW2 6702   0.195   2.857   7.337
 2048SOL     OW 6703   0.672   2.061   7.084
 2048SOL    HW1 6704   0.756   2.041   7.042
 2048SOL    HW2 6705   0.696   2.087   7.173
 2049SOL     OW 6706   0.072   2.189   5.619
 2049SOL    HW1 6707   4.477   2.197   5.616
 2049SOL    HW2 6708   0.104   2.270   5.581
 2050SOL     OW 6709   1.433   2.721   6.988
 2050SOL    HW1 6710   1.383   2.779   6.930
 2050SOL    HW2 6711   1.522   2.724   6.954
 2051SOL     OW 6712   0.084   2.040   5.893
 2051SOL    HW1 6713   0.077   2.111   5.830
 2051SOL    HW2 6714   0.160   1.989   5.865
 2052SOL     OW 6715   1.180   3.204   5.702
 2052SOL    HW1 6716   1.089   3.174   5.706
 2052SOL    HW2 6717   1.209   3.203   5.794
 2053SOL     OW 6718   0.620   2.693   7.014
 2053SOL    HW1 6719   0.675   2.771   7.002
 2053SOL    HW2 6720   0.682   2.621   7.024
 2054SOL     OW 6721   1.485   3.636   6.560
 2054SOL    HW1 6722   1.512   3.694   6.489
 2054SOL    HW2 6723   1.566   3.621   6.610
 2055SOL     OW 6724   0.716   2.425   7.291
 2055SOL    HW1 6725   0.749   2.491   7.352
 2055SOL    HW2 6726   0.755   2.343   7.321
 2056SOL     OW 6727   1.468   3.066   7.219
 2056SOL    HW1 6728   1.456   3.078   7.314
 2056SOL    HW2 6729   1.562   3.077   7.205
 2057SOL     OW 6730   0.383   3.604   7.149
 2057SOL    HW1 6731   0.297   3.644   7.135
 2057SOL    HW2 6732   0.364   3.522   7.195
 2058SOL     OW 6733   1.672   2.746   6.840
 2058SOL    HW1 6734   1.661   2.660   6.798
 2058SOL    HW2 6735   1.667   2.809   6.768
 2059SOL     OW 6736   1.217   2.182   6.038
 2059SOL    HW1 6737   1.283   2.113   6.035
 2059SOL    HW2 6738   1.238   2.231   6.118
 2060SOL     OW 6739   0.591   2.602   6.253
 2060SOL    HW1 6740   0.630   2.688   6.236
 2060SOL    HW2 6741   0.520   2.595   6.189
 2061SOL     OW 6742   1.766   2.223   7.241
 2061SOL    HW1 6743   1.756   2.234   7.146
 2061SOL    HW2 6744   1.693   2.167   7.266
 2062SOL     OW 6745   1.743   2.796   7.098
 2062SOL    HW1 6746   1.745   2.890   7.110
 2062SOL    HW2 6747   1.728   2.784   7.004
 2063SOL     OW 6748   0.864   3.231   5.616
 2063SOL    HW1 6749   0.823   3.255   5.699
 2063SOL    HW2 6750   0.882   3.314   5.572
 2064SOL     OW 6751   0.659   3.656   6.535
 2064SOL    HW1 6752   0.637   3.746   6.509
 2064SOL    HW2 6753   0.754   3.652   6.525
 2065SOL     OW 6754   0.866   2.827   6.442
 2065SOL    HW1 6755   0.916   2.756   6.482
 2065SOL    HW2 6756   0.833   2.878   6.516
 2066SOL     OW 6757   1.080   2.852   5.675
 2066SOL    HW1 6758   1.058   2.900   5.595
 2066SOL    HW2 6759   1.155   2.797   5.649
 2067SOL     OW 6760   1.857   3.417   6.431
 2067SOL    HW1 6761   1.779   3.409   6.376
 2067SOL    HW2 6762   1.844   3.352   6.501
 2068SOL     OW 6763   0.228   3.169   7.442
 2068SOL    HW1 6764   0.159   3.107   7.417
 2068SOL    HW2 6765   0.218   3.179   7.537
 2069SOL     OW 6766   0.102   3.102   6.252
 2069SOL    HW1 6767   0.104   3.050   6.333
 2069SOL    HW2 6768   0.162   3.058   6.193
 2070SOL     OW 6769   0.680   3.262   7.212
 2070SOL    HW1 6770   0.600   3.218   7.240
 2070SOL    HW2 6771   0.674   3.350   7.249
 2071SOL     OW 6772   1.818   2.052   6.816
 2071SOL    HW1 6773   1.827   1.960   6.843
 2071SOL    HW2 6774   1.823   2.049   6.721
 2072SOL     OW 6775   0.434   2.295   6.111
 2072SOL    HW1 6776   0.458   2.221   6.054
 2072SOL    HW2 6777   0.384   2.256   6.182
 2073SOL     OW 6778   1.702   3.353   6.685
 2073SOL    HW1 6779   1.620   3.328   6.642
 2073SOL    HW2 6780   1.717   3.285   6.751
 2074SOL     OW 6781   0.306   2.351   6.844
 2074SOL    HW1 6782   0.380   2.312   6.890
 2074SOL    HW2 6783   0.338   2.365   6.754
 2075SOL     OW 6784   0.825   3.440   6.266
 2075SOL    HW1 6785   0.818   3.484   6.181
 2075SOL    HW2 6786   0.746   3.385   6.270
 2076SOL     OW 6787   1.435   2.086   6.708
 2076SOL    HW1 6788   1.456   2.005   6.755
 2076SOL    HW2 6789   1.380   2.135   6.769
 2077SOL     OW 6790   1.007   1.882   6.732
 2077SOL    HW1 6791   0.953   1.813   6.694
 2077SOL    HW2 6792   1.096   1.845   6.734
 2078SOL     OW 6793   0.772   3.194   5.895
 2078SOL    HW1 6794   0.737   3.105   5.903
 2078SOL    HW2 6795   0.854   3.192   5.945
 2079SOL     OW 6796   0.621   3.421   6.870
 2079SOL    HW1 6797   0.624   3.501   6.921
 2079SOL    HW2 6798   0.708   3.414   6.831
 2080SOL     OW 6799   1.344   1.901   5.760
 2080SOL    HW1 6800   1.365   1.857   5.677
 2080SOL    HW2 6801   1.257   1.868   5.782
 2081SOL     OW 6802   1.270   2.320   6.266
 2081SOL    HW1 6803   1.226   2.404   6.279
 2081SOL    HW2 6804   1.282   2.286   6.355
 2082SOL     OW 6805   0.041   2.916   5.873
 2082SOL    HW1 6806   0.136   2.905   5.866
 2082SOL    HW2 6807   0.018   2.874   5.955
 2083SOL     OW 6808   0.882   3.512   5.930
 2083SOL    HW1 6809   0.810   3.493   5.869
 2083SOL    HW2 6810   0.851   3.587   5.980
 2084SOL     OW 6811   0.248   2.489   7.566
 2084SOL    HW1 6812   0.173   2.475   7.623
 2084SOL    HW2 6813   0.217   2.468   7.478
 2085SOL     OW 6814   0.213   2.138   8.440
 2085SOL    HW1 6815   0.250   2.112   8.524
 2085SOL    HW2 6816   0.137   2.081   8.428
 2086SOL     OW 6817   0.010   2.249   8.087
 2086SOL    HW1 6818   4.429   2.279   8.130
 2086SOL    HW2 6819   4.484   2.169   8.041
 2087SOL     OW 6820   0.567   3.144   8.620
 2087SOL    HW1 6821   0.479   3.148   8.582
 2087SOL    HW2 6822   0.582   3.231   8.656
 2088SOL     OW 6823   1.557   3.374   8.154
 2088SOL    HW1 6824   1.513   3.356   8.236
 2088SOL    HW2 6825   1.487   3.378   8.089
 2089SOL     OW 6826   1.129   2.561   8.152
 2089SOL    HW1 6827   1.180   2.641   8.137
 2089SOL    HW2 6828   1.083   2.577   8.234
 2090SOL     OW 6829   1.765   2.469   7.678
 2090SOL    HW1 6830   1.745   2.460   7.585
 2090SOL    HW2 6831   1.731   2.389   7.719
 2091SOL     OW 6832   0.759   3.007   8.485
 2091SOL    HW1 6833   0.689   3.040   8.541
 2091SOL    HW2 6834   0.793   3.084   8.440
 2092SOL     OW 6835   0.862   2.642   9.269
 2092SOL    HW1 6836   0.849   2.714   9.331
 2092SOL    HW2 6837   0.885   2.686   9.186
 2093SOL     OW 6838   0.686   2.870   8.098
 2093SOL    HW1 6839   0.750   2.854   8.167
 2093SOL    HW2 6840   0.616   2.919   8.140
 2094SOL     OW 6841   0.708   3.013   9.257
 2094SOL    HW1 6842   0.755   3.093   9.281
 2094SOL    HW2 6843   0.624   3.045   9.223
 2095SOL     OW 6844   0.337   3.286   8.518
 2095SOL    HW1 6845   0.256   3.266   8.471
 2095SOL    HW2 6846   0.387   3.341   8.457
 2096SOL     OW 6847   1.462   3.360   8.798
 2096SOL    HW1 6848   1.504   3.445   8.809
 2096SOL    HW2 6849   1.407   3.350   8.876
 2097SOL     OW 6850   0.442   2.266   8.944
 2097SOL    HW1 6851   0.522   2.213   8.946
 2097SOL    HW2 6852   0.371   2.202   8.947
 2098SOL     OW 6853   1.612   2.310   8.188
 2098SOL    HW1 6854   1.537   2.337   8.135
 2098SOL    HW2 6855   1.635   2.389   8.237
 2099SOL     OW 6856   0.246   3.554   7.928
 2099SOL    HW1 6857   0.233   3.638   7.971
 2099SOL    HW2 6858   0.306   3.572   7.856
 2100SOL     OW 6859   1.136   3.203   9.139
 2100SOL    HW1 6860   1.175   3.200   9.226
 2100SOL    HW2 6861   1.083   3.123   9.133
 2101SOL     OW 6862   0.243   3.290   7.976
 2101SOL    HW1 6863   0.236   3.385   7.982
 2101SOL    HW2 6864   0.178   3.257   8.039
 2102SOL     OW 6865   0.244   2.943   8.330
 2102SOL    HW1 6866   0.263   2.856   8.365
 2102SOL    HW2 6867   0.188   2.984   8.396
 2103SOL     OW 6868   0.617   3.652   8.881
 2103SOL    HW1 6869   0.533   3.635   8.923
 2103SOL    HW2 6870   0.637   3.743   8.904
 2104SOL     OW 6871   0.585   2.845   7.582
 2104SOL    HW1 6872   0.629   2.893   7.512
 2104SOL    HW2 6873   0.630   2.871   7.662
 2105SOL     OW 6874   1.590   1.981   8.918
 2105SOL    HW1 6875   1.599   2.059   8.863
 2105SOL    HW2 6876   1.585   2.016   9.007
 2106SOL     OW 6877   0.137   2.506   8.023
 2106SOL    HW1 6878   0.086   2.425   8.035
 2106SOL    HW2 6879   0.106   2.564   8.092
 2107SOL     OW 6880   1.841   3.623   7.785
 2107SOL    HW1 6881   1.900   3.594   7.855
 2107SOL    HW2 6882   1.869   3.713   7.767
 2108SOL     OW 6883   0.033   3.462   7.583
 2108SOL    HW1 6884   0.021   3.367   7.586
 2108SOL    HW2 6885   0.009   3.492   7.671
 2109SOL     OW 6886   1.691   2.782   8.086
 2109SOL    HW1 6887   1.774   2.739   8.065
 2109SOL    HW2 6888   1.669   2.831   8.006
 2110SOL     OW 6889   1.644   2.970   7.878
 2110SOL    HW1 6890   1.729   2.978   7.835
 2110SOL    HW2 6891   1.649   3.030   7.952
 2111SOL     OW 6892   0.110   2.620   9.038
 2111SOL    HW1 6893   0.205   2.622   9.026
 2111SOL    HW2 6894   0.086   2.713   9.040
 2112SOL     OW 6895   0.613   3.243   8.184
 2112SOL    HW1 6896   0.566   3.160   8.192
 2112SOL    HW2 6897   0.596   3.271   8.093
 2113SOL     OW 6898   1.291   3.101   8.872
 2113SOL    HW1 6899   1.323   3.033   8.813
 2113SOL    HW2 6900   1.346   3.093   8.950
 2114SOL     OW 6901   0.812   1.860   7.953
 2114SOL    HW1 6902   0.853   1.946   7.938
 2114SOL    HW2 6903   0.719   1.879   7.964
 2115SOL     OW 6904   0.184   2.807   8.727
 2115SOL    HW1 6905   0.275   2.789   8.704
 2115SOL    HW2 6906   0.134   2.781   8.650
 2116SOL     OW 6907   1.532   2.853   7.644
 2116SOL    HW1 6908   1.462   2.795   7.673
 2116SOL    HW2 6909   1.570   2.887   7.725
 2117SOL     OW 6910   1.186   3.666   9.068
 2117SOL    HW1 6911   1.201   3.722   8.992
 2117SOL    HW2 6912   1.200   3.577   9.035
 2118SOL     OW 6913   0.328   2.117   9.243
 2118SOL    HW1 6914   0.381   2.190   9.276
 2118SOL    HW2 6915   0.243   2.129   9.286
 2119SOL     OW 6916   1.466   3.282   8.402
 2119SOL    HW1 6917   1.397   3.295   8.467
 2119SOL    HW2 6918   1.454   3.191   8.374
 2120SOL     OW 6919   1.662   3.594   8.025
 2120SOL    HW1 6920   1.638   3.567   7.937
 2120SOL    HW2 6921   1.635   3.521   8.081
 2121SOL     OW 6922   0.597   2.584   7.712
 2121SOL    HW1 6923   0.603   2.664   7.659
 2121SOL    HW2 6924   0.531   2.604   7.779
 2122SOL     OW 6925   1.280   2.210   8.380
 2122SOL    HW1 6926   1.190   2.176   8.388
 2122SOL    HW2 6927   1.330   2.158   8.443
 2123SOL     OW 6928   1.582   3.530   7.757
 2123SOL    HW1 6929   1.670   3.565   7.751
 2123SOL    HW2 6930   1.556   3.513   7.666
 2124SOL     OW 6931   0.794   2.478   8.901
 2124SOL    HW1 6932   0.768   2.456   8.990
 2124SOL    HW2 6933   0.750   2.414   8.846
 2125SOL     OW 6934   1.393   2.336   9.126
 2125SOL    HW1 6935   1.394   2.379   9.211
 2125SOL    HW2 6936   1.458   2.266   9.134
 2126SOL     OW 6937   0.958   2.751   9.028
 2126SOL    HW1 6938   1.012   2.679   8.994
 2126SOL    HW2 6939   0.911   2.784   8.952
 2127SOL     OW 6940   0.993   2.276   8.687
 2127SOL    HW1 6941   0.910   2.299   8.730
 2127SOL    HW2 6942   0.967   2.227   8.609
 2128SOL     OW 6943   1.049   2.561   7.875
 2128SOL    HW1 6944   1.064   2.554   7.969
 2128SOL    HW2 6945   0.968   2.513   7.860
 2129SOL     OW 6946   0.098   2.685   8.231
 2129SOL    HW1 6947   0.184   2.664   8.267
 2129SOL    HW2 6948   0.054   2.734   8.301
 2130SOL     OW 6949   0.126   3.711   9.023
 2130SOL    HW1 6950   0.119   3.690   9.116
 2130SOL    HW2 6951   0.044   3.681   8.985
 2131SOL     OW 6952   0.886   2.208   7.642
 2131SOL    HW1 6953   0.930   2.269   7.583
 2131SOL    HW2 6954   0.905   2.122   7.606
 2132SOL     OW 6955   1.715   2.444   9.276
 2132SOL    HW1 6956   1.675   2.518   9.230
 2132SOL    HW2 6957   1.729   2.379   9.208
 2133SOL     OW 6958   1.375   3.005   7.991
 2133SOL    HW1 6959   1.453   2.989   7.937
 2133SOL    HW2 6960   1.322   3.066   7.940
 2134SOL     OW 6961   0.550   2.047   8.340
 2134SOL    HW1 6962   0.553   2.074   8.432
 2134SOL    HW2 6963   0.552   2.128   8.291
 2135SOL     OW 6964   1.009   3.308   7.922
 2135SOL    HW1 6965   0.968   3.379   7.873
 2135SOL    HW2 6966   0.994   3.331   8.014
 2136SOL     OW 6967   0.354   3.669   8.304
 2136SOL    HW1 6968   0.397   3.584   8.315
 2136SOL    HW2 6969   0.424   3.733   8.316
 2137SOL     OW 6970   1.799   2.922   8.315
 2137SOL    HW1 6971   1.742   2.904   8.239
 2137SOL    HW2 6972   1.738   2.927   8.389
 2138SOL     OW 6973   1.228   3.402   8.960
 2138SOL    HW1 6974   1.214   3.329   9.020
 2138SOL    HW2 6975   1.167   3.385   8.888
 2139SOL     OW 6976   0.317   2.816   7.696
 2139SOL    HW1 6977   0.402   2.838   7.657
 2139SOL    HW2 6978   0.299   2.727   7.667
 2140SOL     OW 6979   1.475   2.601   8.176
 2140SOL    HW1 6980   1.463   2.554   8.258
 2140SOL    HW2 6981   1.552   2.656   8.190
 2141SOL     OW 6982   0.465   3.123   9.183
 2141SOL    HW1 6983   0.437   3.129   9.092
 2141SOL    HW2 6984   0.384   3.128   9.234
 2142SOL     OW 6985   1.120   3.639   7.680
 2142SOL    HW1 6986   1.049   3.596   7.727
 2142SOL    HW2 6987   1.142   3.580   7.608
 2143SOL     OW 6988   0.195   2.140   8.936
 2143SOL    HW1 6989   0.131   2.211   8.940
 2143SOL    HW2 6990   0.186   2.095   9.020
 2144SOL     OW 6991   1.630   3.241   7.534
 2144SOL    HW1 6992   1.588   3.326   7.520
 2144SOL    HW2 6993   1.561   3.177   7.516
 2145SOL     OW 6994   0.469   3.607   7.762
 2145SOL    HW1 6995   0.508   3.658   7.833
 2145SOL    HW2 6996   0.544   3.575   7.711
 2146SOL     OW 6997   1.401   1.970   7.878
 2146SOL    HW1 6998   1.390   1.945   7.786
 2146SOL    HW2 6999   1.496   1.978   7.889
 2147SOL     OW 7000   0.260   3.656   8.682
 2147SOL    HW1 7001   0.306   3.583   8.723
 2147SOL    HW2 7002   0.229   3.621   8.599
 2148SOL     OW 7003   0.939   3.560   8.348
 2148SOL    HW1 7004   1.015   3.506   8.369
 2148SOL    HW2 7005   0.892   3.512   8.280
 2149SOL     OW 7006   0.392   2.558   7.923
 2149SOL    HW1 7007   0.417   2.466   7.932
 2149SOL    HW2 7008   0.300   2.560   7.949
 2150SOL     OW 7009   1.538   2.086   9.174
 2150SOL    HW1 7010   1.543   2.108   9.268
 2150SOL    HW2 7011   1.470   2.019   9.169
 2151SOL     OW 7012   0.629   1.989   7.554
 2151SOL    HW1 7013   0.704   1.931   7.567
 2151SOL    HW2 7014   0.585   1.954   7.476
 2152SOL     OW 7015   0.768   2.137   9.200
 2152SOL    HW1 7016   0.841   2.075   9.208
 2152SOL    HW2 7017   0.718   2.125   9.281
 2153SOL     OW 7018   0.878   3.384   8.641
 2153SOL    HW1 7019   0.862   3.347   8.554
 2153SOL    HW2 7020   0.946   3.328   8.678
 2154SOL     OW 7021   1.341   2.451   8.880
 2154SOL    HW1 7022   1.372   2.418   8.964
 2154SOL    HW2 7023   1.378   2.539   8.874
 2155SOL     OW 7024   0.813   3.261   8.384
 2155SOL    HW1 7025   0.897   3.250   8.338
 2155SOL    HW2 7026   0.747   3.258   8.314
 2156SOL     OW 7027   0.926   2.371   8.352
 2156SOL    HW1 7028   0.904   2.363   8.260
 2156SOL    HW2 7029   0.960   2.285   8.376
 2157SOL     OW 7030   0.550   1.924   7.953
 2157SOL    HW1 7031   0.469   1.923   8.004
 2157SOL    HW2 7032   0.544   2.003   7.899
 2158SOL     OW 7033   1.429   3.060   7.489
 2158SOL    HW1 7034   1.460   2.984   7.539
 2158SOL    HW2 7035   1.342   3.079   7.526
 2159SOL     OW 7036   0.295   1.908   7.626
 2159SOL    HW1 7037   0.357   1.976   7.599
 2159SOL    HW2 7038   0.349   1.842   7.670
 2160SOL     OW 7039   0.936   2.106   7.912
 2160SOL    HW1 7040   0.907   2.149   7.832
 2160SOL    HW2 7041   1.031   2.118   7.913
 2161SOL     OW 7042   1.080   2.541   8.908
 2161SOL    HW1 7043   1.010   2.476   8.914
 2161SOL    HW2 7044   1.160   2.489   8.900
 2162SOL     OW 7045   1.225   3.431   8.241
 2162SOL    HW1 7046   1.243   3.499   8.176
 2162SOL    HW2 7047   1.293   3.443   8.308
 2163SOL     OW 7048   0.465   3.009   8.186
 2163SOL    HW1 7049   0.393   2.991   8.246
 2163SOL    HW2 7050   0.428   2.993   8.099
 2164SOL     OW 7051   1.271   3.657   8.053
 2164SOL    HW1 7052   1.315   3.718   7.994
 2164SOL    HW2 7053   1.207   3.710   8.100
 2165SOL     OW 7054   1.025   2.407   7.467
 2165SOL    HW1 7055   0.984   2.491   7.446
 2165SOL    HW2 7056   1.090   2.429   7.535
 2166SOL     OW 7057   0.080   2.396   8.854
 2166SOL    HW1 7058   0.149   2.397   8.789
 2166SOL    HW2 7059   0.068   2.488   8.879
 2167SOL     OW 7060   0.562   2.089   8.612
 2167SOL    HW1 7061   0.602   2.008   8.644
 2167SOL    HW2 7062   0.470   2.083   8.639
 2168SOL     OW 7063   0.870   2.322   8.088
 2168SOL    HW1 7064   0.823   2.375   8.024
 2168SOL    HW2 7065   0.889   2.240   8.041
 2169SOL     OW 7066   1.014   1.915   8.202
 2169SOL    HW1 7067   0.956   1.906   8.127
 2169SOL    HW2 7068   0.994   1.838   8.256
 2170SOL     OW 7069   1.436   3.026   8.306
 2170SOL    HW1 7070   1.368   2.958   8.305
 2170SOL    HW2 7071   1.458   3.039   8.214
 2171SOL     OW 7072   1.467   2.464   8.430
 2171SOL    HW1 7073   1.421   2.381   8.433
 2171SOL    HW2 7074   1.528   2.461   8.504
 2172SOL     OW 7075   1.849   2.680   7.830
 2172SOL    HW1 7076   1.903   2.627   7.888
 2172SOL    HW2 7077   1.819   2.620   7.762
 2173SOL     OW 7078   0.492   3.275   7.610
 2173SOL    HW1 7079   0.416   3.245   7.660
 2173SOL    HW2 7080   0.471   3.256   7.519
 2174SOL     OW 7081   1.668   3.128   8.097
 2174SOL    HW1 7082   1.763   3.134   8.109
 2174SOL    HW2 7083   1.635   3.215   8.118
 2175SOL     OW 7084   1.393   2.434   7.519
 2175SOL    HW1 7085   1.334   2.415   7.592
 2175SOL    HW2 7086   1.479   2.401   7.548
 2176SOL     OW 7087   0.525   2.122   7.769
 2176SOL    HW1 7088   0.567   2.074   7.698
 2176SOL    HW2 7089   0.509   2.210   7.732
 2177SOL     OW 7090   1.753   3.098   9.024
 2177SOL    HW1 7091   1.841   3.059   9.023
 2177SOL    HW2 7092   1.768   3.188   9.054
 2178SOL     OW 7093   1.061   3.216   8.783
 2178SOL    HW1 7094   0.986   3.185   8.834
 2178SOL    HW2 7095   1.137   3.174   8.824
 2179SOL     OW 7096   1.605   3.487   9.099
 2179SOL    HW1 7097   1.603   3.521   9.009
 2179SOL    HW2 7098   1.689   3.441   9.105
 2180SOL     OW 7099   1.125   3.064   8.555
 2180SOL    HW1 7100   1.067   3.101   8.621
 2180SOL    HW2 7101   1.090   3.094   8.471
 2181SOL     OW 7102   1.632   2.962   8.526
 2181SOL    HW1 7103   1.627   3.024   8.599
 2181SOL    HW2 7104   1.551   2.976   8.478
 2182SOL     OW 7105   0.917   1.961   8.847
 2182SOL    HW1 7106   0.940   1.941   8.756
 2182SOL    HW2 7107   0.996   2.000   8.884
 2183SOL     OW 7108   0.984   2.976   9.170
 2183SOL    HW1 7109   0.891   2.991   9.189
 2183SOL    HW2 7110   0.985   2.899   9.114
 2184SOL     OW 7111   0.708   2.922   7.821
 2184SOL    HW1 7112   0.695   2.908   7.915
 2184SOL    HW2 7113   0.784   2.869   7.798
 2185SOL     OW 7114   0.429   2.684   8.686
 2185SOL    HW1 7115   0.497   2.696   8.752
 2185SOL    HW2 7116   0.369   2.620   8.725
 2186SOL     OW 7117   1.268   2.240   8.720
 2186SOL    HW1 7118   1.300   2.318   8.767
 2186SOL    HW2 7119   1.178   2.263   8.695
 2187SOL     OW 7120   0.061   3.437   8.786
 2187SOL    HW1 7121   0.032   3.526   8.763
 2187SOL    HW2 7122   0.156   3.444   8.794
 2188SOL     OW 7123   0.352   2.968   7.942
 2188SOL    HW1 7124   0.359   3.041   7.881
 2188SOL    HW2 7125   0.354   2.890   7.886
 2189SOL     OW 7126   0.562   2.397   8.305
 2189SOL    HW1 7127   0.576   2.457   8.232
 2189SOL    HW2 7128   0.621   2.429   8.374
 2190SOL     OW 7129   1.248   3.210   7.837
 2190SOL    HW1 7130   1.303   3.282   7.868
 2190SOL    HW2 7131   1.161   3.230   7.871
 2191SOL     OW 7132   1.277   3.317   8.593
 2191SOL    HW1 7133   1.331   3.319   8.672
 2191SOL    HW2 7134   1.221   3.240   8.604
 2192SOL     OW 7135   1.582   2.487   7.923
 2192SOL    HW1 7136   1.539   2.544   7.987
 2192SOL    HW2 7137   1.629   2.547   7.866
 2193SOL     OW 7138   0.348   3.390   8.766
 2193SOL    HW1 7139   0.333   3.344   8.684
 2193SOL    HW2 7140   0.443   3.401   8.771
 2194SOL     OW 7141   0.471   2.621   9.107
 2194SOL    HW1 7142   0.501   2.661   9.026
 2194SOL    HW2 7143   0.504   2.531   9.104
 2195SOL     OW 7144   1.598   2.641   9.128
 2195SOL    HW1 7145   1.511   2.680   9.120
 2195SOL    HW2 7146   1.649   2.682   9.059
 2196SOL     OW 7147   0.997   1.979   9.205
 2196SOL    HW1 7148   1.047   2.053   9.171
 2196SOL    HW2 7149   1.046   1.902   9.178
 2197SOL     OW 7150   0.498   1.906   9.193
 2197SOL    HW1 7151   0.459   1.850   9.127
 2197SOL    HW2 7152   0.437   1.979   9.203
 2198SOL     OW 7153   0.588   2.735   8.472
 2198SOL    HW1 7154   0.616   2.827   8.474
 2198SOL    HW2 7155   0.531   2.726   8.548
 2199SOL     OW 7156   1.361   2.721   8.482
 2199SOL    HW1 7157   1.280   2.715   8.431
 2199SOL    HW2 7158   1.398   2.633   8.480
 2200SOL     OW 7159   1.207   2.391   7.718
 2200SOL    HW1 7160   1.215   2.313   7.772
 2200SOL    HW2 7161   1.165   2.455   7.775
 2201SOL     OW 7162   0.303   2.056   8.689
 2201SOL    HW1 7163   0.265   2.091   8.770
 2201SOL    HW2 7164   0.285   1.962   8.692
 2202SOL     OW 7165   0.048   3.174   8.731
 2202SOL    HW1 7166   0.078   3.128   8.809
 2202SOL    HW2 7167   0.049   3.267   8.757
 2203SOL     OW 7168   0.727   2.495   8.509
 2203SOL    HW1 7169   0.799   2.475   8.449
 2203SOL    HW2 7170   0.700   2.583   8.485
 2204SOL     OW 7171   1.732   2.823   9.298
 2204SOL    HW1 7172   1.686   2.765   9.237
 2204SOL    HW2 7173   1.673   2.833   9.372
 2205SOL     OW 7174   0.308   1.932   8.067
 2205SOL    HW1 7175   0.287   2.021   8.096
 2205SOL    HW2 7176   0.303   1.879   8.147
 2206SOL     OW 7177   1.612   2.233   7.818
 2206SOL    HW1 7178   1.641   2.171   7.884
 2206SOL    HW2 7179   1.590   2.313   7.867
 2207SOL     OW 7180   1.027   2.622   8.410
 2207SOL    HW1 7181   1.027   2.639   8.504
 2207SOL    HW2 7182   1.000   2.530   8.403
 2208SOL     OW 7183   0.983   3.429   9.162
 2208SOL    HW1 7184   0.967   3.472   9.078
 2208SOL    HW2 7185   1.025   3.346   9.138
 2209SOL     OW 7186   1.856   3.372   9.054
 2209SOL    HW1 7187   1.873   3.397   8.963
 2209SOL    HW2 7188   1.937   3.393   9.100
 2210SOL     OW 7189   0.348   2.792   9.266
 2210SOL    HW1 7190   0.423   2.819   9.319
 2210SOL    HW2 7191   0.383   2.726   9.206
 2211SOL     OW 7192   1.531   2.135   7.575
 2211SOL    HW1 7193   1.467   2.070   7.602
 2211SOL    HW2 7194   1.564   2.172   7.657
 2212SOL     OW 7195   1.295   2.690   7.481
 2212SOL    HW1 7196   1.337   2.604   7.485
 2212SOL    HW2 7197   1.325   2.728   7.399
 2213SOL     OW 7198   1.065   3.197   8.300
 2213SOL    HW1 7199   1.068   3.124   8.239
 2213SOL    HW2 7200   1.128   3.260   8.265
 2214SOL     OW 7201   0.317   2.675   8.398
 2214SOL    HW1 7202   0.411   2.692   8.394
 2214SOL    HW2 7203   0.310   2.584   8.428
 2215SOL     OW 7204   0.334   2.385   8.442
 2215SOL    HW1 7205   0.295   2.299   8.426
 2215SOL    HW2 7206   0.411   2.387   8.385
 2216SOL     OW 7207   1.134   2.241   9.127
 2216SOL    HW1 7208   1.089   2.296   9.191
 2216SOL    HW2 7209   1.223   2.277   9.123
 2217SOL     OW 7210   1.159   2.067   8.918
 2217SOL    HW1 7211   1.151   2.129   8.990
 2217SOL    HW2 7212   1.198   2.117   8.846
 2218SOL     OW 7213   4.492   3.185   7.649
 2218SOL    HW1 7214   4.399   3.200   7.631
 2218SOL    HW2 7215   4.498   3.093   7.673
 2219SOL     OW 7216   0.095   3.644   8.388
 2219SOL    HW1 7217   0.057   3.583   8.325
 2219SOL    HW2 7218   0.182   3.663   8.354
 2220SOL     OW 7219   0.499   3.435   8.354
 2220SOL    HW1 7220   0.567   3.497   8.378
 2220SOL    HW2 7221   0.544   3.370   8.300
 2221SOL     OW 7222   0.988   2.657   8.677
 2221SOL    HW1 7223   1.041   2.631   8.752
 2221SOL    HW2 7224   0.902   2.621   8.694
 2222SOL     OW 7225   0.037   2.423   8.554
 2222SOL    HW1 7226   0.119   2.386   8.522
 2222SOL    HW2 7227   0.028   2.387   8.643
 2223SOL     OW 7228   0.179   2.377   9.161
 2223SOL    HW1 7229   0.258   2.349   9.115
 2223SOL    HW2 7230   0.153   2.458   9.118
 2224SOL     OW 7231   1.375   2.804   9.107
 2224SOL    HW1 7232   1.396   2.897   9.107
 2224SOL    HW2 7233   1.374   2.780   9.015
 2225SOL     OW 7234   0.816   2.430   7.803
 2225SOL    HW1 7235   0.818   2.355   7.743
 2225SOL    HW2 7236   0.741   2.482   7.773
 2226SOL     OW 7237   1.642   2.465   8.639
 2226SOL    HW1 7238   1.632   2.401   8.710
 2226SOL    HW2 7239   1.729   2.447   8.603
 2227SOL     OW 7240   0.272   3.423   9.190
 2227SOL    HW1 7241   0.218   3.476   9.249
 2227SOL    HW2 7242   0.250   3.333   9.213
 2228SOL     OW 7243   0.685   2.319   8.713
 2228SOL    HW1 7244   0.644   2.240   8.677
 2228SOL    HW2 7245   0.690   2.379   8.639
 2229SOL     OW 7246   0.931   3.541   8.914
 2229SOL    HW1 7247   0.903   3.510   8.827
 2229SOL    HW2 7248   0.929   3.636   8.907
 2230SOL     OW 7249   0.473   2.353   7.636
 2230SOL    HW1 7250   0.531   2.426   7.657
 2230SOL    HW2 7251   0.387   2.393   7.623
 2231SOL     OW 7252   0.161   3.003   8.911
 2231SOL    HW1 7253   0.148   2.954   8.993
 2231SOL    HW2 7254   0.171   2.935   8.844
 2232SOL     OW 7255   1.330   2.912   8.673
 2232SOL    HW1 7256   1.354   2.848   8.605
 2232SOL    HW2 7257   1.257   2.961   8.636
 2233SOL     OW 7258   1.308   2.719   7.756
 2233SOL    HW1 7259   1.231   2.688   7.804
 2233SOL    HW2 7260   1.286   2.705   7.664
 2234SOL     OW 7261   1.767   3.609   8.596
 2234SOL    HW1 7262   1.828   3.634   8.526
 2234SOL    HW2 7263   1.744   3.519   8.576
 2235SOL     OW 7264   1.242   3.595   8.566
 2235SOL    HW1 7265   1.323   3.612   8.518
 2235SOL    HW2 7266   1.244   3.501   8.583
 2236SOL     OW 7267   0.069   3.051   8.495
 2236SOL    HW1 7268   0.074   3.086   8.585
 2236SOL    HW2 7269   0.011   3.112   8.449
 2237SOL     OW 7270   0.679   3.526   9.173
 2237SOL    HW1 7271   0.626   3.605   9.170
 2237SOL    HW2 7272   0.740   3.535   9.099
 2238SOL     OW 7273   1.717   2.003   7.960
 2238SOL    HW1 7274   1.792   1.989   7.902
 2238SOL    HW2 7275   1.702   1.918   8.001
 2239SOL     OW 7276   1.390   3.430   7.931
 2239SOL    HW1 7277   1.450   3.460   7.863
 2239SOL    HW2 7278   1.343   3.508   7.958
 2240SOL     OW 7279   0.121   3.669   9.295
 2240SOL    HW1 7280   0.082   3.595   9.342
 2240SOL    HW2 7281   0.184   3.706   9.357
 2241SOL     OW 7282   1.277   2.786   8.119
 2241SOL    HW1 7283   1.350   2.725   8.124
 2241SOL    HW2 7284   1.311   2.859   8.067
 2242SOL     OW 7285   0.819   3.134   8.879
 2242SOL    HW1 7286   0.793   3.173   8.963
 2242SOL    HW2 7287   0.747   3.156   8.820
 2243SOL     OW 7288   0.673   3.478   7.603
 2243SOL    HW1 7289   0.681   3.489   7.508
 2243SOL    HW2 7290   0.620   3.399   7.614
 2244SOL     OW 7291   1.634   3.588   8.840
 2244SOL    HW1 7292   1.680   3.596   8.757
 2244SOL    HW2 7293   1.620   3.679   8.869
 2245SOL     OW 7294   1.846   2.044   8.414
 2245SOL    HW1 7295   1.879   1.958   8.388
 2245SOL    HW2 7296   1.759   2.049   8.374
 2246SOL     OW 7297   0.267   2.182   8.168
 2246SOL    HW1 7298   0.184   2.221   8.139
 2246SOL    HW2 7299   0.256   2.170   8.262
 2247SOL     OW 7300   1.205   3.470   7.479
 2247SOL    HW1 7301   1.198   3.379   7.507
 2247SOL    HW2 7302   1.141   3.480   7.409
 2248SOL     OW 7303   0.825   2.868   8.820
 2248SOL    HW1 7304   0.867   2.865   8.734
 2248SOL    HW2 7305   0.826   2.961   8.844
 2249SOL     OW 7306   0.915   2.773   7.737
 2249SOL    HW1 7307   0.977   2.804   7.671
 2249SOL    HW2 7308   0.962   2.701   7.781
 2250SOL     OW 7309   1.495   3.486   7.490
 2250SOL    HW1 7310   1.400   3.483   7.479
 2250SOL    HW2 7311   1.529   3.492   7.401
 2251SOL     OW 7312   0.373   3.166   8.939
 2251SOL    HW1 7313   0.356   3.245   8.888
 2251SOL    HW2 7314   0.297   3.111   8.923
 2252SOL     OW 7315   1.613   3.146   8.729
 2252SOL    HW1 7316   1.670   3.137   8.806
 2252SOL    HW2 7317   1.551   3.215   8.753
 2253SOL     OW 7318   1.048   2.967   8.153
 2253SOL    HW1 7319   0.978   2.916   8.193
 2253SOL    HW2 7320   1.109   2.902   8.118
 2254SOL     OW 7321   1.019   2.102   8.414
 2254SOL    HW1 7322   1.014   2.054   8.331
 2254SOL    HW2 7323   1.015   2.034   8.481
 2255SOL     OW 7324   0.603   3.352   7.931
 2255SOL    HW1 7325   0.641   3.301   7.860
 2255SOL    HW2 7326   0.532   3.402   7.890
 2256SOL     OW 7327   1.716   2.257   8.826
 2256SOL    HW1 7328   1.793   2.314   8.829
 2256SOL    HW2 7329   1.745   2.181   8.774
 2257SOL     OW 7330   0.252   3.207   7.726
 2257SOL    HW1 7331   0.158   3.208   7.711
 2257SOL    HW2 7332   0.262   3.240   7.815
 2258SOL     OW 7333   0.118   2.870   9.144
 2258SOL    HW1 7334   0.052   2.906   9.203
 2258SOL    HW2 7335   0.195   2.857   9.199
 2259SOL     OW 7336   0.672   2.061   8.946
 2259SOL    HW1 7337   0.756   2.040   8.904
 2259SOL    HW2 7338   0.696   2.087   9.035
 2260SOL     OW 7339   0.072   2.189   7.482
 2260SOL    HW1 7340   4.477   2.197   7.478
 2260SOL    HW2 7341   0.105   2.270   7.443
 2261SOL     OW 7342   1.433   2.721   8.850
 2261SOL    HW1 7343   1.384   2.780   8.792
 2261SOL    HW2 7344   1.522   2.723   8.817
 2262SOL     OW 7345   0.084   2.040   7.755
 2262SOL    HW1 7346   0.078   2.111   7.691
 2262SOL    HW2 7347   0.160   1.989   7.727
 2263SOL     OW 7348   1.180   3.204   7.565
 2263SOL    HW1 7349   1.089   3.174   7.568
 2263SOL    HW2 7350   1.209   3.203   7.656
 2264SOL     OW 7351   0.620   2.693   8.876
 2264SOL    HW1 7352   0.675   2.771   8.864
 2264SOL    HW2 7353   0.682   2.621   8.886
 2265SOL     OW 7354   1.485   3.636   8.423
 2265SOL    HW1 7355   1.512   3.693   8.351
 2265SOL    HW2 7356   1.566   3.621   8.472
 2266SOL     OW 7357   0.716   2.425   9.153
 2266SOL    HW1 7358   0.749   2.490   9.214
 2266SOL    HW2 7359   0.755   2.342   9.183
 2267SOL     OW 7360   1.468   3.066   9.081
 2267SOL    HW1 7361   1.456   3.078   9.175
 2267SOL    HW2 7362   1.562   3.077   9.067
 2268SOL     OW 7363   0.383   3.604   9.011
 2268SOL    HW1 7364   0.297   3.644   8.997
 2268SOL    HW2 7365   0.364   3.522   9.057
 2269SOL     OW 7366   1.673   2.744   8.703
 2269SOL    HW1 7367   1.662   2.659   8.662
 2269SOL    HW2 7368   1.663   2.807   8.632
 2270SOL     OW 7369   1.219   2.182   7.905
 2270SOL    HW1 7370   1.282   2.111   7.896
 2270SOL    HW2 7371   1.247   2.230   7.983
 2271SOL     OW 7372   0.591   2.602   8.115
 2271SOL    HW1 7373   0.630   2.688   8.098
 2271SOL    HW2 7374   0.521   2.595   8.051
 2272SOL     OW 7375   1.752   2.236   9.104
 2272SOL    HW1 7376   1.757   2.232   9.008
 2272SOL    HW2 7377   1.685   2.171   9.127
 2273SOL     OW 7378   1.744   2.795   8.960
 2273SOL    HW1 7379   1.745   2.890   8.973
 2273SOL    HW2 7380   1.728   2.784   8.867
 2274SOL     OW 7381   0.863   3.231   7.478
 2274SOL    HW1 7382   0.823   3.256   7.561
 2274SOL    HW2 7383   0.882   3.314   7.434
 2275SOL     OW 7384   0.659   3.656   8.397
 2275SOL    HW1 7385   0.637   3.746   8.371
 2275SOL    HW2 7386   0.754   3.652   8.387
 2276SOL     OW 7387   0.866   2.827   8.304
 2276SOL    HW1 7388   0.916   2.756   8.345
 2276SOL    HW2 7389   0.833   2.878   8.378
 2277SOL     OW 7390   1.080   2.850   7.537
 2277SOL    HW1 7391   1.058   2.900   7.458
 2277SOL    HW2 7392   1.156   2.797   7.511
 2278SOL     OW 7393   1.857   3.419   8.293
 2278SOL    HW1 7394   1.780   3.408   8.237
 2278SOL    HW2 7395   1.847   3.351   8.360
 2279SOL     OW 7396   0.228   3.169   9.304
 2279SOL    HW1 7397   0.159   3.107   9.279
 2279SOL    HW2 7398   0.218   3.179   9.399
 2280SOL     OW 7399   0.101   3.102   8.114
 2280SOL    HW1 7400   0.105   3.050   8.195
 2280SOL    HW2 7401   0.162   3.058   8.055
 2281SOL     OW 7402   0.680   3.262   9.074
 2281SOL    HW1 7403   0.600   3.218   9.102
 2281SOL    HW2 7404   0.674   3.350   9.111
 2282SOL     OW 7405   1.804   2.053   8.679
 2282SOL    HW1 7406   1.841   1.971   8.710
 2282SOL    HW2 7407   1.821   2.054   8.585
 2283SOL     OW 7408   0.434   2.295   7.973
 2283SOL    HW1 7409   0.458   2.221   7.916
 2283SOL    HW2 7410   0.384   2.255   8.044
 2284SOL     OW 7411   1.702   3.353   8.548
 2284SOL    HW1 7412   1.620   3.328   8.505
 2284SOL    HW2 7413   1.716   3.285   8.614
 2285SOL     OW 7414   0.306   2.352   8.706
 2285SOL    HW1 7415   0.379   2.311   8.752
 2285SOL    HW2 7416   0.338   2.365   8.616
 2286SOL     OW 7417   0.825   3.440   8.128
 2286SOL    HW1 7418   0.819   3.484   8.043
 2286SOL    HW2 7419   0.746   3.386   8.132
 2287SOL     OW 7420   1.431   2.085   8.565
 2287SOL    HW1 7421   1.467   2.011   8.614
 2287SOL    HW2 7422   1.380   2.133   8.630
 2288SOL     OW 7423   1.008   1.883   8.594
 2288SOL    HW1 7424   0.953   1.814   8.556
 2288SOL    HW2 7425   1.096   1.846   8.596
 2289SOL     OW 7426   0.771   3.194   7.758
 2289SOL    HW1 7427   0.737   3.105   7.764
 2289SOL    HW2 7428   0.854   3.192   7.806
 2290SOL     OW 7429   0.621   3.420   8.732
 2290SOL    HW1 7430   0.623   3.501   8.783
 2290SOL    HW2 7431   0.708   3.414   8.693
 2291SOL     OW 7432   1.352   1.915   7.612
 2291SOL    HW1 7433   1.377   1.857   7.540
 2291SOL    HW2 7434   1.266   1.884   7.639
 2292SOL     OW 7435   1.297   2.322   8.131
 2292SOL    HW1 7436   1.243   2.400   8.140
 2292SOL    HW2 7437   1.295   2.281   8.218
 2293SOL     OW 7438   1.588   2.066   8.325
 2293SOL    HW1 7439   1.524   2.083   8.394
 2293SOL    HW2 7440   1.588   2.145   8.271
 2294SOL     OW 7441   0.041   2.916   7.735
 2294SOL    HW1 7442   0.136   2.905   7.728
 2294SOL    HW2 7443   0.018   2.874   7.818
 2295SOL     OW 7444   0.881   3.511   7.793
 2295SOL    HW1 7445   0.810   3.493   7.731
 2295SOL    HW2 7446   0.851   3.588   7.842
 2296SOL     OW 7447   0.248   2.489   9.428
 2296SOL    HW1 7448   0.173   2.475   9.485
 2296SOL    HW2 7449   0.217   2.468   9.340
 2297SOL     OW 7450   0.214   2.138  10.301
 2297SOL    HW1 7451   0.250   2.112  10.386
 2297SOL    HW2 7452   0.137   2.082  10.290
 2298SOL     OW 7453   0.010   2.249   9.949
 2298SOL    HW1 7454   4.430   2.279   9.992
 2298SOL    HW2 7455   4.484   2.169   9.903
 2299SOL     OW 7456   0.567   3.144  10.483
 2299SOL    HW1 7457   0.480   3.148  10.444
 2299SOL    HW2 7458   0.582   3.232  10.517
 2300SOL     OW 7459   1.557   3.373  10.015
 2300SOL    HW1 7460   1.513   3.356  10.098
 2300SOL    HW2 7461   1.486   3.379   9.951
 2301SOL     OW 7462   1.129   2.561  10.014
 2301SOL    HW1 7463   1.180   2.641   9.999
 2301SOL    HW2 7464   1.083   2.577  10.096
 2302SOL     OW 7465   1.766   2.469   9.540
 2302SOL    HW1 7466   1.745   2.460   9.447
 2302SOL    HW2 7467   1.731   2.389   9.580
 2303SOL     OW 7468   0.760   3.007  10.348
 2303SOL    HW1 7469   0.689   3.040  10.403
 2303SOL    HW2 7470   0.793   3.084  10.302
 2304SOL     OW 7471   0.848   2.647   0.020
 2304SOL    HW1 7472   0.858   2.703   0.096
 2304SOL    HW2 7473   0.883   2.698  11.047
 2305SOL     OW 7474   0.686   2.870   9.959
 2305SOL    HW1 7475   0.750   2.854  10.029
 2305SOL    HW2 7476   0.616   2.919  10.002
 2306SOL     OW 7477   0.337   3.286  10.379
 2306SOL    HW1 7478   0.256   3.266  10.333
 2306SOL    HW2 7479   0.387   3.341  10.318
 2307SOL     OW 7480   1.463   3.362  10.656
 2307SOL    HW1 7481   1.513   3.443  10.667
 2307SOL    HW2 7482   1.419   3.349  10.740
 2308SOL     OW 7483   0.446   2.264  10.794
 2308SOL    HW1 7484   0.524   2.209  10.803
 2308SOL    HW2 7485   0.373   2.206  10.814
 2309SOL     OW 7486   1.611   2.311  10.051
 2309SOL    HW1 7487   1.537   2.337   9.997
 2309SOL    HW2 7488   1.635   2.389  10.100
 2310SOL     OW 7489   0.246   3.554   9.790
 2310SOL    HW1 7490   0.233   3.638   9.833
 2310SOL    HW2 7491   0.306   3.572   9.718
 2311SOL     OW 7492   0.244   3.290   9.838
 2311SOL    HW1 7493   0.236   3.385   9.843
 2311SOL    HW2 7494   0.179   3.257   9.901
 2312SOL     OW 7495   0.245   2.943  10.193
 2312SOL    HW1 7496   0.262   2.856  10.227
 2312SOL    HW2 7497   0.188   2.984  10.258
 2313SOL     OW 7498   0.615   3.652  10.741
 2313SOL    HW1 7499   0.534   3.633  10.787
 2313SOL    HW2 7500   0.637   3.742  10.765
 2314SOL     OW 7501   0.585   2.845   9.444
 2314SOL    HW1 7502   0.629   2.893   9.374
 2314SOL    HW2 7503   0.630   2.871   9.524
 2315SOL     OW 7504   1.587   1.978  10.781
 2315SOL    HW1 7505   1.596   2.056  10.727
 2315SOL    HW2 7506   1.595   2.010  10.871
 2316SOL     OW 7507   0.137   2.506   9.885
 2316SOL    HW1 7508   0.086   2.425   9.897
 2316SOL    HW2 7509   0.106   2.564   9.954
 2317SOL     OW 7510   1.841   3.623   9.647
 2317SOL    HW1 7511   1.900   3.594   9.717
 2317SOL    HW2 7512   1.869   3.713   9.629
 2318SOL     OW 7513   0.033   3.462   9.445
 2318SOL    HW1 7514   0.021   3.367   9.448
 2318SOL    HW2 7515   0.009   3.492   9.533
 2319SOL     OW 7516   1.691   2.782   9.947
 2319SOL    HW1 7517   1.774   2.740   9.928
 2319SOL    HW2 7518   1.669   2.831   9.868
 2320SOL     OW 7519   1.644   2.970   9.740
 2320SOL    HW1 7520   1.729   2.979   9.697
 2320SOL    HW2 7521   1.649   3.030   9.814
 2321SOL     OW 7522   0.100   2.618  10.910
 2321SOL    HW1 7523   0.194   2.603  10.899
 2321SOL    HW2 7524   0.088   2.711  10.896
 2322SOL     OW 7525   0.613   3.243  10.046
 2322SOL    HW1 7526   0.566   3.160  10.054
 2322SOL    HW2 7527   0.596   3.271   9.955
 2323SOL     OW 7528   1.297   3.100  10.750
 2323SOL    HW1 7529   1.322   3.038  10.681
 2323SOL    HW2 7530   1.351   3.075  10.825
 2324SOL     OW 7531   0.812   1.860   9.815
 2324SOL    HW1 7532   0.853   1.946   9.800
 2324SOL    HW2 7533   0.719   1.879   9.826
 2325SOL     OW 7534   0.184   2.807  10.589
 2325SOL    HW1 7535   0.274   2.788  10.566
 2325SOL    HW2 7536   0.133   2.779  10.513
 2326SOL     OW 7537   1.532   2.853   9.506
 2326SOL    HW1 7538   1.462   2.795   9.535
 2326SOL    HW2 7539   1.570   2.887   9.587
 2327SOL     OW 7540   1.195   3.667  10.926
 2327SOL    HW1 7541   1.198   3.728  10.852
 2327SOL    HW2 7542   1.202   3.580  10.885
 2328SOL     OW 7543   0.338   2.125   0.002
 2328SOL    HW1 7544   0.387   2.198   0.040
 2328SOL    HW2 7545   0.247   2.145   0.024
 2329SOL     OW 7546   1.466   3.281  10.263
 2329SOL    HW1 7547   1.397   3.296  10.328
 2329SOL    HW2 7548   1.454   3.191  10.235
 2330SOL     OW 7549   1.662   3.594   9.887
 2330SOL    HW1 7550   1.638   3.567   9.799
 2330SOL    HW2 7551   1.635   3.521   9.943
 2331SOL     OW 7552   0.597   2.585   9.574
 2331SOL    HW1 7553   0.603   2.664   9.521
 2331SOL    HW2 7554   0.531   2.604   9.641
 2332SOL     OW 7555   1.280   2.211  10.243
 2332SOL    HW1 7556   1.191   2.176  10.249
 2332SOL    HW2 7557   1.330   2.158  10.304
 2333SOL     OW 7558   1.582   3.530   9.619
 2333SOL    HW1 7559   1.670   3.565   9.613
 2333SOL    HW2 7560   1.557   3.513   9.528
 2334SOL     OW 7561   0.795   2.477  10.764
 2334SOL    HW1 7562   0.767   2.455  10.853
 2334SOL    HW2 7563   0.751   2.413  10.708
 2335SOL     OW 7564   0.966   2.759  10.898
 2335SOL    HW1 7565   1.014   2.686  10.860
 2335SOL    HW2 7566   0.916   2.796  10.825
 2336SOL     OW 7567   0.992   2.275  10.550
 2336SOL    HW1 7568   0.909   2.299  10.590
 2336SOL    HW2 7569   0.968   2.227  10.471
 2337SOL     OW 7570   1.049   2.561   9.737
 2337SOL    HW1 7571   1.064   2.554   9.831
 2337SOL    HW2 7572   0.968   2.513   9.722
 2338SOL     OW 7573   0.098   2.686  10.093
 2338SOL    HW1 7574   0.184   2.664  10.129
 2338SOL    HW2 7575   0.054   2.734  10.163
 2339SOL     OW 7576   0.120   3.712  10.898
 2339SOL    HW1 7577   0.116   3.653  10.973
 2339SOL    HW2 7578   0.051   3.681  10.840
 2340SOL     OW 7579   0.886   2.208   9.504
 2340SOL    HW1 7580   0.930   2.269   9.445
 2340SOL    HW2 7581   0.905   2.121   9.468
 2341SOL     OW 7582   1.375   3.005   9.853
 2341SOL    HW1 7583   1.453   2.990   9.799
 2341SOL    HW2 7584   1.322   3.067   9.802
 2342SOL     OW 7585   0.551   2.046  10.202
 2342SOL    HW1 7586   0.552   2.074  10.294
 2342SOL    HW2 7587   0.552   2.128  10.153
 2343SOL     OW 7588   1.009   3.308   9.784
 2343SOL    HW1 7589   0.968   3.379   9.735
 2343SOL    HW2 7590   0.994   3.331   9.876
 2344SOL     OW 7591   0.354   3.669  10.166
 2344SOL    HW1 7592   0.398   3.585  10.176
 2344SOL    HW2 7593   0.424   3.734  10.179
 2345SOL     OW 7594   1.799   2.921  10.176
 2345SOL    HW1 7595   1.742   2.905  10.101
 2345SOL    HW2 7596   1.739   2.927  10.251
 2346SOL     OW 7597   1.226   3.403  10.824
 2346SOL    HW1 7598   1.234   3.317  10.865
 2346SOL    HW2 7599   1.168   3.389  10.749
 2347SOL     OW 7600   0.317   2.816   9.559
 2347SOL    HW1 7601   0.402   2.838   9.519
 2347SOL    HW2 7602   0.299   2.727   9.529
 2348SOL     OW 7603   1.475   2.601  10.038
 2348SOL    HW1 7604   1.464   2.554  10.121
 2348SOL    HW2 7605   1.552   2.656  10.052
 2349SOL     OW 7606   0.455   3.131  11.051
 2349SOL    HW1 7607   0.427   3.138  10.960
 2349SOL    HW2 7608   0.386   3.080  11.094
 2350SOL     OW 7609   1.120   3.639   9.542
 2350SOL    HW1 7610   1.049   3.596   9.589
 2350SOL    HW2 7611   1.142   3.580   9.470
 2351SOL     OW 7612   0.193   2.139  10.797
 2351SOL    HW1 7613   0.135   2.215  10.804
 2351SOL    HW2 7614   0.191   2.099  10.884
 2352SOL     OW 7615   1.630   3.241   9.396
 2352SOL    HW1 7616   1.588   3.326   9.382
 2352SOL    HW2 7617   1.560   3.177   9.378
 2353SOL     OW 7618   0.469   3.607   9.624
 2353SOL    HW1 7619   0.508   3.658   9.695
 2353SOL    HW2 7620   0.544   3.575   9.573
 2354SOL     OW 7621   1.401   1.970   9.740
 2354SOL    HW1 7622   1.389   1.944   9.648
 2354SOL    HW2 7623   1.496   1.978   9.751
 2355SOL     OW 7624   0.256   3.655  10.546
 2355SOL    HW1 7625   0.306   3.584  10.587
 2355SOL    HW2 7626   0.230   3.620  10.461
 2356SOL     OW 7627   0.939   3.560  10.210
 2356SOL    HW1 7628   1.015   3.507  10.230
 2356SOL    HW2 7629   0.892   3.512  10.142
 2357SOL     OW 7630   0.392   2.557   9.785
 2357SOL    HW1 7631   0.417   2.466   9.794
 2357SOL    HW2 7632   0.300   2.560   9.811
 2358SOL     OW 7633   0.629   1.989   9.416
 2358SOL    HW1 7634   0.704   1.930   9.429
 2358SOL    HW2 7635   0.585   1.954   9.338
 2359SOL     OW 7636   0.771   2.132  11.045
 2359SOL    HW1 7637   0.836   2.076  11.088
 2359SOL    HW2 7638   0.711   2.156   0.016
 2360SOL     OW 7639   0.876   3.383  10.503
 2360SOL    HW1 7640   0.862   3.348  10.415
 2360SOL    HW2 7641   0.947   3.329  10.539
 2361SOL     OW 7642   1.343   2.451  10.752
 2361SOL    HW1 7643   1.392   2.428  10.831
 2361SOL    HW2 7644   1.372   2.539  10.730
 2362SOL     OW 7645   0.813   3.260  10.246
 2362SOL    HW1 7646   0.897   3.251  10.200
 2362SOL    HW2 7647   0.747   3.258  10.176
 2363SOL     OW 7648   0.927   2.371  10.214
 2363SOL    HW1 7649   0.904   2.363  10.122
 2363SOL    HW2 7650   0.960   2.285  10.238
 2364SOL     OW 7651   0.550   1.924   9.815
 2364SOL    HW1 7652   0.469   1.923   9.866
 2364SOL    HW2 7653   0.544   2.003   9.761
 2365SOL     OW 7654   1.429   3.060   9.351
 2365SOL    HW1 7655   1.460   2.984   9.401
 2365SOL    HW2 7656   1.342   3.079   9.388
 2366SOL     OW 7657   0.295   1.908   9.488
 2366SOL    HW1 7658   0.357   1.976   9.461
 2366SOL    HW2 7659   0.349   1.842   9.532
 2367SOL     OW 7660   0.936   2.106   9.774
 2367SOL    HW1 7661   0.907   2.149   9.694
 2367SOL    HW2 7662   1.031   2.118   9.775
 2368SOL     OW 7663   1.078   2.545  10.771
 2368SOL    HW1 7664   1.007   2.481  10.776
 2368SOL    HW2 7665   1.158   2.491  10.766
 2369SOL     OW 7666   1.225   3.431  10.104
 2369SOL    HW1 7667   1.243   3.499  10.038
 2369SOL    HW2 7668   1.293   3.443  10.170
 2370SOL     OW 7669   0.465   3.009  10.048
 2370SOL    HW1 7670   0.393   2.991  10.108
 2370SOL    HW2 7671   0.428   2.993   9.961
 2371SOL     OW 7672   1.271   3.657   9.915
 2371SOL    HW1 7673   1.315   3.718   9.856
 2371SOL    HW2 7674   1.207   3.710   9.962
 2372SOL     OW 7675   1.025   2.407   9.329
 2372SOL    HW1 7676   0.983   2.491   9.309
 2372SOL    HW2 7677   1.090   2.429   9.397
 2373SOL     OW 7678   0.073   2.396  10.713
 2373SOL    HW1 7679   0.149   2.398  10.654
 2373SOL    HW2 7680   0.069   2.485  10.749
 2374SOL     OW 7681   0.562   2.089  10.474
 2374SOL    HW1 7682   0.601   2.008  10.507
 2374SOL    HW2 7683   0.470   2.085  10.502
 2375SOL     OW 7684   0.870   2.322   9.950
 2375SOL    HW1 7685   0.822   2.375   9.887
 2375SOL    HW2 7686   0.889   2.240   9.903
 2376SOL     OW 7687   1.014   1.915  10.064
 2376SOL    HW1 7688   0.956   1.907   9.989
 2376SOL    HW2 7689   0.994   1.838  10.118
 2377SOL     OW 7690   1.435   3.026  10.168
 2377SOL    HW1 7691   1.369   2.957  10.166
 2377SOL    HW2 7692   1.458   3.040  10.076
 2378SOL     OW 7693   1.466   2.465  10.292
 2378SOL    HW1 7694   1.421   2.381  10.294
 2378SOL    HW2 7695   1.528   2.461  10.365
 2379SOL     OW 7696   1.849   2.681   9.692
 2379SOL    HW1 7697   1.902   2.627   9.750
 2379SOL    HW2 7698   1.819   2.620   9.624
 2380SOL     OW 7699   0.493   3.275   9.472
 2380SOL    HW1 7700   0.416   3.245   9.522
 2380SOL    HW2 7701   0.470   3.256   9.381
 2381SOL     OW 7702   1.668   3.128   9.959
 2381SOL    HW1 7703   1.763   3.134   9.971
 2381SOL    HW2 7704   1.635   3.215   9.980
 2382SOL     OW 7705   1.394   2.434   9.382
 2382SOL    HW1 7706   1.334   2.415   9.454
 2382SOL    HW2 7707   1.478   2.399   9.411
 2383SOL     OW 7708   0.525   2.122   9.631
 2383SOL    HW1 7709   0.567   2.074   9.560
 2383SOL    HW2 7710   0.509   2.209   9.594
 2384SOL     OW 7711   1.760   3.091  10.873
 2384SOL    HW1 7712   1.850   3.060  10.881
 2384SOL    HW2 7713   1.761   3.178  10.914
 2385SOL     OW 7714   1.065   3.216  10.650
 2385SOL    HW1 7715   0.987   3.183  10.695
 2385SOL    HW2 7716   1.138   3.168  10.690
 2386SOL     OW 7717   1.125   3.065  10.418
 2386SOL    HW1 7718   1.062   3.101  10.480
 2386SOL    HW2 7719   1.093   3.093  10.332
 2387SOL     OW 7720   1.632   2.963  10.388
 2387SOL    HW1 7721   1.628   3.024  10.461
 2387SOL    HW2 7722   1.551   2.978  10.340
 2388SOL     OW 7723   0.917   1.961  10.709
 2388SOL    HW1 7724   0.940   1.941  10.618
 2388SOL    HW2 7725   0.996   2.001  10.746
 2389SOL     OW 7726   0.708   2.922   9.683
 2389SOL    HW1 7727   0.695   2.908   9.776
 2389SOL    HW2 7728   0.784   2.869   9.660
 2390SOL     OW 7729   0.428   2.683  10.549
 2390SOL    HW1 7730   0.496   2.694  10.615
 2390SOL    HW2 7731   0.367   2.619  10.587
 2391SOL     OW 7732   1.268   2.241  10.585
 2391SOL    HW1 7733   1.299   2.319  10.630
 2391SOL    HW2 7734   1.179   2.264  10.557
 2392SOL     OW 7735   0.062   3.439  10.652
 2392SOL    HW1 7736   0.035   3.525  10.619
 2392SOL    HW2 7737   0.157   3.443  10.655
 2393SOL     OW 7738   0.352   2.968   9.804
 2393SOL    HW1 7739   0.359   3.041   9.743
 2393SOL    HW2 7740   0.354   2.890   9.748
 2394SOL     OW 7741   0.562   2.397  10.167
 2394SOL    HW1 7742   0.576   2.457  10.094
 2394SOL    HW2 7743   0.620   2.430  10.236
 2395SOL     OW 7744   1.248   3.210   9.699
 2395SOL    HW1 7745   1.303   3.282   9.730
 2395SOL    HW2 7746   1.161   3.230   9.733
 2396SOL     OW 7747   1.276   3.318  10.454
 2396SOL    HW1 7748   1.331   3.321  10.532
 2396SOL    HW2 7749   1.222   3.240  10.466
 2397SOL     OW 7750   1.582   2.488   9.786
 2397SOL    HW1 7751   1.539   2.544   9.850
 2397SOL    HW2 7752   1.629   2.548   9.728
 2398SOL     OW 7753   0.347   3.387  10.628
 2398SOL    HW1 7754   0.334   3.342  10.544
 2398SOL    HW2 7755   0.442   3.400  10.632
 2399SOL     OW 7756   0.477   2.609  10.963
 2399SOL    HW1 7757   0.510   2.648  10.883
 2399SOL    HW2 7758   0.507   2.518  10.960
 2400SOL     OW 7759   1.590   2.625  10.970
 2400SOL    HW1 7760   1.513   2.682  10.965
 2400SOL    HW2 7761   1.659   2.675  10.928
 2401SOL     OW 7762   0.588   2.735  10.335
 2401SOL    HW1 7763   0.615   2.827  10.336
 2401SOL    HW2 7764   0.531   2.725  10.411
 2402SOL     OW 7765   1.361   2.723  10.346
 2402SOL    HW1 7766   1.280   2.716  10.294
 2402SOL    HW2 7767   1.398   2.635  10.343
 2403SOL     OW 7768   1.207   2.391   9.579
 2403SOL    HW1 7769   1.215   2.313   9.633
 2403SOL    HW2 7770   1.165   2.455   9.637
 2404SOL     OW 7771   0.303   2.056  10.551
 2404SOL    HW1 7772   0.266   2.092  10.632
 2404SOL    HW2 7773   0.284   1.963  10.555
 2405SOL     OW 7774   0.049   3.176  10.593
 2405SOL    HW1 7775   0.077   3.128  10.671
 2405SOL    HW2 7776   0.048   3.268  10.621
 2406SOL     OW 7777   0.727   2.495  10.371
 2406SOL    HW1 7778   0.799   2.475  10.311
 2406SOL    HW2 7779   0.699   2.583  10.347
 2407SOL     OW 7780   0.308   1.932   9.929
 2407SOL    HW1 7781   0.287   2.021   9.958
 2407SOL    HW2 7782   0.303   1.879  10.009
 2408SOL     OW 7783   1.612   2.234   9.680
 2408SOL    HW1 7784   1.641   2.171   9.747
 2408SOL    HW2 7785   1.590   2.313   9.729
 2409SOL     OW 7786   1.026   2.622  10.272
 2409SOL    HW1 7787   1.027   2.639  10.366
 2409SOL    HW2 7788   1.000   2.530  10.265
 2410SOL     OW 7789   0.974   3.434  11.004
 2410SOL    HW1 7790   0.960   3.483  10.923
 2410SOL    HW2 7791   1.007   3.348  10.976
 2411SOL     OW 7792   1.859   3.360  10.912
 2411SOL    HW1 7793   1.873   3.394  10.823
 2411SOL    HW2 7794   1.927   3.402  10.965
 2412SOL     OW 7795   0.349   2.794  11.097
 2412SOL    HW1 7796   0.425   2.821   0.049
 2412SOL    HW2 7797   0.381   2.722  11.042
 2413SOL     OW 7798   1.530   2.136   9.437
 2413SOL    HW1 7799   1.467   2.070   9.464
 2413SOL    HW2 7800   1.563   2.172   9.520
 2414SOL     OW 7801   1.295   2.690   9.344
 2414SOL    HW1 7802   1.337   2.603   9.347
 2414SOL    HW2 7803   1.325   2.728   9.261
 2415SOL     OW 7804   1.065   3.196  10.163
 2415SOL    HW1 7805   1.068   3.123  10.101
 2415SOL    HW2 7806   1.128   3.260  10.128
 2416SOL     OW 7807   0.316   2.674  10.261
 2416SOL    HW1 7808   0.411   2.691  10.255
 2416SOL    HW2 7809   0.310   2.584  10.290
 2417SOL     OW 7810   0.334   2.385  10.304
 2417SOL    HW1 7811   0.295   2.299  10.288
 2417SOL    HW2 7812   0.411   2.386  10.247
 2418SOL     OW 7813   1.156   2.072  10.781
 2418SOL    HW1 7814   1.168   2.129  10.857
 2418SOL    HW2 7815   1.195   2.120  10.708
 2419SOL     OW 7816   4.492   3.185   9.511
 2419SOL    HW1 7817   4.399   3.200   9.493
 2419SOL    HW2 7818   4.498   3.093   9.535
 2420SOL     OW 7819   0.094   3.643  10.250
 2420SOL    HW1 7820   0.057   3.582  10.186
 2420SOL    HW2 7821   0.181   3.663  10.216
 2421SOL     OW 7822   0.499   3.435  10.216
 2421SOL    HW1 7823   0.568   3.498  10.239
 2421SOL    HW2 7824   0.544   3.370  10.162
 2422SOL     OW 7825   0.988   2.657  10.538
 2422SOL    HW1 7826   1.040   2.633  10.615
 2422SOL    HW2 7827   0.901   2.622  10.555
 2423SOL     OW 7828   0.036   2.421  10.415
 2423SOL    HW1 7829   0.120   2.387  10.385
 2423SOL    HW2 7830   0.029   2.392  10.506
 2424SOL     OW 7831   0.816   2.431   9.664
 2424SOL    HW1 7832   0.818   2.355   9.605
 2424SOL    HW2 7833   0.741   2.482   9.635
 2425SOL     OW 7834   1.644   2.464  10.498
 2425SOL    HW1 7835   1.635   2.403  10.572
 2425SOL    HW2 7836   1.731   2.447  10.463
 2426SOL     OW 7837   0.264   3.433  11.058
 2426SOL    HW1 7838   0.212   3.465   0.032
 2426SOL    HW2 7839   0.242   3.340  11.051
 2427SOL     OW 7840   0.690   2.318  10.574
 2427SOL    HW1 7841   0.644   2.241  10.541
 2427SOL    HW2 7842   0.692   2.378  10.500
 2428SOL     OW 7843   0.941   3.544  10.760
 2428SOL    HW1 7844   0.902   3.514  10.679
 2428SOL    HW2 7845   0.929   3.639  10.760
 2429SOL     OW 7846   0.473   2.353   9.499
 2429SOL    HW1 7847   0.531   2.426   9.519
 2429SOL    HW2 7848   0.387   2.393   9.485
 2430SOL     OW 7849   0.162   3.003  10.772
 2430SOL    HW1 7850   0.142   2.958  10.854
 2430SOL    HW2 7851   0.170   2.933  10.707
 2431SOL     OW 7852   1.328   2.916  10.538
 2431SOL    HW1 7853   1.355   2.851  10.473
 2431SOL    HW2 7854   1.255   2.962  10.497
 2432SOL     OW 7855   1.308   2.719   9.618
 2432SOL    HW1 7856   1.231   2.688   9.666
 2432SOL    HW2 7857   1.286   2.705   9.526
 2433SOL     OW 7858   1.768   3.610  10.459
 2433SOL    HW1 7859   1.828   3.635  10.389
 2433SOL    HW2 7860   1.744   3.519  10.440
 2434SOL     OW 7861   1.242   3.595  10.427
 2434SOL    HW1 7862   1.323   3.614  10.381
 2434SOL    HW2 7863   1.244   3.501  10.444
 2435SOL     OW 7864   0.069   3.051  10.358
 2435SOL    HW1 7865   0.074   3.086  10.446
 2435SOL    HW2 7866   0.010   3.111  10.312
 2436SOL     OW 7867   1.719   2.004   9.823
 2436SOL    HW1 7868   1.791   1.989   9.762
 2436SOL    HW2 7869   1.703   1.918   9.862
 2437SOL     OW 7870   1.390   3.430   9.793
 2437SOL    HW1 7871   1.450   3.460   9.725
 2437SOL    HW2 7872   1.343   3.508   9.820
 2438SOL     OW 7873   1.277   2.786   9.981
 2438SOL    HW1 7874   1.350   2.725   9.986
 2438SOL    HW2 7875   1.311   2.859   9.929
 2439SOL     OW 7876   0.822   3.134  10.739
 2439SOL    HW1 7877   0.793   3.169  10.824
 2439SOL    HW2 7878   0.750   3.155  10.679
 2440SOL     OW 7879   0.673   3.478   9.465
 2440SOL    HW1 7880   0.681   3.489   9.370
 2440SOL    HW2 7881   0.620   3.399   9.476
 2441SOL     OW 7882   1.628   3.581  10.700
 2441SOL    HW1 7883   1.680   3.595  10.621
 2441SOL    HW2 7884   1.614   3.669  10.736
 2442SOL     OW 7885   1.842   2.043  10.279
 2442SOL    HW1 7886   1.878   1.959  10.252
 2442SOL    HW2 7887   1.757   2.048  10.237
 2443SOL     OW 7888   0.267   2.182  10.030
 2443SOL    HW1 7889   0.184   2.221  10.001
 2443SOL    HW2 7890   0.256   2.170  10.124
 2444SOL     OW 7891   1.205   3.470   9.341
 2444SOL    HW1 7892   1.198   3.379   9.369
 2444SOL    HW2 7893   1.141   3.480   9.271
 2445SOL     OW 7894   0.825   2.868  10.684
 2445SOL    HW1 7895   0.867   2.864  10.598
 2445SOL    HW2 7896   0.827   2.961  10.707
 2446SOL     OW 7897   0.915   2.773   9.599
 2446SOL    HW1 7898   0.977   2.804   9.533
 2446SOL    HW2 7899   0.962   2.701   9.643
 2447SOL     OW 7900   1.495   3.486   9.352
 2447SOL    HW1 7901   1.400   3.483   9.341
 2447SOL    HW2 7902   1.529   3.492   9.263
 2448SOL     OW 7903   0.369   3.168  10.805
 2448SOL    HW1 7904   0.356   3.245  10.748
 2448SOL    HW2 7905   0.296   3.111  10.785
 2449SOL     OW 7906   1.614   3.145  10.593
 2449SOL    HW1 7907   1.669   3.135  10.670
 2449SOL    HW2 7908   1.555   3.218  10.615
 2450SOL     OW 7909   1.048   2.967  10.015
 2450SOL    HW1 7910   0.978   2.916  10.055
 2450SOL    HW2 7911   1.108   2.902   9.980
 2451SOL     OW 7912   1.020   2.102  10.276
 2451SOL    HW1 7913   1.014   2.054  10.193
 2451SOL    HW2 7914   1.014   2.034  10.343
 2452SOL     OW 7915   0.603   3.352   9.793
 2452SOL    HW1 7916   0.641   3.301   9.722
 2452SOL    HW2 7917   0.532   3.402   9.753
 2453SOL     OW 7918   1.717   2.257  10.688
 2453SOL    HW1 7919   1.791   2.316  10.692
 2453SOL    HW2 7920   1.747   2.183  10.634
 2454SOL     OW 7921   0.252   3.207   9.588
 2454SOL    HW1 7922   0.158   3.208   9.573
 2454SOL    HW2 7923   0.262   3.240   9.677
 2455SOL     OW 7924   0.111   2.879  11.006
 2455SOL    HW1 7925   0.049   2.879  11.079
 2455SOL    HW2 7926   0.196   2.862  11.047
 2456SOL     OW 7927   0.672   2.059  10.804
 2456SOL    HW1 7928   0.754   2.038  10.758
 2456SOL    HW2 7929   0.700   2.090  10.890
 2457SOL     OW 7930   0.072   2.189   9.344
 2457SOL    HW1 7931   4.477   2.197   9.340
 2457SOL    HW2 7932   0.105   2.270   9.305
 2458SOL     OW 7933   1.431   2.711  10.710
 2458SOL    HW1 7934   1.384   2.778  10.660
 2458SOL    HW2 7935   1.522   2.721  10.682
 2459SOL     OW 7936   0.084   2.040   9.617
 2459SOL    HW1 7937   0.078   2.111   9.553
 2459SOL    HW2 7938   0.160   1.989   9.589
 2460SOL     OW 7939   1.180   3.204   9.427
 2460SOL    HW1 7940   1.089   3.174   9.430
 2460SOL    HW2 7941   1.209   3.203   9.518
 2461SOL     OW 7942   0.621   2.692  10.738
 2461SOL    HW1 7943   0.675   2.770  10.725
 2461SOL    HW2 7944   0.683   2.621  10.747
 2462SOL     OW 7945   1.485   3.636  10.284
 2462SOL    HW1 7946   1.512   3.693  10.213
 2462SOL    HW2 7947   1.565   3.621  10.335
 2463SOL     OW 7948   0.716   2.424  11.016
 2463SOL    HW1 7949   0.745   2.497  11.070
 2463SOL    HW2 7950   0.771   2.350  11.044
 2464SOL     OW 7951   0.384   3.597  10.870
 2464SOL    HW1 7952   0.306   3.653  10.865
 2464SOL    HW2 7953   0.359   3.525  10.926
 2465SOL     OW 7954   1.674   2.745  10.566
 2465SOL    HW1 7955   1.662   2.660  10.525
 2465SOL    HW2 7956   1.664   2.808  10.495
 2466SOL     OW 7957   1.219   2.182   9.767
 2466SOL    HW1 7958   1.282   2.111   9.758
 2466SOL    HW2 7959   1.247   2.230   9.845
 2467SOL     OW 7960   0.591   2.602   9.977
 2467SOL    HW1 7961   0.630   2.688   9.959
 2467SOL    HW2 7962   0.521   2.594   9.913
 2468SOL     OW 7963   1.754   2.180  10.954
 2468SOL    HW1 7964   1.740   2.217  10.867
 2468SOL    HW2 7965   1.672   2.196  11.000
 2469SOL     OW 7966   1.747   2.799  10.825
 2469SOL    HW1 7967   1.742   2.893  10.838
 2469SOL    HW2 7968   1.730   2.786  10.732
 2470SOL     OW 7969   0.864   3.231   9.340
 2470SOL    HW1 7970   0.823   3.256   9.423
 2470SOL    HW2 7971   0.882   3.314   9.296
 2471SOL     OW 7972   0.659   3.656  10.259
 2471SOL    HW1 7973   0.636   3.745  10.234
 2471SOL    HW2 7974   0.754   3.652  10.249
 2472SOL     OW 7975   0.866   2.827  10.166
 2472SOL    HW1 7976   0.916   2.756  10.207
 2472SOL    HW2 7977   0.833   2.878  10.240
 2473SOL     OW 7978   1.080   2.850   9.399
 2473SOL    HW1 7979   1.058   2.900   9.320
 2473SOL    HW2 7980   1.156   2.797   9.373
 2474SOL     OW 7981   1.857   3.418  10.155
 2474SOL    HW1 7982   1.780   3.408  10.100
 2474SOL    HW2 7983   1.847   3.352  10.223
 2475SOL     OW 7984   0.101   3.102   9.976
 2475SOL    HW1 7985   0.104   3.050  10.057
 2475SOL    HW2 7986   0.162   3.058   9.917
 2476SOL     OW 7987   0.678   3.256  10.934
 2476SOL    HW1 7988   0.605   3.206  10.970
 2476SOL    HW2 7989   0.651   3.347  10.942
 2477SOL     OW 7990   1.814   2.051  10.547
 2477SOL    HW1 7991   1.831   1.958  10.565
 2477SOL    HW2 7992   1.827   2.060  10.453
 2478SOL     OW 7993   0.434   2.295   9.835
 2478SOL    HW1 7994   0.458   2.221   9.778
 2478SOL    HW2 7995   0.384   2.255   9.906
 2479SOL     OW 7996   1.702   3.353  10.409
 2479SOL    HW1 7997   1.621   3.327  10.367
 2479SOL    HW2 7998   1.718   3.286  10.476
 2480SOL     OW 7999   0.304   2.353  10.568
 2480SOL    HW1 8000   0.375   2.313  10.618
 2480SOL    HW2 8001   0.339   2.364  10.480
 2481SOL     OW 8002   0.825   3.440   9.990
 2481SOL    HW1 8003   0.819   3.485   9.905
 2481SOL    HW2 8004   0.746   3.386   9.994
 2482SOL     OW 8005   1.432   2.085  10.428
 2482SOL    HW1 8006   1.464   2.009  10.475
 2482SOL    HW2 8007   1.380   2.133  10.493
 2483SOL     OW 8008   1.008   1.883  10.456
 2483SOL    HW1 8009   0.953   1.815  10.417
 2483SOL    HW2 8010   1.096   1.845  10.458
 2484SOL     OW 8011   0.771   3.194   9.620
 2484SOL    HW1 8012   0.737   3.105   9.626
 2484SOL    HW2 8013   0.854   3.192   9.668
 2485SOL     OW 8014   0.620   3.420  10.595
 2485SOL    HW1 8015   0.622   3.502  10.644
 2485SOL    HW2 8016   0.707   3.414  10.555
 2486SOL     OW 8017   1.352   1.915   9.474
 2486SOL    HW1 8018   1.377   1.857   9.402
 2486SOL    HW2 8019   1.266   1.884   9.501
 2487SOL     OW 8020   1.297   2.322   9.993
 2487SOL    HW1 8021   1.243   2.400  10.002
 2487SOL    HW2 8022   1.295   2.281  10.080
 2488SOL     OW 8023   1.587   2.066  10.186
 2488SOL    HW1 8024   1.523   2.084  10.255
 2488SOL    HW2 8025   1.587   2.145  10.132
 2489SOL     OW 8026   0.041   2.916   9.597
 2489SOL    HW1 8027   0.136   2.905   9.590
 2489SOL    HW2 8028   0.018   2.874   9.680
 2490SOL     OW 8029   0.881   3.511   9.655
 2490SOL    HW1 8030   0.810   3.493   9.593
 2490SOL    HW2 8031   0.851   3.588   9.704
 2491SOL     OW 8032   0.209   4.283   0.084
 2491SOL    HW1 8033   0.160   4.317   0.158
 2491SOL    HW2 8034   0.227   4.360   0.030
 2492SOL     OW 8035   0.210   3.998   0.992
 2492SOL    HW1 8036   0.247   3.970   1.075
 2492SOL    HW2 8037   0.135   3.940   0.978
 2493SOL     OW 8038   0.001   4.099   0.629
 2493SOL    HW1 8039   4.423   4.127   0.677
 2493SOL    HW2 8040   4.477   4.014   0.592
 2494SOL     OW 8041   1.735   4.333   0.229
 2494SOL    HW1 8042   1.748   4.306   0.138
 2494SOL    HW2 8043   1.729   4.251   0.277
 2495SOL     OW 8044   0.728   0.266   0.680
 2495SOL    HW1 8045   0.725   0.205   0.754
 2495SOL    HW2 8046   0.636   0.287   0.662
 2496SOL     OW 8047   0.442   4.120   1.489
 2496SOL    HW1 8048   0.523   4.070   1.493
 2496SOL    HW2 8049   0.373   4.055   1.500
 2497SOL     OW 8050   1.615   4.173   0.739
 2497SOL    HW1 8051   1.543   4.200   0.682
 2497SOL    HW2 8052   1.625   4.246   0.801
 2498SOL     OW 8053   1.597   3.845   1.470
 2498SOL    HW1 8054   1.592   3.923   1.416
 2498SOL    HW2 8055   1.585   3.876   1.560
 2499SOL     OW 8056   0.167   4.321   0.631
 2499SOL    HW1 8057   0.104   4.251   0.610
 2499SOL    HW2 8058   0.120   4.401   0.610
 2500SOL     OW 8059   0.116   4.497   1.590
 2500SOL    HW1 8060   0.210   4.482   1.594
 2500SOL    HW2 8061   0.107   0.081   1.545
 2501SOL     OW 8062   0.813   3.724   0.505
 2501SOL    HW1 8063   0.852   3.810   0.492
 2501SOL    HW2 8064   0.719   3.741   0.516
 2502SOL     OW 8065   0.329   3.979   1.796
 2502SOL    HW1 8066   0.377   4.056   1.826
 2502SOL    HW2 8067   0.241   3.990   1.834
 2503SOL     OW 8068   1.278   4.070   0.932
 2503SOL    HW1 8069   1.189   4.036   0.941
 2503SOL    HW2 8070   1.330   4.019   0.995
 2504SOL     OW 8071   0.822   4.310   1.451
 2504SOL    HW1 8072   0.781   4.314   1.537
 2504SOL    HW2 8073   0.757   4.268   1.395
 2505SOL     OW 8074   1.396   4.199   1.677
 2505SOL    HW1 8075   1.395   4.242   1.762
 2505SOL    HW2 8076   1.456   4.125   1.687
 2506SOL     OW 8077   0.996   4.147   1.234
 2506SOL    HW1 8078   0.922   4.166   1.292
 2506SOL    HW2 8079   0.960   4.088   1.168
 2507SOL     OW 8080   1.059   4.403   0.424
 2507SOL    HW1 8081   1.058   4.449   0.508
 2507SOL    HW2 8082   0.967   4.384   0.406
 2508SOL     OW 8083   0.054   0.041   0.835
 2508SOL    HW1 8084   0.147   0.025   0.848
 2508SOL    HW2 8085   0.051   0.117   0.776
 2509SOL     OW 8086   0.883   4.072   0.208
 2509SOL    HW1 8087   0.931   4.129   0.147
 2509SOL    HW2 8088   0.898   3.984   0.175
 2510SOL     OW 8089   1.705   4.298   1.828
 2510SOL    HW1 8090   1.715   4.388   1.795
 2510SOL    HW2 8091   1.729   4.243   1.754
 2511SOL     OW 8092   0.551   3.907   0.892
 2511SOL    HW1 8093   0.553   3.936   0.984
 2511SOL    HW2 8094   0.548   3.989   0.842
 2512SOL     OW 8095   1.485   4.460   0.736
 2512SOL    HW1 8096   1.466   4.407   0.813
 2512SOL    HW2 8097   1.528   0.039   0.771
 2513SOL     OW 8098   0.190   4.000   1.487
 2513SOL    HW1 8099   0.134   4.077   1.494
 2513SOL    HW2 8100   0.185   3.959   1.574
 2514SOL     OW 8101   1.401   3.831   0.429
 2514SOL    HW1 8102   1.391   3.808   0.337
 2514SOL    HW2 8103   1.496   3.840   0.441
 2515SOL     OW 8104   0.352   4.376   0.407
 2515SOL    HW1 8105   0.399   4.305   0.451
 2515SOL    HW2 8106   0.298   4.415   0.476
 2516SOL     OW 8107   1.538   3.951   1.725
 2516SOL    HW1 8108   1.545   3.972   1.818
 2516SOL    HW2 8109   1.471   3.882   1.722
 2517SOL     OW 8110   0.614   3.834   0.122
 2517SOL    HW1 8111   0.705   3.802   0.122
 2517SOL    HW2 8112   0.583   3.815   0.033
 2518SOL     OW 8113   0.769   4.001   1.753
 2518SOL    HW1 8114   0.841   3.939   1.759
 2518SOL    HW2 8115   0.716   3.984   1.832
 2519SOL     OW 8116   1.346   4.311   1.429
 2519SOL    HW1 8117   1.368   4.274   1.514
 2519SOL    HW2 8118   1.382   4.399   1.430
 2520SOL     OW 8119   0.922   4.236   0.900
 2520SOL    HW1 8120   0.900   4.220   0.808
 2520SOL    HW2 8121   0.962   4.154   0.930
 2521SOL     OW 8122   0.551   3.786   0.506
 2521SOL    HW1 8123   0.469   3.784   0.556
 2521SOL    HW2 8124   0.544   3.864   0.451
 2522SOL     OW 8125   0.286   3.772   0.192
 2522SOL    HW1 8126   0.334   3.825   0.129
 2522SOL    HW2 8127   0.348   3.706   0.223
 2523SOL     OW 8128   0.937   3.970   0.466
 2523SOL    HW1 8129   0.908   4.011   0.385
 2523SOL    HW2 8130   1.032   3.982   0.467
 2524SOL     OW 8131   1.078   4.396   1.511
 2524SOL    HW1 8132   0.994   4.364   1.477
 2524SOL    HW2 8133   1.143   4.352   1.457
 2525SOL     OW 8134   1.009   4.266   0.039
 2525SOL    HW1 8135   1.015   4.331  11.069
 2525SOL    HW2 8136   1.090   4.277   0.088
 2526SOL     OW 8137   0.086   4.260   1.409
 2526SOL    HW1 8138   0.158   4.273   1.348
 2526SOL    HW2 8139   0.055   4.348   1.429
 2527SOL     OW 8140   0.562   3.951   1.164
 2527SOL    HW1 8141   0.600   3.869   1.196
 2527SOL    HW2 8142   0.471   3.947   1.192
 2528SOL     OW 8143   0.870   4.188   0.640
 2528SOL    HW1 8144   0.835   4.248   0.574
 2528SOL    HW2 8145   0.887   4.107   0.591
 2529SOL     OW 8146   1.014   3.777   0.754
 2529SOL    HW1 8147   0.955   3.768   0.678
 2529SOL    HW2 8148   0.994   3.701   0.808
 2530SOL     OW 8149   1.476   4.313   0.971
 2530SOL    HW1 8150   1.423   4.236   0.990
 2530SOL    HW2 8151   1.529   4.326   1.050
 2531SOL     OW 8152   1.399   4.295   0.072
 2531SOL    HW1 8153   1.335   4.277   0.142
 2531SOL    HW2 8154   1.470   4.233   0.089
 2532SOL     OW 8155   0.527   3.988   0.326
 2532SOL    HW1 8156   0.553   3.929   0.256
 2532SOL    HW2 8157   0.513   4.072   0.282
 2533SOL     OW 8158   0.917   3.823   1.399
 2533SOL    HW1 8159   0.940   3.802   1.308
 2533SOL    HW2 8160   0.997   3.861   1.436
 2534SOL     OW 8161   0.438   0.005   1.257
 2534SOL    HW1 8162   0.495   0.009   1.333
 2534SOL    HW2 8163   0.399   4.417   1.261
 2535SOL     OW 8164   1.267   4.101   1.272
 2535SOL    HW1 8165   1.300   4.178   1.318
 2535SOL    HW2 8166   1.178   4.125   1.246
 2536SOL     OW 8167   0.557   4.256   0.864
 2536SOL    HW1 8168   0.578   4.303   0.783
 2536SOL    HW2 8169   0.621   4.290   0.928
 2537SOL     OW 8170   1.582   4.343   0.479
 2537SOL    HW1 8171   1.536   4.407   0.533
 2537SOL    HW2 8172   1.625   4.396   0.411
 2538SOL     OW 8173   0.996   3.841   1.757
 2538SOL    HW1 8174   1.048   3.915   1.724
 2538SOL    HW2 8175   1.046   3.764   1.731
 2539SOL     OW 8176   0.499   3.769   1.745
 2539SOL    HW1 8177   0.459   3.712   1.680
 2539SOL    HW2 8178   0.437   3.841   1.756
 2540SOL     OW 8179   1.213   4.252   0.267
 2540SOL    HW1 8180   1.222   4.173   0.320
 2540SOL    HW2 8181   1.164   4.313   0.323
 2541SOL     OW 8182   0.301   3.925   1.244
 2541SOL    HW1 8183   0.263   3.953   1.327
 2541SOL    HW2 8184   0.286   3.830   1.242
 2542SOL     OW 8185   0.732   4.360   1.050
 2542SOL    HW1 8186   0.804   4.325   0.998
 2542SOL    HW2 8187   0.734   4.454   1.034
 2543SOL     OW 8188   1.749   0.136   1.857
 2543SOL    HW1 8189   1.689   0.149   1.784
 2543SOL    HW2 8190   1.702   0.168   1.933
 2544SOL     OW 8191   0.309   3.794   0.620
 2544SOL    HW1 8192   0.286   3.883   0.649
 2544SOL    HW2 8193   0.302   3.741   0.699
 2545SOL     OW 8194   1.612   4.092   0.370
 2545SOL    HW1 8195   1.641   4.029   0.436
 2545SOL    HW2 8196   1.591   4.171   0.419
 2546SOL     OW 8197   1.537   4.009   0.118
 2546SOL    HW1 8198   1.476   3.937   0.135
 2546SOL    HW2 8199   1.567   4.035   0.205
 2547SOL     OW 8200   0.317   0.019   0.924
 2547SOL    HW1 8201   0.400   0.065   0.930
 2547SOL    HW2 8202   0.329   4.440   0.977
 2548SOL     OW 8203   0.336   4.237   1.011
 2548SOL    HW1 8204   0.292   4.156   0.987
 2548SOL    HW2 8205   0.410   4.243   0.950
 2549SOL     OW 8206   1.138   4.097   1.683
 2549SOL    HW1 8207   1.088   4.155   1.740
 2549SOL    HW2 8208   1.223   4.139   1.674
 2550SOL     OW 8209   1.160   3.928   1.469
 2550SOL    HW1 8210   1.151   3.989   1.542
 2550SOL    HW2 8211   1.198   3.980   1.398
 2551SOL     OW 8212   0.029   4.281   1.109
 2551SOL    HW1 8213   0.112   4.253   1.070
 2551SOL    HW2 8214   0.032   4.246   1.198
 2552SOL     OW 8215   0.177   4.235   1.697
 2552SOL    HW1 8216   0.262   4.216   1.657
 2552SOL    HW2 8217   0.147   4.315   1.653
 2553SOL     OW 8218   0.815   4.306   0.327
 2553SOL    HW1 8219   0.823   4.220   0.286
 2553SOL    HW2 8220   0.721   4.319   0.340
 2554SOL     OW 8221   1.639   4.320   1.190
 2554SOL    HW1 8222   1.632   4.260   1.265
 2554SOL    HW2 8223   1.726   4.304   1.155
 2555SOL     OW 8224   0.676   4.186   1.261
 2555SOL    HW1 8225   0.639   4.104   1.227
 2555SOL    HW2 8226   0.685   4.242   1.184
 2556SOL     OW 8227   0.478   4.218   0.186
 2556SOL    HW1 8228   0.521   4.303   0.197
 2556SOL    HW2 8229   0.384   4.239   0.189
 2557SOL     OW 8230   0.917   3.814   0.112
 2557SOL    HW1 8231   0.968   3.780   0.039
 2557SOL    HW2 8232   0.952   3.771   0.189
 2558SOL     OW 8233   1.719   3.866   0.513
 2558SOL    HW1 8234   1.792   3.853   0.453
 2558SOL    HW2 8235   1.704   3.780   0.552
 2559SOL     OW 8236   1.279   0.139   0.682
 2559SOL    HW1 8237   1.336   0.062   0.685
 2559SOL    HW2 8238   1.327   0.202   0.627
 2560SOL     OW 8239   1.839   3.897   0.968
 2560SOL    HW1 8240   1.868   3.811   0.938
 2560SOL    HW2 8241   1.753   3.909   0.928
 2561SOL     OW 8242   0.268   4.042   0.721
 2561SOL    HW1 8243   0.192   4.092   0.691
 2561SOL    HW2 8244   0.254   4.031   0.815
 2562SOL     OW 8245   1.063   0.306   0.722
 2562SOL    HW1 8246   0.977   0.270   0.701
 2562SOL    HW2 8247   1.125   0.239   0.695
 2563SOL     OW 8248   1.019   3.964   0.965
 2563SOL    HW1 8249   1.013   3.915   0.883
 2563SOL    HW2 8250   1.014   3.896   1.033
 2564SOL     OW 8251   1.719   4.114   1.380
 2564SOL    HW1 8252   1.790   4.178   1.377
 2564SOL    HW2 8253   1.749   4.043   1.324
 2565SOL     OW 8254   0.672   3.922   1.498
 2565SOL    HW1 8255   0.756   3.902   1.456
 2565SOL    HW2 8256   0.696   3.949   1.587
 2566SOL     OW 8257   0.060   4.060   0.003
 2566SOL    HW1 8258   4.468   4.069   0.029
 2566SOL    HW2 8259   0.098   4.145   0.021
 2567SOL     OW 8260   0.081   3.899   0.310
 2567SOL    HW1 8261   0.079   3.973   0.249
 2567SOL    HW2 8262   0.155   3.846   0.280
 2568SOL     OW 8263   0.723   4.287   1.703
 2568SOL    HW1 8264   0.731   4.336   1.784
 2568SOL    HW2 8265   0.754   4.199   1.725
 2569SOL     OW 8266   1.218   4.041   0.456
 2569SOL    HW1 8267   1.283   3.971   0.446
 2569SOL    HW2 8268   1.247   4.090   0.533
 2570SOL     OW 8269   1.763   4.087   1.647
 2570SOL    HW1 8270   1.746   4.097   1.554
 2570SOL    HW2 8271   1.694   4.029   1.679
 2571SOL     OW 8272   1.098   0.203   0.051
 2571SOL    HW1 8273   1.097   0.287   0.006
 2571SOL    HW2 8274   1.191   0.177   0.050
 2572SOL     OW 8275   1.815   3.910   1.238
 2572SOL    HW1 8276   1.824   3.816   1.254
 2572SOL    HW2 8277   1.823   3.918   1.143
 2573SOL     OW 8278   0.449   4.152   0.536
 2573SOL    HW1 8279   0.465   4.079   0.476
 2573SOL    HW2 8280   0.390   4.116   0.603
 2574SOL     OW 8281   0.322   4.258   1.276
 2574SOL    HW1 8282   0.374   4.192   1.321
 2574SOL    HW2 8283   0.336   4.241   1.183
 2575SOL     OW 8284   1.432   3.947   1.118
 2575SOL    HW1 8285   1.461   3.869   1.165
 2575SOL    HW2 8286   1.380   3.996   1.181
 2576SOL     OW 8287   1.008   3.745   1.146
 2576SOL    HW1 8288   0.953   3.677   1.108
 2576SOL    HW2 8289   1.096   3.707   1.148
 2577SOL     OW 8290   1.351   3.777   0.164
 2577SOL    HW1 8291   1.374   3.728   0.085
 2577SOL    HW2 8292   1.265   3.744   0.189
 2578SOL     OW 8293   1.300   4.176   0.683
 2578SOL    HW1 8294   1.256   4.260   0.695
 2578SOL    HW2 8295   1.300   4.136   0.769
 2579SOL     OW 8296   1.588   3.930   0.877
 2579SOL    HW1 8297   1.523   3.948   0.945
 2579SOL    HW2 8298   1.588   4.009   0.822
 2580SOL     OW 8299   0.234   4.288   1.973
 2580SOL    HW1 8300   0.166   4.324   2.030
 2580SOL    HW2 8301   0.214   4.324   1.886
 2581SOL     OW 8302   0.211   3.998   2.853
 2581SOL    HW1 8303   0.247   3.970   2.938
 2581SOL    HW2 8304   0.135   3.941   2.841
 2582SOL     OW 8305   0.001   4.097   2.494
 2582SOL    HW1 8306   4.423   4.129   2.539
 2582SOL    HW2 8307   4.473   4.016   2.451
 2583SOL     OW 8308   1.735   4.335   2.098
 2583SOL    HW1 8309   1.734   4.320   2.004
 2583SOL    HW2 8310   1.733   4.247   2.136
 2584SOL     OW 8311   0.724   0.264   2.541
 2584SOL    HW1 8312   0.723   0.209   2.619
 2584SOL    HW2 8313   0.632   0.287   2.527
 2585SOL     OW 8314   0.442   4.120   3.351
 2585SOL    HW1 8315   0.523   4.070   3.356
 2585SOL    HW2 8316   0.373   4.055   3.362
 2586SOL     OW 8317   1.615   4.174   2.600
 2586SOL    HW1 8318   1.543   4.200   2.544
 2586SOL    HW2 8319   1.624   4.245   2.663
 2587SOL     OW 8320   1.597   3.845   3.332
 2587SOL    HW1 8321   1.592   3.923   3.278
 2587SOL    HW2 8322   1.585   3.876   3.422
 2588SOL     OW 8323   0.166   4.323   2.494
 2588SOL    HW1 8324   0.106   4.252   2.468
 2588SOL    HW2 8325   0.120   4.403   2.471
 2589SOL     OW 8326   0.116   4.497   3.452
 2589SOL    HW1 8327   0.210   4.482   3.456
 2589SOL    HW2 8328   0.106   0.081   3.407
 2590SOL     OW 8329   0.813   3.723   2.367
 2590SOL    HW1 8330   0.852   3.809   2.353
 2590SOL    HW2 8331   0.719   3.741   2.378
 2591SOL     OW 8332   0.329   3.979   3.658
 2591SOL    HW1 8333   0.377   4.056   3.687
 2591SOL    HW2 8334   0.241   3.990   3.696
 2592SOL     OW 8335   1.278   4.069   2.794
 2592SOL    HW1 8336   1.189   4.036   2.803
 2592SOL    HW2 8337   1.330   4.019   2.857
 2593SOL     OW 8338   0.823   4.309   3.313
 2593SOL    HW1 8339   0.781   4.314   3.399
 2593SOL    HW2 8340   0.757   4.268   3.257
 2594SOL     OW 8341   1.396   4.199   3.538
 2594SOL    HW1 8342   1.395   4.242   3.624
 2594SOL    HW2 8343   1.456   4.126   3.549
 2595SOL     OW 8344   0.996   4.147   3.096
 2595SOL    HW1 8345   0.922   4.167   3.154
 2595SOL    HW2 8346   0.959   4.088   3.030
 2596SOL     OW 8347   1.057   4.410   2.282
 2596SOL    HW1 8348   1.058   4.443   2.372
 2596SOL    HW2 8349   0.968   4.375   2.270
 2597SOL     OW 8350   0.054   0.047   2.703
 2597SOL    HW1 8351   0.147   0.025   2.709
 2597SOL    HW2 8352   0.049   0.112   2.634
 2598SOL     OW 8353   0.885   4.063   2.054
 2598SOL    HW1 8354   0.930   4.125   1.996
 2598SOL    HW2 8355   0.904   3.977   2.016
 2599SOL     OW 8356   1.705   4.298   3.690
 2599SOL    HW1 8357   1.715   4.388   3.658
 2599SOL    HW2 8358   1.729   4.243   3.615
 2600SOL     OW 8359   0.551   3.908   2.754
 2600SOL    HW1 8360   0.553   3.936   2.845
 2600SOL    HW2 8361   0.548   3.989   2.704
 2601SOL     OW 8362   1.488   4.461   2.597
 2601SOL    HW1 8363   1.466   4.407   2.674
 2601SOL    HW2 8364   1.529   0.040   2.634
 2602SOL     OW 8365   0.190   4.000   3.349
 2602SOL    HW1 8366   0.134   4.078   3.356
 2602SOL    HW2 8367   0.185   3.960   3.436
 2603SOL     OW 8368   1.401   3.831   2.292
 2603SOL    HW1 8369   1.389   3.806   2.200
 2603SOL    HW2 8370   1.495   3.840   2.303
 2604SOL     OW 8371   0.352   4.378   2.271
 2604SOL    HW1 8372   0.399   4.306   2.314
 2604SOL    HW2 8373   0.297   4.415   2.340
 2605SOL     OW 8374   1.538   3.950   3.587
 2605SOL    HW1 8375   1.546   3.972   3.680
 2605SOL    HW2 8376   1.470   3.883   3.584
 2606SOL     OW 8377   0.630   3.852   1.966
 2606SOL    HW1 8378   0.703   3.791   1.981
 2606SOL    HW2 8379   0.585   3.816   1.890
 2607SOL     OW 8380   0.769   4.001   3.615
 2607SOL    HW1 8381   0.841   3.938   3.621
 2607SOL    HW2 8382   0.716   3.984   3.694
 2608SOL     OW 8383   1.346   4.311   3.290
 2608SOL    HW1 8384   1.368   4.274   3.376
 2608SOL    HW2 8385   1.382   4.399   3.292
 2609SOL     OW 8386   0.922   4.236   2.762
 2609SOL    HW1 8387   0.900   4.220   2.670
 2609SOL    HW2 8388   0.961   4.154   2.792
 2610SOL     OW 8389   0.550   3.786   2.367
 2610SOL    HW1 8390   0.469   3.785   2.418
 2610SOL    HW2 8391   0.543   3.865   2.313
 2611SOL     OW 8392   0.294   3.769   2.041
 2611SOL    HW1 8393   0.355   3.838   2.012
 2611SOL    HW2 8394   0.349   3.704   2.084
 2612SOL     OW 8395   0.935   3.970   2.327
 2612SOL    HW1 8396   0.907   4.009   2.245
 2612SOL    HW2 8397   1.030   3.980   2.327
 2613SOL     OW 8398   1.078   4.395   3.373
 2613SOL    HW1 8399   0.994   4.364   3.339
 2613SOL    HW2 8400   1.143   4.352   3.318
 2614SOL     OW 8401   1.026   4.269   1.885
 2614SOL    HW1 8402   1.005   4.357   1.852
 2614SOL    HW2 8403   1.088   4.284   1.956
 2615SOL     OW 8404   0.086   4.260   3.272
 2615SOL    HW1 8405   0.158   4.273   3.210
 2615SOL    HW2 8406   0.055   4.348   3.291
 2616SOL     OW 8407   0.562   3.950   3.026
 2616SOL    HW1 8408   0.600   3.869   3.059
 2616SOL    HW2 8409   0.470   3.948   3.054
 2617SOL     OW 8410   0.872   4.189   2.500
 2617SOL    HW1 8411   0.832   4.246   2.435
 2617SOL    HW2 8412   0.888   4.107   2.454
 2618SOL     OW 8413   1.014   3.777   2.615
 2618SOL    HW1 8414   0.955   3.768   2.540
 2618SOL    HW2 8415   0.994   3.701   2.670
 2619SOL     OW 8416   1.477   4.312   2.832
 2619SOL    HW1 8417   1.422   4.236   2.852
 2619SOL    HW2 8418   1.529   4.326   2.911
 2620SOL     OW 8419   1.400   4.296   1.934
 2620SOL    HW1 8420   1.339   4.270   2.003
 2620SOL    HW2 8421   1.483   4.256   1.960
 2621SOL     OW 8422   0.523   3.984   2.181
 2621SOL    HW1 8423   0.565   3.936   2.110
 2621SOL    HW2 8424   0.511   4.073   2.145
 2622SOL     OW 8425   0.917   3.823   3.261
 2622SOL    HW1 8426   0.941   3.802   3.170
 2622SOL    HW2 8427   0.997   3.861   3.298
 2623SOL     OW 8428   0.438   0.004   3.118
 2623SOL    HW1 8429   0.495   0.009   3.195
 2623SOL    HW2 8430   0.399   4.417   3.123
 2624SOL     OW 8431   1.267   4.101   3.134
 2624SOL    HW1 8432   1.300   4.178   3.180
 2624SOL    HW2 8433   1.178   4.125   3.108
 2625SOL     OW 8434   0.558   4.255   2.726
 2625SOL    HW1 8435   0.576   4.303   2.645
 2625SOL    HW2 8436   0.621   4.290   2.790
 2626SOL     OW 8437   1.573   4.342   2.337
 2626SOL    HW1 8438   1.540   4.408   2.398
 2626SOL    HW2 8439   1.630   4.391   2.278
 2627SOL     OW 8440   0.997   3.841   3.619
 2627SOL    HW1 8441   1.048   3.915   3.586
 2627SOL    HW2 8442   1.046   3.764   3.592
 2628SOL     OW 8443   0.499   3.768   3.607
 2628SOL    HW1 8444   0.458   3.712   3.542
 2628SOL    HW2 8445   0.437   3.841   3.618
 2629SOL     OW 8446   1.212   4.256   2.129
 2629SOL    HW1 8447   1.221   4.176   2.181
 2629SOL    HW2 8448   1.163   4.315   2.185
 2630SOL     OW 8449   0.301   3.925   3.106
 2630SOL    HW1 8450   0.263   3.953   3.189
 2630SOL    HW2 8451   0.286   3.830   3.104
 2631SOL     OW 8452   0.732   4.360   2.912
 2631SOL    HW1 8453   0.804   4.325   2.860
 2631SOL    HW2 8454   0.734   4.454   2.897
 2632SOL     OW 8455   1.749   0.135   3.719
 2632SOL    HW1 8456   1.689   0.149   3.646
 2632SOL    HW2 8457   1.702   0.168   3.795
 2633SOL     OW 8458   0.308   3.794   2.481
 2633SOL    HW1 8459   0.285   3.882   2.510
 2633SOL    HW2 8460   0.302   3.741   2.561
 2634SOL     OW 8461   1.612   4.091   2.232
 2634SOL    HW1 8462   1.640   4.030   2.300
 2634SOL    HW2 8463   1.590   4.171   2.279
 2635SOL     OW 8464   1.529   3.999   1.989
 2635SOL    HW1 8465   1.467   3.931   2.015
 2635SOL    HW2 8466   1.563   4.034   2.071
 2636SOL     OW 8467   0.318   0.018   2.786
 2636SOL    HW1 8468   0.402   0.065   2.792
 2636SOL    HW2 8469   0.331   4.440   2.840
 2637SOL     OW 8470   0.337   4.237   2.873
 2637SOL    HW1 8471   0.292   4.156   2.849
 2637SOL    HW2 8472   0.410   4.243   2.812
 2638SOL     OW 8473   1.138   4.097   3.545
 2638SOL    HW1 8474   1.087   4.155   3.601
 2638SOL    HW2 8475   1.223   4.139   3.536
 2639SOL     OW 8476   1.160   3.928   3.331
 2639SOL    HW1 8477   1.151   3.989   3.404
 2639SOL    HW2 8478   1.198   3.980   3.260
 2640SOL     OW 8479   0.029   4.280   2.971
 2640SOL    HW1 8480   0.112   4.254   2.932
 2640SOL    HW2 8481   0.032   4.246   3.060
 2641SOL     OW 8482   0.177   4.235   3.559
 2641SOL    HW1 8483   0.262   4.216   3.519
 2641SOL    HW2 8484   0.147   4.315   3.515
 2642SOL     OW 8485   0.819   4.288   2.201
 2642SOL    HW1 8486   0.817   4.209   2.147
 2642SOL    HW2 8487   0.730   4.322   2.199
 2643SOL     OW 8488   1.639   4.319   3.052
 2643SOL    HW1 8489   1.632   4.260   3.127
 2643SOL    HW2 8490   1.726   4.304   3.017
 2644SOL     OW 8491   0.676   4.185   3.123
 2644SOL    HW1 8492   0.639   4.104   3.089
 2644SOL    HW2 8493   0.685   4.242   3.046
 2645SOL     OW 8494   0.486   4.222   2.053
 2645SOL    HW1 8495   0.520   4.309   2.073
 2645SOL    HW2 8496   0.392   4.236   2.040
 2646SOL     OW 8497   1.719   3.866   2.375
 2646SOL    HW1 8498   1.792   3.852   2.315
 2646SOL    HW2 8499   1.703   3.780   2.414
 2647SOL     OW 8500   1.280   0.138   2.541
 2647SOL    HW1 8501   1.338   0.062   2.546
 2647SOL    HW2 8502   1.329   0.203   2.491
 2648SOL     OW 8503   1.839   3.897   2.830
 2648SOL    HW1 8504   1.868   3.811   2.800
 2648SOL    HW2 8505   1.753   3.909   2.790
 2649SOL     OW 8506   0.268   4.042   2.583
 2649SOL    HW1 8507   0.191   4.090   2.553
 2649SOL    HW2 8508   0.255   4.031   2.677
 2650SOL     OW 8509   0.911   0.094   2.089
 2650SOL    HW1 8510   0.993   0.136   2.061
 2650SOL    HW2 8511   0.933   0.050   2.171
 2651SOL     OW 8512   1.067   0.306   2.598
 2651SOL    HW1 8513   0.982   0.286   2.559
 2651SOL    HW2 8514   1.126   0.240   2.562
 2652SOL     OW 8515   1.019   3.964   2.827
 2652SOL    HW1 8516   1.013   3.915   2.745
 2652SOL    HW2 8517   1.014   3.896   2.895
 2653SOL     OW 8518   1.719   4.114   3.242
 2653SOL    HW1 8519   1.790   4.178   3.239
 2653SOL    HW2 8520   1.749   4.043   3.186
 2654SOL     OW 8521   0.672   3.922   3.360
 2654SOL    HW1 8522   0.756   3.903   3.318
 2654SOL    HW2 8523   0.696   3.949   3.449
 2655SOL     OW 8524   0.069   4.046   1.893
 2655SOL    HW1 8525   4.474   4.061   1.886
 2655SOL    HW2 8526   0.108   4.131   1.876
 2656SOL     OW 8527   0.084   3.903   2.170
 2656SOL    HW1 8528   0.076   3.972   2.104
 2656SOL    HW2 8529   0.160   3.851   2.141
 2657SOL     OW 8530   0.723   4.287   3.565
 2657SOL    HW1 8531   0.731   4.337   3.646
 2657SOL    HW2 8532   0.755   4.199   3.587
 2658SOL     OW 8533   1.220   4.044   2.317
 2658SOL    HW1 8534   1.283   3.972   2.307
 2658SOL    HW2 8535   1.248   4.091   2.395
 2659SOL     OW 8536   1.764   4.087   3.509
 2659SOL    HW1 8537   1.746   4.097   3.416
 2659SOL    HW2 8538   1.694   4.029   3.541
 2660SOL     OW 8539   1.109   0.230   1.967
 2660SOL    HW1 8540   1.087   0.269   1.882
 2660SOL    HW2 8541   1.187   0.177   1.949
 2661SOL     OW 8542   1.815   3.910   3.100
 2661SOL    HW1 8543   1.824   3.816   3.116
 2661SOL    HW2 8544   1.823   3.918   3.005
 2662SOL     OW 8545   0.451   4.151   2.399
 2662SOL    HW1 8546   0.461   4.079   2.336
 2662SOL    HW2 8547   0.390   4.118   2.465
 2663SOL     OW 8548   0.322   4.258   3.138
 2663SOL    HW1 8549   0.374   4.192   3.183
 2663SOL    HW2 8550   0.336   4.241   3.045
 2664SOL     OW 8551   1.432   3.947   2.980
 2664SOL    HW1 8552   1.461   3.869   3.028
 2664SOL    HW2 8553   1.380   3.996   3.043
 2665SOL     OW 8554   1.008   3.745   3.008
 2665SOL    HW1 8555   0.953   3.677   2.970
 2665SOL    HW2 8556   1.096   3.707   3.010
 2666SOL     OW 8557   1.352   3.777   2.025
 2666SOL    HW1 8558   1.378   3.718   1.955
 2666SOL    HW2 8559   1.266   3.746   2.053
 2667SOL     OW 8560   1.300   4.177   2.545
 2667SOL    HW1 8561   1.256   4.260   2.559
 2667SOL    HW2 8562   1.300   4.135   2.631
 2668SOL     OW 8563   1.588   3.930   2.739
 2668SOL    HW1 8564   1.523   3.948   2.807
 2668SOL    HW2 8565   1.588   4.009   2.684
 2669SOL     OW 8566   0.233   4.287   3.835
 2669SOL    HW1 8567   0.166   4.323   3.892
 2669SOL    HW2 8568   0.214   4.325   3.749
 2670SOL     OW 8569   0.211   3.998   4.715
 2670SOL    HW1 8570   0.247   3.970   4.800
 2670SOL    HW2 8571   0.134   3.941   4.703
 2671SOL     OW 8572   0.001   4.097   4.356
 2671SOL    HW1 8573   4.423   4.129   4.401
 2671SOL    HW2 8574   4.473   4.016   4.313
 2672SOL     OW 8575   1.734   4.335   3.960
 2672SOL    HW1 8576   1.734   4.321   3.866
 2672SOL    HW2 8577   1.733   4.247   3.998
 2673SOL     OW 8578   0.724   0.264   4.403
 2673SOL    HW1 8579   0.723   0.209   4.481
 2673SOL    HW2 8580   0.632   0.287   4.389
 2674SOL     OW 8581   0.442   4.120   5.213
 2674SOL    HW1 8582   0.523   4.069   5.218
 2674SOL    HW2 8583   0.373   4.055   5.224
 2675SOL     OW 8584   1.615   4.173   4.462
 2675SOL    HW1 8585   1.543   4.200   4.406
 2675SOL    HW2 8586   1.624   4.245   4.525
 2676SOL     OW 8587   1.597   3.845   5.194
 2676SOL    HW1 8588   1.593   3.924   5.140
 2676SOL    HW2 8589   1.585   3.876   5.284
 2677SOL     OW 8590   0.166   4.323   4.355
 2677SOL    HW1 8591   0.106   4.252   4.330
 2677SOL    HW2 8592   0.120   4.403   4.333
 2678SOL     OW 8593   0.116   4.497   5.314
 2678SOL    HW1 8594   0.210   4.482   5.318
 2678SOL    HW2 8595   0.106   0.081   5.269
 2679SOL     OW 8596   0.813   3.723   4.229
 2679SOL    HW1 8597   0.852   3.808   4.215
 2679SOL    HW2 8598   0.719   3.741   4.240
 2680SOL     OW 8599   0.329   3.979   5.520
 2680SOL    HW1 8600   0.377   4.056   5.550
 2680SOL    HW2 8601   0.241   3.990   5.558
 2681SOL     OW 8602   1.278   4.069   4.656
 2681SOL    HW1 8603   1.189   4.036   4.665
 2681SOL    HW2 8604   1.330   4.019   4.719
 2682SOL     OW 8605   0.823   4.309   5.175
 2682SOL    HW1 8606   0.782   4.314   5.261
 2682SOL    HW2 8607   0.757   4.268   5.119
 2683SOL     OW 8608   1.396   4.199   5.400
 2683SOL    HW1 8609   1.395   4.242   5.486
 2683SOL    HW2 8610   1.456   4.126   5.411
 2684SOL     OW 8611   0.996   4.147   4.959
 2684SOL    HW1 8612   0.922   4.167   5.016
 2684SOL    HW2 8613   0.959   4.088   4.892
 2685SOL     OW 8614   1.057   4.409   4.145
 2685SOL    HW1 8615   1.057   4.443   4.234
 2685SOL    HW2 8616   0.968   4.375   4.132
 2686SOL     OW 8617   0.054   0.046   4.565
 2686SOL    HW1 8618   0.147   0.025   4.571
 2686SOL    HW2 8619   0.049   0.112   4.496
 2687SOL     OW 8620   0.885   4.063   3.916
 2687SOL    HW1 8621   0.930   4.125   3.858
 2687SOL    HW2 8622   0.905   3.977   3.878
 2688SOL     OW 8623   1.705   4.298   5.552
 2688SOL    HW1 8624   1.715   4.388   5.520
 2688SOL    HW2 8625   1.729   4.243   5.477
 2689SOL     OW 8626   0.552   3.908   4.616
 2689SOL    HW1 8627   0.553   3.936   4.707
 2689SOL    HW2 8628   0.548   3.989   4.566
 2690SOL     OW 8629   1.488   4.461   4.459
 2690SOL    HW1 8630   1.467   4.408   4.536
 2690SOL    HW2 8631   1.529   0.040   4.495
 2691SOL     OW 8632   0.190   4.000   5.211
 2691SOL    HW1 8633   0.134   4.078   5.218
 2691SOL    HW2 8634   0.185   3.960   5.298
 2692SOL     OW 8635   1.401   3.831   4.154
 2692SOL    HW1 8636   1.389   3.806   4.062
 2692SOL    HW2 8637   1.495   3.841   4.164
 2693SOL     OW 8638   0.352   4.377   4.133
 2693SOL    HW1 8639   0.399   4.306   4.176
 2693SOL    HW2 8640   0.297   4.415   4.202
 2694SOL     OW 8641   1.538   3.950   5.449
 2694SOL    HW1 8642   1.546   3.972   5.542
 2694SOL    HW2 8643   1.470   3.883   5.446
 2695SOL     OW 8644   0.630   3.851   3.828
 2695SOL    HW1 8645   0.703   3.791   3.843
 2695SOL    HW2 8646   0.585   3.816   3.752
 2696SOL     OW 8647   0.769   4.001   5.477
 2696SOL    HW1 8648   0.841   3.938   5.483
 2696SOL    HW2 8649   0.716   3.984   5.556
 2697SOL     OW 8650   1.346   4.311   5.152
 2697SOL    HW1 8651   1.368   4.274   5.238
 2697SOL    HW2 8652   1.382   4.399   5.154
 2698SOL     OW 8653   0.922   4.236   4.624
 2698SOL    HW1 8654   0.900   4.220   4.532
 2698SOL    HW2 8655   0.961   4.154   4.654
 2699SOL     OW 8656   0.550   3.786   4.229
 2699SOL    HW1 8657   0.469   3.785   4.280
 2699SOL    HW2 8658   0.543   3.865   4.175
 2700SOL     OW 8659   0.294   3.769   3.902
 2700SOL    HW1 8660   0.355   3.838   3.874
 2700SOL    HW2 8661   0.349   3.705   3.946
 2701SOL     OW 8662   0.935   3.969   4.189
 2701SOL    HW1 8663   0.907   4.009   4.107
 2701SOL    HW2 8664   1.030   3.980   4.189
 2702SOL     OW 8665   1.078   4.395   5.235
 2702SOL    HW1 8666   0.994   4.364   5.202
 2702SOL    HW2 8667   1.143   4.352   5.180
 2703SOL     OW 8668   1.026   4.269   3.747
 2703SOL    HW1 8669   1.005   4.357   3.714
 2703SOL    HW2 8670   1.088   4.284   3.818
 2704SOL     OW 8671   0.086   4.260   5.134
 2704SOL    HW1 8672   0.158   4.273   5.072
 2704SOL    HW2 8673   0.055   4.348   5.153
 2705SOL     OW 8674   0.562   3.950   4.888
 2705SOL    HW1 8675   0.600   3.869   4.921
 2705SOL    HW2 8676   0.470   3.948   4.916
 2706SOL     OW 8677   0.872   4.189   4.362
 2706SOL    HW1 8678   0.832   4.246   4.297
 2706SOL    HW2 8679   0.888   4.107   4.315
 2707SOL     OW 8680   1.014   3.776   4.477
 2707SOL    HW1 8681   0.955   3.768   4.402
 2707SOL    HW2 8682   0.994   3.701   4.532
 2708SOL     OW 8683   1.477   4.312   4.694
 2708SOL    HW1 8684   1.422   4.237   4.714
 2708SOL    HW2 8685   1.529   4.326   4.773
 2709SOL     OW 8686   1.400   4.296   3.796
 2709SOL    HW1 8687   1.339   4.270   3.866
 2709SOL    HW2 8688   1.483   4.256   3.822
 2710SOL     OW 8689   0.523   3.984   4.043
 2710SOL    HW1 8690   0.565   3.936   3.972
 2710SOL    HW2 8691   0.511   4.073   4.008
 2711SOL     OW 8692   0.917   3.823   5.123
 2711SOL    HW1 8693   0.941   3.802   5.032
 2711SOL    HW2 8694   0.997   3.861   5.160
 2712SOL     OW 8695   0.438   0.004   4.980
 2712SOL    HW1 8696   0.495   0.009   5.057
 2712SOL    HW2 8697   0.399   4.417   4.985
 2713SOL     OW 8698   1.267   4.101   4.996
 2713SOL    HW1 8699   1.300   4.178   5.042
 2713SOL    HW2 8700   1.178   4.125   4.970
 2714SOL     OW 8701   0.558   4.255   4.588
 2714SOL    HW1 8702   0.576   4.303   4.507
 2714SOL    HW2 8703   0.621   4.290   4.652
 2715SOL     OW 8704   1.574   4.342   4.199
 2715SOL    HW1 8705   1.540   4.408   4.260
 2715SOL    HW2 8706   1.630   4.391   4.140
 2716SOL     OW 8707   0.996   3.841   5.481
 2716SOL    HW1 8708   1.048   3.915   5.448
 2716SOL    HW2 8709   1.046   3.764   5.455
 2717SOL     OW 8710   0.499   3.768   5.469
 2717SOL    HW1 8711   0.458   3.712   5.404
 2717SOL    HW2 8712   0.437   3.841   5.480
 2718SOL     OW 8713   1.212   4.256   3.991
 2718SOL    HW1 8714   1.221   4.176   4.043
 2718SOL    HW2 8715   1.163   4.315   4.047
 2719SOL     OW 8716   0.301   3.925   4.968
 2719SOL    HW1 8717   0.263   3.953   5.051
 2719SOL    HW2 8718   0.286   3.830   4.966
 2720SOL     OW 8719   0.731   4.360   4.774
 2720SOL    HW1 8720   0.804   4.325   4.722
 2720SOL    HW2 8721   0.734   4.454   4.759
 2721SOL     OW 8722   1.749   0.135   5.581
 2721SOL    HW1 8723   1.689   0.149   5.508
 2721SOL    HW2 8724   1.702   0.168   5.657
 2722SOL     OW 8725   0.308   3.794   4.343
 2722SOL    HW1 8726   0.285   3.882   4.372
 2722SOL    HW2 8727   0.302   3.741   4.422
 2723SOL     OW 8728   1.611   4.091   4.094
 2723SOL    HW1 8729   1.640   4.030   4.163
 2723SOL    HW2 8730   1.590   4.171   4.141
 2724SOL     OW 8731   1.529   3.999   3.851
 2724SOL    HW1 8732   1.467   3.931   3.877
 2724SOL    HW2 8733   1.563   4.034   3.933
 2725SOL     OW 8734   0.318   0.018   4.648
 2725SOL    HW1 8735   0.402   0.065   4.654
 2725SOL    HW2 8736   0.330   4.440   4.702
 2726SOL     OW 8737   0.337   4.237   4.735
 2726SOL    HW1 8738   0.292   4.156   4.711
 2726SOL    HW2 8739   0.410   4.243   4.674
 2727SOL     OW 8740   1.138   4.097   5.407
 2727SOL    HW1 8741   1.087   4.155   5.463
 2727SOL    HW2 8742   1.223   4.139   5.398
 2728SOL     OW 8743   1.160   3.928   5.193
 2728SOL    HW1 8744   1.151   3.989   5.266
 2728SOL    HW2 8745   1.198   3.981   5.122
 2729SOL     OW 8746   0.029   4.280   4.833
 2729SOL    HW1 8747   0.112   4.253   4.794
 2729SOL    HW2 8748   0.032   4.246   4.922
 2730SOL     OW 8749   0.177   4.235   5.421
 2730SOL    HW1 8750   0.262   4.216   5.381
 2730SOL    HW2 8751   0.147   4.315   5.377
 2731SOL     OW 8752   0.819   4.288   4.063
 2731SOL    HW1 8753   0.816   4.209   4.009
 2731SOL    HW2 8754   0.730   4.322   4.061
 2732SOL     OW 8755   1.639   4.319   4.914
 2732SOL    HW1 8756   1.632   4.261   4.989
 2732SOL    HW2 8757   1.726   4.303   4.879
 2733SOL     OW 8758   0.676   4.185   4.985
 2733SOL    HW1 8759   0.639   4.104   4.950
 2733SOL    HW2 8760   0.685   4.242   4.908
 2734SOL     OW 8761   0.486   4.222   3.915
 2734SOL    HW1 8762   0.520   4.309   3.935
 2734SOL    HW2 8763   0.392   4.236   3.902
 2735SOL     OW 8764   1.719   3.866   4.237
 2735SOL    HW1 8765   1.792   3.852   4.177
 2735SOL    HW2 8766   1.704   3.780   4.276
 2736SOL     OW 8767   1.280   0.138   4.403
 2736SOL    HW1 8768   1.338   0.062   4.407
 2736SOL    HW2 8769   1.329   0.204   4.353
 2737SOL     OW 8770   1.839   3.896   4.692
 2737SOL    HW1 8771   1.868   3.810   4.661
 2737SOL    HW2 8772   1.753   3.909   4.652
 2738SOL     OW 8773   0.268   4.042   4.445
 2738SOL    HW1 8774   0.191   4.090   4.415
 2738SOL    HW2 8775   0.255   4.031   4.539
 2739SOL     OW 8776   0.911   0.094   3.951
 2739SOL    HW1 8777   0.993   0.135   3.923
 2739SOL    HW2 8778   0.933   0.050   4.033
 2740SOL     OW 8779   1.067   0.306   4.460
 2740SOL    HW1 8780   0.982   0.286   4.420
 2740SOL    HW2 8781   1.126   0.240   4.424
 2741SOL     OW 8782   1.019   3.964   4.689
 2741SOL    HW1 8783   1.013   3.915   4.607
 2741SOL    HW2 8784   1.014   3.896   4.757
 2742SOL     OW 8785   1.719   4.114   5.104
 2742SOL    HW1 8786   1.790   4.178   5.101
 2742SOL    HW2 8787   1.749   4.043   5.048
 2743SOL     OW 8788   0.672   3.922   5.222
 2743SOL    HW1 8789   0.756   3.903   5.180
 2743SOL    HW2 8790   0.696   3.949   5.311
 2744SOL     OW 8791   0.068   4.046   3.755
 2744SOL    HW1 8792   4.474   4.061   3.748
 2744SOL    HW2 8793   0.108   4.131   3.738
 2745SOL     OW 8794   0.084   3.903   4.032
 2745SOL    HW1 8795   0.076   3.972   3.966
 2745SOL    HW2 8796   0.160   3.851   4.003
 2746SOL     OW 8797   0.723   4.287   5.427
 2746SOL    HW1 8798   0.731   4.336   5.508
 2746SOL    HW2 8799   0.755   4.199   5.449
 2747SOL     OW 8800   1.220   4.043   4.179
 2747SOL    HW1 8801   1.283   3.972   4.170
 2747SOL    HW2 8802   1.248   4.091   4.257
 2748SOL     OW 8803   1.764   4.087   5.371
 2748SOL    HW1 8804   1.746   4.097   5.278
 2748SOL    HW2 8805   1.694   4.029   5.403
 2749SOL     OW 8806   1.109   0.230   3.829
 2749SOL    HW1 8807   1.087   0.270   3.745
 2749SOL    HW2 8808   1.187   0.177   3.811
 2750SOL     OW 8809   1.815   3.910   4.962
 2750SOL    HW1 8810   1.824   3.816   4.978
 2750SOL    HW2 8811   1.823   3.918   4.867
 2751SOL     OW 8812   0.452   4.151   4.261
 2751SOL    HW1 8813   0.461   4.079   4.198
 2751SOL    HW2 8814   0.390   4.118   4.327
 2752SOL     OW 8815   0.322   4.258   5.000
 2752SOL    HW1 8816   0.374   4.191   5.045
 2752SOL    HW2 8817   0.336   4.241   4.907
 2753SOL     OW 8818   1.432   3.947   4.842
 2753SOL    HW1 8819   1.461   3.870   4.891
 2753SOL    HW2 8820   1.380   3.997   4.905
 2754SOL     OW 8821   1.008   3.745   4.870
 2754SOL    HW1 8822   0.953   3.677   4.832
 2754SOL    HW2 8823   1.096   3.707   4.871
 2755SOL     OW 8824   1.352   3.777   3.888
 2755SOL    HW1 8825   1.377   3.719   3.816
 2755SOL    HW2 8826   1.266   3.746   3.915
 2756SOL     OW 8827   1.300   4.176   4.407
 2756SOL    HW1 8828   1.256   4.260   4.421
 2756SOL    HW2 8829   1.300   4.135   4.493
 2757SOL     OW 8830   1.588   3.930   4.601
 2757SOL    HW1 8831   1.523   3.948   4.669
 2757SOL    HW2 8832   1.588   4.009   4.546
 2758SOL     OW 8833   0.233   4.287   5.697
 2758SOL    HW1 8834   0.166   4.323   5.754
 2758SOL    HW2 8835   0.214   4.325   5.611
 2759SOL     OW 8836   0.211   3.998   6.577
 2759SOL    HW1 8837   0.247   3.970   6.662
 2759SOL    HW2 8838   0.135   3.941   6.565
 2760SOL     OW 8839   0.001   4.097   6.218
 2760SOL    HW1 8840   4.423   4.129   6.263
 2760SOL    HW2 8841   4.473   4.016   6.175
 2761SOL     OW 8842   1.735   4.335   5.822
 2761SOL    HW1 8843   1.734   4.320   5.728
 2761SOL    HW2 8844   1.733   4.247   5.860
 2762SOL     OW 8845   0.724   0.264   6.265
 2762SOL    HW1 8846   0.723   0.209   6.343
 2762SOL    HW2 8847   0.632   0.287   6.251
 2763SOL     OW 8848   0.442   4.120   7.075
 2763SOL    HW1 8849   0.523   4.070   7.080
 2763SOL    HW2 8850   0.373   4.055   7.086
 2764SOL     OW 8851   1.616   4.174   6.324
 2764SOL    HW1 8852   1.542   4.200   6.268
 2764SOL    HW2 8853   1.624   4.245   6.388
 2765SOL     OW 8854   1.597   3.845   7.056
 2765SOL    HW1 8855   1.592   3.924   7.002
 2765SOL    HW2 8856   1.585   3.876   7.146
 2766SOL     OW 8857   0.166   4.323   6.218
 2766SOL    HW1 8858   0.106   4.252   6.192
 2766SOL    HW2 8859   0.120   4.403   6.194
 2767SOL     OW 8860   0.116   4.497   7.176
 2767SOL    HW1 8861   0.210   4.482   7.180
 2767SOL    HW2 8862   0.106   0.081   7.131
 2768SOL     OW 8863   0.812   3.723   6.091
 2768SOL    HW1 8864   0.852   3.809   6.077
 2768SOL    HW2 8865   0.719   3.741   6.102
 2769SOL     OW 8866   0.328   3.979   7.382
 2769SOL    HW1 8867   0.377   4.056   7.412
 2769SOL    HW2 8868   0.241   3.990   7.420
 2770SOL     OW 8869   1.278   4.069   6.518
 2770SOL    HW1 8870   1.189   4.036   6.527
 2770SOL    HW2 8871   1.330   4.019   6.581
 2771SOL     OW 8872   0.823   4.309   7.037
 2771SOL    HW1 8873   0.782   4.314   7.123
 2771SOL    HW2 8874   0.757   4.268   6.981
 2772SOL     OW 8875   1.396   4.199   7.262
 2772SOL    HW1 8876   1.395   4.242   7.348
 2772SOL    HW2 8877   1.456   4.125   7.273
 2773SOL     OW 8878   0.996   4.147   6.820
 2773SOL    HW1 8879   0.922   4.167   6.878
 2773SOL    HW2 8880   0.959   4.088   6.755
 2774SOL     OW 8881   1.057   4.409   6.007
 2774SOL    HW1 8882   1.058   4.443   6.096
 2774SOL    HW2 8883   0.968   4.375   5.994
 2775SOL     OW 8884   0.054   0.047   6.427
 2775SOL    HW1 8885   0.147   0.025   6.433
 2775SOL    HW2 8886   0.049   0.112   6.358
 2776SOL     OW 8887   0.885   4.063   5.778
 2776SOL    HW1 8888   0.930   4.125   5.720
 2776SOL    HW2 8889   0.904   3.977   5.740
 2777SOL     OW 8890   1.706   4.298   7.414
 2777SOL    HW1 8891   1.715   4.388   7.381
 2777SOL    HW2 8892   1.729   4.243   7.340
 2778SOL     OW 8893   0.552   3.908   6.478
 2778SOL    HW1 8894   0.553   3.936   6.569
 2778SOL    HW2 8895   0.548   3.989   6.428
 2779SOL     OW 8896   1.488   4.461   6.321
 2779SOL    HW1 8897   1.466   4.407   6.398
 2779SOL    HW2 8898   1.529   0.040   6.358
 2780SOL     OW 8899   0.190   4.000   7.073
 2780SOL    HW1 8900   0.134   4.077   7.080
 2780SOL    HW2 8901   0.185   3.960   7.160
 2781SOL     OW 8902   1.401   3.832   6.016
 2781SOL    HW1 8903   1.389   3.806   5.924
 2781SOL    HW2 8904   1.495   3.841   6.027
 2782SOL     OW 8905   0.352   4.378   5.995
 2782SOL    HW1 8906   0.399   4.306   6.038
 2782SOL    HW2 8907   0.297   4.415   6.064
 2783SOL     OW 8908   1.538   3.950   7.311
 2783SOL    HW1 8909   1.545   3.972   7.404
 2783SOL    HW2 8910   1.471   3.882   7.308
 2784SOL     OW 8911   0.631   3.852   5.690
 2784SOL    HW1 8912   0.703   3.791   5.705
 2784SOL    HW2 8913   0.585   3.816   5.614
 2785SOL     OW 8914   0.769   4.001   7.339
 2785SOL    HW1 8915   0.841   3.939   7.345
 2785SOL    HW2 8916   0.716   3.984   7.418
 2786SOL     OW 8917   1.346   4.311   7.014
 2786SOL    HW1 8918   1.368   4.274   7.100
 2786SOL    HW2 8919   1.382   4.399   7.016
 2787SOL     OW 8920   0.922   4.236   6.486
 2787SOL    HW1 8921   0.900   4.220   6.394
 2787SOL    HW2 8922   0.961   4.155   6.516
 2788SOL     OW 8923   0.550   3.786   6.091
 2788SOL    HW1 8924   0.469   3.785   6.142
 2788SOL    HW2 8925   0.543   3.865   6.037
 2789SOL     OW 8926   0.294   3.769   5.764
 2789SOL    HW1 8927   0.355   3.838   5.737
 2789SOL    HW2 8928   0.349   3.705   5.808
 2790SOL     OW 8929   0.935   3.970   6.051
 2790SOL    HW1 8930   0.907   4.009   5.969
 2790SOL    HW2 8931   1.030   3.980   6.051
 2791SOL     OW 8932   1.078   4.396   7.097
 2791SOL    HW1 8933   0.994   4.364   7.063
 2791SOL    HW2 8934   1.143   4.352   7.042
 2792SOL     OW 8935   1.026   4.269   5.608
 2792SOL    HW1 8936   1.005   4.357   5.576
 2792SOL    HW2 8937   1.088   4.284   5.680
 2793SOL     OW 8938   0.086   4.260   6.996
 2793SOL    HW1 8939   0.158   4.273   6.934
 2793SOL    HW2 8940   0.055   4.348   7.015
 2794SOL     OW 8941   0.562   3.950   6.750
 2794SOL    HW1 8942   0.600   3.869   6.783
 2794SOL    HW2 8943   0.470   3.947   6.778
 2795SOL     OW 8944   0.872   4.189   6.224
 2795SOL    HW1 8945   0.831   4.246   6.159
 2795SOL    HW2 8946   0.888   4.107   6.178
 2796SOL     OW 8947   1.014   3.777   6.339
 2796SOL    HW1 8948   0.955   3.768   6.264
 2796SOL    HW2 8949   0.995   3.701   6.394
 2797SOL     OW 8950   1.477   4.312   6.556
 2797SOL    HW1 8951   1.422   4.236   6.576
 2797SOL    HW2 8952   1.529   4.326   6.635
 2798SOL     OW 8953   1.400   4.296   5.658
 2798SOL    HW1 8954   1.339   4.270   5.727
 2798SOL    HW2 8955   1.483   4.256   5.684
 2799SOL     OW 8956   0.523   3.984   5.905
 2799SOL    HW1 8957   0.565   3.936   5.834
 2799SOL    HW2 8958   0.511   4.073   5.869
 2800SOL     OW 8959   0.917   3.823   6.985
 2800SOL    HW1 8960   0.941   3.802   6.894
 2800SOL    HW2 8961   0.997   3.861   7.022
 2801SOL     OW 8962   0.438   0.004   6.842
 2801SOL    HW1 8963   0.495   0.009   6.919
 2801SOL    HW2 8964   0.399   4.417   6.847
 2802SOL     OW 8965   1.267   4.101   6.858
 2802SOL    HW1 8966   1.300   4.178   6.904
 2802SOL    HW2 8967   1.178   4.125   6.832
 2803SOL     OW 8968   0.558   4.255   6.450
 2803SOL    HW1 8969   0.576   4.303   6.369
 2803SOL    HW2 8970   0.621   4.290   6.514
 2804SOL     OW 8971   1.573   4.342   6.061
 2804SOL    HW1 8972   1.540   4.408   6.122
 2804SOL    HW2 8973   1.630   4.391   6.002
 2805SOL     OW 8974   0.996   3.841   7.343
 2805SOL    HW1 8975   1.048   3.915   7.310
 2805SOL    HW2 8976   1.046   3.764   7.317
 2806SOL     OW 8977   0.499   3.769   7.331
 2806SOL    HW1 8978   0.459   3.712   7.266
 2806SOL    HW2 8979   0.437   3.841   7.342
 2807SOL     OW 8980   1.212   4.256   5.853
 2807SOL    HW1 8981   1.221   4.176   5.905
 2807SOL    HW2 8982   1.163   4.315   5.909
 2808SOL     OW 8983   0.301   3.925   6.830
 2808SOL    HW1 8984   0.263   3.953   6.913
 2808SOL    HW2 8985   0.286   3.830   6.828
 2809SOL     OW 8986   0.731   4.360   6.636
 2809SOL    HW1 8987   0.804   4.325   6.584
 2809SOL    HW2 8988   0.734   4.454   6.621
 2810SOL     OW 8989   1.749   0.136   7.443
 2810SOL    HW1 8990   1.689   0.149   7.370
 2810SOL    HW2 8991   1.702   0.168   7.519
 2811SOL     OW 8992   0.308   3.794   6.205
 2811SOL    HW1 8993   0.285   3.882   6.234
 2811SOL    HW2 8994   0.303   3.741   6.284
 2812SOL     OW 8995   1.612   4.091   5.956
 2812SOL    HW1 8996   1.640   4.030   6.024
 2812SOL    HW2 8997   1.590   4.171   6.003
 2813SOL     OW 8998   1.529   3.999   5.713
 2813SOL    HW1 8999   1.467   3.931   5.739
 2813SOL    HW2 9000   1.563   4.034   5.795
 2814SOL     OW 9001   0.318   0.018   6.510
 2814SOL    HW1 9002   0.402   0.065   6.516
 2814SOL    HW2 9003   0.330   4.440   6.564
 2815SOL     OW 9004   0.337   4.237   6.597
 2815SOL    HW1 9005   0.292   4.156   6.573
 2815SOL    HW2 9006   0.410   4.243   6.536
 2816SOL     OW 9007   1.138   4.097   7.269
 2816SOL    HW1 9008   1.088   4.155   7.325
 2816SOL    HW2 9009   1.223   4.139   7.260
 2817SOL     OW 9010   1.160   3.928   7.055
 2817SOL    HW1 9011   1.151   3.989   7.128
 2817SOL    HW2 9012   1.198   3.981   6.984
 2818SOL     OW 9013   0.029   4.280   6.695
 2818SOL    HW1 9014   0.112   4.253   6.656
 2818SOL    HW2 9015   0.032   4.246   6.784
 2819SOL     OW 9016   0.177   4.235   7.283
 2819SOL    HW1 9017   0.262   4.216   7.243
 2819SOL    HW2 9018   0.147   4.315   7.239
 2820SOL     OW 9019   0.819   4.288   5.925
 2820SOL    HW1 9020   0.816   4.209   5.871
 2820SOL    HW2 9021   0.730   4.322   5.923
 2821SOL     OW 9022   1.639   4.319   6.776
 2821SOL    HW1 9023   1.632   4.261   6.851
 2821SOL    HW2 9024   1.726   4.304   6.741
 2822SOL     OW 9025   0.676   4.185   6.847
 2822SOL    HW1 9026   0.639   4.104   6.813
 2822SOL    HW2 9027   0.685   4.242   6.770
 2823SOL     OW 9028   0.486   4.222   5.777
 2823SOL    HW1 9029   0.520   4.309   5.797
 2823SOL    HW2 9030   0.392   4.236   5.764
 2824SOL     OW 9031   1.719   3.866   6.099
 2824SOL    HW1 9032   1.792   3.852   6.039
 2824SOL    HW2 9033   1.703   3.780   6.138
 2825SOL     OW 9034   1.280   0.138   6.265
 2825SOL    HW1 9035   1.338   0.062   6.270
 2825SOL    HW2 9036   1.329   0.203   6.215
 2826SOL     OW 9037   1.839   3.897   6.554
 2826SOL    HW1 9038   1.868   3.810   6.524
 2826SOL    HW2 9039   1.753   3.909   6.514
 2827SOL     OW 9040   0.268   4.042   6.307
 2827SOL    HW1 9041   0.191   4.090   6.277
 2827SOL    HW2 9042   0.255   4.031   6.401
 2828SOL     OW 9043   0.911   0.094   5.813
 2828SOL    HW1 9044   0.993   0.136   5.785
 2828SOL    HW2 9045   0.933   0.050   5.895
 2829SOL     OW 9046   1.067   0.306   6.322
 2829SOL    HW1 9047   0.982   0.286   6.283
 2829SOL    HW2 9048   1.126   0.240   6.286
 2830SOL     OW 9049   1.019   3.964   6.551
 2830SOL    HW1 9050   1.013   3.915   6.469
 2830SOL    HW2 9051   1.014   3.896   6.619
 2831SOL     OW 9052   1.719   4.114   6.966
 2831SOL    HW1 9053   1.790   4.178   6.963
 2831SOL    HW2 9054   1.749   4.043   6.910
 2832SOL     OW 9055   0.672   3.922   7.084
 2832SOL    HW1 9056   0.756   3.903   7.042
 2832SOL    HW2 9057   0.696   3.949   7.173
 2833SOL     OW 9058   0.069   4.046   5.617
 2833SOL    HW1 9059   4.474   4.061   5.610
 2833SOL    HW2 9060   0.108   4.131   5.600
 2834SOL     OW 9061   0.085   3.903   5.894
 2834SOL    HW1 9062   0.076   3.972   5.828
 2834SOL    HW2 9063   0.160   3.851   5.865
 2835SOL     OW 9064   0.723   4.287   7.289
 2835SOL    HW1 9065   0.731   4.336   7.370
 2835SOL    HW2 9066   0.754   4.199   7.311
 2836SOL     OW 9067   1.220   4.044   6.040
 2836SOL    HW1 9068   1.283   3.972   6.032
 2836SOL    HW2 9069   1.248   4.091   6.119
 2837SOL     OW 9070   1.764   4.087   7.233
 2837SOL    HW1 9071   1.745   4.097   7.140
 2837SOL    HW2 9072   1.694   4.029   7.265
 2838SOL     OW 9073   1.109   0.230   5.691
 2838SOL    HW1 9074   1.087   0.269   5.606
 2838SOL    HW2 9075   1.187   0.177   5.673
 2839SOL     OW 9076   1.815   3.910   6.824
 2839SOL    HW1 9077   1.823   3.816   6.840
 2839SOL    HW2 9078   1.823   3.918   6.729
 2840SOL     OW 9079   0.451   4.151   6.123
 2840SOL    HW1 9080   0.461   4.079   6.060
 2840SOL    HW2 9081   0.390   4.118   6.189
 2841SOL     OW 9082   0.322   4.258   6.862
 2841SOL    HW1 9083   0.374   4.192   6.907
 2841SOL    HW2 9084   0.336   4.241   6.769
 2842SOL     OW 9085   1.432   3.947   6.704
 2842SOL    HW1 9086   1.460   3.869   6.752
 2842SOL    HW2 9087   1.380   3.996   6.767
 2843SOL     OW 9088   1.008   3.745   6.732
 2843SOL    HW1 9089   0.953   3.677   6.694
 2843SOL    HW2 9090   1.096   3.707   6.734
 2844SOL     OW 9091   1.352   3.777   5.749
 2844SOL    HW1 9092   1.377   3.719   5.678
 2844SOL    HW2 9093   1.266   3.746   5.777
 2845SOL     OW 9094   1.300   4.177   6.269
 2845SOL    HW1 9095   1.256   4.260   6.283
 2845SOL    HW2 9096   1.300   4.135   6.355
 2846SOL     OW 9097   1.588   3.930   6.463
 2846SOL    HW1 9098   1.523   3.948   6.531
 2846SOL    HW2 9099   1.588   4.009   6.409
 2847SOL     OW 9100   0.234   4.288   7.559
 2847SOL    HW1 9101   0.166   4.324   7.616
 2847SOL    HW2 9102   0.214   4.325   7.472
 2848SOL     OW 9103   0.211   3.998   8.439
 2848SOL    HW1 9104   0.247   3.970   8.524
 2848SOL    HW2 9105   0.135   3.941   8.427
 2849SOL     OW 9106   0.001   4.097   8.080
 2849SOL    HW1 9107   4.423   4.129   8.124
 2849SOL    HW2 9108   4.473   4.016   8.037
 2850SOL     OW 9109   1.735   4.335   7.684
 2850SOL    HW1 9110   1.734   4.320   7.590
 2850SOL    HW2 9111   1.733   4.247   7.722
 2851SOL     OW 9112   0.724   0.264   8.127
 2851SOL    HW1 9113   0.723   0.209   8.205
 2851SOL    HW2 9114   0.632   0.287   8.113
 2852SOL     OW 9115   0.442   4.120   8.937
 2852SOL    HW1 9116   0.523   4.070   8.942
 2852SOL    HW2 9117   0.373   4.055   8.948
 2853SOL     OW 9118   1.615   4.174   8.186
 2853SOL    HW1 9119   1.543   4.200   8.130
 2853SOL    HW2 9120   1.624   4.245   8.249
 2854SOL     OW 9121   1.597   3.845   8.918
 2854SOL    HW1 9122   1.592   3.924   8.864
 2854SOL    HW2 9123   1.585   3.876   9.008
 2855SOL     OW 9124   0.166   4.323   8.080
 2855SOL    HW1 9125   0.106   4.252   8.054
 2855SOL    HW2 9126   0.120   4.403   8.056
 2856SOL     OW 9127   0.116   4.497   9.038
 2856SOL    HW1 9128   0.210   4.482   9.042
 2856SOL    HW2 9129   0.106   0.081   8.993
 2857SOL     OW 9130   0.813   3.723   7.953
 2857SOL    HW1 9131   0.852   3.809   7.939
 2857SOL    HW2 9132   0.719   3.741   7.964
 2858SOL     OW 9133   0.328   3.979   9.244
 2858SOL    HW1 9134   0.377   4.056   9.274
 2858SOL    HW2 9135   0.241   3.990   9.282
 2859SOL     OW 9136   1.278   4.069   8.380
 2859SOL    HW1 9137   1.189   4.036   8.389
 2859SOL    HW2 9138   1.330   4.019   8.443
 2860SOL     OW 9139   0.823   4.309   8.899
 2860SOL    HW1 9140   0.781   4.314   8.985
 2860SOL    HW2 9141   0.757   4.268   8.843
 2861SOL     OW 9142   1.396   4.199   9.124
 2861SOL    HW1 9143   1.395   4.242   9.210
 2861SOL    HW2 9144   1.456   4.125   9.135
 2862SOL     OW 9145   0.996   4.147   8.682
 2862SOL    HW1 9146   0.922   4.167   8.740
 2862SOL    HW2 9147   0.959   4.088   8.616
 2863SOL     OW 9148   1.057   4.410   7.868
 2863SOL    HW1 9149   1.058   4.443   7.958
 2863SOL    HW2 9150   0.968   4.375   7.856
 2864SOL     OW 9151   0.054   0.047   8.290
 2864SOL    HW1 9152   0.147   0.025   8.295
 2864SOL    HW2 9153   0.049   0.112   8.219
 2865SOL     OW 9154   0.885   4.063   7.640
 2865SOL    HW1 9155   0.930   4.125   7.582
 2865SOL    HW2 9156   0.904   3.977   7.602
 2866SOL     OW 9157   1.705   4.298   9.276
 2866SOL    HW1 9158   1.715   4.388   9.243
 2866SOL    HW2 9159   1.729   4.243   9.202
 2867SOL     OW 9160   0.551   3.908   8.340
 2867SOL    HW1 9161   0.553   3.936   8.431
 2867SOL    HW2 9162   0.548   3.989   8.290
 2868SOL     OW 9163   1.488   4.461   8.183
 2868SOL    HW1 9164   1.466   4.407   8.260
 2868SOL    HW2 9165   1.529   0.040   8.220
 2869SOL     OW 9166   0.190   4.000   8.935
 2869SOL    HW1 9167   0.134   4.078   8.942
 2869SOL    HW2 9168   0.186   3.960   9.022
 2870SOL     OW 9169   1.401   3.832   7.878
 2870SOL    HW1 9170   1.389   3.806   7.786
 2870SOL    HW2 9171   1.495   3.840   7.889
 2871SOL     OW 9172   0.352   4.378   7.857
 2871SOL    HW1 9173   0.399   4.306   7.900
 2871SOL    HW2 9174   0.297   4.415   7.926
 2872SOL     OW 9175   1.538   3.950   9.173
 2872SOL    HW1 9176   1.545   3.972   9.266
 2872SOL    HW2 9177   1.471   3.882   9.170
 2873SOL     OW 9178   0.630   3.852   7.552
 2873SOL    HW1 9179   0.703   3.791   7.567
 2873SOL    HW2 9180   0.585   3.816   7.476
 2874SOL     OW 9181   0.768   4.001   9.201
 2874SOL    HW1 9182   0.841   3.939   9.207
 2874SOL    HW2 9183   0.717   3.984   9.280
 2875SOL     OW 9184   1.346   4.311   8.876
 2875SOL    HW1 9185   1.368   4.274   8.962
 2875SOL    HW2 9186   1.382   4.399   8.878
 2876SOL     OW 9187   0.922   4.236   8.348
 2876SOL    HW1 9188   0.900   4.220   8.256
 2876SOL    HW2 9189   0.961   4.155   8.378
 2877SOL     OW 9190   0.550   3.786   7.953
 2877SOL    HW1 9191   0.469   3.785   8.004
 2877SOL    HW2 9192   0.543   3.865   7.899
 2878SOL     OW 9193   0.294   3.769   7.626
 2878SOL    HW1 9194   0.355   3.838   7.598
 2878SOL    HW2 9195   0.349   3.704   7.670
 2879SOL     OW 9196   0.935   3.970   7.913
 2879SOL    HW1 9197   0.907   4.009   7.831
 2879SOL    HW2 9198   1.030   3.980   7.913
 2880SOL     OW 9199   1.078   4.396   8.959
 2880SOL    HW1 9200   0.994   4.364   8.925
 2880SOL    HW2 9201   1.143   4.352   8.904
 2881SOL     OW 9202   1.026   4.269   7.471
 2881SOL    HW1 9203   1.005   4.357   7.438
 2881SOL    HW2 9204   1.088   4.284   7.542
 2882SOL     OW 9205   0.086   4.260   8.858
 2882SOL    HW1 9206   0.158   4.273   8.796
 2882SOL    HW2 9207   0.055   4.348   8.877
 2883SOL     OW 9208   0.562   3.950   8.612
 2883SOL    HW1 9209   0.600   3.869   8.645
 2883SOL    HW2 9210   0.471   3.947   8.640
 2884SOL     OW 9211   0.872   4.189   8.086
 2884SOL    HW1 9212   0.832   4.246   8.021
 2884SOL    HW2 9213   0.888   4.107   8.040
 2885SOL     OW 9214   1.014   3.777   8.201
 2885SOL    HW1 9215   0.955   3.768   8.126
 2885SOL    HW2 9216   0.994   3.701   8.256
 2886SOL     OW 9217   1.477   4.312   8.418
 2886SOL    HW1 9218   1.422   4.236   8.438
 2886SOL    HW2 9219   1.529   4.326   8.497
 2887SOL     OW 9220   1.400   4.296   7.520
 2887SOL    HW1 9221   1.339   4.270   7.589
 2887SOL    HW2 9222   1.483   4.255   7.546
 2888SOL     OW 9223   0.523   3.984   7.767
 2888SOL    HW1 9224   0.565   3.936   7.696
 2888SOL    HW2 9225   0.511   4.073   7.731
 2889SOL     OW 9226   0.917   3.823   8.847
 2889SOL    HW1 9227   0.941   3.802   8.756
 2889SOL    HW2 9228   0.997   3.861   8.884
 2890SOL     OW 9229   0.438   0.004   8.704
 2890SOL    HW1 9230   0.495   0.009   8.781
 2890SOL    HW2 9231   0.399   4.417   8.709
 2891SOL     OW 9232   1.267   4.101   8.720
 2891SOL    HW1 9233   1.300   4.178   8.766
 2891SOL    HW2 9234   1.178   4.125   8.694
 2892SOL     OW 9235   0.558   4.255   8.312
 2892SOL    HW1 9236   0.576   4.303   8.231
 2892SOL    HW2 9237   0.621   4.290   8.375
 2893SOL     OW 9238   1.573   4.342   7.923
 2893SOL    HW1 9239   1.540   4.408   7.984
 2893SOL    HW2 9240   1.630   4.391   7.864
 2894SOL     OW 9241   0.996   3.841   9.205
 2894SOL    HW1 9242   1.048   3.915   9.172
 2894SOL    HW2 9243   1.046   3.764   9.179
 2895SOL     OW 9244   0.499   3.768   9.193
 2895SOL    HW1 9245   0.458   3.712   9.128
 2895SOL    HW2 9246   0.437   3.841   9.204
 2896SOL     OW 9247   1.212   4.256   7.715
 2896SOL    HW1 9248   1.221   4.176   7.767
 2896SOL    HW2 9249   1.163   4.315   7.771
 2897SOL     OW 9250   0.301   3.925   8.692
 2897SOL    HW1 9251   0.263   3.953   8.775
 2897SOL    HW2 9252   0.286   3.830   8.690
 2898SOL     OW 9253   0.732   4.360   8.498
 2898SOL    HW1 9254   0.804   4.325   8.446
 2898SOL    HW2 9255   0.734   4.454   8.483
 2899SOL     OW 9256   1.749   0.136   9.305
 2899SOL    HW1 9257   1.689   0.149   9.232
 2899SOL    HW2 9258   1.702   0.168   9.381
 2900SOL     OW 9259   0.308   3.794   8.067
 2900SOL    HW1 9260   0.285   3.882   8.096
 2900SOL    HW2 9261   0.303   3.741   8.146
 2901SOL     OW 9262   1.612   4.091   7.818
 2901SOL    HW1 9263   1.640   4.030   7.886
 2901SOL    HW2 9264   1.590   4.171   7.865
 2902SOL     OW 9265   1.529   3.999   7.575
 2902SOL    HW1 9266   1.467   3.931   7.601
 2902SOL    HW2 9267   1.563   4.034   7.657
 2903SOL     OW 9268   0.318   0.018   8.372
 2903SOL    HW1 9269   0.402   0.065   8.378
 2903SOL    HW2 9270   0.331   4.440   8.425
 2904SOL     OW 9271   0.337   4.237   8.459
 2904SOL    HW1 9272   0.292   4.156   8.435
 2904SOL    HW2 9273   0.410   4.243   8.398
 2905SOL     OW 9274   1.138   4.097   9.131
 2905SOL    HW1 9275   1.087   4.155   9.187
 2905SOL    HW2 9276   1.223   4.139   9.122
 2906SOL     OW 9277   1.160   3.928   8.917
 2906SOL    HW1 9278   1.151   3.989   8.990
 2906SOL    HW2 9279   1.198   3.980   8.846
 2907SOL     OW 9280   0.029   4.280   8.557
 2907SOL    HW1 9281   0.112   4.254   8.518
 2907SOL    HW2 9282   0.032   4.246   8.646
 2908SOL     OW 9283   0.177   4.235   9.145
 2908SOL    HW1 9284   0.262   4.216   9.105
 2908SOL    HW2 9285   0.147   4.315   9.101
 2909SOL     OW 9286   0.819   4.288   7.787
 2909SOL    HW1 9287   0.817   4.209   7.733
 2909SOL    HW2 9288   0.730   4.322   7.785
 2910SOL     OW 9289   1.639   4.320   8.638
 2910SOL    HW1 9290   1.632   4.260   8.713
 2910SOL    HW2 9291   1.726   4.304   8.603
 2911SOL     OW 9292   0.676   4.185   8.709
 2911SOL    HW1 9293   0.639   4.104   8.675
 2911SOL    HW2 9294   0.685   4.242   8.632
 2912SOL     OW 9295   0.486   4.222   7.639
 2912SOL    HW1 9296   0.520   4.309   7.659
 2912SOL    HW2 9297   0.392   4.236   7.626
 2913SOL     OW 9298   1.719   3.866   7.961
 2913SOL    HW1 9299   1.792   3.852   7.901
 2913SOL    HW2 9300   1.703   3.780   8.000
 2914SOL     OW 9301   1.280   0.138   8.127
 2914SOL    HW1 9302   1.338   0.062   8.132
 2914SOL    HW2 9303   1.329   0.203   8.077
 2915SOL     OW 9304   1.839   3.897   8.416
 2915SOL    HW1 9305   1.868   3.811   8.386
 2915SOL    HW2 9306   1.753   3.909   8.376
 2916SOL     OW 9307   0.268   4.042   8.169
 2916SOL    HW1 9308   0.191   4.090   8.139
 2916SOL    HW2 9309   0.255   4.031   8.263
 2917SOL     OW 9310   0.911   0.094   7.675
 2917SOL    HW1 9311   0.993   0.136   7.647
 2917SOL    HW2 9312   0.933   0.050   7.757
 2918SOL     OW 9313   1.067   0.306   8.184
 2918SOL    HW1 9314   0.982   0.286   8.145
 2918SOL    HW2 9315   1.126   0.240   8.148
 2919SOL     OW 9316   1.019   3.964   8.413
 2919SOL    HW1 9317   1.013   3.915   8.331
 2919SOL    HW2 9318   1.014   3.896   8.481
 2920SOL     OW 9319   1.719   4.114   8.828
 2920SOL    HW1 9320   1.790   4.178   8.825
 2920SOL    HW2 9321   1.749   4.043   8.772
 2921SOL     OW 9322   0.672   3.922   8.946
 2921SOL    HW1 9323   0.756   3.903   8.904
 2921SOL    HW2 9324   0.696   3.949   9.035
 2922SOL     OW 9325   0.069   4.046   7.479
 2922SOL    HW1 9326   4.474   4.061   7.472
 2922SOL    HW2 9327   0.108   4.131   7.462
 2923SOL     OW 9328   0.084   3.903   7.756
 2923SOL    HW1 9329   0.076   3.972   7.690
 2923SOL    HW2 9330   0.160   3.851   7.727
 2924SOL     OW 9331   0.723   4.287   9.151
 2924SOL    HW1 9332   0.731   4.336   9.232
 2924SOL    HW2 9333   0.755   4.199   9.173
 2925SOL     OW 9334   1.220   4.044   7.903
 2925SOL    HW1 9335   1.283   3.972   7.893
 2925SOL    HW2 9336   1.248   4.091   7.981
 2926SOL     OW 9337   1.764   4.087   9.095
 2926SOL    HW1 9338   1.745   4.097   9.002
 2926SOL    HW2 9339   1.694   4.029   9.127
 2927SOL     OW 9340   1.109   0.230   7.553
 2927SOL    HW1 9341   1.087   0.269   7.468
 2927SOL    HW2 9342   1.187   0.177   7.535
 2928SOL     OW 9343   1.815   3.910   8.686
 2928SOL    HW1 9344   1.824   3.816   8.702
 2928SOL    HW2 9345   1.823   3.918   8.591
 2929SOL     OW 9346   0.451   4.151   7.985
 2929SOL    HW1 9347   0.461   4.079   7.922
 2929SOL    HW2 9348   0.390   4.118   8.051
 2930SOL     OW 9349   0.322   4.258   8.724
 2930SOL    HW1 9350   0.374   4.192   8.769
 2930SOL    HW2 9351   0.336   4.241   8.631
 2931SOL     OW 9352   1.432   3.947   8.566
 2931SOL    HW1 9353   1.461   3.869   8.614
 2931SOL    HW2 9354   1.380   3.996   8.629
 2932SOL     OW 9355   1.008   3.745   8.594
 2932SOL    HW1 9356   0.953   3.677   8.556
 2932SOL    HW2 9357   1.096   3.707   8.596
 2933SOL     OW 9358   1.352   3.777   7.611
 2933SOL    HW1 9359   1.378   3.718   7.541
 2933SOL    HW2 9360   1.266   3.746   7.639
 2934SOL     OW 9361   1.300   4.177   8.131
 2934SOL    HW1 9362   1.256   4.260   8.145
 2934SOL    HW2 9363   1.300   4.135   8.217
 2935SOL     OW 9364   1.588   3.930   8.325
 2935SOL    HW1 9365   1.523   3.948   8.393
 2935SOL    HW2 9366   1.588   4.009   8.271
 2936SOL     OW 9367   0.233   4.287   9.421
 2936SOL    HW1 9368   0.166   4.324   9.478
 2936SOL    HW2 9369   0.214   4.325   9.334
 2937SOL     OW 9370   0.213   3.998  10.301
 2937SOL    HW1 9371   0.248   3.972  10.386
 2937SOL    HW2 9372   0.135   3.943  10.290
 2938SOL     OW 9373   0.001   4.097   9.942
 2938SOL    HW1 9374   4.423   4.129   9.987
 2938SOL    HW2 9375   4.473   4.016   9.899
 2939SOL     OW 9376   1.735   4.335   9.546
 2939SOL    HW1 9377   1.734   4.320   9.452
 2939SOL    HW2 9378   1.733   4.247   9.584
 2940SOL     OW 9379   0.724   0.264   9.989
 2940SOL    HW1 9380   0.723   0.209  10.067
 2940SOL    HW2 9381   0.632   0.287   9.975
 2941SOL     OW 9382   0.445   4.124  10.794
 2941SOL    HW1 9383   0.523   4.069  10.802
 2941SOL    HW2 9384   0.372   4.066  10.815
 2942SOL     OW 9385   1.615   4.174  10.048
 2942SOL    HW1 9386   1.543   4.200   9.992
 2942SOL    HW2 9387   1.624   4.245  10.111
 2943SOL     OW 9388   1.590   3.839  10.780
 2943SOL    HW1 9389   1.595   3.919  10.728
 2943SOL    HW2 9390   1.588   3.870  10.871
 2944SOL     OW 9391   0.166   4.323   9.941
 2944SOL    HW1 9392   0.106   4.252   9.916
 2944SOL    HW2 9393   0.120   4.403   9.919
 2945SOL     OW 9394   0.100   4.483  10.937
 2945SOL    HW1 9395   0.194   4.470  10.948
 2945SOL    HW2 9396   0.092   0.065  10.888
 2946SOL     OW 9397   0.812   3.723   9.815
 2946SOL    HW1 9398   0.852   3.808   9.801
 2946SOL    HW2 9399   0.719   3.741   9.826
 2947SOL     OW 9400   0.338   3.984   0.007
 2947SOL    HW1 9401   0.384   4.064   0.034
 2947SOL    HW2 9402   0.246   4.005   0.019
 2948SOL     OW 9403   1.278   4.070  10.242
 2948SOL    HW1 9404   1.189   4.036  10.251
 2948SOL    HW2 9405   1.330   4.018  10.305
 2949SOL     OW 9406   0.822   4.304  10.765
 2949SOL    HW1 9407   0.776   4.316  10.848
 2949SOL    HW2 9408   0.757   4.266  10.707
 2950SOL     OW 9409   0.995   4.146  10.546
 2950SOL    HW1 9410   0.920   4.167  10.601
 2950SOL    HW2 9411   0.960   4.089  10.477
 2951SOL     OW 9412   1.057   4.410   9.731
 2951SOL    HW1 9413   1.058   4.443   9.820
 2951SOL    HW2 9414   0.968   4.375   9.718
 2952SOL     OW 9415   0.054   0.047  10.151
 2952SOL    HW1 9416   0.146   0.024  10.158
 2952SOL    HW2 9417   0.050   0.113  10.082
 2953SOL     OW 9418   0.885   4.063   9.501
 2953SOL    HW1 9419   0.930   4.125   9.444
 2953SOL    HW2 9420   0.905   3.977   9.464
 2954SOL     OW 9421   0.552   3.908  10.202
 2954SOL    HW1 9422   0.553   3.935  10.294
 2954SOL    HW2 9423   0.549   3.989  10.152
 2955SOL     OW 9424   1.488   4.461  10.045
 2955SOL    HW1 9425   1.466   4.408  10.122
 2955SOL    HW2 9426   1.529   0.040  10.082
 2956SOL     OW 9427   0.192   4.001  10.798
 2956SOL    HW1 9428   0.138   4.080  10.805
 2956SOL    HW2 9429   0.188   3.962  10.885
 2957SOL     OW 9430   1.401   3.831   9.740
 2957SOL    HW1 9431   1.389   3.806   9.648
 2957SOL    HW2 9432   1.495   3.840   9.751
 2958SOL     OW 9433   0.352   4.378   9.719
 2958SOL    HW1 9434   0.399   4.306   9.762
 2958SOL    HW2 9435   0.297   4.415   9.788
 2959SOL     OW 9436   0.630   3.851   9.414
 2959SOL    HW1 9437   0.703   3.791   9.429
 2959SOL    HW2 9438   0.585   3.816   9.338
 2960SOL     OW 9439   0.771   3.997  11.045
 2960SOL    HW1 9440   0.836   3.939  11.084
 2960SOL    HW2 9441   0.709   4.015   0.016
 2961SOL     OW 9442   1.352   4.308  10.744
 2961SOL    HW1 9443   1.376   4.285  10.834
 2961SOL    HW2 9444   1.375   4.400  10.735
 2962SOL     OW 9445   0.922   4.236  10.209
 2962SOL    HW1 9446   0.900   4.220  10.118
 2962SOL    HW2 9447   0.961   4.154  10.239
 2963SOL     OW 9448   0.550   3.786   9.815
 2963SOL    HW1 9449   0.469   3.785   9.866
 2963SOL    HW2 9450   0.543   3.865   9.761
 2964SOL     OW 9451   0.294   3.769   9.488
 2964SOL    HW1 9452   0.355   3.838   9.460
 2964SOL    HW2 9453   0.349   3.704   9.532
 2965SOL     OW 9454   0.935   3.969   9.775
 2965SOL    HW1 9455   0.907   4.009   9.693
 2965SOL    HW2 9456   1.030   3.980   9.775
 2966SOL     OW 9457   1.080   4.390  10.809
 2966SOL    HW1 9458   0.994   4.362  10.779
 2966SOL    HW2 9459   1.142   4.342  10.755
 2967SOL     OW 9460   1.026   4.269   9.333
 2967SOL    HW1 9461   1.005   4.357   9.300
 2967SOL    HW2 9462   1.088   4.284   9.404
 2968SOL     OW 9463   0.080   4.257  10.718
 2968SOL    HW1 9464   0.154   4.265  10.659
 2968SOL    HW2 9465   0.054   4.348  10.737
 2969SOL     OW 9466   0.562   3.950  10.474
 2969SOL    HW1 9467   0.600   3.869  10.507
 2969SOL    HW2 9468   0.470   3.947  10.502
 2970SOL     OW 9469   0.873   4.189   9.948
 2970SOL    HW1 9470   0.831   4.246   9.883
 2970SOL    HW2 9471   0.888   4.107   9.901
 2971SOL     OW 9472   1.014   3.777  10.064
 2971SOL    HW1 9473   0.955   3.768   9.988
 2971SOL    HW2 9474   0.994   3.701  10.118
 2972SOL     OW 9475   1.477   4.312  10.280
 2972SOL    HW1 9476   1.423   4.236  10.299
 2972SOL    HW2 9477   1.529   4.326  10.359
 2973SOL     OW 9478   1.400   4.296   9.382
 2973SOL    HW1 9479   1.339   4.270   9.451
 2973SOL    HW2 9480   1.483   4.256   9.408
 2974SOL     OW 9481   0.523   3.984   9.629
 2974SOL    HW1 9482   0.565   3.936   9.558
 2974SOL    HW2 9483   0.511   4.073   9.594
 2975SOL     OW 9484   0.918   3.823  10.709
 2975SOL    HW1 9485   0.941   3.802  10.618
 2975SOL    HW2 9486   0.996   3.863  10.746
 2976SOL     OW 9487   0.446   4.499  10.554
 2976SOL    HW1 9488   0.498   0.015  10.633
 2976SOL    HW2 9489   0.387   4.427  10.578
 2977SOL     OW 9490   1.267   4.101  10.584
 2977SOL    HW1 9491   1.301   4.178  10.628
 2977SOL    HW2 9492   1.179   4.126  10.556
 2978SOL     OW 9493   0.562   4.253  10.172
 2978SOL    HW1 9494   0.578   4.305  10.093
 2978SOL    HW2 9495   0.621   4.289  10.237
 2979SOL     OW 9496   1.573   4.342   9.785
 2979SOL    HW1 9497   1.540   4.408   9.847
 2979SOL    HW2 9498   1.630   4.391   9.726
 2980SOL     OW 9499   0.484   4.499  10.993
 2980SOL    HW1 9500   0.476   0.045  10.909
 2980SOL    HW2 9501   0.480   4.406  10.969
 2981SOL     OW 9502   1.212   4.256   9.577
 2981SOL    HW1 9503   1.221   4.176   9.629
 2981SOL    HW2 9504   1.163   4.315   9.633
 2982SOL     OW 9505   0.302   3.922  10.552
 2982SOL    HW1 9506   0.265   3.954  10.635
 2982SOL    HW2 9507   0.285   3.828  10.553
 2983SOL     OW 9508   0.732   4.359  10.360
 2983SOL    HW1 9509   0.804   4.326  10.307
 2983SOL    HW2 9510   0.733   4.454  10.345
 2984SOL     OW 9511   0.307   3.794   9.929
 2984SOL    HW1 9512   0.286   3.882   9.958
 2984SOL    HW2 9513   0.302   3.741  10.009
 2985SOL     OW 9514   1.612   4.091   9.680
 2985SOL    HW1 9515   1.640   4.030   9.748
 2985SOL    HW2 9516   1.590   4.171   9.727
 2986SOL     OW 9517   1.529   3.999   9.437
 2986SOL    HW1 9518   1.467   3.931   9.463
 2986SOL    HW2 9519   1.563   4.034   9.519
 2987SOL     OW 9520   0.318   0.019  10.234
 2987SOL    HW1 9521   0.401   0.065  10.242
 2987SOL    HW2 9522   0.330   4.439  10.286
 2988SOL     OW 9523   0.337   4.239  10.313
 2988SOL    HW1 9524   0.292   4.157  10.291
 2988SOL    HW2 9525   0.411   4.242  10.252
 2989SOL     OW 9526   1.157   3.933  10.781
 2989SOL    HW1 9527   1.165   3.992  10.856
 2989SOL    HW2 9528   1.196   3.982  10.708
 2990SOL     OW 9529   0.028   4.277  10.417
 2990SOL    HW1 9530   0.113   4.255  10.380
 2990SOL    HW2 9531   0.033   4.248  10.508
 2991SOL     OW 9532   1.356   0.182  10.988
 2991SOL    HW1 9533   1.413   0.258  10.999
 2991SOL    HW2 9534   1.369   0.155  10.898
 2992SOL     OW 9535   0.819   4.288   9.649
 2992SOL    HW1 9536   0.816   4.209   9.595
 2992SOL    HW2 9537   0.730   4.322   9.647
 2993SOL     OW 9538   1.639   4.319  10.499
 2993SOL    HW1 9539   1.633   4.260  10.574
 2993SOL    HW2 9540   1.726   4.305  10.464
 2994SOL     OW 9541   0.680   4.184  10.570
 2994SOL    HW1 9542   0.639   4.104  10.537
 2994SOL    HW2 9543   0.685   4.242  10.495
 2995SOL     OW 9544   0.486   4.222   9.501
 2995SOL    HW1 9545   0.520   4.309   9.521
 2995SOL    HW2 9546   0.392   4.236   9.488
 2996SOL     OW 9547   1.719   3.866   9.823
 2996SOL    HW1 9548   1.792   3.852   9.763
 2996SOL    HW2 9549   1.703   3.780   9.862
 2997SOL     OW 9550   1.280   0.138   9.989
 2997SOL    HW1 9551   1.338   0.062   9.994
 2997SOL    HW2 9552   1.330   0.203   9.939
 2998SOL     OW 9553   1.839   3.897  10.278
 2998SOL    HW1 9554   1.868   3.811  10.248
 2998SOL    HW2 9555   1.753   3.909  10.238
 2999SOL     OW 9556   0.269   4.042  10.030
 2999SOL    HW1 9557   0.191   4.090  10.001
 2999SOL    HW2 9558   0.256   4.031  10.125
 3000SOL     OW 9559   0.911   0.094   9.537
 3000SOL    HW1 9560   0.993   0.136   9.509
 3000SOL    HW2 9561   0.933   0.050   9.619
 3001SOL     OW 9562   1.067   0.306  10.046
 3001SOL    HW1 9563   0.982   0.286  10.007
 3001SOL    HW2 9564   1.126   0.240  10.010
 3002SOL     OW 9565   1.019   3.964  10.275
 3002SOL    HW1 9566   1.013   3.916  10.193
 3002SOL    HW2 9567   1.014   3.896  10.343
 3003SOL     OW 9568   1.716   4.116  10.689
 3003SOL    HW1 9569   1.788   4.180  10.689
 3003SOL    HW2 9570   1.746   4.045  10.633
 3004SOL     OW 9571   0.672   3.920  10.804
 3004SOL    HW1 9572   0.754   3.900  10.758
 3004SOL    HW2 9573   0.700   3.953  10.890
 3005SOL     OW 9574   0.068   4.046   9.341
 3005SOL    HW1 9575   4.474   4.061   9.334
 3005SOL    HW2 9576   0.108   4.131   9.324
 3006SOL     OW 9577   0.084   3.903   9.618
 3006SOL    HW1 9578   0.076   3.972   9.552
 3006SOL    HW2 9579   0.159   3.851   9.589
 3007SOL     OW 9580   0.718   4.290  11.022
 3007SOL    HW1 9581   0.748   4.344  11.095
 3007SOL    HW2 9582   0.769   4.209  11.031
 3008SOL     OW 9583   1.220   4.044   9.765
 3008SOL    HW1 9584   1.283   3.972   9.756
 3008SOL    HW2 9585   1.248   4.091   9.843
 3009SOL     OW 9586   1.756   4.052  10.951
 3009SOL    HW1 9587   1.735   4.082  10.863
 3009SOL    HW2 9588   1.672   4.053  10.998
 3010SOL     OW 9589   1.109   0.230   9.415
 3010SOL    HW1 9590   1.087   0.269   9.330
 3010SOL    HW2 9591   1.187   0.177   9.397
 3011SOL     OW 9592   1.811   3.909  10.548
 3011SOL    HW1 9593   1.824   3.816  10.564
 3011SOL    HW2 9594   1.822   3.919  10.453
 3012SOL     OW 9595   0.451   4.151   9.846
 3012SOL    HW1 9596   0.461   4.078   9.784
 3012SOL    HW2 9597   0.390   4.118   9.913
 3013SOL     OW 9598   0.313   4.236  10.576
 3013SOL    HW1 9599   0.374   4.178  10.621
 3013SOL    HW2 9600   0.338   4.230  10.484
 3014SOL     OW 9601   1.431   3.947  10.428
 3014SOL    HW1 9602   1.463   3.870  10.475
 3014SOL    HW2 9603   1.380   3.995  10.492
 3015SOL     OW 9604   1.008   3.745  10.456
 3015SOL    HW1 9605   0.953   3.677  10.418
 3015SOL    HW2 9606   1.096   3.707  10.458
 3016SOL     OW 9607   1.352   3.777   9.473
 3016SOL    HW1 9608   1.378   3.718   9.403
 3016SOL    HW2 9609   1.266   3.746   9.501
 3017SOL     OW 9610   1.299   4.177   9.993
 3017SOL    HW1 9611   1.256   4.260  10.007
 3017SOL    HW2 9612   1.300   4.135  10.079
 3018SOL     OW 9613   1.587   3.930  10.187
 3018SOL    HW1 9614   1.523   3.948  10.255
 3018SOL    HW2 9615   1.588   4.009  10.133
 3019SOL     OW 9616   2.090   0.619   0.121
 3019SOL    HW1 9617   2.002   0.621   0.158
 3019SOL    HW2 9618   2.077   0.626   0.026
 3020SOL     OW 9619   2.072   0.295   0.988
 3020SOL    HW1 9620   2.103   0.269   1.075
 3020SOL    HW2 9621   1.990   0.248   0.977
 3021SOL     OW 9622   1.870   0.383   0.639
 3021SOL    HW1 9623   1.785   0.404   0.676
 3021SOL    HW2 9624   1.854   0.307   0.583
 3022SOL     OW 9625   2.429   1.282   1.171
 3022SOL    HW1 9626   2.341   1.284   1.135
 3022SOL    HW2 9627   2.442   1.370   1.206
 3023SOL     OW 9628   3.419   1.511   0.705
 3023SOL    HW1 9629   3.375   1.493   0.788
 3023SOL    HW2 9630   3.348   1.516   0.641
 3024SOL     OW 9631   2.993   0.700   0.702
 3024SOL    HW1 9632   3.042   0.782   0.691
 3024SOL    HW2 9633   2.944   0.713   0.783
 3025SOL     OW 9634   3.635   0.604   0.221
 3025SOL    HW1 9635   3.588   0.600   0.138
 3025SOL    HW2 9636   3.596   0.534   0.273
 3026SOL     OW 9637   2.622   1.145   1.037
 3026SOL    HW1 9638   2.551   1.177   1.093
 3026SOL    HW2 9639   2.655   1.223   0.992
 3027SOL     OW 9640   2.724   0.781   1.821
 3027SOL    HW1 9641   2.712   0.853   1.884
 3027SOL    HW2 9642   2.747   0.824   1.739
 3028SOL     OW 9643   2.549   1.008   0.648
 3028SOL    HW1 9644   2.612   0.992   0.718
 3028SOL    HW2 9645   2.478   1.056   0.691
 3029SOL     OW 9646   2.569   1.152   1.808
 3029SOL    HW1 9647   2.617   1.231   1.833
 3029SOL    HW2 9648   2.485   1.184   1.776
 3030SOL     OW 9649   2.193   1.429   1.069
 3030SOL    HW1 9650   2.120   1.392   1.018
 3030SOL    HW2 9651   2.244   1.478   1.005
 3031SOL     OW 9652   3.324   1.498   1.350
 3031SOL    HW1 9653   3.367   1.583   1.361
 3031SOL    HW2 9654   3.270   1.488   1.428
 3032SOL     OW 9655   2.303   0.396   1.492
 3032SOL    HW1 9656   2.384   0.346   1.494
 3032SOL    HW2 9657   2.234   0.331   1.504
 3033SOL     OW 9658   3.475   0.449   0.737
 3033SOL    HW1 9659   3.393   0.472   0.693
 3033SOL    HW2 9660   3.496   0.525   0.791
 3034SOL     OW 9661   2.080   1.710   0.473
 3034SOL    HW1 9662   2.106   1.785   0.527
 3034SOL    HW2 9663   2.149   1.704   0.406
 3035SOL     OW 9664   2.998   1.341   1.691
 3035SOL    HW1 9665   3.037   1.338   1.778
 3035SOL    HW2 9666   2.945   1.261   1.686
 3036SOL     OW 9667   2.091   1.439   0.535
 3036SOL    HW1 9668   2.073   1.533   0.538
 3036SOL    HW2 9669   2.028   1.400   0.595
 3037SOL     OW 9670   2.116   1.090   0.890
 3037SOL    HW1 9671   2.113   1.004   0.933
 3037SOL    HW2 9672   2.058   1.145   0.943
 3038SOL     OW 9673   2.476   1.789   1.428
 3038SOL    HW1 9674   2.394   1.772   1.474
 3038SOL    HW2 9675   2.501   1.878   1.455
 3039SOL     OW 9676   2.449   0.984   0.138
 3039SOL    HW1 9677   2.485   1.043   0.071
 3039SOL    HW2 9678   2.493   1.009   0.219
 3040SOL     OW 9679   3.448   0.114   1.475
 3040SOL    HW1 9680   3.458   0.182   1.408
 3040SOL    HW2 9681   3.437   0.162   1.557
 3041SOL     OW 9682   1.977   0.650   0.559
 3041SOL    HW1 9683   1.947   0.562   0.581
 3041SOL    HW2 9684   1.968   0.699   0.641
 3042SOL     OW 9685   3.703   1.761   0.337
 3042SOL    HW1 9686   3.762   1.730   0.406
 3042SOL    HW2 9687   3.732   1.850   0.318
 3043SOL     OW 9688   1.905   1.602   0.121
 3043SOL    HW1 9689   1.877   1.513   0.141
 3043SOL    HW2 9690   1.875   1.655   0.195
 3044SOL     OW 9691   3.552   0.919   0.638
 3044SOL    HW1 9692   3.638   0.881   0.620
 3044SOL    HW2 9693   3.532   0.970   0.559
 3045SOL     OW 9694   3.507   1.107   0.432
 3045SOL    HW1 9695   3.589   1.120   0.384
 3045SOL    HW2 9696   3.512   1.168   0.505
 3046SOL     OW 9697   1.983   0.743   1.586
 3046SOL    HW1 9698   2.075   0.765   1.602
 3046SOL    HW2 9699   1.937   0.826   1.593
 3047SOL     OW 9700   2.475   1.382   0.735
 3047SOL    HW1 9701   2.429   1.298   0.744
 3047SOL    HW2 9702   2.458   1.409   0.644
 3048SOL     OW 9703   3.153   1.239   1.424
 3048SOL    HW1 9704   3.185   1.171   1.365
 3048SOL    HW2 9705   3.208   1.231   1.502
 3049SOL     OW 9706   2.677   0.009   0.547
 3049SOL    HW1 9707   2.715   0.088   0.508
 3049SOL    HW2 9708   2.583   0.021   0.540
 3050SOL     OW 9709   2.054   0.969   1.269
 3050SOL    HW1 9710   2.138   0.925   1.253
 3050SOL    HW2 9711   1.989   0.912   1.227
 3051SOL     OW 9712   3.384   0.997   0.200
 3051SOL    HW1 9713   3.319   0.935   0.233
 3051SOL    HW2 9714   3.430   1.027   0.278
 3052SOL     OW 9715   3.047   1.803   1.620
 3052SOL    HW1 9716   3.063   1.860   1.544
 3052SOL    HW2 9717   3.062   1.715   1.587
 3053SOL     OW 9718   2.177   0.255   1.782
 3053SOL    HW1 9719   2.241   0.319   1.814
 3053SOL    HW2 9720   2.103   0.264   1.841
 3054SOL     OW 9721   3.327   1.420   0.953
 3054SOL    HW1 9722   3.259   1.433   1.019
 3054SOL    HW2 9723   3.316   1.329   0.925
 3055SOL     OW 9724   3.522   1.733   0.579
 3055SOL    HW1 9725   3.501   1.706   0.490
 3055SOL    HW2 9726   3.497   1.659   0.634
 3056SOL     OW 9727   2.455   0.721   0.262
 3056SOL    HW1 9728   2.466   0.801   0.212
 3056SOL    HW2 9729   2.391   0.743   0.330
 3057SOL     OW 9730   3.150   0.356   0.935
 3057SOL    HW1 9731   3.060   0.324   0.924
 3057SOL    HW2 9732   3.190   0.296   0.996
 3058SOL     OW 9733   3.444   1.669   0.311
 3058SOL    HW1 9734   3.533   1.702   0.305
 3058SOL    HW2 9735   3.419   1.650   0.220
 3059SOL     OW 9736   2.658   0.617   1.455
 3059SOL    HW1 9737   2.629   0.594   1.543
 3059SOL    HW2 9738   2.615   0.553   1.398
 3060SOL     OW 9739   3.251   0.478   1.676
 3060SOL    HW1 9740   3.253   0.521   1.761
 3060SOL    HW2 9741   3.318   0.409   1.683
 3061SOL     OW 9742   2.821   0.889   1.581
 3061SOL    HW1 9743   2.874   0.817   1.547
 3061SOL    HW2 9744   2.773   0.921   1.504
 3062SOL     OW 9745   2.857   0.417   1.239
 3062SOL    HW1 9746   2.773   0.432   1.281
 3062SOL    HW2 9747   2.835   0.366   1.160
 3063SOL     OW 9748   2.910   0.701   0.428
 3063SOL    HW1 9749   2.926   0.692   0.522
 3063SOL    HW2 9750   2.829   0.652   0.413
 3064SOL     OW 9751   1.952   0.820   0.775
 3064SOL    HW1 9752   2.033   0.813   0.825
 3064SOL    HW2 9753   1.908   0.897   0.811
 3065SOL     OW 9754   1.988   1.813   1.573
 3065SOL    HW1 9755   1.977   1.810   1.668
 3065SOL    HW2 9756   1.922   1.876   1.543
 3066SOL     OW 9757   2.736   0.357   0.197
 3066SOL    HW1 9758   2.794   0.411   0.144
 3066SOL    HW2 9759   2.769   0.268   0.187
 3067SOL     OW 9760   3.569   0.576   1.828
 3067SOL    HW1 9761   3.534   0.653   1.784
 3067SOL    HW2 9762   3.600   0.520   1.757
 3068SOL     OW 9763   3.237   1.142   0.542
 3068SOL    HW1 9764   3.315   1.127   0.489
 3068SOL    HW2 9765   3.185   1.205   0.491
 3069SOL     OW 9766   2.403   0.202   0.900
 3069SOL    HW1 9767   2.422   0.218   0.992
 3069SOL    HW2 9768   2.395   0.289   0.861
 3070SOL     OW 9769   2.871   1.446   0.475
 3070SOL    HW1 9770   2.829   1.517   0.426
 3070SOL    HW2 9771   2.857   1.468   0.567
 3071SOL     OW 9772   2.216   1.796   0.864
 3071SOL    HW1 9773   2.252   1.708   0.871
 3071SOL    HW2 9774   2.291   1.854   0.880
 3072SOL     OW 9775   3.659   1.061   0.867
 3072SOL    HW1 9776   3.603   1.044   0.792
 3072SOL    HW2 9777   3.600   1.065   0.942
 3073SOL     OW 9778   3.090   1.540   1.512
 3073SOL    HW1 9779   3.076   1.467   1.573
 3073SOL    HW2 9780   3.029   1.523   1.440
 3074SOL     OW 9781   2.180   0.956   0.273
 3074SOL    HW1 9782   2.258   0.982   0.225
 3074SOL    HW2 9783   2.151   0.875   0.230
 3075SOL     OW 9784   3.338   0.738   0.725
 3075SOL    HW1 9785   3.324   0.692   0.807
 3075SOL    HW2 9786   3.414   0.795   0.742
 3076SOL     OW 9787   2.326   1.263   1.737
 3076SOL    HW1 9788   2.298   1.268   1.646
 3076SOL    HW2 9789   2.245   1.261   1.788
 3077SOL     OW 9790   2.969   1.778   0.226
 3077SOL    HW1 9791   2.912   1.725   0.282
 3077SOL    HW2 9792   3.009   1.716   0.166
 3078SOL     OW 9793   2.052   0.268   1.508
 3078SOL    HW1 9794   1.985   0.335   1.490
 3078SOL    HW2 9795   2.059   0.267   1.603
 3079SOL     OW 9796   3.490   1.375   0.088
 3079SOL    HW1 9797   3.448   1.460   0.076
 3079SOL    HW2 9798   3.424   1.311   0.062
 3080SOL     OW 9799   2.329   1.736   0.324
 3080SOL    HW1 9800   2.369   1.796   0.388
 3080SOL    HW2 9801   2.401   1.711   0.266
 3081SOL     OW 9802   3.278   0.128   0.424
 3081SOL    HW1 9803   3.255   0.094   0.338
 3081SOL    HW2 9804   3.373   0.131   0.425
 3082SOL     OW 9805   2.113   1.784   1.236
 3082SOL    HW1 9806   2.169   1.719   1.279
 3082SOL    HW2 9807   2.105   1.752   1.146
 3083SOL     OW 9808   2.798   1.698   0.902
 3083SOL    HW1 9809   2.876   1.645   0.922
 3083SOL    HW2 9810   2.754   1.649   0.832
 3084SOL     OW 9811   2.252   0.694   0.476
 3084SOL    HW1 9812   2.276   0.602   0.488
 3084SOL    HW2 9813   2.159   0.697   0.497
 3085SOL     OW 9814   3.388   0.232   1.722
 3085SOL    HW1 9815   3.387   0.256   1.815
 3085SOL    HW2 9816   3.313   0.174   1.711
 3086SOL     OW 9817   2.466   0.099   0.122
 3086SOL    HW1 9818   2.560   0.082   0.129
 3086SOL    HW2 9819   2.449   0.100   0.028
 3087SOL     OW 9820   2.633   0.271   1.752
 3087SOL    HW1 9821   2.696   0.201   1.771
 3087SOL    HW2 9822   2.583   0.279   1.834
 3088SOL     OW 9823   2.739   1.521   1.193
 3088SOL    HW1 9824   2.724   1.484   1.106
 3088SOL    HW2 9825   2.808   1.466   1.231
 3089SOL     OW 9826   3.205   0.589   1.430
 3089SOL    HW1 9827   3.232   0.559   1.516
 3089SOL    HW2 9828   3.238   0.678   1.423
 3090SOL     OW 9829   2.675   1.399   0.935
 3090SOL    HW1 9830   2.759   1.388   0.891
 3090SOL    HW2 9831   2.609   1.395   0.865
 3091SOL     OW 9832   2.785   0.514   0.902
 3091SOL    HW1 9833   2.768   0.513   0.808
 3091SOL    HW2 9834   2.826   0.429   0.920
 3092SOL     OW 9835   2.415   0.072   0.520
 3092SOL    HW1 9836   2.326   0.051   0.547
 3092SOL    HW2 9837   2.405   0.141   0.454
 3093SOL     OW 9838   3.289   1.196   0.032
 3093SOL    HW1 9839   3.322   1.123   0.085
 3093SOL    HW2 9840   3.205   1.218   0.073
 3094SOL     OW 9841   2.150   0.058   0.196
 3094SOL    HW1 9842   2.217   0.108   0.150
 3094SOL    HW2 9843   2.198   0.004   0.259
 3095SOL     OW 9844   2.810   0.225   0.444
 3095SOL    HW1 9845   2.763   0.292   0.395
 3095SOL    HW2 9846   2.898   0.261   0.454
 3096SOL     OW 9847   2.942   0.679   1.461
 3096SOL    HW1 9848   2.869   0.616   1.463
 3096SOL    HW2 9849   3.020   0.625   1.450
 3097SOL     OW 9850   3.086   1.570   0.794
 3097SOL    HW1 9851   3.106   1.637   0.729
 3097SOL    HW2 9852   3.154   1.580   0.860
 3098SOL     OW 9853   2.330   1.148   0.739
 3098SOL    HW1 9854   2.259   1.129   0.800
 3098SOL    HW2 9855   2.292   1.131   0.653
 3099SOL     OW 9856   3.133   1.795   0.603
 3099SOL    HW1 9857   3.178   1.857   0.546
 3099SOL    HW2 9858   3.070   1.849   0.652
 3100SOL     OW 9859   2.884   0.535   0.031
 3100SOL    HW1 9860   2.848   0.620   0.004
 3100SOL    HW2 9861   2.956   0.558   0.090
 3101SOL     OW 9862   1.941   0.552   1.394
 3101SOL    HW1 9863   2.032   0.554   1.363
 3101SOL    HW2 9864   1.935   0.624   1.456
 3102SOL     OW 9865   2.426   0.240   1.164
 3102SOL    HW1 9866   2.454   0.157   1.201
 3102SOL    HW2 9867   2.335   0.249   1.190
 3103SOL     OW 9868   2.725   0.506   0.627
 3103SOL    HW1 9869   2.676   0.542   0.553
 3103SOL    HW2 9870   2.712   0.411   0.621
 3104SOL     OW 9871   2.831   0.037   0.773
 3104SOL    HW1 9872   2.782   0.028   0.692
 3104SOL    HW2 9873   2.846   4.447   0.803
 3105SOL     OW 9874   3.297   1.164   0.858
 3105SOL    HW1 9875   3.231   1.095   0.856
 3105SOL    HW2 9876   3.320   1.177   0.766
 3106SOL     OW 9877   3.330   0.602   0.980
 3106SOL    HW1 9878   3.279   0.521   0.983
 3106SOL    HW2 9879   3.389   0.597   1.055
 3107SOL     OW 9880   3.712   0.817   0.378
 3107SOL    HW1 9881   3.764   0.765   0.440
 3107SOL    HW2 9882   3.682   0.754   0.313
 3108SOL     OW 9883   2.355   1.422   0.174
 3108SOL    HW1 9884   2.278   1.395   0.223
 3108SOL    HW2 9885   2.349   1.375   0.091
 3109SOL     OW 9886   3.530   1.265   0.650
 3109SOL    HW1 9887   3.625   1.271   0.662
 3109SOL    HW2 9888   3.498   1.353   0.670
 3110SOL     OW 9889   3.252   0.576   0.076
 3110SOL    HW1 9890   3.192   0.556   0.148
 3110SOL    HW2 9891   3.327   0.519   0.091
 3111SOL     OW 9892   2.388   0.264   0.326
 3111SOL    HW1 9893   2.419   0.205   0.257
 3111SOL    HW2 9894   2.374   0.347   0.281
 3112SOL     OW 9895   3.616   1.235   1.577
 3112SOL    HW1 9896   3.703   1.197   1.574
 3112SOL    HW2 9897   3.630   1.325   1.607
 3113SOL     OW 9898   2.923   1.354   1.335
 3113SOL    HW1 9899   2.848   1.322   1.386
 3113SOL    HW2 9900   2.999   1.312   1.376
 3114SOL     OW 9901   3.467   1.625   1.651
 3114SOL    HW1 9902   3.465   1.659   1.561
 3114SOL    HW2 9903   3.551   1.579   1.657
 3115SOL     OW 9904   2.988   1.202   1.107
 3115SOL    HW1 9905   2.929   1.239   1.173
 3115SOL    HW2 9906   2.952   1.231   1.024
 3116SOL     OW 9907   3.493   1.100   1.079
 3116SOL    HW1 9908   3.489   1.162   1.151
 3116SOL    HW2 9909   3.412   1.115   1.030
 3117SOL     OW 9910   2.767   0.130   1.390
 3117SOL    HW1 9911   2.789   0.086   1.309
 3117SOL    HW2 9912   2.851   0.142   1.435
 3118SOL     OW 9913   2.846   1.114   1.722
 3118SOL    HW1 9914   2.753   1.129   1.741
 3118SOL    HW2 9915   2.847   1.037   1.666
 3119SOL     OW 9916   2.571   1.060   0.372
 3119SOL    HW1 9917   2.556   1.046   0.466
 3119SOL    HW2 9918   2.648   1.006   0.352
 3120SOL     OW 9919   2.279   0.814   1.251
 3120SOL    HW1 9920   2.348   0.823   1.316
 3120SOL    HW2 9921   2.244   0.726   1.266
 3121SOL     OW 9922   3.131   0.377   1.271
 3121SOL    HW1 9923   3.163   0.455   1.317
 3121SOL    HW2 9924   3.043   0.400   1.243
 3122SOL     OW 9925   1.928   1.570   1.346
 3122SOL    HW1 9926   1.894   1.648   1.302
 3122SOL    HW2 9927   2.023   1.584   1.348
 3123SOL     OW 9928   2.218   1.111   0.496
 3123SOL    HW1 9929   2.216   1.184   0.435
 3123SOL    HW2 9930   2.211   1.033   0.441
 3124SOL     OW 9931   2.420   0.533   0.859
 3124SOL    HW1 9932   2.436   0.591   0.785
 3124SOL    HW2 9933   2.481   0.563   0.927
 3125SOL     OW 9934   3.110   1.346   0.393
 3125SOL    HW1 9935   3.165   1.419   0.421
 3125SOL    HW2 9936   3.022   1.368   0.425
 3126SOL     OW 9937   3.139   1.455   1.146
 3126SOL    HW1 9938   3.193   1.457   1.224
 3126SOL    HW2 9939   3.083   1.378   1.157
 3127SOL     OW 9940   3.447   0.629   0.473
 3127SOL    HW1 9941   3.400   0.676   0.542
 3127SOL    HW2 9942   3.486   0.697   0.419
 3128SOL     OW 9943   2.212   1.521   1.320
 3128SOL    HW1 9944   2.197   1.481   1.234
 3128SOL    HW2 9945   2.307   1.535   1.322
 3129SOL     OW 9946   2.275   0.744   1.602
 3129SOL    HW1 9947   2.334   0.791   1.543
 3129SOL    HW2 9948   2.319   0.660   1.619
 3130SOL     OW 9949   3.459   0.777   1.679
 3130SOL    HW1 9950   3.373   0.817   1.671
 3130SOL    HW2 9951   3.512   0.819   1.610
 3131SOL     OW 9952   2.870   0.086   1.728
 3131SOL    HW1 9953   2.889   0.171   1.688
 3131SOL    HW2 9954   2.896   0.022   1.662
 3132SOL     OW 9955   2.362   0.050   1.755
 3132SOL    HW1 9956   2.348   0.001   1.674
 3132SOL    HW2 9957   2.293   0.116   1.755
 3133SOL     OW 9958   2.444   0.872   1.031
 3133SOL    HW1 9959   2.474   0.963   1.028
 3133SOL    HW2 9960   2.387   0.868   1.108
 3134SOL     OW 9961   3.223   0.859   1.034
 3134SOL    HW1 9962   3.142   0.852   0.983
 3134SOL    HW2 9963   3.260   0.771   1.031
 3135SOL     OW 9964   3.065   0.531   0.268
 3135SOL    HW1 9965   3.074   0.453   0.322
 3135SOL    HW2 9966   3.025   0.596   0.326
 3136SOL     OW 9967   2.153   0.236   1.240
 3136SOL    HW1 9968   2.112   0.251   1.325
 3136SOL    HW2 9969   2.180   0.144   1.243
 3137SOL     OW 9970   1.908   1.309   1.277
 3137SOL    HW1 9971   1.942   1.258   1.350
 3137SOL    HW2 9972   1.915   1.400   1.306
 3138SOL     OW 9973   2.587   0.632   1.060
 3138SOL    HW1 9974   2.659   0.612   1.000
 3138SOL    HW2 9975   2.560   0.721   1.036
 3139SOL     OW 9976   3.595   0.959   1.850
 3139SOL    HW1 9977   3.546   0.904   1.789
 3139SOL    HW2 9978   3.535   0.970   1.925
 3140SOL     OW 9979   2.163   0.062   0.652
 3140SOL    HW1 9980   2.152   0.157   0.659
 3140SOL    HW2 9981   2.173   0.032   0.742
 3141SOL     OW 9982   3.475   0.374   0.367
 3141SOL    HW1 9983   3.505   0.310   0.432
 3141SOL    HW2 9984   3.451   0.451   0.418
 3142SOL     OW 9985   2.889   0.761   0.963
 3142SOL    HW1 9986   2.889   0.777   1.057
 3142SOL    HW2 9987   2.861   0.670   0.954
 3143SOL     OW 9988   2.845   1.566   1.714
 3143SOL    HW1 9989   2.829   1.611   1.630
 3143SOL    HW2 9990   2.887   1.484   1.690
 3144SOL     OW 9991   3.718   1.510   1.606
 3144SOL    HW1 9992   3.734   1.535   1.515
 3144SOL    HW2 9993   3.799   1.531   1.652
 3145SOL     OW 9994   2.215   0.916   1.807
 3145SOL    HW1 9995   2.298   0.934   1.853
 3145SOL    HW2 9996   2.239   0.854   1.738
 3146SOL     OW 9997   3.399   0.291   0.115
 3146SOL    HW1 9998   3.339   0.217   0.128
 3146SOL    HW2 9999   3.428   0.314   0.203
 3147SOL     OW10000   3.152   0.825   0.033
 3147SOL    HW110001   3.195   0.740   0.043
 3147SOL    HW210002   3.184   0.858  11.049
 3148SOL     OW10003   2.926   1.335   0.851
 3148SOL    HW110004   2.929   1.261   0.790
 3148SOL    HW210005   2.990   1.397   0.818
 3149SOL     OW10006   2.172   0.810   0.948
 3149SOL    HW110007   2.265   0.833   0.942
 3149SOL    HW210008   2.171   0.721   0.984
 3150SOL     OW10009   2.199   0.528   1.012
 3150SOL    HW110010   2.157   0.444   0.993
 3150SOL    HW210011   2.274   0.531   0.953
 3151SOL     OW10012   2.997   0.376   1.691
 3151SOL    HW110013   2.950   0.440   1.744
 3151SOL    HW210014   3.084   0.414   1.678
 3152SOL     OW10015   3.023   0.211   1.474
 3152SOL    HW110016   3.014   0.274   1.544
 3152SOL    HW210017   3.057   0.261   1.400
 3153SOL     OW10018   1.869   1.328   0.196
 3153SOL    HW110019   1.782   1.340   0.158
 3153SOL    HW210020   1.870   1.237   0.225
 3154SOL     OW10021   1.949   1.792   0.934
 3154SOL    HW110022   1.918   1.711   0.893
 3154SOL    HW210023   2.041   1.798   0.908
 3155SOL     OW10024   2.362   1.570   0.905
 3155SOL    HW110025   2.432   1.634   0.924
 3155SOL    HW210026   2.405   1.504   0.851
 3156SOL     OW10027   2.850   0.795   1.229
 3156SOL    HW110028   2.902   0.769   1.305
 3156SOL    HW210029   2.764   0.757   1.245
 3157SOL     OW10030   1.896   0.542   1.118
 3157SOL    HW110031   1.976   0.522   1.068
 3157SOL    HW210032   1.926   0.549   1.208
 3158SOL     OW10033   2.047   0.517   1.720
 3158SOL    HW110034   2.119   0.496   1.660
 3158SOL    HW210035   2.004   0.592   1.679
 3159SOL     OW10036   3.238   0.941   1.660
 3159SOL    HW110037   3.258   1.035   1.660
 3159SOL    HW210038   3.236   0.918   1.567
 3160SOL     OW10039   2.674   0.574   0.355
 3160SOL    HW110040   2.679   0.498   0.297
 3160SOL    HW210041   2.598   0.623   0.323
 3161SOL     OW10042   3.504   0.601   1.190
 3161SOL    HW110043   3.493   0.541   1.263
 3161SOL    HW210044   3.591   0.581   1.155
 3162SOL     OW10045   2.113   1.551   1.733
 3162SOL    HW110046   2.083   1.613   1.800
 3162SOL    HW210047   2.108   1.466   1.775
 3163SOL     OW10048   2.554   0.460   1.266
 3163SOL    HW110049   2.510   0.382   1.232
 3163SOL    HW210050   2.557   0.520   1.191
 3164SOL     OW10051   2.792   1.679   1.466
 3164SOL    HW110052   2.766   1.649   1.379
 3164SOL    HW210053   2.793   1.774   1.459
 3165SOL     OW10054   2.328   0.489   0.182
 3165SOL    HW110055   2.388   0.561   0.202
 3165SOL    HW210056   2.241   0.530   0.179
 3166SOL     OW10057   2.011   1.140   1.471
 3166SOL    HW110058   2.015   1.085   1.550
 3166SOL    HW210059   2.027   1.079   1.399
 3167SOL     OW10060   3.192   1.049   1.225
 3167SOL    HW110061   3.216   0.986   1.157
 3167SOL    HW210062   3.119   1.098   1.188
 3168SOL     OW10063   3.169   0.853   0.310
 3168SOL    HW110064   3.092   0.823   0.357
 3168SOL    HW210065   3.147   0.840   0.217
 3169SOL     OW10066   3.630   1.747   1.148
 3169SOL    HW110067   3.690   1.773   1.078
 3169SOL    HW210068   3.606   1.657   1.128
 3170SOL     OW10069   3.104   1.733   1.117
 3170SOL    HW110070   3.185   1.751   1.070
 3170SOL    HW210071   3.106   1.638   1.135
 3171SOL     OW10072   1.946   1.265   1.014
 3171SOL    HW110073   1.933   1.277   1.108
 3171SOL    HW210074   1.871   1.214   0.985
 3172SOL     OW10075   2.540   1.662   1.723
 3172SOL    HW110076   2.491   1.744   1.724
 3172SOL    HW210077   2.603   1.673   1.652
 3173SOL     OW10078   2.743   0.063   0.126
 3173SOL    HW110079   2.826   0.091   0.088
 3173SOL    HW210080   2.767   0.018   0.207
 3174SOL     OW10081   3.581   0.133   0.501
 3174SOL    HW110082   3.655   0.134   0.441
 3174SOL    HW210083   3.595   0.055   0.554
 3175SOL     OW10084   3.251   1.568   0.482
 3175SOL    HW110085   3.313   1.598   0.416
 3175SOL    HW210086   3.206   1.647   0.511
 3176SOL     OW10087   2.000   1.800   1.848
 3176SOL    HW110088   1.947   1.733   1.890
 3176SOL    HW210089   2.044   1.845   1.920
 3177SOL     OW10090   3.140   0.926   0.672
 3177SOL    HW110091   3.212   0.863   0.675
 3177SOL    HW210092   3.174   0.998   0.620
 3178SOL     OW10093   2.681   1.272   1.431
 3178SOL    HW110094   2.655   1.310   1.515
 3178SOL    HW210095   2.609   1.293   1.372
 3179SOL     OW10096   2.535   1.619   0.165
 3179SOL    HW110097   2.545   1.627   0.071
 3179SOL    HW210098   2.479   1.542   0.177
 3180SOL     OW10099   3.496   1.726   1.392
 3180SOL    HW110100   3.542   1.734   1.309
 3180SOL    HW210101   3.481   1.817   1.421
 3181SOL     OW10102   3.701   0.156   0.967
 3181SOL    HW110103   3.731   0.080   0.918
 3181SOL    HW210104   3.614   0.175   0.931
 3182SOL     OW10105   2.129   0.326   0.720
 3182SOL    HW110106   2.043   0.358   0.691
 3182SOL    HW210107   2.119   0.315   0.815
 3183SOL     OW10108   3.083   1.604   0.050
 3183SOL    HW110109   3.071   1.512   0.071
 3183SOL    HW210110   3.016   1.623  11.084
 3184SOL     OW10111   2.686   1.006   1.372
 3184SOL    HW110112   2.729   1.002   1.286
 3184SOL    HW210113   2.688   1.098   1.396
 3185SOL     OW10114   2.776   0.907   0.283
 3185SOL    HW110115   2.844   0.946   0.227
 3185SOL    HW210116   2.822   0.840   0.334
 3186SOL     OW10117   3.362   1.622   0.046
 3186SOL    HW110118   3.266   1.620   0.041
 3186SOL    HW210119   3.390   1.634  11.055
 3187SOL     OW10120   2.232   1.300   1.492
 3187SOL    HW110121   2.218   1.379   1.439
 3187SOL    HW210122   2.154   1.246   1.475
 3188SOL     OW10123   3.474   1.283   1.281
 3188SOL    HW110124   3.533   1.276   1.357
 3188SOL    HW210125   3.413   1.353   1.305
 3189SOL     OW10126   2.909   1.105   0.704
 3189SOL    HW110127   2.840   1.053   0.745
 3189SOL    HW210128   2.971   1.040   0.671
 3190SOL     OW10129   2.875   0.239   0.988
 3190SOL    HW110130   2.877   0.201   0.900
 3190SOL    HW210131   2.866   0.164   1.047
 3191SOL     OW10132   2.464   1.492   0.482
 3191SOL    HW110133   2.503   1.438   0.414
 3191SOL    HW210134   2.395   1.541   0.439
 3192SOL     OW10135   3.581   0.393   1.378
 3192SOL    HW110136   3.653   0.456   1.376
 3192SOL    HW210137   3.611   0.321   1.322
 3193SOL     OW10138   2.126   1.340   0.290
 3193SOL    HW110139   2.037   1.342   0.254
 3193SOL    HW210140   2.117   1.379   0.377
 3194SOL     OW10141   1.974   1.017   1.719
 3194SOL    HW110142   1.898   0.995   1.773
 3194SOL    HW210143   2.048   0.982   1.767
 3195SOL     OW10144   2.522   0.203   1.496
 3195SOL    HW110145   2.602   0.179   1.450
 3195SOL    HW210146   2.550   0.222   1.586
 3196SOL     OW10147   1.939   0.350   0.053
 3196SOL    HW110148   1.863   0.312   0.010
 3196SOL    HW210149   1.960   0.428   0.000
 3197SOL     OW10150   3.294   0.858   1.402
 3197SOL    HW110151   3.245   0.918   1.344
 3197SOL    HW210152   3.384   0.861   1.368
 3198SOL     OW10153   1.929   0.178   0.326
 3198SOL    HW110154   1.923   0.246   0.259
 3198SOL    HW210155   2.003   0.123   0.299
 3199SOL     OW10156   3.043   1.343   0.121
 3199SOL    HW110157   2.951   1.319   0.118
 3199SOL    HW210158   3.066   1.336   0.214
 3200SOL     OW10159   2.480   0.831   1.432
 3200SOL    HW110160   2.535   0.908   1.418
 3200SOL    HW210161   2.542   0.759   1.441
 3201SOL     OW10162   3.347   1.774   0.974
 3201SOL    HW110163   3.374   1.831   0.903
 3201SOL    HW210164   3.428   1.758   1.024
 3202SOL     OW10165   2.578   0.564   1.707
 3202SOL    HW110166   2.612   0.629   1.768
 3202SOL    HW210167   2.616   0.481   1.736
 3203SOL     OW10168   3.330   1.204   1.633
 3203SOL    HW110169   3.318   1.216   1.727
 3203SOL    HW210170   3.424   1.215   1.619
 3204SOL     OW10171   2.246   1.739   1.564
 3204SOL    HW110172   2.159   1.773   1.547
 3204SOL    HW210173   2.231   1.654   1.605
 3205SOL     OW10174   3.534   0.882   1.256
 3205SOL    HW110175   3.524   0.797   1.213
 3205SOL    HW210176   3.525   0.946   1.185
 3206SOL     OW10177   3.081   0.326   0.447
 3206SOL    HW110178   3.146   0.256   0.439
 3206SOL    HW210179   3.105   0.372   0.528
 3207SOL     OW10180   2.451   0.741   0.668
 3207SOL    HW110181   2.492   0.825   0.651
 3207SOL    HW210182   2.381   0.735   0.602
 3208SOL     OW10183   3.629   0.361   1.642
 3208SOL    HW110184   3.611   0.375   1.549
 3208SOL    HW210185   3.550   0.316   1.675
 3209SOL     OW10186   3.606   0.933   1.513
 3209SOL    HW110187   3.608   1.028   1.526
 3209SOL    HW210188   3.591   0.922   1.419
 3210SOL     OW10189   2.757   1.358   0.060
 3210SOL    HW110190   2.687   1.362   0.125
 3210SOL    HW210191   2.752   1.442   0.013
 3211SOL     OW10192   2.519   1.803   0.938
 3211SOL    HW110193   2.514   1.893   0.971
 3211SOL    HW210194   2.612   1.782   0.940
 3212SOL     OW10195   2.728   0.965   0.856
 3212SOL    HW110196   2.778   0.894   0.896
 3212SOL    HW210197   2.695   1.016   0.930
 3213SOL     OW10198   2.943   0.991   0.086
 3213SOL    HW110199   2.918   1.025   0.000
 3213SOL    HW210200   3.019   0.935   0.069
 3214SOL     OW10201   3.719   1.557   0.846
 3214SOL    HW110202   3.642   1.545   0.789
 3214SOL    HW210203   3.711   1.488   0.911
 3215SOL     OW10204   2.086   1.304   1.856
 3215SOL    HW110205   2.018   1.243   1.827
 3215SOL    HW210206   2.070   1.316   1.949
 3216SOL     OW10207   1.945   1.236   0.663
 3216SOL    HW110208   1.946   1.186   0.745
 3216SOL    HW210209   2.016   1.197   0.611
 3217SOL     OW10210   2.541   1.400   1.624
 3217SOL    HW110211   2.462   1.356   1.655
 3217SOL    HW210212   2.536   1.488   1.662
 3218SOL     OW10213   3.673   0.184   1.239
 3218SOL    HW110214   3.672   0.091   1.260
 3218SOL    HW210215   3.688   0.187   1.144
 3219SOL     OW10216   2.295   0.433   0.526
 3219SOL    HW110217   2.321   0.361   0.468
 3219SOL    HW210218   2.242   0.390   0.594
 3220SOL     OW10219   3.563   1.491   1.101
 3220SOL    HW110220   3.482   1.465   1.057
 3220SOL    HW210221   3.578   1.423   1.166
 3221SOL     OW10222   2.189   0.554   1.291
 3221SOL    HW110223   2.244   0.498   1.345
 3221SOL    HW210224   2.210   0.528   1.201
 3222SOL     OW10225   2.686   1.578   0.680
 3222SOL    HW110226   2.680   1.620   0.594
 3222SOL    HW210227   2.608   1.523   0.685
 3223SOL     OW10228   3.294   0.216   1.118
 3223SOL    HW110229   3.331   0.146   1.171
 3223SOL    HW210230   3.243   0.269   1.179
 3224SOL     OW10231   2.860   0.015   1.147
 3224SOL    HW110232   2.812   4.432   1.138
 3224SOL    HW210233   2.951   4.489   1.161
 3225SOL     OW10234   2.629   1.329   0.313
 3225SOL    HW110235   2.598   1.239   0.324
 3225SOL    HW210236   2.715   1.331   0.355
 3226SOL     OW10237   2.482   1.559   1.282
 3226SOL    HW110238   2.485   1.639   1.334
 3226SOL    HW210239   2.570   1.551   1.246
 3227SOL     OW10240   3.208   0.060   0.168
 3227SOL    HW110241   3.246   0.006   0.097
 3227SOL    HW210242   3.131   0.011   0.196
 3228SOL     OW10243   3.177   0.463   0.682
 3228SOL    HW110244   3.113   0.534   0.682
 3228SOL    HW210245   3.164   0.419   0.766
 3229SOL     OW10246   3.448   0.203   0.868
 3229SOL    HW110247   3.386   0.217   0.939
 3229SOL    HW210248   3.451   0.287   0.822
 3230SOL     OW10249   1.905   1.072   0.300
 3230SOL    HW110250   2.000   1.065   0.295
 3230SOL    HW210251   1.875   0.985   0.327
 3231SOL     OW10252   2.744   1.650   0.347
 3231SOL    HW110253   2.673   1.629   0.287
 3231SOL    HW210254   2.712   1.725   0.397
 3232SOL     OW10255   2.092   0.628   1.981
 3232SOL    HW110256   2.004   0.621   2.018
 3232SOL    HW210257   2.083   0.595   1.892
 3233SOL     OW10258   2.072   0.295   2.850
 3233SOL    HW110259   2.103   0.269   2.937
 3233SOL    HW210260   1.990   0.248   2.839
 3234SOL     OW10261   1.871   0.383   2.502
 3234SOL    HW110262   1.785   0.404   2.538
 3234SOL    HW210263   1.855   0.308   2.444
 3235SOL     OW10264   2.429   1.282   3.033
 3235SOL    HW110265   2.341   1.284   2.996
 3235SOL    HW210266   2.442   1.370   3.068
 3236SOL     OW10267   3.419   1.512   2.568
 3236SOL    HW110268   3.375   1.494   2.650
 3236SOL    HW210269   3.348   1.517   2.503
 3237SOL     OW10270   2.993   0.700   2.564
 3237SOL    HW110271   3.042   0.782   2.552
 3237SOL    HW210272   2.944   0.712   2.645
 3238SOL     OW10273   3.626   0.609   2.092
 3238SOL    HW110274   3.607   0.597   1.999
 3238SOL    HW210275   3.594   0.528   2.133
 3239SOL     OW10276   2.622   1.145   2.900
 3239SOL    HW110277   2.551   1.177   2.955
 3239SOL    HW210278   2.655   1.222   2.854
 3240SOL     OW10279   2.724   0.781   3.683
 3240SOL    HW110280   2.712   0.852   3.746
 3240SOL    HW210281   2.747   0.824   3.601
 3241SOL     OW10282   2.549   1.007   2.511
 3241SOL    HW110283   2.612   0.992   2.581
 3241SOL    HW210284   2.478   1.057   2.553
 3242SOL     OW10285   2.569   1.152   3.670
 3242SOL    HW110286   2.617   1.231   3.695
 3242SOL    HW210287   2.485   1.184   3.637
 3243SOL     OW10288   2.194   1.429   2.930
 3243SOL    HW110289   2.121   1.393   2.880
 3243SOL    HW210290   2.244   1.480   2.867
 3244SOL     OW10291   3.324   1.498   3.212
 3244SOL    HW110292   3.366   1.583   3.223
 3244SOL    HW210293   3.269   1.488   3.290
 3245SOL     OW10294   2.303   0.396   3.354
 3245SOL    HW110295   2.384   0.346   3.356
 3245SOL    HW210296   2.234   0.330   3.367
 3246SOL     OW10297   3.475   0.448   2.600
 3246SOL    HW110298   3.394   0.473   2.554
 3246SOL    HW210299   3.497   0.525   2.652
 3247SOL     OW10300   2.083   1.724   2.337
 3247SOL    HW110301   2.124   1.769   2.411
 3247SOL    HW210302   2.155   1.709   2.276
 3248SOL     OW10303   2.998   1.341   3.553
 3248SOL    HW110304   3.037   1.338   3.640
 3248SOL    HW210305   2.945   1.262   3.548
 3249SOL     OW10306   2.089   1.442   2.395
 3249SOL    HW110307   2.068   1.535   2.407
 3249SOL    HW210308   2.030   1.397   2.456
 3250SOL     OW10309   2.115   1.090   2.752
 3250SOL    HW110310   2.113   1.004   2.795
 3250SOL    HW210311   2.058   1.145   2.805
 3251SOL     OW10312   2.477   1.791   3.293
 3251SOL    HW110313   2.394   1.774   3.337
 3251SOL    HW210314   2.499   1.881   3.317
 3252SOL     OW10315   2.452   0.979   1.993
 3252SOL    HW110316   2.493   1.032   1.926
 3252SOL    HW210317   2.493   1.008   2.075
 3253SOL     OW10318   3.448   0.114   3.337
 3253SOL    HW110319   3.458   0.182   3.270
 3253SOL    HW210320   3.437   0.162   3.419
 3254SOL     OW10321   1.977   0.651   2.421
 3254SOL    HW110322   1.948   0.562   2.443
 3254SOL    HW210323   1.968   0.700   2.503
 3255SOL     OW10324   3.703   1.761   2.199
 3255SOL    HW110325   3.762   1.732   2.269
 3255SOL    HW210326   3.731   1.851   2.181
 3256SOL     OW10327   1.893   1.597   1.986
 3256SOL    HW110328   1.876   1.505   2.003
 3256SOL    HW210329   1.866   1.642   2.066
 3257SOL     OW10330   3.553   0.921   2.500
 3257SOL    HW110331   3.638   0.880   2.481
 3257SOL    HW210332   3.532   0.969   2.420
 3258SOL     OW10333   3.507   1.108   2.291
 3258SOL    HW110334   3.592   1.117   2.249
 3258SOL    HW210335   3.511   1.168   2.366
 3259SOL     OW10336   1.984   0.743   3.448
 3259SOL    HW110337   2.075   0.765   3.464
 3259SOL    HW210338   1.937   0.826   3.455
 3260SOL     OW10339   2.475   1.382   2.597
 3260SOL    HW110340   2.429   1.299   2.606
 3260SOL    HW210341   2.458   1.409   2.506
 3261SOL     OW10342   3.153   1.239   3.286
 3261SOL    HW110343   3.185   1.171   3.227
 3261SOL    HW210344   3.208   1.231   3.364
 3262SOL     OW10345   2.676   0.011   2.406
 3262SOL    HW110346   2.710   0.098   2.384
 3262SOL    HW210347   2.581   0.020   2.400
 3263SOL     OW10348   2.054   0.969   3.131
 3263SOL    HW110349   2.138   0.925   3.115
 3263SOL    HW210350   1.989   0.912   3.089
 3264SOL     OW10351   3.394   0.991   2.058
 3264SOL    HW110352   3.324   0.933   2.088
 3264SOL    HW210353   3.433   1.025   2.139
 3265SOL     OW10354   3.047   1.804   3.482
 3265SOL    HW110355   3.063   1.860   3.406
 3265SOL    HW210356   3.062   1.715   3.449
 3266SOL     OW10357   2.178   0.255   3.644
 3266SOL    HW110358   2.241   0.319   3.676
 3266SOL    HW210359   2.103   0.264   3.703
 3267SOL     OW10360   3.328   1.419   2.815
 3267SOL    HW110361   3.259   1.433   2.881
 3267SOL    HW210362   3.316   1.329   2.788
 3268SOL     OW10363   3.524   1.732   2.439
 3268SOL    HW110364   3.500   1.704   2.351
 3268SOL    HW210365   3.497   1.659   2.496
 3269SOL     OW10366   2.456   0.724   2.126
 3269SOL    HW110367   2.465   0.804   2.074
 3269SOL    HW210368   2.391   0.745   2.193
 3270SOL     OW10369   3.152   0.358   2.797
 3270SOL    HW110370   3.063   0.326   2.781
 3270SOL    HW210371   3.189   0.295   2.859
 3271SOL     OW10372   3.444   1.668   2.171
 3271SOL    HW110373   3.532   1.703   2.165
 3271SOL    HW210374   3.419   1.651   2.080
 3272SOL     OW10375   2.658   0.617   3.317
 3272SOL    HW110376   2.629   0.594   3.405
 3272SOL    HW210377   2.615   0.553   3.260
 3273SOL     OW10378   3.251   0.478   3.538
 3273SOL    HW110379   3.253   0.521   3.623
 3273SOL    HW210380   3.318   0.410   3.545
 3274SOL     OW10381   2.821   0.889   3.443
 3274SOL    HW110382   2.874   0.817   3.409
 3274SOL    HW210383   2.773   0.921   3.366
 3275SOL     OW10384   2.857   0.416   3.101
 3275SOL    HW110385   2.772   0.431   3.142
 3275SOL    HW210386   2.837   0.365   3.022
 3276SOL     OW10387   2.911   0.698   2.290
 3276SOL    HW110388   2.926   0.691   2.384
 3276SOL    HW210389   2.829   0.651   2.275
 3277SOL     OW10390   1.951   0.819   2.638
 3277SOL    HW110391   2.033   0.813   2.687
 3277SOL    HW210392   1.908   0.898   2.673
 3278SOL     OW10393   1.989   1.809   3.436
 3278SOL    HW110394   1.976   1.807   3.531
 3278SOL    HW210395   1.921   1.869   3.404
 3279SOL     OW10396   2.716   0.368   2.041
 3279SOL    HW110397   2.792   0.403   1.994
 3279SOL    HW210398   2.733   0.274   2.046
 3280SOL     OW10399   3.569   0.576   3.690
 3280SOL    HW110400   3.534   0.653   3.646
 3280SOL    HW210401   3.600   0.520   3.619
 3281SOL     OW10402   3.237   1.143   2.404
 3281SOL    HW110403   3.315   1.128   2.351
 3281SOL    HW210404   3.185   1.205   2.353
 3282SOL     OW10405   2.402   0.201   2.763
 3282SOL    HW110406   2.421   0.218   2.855
 3282SOL    HW210407   2.393   0.288   2.723
 3283SOL     OW10408   2.871   1.446   2.336
 3283SOL    HW110409   2.830   1.517   2.287
 3283SOL    HW210410   2.857   1.469   2.428
 3284SOL     OW10411   2.218   1.806   2.701
 3284SOL    HW110412   2.260   1.723   2.719
 3284SOL    HW210413   2.285   1.872   2.720
 3285SOL     OW10414   3.659   1.062   2.729
 3285SOL    HW110415   3.603   1.043   2.654
 3285SOL    HW210416   3.600   1.066   2.804
 3286SOL     OW10417   3.090   1.540   3.374
 3286SOL    HW110418   3.076   1.467   3.435
 3286SOL    HW210419   3.029   1.523   3.302
 3287SOL     OW10420   2.183   0.955   2.110
 3287SOL    HW110421   2.265   0.974   2.064
 3287SOL    HW210422   2.153   0.873   2.070
 3288SOL     OW10423   3.338   0.739   2.588
 3288SOL    HW110424   3.324   0.692   2.670
 3288SOL    HW210425   3.414   0.795   2.605
 3289SOL     OW10426   2.326   1.263   3.599
 3289SOL    HW110427   2.298   1.268   3.508
 3289SOL    HW210428   2.245   1.262   3.650
 3290SOL     OW10429   2.983   1.777   2.094
 3290SOL    HW110430   2.911   1.734   2.141
 3290SOL    HW210431   3.004   1.718   2.022
 3291SOL     OW10432   2.051   0.268   3.370
 3291SOL    HW110433   1.985   0.335   3.352
 3291SOL    HW210434   2.059   0.267   3.465
 3292SOL     OW10435   3.492   1.379   1.948
 3292SOL    HW110436   3.451   1.464   1.934
 3292SOL    HW210437   3.422   1.315   1.930
 3293SOL     OW10438   2.328   1.725   2.199
 3293SOL    HW110439   2.365   1.796   2.251
 3293SOL    HW210440   2.390   1.713   2.127
 3294SOL     OW10441   3.278   0.131   2.281
 3294SOL    HW110442   3.260   0.084   2.199
 3294SOL    HW210443   3.373   0.129   2.290
 3295SOL     OW10444   2.110   1.785   3.095
 3295SOL    HW110445   2.168   1.724   3.140
 3295SOL    HW210446   2.105   1.753   3.005
 3296SOL     OW10447   2.801   1.698   2.763
 3296SOL    HW110448   2.878   1.644   2.782
 3296SOL    HW210449   2.754   1.650   2.695
 3297SOL     OW10450   2.252   0.695   2.339
 3297SOL    HW110451   2.277   0.603   2.349
 3297SOL    HW210452   2.158   0.697   2.359
 3298SOL     OW10453   3.388   0.232   3.584
 3298SOL    HW110454   3.387   0.256   3.677
 3298SOL    HW210455   3.313   0.174   3.573
 3299SOL     OW10456   2.485   0.123   1.982
 3299SOL    HW110457   2.574   0.088   1.991
 3299SOL    HW210458   2.454   0.089   1.898
 3300SOL     OW10459   2.632   0.270   3.614
 3300SOL    HW110460   2.696   0.202   3.633
 3300SOL    HW210461   2.583   0.280   3.696
 3301SOL     OW10462   2.739   1.521   3.055
 3301SOL    HW110463   2.724   1.485   2.968
 3301SOL    HW210464   2.808   1.465   3.092
 3302SOL     OW10465   3.205   0.589   3.292
 3302SOL    HW110466   3.232   0.559   3.378
 3302SOL    HW210467   3.238   0.678   3.285
 3303SOL     OW10468   2.675   1.398   2.798
 3303SOL    HW110469   2.758   1.388   2.752
 3303SOL    HW210470   2.609   1.396   2.728
 3304SOL     OW10471   2.784   0.515   2.764
 3304SOL    HW110472   2.768   0.513   2.670
 3304SOL    HW210473   2.825   0.431   2.783
 3305SOL     OW10474   2.414   0.072   2.381
 3305SOL    HW110475   2.325   0.050   2.406
 3305SOL    HW210476   2.405   0.141   2.315
 3306SOL     OW10477   3.291   1.197   1.903
 3306SOL    HW110478   3.321   1.122   1.953
 3306SOL    HW210479   3.205   1.217   1.940
 3307SOL     OW10480   2.158   0.072   2.053
 3307SOL    HW110481   2.237   0.123   2.035
 3307SOL    HW210482   2.189   4.499   2.107
 3308SOL     OW10483   2.811   0.240   2.335
 3308SOL    HW110484   2.759   0.288   2.270
 3308SOL    HW210485   2.900   0.275   2.325
 3309SOL     OW10486   2.942   0.679   3.323
 3309SOL    HW110487   2.869   0.616   3.325
 3309SOL    HW210488   3.020   0.625   3.311
 3310SOL     OW10489   3.087   1.569   2.655
 3310SOL    HW110490   3.105   1.637   2.591
 3310SOL    HW210491   3.155   1.581   2.722
 3311SOL     OW10492   2.329   1.148   2.599
 3311SOL    HW110493   2.258   1.129   2.661
 3311SOL    HW210494   2.291   1.130   2.513
 3312SOL     OW10495   3.133   1.795   2.467
 3312SOL    HW110496   3.177   1.857   2.408
 3312SOL    HW210497   3.068   1.848   2.514
 3313SOL     OW10498   2.893   0.549   1.876
 3313SOL    HW110499   2.845   0.631   1.861
 3313SOL    HW210500   2.951   0.569   1.950
 3314SOL     OW10501   1.941   0.552   3.256
 3314SOL    HW110502   2.032   0.554   3.225
 3314SOL    HW210503   1.935   0.624   3.319
 3315SOL     OW10504   2.426   0.241   3.026
 3315SOL    HW110505   2.454   0.157   3.063
 3315SOL    HW210506   2.335   0.249   3.052
 3316SOL     OW10507   2.728   0.500   2.488
 3316SOL    HW110508   2.677   0.542   2.419
 3316SOL    HW210509   2.714   0.407   2.475
 3317SOL     OW10510   2.834   0.032   2.636
 3317SOL    HW110511   2.784   0.027   2.554
 3317SOL    HW210512   2.842   4.442   2.664
 3318SOL     OW10513   3.297   1.164   2.720
 3318SOL    HW110514   3.230   1.096   2.718
 3318SOL    HW210515   3.320   1.177   2.628
 3319SOL     OW10516   3.330   0.602   2.842
 3319SOL    HW110517   3.279   0.521   2.845
 3319SOL    HW210518   3.389   0.597   2.917
 3320SOL     OW10519   3.710   0.819   2.243
 3320SOL    HW110520   3.765   0.767   2.301
 3320SOL    HW210521   3.680   0.758   2.176
 3321SOL     OW10522   2.355   1.414   2.022
 3321SOL    HW110523   2.280   1.384   2.075
 3321SOL    HW210524   2.333   1.387   1.933
 3322SOL     OW10525   3.530   1.266   2.510
 3322SOL    HW110526   3.625   1.271   2.523
 3322SOL    HW210527   3.498   1.353   2.532
 3323SOL     OW10528   3.256   0.570   1.932
 3323SOL    HW110529   3.195   0.554   2.004
 3323SOL    HW210530   3.342   0.547   1.967
 3324SOL     OW10531   2.387   0.266   2.187
 3324SOL    HW110532   2.429   0.212   2.119
 3324SOL    HW210533   2.371   0.350   2.145
 3325SOL     OW10534   3.616   1.235   3.438
 3325SOL    HW110535   3.703   1.197   3.436
 3325SOL    HW210536   3.630   1.325   3.469
 3326SOL     OW10537   2.923   1.354   3.198
 3326SOL    HW110538   2.848   1.322   3.248
 3326SOL    HW210539   2.999   1.312   3.238
 3327SOL     OW10540   3.467   1.625   3.513
 3327SOL    HW110541   3.465   1.659   3.423
 3327SOL    HW210542   3.550   1.579   3.519
 3328SOL     OW10543   2.988   1.202   2.969
 3328SOL    HW110544   2.929   1.239   3.035
 3328SOL    HW210545   2.952   1.231   2.885
 3329SOL     OW10546   3.493   1.100   2.941
 3329SOL    HW110547   3.489   1.162   3.013
 3329SOL    HW210548   3.412   1.114   2.892
 3330SOL     OW10549   2.767   0.129   3.253
 3330SOL    HW110550   2.789   0.086   3.170
 3330SOL    HW210551   2.851   0.142   3.297
 3331SOL     OW10552   2.846   1.114   3.584
 3331SOL    HW110553   2.753   1.129   3.603
 3331SOL    HW210554   2.847   1.037   3.528
 3332SOL     OW10555   2.570   1.060   2.234
 3332SOL    HW110556   2.557   1.046   2.328
 3332SOL    HW210557   2.646   1.006   2.212
 3333SOL     OW10558   2.279   0.814   3.113
 3333SOL    HW110559   2.348   0.824   3.178
 3333SOL    HW210560   2.244   0.726   3.128
 3334SOL     OW10561   3.131   0.377   3.133
 3334SOL    HW110562   3.162   0.455   3.179
 3334SOL    HW210563   3.043   0.400   3.105
 3335SOL     OW10564   1.928   1.570   3.208
 3335SOL    HW110565   1.894   1.648   3.163
 3335SOL    HW210566   2.023   1.583   3.209
 3336SOL     OW10567   2.216   1.106   2.354
 3336SOL    HW110568   2.220   1.179   2.293
 3336SOL    HW210569   2.215   1.028   2.299
 3337SOL     OW10570   2.420   0.533   2.721
 3337SOL    HW110571   2.436   0.591   2.647
 3337SOL    HW210572   2.481   0.563   2.789
 3338SOL     OW10573   3.110   1.348   2.251
 3338SOL    HW110574   3.165   1.420   2.282
 3338SOL    HW210575   3.023   1.368   2.285
 3339SOL     OW10576   3.139   1.455   3.007
 3339SOL    HW110577   3.193   1.457   3.086
 3339SOL    HW210578   3.083   1.378   3.018
 3340SOL     OW10579   3.445   0.626   2.337
 3340SOL    HW110580   3.401   0.679   2.403
 3340SOL    HW210581   3.490   0.689   2.281
 3341SOL     OW10582   2.212   1.521   3.182
 3341SOL    HW110583   2.197   1.481   3.096
 3341SOL    HW210584   2.307   1.535   3.185
 3342SOL     OW10585   2.275   0.743   3.464
 3342SOL    HW110586   2.334   0.791   3.405
 3342SOL    HW210587   2.319   0.660   3.481
 3343SOL     OW10588   3.459   0.777   3.541
 3343SOL    HW110589   3.373   0.817   3.533
 3343SOL    HW210590   3.512   0.819   3.472
 3344SOL     OW10591   2.870   0.086   3.590
 3344SOL    HW110592   2.889   0.171   3.550
 3344SOL    HW210593   2.896   0.022   3.524
 3345SOL     OW10594   2.361   0.049   3.617
 3345SOL    HW110595   2.348   0.001   3.536
 3345SOL    HW210596   2.293   0.116   3.617
 3346SOL     OW10597   2.444   0.872   2.893
 3346SOL    HW110598   2.474   0.963   2.890
 3346SOL    HW210599   2.387   0.868   2.970
 3347SOL     OW10600   3.223   0.859   2.896
 3347SOL    HW110601   3.142   0.853   2.846
 3347SOL    HW210602   3.260   0.771   2.892
 3348SOL     OW10603   3.069   0.534   2.129
 3348SOL    HW110604   3.075   0.454   2.180
 3348SOL    HW210605   3.027   0.597   2.187
 3349SOL     OW10606   2.152   0.236   3.102
 3349SOL    HW110607   2.112   0.251   3.187
 3349SOL    HW210608   2.180   0.144   3.105
 3350SOL     OW10609   1.907   1.309   3.139
 3350SOL    HW110610   1.942   1.258   3.212
 3350SOL    HW210611   1.915   1.400   3.168
 3351SOL     OW10612   2.587   0.632   2.922
 3351SOL    HW110613   2.659   0.612   2.863
 3351SOL    HW210614   2.560   0.721   2.898
 3352SOL     OW10615   3.595   0.959   3.712
 3352SOL    HW110616   3.546   0.904   3.651
 3352SOL    HW210617   3.536   0.970   3.787
 3353SOL     OW10618   2.161   0.061   2.515
 3353SOL    HW110619   2.151   0.156   2.521
 3353SOL    HW210620   2.173   0.032   2.606
 3354SOL     OW10621   3.472   0.374   2.229
 3354SOL    HW110622   3.504   0.312   2.294
 3354SOL    HW210623   3.451   0.453   2.279
 3355SOL     OW10624   2.889   0.761   2.825
 3355SOL    HW110625   2.889   0.777   2.919
 3355SOL    HW210626   2.861   0.670   2.816
 3356SOL     OW10627   2.845   1.567   3.576
 3356SOL    HW110628   2.829   1.610   3.492
 3356SOL    HW210629   2.887   1.484   3.552
 3357SOL     OW10630   3.718   1.510   3.468
 3357SOL    HW110631   3.734   1.535   3.377
 3357SOL    HW210632   3.799   1.531   3.514
 3358SOL     OW10633   2.215   0.916   3.669
 3358SOL    HW110634   2.297   0.934   3.715
 3358SOL    HW210635   2.239   0.854   3.600
 3359SOL     OW10636   3.394   0.268   1.990
 3359SOL    HW110637   3.322   0.211   2.017
 3359SOL    HW210638   3.422   0.312   2.070
 3360SOL     OW10639   3.157   0.827   1.895
 3360SOL    HW110640   3.198   0.741   1.897
 3360SOL    HW210641   3.187   0.866   1.813
 3361SOL     OW10642   2.926   1.335   2.714
 3361SOL    HW110643   2.929   1.261   2.653
 3361SOL    HW210644   2.990   1.398   2.679
 3362SOL     OW10645   2.172   0.810   2.811
 3362SOL    HW110646   2.265   0.833   2.804
 3362SOL    HW210647   2.171   0.721   2.846
 3363SOL     OW10648   2.199   0.528   2.874
 3363SOL    HW110649   2.157   0.444   2.855
 3363SOL    HW210650   2.274   0.531   2.815
 3364SOL     OW10651   2.997   0.375   3.554
 3364SOL    HW110652   2.950   0.440   3.606
 3364SOL    HW210653   3.084   0.414   3.540
 3365SOL     OW10654   3.023   0.210   3.336
 3365SOL    HW110655   3.014   0.274   3.406
 3365SOL    HW210656   3.056   0.261   3.262
 3366SOL     OW10657   1.867   1.323   2.057
 3366SOL    HW110658   1.779   1.336   2.020
 3366SOL    HW210659   1.865   1.233   2.090
 3367SOL     OW10660   1.959   1.786   2.792
 3367SOL    HW110661   1.928   1.704   2.753
 3367SOL    HW210662   2.046   1.799   2.756
 3368SOL     OW10663   2.359   1.573   2.766
 3368SOL    HW110664   2.428   1.635   2.791
 3368SOL    HW210665   2.405   1.507   2.714
 3369SOL     OW10666   2.850   0.795   3.091
 3369SOL    HW110667   2.902   0.769   3.167
 3369SOL    HW210668   2.764   0.757   3.107
 3370SOL     OW10669   1.896   0.541   2.980
 3370SOL    HW110670   1.976   0.522   2.930
 3370SOL    HW210671   1.926   0.549   3.070
 3371SOL     OW10672   2.047   0.517   3.581
 3371SOL    HW110673   2.119   0.496   3.522
 3371SOL    HW210674   2.004   0.592   3.541
 3372SOL     OW10675   3.238   0.941   3.522
 3372SOL    HW110676   3.258   1.035   3.522
 3372SOL    HW210677   3.236   0.918   3.429
 3373SOL     OW10678   2.674   0.573   2.214
 3373SOL    HW110679   2.677   0.500   2.152
 3373SOL    HW210680   2.599   0.626   2.186
 3374SOL     OW10681   3.504   0.601   3.052
 3374SOL    HW110682   3.493   0.541   3.125
 3374SOL    HW210683   3.591   0.581   3.017
 3375SOL     OW10684   2.114   1.552   3.596
 3375SOL    HW110685   2.082   1.613   3.663
 3375SOL    HW210686   2.108   1.466   3.638
 3376SOL     OW10687   2.554   0.460   3.128
 3376SOL    HW110688   2.510   0.382   3.094
 3376SOL    HW210689   2.557   0.520   3.053
 3377SOL     OW10690   2.792   1.679   3.328
 3377SOL    HW110691   2.766   1.648   3.241
 3377SOL    HW210692   2.793   1.774   3.321
 3378SOL     OW10693   2.329   0.493   2.047
 3378SOL    HW110694   2.387   0.567   2.068
 3378SOL    HW210695   2.243   0.533   2.039
 3379SOL     OW10696   2.010   1.140   3.333
 3379SOL    HW110697   2.016   1.085   3.412
 3379SOL    HW210698   2.027   1.079   3.261
 3380SOL     OW10699   3.192   1.049   3.087
 3380SOL    HW110700   3.215   0.986   3.019
 3380SOL    HW210701   3.119   1.099   3.050
 3381SOL     OW10702   3.171   0.856   2.169
 3381SOL    HW110703   3.094   0.827   2.219
 3381SOL    HW210704   3.147   0.843   2.078
 3382SOL     OW10705   3.630   1.747   3.010
 3382SOL    HW110706   3.690   1.773   2.940
 3382SOL    HW210707   3.606   1.657   2.990
 3383SOL     OW10708   3.104   1.733   2.980
 3383SOL    HW110709   3.185   1.750   2.932
 3383SOL    HW210710   3.106   1.639   2.997
 3384SOL     OW10711   1.946   1.265   2.876
 3384SOL    HW110712   1.933   1.277   2.970
 3384SOL    HW210713   1.871   1.213   2.847
 3385SOL     OW10714   2.541   1.663   3.586
 3385SOL    HW110715   2.490   1.744   3.583
 3385SOL    HW210716   2.603   1.671   3.514
 3386SOL     OW10717   3.580   0.130   2.360
 3386SOL    HW110718   3.654   0.134   2.300
 3386SOL    HW210719   3.599   0.056   2.417
 3387SOL     OW10720   3.252   1.568   2.345
 3387SOL    HW110721   3.312   1.599   2.277
 3387SOL    HW210722   3.205   1.646   2.372
 3388SOL     OW10723   1.993   1.802   3.708
 3388SOL    HW110724   1.944   1.733   3.753
 3388SOL    HW210725   2.046   1.843   3.776
 3389SOL     OW10726   3.140   0.926   2.534
 3389SOL    HW110727   3.212   0.863   2.537
 3389SOL    HW210728   3.174   0.998   2.482
 3390SOL     OW10729   2.681   1.272   3.293
 3390SOL    HW110730   2.655   1.310   3.377
 3390SOL    HW210731   2.609   1.293   3.233
 3391SOL     OW10732   2.535   1.616   2.015
 3391SOL    HW110733   2.543   1.625   1.920
 3391SOL    HW210734   2.481   1.538   2.028
 3392SOL     OW10735   3.496   1.727   3.255
 3392SOL    HW110736   3.542   1.734   3.171
 3392SOL    HW210737   3.482   1.817   3.283
 3393SOL     OW10738   3.701   0.155   2.829
 3393SOL    HW110739   3.732   0.080   2.779
 3393SOL    HW210740   3.614   0.175   2.793
 3394SOL     OW10741   2.129   0.325   2.582
 3394SOL    HW110742   2.044   0.358   2.553
 3394SOL    HW210743   2.120   0.314   2.677
 3395SOL     OW10744   3.068   1.608   1.893
 3395SOL    HW110745   3.059   1.517   1.921
 3395SOL    HW210746   3.003   1.618   1.823
 3396SOL     OW10747   2.686   1.006   3.234
 3396SOL    HW110748   2.728   1.002   3.148
 3396SOL    HW210749   2.687   1.098   3.258
 3397SOL     OW10750   2.777   0.910   2.151
 3397SOL    HW110751   2.840   0.941   2.086
 3397SOL    HW210752   2.823   0.839   2.196
 3398SOL     OW10753   3.357   1.624   1.904
 3398SOL    HW110754   3.262   1.621   1.893
 3398SOL    HW210755   3.391   1.630   1.815
 3399SOL     OW10756   2.232   1.300   3.354
 3399SOL    HW110757   2.219   1.378   3.301
 3399SOL    HW210758   2.154   1.246   3.337
 3400SOL     OW10759   3.474   1.283   3.143
 3400SOL    HW110760   3.532   1.276   3.219
 3400SOL    HW210761   3.413   1.353   3.167
 3401SOL     OW10762   2.910   1.105   2.567
 3401SOL    HW110763   2.839   1.054   2.607
 3401SOL    HW210764   2.971   1.039   2.533
 3402SOL     OW10765   2.870   0.241   2.858
 3402SOL    HW110766   2.877   0.211   2.767
 3402SOL    HW210767   2.863   0.160   2.909
 3403SOL     OW10768   2.462   1.490   2.344
 3403SOL    HW110769   2.502   1.438   2.274
 3403SOL    HW210770   2.400   1.547   2.298
 3404SOL     OW10771   3.581   0.393   3.240
 3404SOL    HW110772   3.653   0.456   3.238
 3404SOL    HW210773   3.611   0.321   3.184
 3405SOL     OW10774   2.120   1.347   2.148
 3405SOL    HW110775   2.027   1.345   2.127
 3405SOL    HW210776   2.123   1.384   2.237
 3406SOL     OW10777   1.974   1.017   3.581
 3406SOL    HW110778   1.898   0.995   3.635
 3406SOL    HW210779   2.049   0.982   3.629
 3407SOL     OW10780   2.521   0.203   3.358
 3407SOL    HW110781   2.602   0.179   3.312
 3407SOL    HW210782   2.550   0.222   3.448
 3408SOL     OW10783   1.942   0.344   1.908
 3408SOL    HW110784   1.870   0.293   1.872
 3408SOL    HW210785   1.959   0.412   1.843
 3409SOL     OW10786   3.294   0.858   3.264
 3409SOL    HW110787   3.245   0.917   3.206
 3409SOL    HW210788   3.384   0.861   3.230
 3410SOL     OW10789   1.928   0.179   2.185
 3410SOL    HW110790   1.924   0.246   2.116
 3410SOL    HW210791   2.004   0.125   2.161
 3411SOL     OW10792   3.042   1.342   1.979
 3411SOL    HW110793   2.951   1.312   1.982
 3411SOL    HW210794   3.071   1.341   2.070
 3412SOL     OW10795   2.480   0.831   3.294
 3412SOL    HW110796   2.535   0.908   3.280
 3412SOL    HW210797   2.542   0.759   3.303
 3413SOL     OW10798   3.347   1.774   2.837
 3413SOL    HW110799   3.373   1.831   2.764
 3413SOL    HW210800   3.428   1.759   2.886
 3414SOL     OW10801   2.578   0.564   3.569
 3414SOL    HW110802   2.612   0.629   3.630
 3414SOL    HW210803   2.616   0.481   3.598
 3415SOL     OW10804   3.330   1.204   3.495
 3415SOL    HW110805   3.318   1.216   3.589
 3415SOL    HW210806   3.424   1.215   3.481
 3416SOL     OW10807   2.247   1.740   3.428
 3416SOL    HW110808   2.159   1.773   3.410
 3416SOL    HW210809   2.233   1.654   3.468
 3417SOL     OW10810   3.534   0.882   3.118
 3417SOL    HW110811   3.524   0.797   3.075
 3417SOL    HW210812   3.525   0.946   3.047
 3418SOL     OW10813   3.080   0.327   2.310
 3418SOL    HW110814   3.145   0.258   2.301
 3418SOL    HW210815   3.106   0.374   2.389
 3419SOL     OW10816   2.451   0.741   2.530
 3419SOL    HW110817   2.493   0.825   2.513
 3419SOL    HW210818   2.382   0.734   2.464
 3420SOL     OW10819   3.629   0.360   3.504
 3420SOL    HW110820   3.611   0.374   3.411
 3420SOL    HW210821   3.550   0.317   3.537
 3421SOL     OW10822   3.606   0.933   3.375
 3421SOL    HW110823   3.608   1.028   3.388
 3421SOL    HW210824   3.591   0.922   3.281
 3422SOL     OW10825   2.724   1.369   1.891
 3422SOL    HW110826   2.685   1.394   1.975
 3422SOL    HW210827   2.744   1.452   1.848
 3423SOL     OW10828   2.525   1.784   2.808
 3423SOL    HW110829   2.503   1.874   2.786
 3423SOL    HW210830   2.621   1.781   2.805
 3424SOL     OW10831   2.728   0.965   2.718
 3424SOL    HW110832   2.778   0.894   2.758
 3424SOL    HW210833   2.695   1.016   2.792
 3425SOL     OW10834   2.942   0.988   1.951
 3425SOL    HW110835   2.920   1.038   1.872
 3425SOL    HW210836   3.018   0.935   1.925
 3426SOL     OW10837   3.719   1.557   2.707
 3426SOL    HW110838   3.642   1.545   2.651
 3426SOL    HW210839   3.711   1.488   2.774
 3427SOL     OW10840   2.086   1.304   3.718
 3427SOL    HW110841   2.018   1.244   3.689
 3427SOL    HW210842   2.070   1.317   3.811
 3428SOL     OW10843   1.947   1.236   2.525
 3428SOL    HW110844   1.947   1.187   2.607
 3428SOL    HW210845   2.015   1.195   2.472
 3429SOL     OW10846   2.541   1.400   3.487
 3429SOL    HW110847   2.462   1.356   3.517
 3429SOL    HW210848   2.536   1.488   3.525
 3430SOL     OW10849   3.673   0.184   3.101
 3430SOL    HW110850   3.673   0.091   3.122
 3430SOL    HW210851   3.688   0.187   3.006
 3431SOL     OW10852   2.296   0.433   2.389
 3431SOL    HW110853   2.320   0.363   2.329
 3431SOL    HW210854   2.243   0.390   2.456
 3432SOL     OW10855   3.563   1.491   2.963
 3432SOL    HW110856   3.482   1.465   2.919
 3432SOL    HW210857   3.578   1.423   3.028
 3433SOL     OW10858   2.189   0.554   3.153
 3433SOL    HW110859   2.245   0.498   3.207
 3433SOL    HW210860   2.210   0.528   3.063
 3434SOL     OW10861   2.687   1.578   2.541
 3434SOL    HW110862   2.681   1.621   2.456
 3434SOL    HW210863   2.608   1.523   2.547
 3435SOL     OW10864   3.294   0.215   2.980
 3435SOL    HW110865   3.331   0.146   3.034
 3435SOL    HW210866   3.243   0.268   3.041
 3436SOL     OW10867   2.860   0.013   3.010
 3436SOL    HW110868   2.813   4.430   3.000
 3436SOL    HW210869   2.951   4.488   3.023
 3437SOL     OW10870   2.634   1.332   2.172
 3437SOL    HW110871   2.599   1.243   2.179
 3437SOL    HW210872   2.716   1.329   2.221
 3438SOL     OW10873   2.482   1.559   3.146
 3438SOL    HW110874   2.485   1.640   3.197
 3438SOL    HW210875   2.569   1.552   3.107
 3439SOL     OW10876   3.205   0.054   2.013
 3439SOL    HW110877   3.244   4.479   1.968
 3439SOL    HW210878   3.129   0.017   2.060
 3440SOL     OW10879   3.176   0.463   2.543
 3440SOL    HW110880   3.113   0.535   2.544
 3440SOL    HW210881   3.164   0.419   2.628
 3441SOL     OW10882   3.448   0.203   2.729
 3441SOL    HW110883   3.386   0.217   2.802
 3441SOL    HW210884   3.451   0.287   2.684
 3442SOL     OW10885   1.906   1.074   2.166
 3442SOL    HW110886   1.999   1.064   2.150
 3442SOL    HW210887   1.876   0.986   2.190
 3443SOL     OW10888   2.742   1.649   2.207
 3443SOL    HW110889   2.672   1.631   2.145
 3443SOL    HW210890   2.712   1.726   2.256
 3444SOL     OW10891   2.092   0.627   3.843
 3444SOL    HW110892   2.004   0.621   3.880
 3444SOL    HW210893   2.083   0.595   3.754
 3445SOL     OW10894   2.072   0.295   4.712
 3445SOL    HW110895   2.103   0.269   4.799
 3445SOL    HW210896   1.990   0.248   4.701
 3446SOL     OW10897   1.871   0.383   4.364
 3446SOL    HW110898   1.784   0.404   4.400
 3446SOL    HW210899   1.855   0.308   4.306
 3447SOL     OW10900   2.421   1.265   4.896
 3447SOL    HW110901   2.338   1.277   4.849
 3447SOL    HW210902   2.443   1.352   4.930
 3448SOL     OW10903   3.418   1.511   4.429
 3448SOL    HW110904   3.375   1.495   4.513
 3448SOL    HW210905   3.347   1.517   4.366
 3449SOL     OW10906   2.993   0.700   4.426
 3449SOL    HW110907   3.042   0.781   4.414
 3449SOL    HW210908   2.944   0.713   4.507
 3450SOL     OW10909   3.627   0.609   3.954
 3450SOL    HW110910   3.608   0.597   3.861
 3450SOL    HW210911   3.594   0.529   3.995
 3451SOL     OW10912   2.621   1.139   4.763
 3451SOL    HW110913   2.548   1.171   4.817
 3451SOL    HW210914   2.653   1.217   4.718
 3452SOL     OW10915   2.723   0.781   5.545
 3452SOL    HW110916   2.713   0.853   5.607
 3452SOL    HW210917   2.747   0.824   5.463
 3453SOL     OW10918   2.549   1.007   4.373
 3453SOL    HW110919   2.613   0.992   4.443
 3453SOL    HW210920   2.478   1.056   4.415
 3454SOL     OW10921   2.569   1.151   5.532
 3454SOL    HW110922   2.617   1.230   5.559
 3454SOL    HW210923   2.485   1.185   5.500
 3455SOL     OW10924   2.209   1.401   4.785
 3455SOL    HW110925   2.124   1.376   4.749
 3455SOL    HW210926   2.242   1.468   4.725
 3456SOL     OW10927   3.324   1.497   5.075
 3456SOL    HW110928   3.362   1.584   5.082
 3456SOL    HW210929   3.266   1.489   5.150
 3457SOL     OW10930   2.302   0.396   5.217
 3457SOL    HW110931   2.384   0.346   5.218
 3457SOL    HW210932   2.234   0.330   5.228
 3458SOL     OW10933   3.475   0.448   4.462
 3458SOL    HW110934   3.394   0.473   4.416
 3458SOL    HW210935   3.497   0.525   4.514
 3459SOL     OW10936   2.082   1.718   4.200
 3459SOL    HW110937   2.114   1.791   4.253
 3459SOL    HW210938   2.151   1.704   4.135
 3460SOL     OW10939   3.002   1.335   5.413
 3460SOL    HW110940   3.040   1.334   5.501
 3460SOL    HW210941   2.947   1.256   5.410
 3461SOL     OW10942   2.090   1.440   4.256
 3461SOL    HW110943   2.071   1.533   4.267
 3461SOL    HW210944   2.031   1.396   4.317
 3462SOL     OW10945   2.113   1.088   4.612
 3462SOL    HW110946   2.114   1.002   4.655
 3462SOL    HW210947   2.058   1.142   4.669
 3463SOL     OW10948   2.452   0.979   3.856
 3463SOL    HW110949   2.494   1.032   3.788
 3463SOL    HW210950   2.493   1.007   3.937
 3464SOL     OW10951   3.448   0.114   5.199
 3464SOL    HW110952   3.458   0.182   5.132
 3464SOL    HW210953   3.437   0.162   5.281
 3465SOL     OW10954   1.977   0.651   4.284
 3465SOL    HW110955   1.948   0.562   4.305
 3465SOL    HW210956   1.968   0.700   4.365
 3466SOL     OW10957   3.703   1.761   4.060
 3466SOL    HW110958   3.761   1.732   4.131
 3466SOL    HW210959   3.731   1.851   4.043
 3467SOL     OW10960   1.893   1.597   3.848
 3467SOL    HW110961   1.875   1.504   3.866
 3467SOL    HW210962   1.866   1.642   3.928
 3468SOL     OW10963   3.553   0.920   4.361
 3468SOL    HW110964   3.638   0.881   4.343
 3468SOL    HW210965   3.532   0.969   4.282
 3469SOL     OW10966   3.507   1.108   4.153
 3469SOL    HW110967   3.592   1.117   4.111
 3469SOL    HW210968   3.511   1.168   4.228
 3470SOL     OW10969   1.983   0.743   5.311
 3470SOL    HW110970   2.075   0.765   5.326
 3470SOL    HW210971   1.937   0.826   5.315
 3471SOL     OW10972   2.487   1.365   4.448
 3471SOL    HW110973   2.435   1.286   4.459
 3471SOL    HW210974   2.464   1.397   4.361
 3472SOL     OW10975   3.158   1.234   5.152
 3472SOL    HW110976   3.191   1.168   5.091
 3472SOL    HW210977   3.215   1.227   5.229
 3473SOL     OW10978   2.676   0.011   4.268
 3473SOL    HW110979   2.710   0.098   4.246
 3473SOL    HW210980   2.581   0.020   4.262
 3474SOL     OW10981   2.053   0.968   4.995
 3474SOL    HW110982   2.137   0.926   4.978
 3474SOL    HW210983   1.989   0.914   4.948
 3475SOL     OW10984   3.394   0.991   3.920
 3475SOL    HW110985   3.324   0.933   3.950
 3475SOL    HW210986   3.433   1.025   4.001
 3476SOL     OW10987   3.065   1.797   5.346
 3476SOL    HW110988   3.062   1.861   5.276
 3476SOL    HW210989   3.074   1.713   5.302
 3477SOL     OW10990   2.177   0.255   5.506
 3477SOL    HW110991   2.241   0.319   5.537
 3477SOL    HW210992   2.103   0.264   5.565
 3478SOL     OW10993   3.331   1.418   4.679
 3478SOL    HW110994   3.261   1.433   4.743
 3478SOL    HW210995   3.318   1.328   4.650
 3479SOL     OW10996   3.525   1.732   4.301
 3479SOL    HW110997   3.499   1.704   4.213
 3479SOL    HW210998   3.497   1.660   4.358
 3480SOL     OW10999   2.456   0.724   3.988
 3480SOL    HW111000   2.465   0.804   3.936
 3480SOL    HW211001   2.391   0.745   4.055
 3481SOL     OW11002   3.152   0.357   4.658
 3481SOL    HW111003   3.063   0.326   4.643
 3481SOL    HW211004   3.189   0.295   4.721
 3482SOL     OW11005   3.443   1.669   4.033
 3482SOL    HW111006   3.533   1.703   4.027
 3482SOL    HW211007   3.419   1.651   3.942
 3483SOL     OW11008   2.658   0.617   5.179
 3483SOL    HW111009   2.629   0.594   5.267
 3483SOL    HW211010   2.615   0.553   5.122
 3484SOL     OW11011   3.251   0.478   5.400
 3484SOL    HW111012   3.253   0.521   5.485
 3484SOL    HW211013   3.318   0.410   5.407
 3485SOL     OW11014   2.820   0.889   5.304
 3485SOL    HW111015   2.874   0.817   5.271
 3485SOL    HW211016   2.773   0.921   5.228
 3486SOL     OW11017   2.857   0.416   4.963
 3486SOL    HW111018   2.772   0.431   5.004
 3486SOL    HW211019   2.837   0.366   4.884
 3487SOL     OW11020   2.911   0.698   4.152
 3487SOL    HW111021   2.926   0.691   4.246
 3487SOL    HW211022   2.829   0.651   4.137
 3488SOL     OW11023   1.950   0.820   4.500
 3488SOL    HW111024   2.032   0.813   4.549
 3488SOL    HW211025   1.908   0.898   4.534
 3489SOL     OW11026   2.716   0.368   3.902
 3489SOL    HW111027   2.791   0.404   3.856
 3489SOL    HW211028   2.734   0.274   3.908
 3490SOL     OW11029   3.569   0.576   5.552
 3490SOL    HW111030   3.534   0.653   5.508
 3490SOL    HW211031   3.600   0.520   5.481
 3491SOL     OW11032   3.237   1.142   4.266
 3491SOL    HW111033   3.315   1.129   4.213
 3491SOL    HW211034   3.184   1.205   4.216
 3492SOL     OW11035   2.402   0.201   4.625
 3492SOL    HW111036   2.421   0.219   4.717
 3492SOL    HW211037   2.393   0.288   4.585
 3493SOL     OW11038   2.870   1.445   4.197
 3493SOL    HW111039   2.830   1.517   4.149
 3493SOL    HW211040   2.859   1.468   4.289
 3494SOL     OW11041   3.659   1.061   4.591
 3494SOL    HW111042   3.602   1.044   4.516
 3494SOL    HW211043   3.600   1.066   4.666
 3495SOL     OW11044   3.094   1.535   5.233
 3495SOL    HW111045   3.077   1.462   5.291
 3495SOL    HW211046   3.027   1.528   5.165
 3496SOL     OW11047   2.183   0.955   3.971
 3496SOL    HW111048   2.266   0.974   3.926
 3496SOL    HW211049   2.153   0.873   3.932
 3497SOL     OW11050   3.339   0.738   4.449
 3497SOL    HW111051   3.324   0.692   4.532
 3497SOL    HW211052   3.414   0.795   4.466
 3498SOL     OW11053   2.327   1.267   5.464
 3498SOL    HW111054   2.299   1.270   5.372
 3498SOL    HW211055   2.246   1.259   5.513
 3499SOL     OW11056   2.982   1.779   3.954
 3499SOL    HW111057   2.913   1.735   4.003
 3499SOL    HW211058   3.004   1.718   3.884
 3500SOL     OW11059   2.051   0.268   5.232
 3500SOL    HW111060   1.985   0.335   5.214
 3500SOL    HW211061   2.059   0.267   5.327
 3501SOL     OW11062   3.492   1.379   3.810
 3501SOL    HW111063   3.451   1.464   3.796
 3501SOL    HW211064   3.422   1.315   3.792
 3502SOL     OW11065   2.329   1.738   4.044
 3502SOL    HW111066   2.371   1.794   4.110
 3502SOL    HW211067   2.400   1.707   3.989
 3503SOL     OW11068   3.278   0.131   4.143
 3503SOL    HW111069   3.260   0.084   4.061
 3503SOL    HW211070   3.373   0.129   4.152
 3504SOL     OW11071   2.832   1.675   4.612
 3504SOL    HW111072   2.903   1.613   4.630
 3504SOL    HW211073   2.778   1.631   4.546
 3505SOL     OW11074   2.252   0.695   4.201
 3505SOL    HW111075   2.277   0.603   4.211
 3505SOL    HW211076   2.158   0.697   4.221
 3506SOL     OW11077   3.389   0.232   5.446
 3506SOL    HW111078   3.387   0.256   5.539
 3506SOL    HW211079   3.313   0.174   5.435
 3507SOL     OW11080   2.485   0.122   3.844
 3507SOL    HW111081   2.574   0.088   3.853
 3507SOL    HW211082   2.454   0.089   3.760
 3508SOL     OW11083   2.632   0.270   5.476
 3508SOL    HW111084   2.697   0.202   5.494
 3508SOL    HW211085   2.583   0.280   5.558
 3509SOL     OW11086   2.786   1.510   4.930
 3509SOL    HW111087   2.763   1.478   4.843
 3509SOL    HW211088   2.843   1.442   4.966
 3510SOL     OW11089   3.204   0.589   5.154
 3510SOL    HW111090   3.232   0.559   5.240
 3510SOL    HW211091   3.238   0.678   5.147
 3511SOL     OW11092   2.676   1.380   4.651
 3511SOL    HW111093   2.764   1.379   4.612
 3511SOL    HW211094   2.616   1.379   4.577
 3512SOL     OW11095   2.784   0.514   4.626
 3512SOL    HW111096   2.768   0.513   4.532
 3512SOL    HW211097   2.826   0.430   4.645
 3513SOL     OW11098   2.414   0.071   4.243
 3513SOL    HW111099   2.324   0.050   4.268
 3513SOL    HW211100   2.405   0.141   4.177
 3514SOL     OW11101   3.291   1.197   3.765
 3514SOL    HW111102   3.321   1.122   3.815
 3514SOL    HW211103   3.205   1.217   3.803
 3515SOL     OW11104   2.158   0.071   3.915
 3515SOL    HW111105   2.236   0.123   3.897
 3515SOL    HW211106   2.190   4.499   3.970
 3516SOL     OW11107   2.811   0.240   4.196
 3516SOL    HW111108   2.759   0.288   4.132
 3516SOL    HW211109   2.900   0.275   4.187
 3517SOL     OW11110   2.942   0.679   5.186
 3517SOL    HW111111   2.869   0.616   5.186
 3517SOL    HW211112   3.020   0.626   5.173
 3518SOL     OW11113   3.095   1.561   4.513
 3518SOL    HW111114   3.103   1.636   4.454
 3518SOL    HW211115   3.155   1.582   4.585
 3519SOL     OW11116   2.328   1.145   4.461
 3519SOL    HW111117   2.257   1.129   4.523
 3519SOL    HW211118   2.289   1.128   4.375
 3520SOL     OW11119   3.133   1.793   4.329
 3520SOL    HW111120   3.173   1.861   4.273
 3520SOL    HW211121   3.061   1.838   4.373
 3521SOL     OW11122   2.893   0.549   3.738
 3521SOL    HW111123   2.845   0.631   3.723
 3521SOL    HW211124   2.951   0.569   3.812
 3522SOL     OW11125   1.941   0.552   5.118
 3522SOL    HW111126   2.032   0.554   5.087
 3522SOL    HW211127   1.935   0.624   5.181
 3523SOL     OW11128   2.426   0.241   4.888
 3523SOL    HW111129   2.454   0.157   4.925
 3523SOL    HW211130   2.335   0.249   4.914
 3524SOL     OW11131   2.728   0.500   4.350
 3524SOL    HW111132   2.677   0.542   4.282
 3524SOL    HW211133   2.714   0.406   4.337
 3525SOL     OW11134   2.833   0.032   4.498
 3525SOL    HW111135   2.784   0.027   4.416
 3525SOL    HW211136   2.842   4.441   4.526
 3526SOL     OW11137   3.299   1.163   4.582
 3526SOL    HW111138   3.229   1.096   4.581
 3526SOL    HW211139   3.319   1.178   4.490
 3527SOL     OW11140   3.330   0.602   4.703
 3527SOL    HW111141   3.279   0.521   4.707
 3527SOL    HW211142   3.389   0.597   4.779
 3528SOL     OW11143   3.710   0.819   4.105
 3528SOL    HW111144   3.765   0.767   4.163
 3528SOL    HW211145   3.680   0.758   4.038
 3529SOL     OW11146   2.354   1.414   3.885
 3529SOL    HW111147   2.279   1.384   3.936
 3529SOL    HW211148   2.334   1.387   3.796
 3530SOL     OW11149   3.530   1.266   4.371
 3530SOL    HW111150   3.625   1.272   4.386
 3530SOL    HW211151   3.497   1.353   4.394
 3531SOL     OW11152   3.256   0.570   3.794
 3531SOL    HW111153   3.195   0.554   3.866
 3531SOL    HW211154   3.342   0.548   3.830
 3532SOL     OW11155   2.386   0.265   4.049
 3532SOL    HW111156   2.429   0.212   3.981
 3532SOL    HW211157   2.371   0.350   4.007
 3533SOL     OW11158   3.616   1.235   5.301
 3533SOL    HW111159   3.704   1.197   5.298
 3533SOL    HW211160   3.630   1.325   5.330
 3534SOL     OW11161   2.930   1.331   5.059
 3534SOL    HW111162   2.857   1.309   5.116
 3534SOL    HW211163   3.007   1.298   5.106
 3535SOL     OW11164   3.469   1.624   5.376
 3535SOL    HW111165   3.464   1.659   5.287
 3535SOL    HW211166   3.552   1.578   5.380
 3536SOL     OW11167   2.987   1.194   4.827
 3536SOL    HW111168   2.935   1.234   4.897
 3536SOL    HW211169   2.951   1.232   4.747
 3537SOL     OW11170   3.493   1.100   4.803
 3537SOL    HW111171   3.489   1.163   4.875
 3537SOL    HW211172   3.413   1.115   4.753
 3538SOL     OW11173   2.767   0.129   5.115
 3538SOL    HW111174   2.789   0.086   5.032
 3538SOL    HW211175   2.851   0.143   5.159
 3539SOL     OW11176   2.846   1.113   5.447
 3539SOL    HW111177   2.753   1.129   5.465
 3539SOL    HW211178   2.846   1.036   5.390
 3540SOL     OW11179   2.570   1.060   4.096
 3540SOL    HW111180   2.557   1.046   4.190
 3540SOL    HW211181   2.646   1.007   4.074
 3541SOL     OW11182   2.278   0.814   4.976
 3541SOL    HW111183   2.349   0.823   5.040
 3541SOL    HW211184   2.244   0.726   4.990
 3542SOL     OW11185   3.131   0.377   4.995
 3542SOL    HW111186   3.163   0.455   5.041
 3542SOL    HW211187   3.043   0.400   4.967
 3543SOL     OW11188   2.215   1.106   4.216
 3543SOL    HW111189   2.220   1.179   4.154
 3543SOL    HW211190   2.215   1.028   4.160
 3544SOL     OW11191   2.420   0.533   4.583
 3544SOL    HW111192   2.435   0.591   4.509
 3544SOL    HW211193   2.481   0.563   4.651
 3545SOL     OW11194   3.110   1.348   4.113
 3545SOL    HW111195   3.165   1.420   4.144
 3545SOL    HW211196   3.023   1.368   4.147
 3546SOL     OW11197   3.140   1.451   4.868
 3546SOL    HW111198   3.192   1.459   4.947
 3546SOL    HW211199   3.082   1.376   4.884
 3547SOL     OW11200   3.445   0.626   4.199
 3547SOL    HW111201   3.401   0.679   4.265
 3547SOL    HW211202   3.490   0.689   4.143
 3548SOL     OW11203   2.274   0.744   5.326
 3548SOL    HW111204   2.334   0.791   5.267
 3548SOL    HW211205   2.318   0.660   5.343
 3549SOL     OW11206   3.459   0.777   5.402
 3549SOL    HW111207   3.373   0.818   5.395
 3549SOL    HW211208   3.512   0.819   5.334
 3550SOL     OW11209   2.870   0.086   5.452
 3550SOL    HW111210   2.889   0.171   5.412
 3550SOL    HW211211   2.896   0.022   5.386
 3551SOL     OW11212   2.361   0.049   5.479
 3551SOL    HW111213   2.349   0.001   5.397
 3551SOL    HW211214   2.293   0.116   5.479
 3552SOL     OW11215   2.444   0.872   4.755
 3552SOL    HW111216   2.475   0.963   4.751
 3552SOL    HW211217   2.387   0.870   4.832
 3553SOL     OW11218   3.223   0.858   4.758
 3553SOL    HW111219   3.142   0.853   4.708
 3553SOL    HW211220   3.259   0.770   4.754
 3554SOL     OW11221   3.069   0.534   3.991
 3554SOL    HW111222   3.075   0.454   4.042
 3554SOL    HW211223   3.027   0.597   4.049
 3555SOL     OW11224   2.152   0.236   4.964
 3555SOL    HW111225   2.112   0.251   5.049
 3555SOL    HW211226   2.181   0.144   4.967
 3556SOL     OW11227   1.896   1.325   5.022
 3556SOL    HW111228   1.941   1.262   5.078
 3556SOL    HW211229   1.961   1.393   5.005
 3557SOL     OW11230   2.587   0.632   4.784
 3557SOL    HW111231   2.659   0.612   4.725
 3557SOL    HW211232   2.560   0.721   4.761
 3558SOL     OW11233   3.595   0.958   5.575
 3558SOL    HW111234   3.546   0.905   5.512
 3558SOL    HW211235   3.535   0.970   5.649
 3559SOL     OW11236   2.161   0.060   4.377
 3559SOL    HW111237   2.151   0.155   4.382
 3559SOL    HW211238   2.173   0.032   4.468
 3560SOL     OW11239   3.472   0.374   4.091
 3560SOL    HW111240   3.504   0.312   4.156
 3560SOL    HW211241   3.451   0.453   4.141
 3561SOL     OW11242   2.890   0.761   4.686
 3561SOL    HW111243   2.889   0.778   4.781
 3561SOL    HW211244   2.861   0.670   4.679
 3562SOL     OW11245   2.852   1.555   5.438
 3562SOL    HW111246   2.837   1.601   5.356
 3562SOL    HW211247   2.897   1.475   5.412
 3563SOL     OW11248   3.719   1.508   5.330
 3563SOL    HW111249   3.733   1.534   5.239
 3563SOL    HW211250   3.800   1.531   5.375
 3564SOL     OW11251   2.216   0.918   5.529
 3564SOL    HW111252   2.297   0.933   5.577
 3564SOL    HW211253   2.239   0.854   5.462
 3565SOL     OW11254   3.394   0.268   3.852
 3565SOL    HW111255   3.322   0.211   3.879
 3565SOL    HW211256   3.422   0.312   3.932
 3566SOL     OW11257   3.157   0.827   3.757
 3566SOL    HW111258   3.198   0.741   3.759
 3566SOL    HW211259   3.187   0.866   3.675
 3567SOL     OW11260   2.932   1.335   4.575
 3567SOL    HW111261   2.933   1.262   4.514
 3567SOL    HW211262   2.997   1.397   4.540
 3568SOL     OW11263   2.173   0.810   4.673
 3568SOL    HW111264   2.265   0.833   4.666
 3568SOL    HW211265   2.172   0.721   4.708
 3569SOL     OW11266   2.199   0.528   4.737
 3569SOL    HW111267   2.157   0.444   4.717
 3569SOL    HW211268   2.275   0.531   4.678
 3570SOL     OW11269   2.997   0.375   5.416
 3570SOL    HW111270   2.950   0.440   5.468
 3570SOL    HW211271   3.084   0.414   5.402
 3571SOL     OW11272   3.023   0.210   5.198
 3571SOL    HW111273   3.014   0.274   5.268
 3571SOL    HW211274   3.056   0.261   5.124
 3572SOL     OW11275   1.867   1.323   3.919
 3572SOL    HW111276   1.779   1.336   3.882
 3572SOL    HW211277   1.865   1.233   3.952
 3573SOL     OW11278   2.348   1.548   4.586
 3573SOL    HW111279   2.407   1.603   4.636
 3573SOL    HW211280   2.404   1.481   4.546
 3574SOL     OW11281   2.851   0.794   4.953
 3574SOL    HW111282   2.903   0.769   5.030
 3574SOL    HW211283   2.764   0.757   4.970
 3575SOL     OW11284   1.896   0.541   4.842
 3575SOL    HW111285   1.975   0.523   4.791
 3575SOL    HW211286   1.927   0.549   4.932
 3576SOL     OW11287   2.047   0.517   5.444
 3576SOL    HW111288   2.119   0.495   5.384
 3576SOL    HW211289   2.004   0.592   5.403
 3577SOL     OW11290   3.238   0.941   5.384
 3577SOL    HW111291   3.259   1.034   5.384
 3577SOL    HW211292   3.235   0.918   5.291
 3578SOL     OW11293   2.674   0.572   4.077
 3578SOL    HW111294   2.677   0.500   4.014
 3578SOL    HW211295   2.599   0.626   4.049
 3579SOL     OW11296   3.504   0.601   4.914
 3579SOL    HW111297   3.493   0.541   4.987
 3579SOL    HW211298   3.591   0.581   4.879
 3580SOL     OW11299   2.076   1.547   5.476
 3580SOL    HW111300   2.103   1.605   5.548
 3580SOL    HW211301   2.095   1.459   5.507
 3581SOL     OW11302   2.553   0.460   4.990
 3581SOL    HW111303   2.510   0.382   4.956
 3581SOL    HW211304   2.557   0.520   4.915
 3582SOL     OW11305   2.809   1.659   5.183
 3582SOL    HW111306   2.795   1.642   5.090
 3582SOL    HW211307   2.806   1.754   5.191
 3583SOL     OW11308   2.329   0.493   3.910
 3583SOL    HW111309   2.387   0.567   3.930
 3583SOL    HW211310   2.243   0.533   3.901
 3584SOL     OW11311   2.015   1.141   5.193
 3584SOL    HW111312   2.016   1.088   5.273
 3584SOL    HW211313   2.028   1.078   5.123
 3585SOL     OW11314   3.192   1.048   4.949
 3585SOL    HW111315   3.216   0.986   4.881
 3585SOL    HW211316   3.119   1.098   4.912
 3586SOL     OW11317   3.171   0.856   4.031
 3586SOL    HW111318   3.095   0.827   4.081
 3586SOL    HW211319   3.147   0.843   3.939
 3587SOL     OW11320   3.629   1.747   4.872
 3587SOL    HW111321   3.690   1.772   4.801
 3587SOL    HW211322   3.605   1.657   4.852
 3588SOL     OW11323   3.129   1.736   4.860
 3588SOL    HW111324   3.197   1.743   4.794
 3588SOL    HW211325   3.107   1.642   4.861
 3589SOL     OW11326   1.952   1.253   4.754
 3589SOL    HW111327   1.920   1.274   4.842
 3589SOL    HW211328   1.872   1.234   4.704
 3590SOL     OW11329   3.580   0.130   4.222
 3590SOL    HW111330   3.654   0.134   4.162
 3590SOL    HW211331   3.599   0.056   4.279
 3591SOL     OW11332   3.251   1.568   4.205
 3591SOL    HW111333   3.312   1.601   4.139
 3591SOL    HW211334   3.205   1.646   4.236
 3592SOL     OW11335   3.140   0.925   4.396
 3592SOL    HW111336   3.213   0.863   4.399
 3592SOL    HW211337   3.173   0.998   4.344
 3593SOL     OW11338   2.684   1.267   5.159
 3593SOL    HW111339   2.657   1.310   5.240
 3593SOL    HW211340   2.616   1.290   5.095
 3594SOL     OW11341   2.532   1.618   3.879
 3594SOL    HW111342   2.543   1.627   3.785
 3594SOL    HW211343   2.480   1.538   3.890
 3595SOL     OW11344   3.500   1.727   5.118
 3595SOL    HW111345   3.542   1.736   5.033
 3595SOL    HW211346   3.483   1.817   5.146
 3596SOL     OW11347   3.701   0.155   4.691
 3596SOL    HW111348   3.731   0.080   4.641
 3596SOL    HW211349   3.614   0.175   4.655
 3597SOL     OW11350   2.129   0.325   4.444
 3597SOL    HW111351   2.044   0.359   4.415
 3597SOL    HW211352   2.120   0.314   4.539
 3598SOL     OW11353   3.068   1.608   3.755
 3598SOL    HW111354   3.060   1.517   3.783
 3598SOL    HW211355   3.003   1.617   3.685
 3599SOL     OW11356   2.686   1.004   5.094
 3599SOL    HW111357   2.729   1.001   5.009
 3599SOL    HW211358   2.689   1.096   5.120
 3600SOL     OW11359   2.777   0.910   4.013
 3600SOL    HW111360   2.840   0.941   3.948
 3600SOL    HW211361   2.823   0.839   4.058
 3601SOL     OW11362   3.357   1.624   3.766
 3601SOL    HW111363   3.262   1.620   3.755
 3601SOL    HW211364   3.391   1.630   3.677
 3602SOL     OW11365   2.232   1.304   5.218
 3602SOL    HW111366   2.220   1.376   5.157
 3602SOL    HW211367   2.160   1.243   5.199
 3603SOL     OW11368   3.475   1.283   5.006
 3603SOL    HW111369   3.533   1.276   5.082
 3603SOL    HW211370   3.413   1.353   5.028
 3604SOL     OW11371   2.910   1.105   4.428
 3604SOL    HW111372   2.840   1.054   4.469
 3604SOL    HW211373   2.971   1.039   4.395
 3605SOL     OW11374   2.869   0.241   4.720
 3605SOL    HW111375   2.877   0.211   4.629
 3605SOL    HW211376   2.863   0.160   4.771
 3606SOL     OW11377   2.463   1.490   4.205
 3606SOL    HW111378   2.504   1.438   4.136
 3606SOL    HW211379   2.396   1.541   4.160
 3607SOL     OW11380   3.581   0.393   5.102
 3607SOL    HW111381   3.653   0.456   5.100
 3607SOL    HW211382   3.611   0.321   5.046
 3608SOL     OW11383   2.120   1.348   4.010
 3608SOL    HW111384   2.027   1.345   3.988
 3608SOL    HW211385   2.123   1.383   4.099
 3609SOL     OW11386   1.974   1.022   5.444
 3609SOL    HW111387   1.898   0.997   5.496
 3609SOL    HW211388   2.048   0.984   5.490
 3610SOL     OW11389   2.521   0.203   5.220
 3610SOL    HW111390   2.602   0.179   5.174
 3610SOL    HW211391   2.550   0.222   5.310
 3611SOL     OW11392   1.942   0.344   3.770
 3611SOL    HW111393   1.869   0.293   3.733
 3611SOL    HW211394   1.959   0.412   3.705
 3612SOL     OW11395   3.294   0.858   5.125
 3612SOL    HW111396   3.245   0.917   5.068
 3612SOL    HW211397   3.384   0.862   5.092
 3613SOL     OW11398   1.928   0.179   4.047
 3613SOL    HW111399   1.924   0.246   3.978
 3613SOL    HW211400   2.004   0.125   4.023
 3614SOL     OW11401   3.042   1.342   3.841
 3614SOL    HW111402   2.951   1.311   3.845
 3614SOL    HW211403   3.071   1.342   3.932
 3615SOL     OW11404   2.480   0.831   5.157
 3615SOL    HW111405   2.535   0.908   5.141
 3615SOL    HW211406   2.542   0.759   5.165
 3616SOL     OW11407   3.351   1.770   4.692
 3616SOL    HW111408   3.377   1.832   4.623
 3616SOL    HW211409   3.428   1.760   4.747
 3617SOL     OW11410   2.578   0.564   5.431
 3617SOL    HW111411   2.612   0.629   5.492
 3617SOL    HW211412   2.616   0.481   5.460
 3618SOL     OW11413   3.333   1.201   5.359
 3618SOL    HW111414   3.320   1.216   5.452
 3618SOL    HW211415   3.426   1.216   5.344
 3619SOL     OW11416   3.534   0.882   4.980
 3619SOL    HW111417   3.524   0.797   4.936
 3619SOL    HW211418   3.525   0.946   4.909
 3620SOL     OW11419   3.080   0.327   4.172
 3620SOL    HW111420   3.145   0.257   4.163
 3620SOL    HW211421   3.106   0.374   4.251
 3621SOL     OW11422   2.451   0.740   4.392
 3621SOL    HW111423   2.493   0.825   4.376
 3621SOL    HW211424   2.382   0.734   4.326
 3622SOL     OW11425   3.629   0.360   5.367
 3622SOL    HW111426   3.612   0.374   5.273
 3622SOL    HW211427   3.550   0.317   5.399
 3623SOL     OW11428   3.606   0.933   5.237
 3623SOL    HW111429   3.607   1.028   5.250
 3623SOL    HW211430   3.591   0.922   5.143
 3624SOL     OW11431   2.723   1.368   3.753
 3624SOL    HW111432   2.686   1.393   3.838
 3624SOL    HW211433   2.744   1.452   3.711
 3625SOL     OW11434   2.728   0.964   4.580
 3625SOL    HW111435   2.779   0.894   4.620
 3625SOL    HW211436   2.696   1.016   4.654
 3626SOL     OW11437   2.942   0.988   3.813
 3626SOL    HW111438   2.920   1.038   3.734
 3626SOL    HW211439   3.018   0.935   3.787
 3627SOL     OW11440   3.719   1.556   4.569
 3627SOL    HW111441   3.641   1.546   4.514
 3627SOL    HW211442   3.709   1.490   4.637
 3628SOL     OW11443   2.087   1.296   5.584
 3628SOL    HW111444   2.021   1.235   5.550
 3628SOL    HW211445   2.058   1.314   5.674
 3629SOL     OW11446   1.948   1.236   4.388
 3629SOL    HW111447   1.946   1.185   4.469
 3629SOL    HW211448   2.016   1.194   4.335
 3630SOL     OW11449   2.536   1.401   5.338
 3630SOL    HW111450   2.463   1.358   5.382
 3630SOL    HW211451   2.537   1.489   5.376
 3631SOL     OW11452   3.673   0.184   4.963
 3631SOL    HW111453   3.672   0.090   4.984
 3631SOL    HW211454   3.688   0.187   4.869
 3632SOL     OW11455   2.296   0.433   4.251
 3632SOL    HW111456   2.320   0.363   4.191
 3632SOL    HW211457   2.243   0.390   4.318
 3633SOL     OW11458   3.564   1.491   4.824
 3633SOL    HW111459   3.483   1.467   4.780
 3633SOL    HW211460   3.577   1.423   4.890
 3634SOL     OW11461   2.189   0.554   5.015
 3634SOL    HW111462   2.245   0.498   5.069
 3634SOL    HW211463   2.210   0.528   4.925
 3635SOL     OW11464   2.686   1.574   4.403
 3635SOL    HW111465   2.682   1.622   4.321
 3635SOL    HW211466   2.608   1.519   4.403
 3636SOL     OW11467   3.294   0.215   4.842
 3636SOL    HW111468   3.331   0.146   4.896
 3636SOL    HW211469   3.243   0.268   4.903
 3637SOL     OW11470   2.860   0.013   4.872
 3637SOL    HW111471   2.814   4.430   4.862
 3637SOL    HW211472   2.951   4.488   4.885
 3638SOL     OW11473   2.634   1.332   4.033
 3638SOL    HW111474   2.600   1.243   4.041
 3638SOL    HW211475   2.715   1.331   4.083
 3639SOL     OW11476   3.205   0.054   3.875
 3639SOL    HW111477   3.244   4.479   3.830
 3639SOL    HW211478   3.129   0.017   3.922
 3640SOL     OW11479   3.176   0.462   4.405
 3640SOL    HW111480   3.114   0.535   4.406
 3640SOL    HW211481   3.164   0.419   4.490
 3641SOL     OW11482   3.448   0.203   4.591
 3641SOL    HW111483   3.386   0.217   4.663
 3641SOL    HW211484   3.451   0.287   4.546
 3642SOL     OW11485   1.906   1.073   4.028
 3642SOL    HW111486   2.000   1.063   4.012
 3642SOL    HW211487   1.876   0.986   4.052
 3643SOL     OW11488   2.744   1.649   4.067
 3643SOL    HW111489   2.671   1.631   4.007
 3643SOL    HW211490   2.715   1.724   4.118
 3644SOL     OW11491   2.092   0.628   5.705
 3644SOL    HW111492   2.004   0.621   5.742
 3644SOL    HW211493   2.083   0.595   5.616
 3645SOL     OW11494   2.072   0.295   6.574
 3645SOL    HW111495   2.103   0.269   6.661
 3645SOL    HW211496   1.990   0.248   6.563
 3646SOL     OW11497   1.871   0.383   6.226
 3646SOL    HW111498   1.785   0.404   6.262
 3646SOL    HW211499   1.855   0.308   6.168
 3647SOL     OW11500   2.430   1.281   6.759
 3647SOL    HW111501   2.341   1.282   6.723
 3647SOL    HW211502   2.443   1.370   6.792
 3648SOL     OW11503   3.419   1.512   6.292
 3648SOL    HW111504   3.374   1.494   6.374
 3648SOL    HW211505   3.348   1.516   6.227
 3649SOL     OW11506   2.993   0.700   6.288
 3649SOL    HW111507   3.042   0.782   6.276
 3649SOL    HW211508   2.944   0.713   6.369
 3650SOL     OW11509   3.626   0.609   5.816
 3650SOL    HW111510   3.607   0.598   5.723
 3650SOL    HW211511   3.594   0.528   5.856
 3651SOL     OW11512   2.622   1.146   6.622
 3651SOL    HW111513   2.553   1.178   6.679
 3651SOL    HW211514   2.654   1.223   6.576
 3652SOL     OW11515   2.724   0.781   7.407
 3652SOL    HW111516   2.712   0.853   7.469
 3652SOL    HW211517   2.747   0.824   7.325
 3653SOL     OW11518   2.548   1.007   6.236
 3653SOL    HW111519   2.613   0.992   6.305
 3653SOL    HW211520   2.479   1.058   6.278
 3654SOL     OW11521   2.569   1.152   7.395
 3654SOL    HW111522   2.617   1.231   7.418
 3654SOL    HW211523   2.485   1.184   7.362
 3655SOL     OW11524   2.194   1.437   6.648
 3655SOL    HW111525   2.120   1.389   6.610
 3655SOL    HW211526   2.242   1.470   6.571
 3656SOL     OW11527   3.324   1.498   6.936
 3656SOL    HW111528   3.366   1.583   6.947
 3656SOL    HW211529   3.270   1.488   7.015
 3657SOL     OW11530   2.303   0.396   7.078
 3657SOL    HW111531   2.384   0.346   7.080
 3657SOL    HW211532   2.234   0.330   7.090
 3658SOL     OW11533   3.475   0.448   6.324
 3658SOL    HW111534   3.394   0.473   6.278
 3658SOL    HW211535   3.497   0.525   6.376
 3659SOL     OW11536   2.997   1.341   7.277
 3659SOL    HW111537   3.037   1.337   7.364
 3659SOL    HW211538   2.945   1.261   7.271
 3660SOL     OW11539   2.117   1.088   6.476
 3660SOL    HW111540   2.114   1.002   6.518
 3660SOL    HW211541   2.058   1.142   6.529
 3661SOL     OW11542   2.477   1.790   7.018
 3661SOL    HW111543   2.394   1.774   7.063
 3661SOL    HW211544   2.499   1.880   7.040
 3662SOL     OW11545   2.451   0.980   5.718
 3662SOL    HW111546   2.494   1.032   5.650
 3662SOL    HW211547   2.492   1.007   5.799
 3663SOL     OW11548   3.448   0.114   7.061
 3663SOL    HW111549   3.458   0.182   6.994
 3663SOL    HW211550   3.437   0.162   7.143
 3664SOL     OW11551   1.977   0.651   6.145
 3664SOL    HW111552   1.948   0.562   6.167
 3664SOL    HW211553   1.968   0.700   6.227
 3665SOL     OW11554   3.703   1.762   5.924
 3665SOL    HW111555   3.763   1.732   5.993
 3665SOL    HW211556   3.731   1.851   5.905
 3666SOL     OW11557   3.553   0.921   6.224
 3666SOL    HW111558   3.638   0.880   6.205
 3666SOL    HW211559   3.532   0.969   6.144
 3667SOL     OW11560   3.507   1.108   6.016
 3667SOL    HW111561   3.592   1.117   5.972
 3667SOL    HW211562   3.511   1.168   6.090
 3668SOL     OW11563   1.983   0.743   7.172
 3668SOL    HW111564   2.075   0.765   7.188
 3668SOL    HW211565   1.937   0.826   7.178
 3669SOL     OW11566   2.488   1.369   6.319
 3669SOL    HW111567   2.434   1.290   6.326
 3669SOL    HW211568   2.453   1.415   6.243
 3670SOL     OW11569   3.153   1.239   7.011
 3670SOL    HW111570   3.185   1.171   6.951
 3670SOL    HW211571   3.208   1.230   7.088
 3671SOL     OW11572   2.676   0.011   6.130
 3671SOL    HW111573   2.710   0.098   6.107
 3671SOL    HW211574   2.581   0.020   6.124
 3672SOL     OW11575   2.054   0.969   6.855
 3672SOL    HW111576   2.138   0.925   6.839
 3672SOL    HW211577   1.989   0.913   6.813
 3673SOL     OW11578   3.394   0.991   5.782
 3673SOL    HW111579   3.324   0.933   5.812
 3673SOL    HW211580   3.433   1.025   5.863
 3674SOL     OW11581   3.047   1.803   7.206
 3674SOL    HW111582   3.063   1.860   7.130
 3674SOL    HW211583   3.062   1.715   7.173
 3675SOL     OW11584   2.177   0.255   7.368
 3675SOL    HW111585   2.241   0.319   7.400
 3675SOL    HW211586   2.103   0.264   7.427
 3676SOL     OW11587   3.329   1.419   6.541
 3676SOL    HW111588   3.260   1.433   6.605
 3676SOL    HW211589   3.317   1.328   6.512
 3677SOL     OW11590   3.522   1.733   6.164
 3677SOL    HW111591   3.500   1.705   6.075
 3677SOL    HW211592   3.497   1.659   6.219
 3678SOL     OW11593   2.456   0.724   5.850
 3678SOL    HW111594   2.465   0.804   5.798
 3678SOL    HW211595   2.391   0.746   5.916
 3679SOL     OW11596   3.151   0.358   6.521
 3679SOL    HW111597   3.063   0.326   6.505
 3679SOL    HW211598   3.189   0.295   6.583
 3680SOL     OW11599   3.444   1.668   5.895
 3680SOL    HW111600   3.532   1.703   5.888
 3680SOL    HW211601   3.418   1.651   5.804
 3681SOL     OW11602   2.658   0.618   7.041
 3681SOL    HW111603   2.629   0.594   7.129
 3681SOL    HW211604   2.615   0.553   6.984
 3682SOL     OW11605   3.251   0.478   7.262
 3682SOL    HW111606   3.253   0.521   7.348
 3682SOL    HW211607   3.318   0.409   7.269
 3683SOL     OW11608   2.821   0.889   7.167
 3683SOL    HW111609   2.874   0.817   7.133
 3683SOL    HW211610   2.773   0.921   7.090
 3684SOL     OW11611   2.857   0.417   6.824
 3684SOL    HW111612   2.772   0.431   6.866
 3684SOL    HW211613   2.837   0.365   6.746
 3685SOL     OW11614   2.911   0.698   6.014
 3685SOL    HW111615   2.926   0.691   6.108
 3685SOL    HW211616   2.829   0.651   5.999
 3686SOL     OW11617   1.951   0.820   6.361
 3686SOL    HW111618   2.032   0.813   6.411
 3686SOL    HW211619   1.907   0.897   6.397
 3687SOL     OW11620   1.990   1.830   7.160
 3687SOL    HW111621   1.986   1.817   7.254
 3687SOL    HW211622   1.901   1.853   7.135
 3688SOL     OW11623   2.716   0.368   5.765
 3688SOL    HW111624   2.791   0.404   5.717
 3688SOL    HW211625   2.734   0.274   5.770
 3689SOL     OW11626   3.569   0.576   7.414
 3689SOL    HW111627   3.534   0.653   7.369
 3689SOL    HW211628   3.600   0.520   7.343
 3690SOL     OW11629   3.237   1.143   6.128
 3690SOL    HW111630   3.315   1.128   6.075
 3690SOL    HW211631   3.185   1.205   6.077
 3691SOL     OW11632   2.402   0.201   6.487
 3691SOL    HW111633   2.421   0.218   6.579
 3691SOL    HW211634   2.393   0.288   6.447
 3692SOL     OW11635   2.870   1.453   6.057
 3692SOL    HW111636   2.811   1.518   6.019
 3692SOL    HW211637   2.864   1.468   6.151
 3693SOL     OW11638   3.660   1.062   6.453
 3693SOL    HW111639   3.603   1.044   6.378
 3693SOL    HW211640   3.599   1.066   6.528
 3694SOL     OW11641   3.090   1.540   7.099
 3694SOL    HW111642   3.076   1.466   7.158
 3694SOL    HW211643   3.030   1.523   7.026
 3695SOL     OW11644   2.183   0.955   5.833
 3695SOL    HW111645   2.266   0.973   5.788
 3695SOL    HW211646   2.152   0.873   5.794
 3696SOL     OW11647   3.338   0.739   6.312
 3696SOL    HW111648   3.324   0.692   6.394
 3696SOL    HW211649   3.414   0.795   6.329
 3697SOL     OW11650   2.326   1.263   7.324
 3697SOL    HW111651   2.298   1.268   7.232
 3697SOL    HW211652   2.245   1.262   7.374
 3698SOL     OW11653   2.991   1.777   5.821
 3698SOL    HW111654   2.906   1.747   5.854
 3698SOL    HW211655   3.009   1.720   5.746
 3699SOL     OW11656   2.052   0.268   7.094
 3699SOL    HW111657   1.985   0.335   7.076
 3699SOL    HW211658   2.059   0.267   7.189
 3700SOL     OW11659   3.492   1.379   5.673
 3700SOL    HW111660   3.451   1.464   5.657
 3700SOL    HW211661   3.422   1.316   5.655
 3701SOL     OW11662   3.278   0.131   6.005
 3701SOL    HW111663   3.260   0.084   5.923
 3701SOL    HW211664   3.373   0.129   6.014
 3702SOL     OW11665   2.101   1.777   6.817
 3702SOL    HW111666   2.163   1.732   6.875
 3702SOL    HW211667   2.125   1.747   6.729
 3703SOL     OW11668   2.252   0.695   6.064
 3703SOL    HW111669   2.277   0.604   6.073
 3703SOL    HW211670   2.158   0.697   6.083
 3704SOL     OW11671   3.388   0.233   7.308
 3704SOL    HW111672   3.387   0.256   7.401
 3704SOL    HW211673   3.314   0.174   7.297
 3705SOL     OW11674   2.485   0.123   5.706
 3705SOL    HW111675   2.574   0.088   5.715
 3705SOL    HW211676   2.454   0.089   5.622
 3706SOL     OW11677   2.633   0.271   7.338
 3706SOL    HW111678   2.696   0.202   7.356
 3706SOL    HW211679   2.583   0.279   7.420
 3707SOL     OW11680   2.738   1.519   6.779
 3707SOL    HW111681   2.725   1.485   6.691
 3707SOL    HW211682   2.809   1.465   6.815
 3708SOL     OW11683   3.204   0.589   7.016
 3708SOL    HW111684   3.232   0.559   7.102
 3708SOL    HW211685   3.239   0.678   7.009
 3709SOL     OW11686   2.673   1.402   6.521
 3709SOL    HW111687   2.757   1.388   6.476
 3709SOL    HW211688   2.608   1.398   6.451
 3710SOL     OW11689   2.784   0.515   6.488
 3710SOL    HW111690   2.768   0.513   6.394
 3710SOL    HW211691   2.825   0.431   6.507
 3711SOL     OW11692   2.414   0.072   6.105
 3711SOL    HW111693   2.325   0.050   6.130
 3711SOL    HW211694   2.405   0.141   6.039
 3712SOL     OW11695   3.291   1.198   5.628
 3712SOL    HW111696   3.321   1.122   5.678
 3712SOL    HW211697   3.205   1.217   5.664
 3713SOL     OW11698   2.158   0.071   5.777
 3713SOL    HW111699   2.236   0.123   5.758
 3713SOL    HW211700   2.189   4.499   5.832
 3714SOL     OW11701   2.811   0.240   6.059
 3714SOL    HW111702   2.759   0.288   5.994
 3714SOL    HW211703   2.900   0.275   6.049
 3715SOL     OW11704   2.942   0.679   7.047
 3715SOL    HW111705   2.869   0.616   7.049
 3715SOL    HW211706   3.020   0.625   7.035
 3716SOL     OW11707   3.094   1.561   6.369
 3716SOL    HW111708   3.111   1.634   6.310
 3716SOL    HW211709   3.147   1.578   6.446
 3717SOL     OW11710   2.327   1.149   6.321
 3717SOL    HW111711   2.257   1.129   6.384
 3717SOL    HW211712   2.289   1.129   6.236
 3718SOL     OW11713   3.134   1.794   6.188
 3718SOL    HW111714   3.179   1.852   6.126
 3718SOL    HW211715   3.077   1.852   6.238
 3719SOL     OW11716   2.893   0.549   5.601
 3719SOL    HW111717   2.846   0.631   5.584
 3719SOL    HW211718   2.951   0.569   5.674
 3720SOL     OW11719   1.941   0.552   6.980
 3720SOL    HW111720   2.032   0.554   6.949
 3720SOL    HW211721   1.935   0.624   7.042
 3721SOL     OW11722   2.426   0.241   6.750
 3721SOL    HW111723   2.454   0.157   6.787
 3721SOL    HW211724   2.335   0.249   6.776
 3722SOL     OW11725   2.728   0.500   6.212
 3722SOL    HW111726   2.677   0.542   6.143
 3722SOL    HW211727   2.714   0.407   6.199
 3723SOL     OW11728   2.833   0.033   6.360
 3723SOL    HW111729   2.784   0.027   6.278
 3723SOL    HW211730   2.842   4.442   6.388
 3724SOL     OW11731   3.297   1.164   6.444
 3724SOL    HW111732   3.231   1.095   6.442
 3724SOL    HW211733   3.320   1.178   6.352
 3725SOL     OW11734   3.330   0.602   6.566
 3725SOL    HW111735   3.279   0.521   6.569
 3725SOL    HW211736   3.389   0.597   6.641
 3726SOL     OW11737   3.710   0.819   5.967
 3726SOL    HW111738   3.765   0.766   6.025
 3726SOL    HW211739   3.680   0.758   5.900
 3727SOL     OW11740   2.347   1.420   5.742
 3727SOL    HW111741   2.279   1.384   5.799
 3727SOL    HW211742   2.332   1.379   5.657
 3728SOL     OW11743   3.530   1.266   6.234
 3728SOL    HW111744   3.625   1.271   6.247
 3728SOL    HW211745   3.498   1.353   6.256
 3729SOL     OW11746   3.256   0.570   5.656
 3729SOL    HW111747   3.195   0.554   5.728
 3729SOL    HW211748   3.342   0.548   5.691
 3730SOL     OW11749   2.386   0.265   5.911
 3730SOL    HW111750   2.429   0.212   5.843
 3730SOL    HW211751   2.371   0.350   5.869
 3731SOL     OW11752   3.616   1.236   7.163
 3731SOL    HW111753   3.703   1.197   7.160
 3731SOL    HW211754   3.630   1.325   7.193
 3732SOL     OW11755   2.923   1.354   6.921
 3732SOL    HW111756   2.848   1.323   6.972
 3732SOL    HW211757   2.999   1.312   6.962
 3733SOL     OW11758   3.467   1.625   7.237
 3733SOL    HW111759   3.465   1.659   7.147
 3733SOL    HW211760   3.551   1.579   7.243
 3734SOL     OW11761   2.987   1.202   6.693
 3734SOL    HW111762   2.929   1.240   6.759
 3734SOL    HW211763   2.951   1.231   6.609
 3735SOL     OW11764   3.493   1.100   6.665
 3735SOL    HW111765   3.489   1.162   6.737
 3735SOL    HW211766   3.412   1.115   6.616
 3736SOL     OW11767   2.767   0.130   6.977
 3736SOL    HW111768   2.789   0.086   6.894
 3736SOL    HW211769   2.851   0.142   7.021
 3737SOL     OW11770   2.846   1.114   7.308
 3737SOL    HW111771   2.753   1.129   7.327
 3737SOL    HW211772   2.847   1.037   7.252
 3738SOL     OW11773   2.568   1.058   5.959
 3738SOL    HW111774   2.556   1.044   6.053
 3738SOL    HW211775   2.645   1.006   5.937
 3739SOL     OW11776   2.279   0.814   6.837
 3739SOL    HW111777   2.348   0.823   6.902
 3739SOL    HW211778   2.244   0.726   6.852
 3740SOL     OW11779   3.131   0.377   6.857
 3740SOL    HW111780   3.162   0.455   6.903
 3740SOL    HW211781   3.043   0.400   6.829
 3741SOL     OW11782   1.929   1.570   6.936
 3741SOL    HW111783   1.896   1.646   6.889
 3741SOL    HW211784   2.025   1.580   6.933
 3742SOL     OW11785   2.216   1.109   6.076
 3742SOL    HW111786   2.219   1.176   6.007
 3742SOL    HW211787   2.215   1.026   6.029
 3743SOL     OW11788   2.420   0.533   6.446
 3743SOL    HW111789   2.436   0.591   6.371
 3743SOL    HW211790   2.481   0.563   6.513
 3744SOL     OW11791   3.109   1.347   5.976
 3744SOL    HW111792   3.165   1.419   6.006
 3744SOL    HW211793   3.022   1.370   6.007
 3745SOL     OW11794   3.139   1.455   6.731
 3745SOL    HW111795   3.193   1.457   6.810
 3745SOL    HW211796   3.083   1.379   6.742
 3746SOL     OW11797   3.445   0.625   6.061
 3746SOL    HW111798   3.401   0.679   6.127
 3746SOL    HW211799   3.490   0.688   6.004
 3747SOL     OW11800   2.212   1.519   6.906
 3747SOL    HW111801   2.198   1.482   6.818
 3747SOL    HW211802   2.307   1.534   6.910
 3748SOL     OW11803   2.275   0.744   7.188
 3748SOL    HW111804   2.334   0.791   7.129
 3748SOL    HW211805   2.319   0.660   7.205
 3749SOL     OW11806   3.459   0.777   7.265
 3749SOL    HW111807   3.373   0.817   7.257
 3749SOL    HW211808   3.512   0.819   7.196
 3750SOL     OW11809   2.870   0.086   7.314
 3750SOL    HW111810   2.889   0.171   7.274
 3750SOL    HW211811   2.896   0.022   7.248
 3751SOL     OW11812   2.362   0.050   7.341
 3751SOL    HW111813   2.348   0.001   7.260
 3751SOL    HW211814   2.293   0.116   7.341
 3752SOL     OW11815   2.444   0.872   6.616
 3752SOL    HW111816   2.474   0.963   6.614
 3752SOL    HW211817   2.387   0.868   6.694
 3753SOL     OW11818   3.223   0.859   6.620
 3753SOL    HW111819   3.142   0.853   6.569
 3753SOL    HW211820   3.260   0.771   6.616
 3754SOL     OW11821   3.069   0.534   5.853
 3754SOL    HW111822   3.075   0.453   5.904
 3754SOL    HW211823   3.027   0.597   5.911
 3755SOL     OW11824   2.152   0.236   6.826
 3755SOL    HW111825   2.112   0.251   6.911
 3755SOL    HW211826   2.180   0.144   6.829
 3756SOL     OW11827   1.908   1.310   6.864
 3756SOL    HW111828   1.941   1.258   6.937
 3756SOL    HW211829   1.915   1.400   6.894
 3757SOL     OW11830   2.587   0.632   6.646
 3757SOL    HW111831   2.659   0.612   6.587
 3757SOL    HW211832   2.561   0.721   6.622
 3758SOL     OW11833   3.595   0.959   7.437
 3758SOL    HW111834   3.546   0.904   7.375
 3758SOL    HW211835   3.535   0.970   7.511
 3759SOL     OW11836   2.161   0.061   6.239
 3759SOL    HW111837   2.151   0.156   6.245
 3759SOL    HW211838   2.173   0.032   6.330
 3760SOL     OW11839   3.472   0.374   5.953
 3760SOL    HW111840   3.504   0.312   6.018
 3760SOL    HW211841   3.451   0.453   6.003
 3761SOL     OW11842   2.889   0.761   6.549
 3761SOL    HW111843   2.889   0.777   6.643
 3761SOL    HW211844   2.861   0.670   6.540
 3762SOL     OW11845   2.844   1.566   7.300
 3762SOL    HW111846   2.829   1.610   7.216
 3762SOL    HW211847   2.887   1.484   7.276
 3763SOL     OW11848   3.718   1.510   7.192
 3763SOL    HW111849   3.734   1.535   7.101
 3763SOL    HW211850   3.799   1.531   7.238
 3764SOL     OW11851   2.216   0.917   7.393
 3764SOL    HW111852   2.298   0.934   7.439
 3764SOL    HW211853   2.239   0.854   7.324
 3765SOL     OW11854   3.394   0.268   5.714
 3765SOL    HW111855   3.322   0.211   5.741
 3765SOL    HW211856   3.422   0.312   5.794
 3766SOL     OW11857   3.157   0.827   5.619
 3766SOL    HW111858   3.198   0.741   5.621
 3766SOL    HW211859   3.187   0.866   5.537
 3767SOL     OW11860   2.924   1.335   6.436
 3767SOL    HW111861   2.930   1.261   6.375
 3767SOL    HW211862   2.990   1.397   6.405
 3768SOL     OW11863   2.172   0.810   6.534
 3768SOL    HW111864   2.265   0.832   6.528
 3768SOL    HW211865   2.171   0.721   6.569
 3769SOL     OW11866   2.199   0.528   6.598
 3769SOL    HW111867   2.157   0.444   6.579
 3769SOL    HW211868   2.274   0.531   6.539
 3770SOL     OW11869   2.997   0.375   7.278
 3770SOL    HW111870   2.950   0.440   7.330
 3770SOL    HW211871   3.084   0.414   7.264
 3771SOL     OW11872   3.023   0.210   7.060
 3771SOL    HW111873   3.014   0.274   7.130
 3771SOL    HW211874   3.056   0.261   6.986
 3772SOL     OW11875   1.876   1.322   5.780
 3772SOL    HW111876   1.791   1.346   5.743
 3772SOL    HW211877   1.864   1.232   5.812
 3773SOL     OW11878   2.850   0.795   6.815
 3773SOL    HW111879   2.902   0.769   6.891
 3773SOL    HW211880   2.764   0.757   6.831
 3774SOL     OW11881   1.896   0.541   6.704
 3774SOL    HW111882   1.975   0.522   6.654
 3774SOL    HW211883   1.926   0.549   6.794
 3775SOL     OW11884   2.047   0.517   7.306
 3775SOL    HW111885   2.119   0.495   7.246
 3775SOL    HW211886   2.004   0.592   7.265
 3776SOL     OW11887   3.238   0.942   7.246
 3776SOL    HW111888   3.258   1.035   7.246
 3776SOL    HW211889   3.236   0.918   7.153
 3777SOL     OW11890   2.674   0.573   5.939
 3777SOL    HW111891   2.677   0.500   5.876
 3777SOL    HW211892   2.599   0.625   5.910
 3778SOL     OW11893   3.504   0.601   6.776
 3778SOL    HW111894   3.493   0.541   6.849
 3778SOL    HW211895   3.591   0.581   6.741
 3779SOL     OW11896   2.112   1.553   7.318
 3779SOL    HW111897   2.083   1.615   7.385
 3779SOL    HW211898   2.108   1.467   7.361
 3780SOL     OW11899   2.554   0.460   6.852
 3780SOL    HW111900   2.510   0.382   6.818
 3780SOL    HW211901   2.557   0.520   6.777
 3781SOL     OW11902   2.791   1.679   7.052
 3781SOL    HW111903   2.766   1.648   6.965
 3781SOL    HW211904   2.793   1.774   7.044
 3782SOL     OW11905   2.329   0.493   5.772
 3782SOL    HW111906   2.387   0.566   5.792
 3782SOL    HW211907   2.242   0.533   5.764
 3783SOL     OW11908   2.011   1.140   7.057
 3783SOL    HW111909   2.015   1.086   7.136
 3783SOL    HW211910   2.027   1.079   6.986
 3784SOL     OW11911   3.191   1.049   6.811
 3784SOL    HW111912   3.215   0.986   6.743
 3784SOL    HW211913   3.119   1.099   6.774
 3785SOL     OW11914   3.171   0.856   5.893
 3785SOL    HW111915   3.094   0.827   5.942
 3785SOL    HW211916   3.147   0.843   5.802
 3786SOL     OW11917   3.630   1.747   6.734
 3786SOL    HW111918   3.690   1.772   6.664
 3786SOL    HW211919   3.606   1.657   6.714
 3787SOL     OW11920   3.105   1.734   6.703
 3787SOL    HW111921   3.187   1.750   6.657
 3787SOL    HW211922   3.104   1.640   6.719
 3788SOL     OW11923   1.954   1.262   6.604
 3788SOL    HW111924   1.935   1.275   6.697
 3788SOL    HW211925   1.874   1.222   6.569
 3789SOL     OW11926   2.540   1.663   7.310
 3789SOL    HW111927   2.490   1.745   7.307
 3789SOL    HW211928   2.603   1.671   7.238
 3790SOL     OW11929   3.580   0.130   6.084
 3790SOL    HW111930   3.654   0.134   6.024
 3790SOL    HW211931   3.599   0.056   6.141
 3791SOL     OW11932   3.252   1.567   6.067
 3791SOL    HW111933   3.313   1.597   6.000
 3791SOL    HW211934   3.205   1.645   6.094
 3792SOL     OW11935   1.995   1.796   7.428
 3792SOL    HW111936   1.943   1.731   7.475
 3792SOL    HW211937   2.046   1.840   7.497
 3793SOL     OW11938   3.140   0.926   6.258
 3793SOL    HW111939   3.212   0.863   6.262
 3793SOL    HW211940   3.174   0.998   6.206
 3794SOL     OW11941   2.681   1.272   7.017
 3794SOL    HW111942   2.655   1.311   7.101
 3794SOL    HW211943   2.610   1.294   6.957
 3795SOL     OW11944   2.567   1.588   5.740
 3795SOL    HW111945   2.538   1.625   5.657
 3795SOL    HW211946   2.501   1.523   5.763
 3796SOL     OW11947   3.496   1.727   6.979
 3796SOL    HW111948   3.542   1.734   6.895
 3796SOL    HW211949   3.481   1.817   7.007
 3797SOL     OW11950   3.701   0.155   6.553
 3797SOL    HW111951   3.732   0.080   6.503
 3797SOL    HW211952   3.614   0.175   6.517
 3798SOL     OW11953   2.129   0.325   6.306
 3798SOL    HW111954   2.044   0.358   6.277
 3798SOL    HW211955   2.120   0.314   6.401
 3799SOL     OW11956   3.068   1.608   5.620
 3799SOL    HW111957   3.058   1.516   5.642
 3799SOL    HW211958   3.009   1.621   5.546
 3800SOL     OW11959   2.686   1.006   6.958
 3800SOL    HW111960   2.729   1.002   6.872
 3800SOL    HW211961   2.688   1.098   6.981
 3801SOL     OW11962   2.777   0.910   5.876
 3801SOL    HW111963   2.839   0.942   5.810
 3801SOL    HW211964   2.823   0.839   5.920
 3802SOL     OW11965   3.358   1.623   5.628
 3802SOL    HW111966   3.262   1.623   5.618
 3802SOL    HW211967   3.392   1.631   5.539
 3803SOL     OW11968   2.232   1.300   7.078
 3803SOL    HW111969   2.218   1.378   7.025
 3803SOL    HW211970   2.155   1.246   7.062
 3804SOL     OW11971   3.474   1.283   6.867
 3804SOL    HW111972   3.533   1.276   6.943
 3804SOL    HW211973   3.413   1.353   6.891
 3805SOL     OW11974   2.910   1.105   6.290
 3805SOL    HW111975   2.840   1.054   6.330
 3805SOL    HW211976   2.971   1.039   6.256
 3806SOL     OW11977   2.869   0.241   6.582
 3806SOL    HW111978   2.877   0.211   6.491
 3806SOL    HW211979   2.863   0.160   6.633
 3807SOL     OW11980   3.581   0.393   6.964
 3807SOL    HW111981   3.653   0.456   6.962
 3807SOL    HW211982   3.610   0.321   6.908
 3808SOL     OW11983   2.121   1.349   5.888
 3808SOL    HW111984   2.030   1.343   5.859
 3808SOL    HW211985   2.117   1.407   5.964
 3809SOL     OW11986   1.974   1.018   7.305
 3809SOL    HW111987   1.898   0.995   7.359
 3809SOL    HW211988   2.048   0.982   7.353
 3810SOL     OW11989   2.521   0.203   7.082
 3810SOL    HW111990   2.602   0.179   7.036
 3810SOL    HW211991   2.550   0.222   7.172
 3811SOL     OW11992   1.942   0.344   5.632
 3811SOL    HW111993   1.870   0.293   5.596
 3811SOL    HW211994   1.959   0.412   5.566
 3812SOL     OW11995   3.294   0.858   6.988
 3812SOL    HW111996   3.245   0.917   6.930
 3812SOL    HW211997   3.384   0.861   6.954
 3813SOL     OW11998   1.928   0.179   5.909
 3813SOL    HW111999   1.924   0.246   5.840
 3813SOL    HW212000   2.004   0.125   5.885
 3814SOL     OW12001   3.041   1.340   5.702
 3814SOL    HW112002   2.951   1.310   5.707
 3814SOL    HW212003   3.071   1.341   5.793
 3815SOL     OW12004   2.480   0.831   7.018
 3815SOL    HW112005   2.535   0.908   7.004
 3815SOL    HW212006   2.542   0.758   7.027
 3816SOL     OW12007   3.347   1.776   6.560
 3816SOL    HW112008   3.377   1.831   6.488
 3816SOL    HW212009   3.427   1.757   6.610
 3817SOL     OW12010   2.578   0.564   7.293
 3817SOL    HW112011   2.612   0.629   7.354
 3817SOL    HW212012   2.616   0.481   7.322
 3818SOL     OW12013   3.330   1.204   7.219
 3818SOL    HW112014   3.318   1.216   7.314
 3818SOL    HW212015   3.424   1.215   7.205
 3819SOL     OW12016   2.245   1.741   7.151
 3819SOL    HW112017   2.158   1.778   7.137
 3819SOL    HW212018   2.229   1.655   7.191
 3820SOL     OW12019   3.534   0.882   6.842
 3820SOL    HW112020   3.524   0.797   6.799
 3820SOL    HW212021   3.525   0.946   6.771
 3821SOL     OW12022   3.080   0.327   6.034
 3821SOL    HW112023   3.145   0.258   6.025
 3821SOL    HW212024   3.107   0.374   6.113
 3822SOL     OW12025   2.451   0.740   6.254
 3822SOL    HW112026   2.493   0.825   6.237
 3822SOL    HW212027   2.382   0.734   6.188
 3823SOL     OW12028   3.629   0.361   7.229
 3823SOL    HW112029   3.612   0.375   7.135
 3823SOL    HW212030   3.550   0.316   7.261
 3824SOL     OW12031   3.606   0.933   7.099
 3824SOL    HW112032   3.608   1.028   7.112
 3824SOL    HW212033   3.591   0.922   7.005
 3825SOL     OW12034   2.717   1.369   5.610
 3825SOL    HW112035   2.685   1.395   5.696
 3825SOL    HW212036   2.751   1.450   5.572
 3826SOL     OW12037   2.575   1.821   6.591
 3826SOL    HW112038   2.508   1.878   6.554
 3826SOL    HW212039   2.631   1.798   6.517
 3827SOL     OW12040   2.728   0.965   6.442
 3827SOL    HW112041   2.778   0.894   6.482
 3827SOL    HW212042   2.696   1.017   6.516
 3828SOL     OW12043   2.942   0.987   5.675
 3828SOL    HW112044   2.920   1.038   5.596
 3828SOL    HW212045   3.018   0.935   5.649
 3829SOL     OW12046   3.718   1.557   6.432
 3829SOL    HW112047   3.642   1.545   6.375
 3829SOL    HW212048   3.711   1.488   6.497
 3830SOL     OW12049   2.086   1.305   7.442
 3830SOL    HW112050   2.018   1.243   7.413
 3830SOL    HW212051   2.069   1.317   7.535
 3831SOL     OW12052   1.946   1.232   6.245
 3831SOL    HW112053   1.948   1.183   6.327
 3831SOL    HW212054   2.019   1.197   6.194
 3832SOL     OW12055   2.541   1.400   7.211
 3832SOL    HW112056   2.462   1.356   7.241
 3832SOL    HW212057   2.536   1.488   7.249
 3833SOL     OW12058   3.672   0.184   6.825
 3833SOL    HW112059   3.673   0.090   6.846
 3833SOL    HW212060   3.688   0.187   6.731
 3834SOL     OW12061   2.296   0.433   6.113
 3834SOL    HW112062   2.320   0.363   6.053
 3834SOL    HW212063   2.243   0.390   6.180
 3835SOL     OW12064   3.563   1.492   6.687
 3835SOL    HW112065   3.482   1.465   6.643
 3835SOL    HW212066   3.578   1.423   6.752
 3836SOL     OW12067   2.189   0.554   6.877
 3836SOL    HW112068   2.245   0.498   6.931
 3836SOL    HW212069   2.210   0.528   6.787
 3837SOL     OW12070   3.294   0.215   6.704
 3837SOL    HW112071   3.331   0.146   6.758
 3837SOL    HW212072   3.243   0.268   6.765
 3838SOL     OW12073   2.860   0.013   6.734
 3838SOL    HW112074   2.813   4.430   6.724
 3838SOL    HW212075   2.951   4.488   6.747
 3839SOL     OW12076   2.648   1.324   5.887
 3839SOL    HW112077   2.600   1.242   5.901
 3839SOL    HW212078   2.723   1.318   5.946
 3840SOL     OW12079   2.481   1.560   6.868
 3840SOL    HW112080   2.485   1.640   6.920
 3840SOL    HW212081   2.568   1.552   6.828
 3841SOL     OW12082   3.205   0.054   5.738
 3841SOL    HW112083   3.245   4.480   5.692
 3841SOL    HW212084   3.129   0.017   5.783
 3842SOL     OW12085   3.176   0.463   6.267
 3842SOL    HW112086   3.113   0.535   6.268
 3842SOL    HW212087   3.164   0.419   6.352
 3843SOL     OW12088   3.448   0.203   6.453
 3843SOL    HW112089   3.386   0.217   6.526
 3843SOL    HW212090   3.451   0.287   6.408
 3844SOL     OW12091   1.905   1.072   5.890
 3844SOL    HW112092   1.999   1.062   5.873
 3844SOL    HW212093   1.876   0.984   5.914
 3845SOL     OW12094   2.092   0.628   7.567
 3845SOL    HW112095   2.004   0.621   7.604
 3845SOL    HW212096   2.083   0.595   7.478
 3846SOL     OW12097   2.072   0.295   8.436
 3846SOL    HW112098   2.103   0.269   8.523
 3846SOL    HW212099   1.990   0.248   8.425
 3847SOL     OW12100   1.871   0.383   8.088
 3847SOL    HW112101   1.785   0.404   8.124
 3847SOL    HW212102   1.855   0.308   8.030
 3848SOL     OW12103   2.429   1.282   8.619
 3848SOL    HW112104   2.341   1.284   8.583
 3848SOL    HW212105   2.442   1.370   8.654
 3849SOL     OW12106   3.419   1.512   8.154
 3849SOL    HW112107   3.375   1.493   8.236
 3849SOL    HW212108   3.349   1.516   8.089
 3850SOL     OW12109   2.993   0.700   8.150
 3850SOL    HW112110   3.042   0.782   8.138
 3850SOL    HW212111   2.944   0.712   8.231
 3851SOL     OW12112   3.626   0.609   7.678
 3851SOL    HW112113   3.607   0.597   7.585
 3851SOL    HW212114   3.594   0.528   7.719
 3852SOL     OW12115   2.622   1.145   8.486
 3852SOL    HW112116   2.551   1.178   8.541
 3852SOL    HW212117   2.655   1.223   8.440
 3853SOL     OW12118   2.724   0.781   9.269
 3853SOL    HW112119   2.711   0.853   9.331
 3853SOL    HW212120   2.748   0.824   9.187
 3854SOL     OW12121   2.549   1.008   8.097
 3854SOL    HW112122   2.612   0.992   8.167
 3854SOL    HW212123   2.478   1.056   8.139
 3855SOL     OW12124   2.569   1.152   9.257
 3855SOL    HW112125   2.617   1.232   9.280
 3855SOL    HW212126   2.485   1.184   9.224
 3856SOL     OW12127   2.193   1.428   8.517
 3856SOL    HW112128   2.120   1.392   8.467
 3856SOL    HW212129   2.244   1.478   8.452
 3857SOL     OW12130   3.324   1.498   8.798
 3857SOL    HW112131   3.367   1.583   8.809
 3857SOL    HW212132   3.269   1.488   8.876
 3858SOL     OW12133   2.303   0.396   8.940
 3858SOL    HW112134   2.384   0.346   8.941
 3858SOL    HW212135   2.234   0.330   8.952
 3859SOL     OW12136   3.475   0.448   8.186
 3859SOL    HW112137   3.394   0.473   8.140
 3859SOL    HW212138   3.497   0.525   8.238
 3860SOL     OW12139   2.082   1.715   7.924
 3860SOL    HW112140   2.108   1.792   7.975
 3860SOL    HW212141   2.151   1.706   7.858
 3861SOL     OW12142   2.998   1.341   9.139
 3861SOL    HW112143   3.037   1.337   9.226
 3861SOL    HW212144   2.945   1.261   9.133
 3862SOL     OW12145   2.092   1.440   7.983
 3862SOL    HW112146   2.072   1.534   7.989
 3862SOL    HW212147   2.030   1.399   8.043
 3863SOL     OW12148   2.116   1.090   8.338
 3863SOL    HW112149   2.113   1.004   8.381
 3863SOL    HW212150   2.058   1.145   8.391
 3864SOL     OW12151   2.481   1.786   8.884
 3864SOL    HW112152   2.395   1.772   8.924
 3864SOL    HW212153   2.499   1.879   8.898
 3865SOL     OW12154   2.452   0.979   7.580
 3865SOL    HW112155   2.493   1.032   7.512
 3865SOL    HW212156   2.493   1.007   7.661
 3866SOL     OW12157   3.448   0.114   8.923
 3866SOL    HW112158   3.458   0.182   8.856
 3866SOL    HW212159   3.437   0.162   9.005
 3867SOL     OW12160   1.977   0.651   8.007
 3867SOL    HW112161   1.948   0.562   8.029
 3867SOL    HW212162   1.968   0.700   8.089
 3868SOL     OW12163   3.703   1.761   7.785
 3868SOL    HW112164   3.762   1.732   7.855
 3868SOL    HW212165   3.731   1.851   7.767
 3869SOL     OW12166   1.892   1.596   7.572
 3869SOL    HW112167   1.874   1.504   7.591
 3869SOL    HW212168   1.867   1.643   7.652
 3870SOL     OW12169   3.553   0.921   8.086
 3870SOL    HW112170   3.638   0.880   8.068
 3870SOL    HW212171   3.532   0.969   8.006
 3871SOL     OW12172   3.507   1.108   7.877
 3871SOL    HW112173   3.592   1.117   7.835
 3871SOL    HW212174   3.511   1.168   7.952
 3872SOL     OW12175   1.983   0.743   9.034
 3872SOL    HW112176   2.075   0.765   9.050
 3872SOL    HW212177   1.937   0.826   9.041
 3873SOL     OW12178   2.475   1.382   8.183
 3873SOL    HW112179   2.429   1.298   8.192
 3873SOL    HW212180   2.458   1.408   8.092
 3874SOL     OW12181   3.153   1.239   8.872
 3874SOL    HW112182   3.185   1.171   8.813
 3874SOL    HW212183   3.208   1.231   8.950
 3875SOL     OW12184   2.676   0.011   7.993
 3875SOL    HW112185   2.710   0.098   7.969
 3875SOL    HW212186   2.581   0.020   7.986
 3876SOL     OW12187   2.054   0.969   8.717
 3876SOL    HW112188   2.138   0.925   8.701
 3876SOL    HW212189   1.989   0.912   8.675
 3877SOL     OW12190   3.394   0.991   7.644
 3877SOL    HW112191   3.324   0.933   7.674
 3877SOL    HW212192   3.433   1.025   7.725
 3878SOL     OW12193   3.048   1.804   9.068
 3878SOL    HW112194   3.063   1.860   8.992
 3878SOL    HW212195   3.062   1.715   9.035
 3879SOL     OW12196   2.177   0.255   9.230
 3879SOL    HW112197   2.241   0.320   9.262
 3879SOL    HW212198   2.103   0.264   9.289
 3880SOL     OW12199   3.327   1.420   8.401
 3880SOL    HW112200   3.259   1.433   8.467
 3880SOL    HW212201   3.316   1.329   8.373
 3881SOL     OW12202   3.523   1.733   8.025
 3881SOL    HW112203   3.500   1.705   7.937
 3881SOL    HW212204   3.497   1.659   8.082
 3882SOL     OW12205   2.456   0.724   7.712
 3882SOL    HW112206   2.464   0.804   7.660
 3882SOL    HW212207   2.391   0.745   7.779
 3883SOL     OW12208   3.152   0.358   8.383
 3883SOL    HW112209   3.063   0.326   8.367
 3883SOL    HW212210   3.189   0.295   8.445
 3884SOL     OW12211   3.443   1.668   7.757
 3884SOL    HW112212   3.532   1.703   7.751
 3884SOL    HW212213   3.419   1.650   7.666
 3885SOL     OW12214   2.658   0.618   8.903
 3885SOL    HW112215   2.629   0.594   8.991
 3885SOL    HW212216   2.615   0.553   8.846
 3886SOL     OW12217   3.251   0.478   9.124
 3886SOL    HW112218   3.253   0.521   9.209
 3886SOL    HW212219   3.318   0.409   9.131
 3887SOL     OW12220   2.821   0.889   9.029
 3887SOL    HW112221   2.874   0.817   8.995
 3887SOL    HW212222   2.773   0.921   8.952
 3888SOL     OW12223   2.857   0.417   8.686
 3888SOL    HW112224   2.772   0.431   8.728
 3888SOL    HW212225   2.837   0.365   8.608
 3889SOL     OW12226   2.911   0.698   7.876
 3889SOL    HW112227   2.926   0.691   7.970
 3889SOL    HW212228   2.829   0.651   7.861
 3890SOL     OW12229   1.951   0.820   8.224
 3890SOL    HW112230   2.033   0.813   8.273
 3890SOL    HW212231   1.908   0.898   8.259
 3891SOL     OW12232   1.989   1.814   9.022
 3891SOL    HW112233   1.977   1.810   9.117
 3891SOL    HW212234   1.920   1.873   8.991
 3892SOL     OW12235   2.716   0.368   7.627
 3892SOL    HW112236   2.791   0.403   7.580
 3892SOL    HW212237   2.733   0.274   7.632
 3893SOL     OW12238   3.569   0.576   9.276
 3893SOL    HW112239   3.534   0.653   9.231
 3893SOL    HW212240   3.600   0.520   9.205
 3894SOL     OW12241   3.237   1.143   7.990
 3894SOL    HW112242   3.315   1.128   7.937
 3894SOL    HW212243   3.185   1.205   7.939
 3895SOL     OW12244   2.402   0.201   8.349
 3895SOL    HW112245   2.421   0.219   8.441
 3895SOL    HW212246   2.393   0.288   8.309
 3896SOL     OW12247   2.871   1.446   7.922
 3896SOL    HW112248   2.830   1.517   7.873
 3896SOL    HW212249   2.857   1.469   8.014
 3897SOL     OW12250   2.215   1.798   8.304
 3897SOL    HW112251   2.249   1.709   8.312
 3897SOL    HW212252   2.291   1.854   8.323
 3898SOL     OW12253   3.660   1.062   8.315
 3898SOL    HW112254   3.603   1.043   8.240
 3898SOL    HW212255   3.599   1.066   8.390
 3899SOL     OW12256   3.090   1.540   8.960
 3899SOL    HW112257   3.077   1.467   9.020
 3899SOL    HW212258   3.029   1.523   8.888
 3900SOL     OW12259   2.183   0.955   7.696
 3900SOL    HW112260   2.265   0.974   7.650
 3900SOL    HW212261   2.152   0.874   7.656
 3901SOL     OW12262   3.338   0.739   8.174
 3901SOL    HW112263   3.324   0.692   8.255
 3901SOL    HW212264   3.414   0.795   8.191
 3902SOL     OW12265   2.326   1.263   9.185
 3902SOL    HW112266   2.298   1.268   9.094
 3902SOL    HW212267   2.245   1.262   9.236
 3903SOL     OW12268   2.982   1.777   7.680
 3903SOL    HW112269   2.911   1.733   7.727
 3903SOL    HW212270   3.004   1.718   7.608
 3904SOL     OW12271   2.052   0.268   8.956
 3904SOL    HW112272   1.985   0.335   8.938
 3904SOL    HW212273   2.059   0.267   9.051
 3905SOL     OW12274   3.492   1.379   7.534
 3905SOL    HW112275   3.451   1.464   7.520
 3905SOL    HW212276   3.422   1.315   7.516
 3906SOL     OW12277   2.330   1.737   7.770
 3906SOL    HW112278   2.372   1.794   7.835
 3906SOL    HW212279   2.402   1.709   7.714
 3907SOL     OW12280   3.278   0.131   7.867
 3907SOL    HW112281   3.260   0.084   7.785
 3907SOL    HW212282   3.373   0.129   7.876
 3908SOL     OW12283   2.104   1.780   8.685
 3908SOL    HW112284   2.168   1.723   8.728
 3908SOL    HW212285   2.106   1.753   8.593
 3909SOL     OW12286   2.798   1.697   8.350
 3909SOL    HW112287   2.876   1.645   8.370
 3909SOL    HW212288   2.754   1.649   8.280
 3910SOL     OW12289   2.252   0.695   7.925
 3910SOL    HW112290   2.277   0.603   7.935
 3910SOL    HW212291   2.158   0.697   7.945
 3911SOL     OW12292   3.388   0.233   9.170
 3911SOL    HW112293   3.387   0.256   9.263
 3911SOL    HW212294   3.313   0.174   9.159
 3912SOL     OW12295   2.485   0.123   7.568
 3912SOL    HW112296   2.574   0.088   7.577
 3912SOL    HW212297   2.454   0.089   7.484
 3913SOL     OW12298   2.633   0.271   9.200
 3913SOL    HW112299   2.696   0.201   9.218
 3913SOL    HW212300   2.583   0.279   9.282
 3914SOL     OW12301   2.739   1.522   8.641
 3914SOL    HW112302   2.724   1.484   8.554
 3914SOL    HW212303   2.807   1.466   8.679
 3915SOL     OW12304   3.205   0.589   8.878
 3915SOL    HW112305   3.232   0.559   8.964
 3915SOL    HW212306   3.239   0.678   8.871
 3916SOL     OW12307   2.675   1.400   8.383
 3916SOL    HW112308   2.758   1.388   8.339
 3916SOL    HW212309   2.609   1.395   8.313
 3917SOL     OW12310   2.784   0.515   8.350
 3917SOL    HW112311   2.768   0.513   8.256
 3917SOL    HW212312   2.825   0.431   8.369
 3918SOL     OW12313   2.415   0.072   7.968
 3918SOL    HW112314   2.325   0.050   7.992
 3918SOL    HW212315   2.405   0.141   7.901
 3919SOL     OW12316   3.291   1.197   7.489
 3919SOL    HW112317   3.322   1.122   7.539
 3919SOL    HW212318   3.205   1.217   7.526
 3920SOL     OW12319   2.158   0.072   7.639
 3920SOL    HW112320   2.237   0.123   7.621
 3920SOL    HW212321   2.189   4.499   7.693
 3921SOL     OW12322   2.811   0.240   7.921
 3921SOL    HW112323   2.759   0.288   7.856
 3921SOL    HW212324   2.900   0.275   7.911
 3922SOL     OW12325   2.942   0.679   8.909
 3922SOL    HW112326   2.869   0.616   8.911
 3922SOL    HW212327   3.020   0.625   8.897
 3923SOL     OW12328   3.086   1.570   8.242
 3923SOL    HW112329   3.106   1.637   8.176
 3923SOL    HW212330   3.155   1.580   8.308
 3924SOL     OW12331   2.329   1.148   8.185
 3924SOL    HW112332   2.258   1.129   8.247
 3924SOL    HW212333   2.291   1.130   8.099
 3925SOL     OW12334   3.133   1.795   8.053
 3925SOL    HW112335   3.177   1.856   7.994
 3925SOL    HW212336   3.070   1.849   8.100
 3926SOL     OW12337   2.893   0.549   7.462
 3926SOL    HW112338   2.845   0.631   7.446
 3926SOL    HW212339   2.951   0.569   7.536
 3927SOL     OW12340   1.941   0.552   8.842
 3927SOL    HW112341   2.032   0.554   8.811
 3927SOL    HW212342   1.935   0.624   8.904
 3928SOL     OW12343   2.426   0.241   8.612
 3928SOL    HW112344   2.454   0.157   8.649
 3928SOL    HW212345   2.335   0.249   8.638
 3929SOL     OW12346   2.728   0.501   8.074
 3929SOL    HW112347   2.677   0.542   8.005
 3929SOL    HW212348   2.714   0.407   8.062
 3930SOL     OW12349   2.834   0.033   8.222
 3930SOL    HW112350   2.784   0.027   8.140
 3930SOL    HW212351   2.842   4.442   8.250
 3931SOL     OW12352   3.297   1.164   8.306
 3931SOL    HW112353   3.231   1.095   8.304
 3931SOL    HW212354   3.320   1.177   8.214
 3932SOL     OW12355   3.330   0.602   8.428
 3932SOL    HW112356   3.279   0.521   8.431
 3932SOL    HW212357   3.389   0.597   8.503
 3933SOL     OW12358   3.710   0.819   7.829
 3933SOL    HW112359   3.765   0.767   7.887
 3933SOL    HW212360   3.680   0.758   7.762
 3934SOL     OW12361   2.354   1.415   7.609
 3934SOL    HW112362   2.279   1.384   7.661
 3934SOL    HW212363   2.334   1.386   7.520
 3935SOL     OW12364   3.530   1.266   8.096
 3935SOL    HW112365   3.625   1.271   8.109
 3935SOL    HW212366   3.498   1.353   8.118
 3936SOL     OW12367   3.256   0.570   7.518
 3936SOL    HW112368   3.195   0.554   7.590
 3936SOL    HW212369   3.342   0.547   7.553
 3937SOL     OW12370   2.387   0.266   7.773
 3937SOL    HW112371   2.429   0.212   7.705
 3937SOL    HW212372   2.371   0.350   7.731
 3938SOL     OW12373   3.616   1.236   9.025
 3938SOL    HW112374   3.703   1.197   9.022
 3938SOL    HW212375   3.630   1.325   9.055
 3939SOL     OW12376   2.923   1.354   8.783
 3939SOL    HW112377   2.848   1.322   8.834
 3939SOL    HW212378   2.999   1.312   8.824
 3940SOL     OW12379   3.467   1.625   9.099
 3940SOL    HW112380   3.465   1.659   9.009
 3940SOL    HW212381   3.551   1.579   9.105
 3941SOL     OW12382   2.988   1.202   8.555
 3941SOL    HW112383   2.929   1.239   8.621
 3941SOL    HW212384   2.952   1.231   8.472
 3942SOL     OW12385   3.493   1.100   8.527
 3942SOL    HW112386   3.489   1.162   8.599
 3942SOL    HW212387   3.412   1.114   8.478
 3943SOL     OW12388   2.767   0.130   8.839
 3943SOL    HW112389   2.789   0.086   8.756
 3943SOL    HW212390   2.851   0.142   8.883
 3944SOL     OW12391   2.846   1.114   9.170
 3944SOL    HW112392   2.753   1.129   9.189
 3944SOL    HW212393   2.847   1.037   9.114
 3945SOL     OW12394   2.570   1.061   7.820
 3945SOL    HW112395   2.557   1.046   7.914
 3945SOL    HW212396   2.646   1.007   7.798
 3946SOL     OW12397   2.279   0.814   8.699
 3946SOL    HW112398   2.348   0.823   8.764
 3946SOL    HW212399   2.244   0.726   8.714
 3947SOL     OW12400   3.131   0.377   8.719
 3947SOL    HW112401   3.162   0.455   8.765
 3947SOL    HW212402   3.043   0.400   8.691
 3948SOL     OW12403   1.928   1.570   8.794
 3948SOL    HW112404   1.893   1.648   8.750
 3948SOL    HW212405   2.023   1.583   8.796
 3949SOL     OW12406   2.217   1.106   7.940
 3949SOL    HW112407   2.219   1.179   7.878
 3949SOL    HW212408   2.215   1.028   7.885
 3950SOL     OW12409   2.420   0.533   8.308
 3950SOL    HW112410   2.436   0.591   8.233
 3950SOL    HW212411   2.481   0.563   8.375
 3951SOL     OW12412   3.110   1.348   7.837
 3951SOL    HW112413   3.165   1.420   7.868
 3951SOL    HW212414   3.023   1.368   7.871
 3952SOL     OW12415   3.138   1.455   8.594
 3952SOL    HW112416   3.193   1.457   8.672
 3952SOL    HW212417   3.083   1.378   8.604
 3953SOL     OW12418   3.445   0.625   7.923
 3953SOL    HW112419   3.401   0.679   7.989
 3953SOL    HW212420   3.490   0.688   7.867
 3954SOL     OW12421   2.213   1.519   8.768
 3954SOL    HW112422   2.197   1.480   8.683
 3954SOL    HW212423   2.308   1.534   8.770
 3955SOL     OW12424   2.275   0.744   9.050
 3955SOL    HW112425   2.334   0.791   8.991
 3955SOL    HW212426   2.319   0.660   9.067
 3956SOL     OW12427   3.459   0.777   9.127
 3956SOL    HW112428   3.373   0.817   9.119
 3956SOL    HW212429   3.512   0.819   9.058
 3957SOL     OW12430   2.870   0.086   9.176
 3957SOL    HW112431   2.889   0.171   9.136
 3957SOL    HW212432   2.896   0.022   9.110
 3958SOL     OW12433   2.362   0.050   9.203
 3958SOL    HW112434   2.348   0.001   9.122
 3958SOL    HW212435   2.293   0.116   9.203
 3959SOL     OW12436   2.444   0.872   8.479
 3959SOL    HW112437   2.474   0.963   8.476
 3959SOL    HW212438   2.387   0.868   8.556
 3960SOL     OW12439   3.223   0.859   8.482
 3960SOL    HW112440   3.142   0.853   8.431
 3960SOL    HW212441   3.260   0.771   8.478
 3961SOL     OW12442   3.069   0.534   7.715
 3961SOL    HW112443   3.075   0.454   7.766
 3961SOL    HW212444   3.026   0.597   7.773
 3962SOL     OW12445   2.153   0.236   8.688
 3962SOL    HW112446   2.112   0.251   8.773
 3962SOL    HW212447   2.180   0.144   8.691
 3963SOL     OW12448   1.907   1.309   8.725
 3963SOL    HW112449   1.942   1.258   8.798
 3963SOL    HW212450   1.915   1.400   8.753
 3964SOL     OW12451   2.587   0.632   8.508
 3964SOL    HW112452   2.659   0.612   8.449
 3964SOL    HW212453   2.560   0.721   8.484
 3965SOL     OW12454   3.595   0.959   9.298
 3965SOL    HW112455   3.546   0.904   9.237
 3965SOL    HW212456   3.535   0.970   9.373
 3966SOL     OW12457   2.161   0.061   8.101
 3966SOL    HW112458   2.151   0.156   8.107
 3966SOL    HW212459   2.173   0.032   8.192
 3967SOL     OW12460   3.472   0.374   7.815
 3967SOL    HW112461   3.504   0.312   7.880
 3967SOL    HW212462   3.451   0.452   7.865
 3968SOL     OW12463   2.889   0.761   8.411
 3968SOL    HW112464   2.889   0.777   8.505
 3968SOL    HW212465   2.861   0.670   8.402
 3969SOL     OW12466   2.845   1.566   9.162
 3969SOL    HW112467   2.829   1.611   9.079
 3969SOL    HW212468   2.887   1.484   9.138
 3970SOL     OW12469   3.718   1.510   9.054
 3970SOL    HW112470   3.734   1.535   8.963
 3970SOL    HW212471   3.799   1.531   9.100
 3971SOL     OW12472   2.215   0.916   9.255
 3971SOL    HW112473   2.298   0.934   9.301
 3971SOL    HW212474   2.239   0.854   9.187
 3972SOL     OW12475   3.394   0.268   7.576
 3972SOL    HW112476   3.322   0.211   7.603
 3972SOL    HW212477   3.422   0.312   7.656
 3973SOL     OW12478   3.157   0.827   7.481
 3973SOL    HW112479   3.198   0.741   7.483
 3973SOL    HW212480   3.187   0.866   7.399
 3974SOL     OW12481   2.926   1.335   8.300
 3974SOL    HW112482   2.929   1.261   8.239
 3974SOL    HW212483   2.990   1.397   8.265
 3975SOL     OW12484   2.172   0.810   8.397
 3975SOL    HW112485   2.265   0.832   8.390
 3975SOL    HW212486   2.171   0.721   8.432
 3976SOL     OW12487   2.199   0.528   8.460
 3976SOL    HW112488   2.157   0.444   8.441
 3976SOL    HW212489   2.274   0.531   8.401
 3977SOL     OW12490   2.997   0.375   9.139
 3977SOL    HW112491   2.950   0.440   9.192
 3977SOL    HW212492   3.084   0.414   9.126
 3978SOL     OW12493   3.023   0.210   8.922
 3978SOL    HW112494   3.014   0.274   8.992
 3978SOL    HW212495   3.056   0.261   8.848
 3979SOL     OW12496   1.867   1.323   7.643
 3979SOL    HW112497   1.780   1.336   7.606
 3979SOL    HW212498   1.865   1.233   7.676
 3980SOL     OW12499   1.949   1.792   8.381
 3980SOL    HW112500   1.918   1.711   8.341
 3980SOL    HW212501   2.040   1.799   8.352
 3981SOL     OW12502   2.361   1.571   8.352
 3981SOL    HW112503   2.430   1.634   8.372
 3981SOL    HW212504   2.404   1.503   8.299
 3982SOL     OW12505   2.850   0.796   8.677
 3982SOL    HW112506   2.902   0.769   8.753
 3982SOL    HW212507   2.764   0.757   8.693
 3983SOL     OW12508   1.896   0.542   8.566
 3983SOL    HW112509   1.975   0.522   8.516
 3983SOL    HW212510   1.926   0.549   8.656
 3984SOL     OW12511   2.047   0.517   9.168
 3984SOL    HW112512   2.119   0.496   9.108
 3984SOL    HW212513   2.004   0.592   9.127
 3985SOL     OW12514   3.238   0.941   9.108
 3985SOL    HW112515   3.258   1.035   9.108
 3985SOL    HW212516   3.236   0.918   9.015
 3986SOL     OW12517   2.674   0.573   7.800
 3986SOL    HW112518   2.677   0.501   7.738
 3986SOL    HW212519   2.599   0.626   7.772
 3987SOL     OW12520   3.504   0.602   8.638
 3987SOL    HW112521   3.493   0.541   8.711
 3987SOL    HW212522   3.591   0.581   8.603
 3988SOL     OW12523   2.114   1.552   9.182
 3988SOL    HW112524   2.083   1.615   9.248
 3988SOL    HW212525   2.107   1.467   9.225
 3989SOL     OW12526   2.554   0.460   8.714
 3989SOL    HW112527   2.510   0.382   8.680
 3989SOL    HW212528   2.557   0.520   8.639
 3990SOL     OW12529   2.794   1.678   8.914
 3990SOL    HW112530   2.765   1.648   8.828
 3990SOL    HW212531   2.792   1.774   8.908
 3991SOL     OW12532   2.329   0.493   7.634
 3991SOL    HW112533   2.387   0.567   7.654
 3991SOL    HW212534   2.243   0.533   7.625
 3992SOL     OW12535   2.011   1.140   8.920
 3992SOL    HW112536   2.015   1.085   8.998
 3992SOL    HW212537   2.027   1.079   8.847
 3993SOL     OW12538   3.192   1.049   8.673
 3993SOL    HW112539   3.215   0.986   8.605
 3993SOL    HW212540   3.119   1.099   8.636
 3994SOL     OW12541   3.171   0.856   7.755
 3994SOL    HW112542   3.094   0.827   7.804
 3994SOL    HW212543   3.147   0.843   7.664
 3995SOL     OW12544   3.630   1.747   8.596
 3995SOL    HW112545   3.690   1.773   8.526
 3995SOL    HW212546   3.606   1.657   8.576
 3996SOL     OW12547   3.104   1.733   8.565
 3996SOL    HW112548   3.185   1.751   8.518
 3996SOL    HW212549   3.106   1.639   8.583
 3997SOL     OW12550   1.947   1.265   8.462
 3997SOL    HW112551   1.933   1.277   8.556
 3997SOL    HW212552   1.871   1.214   8.433
 3998SOL     OW12553   2.541   1.663   9.172
 3998SOL    HW112554   2.489   1.743   9.171
 3998SOL    HW212555   2.601   1.672   9.099
 3999SOL     OW12556   3.580   0.130   7.946
 3999SOL    HW112557   3.654   0.134   7.886
 3999SOL    HW212558   3.599   0.056   8.003
 4000SOL     OW12559   3.252   1.568   7.931
 4000SOL    HW112560   3.313   1.598   7.863
 4000SOL    HW212561   3.205   1.646   7.958
 4001SOL     OW12562   1.996   1.801   9.295
 4001SOL    HW112563   1.945   1.734   9.340
 4001SOL    HW212564   2.046   1.844   9.364
 4002SOL     OW12565   3.140   0.926   8.120
 4002SOL    HW112566   3.212   0.863   8.124
 4002SOL    HW212567   3.174   0.998   8.068
 4003SOL     OW12568   2.681   1.272   8.879
 4003SOL    HW112569   2.655   1.311   8.963
 4003SOL    HW212570   2.609   1.293   8.820
 4004SOL     OW12571   2.533   1.617   7.604
 4004SOL    HW112572   2.543   1.627   7.509
 4004SOL    HW212573   2.481   1.538   7.614
 4005SOL     OW12574   3.496   1.727   8.840
 4005SOL    HW112575   3.542   1.734   8.757
 4005SOL    HW212576   3.481   1.817   8.869
 4006SOL     OW12577   3.701   0.155   8.415
 4006SOL    HW112578   3.732   0.080   8.365
 4006SOL    HW212579   3.614   0.175   8.379
 4007SOL     OW12580   2.129   0.325   8.168
 4007SOL    HW112581   2.044   0.358   8.139
 4007SOL    HW212582   2.119   0.314   8.263
 4008SOL     OW12583   3.067   1.608   7.479
 4008SOL    HW112584   3.060   1.517   7.507
 4008SOL    HW212585   3.003   1.618   7.409
 4009SOL     OW12586   2.686   1.006   8.820
 4009SOL    HW112587   2.729   1.002   8.734
 4009SOL    HW212588   2.688   1.099   8.843
 4010SOL     OW12589   2.777   0.910   7.737
 4010SOL    HW112590   2.840   0.942   7.672
 4010SOL    HW212591   2.823   0.839   7.782
 4011SOL     OW12592   3.357   1.624   7.490
 4011SOL    HW112593   3.262   1.621   7.479
 4011SOL    HW212594   3.392   1.630   7.401
 4012SOL     OW12595   2.232   1.299   8.940
 4012SOL    HW112596   2.219   1.378   8.887
 4012SOL    HW212597   2.154   1.246   8.923
 4013SOL     OW12598   3.474   1.283   8.729
 4013SOL    HW112599   3.533   1.276   8.805
 4013SOL    HW212600   3.413   1.353   8.753
 4014SOL     OW12601   2.910   1.105   8.153
 4014SOL    HW112602   2.840   1.054   8.193
 4014SOL    HW212603   2.971   1.040   8.119
 4015SOL     OW12604   2.870   0.241   8.444
 4015SOL    HW112605   2.877   0.211   8.353
 4015SOL    HW212606   2.863   0.160   8.495
 4016SOL     OW12607   2.464   1.491   7.930
 4016SOL    HW112608   2.504   1.437   7.861
 4016SOL    HW212609   2.396   1.540   7.886
 4017SOL     OW12610   3.581   0.393   8.826
 4017SOL    HW112611   3.653   0.456   8.824
 4017SOL    HW212612   3.610   0.321   8.770
 4018SOL     OW12613   2.120   1.348   7.735
 4018SOL    HW112614   2.027   1.345   7.713
 4018SOL    HW212615   2.122   1.383   7.824
 4019SOL     OW12616   1.974   1.017   9.167
 4019SOL    HW112617   1.898   0.995   9.221
 4019SOL    HW212618   2.048   0.982   9.216
 4020SOL     OW12619   2.522   0.203   8.944
 4020SOL    HW112620   2.602   0.179   8.898
 4020SOL    HW212621   2.550   0.222   9.034
 4021SOL     OW12622   1.942   0.344   7.494
 4021SOL    HW112623   1.870   0.293   7.458
 4021SOL    HW212624   1.959   0.412   7.429
 4022SOL     OW12625   3.294   0.858   8.850
 4022SOL    HW112626   3.245   0.917   8.792
 4022SOL    HW212627   3.384   0.861   8.816
 4023SOL     OW12628   1.928   0.179   7.771
 4023SOL    HW112629   1.924   0.246   7.702
 4023SOL    HW212630   2.004   0.125   7.747
 4024SOL     OW12631   3.042   1.342   7.565
 4024SOL    HW112632   2.951   1.311   7.568
 4024SOL    HW212633   3.071   1.341   7.656
 4025SOL     OW12634   2.480   0.831   8.880
 4025SOL    HW112635   2.535   0.908   8.866
 4025SOL    HW212636   2.542   0.758   8.888
 4026SOL     OW12637   3.347   1.774   8.423
 4026SOL    HW112638   3.374   1.831   8.351
 4026SOL    HW212639   3.428   1.758   8.472
 4027SOL     OW12640   2.578   0.564   9.155
 4027SOL    HW112641   2.612   0.629   9.216
 4027SOL    HW212642   2.616   0.481   9.184
 4028SOL     OW12643   3.330   1.204   9.081
 4028SOL    HW112644   3.318   1.216   9.175
 4028SOL    HW212645   3.424   1.215   9.067
 4029SOL     OW12646   2.246   1.739   9.012
 4029SOL    HW112647   2.159   1.774   8.995
 4029SOL    HW212648   2.230   1.654   9.054
 4030SOL     OW12649   3.534   0.882   8.704
 4030SOL    HW112650   3.524   0.797   8.661
 4030SOL    HW212651   3.525   0.945   8.633
 4031SOL     OW12652   3.080   0.327   7.896
 4031SOL    HW112653   3.145   0.258   7.887
 4031SOL    HW212654   3.106   0.374   7.975
 4032SOL     OW12655   2.451   0.741   8.116
 4032SOL    HW112656   2.493   0.825   8.098
 4032SOL    HW212657   2.382   0.734   8.051
 4033SOL     OW12658   3.629   0.361   9.091
 4033SOL    HW112659   3.612   0.375   8.997
 4033SOL    HW212660   3.550   0.316   9.123
 4034SOL     OW12661   3.606   0.933   8.961
 4034SOL    HW112662   3.608   1.028   8.974
 4034SOL    HW212663   3.591   0.922   8.867
 4035SOL     OW12664   2.724   1.369   7.477
 4035SOL    HW112665   2.685   1.394   7.561
 4035SOL    HW212666   2.744   1.451   7.434
 4036SOL     OW12667   2.520   1.798   8.384
 4036SOL    HW112668   2.516   1.890   8.411
 4036SOL    HW212669   2.614   1.776   8.386
 4037SOL     OW12670   2.728   0.965   8.304
 4037SOL    HW112671   2.778   0.894   8.344
 4037SOL    HW212672   2.695   1.016   8.378
 4038SOL     OW12673   2.943   0.988   7.537
 4038SOL    HW112674   2.920   1.038   7.458
 4038SOL    HW212675   3.018   0.935   7.511
 4039SOL     OW12676   3.719   1.557   8.294
 4039SOL    HW112677   3.642   1.545   8.237
 4039SOL    HW212678   3.711   1.488   8.359
 4040SOL     OW12679   2.086   1.304   9.304
 4040SOL    HW112680   2.018   1.244   9.275
 4040SOL    HW212681   2.069   1.317   9.397
 4041SOL     OW12682   1.946   1.236   8.111
 4041SOL    HW112683   1.946   1.187   8.193
 4041SOL    HW212684   2.015   1.195   8.058
 4042SOL     OW12685   2.541   1.400   9.073
 4042SOL    HW112686   2.462   1.356   9.103
 4042SOL    HW212687   2.536   1.488   9.111
 4043SOL     OW12688   3.672   0.184   8.687
 4043SOL    HW112689   3.673   0.091   8.708
 4043SOL    HW212690   3.688   0.187   8.592
 4044SOL     OW12691   2.296   0.433   7.975
 4044SOL    HW112692   2.320   0.363   7.915
 4044SOL    HW212693   2.243   0.390   8.042
 4045SOL     OW12694   3.563   1.492   8.549
 4045SOL    HW112695   3.482   1.465   8.505
 4045SOL    HW212696   3.579   1.423   8.614
 4046SOL     OW12697   2.189   0.554   8.739
 4046SOL    HW112698   2.245   0.498   8.793
 4046SOL    HW212699   2.210   0.528   8.649
 4047SOL     OW12700   2.686   1.579   8.128
 4047SOL    HW112701   2.681   1.620   8.042
 4047SOL    HW212702   2.608   1.523   8.133
 4048SOL     OW12703   3.294   0.215   8.566
 4048SOL    HW112704   3.331   0.146   8.620
 4048SOL    HW212705   3.243   0.268   8.627
 4049SOL     OW12706   2.860   0.013   8.596
 4049SOL    HW112707   2.813   4.430   8.586
 4049SOL    HW212708   2.951   4.488   8.609
 4050SOL     OW12709   2.633   1.332   7.758
 4050SOL    HW112710   2.599   1.243   7.765
 4050SOL    HW212711   2.716   1.329   7.806
 4051SOL     OW12712   2.482   1.560   8.730
 4051SOL    HW112713   2.486   1.639   8.784
 4051SOL    HW212714   2.570   1.552   8.694
 4052SOL     OW12715   3.205   0.054   7.600
 4052SOL    HW112716   3.244   4.479   7.554
 4052SOL    HW212717   3.129   0.017   7.645
 4053SOL     OW12718   3.176   0.463   8.129
 4053SOL    HW112719   3.113   0.535   8.130
 4053SOL    HW212720   3.164   0.419   8.214
 4054SOL     OW12721   3.448   0.203   8.315
 4054SOL    HW112722   3.386   0.217   8.388
 4054SOL    HW212723   3.451   0.287   8.270
 4055SOL     OW12724   1.906   1.073   7.752
 4055SOL    HW112725   2.000   1.063   7.735
 4055SOL    HW212726   1.876   0.986   7.776
 4056SOL     OW12727   2.743   1.649   7.793
 4056SOL    HW112728   2.672   1.631   7.732
 4056SOL    HW212729   2.713   1.726   7.842
 4057SOL     OW12730   2.092   0.627   9.429
 4057SOL    HW112731   2.004   0.621   9.466
 4057SOL    HW212732   2.083   0.595   9.340
 4058SOL     OW12733   2.073   0.295  10.298
 4058SOL    HW112734   2.103   0.269  10.385
 4058SOL    HW212735   1.990   0.248  10.287
 4059SOL     OW12736   1.871   0.383   9.950
 4059SOL    HW112737   1.785   0.404   9.986
 4059SOL    HW212738   1.855   0.308   9.892
 4060SOL     OW12739   2.429   1.282  10.482
 4060SOL    HW112740   2.341   1.283  10.445
 4060SOL    HW212741   2.441   1.371  10.516
 4061SOL     OW12742   3.419   1.512  10.015
 4061SOL    HW112743   3.375   1.494  10.098
 4061SOL    HW212744   3.349   1.517   9.951
 4062SOL     OW12745   2.993   0.700  10.012
 4062SOL    HW112746   3.042   0.782  10.000
 4062SOL    HW212747   2.944   0.712  10.093
 4063SOL     OW12748   3.626   0.609   9.540
 4063SOL    HW112749   3.607   0.597   9.447
 4063SOL    HW212750   3.594   0.528   9.581
 4064SOL     OW12751   2.623   1.145  10.349
 4064SOL    HW112752   2.552   1.178  10.403
 4064SOL    HW212753   2.655   1.223  10.302
 4065SOL     OW12754   2.711   0.783   0.020
 4065SOL    HW112755   2.719   0.841   0.096
 4065SOL    HW212756   2.745   0.834  11.047
 4066SOL     OW12757   2.549   1.008   9.959
 4066SOL    HW112758   2.612   0.992  10.029
 4066SOL    HW212759   2.478   1.056  10.001
 4067SOL     OW12760   2.194   1.428  10.378
 4067SOL    HW112761   2.120   1.392  10.328
 4067SOL    HW212762   2.245   1.478  10.314
 4068SOL     OW12763   3.325   1.500  10.656
 4068SOL    HW112764   3.375   1.581  10.667
 4068SOL    HW212765   3.281   1.487  10.741
 4069SOL     OW12766   2.308   0.395  10.791
 4069SOL    HW112767   2.385   0.340  10.801
 4069SOL    HW212768   2.235   0.341  10.819
 4070SOL     OW12769   3.475   0.448  10.048
 4070SOL    HW112770   3.394   0.473  10.002
 4070SOL    HW212771   3.497   0.525  10.100
 4071SOL     OW12772   2.079   1.707   9.778
 4071SOL    HW112773   2.105   1.779   9.836
 4071SOL    HW212774   2.151   1.701   9.715
 4072SOL     OW12775   2.093   1.438   9.846
 4072SOL    HW112776   2.073   1.531   9.848
 4072SOL    HW212777   2.030   1.398   9.905
 4073SOL     OW12778   2.116   1.090  10.201
 4073SOL    HW112779   2.113   1.004  10.243
 4073SOL    HW212780   2.058   1.145  10.253
 4074SOL     OW12781   2.476   1.790  10.739
 4074SOL    HW112782   2.395   1.771  10.787
 4074SOL    HW212783   2.499   1.880  10.764
 4075SOL     OW12784   2.452   0.979   9.442
 4075SOL    HW112785   2.493   1.032   9.374
 4075SOL    HW212786   2.493   1.008   9.523
 4076SOL     OW12787   3.420   0.129  10.780
 4076SOL    HW112788   3.466   0.191  10.722
 4076SOL    HW212789   3.469   0.132  10.861
 4077SOL     OW12790   1.977   0.651   9.869
 4077SOL    HW112791   1.948   0.562   9.891
 4077SOL    HW212792   1.968   0.699   9.951
 4078SOL     OW12793   3.703   1.761   9.647
 4078SOL    HW112794   3.762   1.732   9.717
 4078SOL    HW212795   3.731   1.851   9.629
 4079SOL     OW12796   1.893   1.597   9.434
 4079SOL    HW112797   1.875   1.504   9.452
 4079SOL    HW212798   1.866   1.643   9.513
 4080SOL     OW12799   3.553   0.921   9.948
 4080SOL    HW112800   3.638   0.880   9.930
 4080SOL    HW212801   3.532   0.969   9.868
 4081SOL     OW12802   3.507   1.108   9.739
 4081SOL    HW112803   3.592   1.117   9.697
 4081SOL    HW212804   3.511   1.168   9.814
 4082SOL     OW12805   1.986   0.727  10.911
 4082SOL    HW112806   2.079   0.747  10.912
 4082SOL    HW212807   1.943   0.813  10.906
 4083SOL     OW12808   2.474   1.382  10.045
 4083SOL    HW112809   2.428   1.298  10.054
 4083SOL    HW212810   2.458   1.409   9.955
 4084SOL     OW12811   3.159   1.238  10.750
 4084SOL    HW112812   3.183   1.176  10.681
 4084SOL    HW212813   3.214   1.213  10.824
 4085SOL     OW12814   2.676   0.011   9.855
 4085SOL    HW112815   2.710   0.098   9.832
 4085SOL    HW212816   2.581   0.020   9.848
 4086SOL     OW12817   2.054   0.968  10.577
 4086SOL    HW112818   2.137   0.924  10.561
 4086SOL    HW212819   1.988   0.911  10.538
 4087SOL     OW12820   3.394   0.991   9.506
 4087SOL    HW112821   3.324   0.933   9.536
 4087SOL    HW212822   3.433   1.025   9.587
 4088SOL     OW12823   3.056   1.805  10.926
 4088SOL    HW112824   3.060   1.866  10.852
 4088SOL    HW212825   3.064   1.718  10.886
 4089SOL     OW12826   2.195   0.274  11.088
 4089SOL    HW112827   2.252   0.337   0.031
 4089SOL    HW212828   2.112   0.280   0.035
 4090SOL     OW12829   3.328   1.420  10.263
 4090SOL    HW112830   3.259   1.434  10.328
 4090SOL    HW212831   3.316   1.329  10.235
 4091SOL     OW12832   3.524   1.732   9.887
 4091SOL    HW112833   3.500   1.705   9.799
 4091SOL    HW212834   3.497   1.659   9.943
 4092SOL     OW12835   2.456   0.724   9.574
 4092SOL    HW112836   2.464   0.804   9.522
 4092SOL    HW212837   2.391   0.745   9.640
 4093SOL     OW12838   3.151   0.358  10.245
 4093SOL    HW112839   3.063   0.326  10.229
 4093SOL    HW212840   3.189   0.295  10.307
 4094SOL     OW12841   3.443   1.668   9.619
 4094SOL    HW112842   3.532   1.703   9.613
 4094SOL    HW212843   3.419   1.651   9.528
 4095SOL     OW12844   2.658   0.616  10.766
 4095SOL    HW112845   2.626   0.593  10.854
 4095SOL    HW212846   2.616   0.553  10.708
 4096SOL     OW12847   2.828   0.897  10.899
 4096SOL    HW112848   2.876   0.823  10.860
 4096SOL    HW212849   2.778   0.933  10.826
 4097SOL     OW12850   2.857   0.418  10.548
 4097SOL    HW112851   2.771   0.431  10.588
 4097SOL    HW212852   2.839   0.365  10.470
 4098SOL     OW12853   2.911   0.698   9.738
 4098SOL    HW112854   2.926   0.691   9.832
 4098SOL    HW212855   2.829   0.651   9.723
 4099SOL     OW12856   1.951   0.820  10.086
 4099SOL    HW112857   2.033   0.813  10.135
 4099SOL    HW212858   1.908   0.898  10.121
 4100SOL     OW12859   1.993   1.831  10.894
 4100SOL    HW112860   1.966   1.808  10.983
 4100SOL    HW212861   1.911   1.852  10.849
 4101SOL     OW12862   2.716   0.368   9.489
 4101SOL    HW112863   2.791   0.403   9.442
 4101SOL    HW212864   2.733   0.274   9.494
 4102SOL     OW12865   3.237   1.143   9.852
 4102SOL    HW112866   3.315   1.128   9.799
 4102SOL    HW212867   3.185   1.205   9.801
 4103SOL     OW12868   2.403   0.201  10.211
 4103SOL    HW112869   2.421   0.219  10.303
 4103SOL    HW212870   2.394   0.288  10.171
 4104SOL     OW12871   2.871   1.446   9.784
 4104SOL    HW112872   2.830   1.517   9.735
 4104SOL    HW212873   2.857   1.469   9.876
 4105SOL     OW12874   2.217   1.798  10.175
 4105SOL    HW112875   2.253   1.709  10.180
 4105SOL    HW212876   2.292   1.855  10.197
 4106SOL     OW12877   3.660   1.062  10.177
 4106SOL    HW112878   3.603   1.043  10.102
 4106SOL    HW212879   3.600   1.065  10.252
 4107SOL     OW12880   3.087   1.541  10.825
 4107SOL    HW112881   3.097   1.454  10.864
 4107SOL    HW212882   3.031   1.527  10.749
 4108SOL     OW12883   2.184   0.955   9.558
 4108SOL    HW112884   2.265   0.974   9.512
 4108SOL    HW212885   2.152   0.874   9.518
 4109SOL     OW12886   3.338   0.739  10.036
 4109SOL    HW112887   3.324   0.692  10.118
 4109SOL    HW212888   3.415   0.794  10.053
 4110SOL     OW12889   2.315   1.269  11.053
 4110SOL    HW112890   2.287   1.276  10.962
 4110SOL    HW212891   2.249   1.212  11.094
 4111SOL     OW12892   2.983   1.777   9.542
 4111SOL    HW112893   2.911   1.733   9.589
 4111SOL    HW212894   3.004   1.718   9.470
 4112SOL     OW12895   2.056   0.268  10.812
 4112SOL    HW112896   1.987   0.333  10.804
 4112SOL    HW212897   2.067   0.257  10.906
 4113SOL     OW12898   3.492   1.379   9.396
 4113SOL    HW112899   3.451   1.464   9.382
 4113SOL    HW212900   3.422   1.315   9.378
 4114SOL     OW12901   2.330   1.735   9.632
 4114SOL    HW112902   2.371   1.793   9.696
 4114SOL    HW212903   2.401   1.708   9.575
 4115SOL     OW12904   3.278   0.131   9.729
 4115SOL    HW112905   3.260   0.084   9.647
 4115SOL    HW212906   3.373   0.129   9.738
 4116SOL     OW12907   2.104   1.781  10.551
 4116SOL    HW112908   2.169   1.724  10.592
 4116SOL    HW212909   2.108   1.758  10.458
 4117SOL     OW12910   2.799   1.697  10.213
 4117SOL    HW112911   2.878   1.645  10.230
 4117SOL    HW212912   2.754   1.650  10.143
 4118SOL     OW12913   2.252   0.695   9.788
 4118SOL    HW112914   2.277   0.603   9.797
 4118SOL    HW212915   2.159   0.697   9.807
 4119SOL     OW12916   2.485   0.123   9.430
 4119SOL    HW112917   2.574   0.088   9.439
 4119SOL    HW212918   2.454   0.089   9.346
 4120SOL     OW12919   2.626   0.266  11.044
 4120SOL    HW112920   2.693   0.208  11.079
 4120SOL    HW212921   2.581   0.300   0.022
 4121SOL     OW12922   2.738   1.521  10.503
 4121SOL    HW112923   2.724   1.485  10.415
 4121SOL    HW212924   2.809   1.468  10.539
 4122SOL     OW12925   3.206   0.589  10.752
 4122SOL    HW112926   3.254   0.570  10.833
 4122SOL    HW212927   3.233   0.678  10.728
 4123SOL     OW12928   2.675   1.399  10.245
 4123SOL    HW112929   2.758   1.388  10.200
 4123SOL    HW212930   2.609   1.395  10.176
 4124SOL     OW12931   2.784   0.515  10.212
 4124SOL    HW112932   2.768   0.513  10.118
 4124SOL    HW212933   2.825   0.431  10.231
 4125SOL     OW12934   2.415   0.073   9.830
 4125SOL    HW112935   2.325   0.050   9.854
 4125SOL    HW212936   2.405   0.141   9.763
 4126SOL     OW12937   3.291   1.197   9.351
 4126SOL    HW112938   3.321   1.122   9.401
 4126SOL    HW212939   3.204   1.217   9.388
 4127SOL     OW12940   2.158   0.072   9.501
 4127SOL    HW112941   2.237   0.123   9.483
 4127SOL    HW212942   2.189   4.499   9.555
 4128SOL     OW12943   2.811   0.240   9.783
 4128SOL    HW112944   2.759   0.288   9.718
 4128SOL    HW212945   2.900   0.275   9.773
 4129SOL     OW12946   2.940   0.682  10.773
 4129SOL    HW112947   2.867   0.620  10.773
 4129SOL    HW212948   3.018   0.627  10.763
 4130SOL     OW12949   3.086   1.570  10.104
 4130SOL    HW112950   3.105   1.637  10.038
 4130SOL    HW212951   3.155   1.581  10.170
 4131SOL     OW12952   2.329   1.148  10.047
 4131SOL    HW112953   2.258   1.129  10.109
 4131SOL    HW212954   2.291   1.130   9.961
 4132SOL     OW12955   3.133   1.795   9.915
 4132SOL    HW112956   3.177   1.857   9.856
 4132SOL    HW212957   3.069   1.848   9.962
 4133SOL     OW12958   2.893   0.549   9.324
 4133SOL    HW112959   2.845   0.631   9.308
 4133SOL    HW212960   2.951   0.569   9.398
 4134SOL     OW12961   1.940   0.551  10.705
 4134SOL    HW112962   2.030   0.554  10.675
 4134SOL    HW212963   1.935   0.617  10.774
 4135SOL     OW12964   2.426   0.241  10.475
 4135SOL    HW112965   2.451   0.154  10.507
 4135SOL    HW212966   2.334   0.250  10.501
 4136SOL     OW12967   2.728   0.501   9.936
 4136SOL    HW112968   2.677   0.542   9.867
 4136SOL    HW212969   2.713   0.407   9.924
 4137SOL     OW12970   2.834   0.032  10.084
 4137SOL    HW112971   2.784   0.027  10.002
 4137SOL    HW212972   2.842   4.441  10.112
 4138SOL     OW12973   3.297   1.164  10.168
 4138SOL    HW112974   3.231   1.095  10.166
 4138SOL    HW212975   3.320   1.178  10.076
 4139SOL     OW12976   3.329   0.603  10.290
 4139SOL    HW112977   3.279   0.521  10.292
 4139SOL    HW212978   3.389   0.597  10.364
 4140SOL     OW12979   3.710   0.819   9.691
 4140SOL    HW112980   3.765   0.767   9.749
 4140SOL    HW212981   3.680   0.758   9.624
 4141SOL     OW12982   2.354   1.414   9.471
 4141SOL    HW112983   2.279   1.384   9.523
 4141SOL    HW212984   2.333   1.388   9.382
 4142SOL     OW12985   3.530   1.266   9.958
 4142SOL    HW112986   3.625   1.271   9.972
 4142SOL    HW212987   3.498   1.353   9.980
 4143SOL     OW12988   3.256   0.570   9.380
 4143SOL    HW112989   3.195   0.554   9.452
 4143SOL    HW212990   3.342   0.547   9.415
 4144SOL     OW12991   2.387   0.266   9.635
 4144SOL    HW112992   2.429   0.212   9.567
 4144SOL    HW212993   2.371   0.350   9.593
 4145SOL     OW12994   3.622   1.229  10.874
 4145SOL    HW112995   3.713   1.199  10.879
 4145SOL    HW212996   3.624   1.316  10.915
 4146SOL     OW12997   2.927   1.355  10.651
 4146SOL    HW112998   2.849   1.321  10.695
 4146SOL    HW212999   3.000   1.306  10.690
 4147SOL     OW13000   2.988   1.205  10.418
 4147SOL    HW113001   2.923   1.239  10.480
 4147SOL    HW213002   2.955   1.231  10.332
 4148SOL     OW13003   3.493   1.100  10.389
 4148SOL    HW113004   3.489   1.162  10.462
 4148SOL    HW213005   3.412   1.115  10.340
 4149SOL     OW13006   2.764   0.127  10.700
 4149SOL    HW113007   2.790   0.087  10.617
 4149SOL    HW213008   2.845   0.139  10.748
 4150SOL     OW13009   2.570   1.061   9.682
 4150SOL    HW113010   2.557   1.046   9.775
 4150SOL    HW213011   2.646   1.007   9.660
 4151SOL     OW13012   2.279   0.814  10.561
 4151SOL    HW113013   2.348   0.823  10.626
 4151SOL    HW213014   2.244   0.726  10.576
 4152SOL     OW13015   3.132   0.381  10.581
 4152SOL    HW113016   3.162   0.459  10.627
 4152SOL    HW213017   3.044   0.403  10.551
 4153SOL     OW13018   1.928   1.573  10.656
 4153SOL    HW113019   1.895   1.647  10.606
 4153SOL    HW213020   2.023   1.583  10.655
 4154SOL     OW13021   2.217   1.106   9.802
 4154SOL    HW113022   2.219   1.179   9.741
 4154SOL    HW213023   2.215   1.028   9.747
 4155SOL     OW13024   2.421   0.533  10.169
 4155SOL    HW113025   2.436   0.591  10.095
 4155SOL    HW213026   2.481   0.563  10.237
 4156SOL     OW13027   3.110   1.348   9.699
 4156SOL    HW113028   3.165   1.420   9.730
 4156SOL    HW213029   3.023   1.368   9.733
 4157SOL     OW13030   3.137   1.456  10.454
 4157SOL    HW113031   3.193   1.459  10.532
 4157SOL    HW213032   3.085   1.377  10.465
 4158SOL     OW13033   3.445   0.625   9.785
 4158SOL    HW113034   3.401   0.679   9.851
 4158SOL    HW213035   3.490   0.688   9.728
 4159SOL     OW13036   2.212   1.518  10.630
 4159SOL    HW113037   2.197   1.479  10.544
 4159SOL    HW213038   2.307   1.534  10.632
 4160SOL     OW13039   2.274   0.737  10.906
 4160SOL    HW113040   2.336   0.783  10.849
 4160SOL    HW213041   2.314   0.651  10.919
 4161SOL     OW13042   3.452   0.763  10.971
 4161SOL    HW113043   3.375   0.819  10.966
 4161SOL    HW213044   3.521   0.812  10.927
 4162SOL     OW13045   2.444   0.872  10.341
 4162SOL    HW113046   2.472   0.963  10.338
 4162SOL    HW213047   2.387   0.867  10.417
 4163SOL     OW13048   3.222   0.860  10.346
 4163SOL    HW113049   3.142   0.854  10.294
 4163SOL    HW213050   3.260   0.772  10.342
 4164SOL     OW13051   3.070   0.534   9.577
 4164SOL    HW113052   3.075   0.453   9.628
 4164SOL    HW213053   3.026   0.597   9.635
 4165SOL     OW13054   2.152   0.235  10.549
 4165SOL    HW113055   2.116   0.252  10.635
 4165SOL    HW213056   2.179   0.143  10.552
 4166SOL     OW13057   1.910   1.310  10.586
 4166SOL    HW113058   1.939   1.258  10.661
 4166SOL    HW213059   1.915   1.401  10.617
 4167SOL     OW13060   2.588   0.633  10.371
 4167SOL    HW113061   2.659   0.612  10.311
 4167SOL    HW213062   2.560   0.721  10.346
 4168SOL     OW13063   2.161   0.061   9.963
 4168SOL    HW113064   2.151   0.156   9.969
 4168SOL    HW213065   2.173   0.032  10.054
 4169SOL     OW13066   3.472   0.374   9.677
 4169SOL    HW113067   3.504   0.312   9.742
 4169SOL    HW213068   3.451   0.452   9.727
 4170SOL     OW13069   2.889   0.761  10.273
 4170SOL    HW113070   2.889   0.777  10.367
 4170SOL    HW213071   2.861   0.670  10.264
 4171SOL     OW13072   2.835   1.571  11.005
 4171SOL    HW113073   2.822   1.621  10.924
 4171SOL    HW213074   2.870   1.487  10.976
 4172SOL     OW13075   3.721   1.498  10.912
 4172SOL    HW113076   3.734   1.532  10.824
 4172SOL    HW213077   3.790   1.539  10.964
 4173SOL     OW13078   2.222   0.920  11.095
 4173SOL    HW113079   2.306   0.933   0.037
 4173SOL    HW213080   2.238   0.853  11.029
 4174SOL     OW13081   3.394   0.268   9.438
 4174SOL    HW113082   3.322   0.211   9.465
 4174SOL    HW213083   3.422   0.312   9.518
 4175SOL     OW13084   3.157   0.827   9.343
 4175SOL    HW113085   3.198   0.741   9.345
 4175SOL    HW213086   3.187   0.866   9.261
 4176SOL     OW13087   2.927   1.334  10.162
 4176SOL    HW113088   2.929   1.261  10.101
 4176SOL    HW213089   2.990   1.398  10.128
 4177SOL     OW13090   2.172   0.810  10.259
 4177SOL    HW113091   2.265   0.832  10.252
 4177SOL    HW213092   2.171   0.721  10.294
 4178SOL     OW13093   2.199   0.528  10.322
 4178SOL    HW113094   2.157   0.444  10.303
 4178SOL    HW213095   2.274   0.531  10.263
 4179SOL     OW13096   3.020   0.216  10.773
 4179SOL    HW113097   3.025   0.274  10.849
 4179SOL    HW213098   3.053   0.268  10.701
 4180SOL     OW13099   1.867   1.323   9.505
 4180SOL    HW113100   1.780   1.336   9.468
 4180SOL    HW213101   1.865   1.233   9.538
 4181SOL     OW13102   1.949   1.793  10.243
 4181SOL    HW113103   1.918   1.711  10.203
 4181SOL    HW213104   2.041   1.799  10.218
 4182SOL     OW13105   2.362   1.570  10.215
 4182SOL    HW113106   2.431   1.635  10.232
 4182SOL    HW213107   2.405   1.504  10.161
 4183SOL     OW13108   2.850   0.796  10.539
 4183SOL    HW113109   2.901   0.771  10.616
 4183SOL    HW213110   2.764   0.757  10.554
 4184SOL     OW13111   1.897   0.542  10.428
 4184SOL    HW113112   1.976   0.522  10.379
 4184SOL    HW213113   1.926   0.549  10.519
 4185SOL     OW13114   2.674   0.573   9.662
 4185SOL    HW113115   2.677   0.501   9.600
 4185SOL    HW213116   2.599   0.626   9.634
 4186SOL     OW13117   3.504   0.601  10.499
 4186SOL    HW113118   3.494   0.541  10.573
 4186SOL    HW213119   3.591   0.582  10.464
 4187SOL     OW13120   2.121   1.563  11.057
 4187SOL    HW113121   2.065   1.603   0.023
 4187SOL    HW213122   2.113   1.469  11.073
 4188SOL     OW13123   2.558   0.459  10.576
 4188SOL    HW113124   2.510   0.382  10.543
 4188SOL    HW213125   2.558   0.519  10.501
 4189SOL     OW13126   2.802   1.682  10.761
 4189SOL    HW113127   2.765   1.652  10.678
 4189SOL    HW213128   2.792   1.777  10.759
 4190SOL     OW13129   2.329   0.493   9.496
 4190SOL    HW113130   2.387   0.567   9.516
 4190SOL    HW213131   2.243   0.533   9.487
 4191SOL     OW13132   2.017   1.138  10.780
 4191SOL    HW113133   2.011   1.082  10.857
 4191SOL    HW213134   2.029   1.078  10.707
 4192SOL     OW13135   3.190   1.054  10.539
 4192SOL    HW113136   3.217   0.989  10.474
 4192SOL    HW213137   3.117   1.100  10.497
 4193SOL     OW13138   3.171   0.856   9.617
 4193SOL    HW113139   3.094   0.827   9.666
 4193SOL    HW213140   3.147   0.843   9.526
 4194SOL     OW13141   3.631   1.748  10.460
 4194SOL    HW113142   3.690   1.773  10.389
 4194SOL    HW213143   3.606   1.657  10.440
 4195SOL     OW13144   3.104   1.733  10.428
 4195SOL    HW113145   3.185   1.752  10.381
 4195SOL    HW213146   3.106   1.639  10.444
 4196SOL     OW13147   1.946   1.266  10.323
 4196SOL    HW113148   1.934   1.277  10.418
 4196SOL    HW213149   1.871   1.213  10.295
 4197SOL     OW13150   3.580   0.130   9.808
 4197SOL    HW113151   3.654   0.134   9.748
 4197SOL    HW213152   3.599   0.056   9.865
 4198SOL     OW13153   3.252   1.568   9.793
 4198SOL    HW113154   3.312   1.598   9.725
 4198SOL    HW213155   3.205   1.646   9.820
 4199SOL     OW13156   3.140   0.926   9.983
 4199SOL    HW113157   3.212   0.863   9.985
 4199SOL    HW213158   3.174   0.998   9.930
 4200SOL     OW13159   2.684   1.272  10.739
 4200SOL    HW113160   2.654   1.307  10.824
 4200SOL    HW213161   2.612   1.293  10.679
 4201SOL     OW13162   2.533   1.617   9.466
 4201SOL    HW113163   2.543   1.628   9.371
 4201SOL    HW213164   2.481   1.538   9.476
 4202SOL     OW13165   3.490   1.720  10.701
 4202SOL    HW113166   3.542   1.733  10.621
 4202SOL    HW213167   3.476   1.808  10.736
 4203SOL     OW13168   3.701   0.156  10.278
 4203SOL    HW113169   3.732   0.080  10.227
 4203SOL    HW213170   3.614   0.175  10.241
 4204SOL     OW13171   2.129   0.325  10.030
 4204SOL    HW113172   2.044   0.358  10.001
 4204SOL    HW213173   2.120   0.314  10.125
 4205SOL     OW13174   3.067   1.608   9.341
 4205SOL    HW113175   3.060   1.517   9.369
 4205SOL    HW213176   3.003   1.618   9.271
 4206SOL     OW13177   2.687   1.005  10.684
 4206SOL    HW113178   2.728   1.000  10.598
 4206SOL    HW213179   2.689   1.099  10.706
 4207SOL     OW13180   2.778   0.910   9.600
 4207SOL    HW113181   2.840   0.942   9.534
 4207SOL    HW213182   2.823   0.839   9.644
 4208SOL     OW13183   3.357   1.624   9.352
 4208SOL    HW113184   3.262   1.621   9.341
 4208SOL    HW213185   3.392   1.630   9.263
 4209SOL     OW13186   2.230   1.303  10.805
 4209SOL    HW113187   2.218   1.378  10.748
 4209SOL    HW213188   2.156   1.246  10.786
 4210SOL     OW13189   3.475   1.283  10.593
 4210SOL    HW113190   3.531   1.273  10.670
 4210SOL    HW213191   3.417   1.356  10.615
 4211SOL     OW13192   2.910   1.105  10.015
 4211SOL    HW113193   2.839   1.054  10.055
 4211SOL    HW213194   2.971   1.040   9.980
 4212SOL     OW13195   2.870   0.241  10.306
 4212SOL    HW113196   2.877   0.212  10.215
 4212SOL    HW213197   2.863   0.161  10.357
 4213SOL     OW13198   2.464   1.490   9.792
 4213SOL    HW113199   2.504   1.437   9.723
 4213SOL    HW213200   2.396   1.541   9.748
 4214SOL     OW13201   3.579   0.393  10.688
 4214SOL    HW113202   3.650   0.457  10.689
 4214SOL    HW213203   3.609   0.323  10.630
 4215SOL     OW13204   2.120   1.348   9.597
 4215SOL    HW113205   2.027   1.345   9.575
 4215SOL    HW213206   2.123   1.383   9.686
 4216SOL     OW13207   1.975   1.010  11.021
 4216SOL    HW113208   1.904   0.995  11.083
 4216SOL    HW213209   2.054   0.982  11.066
 4217SOL     OW13210   2.518   0.189  10.808
 4217SOL    HW113211   2.596   0.169  10.757
 4217SOL    HW213212   2.552   0.223  10.891
 4218SOL     OW13213   1.942   0.344   9.356
 4218SOL    HW113214   1.870   0.293   9.320
 4218SOL    HW213215   1.959   0.412   9.291
 4219SOL     OW13216   3.293   0.849  10.710
 4219SOL    HW113217   3.245   0.915  10.661
 4219SOL    HW213218   3.384   0.859  10.681
 4220SOL     OW13219   1.928   0.179   9.633
 4220SOL    HW113220   1.924   0.246   9.564
 4220SOL    HW213221   2.004   0.125   9.609
 4221SOL     OW13222   3.042   1.342   9.427
 4221SOL    HW113223   2.951   1.312   9.430
 4221SOL    HW213224   3.071   1.341   9.518
 4222SOL     OW13225   2.481   0.831  10.743
 4222SOL    HW113226   2.536   0.908  10.728
 4222SOL    HW213227   2.542   0.758  10.750
 4223SOL     OW13228   3.347   1.774  10.285
 4223SOL    HW113229   3.374   1.831  10.213
 4223SOL    HW213230   3.427   1.758  10.334
 4224SOL     OW13231   2.576   0.564  11.018
 4224SOL    HW113232   2.609   0.636  11.072
 4224SOL    HW213233   2.630   0.489  11.043
 4225SOL     OW13234   2.249   1.735  10.873
 4225SOL    HW113235   2.167   1.782  10.862
 4225SOL    HW213236   2.226   1.658  10.925
 4226SOL     OW13237   3.535   0.883  10.567
 4226SOL    HW113238   3.524   0.798  10.524
 4226SOL    HW213239   3.526   0.946  10.495
 4227SOL     OW13240   3.080   0.327   9.758
 4227SOL    HW113241   3.145   0.258   9.749
 4227SOL    HW213242   3.107   0.374   9.837
 4228SOL     OW13243   2.451   0.741   9.978
 4228SOL    HW113244   2.493   0.825   9.960
 4228SOL    HW213245   2.382   0.734   9.913
 4229SOL     OW13246   3.619   0.316  10.948
 4229SOL    HW113247   3.599   0.356  10.863
 4229SOL    HW213248   3.539   0.329  11.000
 4230SOL     OW13249   3.610   0.935  10.825
 4230SOL    HW113250   3.605   1.029  10.839
 4230SOL    HW213251   3.593   0.923  10.732
 4231SOL     OW13252   2.725   1.369   9.340
 4231SOL    HW113253   2.685   1.394   9.423
 4231SOL    HW213254   2.744   1.452   9.296
 4232SOL     OW13255   2.517   1.803  10.245
 4232SOL    HW113256   2.503   1.884  10.296
 4232SOL    HW213257   2.611   1.789  10.248
 4233SOL     OW13258   2.727   0.965  10.166
 4233SOL    HW113259   2.778   0.894  10.206
 4233SOL    HW213260   2.695   1.016  10.241
 4234SOL     OW13261   2.943   0.988   9.399
 4234SOL    HW113262   2.920   1.038   9.320
 4234SOL    HW213263   3.018   0.935   9.373
 4235SOL     OW13264   3.719   1.557  10.155
 4235SOL    HW113265   3.642   1.545  10.100
 4235SOL    HW213266   3.712   1.488  10.221
 4236SOL     OW13267   1.945   1.236   9.973
 4236SOL    HW113268   1.946   1.186  10.055
 4236SOL    HW213269   2.014   1.196   9.920
 4237SOL     OW13270   2.540   1.394  10.935
 4237SOL    HW113271   2.466   1.344  10.970
 4237SOL    HW213272   2.512   1.485  10.941
 4238SOL     OW13273   3.669   0.182  10.550
 4238SOL    HW113274   3.677   0.089  10.569
 4238SOL    HW213275   3.686   0.188  10.456
 4239SOL     OW13276   2.296   0.433   9.837
 4239SOL    HW113277   2.320   0.363   9.777
 4239SOL    HW213278   2.243   0.390   9.904
 4240SOL     OW13279   3.563   1.492  10.411
 4240SOL    HW113280   3.483   1.465  10.368
 4240SOL    HW213281   3.580   1.423  10.476
 4241SOL     OW13282   2.189   0.555  10.600
 4241SOL    HW113283   2.242   0.498  10.656
 4241SOL    HW213284   2.209   0.527  10.511
 4242SOL     OW13285   2.687   1.578   9.990
 4242SOL    HW113286   2.682   1.622   9.905
 4242SOL    HW213287   2.609   1.523   9.994
 4243SOL     OW13288   3.293   0.214  10.429
 4243SOL    HW113289   3.333   0.147  10.483
 4243SOL    HW213290   3.243   0.268  10.490
 4244SOL     OW13291   2.859   0.014  10.458
 4244SOL    HW113292   2.813   4.430  10.447
 4244SOL    HW213293   2.950   4.488  10.472
 4245SOL     OW13294   2.633   1.332   9.620
 4245SOL    HW113295   2.599   1.243   9.627
 4245SOL    HW213296   2.716   1.329   9.668
 4246SOL     OW13297   2.482   1.559  10.594
 4246SOL    HW113298   2.484   1.640  10.644
 4246SOL    HW213299   2.569   1.552  10.556
 4247SOL     OW13300   3.205   0.054   9.462
 4247SOL    HW113301   3.244   4.479   9.417
 4247SOL    HW213302   3.129   0.017   9.507
 4248SOL     OW13303   3.176   0.463   9.991
 4248SOL    HW113304   3.113   0.535   9.992
 4248SOL    HW213305   3.164   0.419  10.076
 4249SOL     OW13306   3.448   0.203  10.177
 4249SOL    HW113307   3.386   0.217  10.249
 4249SOL    HW213308   3.451   0.287  10.132
 4250SOL     OW13309   1.906   1.073   9.615
 4250SOL    HW113310   1.999   1.063   9.597
 4250SOL    HW213311   1.876   0.985   9.638
 4251SOL     OW13312   2.743   1.649   9.655
 4251SOL    HW113313   2.672   1.631   9.593
 4251SOL    HW213314   2.713   1.725   9.704
 4252SOL     OW13315   2.068   2.521   0.104
 4252SOL    HW113316   1.994   2.486   0.152
 4252SOL    HW213317   2.105   2.446   0.058
 4253SOL     OW13318   1.865   2.246   0.630
 4253SOL    HW113319   1.786   2.266   0.681
 4253SOL    HW213320   1.848   2.161   0.590
 4254SOL     OW13321   2.428   3.144   1.172
 4254SOL    HW113322   2.341   3.147   1.133
 4254SOL    HW213323   2.443   3.232   1.206
 4255SOL     OW13324   3.419   3.373   0.705
 4255SOL    HW113325   3.375   3.355   0.788
 4255SOL    HW213326   3.348   3.378   0.641
 4256SOL     OW13327   2.991   2.561   0.704
 4256SOL    HW113328   3.041   2.641   0.690
 4256SOL    HW213329   2.945   2.576   0.787
 4257SOL     OW13330   3.634   2.466   0.222
 4257SOL    HW113331   3.588   2.463   0.138
 4257SOL    HW213332   3.595   2.395   0.273
 4258SOL     OW13333   2.621   3.006   1.037
 4258SOL    HW113334   2.551   3.040   1.093
 4258SOL    HW213335   2.655   3.084   0.992
 4259SOL     OW13336   2.721   2.644   1.821
 4259SOL    HW113337   2.713   2.716   1.883
 4259SOL    HW213338   2.747   2.687   1.739
 4260SOL     OW13339   2.549   2.871   0.649
 4260SOL    HW113340   2.612   2.854   0.719
 4260SOL    HW213341   2.478   2.919   0.691
 4261SOL     OW13342   2.569   3.014   1.808
 4261SOL    HW113343   2.617   3.093   1.832
 4261SOL    HW213344   2.485   3.046   1.775
 4262SOL     OW13345   2.193   3.291   1.068
 4262SOL    HW113346   2.121   3.255   1.017
 4262SOL    HW213347   2.244   3.342   1.005
 4263SOL     OW13348   3.324   3.360   1.350
 4263SOL    HW113349   3.367   3.445   1.361
 4263SOL    HW213350   3.270   3.350   1.429
 4264SOL     OW13351   3.475   2.312   0.739
 4264SOL    HW113352   3.399   2.338   0.688
 4264SOL    HW213353   3.496   2.388   0.792
 4265SOL     OW13354   2.082   3.574   0.476
 4265SOL    HW113355   2.106   3.652   0.526
 4265SOL    HW213356   2.148   3.569   0.407
 4266SOL     OW13357   2.997   3.203   1.691
 4266SOL    HW113358   3.037   3.199   1.778
 4266SOL    HW213359   2.945   3.123   1.686
 4267SOL     OW13360   2.091   3.301   0.534
 4267SOL    HW113361   2.075   3.396   0.538
 4267SOL    HW213362   2.027   3.264   0.595
 4268SOL     OW13363   2.116   2.954   0.890
 4268SOL    HW113364   2.112   2.867   0.931
 4268SOL    HW213365   2.057   3.008   0.942
 4269SOL     OW13366   2.478   3.652   1.432
 4269SOL    HW113367   2.395   3.635   1.476
 4269SOL    HW213368   2.500   3.742   1.456
 4270SOL     OW13369   2.450   2.844   0.137
 4270SOL    HW113370   2.484   2.906   0.073
 4270SOL    HW213371   2.493   2.868   0.219
 4271SOL     OW13372   3.458   1.983   1.470
 4271SOL    HW113373   3.455   2.062   1.416
 4271SOL    HW213374   3.447   2.014   1.560
 4272SOL     OW13375   1.983   2.505   0.562
 4272SOL    HW113376   1.946   2.419   0.582
 4272SOL    HW213377   1.968   2.557   0.641
 4273SOL     OW13378   3.703   3.624   0.337
 4273SOL    HW113379   3.763   3.593   0.405
 4273SOL    HW213380   3.732   3.713   0.318
 4274SOL     OW13381   1.903   3.464   0.120
 4274SOL    HW113382   1.876   3.375   0.142
 4274SOL    HW213383   1.876   3.517   0.195
 4275SOL     OW13384   3.550   2.779   0.637
 4275SOL    HW113385   3.637   2.743   0.621
 4275SOL    HW213386   3.531   2.831   0.559
 4276SOL     OW13387   3.508   2.969   0.432
 4276SOL    HW113388   3.589   2.982   0.384
 4276SOL    HW213389   3.512   3.030   0.505
 4277SOL     OW13390   1.982   2.597   1.583
 4277SOL    HW113391   2.070   2.613   1.618
 4277SOL    HW213392   1.937   2.681   1.596
 4278SOL     OW13393   2.474   3.244   0.735
 4278SOL    HW113394   2.428   3.161   0.744
 4278SOL    HW213395   2.458   3.272   0.645
 4279SOL     OW13396   3.153   3.101   1.424
 4279SOL    HW113397   3.185   3.033   1.365
 4279SOL    HW213398   3.208   3.093   1.502
 4280SOL     OW13399   2.673   1.862   0.503
 4280SOL    HW113400   2.714   1.947   0.490
 4280SOL    HW213401   2.580   1.881   0.515
 4281SOL     OW13402   2.054   2.832   1.268
 4281SOL    HW113403   2.137   2.788   1.250
 4281SOL    HW213404   1.988   2.776   1.229
 4282SOL     OW13405   3.383   2.860   0.200
 4282SOL    HW113406   3.319   2.797   0.232
 4282SOL    HW213407   3.430   2.889   0.278
 4283SOL     OW13408   3.047   3.665   1.620
 4283SOL    HW113409   3.062   3.722   1.545
 4283SOL    HW213410   3.062   3.577   1.586
 4284SOL     OW13411   3.327   3.282   0.953
 4284SOL    HW113412   3.259   3.295   1.019
 4284SOL    HW213413   3.316   3.191   0.926
 4285SOL     OW13414   3.523   3.595   0.579
 4285SOL    HW113415   3.501   3.568   0.490
 4285SOL    HW213416   3.497   3.521   0.634
 4286SOL     OW13417   2.462   2.585   0.269
 4286SOL    HW113418   2.467   2.660   0.210
 4286SOL    HW213419   2.389   2.605   0.328
 4287SOL     OW13420   3.142   2.209   0.932
 4287SOL    HW113421   3.053   2.176   0.940
 4287SOL    HW213422   3.192   2.158   0.995
 4288SOL     OW13423   3.444   3.530   0.311
 4288SOL    HW113424   3.533   3.564   0.305
 4288SOL    HW213425   3.419   3.511   0.220
 4289SOL     OW13426   2.655   2.482   1.453
 4289SOL    HW113427   2.630   2.456   1.542
 4289SOL    HW213428   2.620   2.413   1.397
 4290SOL     OW13429   3.256   2.336   1.678
 4290SOL    HW113430   3.256   2.380   1.763
 4290SOL    HW213431   3.319   2.265   1.688
 4291SOL     OW13432   2.820   2.750   1.580
 4291SOL    HW113433   2.874   2.679   1.546
 4291SOL    HW213434   2.773   2.783   1.504
 4292SOL     OW13435   2.856   2.273   1.240
 4292SOL    HW113436   2.771   2.298   1.277
 4292SOL    HW213437   2.834   2.226   1.159
 4293SOL     OW13438   2.911   2.563   0.427
 4293SOL    HW113439   2.926   2.556   0.521
 4293SOL    HW213440   2.828   2.516   0.413
 4294SOL     OW13441   1.951   2.682   0.773
 4294SOL    HW113442   2.034   2.677   0.822
 4294SOL    HW213443   1.906   2.758   0.809
 4295SOL     OW13444   1.990   3.700   1.575
 4295SOL    HW113445   1.988   3.682   1.669
 4295SOL    HW213446   1.899   3.705   1.549
 4296SOL     OW13447   2.745   2.215   0.205
 4296SOL    HW113448   2.796   2.270   0.145
 4296SOL    HW213449   2.761   2.126   0.176
 4297SOL     OW13450   3.573   2.440   1.828
 4297SOL    HW113451   3.536   2.516   1.783
 4297SOL    HW213452   3.596   2.379   1.758
 4298SOL     OW13453   3.237   3.004   0.542
 4298SOL    HW113454   3.315   2.989   0.489
 4298SOL    HW213455   3.185   3.066   0.491
 4299SOL     OW13456   2.871   3.308   0.475
 4299SOL    HW113457   2.829   3.379   0.426
 4299SOL    HW213458   2.856   3.331   0.566
 4300SOL     OW13459   2.216   3.668   0.858
 4300SOL    HW113460   2.260   3.583   0.867
 4300SOL    HW213461   2.285   3.733   0.873
 4301SOL     OW13462   3.659   2.922   0.867
 4301SOL    HW113463   3.602   2.907   0.792
 4301SOL    HW213464   3.600   2.927   0.942
 4302SOL     OW13465   3.090   3.402   1.512
 4302SOL    HW113466   3.076   3.329   1.572
 4302SOL    HW213467   3.030   3.385   1.440
 4303SOL     OW13468   2.179   2.814   0.271
 4303SOL    HW113469   2.256   2.841   0.221
 4303SOL    HW213470   2.147   2.736   0.226
 4304SOL     OW13471   3.338   2.598   0.727
 4304SOL    HW113472   3.326   2.555   0.812
 4304SOL    HW213473   3.413   2.656   0.740
 4305SOL     OW13474   2.326   3.125   1.737
 4305SOL    HW113475   2.298   3.130   1.646
 4305SOL    HW213476   2.245   3.124   1.788
 4306SOL     OW13477   2.969   3.640   0.226
 4306SOL    HW113478   2.912   3.588   0.282
 4306SOL    HW213479   3.009   3.577   0.166
 4307SOL     OW13480   1.976   2.106   1.500
 4307SOL    HW113481   1.973   2.201   1.490
 4307SOL    HW213482   2.059   2.089   1.545
 4308SOL     OW13483   3.490   3.237   0.088
 4308SOL    HW113484   3.449   3.322   0.076
 4308SOL    HW213485   3.424   3.173   0.061
 4309SOL     OW13486   2.331   3.597   0.326
 4309SOL    HW113487   2.368   3.657   0.390
 4309SOL    HW213488   2.405   3.576   0.268
 4310SOL     OW13489   3.263   1.970   0.429
 4310SOL    HW113490   3.253   1.946   0.337
 4310SOL    HW213491   3.358   1.977   0.442
 4311SOL     OW13492   2.116   3.654   1.233
 4311SOL    HW113493   2.169   3.589   1.280
 4311SOL    HW213494   2.105   3.617   1.146
 4312SOL     OW13495   2.800   3.560   0.901
 4312SOL    HW113496   2.877   3.507   0.920
 4312SOL    HW213497   2.754   3.511   0.832
 4313SOL     OW13498   2.250   2.558   0.475
 4313SOL    HW113499   2.271   2.468   0.450
 4313SOL    HW213500   2.157   2.554   0.500
 4314SOL     OW13501   3.400   2.088   1.725
 4314SOL    HW113502   3.408   2.109   1.818
 4314SOL    HW213503   3.332   2.021   1.722
 4315SOL     OW13504   2.466   1.975   0.121
 4315SOL    HW113505   2.557   1.949   0.138
 4315SOL    HW213506   2.451   1.949   0.030
 4316SOL     OW13507   2.630   2.140   1.754
 4316SOL    HW113508   2.702   2.077   1.760
 4316SOL    HW213509   2.577   2.123   1.832
 4317SOL     OW13510   2.739   3.383   1.194
 4317SOL    HW113511   2.724   3.347   1.106
 4317SOL    HW213512   2.808   3.328   1.230
 4318SOL     OW13513   3.204   2.450   1.432
 4318SOL    HW113514   3.234   2.419   1.517
 4318SOL    HW213515   3.239   2.539   1.425
 4319SOL     OW13516   2.675   3.260   0.936
 4319SOL    HW113517   2.758   3.250   0.890
 4319SOL    HW213518   2.609   3.257   0.866
 4320SOL     OW13519   2.787   2.369   0.903
 4320SOL    HW113520   2.764   2.361   0.811
 4320SOL    HW213521   2.822   2.284   0.927
 4321SOL     OW13522   2.407   1.930   0.503
 4321SOL    HW113523   2.327   1.923   0.555
 4321SOL    HW213524   2.400   2.015   0.460
 4322SOL     OW13525   3.288   3.058   0.032
 4322SOL    HW113526   3.322   2.986   0.085
 4322SOL    HW213527   3.205   3.081   0.073
 4323SOL     OW13528   2.155   1.910   0.189
 4323SOL    HW113529   2.216   1.962   0.137
 4323SOL    HW213530   2.207   1.837   0.223
 4324SOL     OW13531   2.798   2.105   0.463
 4324SOL    HW113532   2.772   2.153   0.384
 4324SOL    HW213533   2.893   2.118   0.467
 4325SOL     OW13534   2.942   2.541   1.459
 4325SOL    HW113535   2.872   2.476   1.465
 4325SOL    HW213536   3.022   2.490   1.452
 4326SOL     OW13537   3.086   3.431   0.794
 4326SOL    HW113538   3.105   3.499   0.728
 4326SOL    HW213539   3.155   3.442   0.860
 4327SOL     OW13540   2.330   3.010   0.739
 4327SOL    HW113541   2.258   2.992   0.800
 4327SOL    HW213542   2.293   2.993   0.652
 4328SOL     OW13543   3.133   3.657   0.604
 4328SOL    HW113544   3.178   3.719   0.546
 4328SOL    HW213545   3.070   3.711   0.652
 4329SOL     OW13546   2.877   2.402   0.033
 4329SOL    HW113547   2.846   2.489   0.009
 4329SOL    HW213548   2.955   2.418   0.086
 4330SOL     OW13549   1.943   2.416   1.388
 4330SOL    HW113550   2.039   2.413   1.382
 4330SOL    HW213551   1.926   2.481   1.456
 4331SOL     OW13552   2.458   2.050   1.147
 4331SOL    HW113553   2.469   1.983   1.214
 4331SOL    HW213554   2.374   2.091   1.167
 4332SOL     OW13555   2.726   2.318   0.640
 4332SOL    HW113556   2.687   2.378   0.577
 4332SOL    HW213557   2.750   2.240   0.589
 4333SOL     OW13558   2.876   1.914   0.754
 4333SOL    HW113559   2.817   1.904   0.678
 4333SOL    HW213560   2.856   1.838   0.809
 4334SOL     OW13561   3.298   3.026   0.858
 4334SOL    HW113562   3.230   2.958   0.856
 4334SOL    HW213563   3.321   3.040   0.766
 4335SOL     OW13564   3.330   2.464   0.981
 4335SOL    HW113565   3.283   2.381   0.986
 4335SOL    HW213566   3.391   2.461   1.055
 4336SOL     OW13567   3.712   2.679   0.378
 4336SOL    HW113568   3.765   2.627   0.439
 4336SOL    HW213569   3.682   2.615   0.313
 4337SOL     OW13570   2.355   3.284   0.173
 4337SOL    HW113571   2.278   3.258   0.223
 4337SOL    HW213572   2.348   3.236   0.091
 4338SOL     OW13573   3.530   3.127   0.650
 4338SOL    HW113574   3.625   3.133   0.662
 4338SOL    HW213575   3.498   3.215   0.670
 4339SOL     OW13576   3.253   2.441   0.079
 4339SOL    HW113577   3.194   2.417   0.151
 4339SOL    HW213578   3.325   2.379   0.086
 4340SOL     OW13579   3.616   3.098   1.577
 4340SOL    HW113580   3.703   3.059   1.574
 4340SOL    HW213581   3.630   3.187   1.607
 4341SOL     OW13582   2.923   3.216   1.335
 4341SOL    HW113583   2.848   3.185   1.386
 4341SOL    HW213584   2.999   3.174   1.376
 4342SOL     OW13585   3.467   3.487   1.651
 4342SOL    HW113586   3.465   3.521   1.561
 4342SOL    HW213587   3.551   3.441   1.657
 4343SOL     OW13588   2.987   3.064   1.107
 4343SOL    HW113589   2.929   3.101   1.173
 4343SOL    HW213590   2.952   3.094   1.023
 4344SOL     OW13591   3.493   2.962   1.079
 4344SOL    HW113592   3.489   3.024   1.151
 4344SOL    HW213593   3.412   2.977   1.030
 4345SOL     OW13594   2.784   1.958   1.399
 4345SOL    HW113595   2.805   1.941   1.308
 4345SOL    HW213596   2.863   1.998   1.435
 4346SOL     OW13597   2.846   2.976   1.722
 4346SOL    HW113598   2.753   2.991   1.740
 4346SOL    HW213599   2.847   2.899   1.665
 4347SOL     OW13600   2.571   2.922   0.372
 4347SOL    HW113601   2.556   2.908   0.465
 4347SOL    HW213602   2.647   2.867   0.352
 4348SOL     OW13603   2.279   2.673   1.251
 4348SOL    HW113604   2.350   2.691   1.312
 4348SOL    HW213605   2.248   2.586   1.275
 4349SOL     OW13606   3.130   2.241   1.272
 4349SOL    HW113607   3.161   2.318   1.319
 4349SOL    HW213608   3.040   2.263   1.247
 4350SOL     OW13609   1.930   3.434   1.350
 4350SOL    HW113610   1.897   3.507   1.297
 4350SOL    HW213611   2.025   3.442   1.345
 4351SOL     OW13612   2.218   2.971   0.496
 4351SOL    HW113613   2.216   3.045   0.435
 4351SOL    HW213614   2.211   2.894   0.440
 4352SOL     OW13615   3.109   3.208   0.393
 4352SOL    HW113616   3.165   3.281   0.421
 4352SOL    HW213617   3.022   3.230   0.425
 4353SOL     OW13618   3.138   3.317   1.146
 4353SOL    HW113619   3.193   3.319   1.224
 4353SOL    HW213620   3.083   3.240   1.157
 4354SOL     OW13621   3.447   2.490   0.474
 4354SOL    HW113622   3.401   2.540   0.542
 4354SOL    HW213623   3.487   2.557   0.418
 4355SOL     OW13624   2.210   3.386   1.318
 4355SOL    HW113625   2.196   3.344   1.233
 4355SOL    HW213626   2.305   3.399   1.324
 4356SOL     OW13627   2.276   2.621   1.597
 4356SOL    HW113628   2.339   2.665   1.540
 4356SOL    HW213629   2.321   2.542   1.628
 4357SOL     OW13630   3.460   2.639   1.679
 4357SOL    HW113631   3.373   2.679   1.671
 4357SOL    HW213632   3.512   2.681   1.611
 4358SOL     OW13633   2.858   1.979   1.756
 4358SOL    HW113634   2.909   2.053   1.723
 4358SOL    HW213635   2.908   1.902   1.730
 4359SOL     OW13636   2.365   1.898   1.747
 4359SOL    HW113637   2.326   1.844   1.679
 4359SOL    HW213638   2.304   1.971   1.758
 4360SOL     OW13639   2.439   2.736   1.027
 4360SOL    HW113640   2.478   2.824   1.025
 4360SOL    HW213641   2.387   2.735   1.108
 4361SOL     OW13642   3.223   2.721   1.033
 4361SOL    HW113643   3.141   2.714   0.984
 4361SOL    HW213644   3.259   2.633   1.032
 4362SOL     OW13645   3.067   2.388   0.272
 4362SOL    HW113646   3.076   2.311   0.328
 4362SOL    HW213647   3.026   2.454   0.328
 4363SOL     OW13648   1.909   3.172   1.277
 4363SOL    HW113649   1.942   3.120   1.350
 4363SOL    HW213650   1.916   3.263   1.308
 4364SOL     OW13651   2.597   2.505   1.067
 4364SOL    HW113652   2.648   2.472   0.994
 4364SOL    HW213653   2.551   2.581   1.032
 4365SOL     OW13654   3.595   2.821   1.850
 4365SOL    HW113655   3.547   2.765   1.789
 4365SOL    HW213656   3.535   2.832   1.924
 4366SOL     OW13657   2.162   1.918   0.632
 4366SOL    HW113658   2.125   2.001   0.660
 4366SOL    HW213659   2.167   1.865   0.712
 4367SOL     OW13660   3.475   2.234   0.369
 4367SOL    HW113661   3.503   2.170   0.434
 4367SOL    HW213662   3.452   2.312   0.419
 4368SOL     OW13663   2.891   2.621   0.962
 4368SOL    HW113664   2.889   2.640   1.056
 4368SOL    HW213665   2.858   2.531   0.956
 4369SOL     OW13666   2.844   3.428   1.714
 4369SOL    HW113667   2.829   3.473   1.631
 4369SOL    HW213668   2.887   3.346   1.690
 4370SOL     OW13669   3.718   3.372   1.606
 4370SOL    HW113670   3.734   3.397   1.515
 4370SOL    HW213671   3.799   3.393   1.652
 4371SOL     OW13672   2.217   2.782   1.810
 4371SOL    HW113673   2.301   2.796   1.854
 4371SOL    HW213674   2.237   2.725   1.736
 4372SOL     OW13675   3.400   2.146   0.118
 4372SOL    HW113676   3.339   2.075   0.135
 4372SOL    HW213677   3.429   2.173   0.205
 4373SOL     OW13678   3.152   2.688   0.033
 4373SOL    HW113679   3.195   2.603   0.045
 4373SOL    HW213680   3.186   2.721  11.050
 4374SOL     OW13681   2.926   3.197   0.852
 4374SOL    HW113682   2.929   3.124   0.790
 4374SOL    HW213683   2.990   3.260   0.818
 4375SOL     OW13684   2.174   2.677   0.945
 4375SOL    HW113685   2.266   2.700   0.937
 4375SOL    HW213686   2.173   2.596   0.995
 4376SOL     OW13687   2.996   2.241   1.679
 4376SOL    HW113688   2.951   2.295   1.743
 4376SOL    HW213689   3.085   2.277   1.675
 4377SOL     OW13690   3.024   2.067   1.470
 4377SOL    HW113691   3.014   2.129   1.542
 4377SOL    HW213692   3.060   2.119   1.398
 4378SOL     OW13693   1.869   3.190   0.196
 4378SOL    HW113694   1.782   3.201   0.158
 4378SOL    HW213695   1.870   3.099   0.225
 4379SOL     OW13696   1.952   3.652   0.936
 4379SOL    HW113697   1.921   3.572   0.894
 4379SOL    HW213698   2.042   3.662   0.905
 4380SOL     OW13699   2.361   3.435   0.906
 4380SOL    HW113700   2.430   3.497   0.929
 4380SOL    HW213701   2.405   3.369   0.852
 4381SOL     OW13702   2.851   2.659   1.229
 4381SOL    HW113703   2.900   2.631   1.306
 4381SOL    HW213704   2.765   2.618   1.238
 4382SOL     OW13705   1.902   2.423   1.116
 4382SOL    HW113706   1.955   2.355   1.074
 4382SOL    HW213707   1.919   2.412   1.210
 4383SOL     OW13708   3.237   2.804   1.659
 4383SOL    HW113709   3.258   2.897   1.660
 4383SOL    HW213710   3.236   2.780   1.567
 4384SOL     OW13711   2.675   2.433   0.362
 4384SOL    HW113712   2.683   2.361   0.300
 4384SOL    HW213713   2.601   2.484   0.330
 4385SOL     OW13714   3.505   2.463   1.190
 4385SOL    HW113715   3.493   2.403   1.263
 4385SOL    HW213716   3.592   2.442   1.155
 4386SOL     OW13717   2.110   3.415   1.731
 4386SOL    HW113718   2.084   3.478   1.798
 4386SOL    HW213719   2.107   3.330   1.775
 4387SOL     OW13720   2.572   2.317   1.256
 4387SOL    HW113721   2.526   2.242   1.218
 4387SOL    HW213722   2.572   2.384   1.188
 4388SOL     OW13723   2.792   3.541   1.466
 4388SOL    HW113724   2.766   3.510   1.379
 4388SOL    HW213725   2.792   3.636   1.459
 4389SOL     OW13726   2.011   3.002   1.472
 4389SOL    HW113727   2.014   2.947   1.551
 4389SOL    HW213728   2.027   2.941   1.400
 4390SOL     OW13729   3.192   2.911   1.225
 4390SOL    HW113730   3.216   2.849   1.157
 4390SOL    HW213731   3.118   2.960   1.188
 4391SOL     OW13732   3.169   2.714   0.310
 4391SOL    HW113733   3.091   2.685   0.356
 4391SOL    HW213734   3.148   2.702   0.217
 4392SOL     OW13735   3.630   3.609   1.148
 4392SOL    HW113736   3.690   3.635   1.078
 4392SOL    HW213737   3.606   3.519   1.128
 4393SOL     OW13738   3.104   3.595   1.118
 4393SOL    HW113739   3.185   3.613   1.070
 4393SOL    HW213740   3.106   3.501   1.134
 4394SOL     OW13741   1.945   3.128   1.014
 4394SOL    HW113742   1.932   3.139   1.108
 4394SOL    HW213743   1.870   3.075   0.985
 4395SOL     OW13744   2.540   3.526   1.724
 4395SOL    HW113745   2.488   3.606   1.722
 4395SOL    HW213746   2.602   3.535   1.652
 4396SOL     OW13747   2.779   1.954   0.114
 4396SOL    HW113748   2.829   1.920   0.040
 4396SOL    HW213749   2.815   1.910   0.190
 4397SOL     OW13750   3.580   2.004   0.512
 4397SOL    HW113751   3.654   1.990   0.453
 4397SOL    HW213752   3.565   1.919   0.552
 4398SOL     OW13753   3.251   3.430   0.482
 4398SOL    HW113754   3.313   3.460   0.416
 4398SOL    HW213755   3.206   3.509   0.511
 4399SOL     OW13756   1.997   3.659   1.843
 4399SOL    HW113757   1.946   3.594   1.892
 4399SOL    HW213758   2.045   3.707   1.910
 4400SOL     OW13759   3.139   2.786   0.671
 4400SOL    HW113760   3.213   2.724   0.675
 4400SOL    HW213761   3.172   2.859   0.619
 4401SOL     OW13762   2.681   3.134   1.431
 4401SOL    HW113763   2.655   3.173   1.515
 4401SOL    HW213764   2.610   3.156   1.371
 4402SOL     OW13765   2.537   3.480   0.165
 4402SOL    HW113766   2.544   3.490   0.070
 4402SOL    HW213767   2.480   3.404   0.177
 4403SOL     OW13768   3.495   3.588   1.392
 4403SOL    HW113769   3.542   3.596   1.309
 4403SOL    HW213770   3.481   3.679   1.421
 4404SOL     OW13771   3.701   2.035   0.968
 4404SOL    HW113772   3.731   1.949   0.938
 4404SOL    HW213773   3.615   2.046   0.928
 4405SOL     OW13774   3.083   3.466   0.050
 4405SOL    HW113775   3.070   3.373   0.071
 4405SOL    HW213776   3.016   3.485  11.084
 4406SOL     OW13777   2.685   2.868   1.372
 4406SOL    HW113778   2.730   2.863   1.287
 4406SOL    HW213779   2.688   2.961   1.395
 4407SOL     OW13780   2.776   2.770   0.282
 4407SOL    HW113781   2.844   2.808   0.226
 4407SOL    HW213782   2.823   2.703   0.333
 4408SOL     OW13783   3.362   3.484   0.046
 4408SOL    HW113784   3.266   3.482   0.041
 4408SOL    HW213785   3.390   3.497  11.055
 4409SOL     OW13786   2.232   3.162   1.491
 4409SOL    HW113787   2.218   3.241   1.438
 4409SOL    HW213788   2.155   3.108   1.475
 4410SOL     OW13789   3.474   3.145   1.281
 4410SOL    HW113790   3.533   3.138   1.356
 4410SOL    HW213791   3.413   3.215   1.305
 4411SOL     OW13792   2.910   2.967   0.704
 4411SOL    HW113793   2.840   2.916   0.745
 4411SOL    HW213794   2.971   2.902   0.671
 4412SOL     OW13795   2.882   2.102   0.965
 4412SOL    HW113796   2.877   2.053   0.883
 4412SOL    HW213797   2.876   2.035   1.033
 4413SOL     OW13798   2.464   3.353   0.483
 4413SOL    HW113799   2.501   3.300   0.412
 4413SOL    HW213800   2.396   3.406   0.440
 4414SOL     OW13801   3.581   2.254   1.380
 4414SOL    HW113802   3.653   2.317   1.378
 4414SOL    HW213803   3.611   2.182   1.324
 4415SOL     OW13804   2.126   3.202   0.290
 4415SOL    HW113805   2.037   3.204   0.254
 4415SOL    HW213806   2.118   3.242   0.376
 4416SOL     OW13807   1.974   2.879   1.719
 4416SOL    HW113808   1.897   2.857   1.772
 4416SOL    HW213809   2.048   2.844   1.769
 4417SOL     OW13810   2.542   2.046   1.496
 4417SOL    HW113811   2.628   2.030   1.459
 4417SOL    HW213812   2.560   2.084   1.582
 4418SOL     OW13813   1.927   2.213   0.067
 4418SOL    HW113814   1.861   2.186   0.004
 4418SOL    HW213815   1.994   2.256   0.014
 4419SOL     OW13816   3.294   2.720   1.402
 4419SOL    HW113817   3.246   2.780   1.345
 4419SOL    HW213818   3.384   2.723   1.369
 4420SOL     OW13819   1.936   2.022   0.313
 4420SOL    HW113820   1.915   2.097   0.258
 4420SOL    HW213821   2.015   1.985   0.274
 4421SOL     OW13822   3.043   3.205   0.121
 4421SOL    HW113823   2.950   3.181   0.118
 4421SOL    HW213824   3.066   3.198   0.214
 4422SOL     OW13825   2.481   2.694   1.429
 4422SOL    HW113826   2.536   2.772   1.416
 4422SOL    HW213827   2.544   2.622   1.438
 4423SOL     OW13828   3.347   3.636   0.975
 4423SOL    HW113829   3.374   3.693   0.902
 4423SOL    HW213830   3.428   3.620   1.024
 4424SOL     OW13831   2.580   2.426   1.705
 4424SOL    HW113832   2.615   2.491   1.766
 4424SOL    HW213833   2.614   2.342   1.736
 4425SOL     OW13834   3.330   3.066   1.633
 4425SOL    HW113835   3.318   3.078   1.727
 4425SOL    HW213836   3.424   3.077   1.619
 4426SOL     OW13837   2.245   3.602   1.563
 4426SOL    HW113838   2.158   3.641   1.551
 4426SOL    HW213839   2.227   3.517   1.605
 4427SOL     OW13840   3.534   2.744   1.256
 4427SOL    HW113841   3.525   2.659   1.213
 4427SOL    HW213842   3.525   2.807   1.184
 4428SOL     OW13843   3.079   2.180   0.459
 4428SOL    HW113844   3.145   2.111   0.448
 4428SOL    HW213845   3.108   2.229   0.536
 4429SOL     OW13846   2.458   2.605   0.655
 4429SOL    HW113847   2.494   2.693   0.644
 4429SOL    HW213848   2.383   2.603   0.596
 4430SOL     OW13849   3.628   2.221   1.648
 4430SOL    HW113850   3.609   2.235   1.556
 4430SOL    HW213851   3.556   2.165   1.679
 4431SOL     OW13852   3.605   2.796   1.513
 4431SOL    HW113853   3.608   2.890   1.525
 4431SOL    HW213854   3.590   2.784   1.419
 4432SOL     OW13855   2.756   3.220   0.059
 4432SOL    HW113856   2.688   3.224   0.125
 4432SOL    HW213857   2.752   3.304   0.014
 4433SOL     OW13858   2.521   3.656   0.949
 4433SOL    HW113859   2.499   3.746   0.923
 4433SOL    HW213860   2.616   3.651   0.940
 4434SOL     OW13861   2.728   2.827   0.856
 4434SOL    HW113862   2.777   2.755   0.897
 4434SOL    HW213863   2.696   2.879   0.930
 4435SOL     OW13864   2.942   2.852   0.086
 4435SOL    HW113865   2.920   2.889   0.001
 4435SOL    HW213866   3.019   2.797   0.069
 4436SOL     OW13867   3.719   3.419   0.846
 4436SOL    HW113868   3.643   3.407   0.789
 4436SOL    HW213869   3.711   3.350   0.911
 4437SOL     OW13870   2.086   3.167   1.856
 4437SOL    HW113871   2.018   3.106   1.827
 4437SOL    HW213872   2.068   3.180   1.949
 4438SOL     OW13873   1.944   3.098   0.664
 4438SOL    HW113874   1.946   3.047   0.745
 4438SOL    HW213875   2.014   3.061   0.610
 4439SOL     OW13876   2.541   3.262   1.625
 4439SOL    HW113877   2.462   3.219   1.656
 4439SOL    HW213878   2.536   3.350   1.662
 4440SOL     OW13879   3.676   2.048   1.238
 4440SOL    HW113880   3.686   1.954   1.254
 4440SOL    HW213881   3.685   2.057   1.143
 4441SOL     OW13882   3.563   3.354   1.101
 4441SOL    HW113883   3.482   3.327   1.057
 4441SOL    HW213884   3.579   3.285   1.166
 4442SOL     OW13885   2.687   3.440   0.680
 4442SOL    HW113886   2.680   3.484   0.595
 4442SOL    HW213887   2.608   3.385   0.684
 4443SOL     OW13888   3.294   2.085   1.118
 4443SOL    HW113889   3.323   2.008   1.166
 4443SOL    HW213890   3.242   2.135   1.181
 4444SOL     OW13891   2.871   1.883   1.145
 4444SOL    HW113892   2.817   1.813   1.108
 4444SOL    HW213893   2.959   1.846   1.147
 4445SOL     OW13894   2.629   3.191   0.312
 4445SOL    HW113895   2.598   3.101   0.324
 4445SOL    HW213896   2.714   3.193   0.356
 4446SOL     OW13897   2.482   3.421   1.284
 4446SOL    HW113898   2.485   3.502   1.335
 4446SOL    HW213899   2.569   3.413   1.245
 4447SOL     OW13900   3.213   1.915   0.164
 4447SOL    HW113901   3.236   1.866   0.085
 4447SOL    HW213902   3.127   1.882   0.189
 4448SOL     OW13903   3.159   2.321   0.683
 4448SOL    HW113904   3.106   2.401   0.692
 4448SOL    HW213905   3.157   2.281   0.770
 4449SOL     OW13906   3.449   2.068   0.877
 4449SOL    HW113907   3.385   2.085   0.945
 4449SOL    HW213908   3.449   2.147   0.823
 4450SOL     OW13909   1.904   2.934   0.301
 4450SOL    HW113910   1.999   2.927   0.294
 4450SOL    HW213911   1.875   2.847   0.327
 4451SOL     OW13912   2.744   3.512   0.347
 4451SOL    HW113913   2.673   3.492   0.286
 4451SOL    HW213914   2.712   3.587   0.397
 4452SOL     OW13915   2.079   2.526   1.981
 4452SOL    HW113916   1.994   2.496   2.016
 4452SOL    HW213917   2.099   2.464   1.911
 4453SOL     OW13918   2.009   2.135   2.933
 4453SOL    HW113919   2.066   2.072   2.977
 4453SOL    HW213920   1.944   2.080   2.887
 4454SOL     OW13921   1.859   2.244   2.493
 4454SOL    HW113922   1.778   2.266   2.541
 4454SOL    HW213923   1.841   2.159   2.455
 4455SOL     OW13924   2.428   3.144   3.034
 4455SOL    HW113925   2.340   3.147   2.995
 4455SOL    HW213926   2.443   3.232   3.068
 4456SOL     OW13927   3.419   3.373   2.567
 4456SOL    HW113928   3.375   3.356   2.650
 4456SOL    HW213929   3.348   3.378   2.503
 4457SOL     OW13930   2.991   2.561   2.564
 4457SOL    HW113931   3.041   2.642   2.552
 4457SOL    HW213932   2.945   2.574   2.647
 4458SOL     OW13933   3.627   2.469   2.092
 4458SOL    HW113934   3.607   2.460   1.999
 4458SOL    HW213935   3.591   2.390   2.133
 4459SOL     OW13936   2.620   3.006   2.899
 4459SOL    HW113937   2.551   3.039   2.955
 4459SOL    HW213938   2.655   3.084   2.854
 4460SOL     OW13939   2.722   2.644   3.682
 4460SOL    HW113940   2.712   2.716   3.745
 4460SOL    HW213941   2.748   2.687   3.601
 4461SOL     OW13942   2.548   2.868   2.512
 4461SOL    HW113943   2.613   2.854   2.581
 4461SOL    HW213944   2.479   2.920   2.553
 4462SOL     OW13945   2.569   3.014   3.671
 4462SOL    HW113946   2.617   3.093   3.695
 4462SOL    HW213947   2.485   3.046   3.638
 4463SOL     OW13948   2.193   3.291   2.930
 4463SOL    HW113949   2.121   3.255   2.879
 4463SOL    HW213950   2.245   3.341   2.867
 4464SOL     OW13951   3.323   3.360   3.212
 4464SOL    HW113952   3.367   3.445   3.222
 4464SOL    HW213953   3.270   3.350   3.291
 4465SOL     OW13954   3.475   2.312   2.601
 4465SOL    HW113955   3.398   2.337   2.549
 4465SOL    HW213956   3.495   2.389   2.654
 4466SOL     OW13957   2.082   3.575   2.337
 4466SOL    HW113958   2.106   3.652   2.389
 4466SOL    HW213959   2.151   3.568   2.271
 4467SOL     OW13960   2.997   3.203   3.553
 4467SOL    HW113961   3.038   3.199   3.640
 4467SOL    HW213962   2.945   3.123   3.548
 4468SOL     OW13963   2.092   3.301   2.396
 4468SOL    HW113964   2.075   3.395   2.402
 4468SOL    HW213965   2.029   3.262   2.457
 4469SOL     OW13966   2.117   2.954   2.752
 4469SOL    HW113967   2.112   2.868   2.792
 4469SOL    HW213968   2.057   3.008   2.804
 4470SOL     OW13969   2.478   3.652   3.294
 4470SOL    HW113970   2.394   3.636   3.338
 4470SOL    HW213971   2.500   3.742   3.318
 4471SOL     OW13972   2.452   2.840   1.990
 4471SOL    HW113973   2.494   2.896   1.924
 4471SOL    HW213974   2.492   2.867   2.073
 4472SOL     OW13975   3.458   1.983   3.332
 4472SOL    HW113976   3.455   2.062   3.278
 4472SOL    HW213977   3.447   2.014   3.422
 4473SOL     OW13978   1.970   2.506   2.421
 4473SOL    HW113979   1.942   2.418   2.444
 4473SOL    HW213980   1.966   2.555   2.503
 4474SOL     OW13981   3.703   3.623   2.199
 4474SOL    HW113982   3.762   3.594   2.269
 4474SOL    HW213983   3.731   3.713   2.181
 4475SOL     OW13984   1.892   3.459   1.986
 4475SOL    HW113985   1.874   3.366   2.006
 4475SOL    HW213986   1.867   3.505   2.066
 4476SOL     OW13987   3.552   2.781   2.499
 4476SOL    HW113988   3.637   2.742   2.482
 4476SOL    HW213989   3.532   2.831   2.420
 4477SOL     OW13990   3.507   2.970   2.292
 4477SOL    HW113991   3.592   2.979   2.249
 4477SOL    HW213992   3.512   3.030   2.366
 4478SOL     OW13993   1.983   2.597   3.446
 4478SOL    HW113994   2.071   2.611   3.481
 4478SOL    HW213995   1.939   2.681   3.458
 4479SOL     OW13996   2.474   3.244   2.597
 4479SOL    HW113997   2.428   3.161   2.606
 4479SOL    HW213998   2.458   3.271   2.507
 4480SOL     OW13999   3.152   3.101   3.287
 4480SOL    HW114000   3.185   3.033   3.227
 4480SOL    HW214001   3.208   3.093   3.364
 4481SOL     OW14002   2.669   1.861   2.365
 4481SOL    HW114003   2.711   1.945   2.351
 4481SOL    HW214004   2.576   1.882   2.377
 4482SOL     OW14005   2.054   2.831   3.131
 4482SOL    HW114006   2.137   2.789   3.110
 4482SOL    HW214007   1.987   2.775   3.090
 4483SOL     OW14008   3.394   2.853   2.058
 4483SOL    HW114009   3.324   2.795   2.087
 4483SOL    HW214010   3.433   2.887   2.139
 4484SOL     OW14011   3.047   3.665   3.482
 4484SOL    HW114012   3.062   3.723   3.407
 4484SOL    HW214013   3.062   3.577   3.448
 4485SOL     OW14014   3.327   3.282   2.815
 4485SOL    HW114015   3.259   3.296   2.881
 4485SOL    HW214016   3.316   3.191   2.788
 4486SOL     OW14017   3.524   3.594   2.440
 4486SOL    HW114018   3.500   3.567   2.351
 4486SOL    HW214019   3.497   3.521   2.495
 4487SOL     OW14020   2.463   2.588   2.132
 4487SOL    HW114021   2.477   2.655   2.065
 4487SOL    HW214022   2.380   2.614   2.174
 4488SOL     OW14023   3.143   2.209   2.794
 4488SOL    HW114024   3.053   2.177   2.801
 4488SOL    HW214025   3.192   2.157   2.857
 4489SOL     OW14026   3.444   3.530   2.171
 4489SOL    HW114027   3.532   3.565   2.165
 4489SOL    HW214028   3.419   3.512   2.080
 4490SOL     OW14029   2.650   2.470   3.311
 4490SOL    HW114030   2.632   2.459   3.405
 4490SOL    HW214031   2.601   2.400   3.269
 4491SOL     OW14032   3.256   2.335   3.540
 4491SOL    HW114033   3.256   2.380   3.625
 4491SOL    HW214034   3.319   2.264   3.549
 4492SOL     OW14035   2.819   2.750   3.442
 4492SOL    HW114036   2.874   2.680   3.408
 4492SOL    HW214037   2.773   2.784   3.366
 4493SOL     OW14038   2.860   2.271   3.101
 4493SOL    HW114039   2.780   2.307   3.138
 4493SOL    HW214040   2.832   2.229   3.019
 4494SOL     OW14041   2.910   2.560   2.289
 4494SOL    HW114042   2.926   2.554   2.383
 4494SOL    HW214043   2.828   2.513   2.275
 4495SOL     OW14044   1.951   2.683   2.636
 4495SOL    HW114045   2.033   2.677   2.686
 4495SOL    HW214046   1.907   2.760   2.672
 4496SOL     OW14047   1.990   3.699   3.437
 4496SOL    HW114048   1.988   3.681   3.531
 4496SOL    HW214049   1.898   3.706   3.412
 4497SOL     OW14050   2.750   2.210   2.059
 4497SOL    HW114051   2.794   2.268   1.997
 4497SOL    HW214052   2.758   2.123   2.019
 4498SOL     OW14053   3.574   2.440   3.690
 4498SOL    HW114054   3.536   2.516   3.645
 4498SOL    HW214055   3.596   2.379   3.620
 4499SOL     OW14056   3.237   3.005   2.404
 4499SOL    HW114057   3.315   2.990   2.351
 4499SOL    HW214058   3.185   3.067   2.353
 4500SOL     OW14059   2.438   2.033   2.735
 4500SOL    HW114060   2.440   2.046   2.830
 4500SOL    HW214061   2.438   2.121   2.699
 4501SOL     OW14062   2.871   3.308   2.336
 4501SOL    HW114063   2.830   3.379   2.287
 4501SOL    HW214064   2.857   3.331   2.428
 4502SOL     OW14065   2.216   3.668   2.720
 4502SOL    HW114066   2.260   3.584   2.729
 4502SOL    HW214067   2.285   3.733   2.736
 4503SOL     OW14068   3.659   2.923   2.729
 4503SOL    HW114069   3.603   2.906   2.654
 4503SOL    HW214070   3.600   2.927   2.804
 4504SOL     OW14071   3.090   3.402   3.374
 4504SOL    HW114072   3.076   3.328   3.434
 4504SOL    HW214073   3.030   3.385   3.302
 4505SOL     OW14074   2.190   2.805   2.115
 4505SOL    HW114075   2.265   2.831   2.062
 4505SOL    HW214076   2.150   2.733   2.066
 4506SOL     OW14077   3.337   2.601   2.590
 4506SOL    HW114078   3.325   2.554   2.673
 4506SOL    HW214079   3.414   2.656   2.604
 4507SOL     OW14080   2.326   3.125   3.599
 4507SOL    HW114081   2.298   3.130   3.508
 4507SOL    HW214082   2.245   3.124   3.649
 4508SOL     OW14083   2.982   3.639   2.094
 4508SOL    HW114084   2.911   3.595   2.141
 4508SOL    HW214085   3.004   3.580   2.022
 4509SOL     OW14086   1.978   2.091   3.358
 4509SOL    HW114087   1.952   2.183   3.361
 4509SOL    HW214088   2.011   2.073   3.446
 4510SOL     OW14089   3.492   3.241   1.949
 4510SOL    HW114090   3.451   3.326   1.934
 4510SOL    HW214091   3.422   3.177   1.930
 4511SOL     OW14092   2.329   3.600   2.183
 4511SOL    HW114093   2.369   3.657   2.250
 4511SOL    HW214094   2.402   3.574   2.128
 4512SOL     OW14095   3.263   1.970   2.292
 4512SOL    HW114096   3.251   1.944   2.200
 4512SOL    HW214097   3.358   1.977   2.303
 4513SOL     OW14098   2.116   3.654   3.095
 4513SOL    HW114099   2.169   3.589   3.143
 4513SOL    HW214100   2.105   3.616   3.008
 4514SOL     OW14101   2.800   3.560   2.763
 4514SOL    HW114102   2.877   3.507   2.782
 4514SOL    HW214103   2.754   3.511   2.694
 4515SOL     OW14104   3.400   2.088   3.588
 4515SOL    HW114105   3.408   2.109   3.681
 4515SOL    HW214106   3.333   2.020   3.584
 4516SOL     OW14107   2.498   1.997   1.964
 4516SOL    HW114108   2.564   1.934   1.992
 4516SOL    HW214109   2.450   1.953   1.894
 4517SOL     OW14110   2.632   2.139   3.616
 4517SOL    HW114111   2.704   2.077   3.620
 4517SOL    HW214112   2.580   2.120   3.694
 4518SOL     OW14113   2.739   3.382   3.056
 4518SOL    HW114114   2.724   3.347   2.968
 4518SOL    HW214115   2.808   3.328   3.092
 4519SOL     OW14116   3.202   2.452   3.295
 4519SOL    HW114117   3.234   2.419   3.379
 4519SOL    HW214118   3.240   2.539   3.287
 4520SOL     OW14119   2.675   3.260   2.798
 4520SOL    HW114120   2.759   3.250   2.753
 4520SOL    HW214121   2.609   3.258   2.727
 4521SOL     OW14122   2.798   2.370   2.772
 4521SOL    HW114123   2.760   2.366   2.684
 4521SOL    HW214124   2.827   2.280   2.789
 4522SOL     OW14125   2.398   1.933   2.365
 4522SOL    HW114126   2.348   1.941   2.446
 4522SOL    HW214127   2.388   2.019   2.323
 4523SOL     OW14128   3.291   3.059   1.903
 4523SOL    HW114129   3.322   2.984   1.953
 4523SOL    HW214130   3.205   3.079   1.940
 4524SOL     OW14131   2.796   2.105   2.324
 4524SOL    HW114132   2.771   2.148   2.242
 4524SOL    HW214133   2.891   2.115   2.329
 4525SOL     OW14134   2.940   2.540   3.321
 4525SOL    HW114135   2.874   2.472   3.328
 4525SOL    HW214136   3.023   2.493   3.314
 4526SOL     OW14137   3.086   3.431   2.656
 4526SOL    HW114138   3.105   3.499   2.591
 4526SOL    HW214139   3.155   3.443   2.722
 4527SOL     OW14140   2.329   3.009   2.598
 4527SOL    HW114141   2.258   2.992   2.660
 4527SOL    HW214142   2.291   2.992   2.512
 4528SOL     OW14143   3.133   3.657   2.467
 4528SOL    HW114144   3.177   3.718   2.408
 4528SOL    HW214145   3.069   3.711   2.514
 4529SOL     OW14146   2.888   2.408   1.881
 4529SOL    HW114147   2.847   2.491   1.861
 4529SOL    HW214148   2.952   2.428   1.949
 4530SOL     OW14149   1.936   2.421   3.249
 4530SOL    HW114150   2.030   2.413   3.236
 4530SOL    HW214151   1.926   2.485   3.319
 4531SOL     OW14152   2.434   2.034   3.006
 4531SOL    HW114153   2.458   1.976   3.078
 4531SOL    HW214154   2.356   2.080   3.036
 4532SOL     OW14155   2.738   2.320   2.500
 4532SOL    HW114156   2.689   2.375   2.440
 4532SOL    HW214157   2.754   2.239   2.451
 4533SOL     OW14158   2.878   1.914   2.615
 4533SOL    HW114159   2.817   1.906   2.541
 4533SOL    HW214160   2.857   1.838   2.671
 4534SOL     OW14161   3.297   3.026   2.720
 4534SOL    HW114162   3.231   2.957   2.718
 4534SOL    HW214163   3.320   3.040   2.628
 4535SOL     OW14164   3.330   2.464   2.843
 4535SOL    HW114165   3.282   2.381   2.847
 4535SOL    HW214166   3.391   2.460   2.917
 4536SOL     OW14167   3.710   2.681   2.243
 4536SOL    HW114168   3.765   2.628   2.301
 4536SOL    HW214169   3.680   2.619   2.176
 4537SOL     OW14170   2.354   3.276   2.023
 4537SOL    HW114171   2.279   3.246   2.075
 4537SOL    HW214172   2.333   3.250   1.934
 4538SOL     OW14173   3.530   3.127   2.511
 4538SOL    HW114174   3.625   3.133   2.524
 4538SOL    HW214175   3.498   3.215   2.532
 4539SOL     OW14176   3.255   2.434   1.933
 4539SOL    HW114177   3.196   2.415   2.006
 4539SOL    HW214178   3.340   2.400   1.963
 4540SOL     OW14179   3.616   3.098   3.439
 4540SOL    HW114180   3.703   3.059   3.436
 4540SOL    HW214181   3.630   3.188   3.469
 4541SOL     OW14182   2.923   3.216   3.197
 4541SOL    HW114183   2.848   3.184   3.248
 4541SOL    HW214184   2.999   3.174   3.238
 4542SOL     OW14185   3.467   3.487   3.513
 4542SOL    HW114186   3.465   3.521   3.423
 4542SOL    HW214187   3.551   3.441   3.519
 4543SOL     OW14188   2.987   3.064   2.969
 4543SOL    HW114189   2.929   3.102   3.035
 4543SOL    HW214190   2.952   3.094   2.885
 4544SOL     OW14191   3.493   2.962   2.941
 4544SOL    HW114192   3.489   3.024   3.013
 4544SOL    HW214193   3.412   2.977   2.892
 4545SOL     OW14194   2.783   1.960   3.262
 4545SOL    HW114195   2.803   1.941   3.170
 4545SOL    HW214196   2.863   1.999   3.297
 4546SOL     OW14197   2.846   2.976   3.584
 4546SOL    HW114198   2.753   2.991   3.602
 4546SOL    HW214199   2.847   2.899   3.527
 4547SOL     OW14200   2.570   2.922   2.234
 4547SOL    HW114201   2.557   2.908   2.328
 4547SOL    HW214202   2.646   2.868   2.211
 4548SOL     OW14203   2.280   2.674   3.112
 4548SOL    HW114204   2.351   2.692   3.174
 4548SOL    HW214205   2.240   2.594   3.144
 4549SOL     OW14206   3.132   2.240   3.135
 4549SOL    HW114207   3.162   2.318   3.181
 4549SOL    HW214208   3.042   2.261   3.108
 4550SOL     OW14209   1.930   3.434   3.211
 4550SOL    HW114210   1.897   3.507   3.159
 4550SOL    HW214211   2.025   3.442   3.207
 4551SOL     OW14212   2.218   2.966   2.352
 4551SOL    HW114213   2.220   3.044   2.297
 4551SOL    HW214214   2.214   2.893   2.290
 4552SOL     OW14215   2.515   2.428   2.706
 4552SOL    HW114216   2.484   2.483   2.634
 4552SOL    HW214217   2.479   2.470   2.784
 4553SOL     OW14218   3.110   3.210   2.251
 4553SOL    HW114219   3.165   3.282   2.282
 4553SOL    HW214220   3.023   3.230   2.285
 4554SOL     OW14221   3.138   3.317   3.008
 4554SOL    HW114222   3.193   3.320   3.086
 4554SOL    HW214223   3.084   3.240   3.019
 4555SOL     OW14224   3.445   2.488   2.338
 4555SOL    HW114225   3.401   2.544   2.402
 4555SOL    HW214226   3.490   2.549   2.280
 4556SOL     OW14227   2.210   3.386   3.180
 4556SOL    HW114228   2.197   3.344   3.095
 4556SOL    HW214229   2.305   3.399   3.186
 4557SOL     OW14230   2.278   2.609   3.462
 4557SOL    HW114231   2.340   2.657   3.407
 4557SOL    HW214232   2.319   2.523   3.474
 4558SOL     OW14233   3.459   2.640   3.542
 4558SOL    HW114234   3.373   2.679   3.533
 4558SOL    HW214235   3.512   2.681   3.473
 4559SOL     OW14236   2.858   1.980   3.617
 4559SOL    HW114237   2.910   2.052   3.584
 4559SOL    HW214238   2.907   1.901   3.592
 4560SOL     OW14239   2.361   1.906   3.608
 4560SOL    HW114240   2.323   1.848   3.541
 4560SOL    HW214241   2.294   1.974   3.621
 4561SOL     OW14242   2.440   2.732   2.889
 4561SOL    HW114243   2.478   2.819   2.884
 4561SOL    HW214244   2.388   2.732   2.969
 4562SOL     OW14245   3.223   2.721   2.896
 4562SOL    HW114246   3.141   2.714   2.846
 4562SOL    HW214247   3.260   2.633   2.893
 4563SOL     OW14248   3.069   2.391   2.132
 4563SOL    HW114249   3.077   2.312   2.185
 4563SOL    HW214250   3.027   2.455   2.189
 4564SOL     OW14251   1.909   3.172   3.139
 4564SOL    HW114252   1.942   3.120   3.212
 4564SOL    HW214253   1.916   3.263   3.169
 4565SOL     OW14254   2.614   2.515   2.955
 4565SOL    HW114255   2.652   2.468   2.881
 4565SOL    HW214256   2.571   2.591   2.916
 4566SOL     OW14257   3.595   2.821   3.712
 4566SOL    HW114258   3.547   2.765   3.651
 4566SOL    HW214259   3.535   2.832   3.786
 4567SOL     OW14260   3.475   2.234   2.231
 4567SOL    HW114261   3.502   2.171   2.298
 4567SOL    HW214262   3.452   2.312   2.281
 4568SOL     OW14263   2.890   2.623   2.824
 4568SOL    HW114264   2.889   2.641   2.918
 4568SOL    HW214265   2.860   2.533   2.816
 4569SOL     OW14266   2.844   3.428   3.576
 4569SOL    HW114267   2.829   3.473   3.493
 4569SOL    HW214268   2.887   3.346   3.552
 4570SOL     OW14269   3.718   3.372   3.468
 4570SOL    HW114270   3.734   3.397   3.377
 4570SOL    HW214271   3.799   3.393   3.514
 4571SOL     OW14272   2.217   2.780   3.668
 4571SOL    HW114273   2.299   2.796   3.714
 4571SOL    HW214274   2.240   2.718   3.598
 4572SOL     OW14275   3.393   2.136   1.989
 4572SOL    HW114276   3.329   2.070   2.016
 4572SOL    HW214277   3.425   2.172   2.072
 4573SOL     OW14278   3.157   2.689   1.895
 4573SOL    HW114279   3.199   2.604   1.899
 4573SOL    HW214280   3.187   2.728   1.813
 4574SOL     OW14281   2.926   3.197   2.714
 4574SOL    HW114282   2.930   3.124   2.653
 4574SOL    HW214283   2.990   3.260   2.680
 4575SOL     OW14284   2.173   2.679   2.807
 4575SOL    HW114285   2.266   2.699   2.804
 4575SOL    HW214286   2.167   2.595   2.853
 4576SOL     OW14287   2.996   2.242   3.540
 4576SOL    HW114288   2.951   2.296   3.605
 4576SOL    HW214289   3.085   2.277   3.537
 4577SOL     OW14290   3.023   2.067   3.332
 4577SOL    HW114291   3.014   2.130   3.403
 4577SOL    HW214292   3.060   2.118   3.260
 4578SOL     OW14293   1.867   3.184   2.057
 4578SOL    HW114294   1.780   3.198   2.019
 4578SOL    HW214295   1.865   3.094   2.090
 4579SOL     OW14296   1.952   3.652   2.798
 4579SOL    HW114297   1.921   3.571   2.756
 4579SOL    HW214298   2.042   3.662   2.767
 4580SOL     OW14299   2.361   3.435   2.768
 4580SOL    HW114300   2.430   3.497   2.791
 4580SOL    HW214301   2.406   3.369   2.714
 4581SOL     OW14302   2.850   2.662   3.091
 4581SOL    HW114303   2.898   2.631   3.168
 4581SOL    HW214304   2.766   2.615   3.095
 4582SOL     OW14305   1.913   2.413   2.974
 4582SOL    HW114306   1.953   2.333   2.941
 4582SOL    HW214307   1.922   2.407   3.069
 4583SOL     OW14308   3.237   2.804   3.521
 4583SOL    HW114309   3.258   2.897   3.522
 4583SOL    HW214310   3.236   2.780   3.429
 4584SOL     OW14311   2.674   2.429   2.219
 4584SOL    HW114312   2.681   2.357   2.157
 4584SOL    HW214313   2.601   2.482   2.187
 4585SOL     OW14314   3.505   2.463   3.052
 4585SOL    HW114315   3.493   2.403   3.125
 4585SOL    HW214316   3.592   2.442   3.017
 4586SOL     OW14317   2.110   3.415   3.593
 4586SOL    HW114318   2.084   3.478   3.660
 4586SOL    HW214319   2.107   3.330   3.637
 4587SOL     OW14320   2.792   3.541   3.328
 4587SOL    HW114321   2.766   3.511   3.241
 4587SOL    HW214322   2.792   3.636   3.322
 4588SOL     OW14323   2.011   3.002   3.334
 4588SOL    HW114324   2.014   2.947   3.413
 4588SOL    HW214325   2.027   2.941   3.262
 4589SOL     OW14326   3.191   2.911   3.087
 4589SOL    HW114327   3.216   2.848   3.019
 4589SOL    HW214328   3.118   2.960   3.049
 4590SOL     OW14329   3.170   2.719   2.169
 4590SOL    HW114330   3.093   2.688   2.218
 4590SOL    HW214331   3.148   2.705   2.077
 4591SOL     OW14332   3.630   3.609   3.010
 4591SOL    HW114333   3.690   3.635   2.940
 4591SOL    HW214334   3.606   3.519   2.990
 4592SOL     OW14335   3.104   3.595   2.979
 4592SOL    HW114336   3.185   3.613   2.932
 4592SOL    HW214337   3.107   3.500   2.996
 4593SOL     OW14338   1.945   3.127   2.876
 4593SOL    HW114339   1.932   3.139   2.970
 4593SOL    HW214340   1.870   3.075   2.847
 4594SOL     OW14341   2.540   3.525   3.586
 4594SOL    HW114342   2.488   3.606   3.584
 4594SOL    HW214343   2.602   3.535   3.514
 4595SOL     OW14344   3.580   2.004   2.375
 4595SOL    HW114345   3.654   1.990   2.315
 4595SOL    HW214346   3.565   1.918   2.414
 4596SOL     OW14347   3.252   3.430   2.344
 4596SOL    HW114348   3.313   3.460   2.277
 4596SOL    HW214349   3.205   3.508   2.372
 4597SOL     OW14350   1.997   3.658   3.705
 4597SOL    HW114351   1.946   3.594   3.754
 4597SOL    HW214352   2.046   3.707   3.772
 4598SOL     OW14353   3.139   2.787   2.534
 4598SOL    HW114354   3.212   2.725   2.538
 4598SOL    HW214355   3.173   2.860   2.482
 4599SOL     OW14356   2.681   3.134   3.294
 4599SOL    HW114357   2.655   3.173   3.377
 4599SOL    HW214358   2.610   3.156   3.233
 4600SOL     OW14359   2.534   3.478   2.017
 4600SOL    HW114360   2.543   3.489   1.923
 4600SOL    HW214361   2.481   3.400   2.028
 4601SOL     OW14362   3.495   3.588   3.254
 4601SOL    HW114363   3.542   3.596   3.171
 4601SOL    HW214364   3.481   3.679   3.283
 4602SOL     OW14365   3.702   2.035   2.830
 4602SOL    HW114366   3.731   1.949   2.800
 4602SOL    HW214367   3.615   2.046   2.790
 4603SOL     OW14368   3.067   3.470   1.893
 4603SOL    HW114369   3.060   3.379   1.920
 4603SOL    HW214370   3.003   3.480   1.823
 4604SOL     OW14371   2.685   2.868   3.234
 4604SOL    HW114372   2.731   2.862   3.151
 4604SOL    HW214373   2.688   2.961   3.256
 4605SOL     OW14374   2.777   2.772   2.151
 4605SOL    HW114375   2.839   2.804   2.086
 4605SOL    HW214376   2.824   2.701   2.196
 4606SOL     OW14377   3.357   3.486   1.904
 4606SOL    HW114378   3.262   3.483   1.893
 4606SOL    HW214379   3.392   3.492   1.815
 4607SOL     OW14380   2.232   3.162   3.353
 4607SOL    HW114381   2.218   3.241   3.300
 4607SOL    HW214382   2.155   3.108   3.337
 4608SOL     OW14383   3.474   3.145   3.143
 4608SOL    HW114384   3.533   3.138   3.218
 4608SOL    HW214385   3.413   3.216   3.167
 4609SOL     OW14386   2.909   2.967   2.567
 4609SOL    HW114387   2.840   2.914   2.607
 4609SOL    HW214388   2.971   2.902   2.533
 4610SOL     OW14389   2.883   2.101   2.828
 4610SOL    HW114390   2.876   2.054   2.745
 4610SOL    HW214391   2.876   2.033   2.896
 4611SOL     OW14392   2.463   3.351   2.345
 4611SOL    HW114393   2.503   3.300   2.275
 4611SOL    HW214394   2.397   3.405   2.301
 4612SOL     OW14395   3.581   2.254   3.242
 4612SOL    HW114396   3.653   2.317   3.240
 4612SOL    HW214397   3.611   2.182   3.186
 4613SOL     OW14398   2.120   3.208   2.149
 4613SOL    HW114399   2.027   3.207   2.127
 4613SOL    HW214400   2.123   3.246   2.237
 4614SOL     OW14401   1.974   2.880   3.581
 4614SOL    HW114402   1.897   2.857   3.634
 4614SOL    HW214403   2.048   2.843   3.630
 4615SOL     OW14404   2.541   2.054   3.353
 4615SOL    HW114405   2.627   2.031   3.319
 4615SOL    HW214406   2.557   2.087   3.441
 4616SOL     OW14407   1.909   2.197   1.904
 4616SOL    HW114408   1.829   2.165   1.861
 4616SOL    HW214409   1.936   2.272   1.851
 4617SOL     OW14410   3.294   2.721   3.264
 4617SOL    HW114411   3.246   2.780   3.207
 4617SOL    HW214412   3.384   2.723   3.231
 4618SOL     OW14413   1.933   2.018   2.172
 4618SOL    HW114414   1.907   2.095   2.122
 4618SOL    HW214415   2.028   2.021   2.174
 4619SOL     OW14416   3.042   3.204   1.979
 4619SOL    HW114417   2.951   3.174   1.982
 4619SOL    HW214418   3.071   3.203   2.070
 4620SOL     OW14419   2.481   2.694   3.292
 4620SOL    HW114420   2.535   2.772   3.279
 4620SOL    HW214421   2.544   2.622   3.298
 4621SOL     OW14422   3.347   3.636   2.837
 4621SOL    HW114423   3.373   3.693   2.765
 4621SOL    HW214424   3.428   3.621   2.886
 4622SOL     OW14425   2.584   2.429   3.568
 4622SOL    HW114426   2.619   2.493   3.629
 4622SOL    HW214427   2.619   2.345   3.598
 4623SOL     OW14428   3.330   3.066   3.495
 4623SOL    HW114429   3.319   3.078   3.589
 4623SOL    HW214430   3.424   3.077   3.481
 4624SOL     OW14431   2.245   3.602   3.425
 4624SOL    HW114432   2.158   3.641   3.413
 4624SOL    HW214433   2.227   3.517   3.467
 4625SOL     OW14434   3.534   2.744   3.118
 4625SOL    HW114435   3.525   2.658   3.075
 4625SOL    HW214436   3.525   2.807   3.046
 4626SOL     OW14437   3.081   2.182   2.319
 4626SOL    HW114438   3.144   2.111   2.310
 4626SOL    HW214439   3.109   2.230   2.397
 4627SOL     OW14440   2.444   2.609   2.518
 4627SOL    HW114441   2.493   2.691   2.507
 4627SOL    HW214442   2.367   2.620   2.461
 4628SOL     OW14443   3.628   2.221   3.511
 4628SOL    HW114444   3.609   2.235   3.418
 4628SOL    HW214445   3.556   2.165   3.541
 4629SOL     OW14446   3.605   2.796   3.375
 4629SOL    HW114447   3.608   2.890   3.387
 4629SOL    HW214448   3.590   2.784   3.281
 4630SOL     OW14449   2.724   3.231   1.891
 4630SOL    HW114450   2.685   3.257   1.975
 4630SOL    HW214451   2.744   3.313   1.847
 4631SOL     OW14452   2.521   3.656   2.810
 4631SOL    HW114453   2.499   3.746   2.786
 4631SOL    HW214454   2.616   3.651   2.802
 4632SOL     OW14455   2.727   2.826   2.718
 4632SOL    HW114456   2.778   2.755   2.758
 4632SOL    HW214457   2.697   2.879   2.793
 4633SOL     OW14458   2.941   2.849   1.950
 4633SOL    HW114459   2.920   2.900   1.872
 4633SOL    HW214460   3.018   2.797   1.925
 4634SOL     OW14461   3.719   3.419   2.707
 4634SOL    HW114462   3.642   3.407   2.651
 4634SOL    HW214463   3.711   3.350   2.773
 4635SOL     OW14464   2.086   3.167   3.718
 4635SOL    HW114465   2.018   3.105   3.689
 4635SOL    HW214466   2.068   3.179   3.811
 4636SOL     OW14467   1.945   3.099   2.526
 4636SOL    HW114468   1.944   3.048   2.607
 4636SOL    HW214469   2.013   3.059   2.472
 4637SOL     OW14470   2.541   3.262   3.487
 4637SOL    HW114471   2.462   3.219   3.518
 4637SOL    HW214472   2.536   3.350   3.524
 4638SOL     OW14473   3.676   2.048   3.100
 4638SOL    HW114474   3.685   1.954   3.116
 4638SOL    HW214475   3.685   2.057   3.005
 4639SOL     OW14476   3.563   3.354   2.963
 4639SOL    HW114477   3.482   3.327   2.919
 4639SOL    HW214478   3.579   3.285   3.028
 4640SOL     OW14479   2.687   3.440   2.542
 4640SOL    HW114480   2.682   3.484   2.457
 4640SOL    HW214481   2.608   3.386   2.545
 4641SOL     OW14482   3.295   2.085   2.980
 4641SOL    HW114483   3.322   2.007   3.028
 4641SOL    HW214484   3.242   2.134   3.043
 4642SOL     OW14485   2.870   1.883   3.008
 4642SOL    HW114486   2.815   1.815   2.970
 4642SOL    HW214487   2.958   1.844   3.009
 4643SOL     OW14488   2.633   3.194   2.172
 4643SOL    HW114489   2.599   3.105   2.179
 4643SOL    HW214490   2.716   3.192   2.220
 4644SOL     OW14491   2.482   3.421   3.146
 4644SOL    HW114492   2.485   3.502   3.197
 4644SOL    HW214493   2.569   3.413   3.107
 4645SOL     OW14494   3.214   1.916   2.026
 4645SOL    HW114495   3.239   1.856   1.955
 4645SOL    HW214496   3.128   1.884   2.053
 4646SOL     OW14497   3.160   2.322   2.545
 4646SOL    HW114498   3.104   2.399   2.553
 4646SOL    HW214499   3.157   2.281   2.632
 4647SOL     OW14500   3.450   2.068   2.739
 4647SOL    HW114501   3.385   2.085   2.807
 4647SOL    HW214502   3.449   2.147   2.684
 4648SOL     OW14503   1.905   2.935   2.168
 4648SOL    HW114504   1.998   2.926   2.151
 4648SOL    HW214505   1.875   2.847   2.190
 4649SOL     OW14506   2.743   3.511   2.207
 4649SOL    HW114507   2.672   3.493   2.145
 4649SOL    HW214508   2.713   3.588   2.256
 4650SOL     OW14509   2.068   2.521   3.840
 4650SOL    HW114510   1.984   2.494   3.876
 4650SOL    HW214511   2.086   2.460   3.769
 4651SOL     OW14512   1.867   2.245   4.358
 4651SOL    HW114513   1.783   2.268   4.397
 4651SOL    HW214514   1.852   2.161   4.315
 4652SOL     OW14515   2.437   3.148   4.910
 4652SOL    HW114516   2.355   3.141   4.861
 4652SOL    HW214517   2.446   3.241   4.929
 4653SOL     OW14518   3.419   3.373   4.429
 4653SOL    HW114519   3.375   3.356   4.513
 4653SOL    HW214520   3.348   3.379   4.365
 4654SOL     OW14521   2.996   2.555   4.432
 4654SOL    HW114522   3.042   2.638   4.420
 4654SOL    HW214523   2.934   2.571   4.503
 4655SOL     OW14524   3.624   2.469   3.955
 4655SOL    HW114525   3.607   2.460   3.862
 4655SOL    HW214526   3.592   2.388   3.994
 4656SOL     OW14527   2.754   2.692   5.556
 4656SOL    HW114528   2.685   2.743   5.599
 4656SOL    HW214529   2.750   2.718   5.465
 4657SOL     OW14530   2.553   2.877   4.380
 4657SOL    HW114531   2.600   2.857   4.461
 4657SOL    HW214532   2.476   2.926   4.408
 4658SOL     OW14533   2.572   3.026   5.520
 4658SOL    HW114534   2.620   3.106   5.544
 4658SOL    HW214535   2.486   3.058   5.493
 4659SOL     OW14536   2.192   3.293   4.788
 4659SOL    HW114537   2.121   3.272   4.727
 4659SOL    HW214538   2.254   3.345   4.736
 4660SOL     OW14539   3.323   3.360   5.073
 4660SOL    HW114540   3.366   3.445   5.086
 4660SOL    HW214541   3.270   3.349   5.152
 4661SOL     OW14542   3.474   2.311   4.465
 4661SOL    HW114543   3.403   2.341   4.408
 4661SOL    HW214544   3.500   2.389   4.514
 4662SOL     OW14545   2.082   3.574   4.199
 4662SOL    HW114546   2.106   3.652   4.251
 4662SOL    HW214547   2.151   3.568   4.133
 4663SOL     OW14548   2.997   3.203   5.415
 4663SOL    HW114549   3.038   3.198   5.502
 4663SOL    HW214550   2.945   3.124   5.408
 4664SOL     OW14551   2.093   3.302   4.259
 4664SOL    HW114552   2.076   3.396   4.263
 4664SOL    HW214553   2.030   3.263   4.319
 4665SOL     OW14554   2.477   3.653   5.156
 4665SOL    HW114555   2.395   3.636   5.201
 4665SOL    HW214556   2.500   3.743   5.180
 4666SOL     OW14557   2.451   2.839   3.854
 4666SOL    HW114558   2.493   2.894   3.787
 4666SOL    HW214559   2.492   2.867   3.936
 4667SOL     OW14560   3.463   1.983   5.194
 4667SOL    HW114561   3.452   2.062   5.141
 4667SOL    HW214562   3.447   2.012   5.284
 4668SOL     OW14563   1.986   2.499   4.276
 4668SOL    HW114564   1.947   2.416   4.304
 4668SOL    HW214565   1.971   2.558   4.349
 4669SOL     OW14566   3.703   3.623   4.061
 4669SOL    HW114567   3.762   3.594   4.131
 4669SOL    HW214568   3.730   3.713   4.043
 4670SOL     OW14569   1.892   3.459   3.848
 4670SOL    HW114570   1.874   3.367   3.868
 4670SOL    HW214571   1.867   3.505   3.928
 4671SOL     OW14572   3.549   2.779   4.360
 4671SOL    HW114573   3.637   2.742   4.346
 4671SOL    HW214574   3.532   2.830   4.282
 4672SOL     OW14575   3.507   2.970   4.154
 4672SOL    HW114576   3.592   2.978   4.111
 4672SOL    HW214577   3.512   3.030   4.228
 4673SOL     OW14578   2.475   3.243   4.458
 4673SOL    HW114579   2.427   3.161   4.464
 4673SOL    HW214580   2.460   3.273   4.368
 4674SOL     OW14581   3.155   3.103   5.148
 4674SOL    HW114582   3.186   3.033   5.090
 4674SOL    HW214583   3.208   3.093   5.227
 4675SOL     OW14584   2.671   1.858   4.223
 4675SOL    HW114585   2.715   1.943   4.214
 4675SOL    HW214586   2.579   1.881   4.236
 4676SOL     OW14587   3.394   2.854   3.920
 4676SOL    HW114588   3.324   2.795   3.950
 4676SOL    HW214589   3.433   2.887   4.001
 4677SOL     OW14590   3.047   3.665   5.344
 4677SOL    HW114591   3.063   3.722   5.269
 4677SOL    HW214592   3.062   3.577   5.311
 4678SOL     OW14593   3.328   3.282   4.677
 4678SOL    HW114594   3.260   3.296   4.743
 4678SOL    HW214595   3.316   3.191   4.650
 4679SOL     OW14596   3.524   3.594   4.302
 4679SOL    HW114597   3.500   3.566   4.213
 4679SOL    HW214598   3.497   3.521   4.358
 4680SOL     OW14599   2.460   2.585   3.992
 4680SOL    HW114600   2.466   2.659   3.931
 4680SOL    HW214601   2.386   2.607   4.048
 4681SOL     OW14602   3.444   3.530   4.033
 4681SOL    HW114603   3.532   3.565   4.027
 4681SOL    HW214604   3.419   3.512   3.942
 4682SOL     OW14605   3.257   2.337   5.395
 4682SOL    HW114606   3.247   2.377   5.482
 4682SOL    HW214607   3.314   2.262   5.410
 4683SOL     OW14608   2.836   2.757   5.286
 4683SOL    HW114609   2.876   2.670   5.287
 4683SOL    HW214610   2.770   2.752   5.217
 4684SOL     OW14611   2.910   2.560   4.152
 4684SOL    HW114612   2.926   2.548   4.245
 4684SOL    HW214613   2.828   2.512   4.135
 4685SOL     OW14614   1.972   2.708   4.453
 4685SOL    HW114615   2.042   2.684   4.514
 4685SOL    HW214616   1.921   2.774   4.501
 4686SOL     OW14617   1.990   3.698   5.299
 4686SOL    HW114618   1.988   3.681   5.393
 4686SOL    HW214619   1.898   3.708   5.274
 4687SOL     OW14620   2.748   2.210   3.919
 4687SOL    HW114621   2.793   2.268   3.858
 4687SOL    HW214622   2.763   2.122   3.883
 4688SOL     OW14623   3.578   2.442   5.552
 4688SOL    HW114624   3.537   2.516   5.508
 4688SOL    HW214625   3.594   2.378   5.482
 4689SOL     OW14626   3.234   3.003   4.265
 4689SOL    HW114627   3.314   2.989   4.215
 4689SOL    HW214628   3.185   3.067   4.215
 4690SOL     OW14629   2.870   3.307   4.199
 4690SOL    HW114630   2.830   3.378   4.149
 4690SOL    HW214631   2.858   3.332   4.290
 4691SOL     OW14632   2.216   3.668   4.582
 4691SOL    HW114633   2.262   3.584   4.591
 4691SOL    HW214634   2.284   3.733   4.598
 4692SOL     OW14635   3.659   2.922   4.591
 4692SOL    HW114636   3.601   2.907   4.516
 4692SOL    HW214637   3.600   2.927   4.666
 4693SOL     OW14638   3.089   3.402   5.236
 4693SOL    HW114639   3.076   3.329   5.297
 4693SOL    HW214640   3.029   3.384   5.164
 4694SOL     OW14641   2.183   2.814   3.972
 4694SOL    HW114642   2.264   2.834   3.924
 4694SOL    HW214643   2.149   2.735   3.930
 4695SOL     OW14644   3.335   2.602   4.455
 4695SOL    HW114645   3.329   2.555   4.538
 4695SOL    HW214646   3.414   2.656   4.464
 4696SOL     OW14647   2.325   3.126   5.462
 4696SOL    HW114648   2.299   3.132   5.370
 4696SOL    HW214649   2.242   3.128   5.510
 4697SOL     OW14650   2.982   3.640   3.956
 4697SOL    HW114651   2.911   3.596   4.003
 4697SOL    HW214652   3.004   3.580   3.884
 4698SOL     OW14653   3.492   3.241   3.811
 4698SOL    HW114654   3.451   3.326   3.796
 4698SOL    HW214655   3.422   3.177   3.792
 4699SOL     OW14656   2.329   3.600   4.046
 4699SOL    HW114657   2.369   3.657   4.112
 4699SOL    HW214658   2.402   3.574   3.990
 4700SOL     OW14659   3.263   1.974   4.153
 4700SOL    HW114660   3.251   1.944   4.063
 4700SOL    HW214661   3.358   1.974   4.166
 4701SOL     OW14662   2.116   3.654   4.957
 4701SOL    HW114663   2.172   3.592   5.004
 4701SOL    HW214664   2.108   3.617   4.869
 4702SOL     OW14665   2.800   3.562   4.624
 4702SOL    HW114666   2.873   3.506   4.650
 4702SOL    HW214667   2.754   3.512   4.557
 4703SOL     OW14668   2.249   2.566   4.193
 4703SOL    HW114669   2.273   2.479   4.162
 4703SOL    HW214670   2.156   2.559   4.216
 4704SOL     OW14671   3.401   2.087   5.449
 4704SOL    HW114672   3.407   2.107   5.542
 4704SOL    HW214673   3.329   2.024   5.444
 4705SOL     OW14674   2.486   1.995   3.829
 4705SOL    HW114675   2.558   1.937   3.856
 4705SOL    HW214676   2.449   1.952   3.752
 4706SOL     OW14677   2.739   3.385   4.917
 4706SOL    HW114678   2.720   3.348   4.831
 4706SOL    HW214679   2.804   3.326   4.956
 4707SOL     OW14680   3.216   2.446   5.146
 4707SOL    HW114681   3.230   2.412   5.234
 4707SOL    HW214682   3.240   2.539   5.152
 4708SOL     OW14683   2.676   3.276   4.662
 4708SOL    HW114684   2.759   3.251   4.621
 4708SOL    HW214685   2.609   3.255   4.596
 4709SOL     OW14686   2.407   1.930   4.224
 4709SOL    HW114687   2.332   1.925   4.283
 4709SOL    HW214688   2.403   2.018   4.188
 4710SOL     OW14689   3.291   3.059   3.765
 4710SOL    HW114690   3.322   2.984   3.815
 4710SOL    HW214691   3.205   3.079   3.802
 4711SOL     OW14692   2.159   1.904   3.903
 4711SOL    HW114693   2.223   1.967   3.872
 4711SOL    HW214694   2.211   1.836   3.946
 4712SOL     OW14695   2.794   2.106   4.187
 4712SOL    HW114696   2.772   2.150   4.105
 4712SOL    HW214697   2.889   2.112   4.193
 4713SOL     OW14698   3.089   3.428   4.516
 4713SOL    HW114699   3.105   3.499   4.453
 4713SOL    HW214700   3.154   3.442   4.584
 4714SOL     OW14701   2.324   3.012   4.456
 4714SOL    HW114702   2.256   2.992   4.520
 4714SOL    HW214703   2.284   2.995   4.371
 4715SOL     OW14704   3.133   3.657   4.329
 4715SOL    HW114705   3.177   3.718   4.270
 4715SOL    HW214706   3.069   3.710   4.376
 4716SOL     OW14707   2.888   2.408   3.743
 4716SOL    HW114708   2.847   2.492   3.723
 4716SOL    HW214709   2.952   2.428   3.811
 4717SOL     OW14710   2.733   2.326   4.358
 4717SOL    HW114711   2.687   2.374   4.290
 4717SOL    HW214712   2.752   2.241   4.319
 4718SOL     OW14713   2.900   1.893   4.458
 4718SOL    HW114714   2.816   1.902   4.412
 4718SOL    HW214715   2.880   1.838   4.533
 4719SOL     OW14716   3.298   3.026   4.582
 4719SOL    HW114717   3.232   2.957   4.579
 4719SOL    HW214718   3.322   3.041   4.491
 4720SOL     OW14719   3.331   2.459   4.710
 4720SOL    HW114720   3.297   2.370   4.721
 4720SOL    HW214721   3.395   2.470   4.779
 4721SOL     OW14722   3.710   2.681   4.105
 4721SOL    HW114723   3.765   2.629   4.163
 4721SOL    HW214724   3.680   2.619   4.038
 4722SOL     OW14725   2.354   3.275   3.885
 4722SOL    HW114726   2.279   3.246   3.937
 4722SOL    HW214727   2.333   3.250   3.795
 4723SOL     OW14728   3.529   3.127   4.373
 4723SOL    HW114729   3.624   3.132   4.386
 4723SOL    HW214730   3.498   3.215   4.394
 4724SOL     OW14731   3.256   2.434   3.795
 4724SOL    HW114732   3.196   2.415   3.868
 4724SOL    HW214733   3.340   2.399   3.824
 4725SOL     OW14734   3.615   3.098   5.299
 4725SOL    HW114735   3.703   3.058   5.299
 4725SOL    HW214736   3.630   3.187   5.331
 4726SOL     OW14737   2.925   3.214   5.057
 4726SOL    HW114738   2.848   3.183   5.104
 4726SOL    HW214739   2.999   3.173   5.101
 4727SOL     OW14740   3.467   3.488   5.375
 4727SOL    HW114741   3.465   3.521   5.285
 4727SOL    HW214742   3.550   3.441   5.381
 4728SOL     OW14743   2.982   3.059   4.829
 4728SOL    HW114744   2.930   3.099   4.898
 4728SOL    HW214745   2.950   3.100   4.748
 4729SOL     OW14746   3.493   2.962   4.802
 4729SOL    HW114747   3.490   3.024   4.875
 4729SOL    HW214748   3.412   2.978   4.754
 4730SOL     OW14749   2.846   2.976   5.444
 4730SOL    HW114750   2.752   2.987   5.460
 4730SOL    HW214751   2.852   2.902   5.383
 4731SOL     OW14752   2.570   2.922   4.096
 4731SOL    HW114753   2.559   2.909   4.190
 4731SOL    HW214754   2.646   2.869   4.073
 4732SOL     OW14755   1.933   3.446   5.074
 4732SOL    HW114756   1.901   3.520   5.022
 4732SOL    HW214757   2.028   3.453   5.071
 4733SOL     OW14758   2.213   2.965   4.216
 4733SOL    HW114759   2.217   3.040   4.156
 4733SOL    HW214760   2.212   2.889   4.159
 4734SOL     OW14761   3.109   3.210   4.114
 4734SOL    HW114762   3.165   3.282   4.144
 4734SOL    HW214763   3.022   3.231   4.148
 4735SOL     OW14764   3.139   3.317   4.870
 4735SOL    HW114765   3.194   3.320   4.948
 4735SOL    HW214766   3.080   3.244   4.886
 4736SOL     OW14767   3.445   2.488   4.202
 4736SOL    HW114768   3.402   2.548   4.263
 4736SOL    HW214769   3.491   2.545   4.141
 4737SOL     OW14770   2.211   3.384   5.042
 4737SOL    HW114771   2.198   3.342   4.957
 4737SOL    HW214772   2.306   3.399   5.047
 4738SOL     OW14773   3.462   2.641   5.406
 4738SOL    HW114774   3.374   2.676   5.397
 4738SOL    HW214775   3.512   2.683   5.335
 4739SOL     OW14776   3.226   2.722   4.758
 4739SOL    HW114777   3.149   2.714   4.702
 4739SOL    HW214778   3.261   2.633   4.764
 4740SOL     OW14779   3.069   2.392   3.993
 4740SOL    HW114780   3.077   2.313   4.046
 4740SOL    HW214781   3.027   2.455   4.051
 4741SOL     OW14782   1.876   3.190   5.028
 4741SOL    HW114783   1.927   3.142   5.093
 4741SOL    HW214784   1.902   3.282   5.040
 4742SOL     OW14785   3.595   2.822   5.574
 4742SOL    HW114786   3.548   2.764   5.514
 4742SOL    HW214787   3.535   2.833   5.648
 4743SOL     OW14788   2.172   1.923   4.370
 4743SOL    HW114789   2.148   2.011   4.397
 4743SOL    HW214790   2.159   1.869   4.447
 4744SOL     OW14791   3.477   2.235   4.093
 4744SOL    HW114792   3.502   2.170   4.158
 4744SOL    HW214793   3.452   2.312   4.144
 4745SOL     OW14794   2.843   3.427   5.438
 4745SOL    HW114795   2.828   3.472   5.354
 4745SOL    HW214796   2.887   3.345   5.414
 4746SOL     OW14797   3.718   3.372   5.330
 4746SOL    HW114798   3.735   3.397   5.239
 4746SOL    HW214799   3.799   3.393   5.376
 4747SOL     OW14800   3.392   2.136   3.851
 4747SOL    HW114801   3.329   2.070   3.877
 4747SOL    HW214802   3.425   2.172   3.934
 4748SOL     OW14803   3.157   2.689   3.758
 4748SOL    HW114804   3.199   2.604   3.761
 4748SOL    HW214805   3.187   2.728   3.675
 4749SOL     OW14806   2.926   3.198   4.577
 4749SOL    HW114807   2.932   3.125   4.515
 4749SOL    HW214808   2.988   3.262   4.544
 4750SOL     OW14809   3.053   2.063   5.202
 4750SOL    HW114810   3.018   2.114   5.276
 4750SOL    HW214811   3.055   2.126   5.129
 4751SOL     OW14812   1.867   3.185   3.920
 4751SOL    HW114813   1.780   3.198   3.882
 4751SOL    HW214814   1.865   3.094   3.951
 4752SOL     OW14815   1.952   3.650   4.659
 4752SOL    HW114816   1.923   3.569   4.616
 4752SOL    HW214817   2.041   3.663   4.629
 4753SOL     OW14818   2.363   3.434   4.632
 4753SOL    HW114819   2.431   3.498   4.656
 4753SOL    HW214820   2.409   3.369   4.578
 4754SOL     OW14821   3.237   2.804   5.384
 4754SOL    HW114822   3.257   2.897   5.384
 4754SOL    HW214823   3.238   2.779   5.291
 4755SOL     OW14824   2.675   2.431   4.079
 4755SOL    HW114825   2.680   2.356   4.019
 4755SOL    HW214826   2.601   2.481   4.048
 4756SOL     OW14827   3.507   2.468   4.912
 4756SOL    HW114828   3.489   2.410   4.987
 4756SOL    HW214829   3.593   2.442   4.881
 4757SOL     OW14830   2.110   3.415   5.454
 4757SOL    HW114831   2.085   3.479   5.520
 4757SOL    HW214832   2.107   3.331   5.500
 4758SOL     OW14833   2.792   3.541   5.191
 4758SOL    HW114834   2.767   3.509   5.104
 4758SOL    HW214835   2.791   3.637   5.182
 4759SOL     OW14836   2.006   3.018   5.206
 4759SOL    HW114837   2.011   2.968   5.287
 4759SOL    HW214838   2.027   2.956   5.137
 4760SOL     OW14839   3.191   2.913   4.949
 4760SOL    HW114840   3.217   2.850   4.881
 4760SOL    HW214841   3.118   2.961   4.911
 4761SOL     OW14842   3.170   2.718   4.032
 4761SOL    HW114843   3.092   2.688   4.078
 4761SOL    HW214844   3.149   2.705   3.939
 4762SOL     OW14845   3.630   3.609   4.872
 4762SOL    HW114846   3.690   3.635   4.802
 4762SOL    HW214847   3.606   3.519   4.852
 4763SOL     OW14848   3.104   3.595   4.841
 4763SOL    HW114849   3.186   3.612   4.794
 4763SOL    HW214850   3.106   3.501   4.859
 4764SOL     OW14851   2.539   3.526   5.449
 4764SOL    HW114852   2.490   3.608   5.445
 4764SOL    HW214853   2.603   3.534   5.378
 4765SOL     OW14854   3.580   2.004   4.237
 4765SOL    HW114855   3.654   1.990   4.178
 4765SOL    HW214856   3.564   1.919   4.277
 4766SOL     OW14857   3.251   3.430   4.206
 4766SOL    HW114858   3.313   3.461   4.139
 4766SOL    HW214859   3.205   3.508   4.234
 4767SOL     OW14860   1.997   3.658   5.567
 4767SOL    HW114861   1.947   3.594   5.617
 4767SOL    HW214862   2.046   3.707   5.633
 4768SOL     OW14863   3.137   2.786   4.396
 4768SOL    HW114864   3.210   2.724   4.401
 4768SOL    HW214865   3.171   2.858   4.344
 4769SOL     OW14866   2.686   3.136   5.153
 4769SOL    HW114867   2.652   3.175   5.234
 4769SOL    HW214868   2.612   3.137   5.093
 4770SOL     OW14869   2.534   3.478   3.879
 4770SOL    HW114870   2.543   3.489   3.785
 4770SOL    HW214871   2.481   3.400   3.890
 4771SOL     OW14872   3.495   3.588   5.116
 4771SOL    HW114873   3.542   3.596   5.033
 4771SOL    HW214874   3.482   3.679   5.145
 4772SOL     OW14875   3.701   2.035   4.690
 4772SOL    HW114876   3.731   1.948   4.662
 4772SOL    HW214877   3.614   2.044   4.652
 4773SOL     OW14878   3.067   3.470   3.755
 4773SOL    HW114879   3.060   3.379   3.782
 4773SOL    HW214880   3.003   3.480   3.685
 4774SOL     OW14881   2.779   2.774   4.016
 4774SOL    HW114882   2.839   2.805   3.948
 4774SOL    HW214883   2.824   2.700   4.057
 4775SOL     OW14884   3.357   3.486   3.766
 4775SOL    HW114885   3.262   3.483   3.755
 4775SOL    HW214886   3.392   3.492   3.677
 4776SOL     OW14887   2.234   3.163   5.216
 4776SOL    HW114888   2.226   3.241   5.162
 4776SOL    HW214889   2.150   3.118   5.207
 4777SOL     OW14890   3.475   3.146   5.005
 4777SOL    HW114891   3.532   3.137   5.081
 4777SOL    HW214892   3.413   3.215   5.029
 4778SOL     OW14893   2.911   2.964   4.433
 4778SOL    HW114894   2.838   2.906   4.454
 4778SOL    HW214895   2.976   2.907   4.392
 4779SOL     OW14896   2.462   3.350   4.206
 4779SOL    HW114897   2.503   3.300   4.135
 4779SOL    HW214898   2.398   3.406   4.162
 4780SOL     OW14899   3.582   2.254   5.103
 4780SOL    HW114900   3.653   2.317   5.101
 4780SOL    HW214901   3.612   2.182   5.048
 4781SOL     OW14902   2.120   3.208   4.011
 4781SOL    HW114903   2.027   3.207   3.989
 4781SOL    HW214904   2.123   3.246   4.099
 4782SOL     OW14905   1.968   2.906   5.456
 4782SOL    HW114906   1.884   2.875   5.490
 4782SOL    HW214907   2.030   2.836   5.478
 4783SOL     OW14908   1.922   2.203   3.774
 4783SOL    HW114909   1.842   2.177   3.729
 4783SOL    HW214910   1.964   2.265   3.714
 4784SOL     OW14911   3.295   2.725   5.128
 4784SOL    HW114912   3.248   2.784   5.069
 4784SOL    HW214913   3.384   2.724   5.094
 4785SOL     OW14914   1.937   2.021   4.037
 4785SOL    HW114915   1.914   2.096   3.982
 4785SOL    HW214916   2.017   1.986   3.998
 4786SOL     OW14917   3.042   3.204   3.841
 4786SOL    HW114918   2.951   3.175   3.844
 4786SOL    HW214919   3.071   3.203   3.932
 4787SOL     OW14920   3.347   3.636   4.698
 4787SOL    HW114921   3.374   3.694   4.627
 4787SOL    HW214922   3.428   3.621   4.748
 4788SOL     OW14923   3.330   3.067   5.358
 4788SOL    HW114924   3.318   3.078   5.452
 4788SOL    HW214925   3.424   3.076   5.344
 4789SOL     OW14926   2.244   3.602   5.287
 4789SOL    HW114927   2.158   3.641   5.275
 4789SOL    HW214928   2.228   3.518   5.329
 4790SOL     OW14929   3.534   2.745   4.980
 4790SOL    HW114930   3.526   2.658   4.939
 4790SOL    HW214931   3.526   2.806   4.907
 4791SOL     OW14932   3.082   2.184   4.179
 4791SOL    HW114933   3.143   2.111   4.170
 4791SOL    HW214934   3.110   2.229   4.258
 4792SOL     OW14935   2.448   2.614   4.384
 4792SOL    HW114936   2.492   2.695   4.359
 4792SOL    HW214937   2.379   2.604   4.318
 4793SOL     OW14938   3.628   2.219   5.372
 4793SOL    HW114939   3.608   2.235   5.279
 4793SOL    HW214940   3.556   2.164   5.403
 4794SOL     OW14941   3.608   2.796   5.236
 4794SOL    HW114942   3.607   2.891   5.249
 4794SOL    HW214943   3.591   2.784   5.143
 4795SOL     OW14944   2.725   3.231   3.754
 4795SOL    HW114945   2.684   3.258   3.836
 4795SOL    HW214946   2.745   3.313   3.709
 4796SOL     OW14947   2.519   3.656   4.672
 4796SOL    HW114948   2.500   3.747   4.647
 4796SOL    HW214949   2.615   3.650   4.665
 4797SOL     OW14950   2.941   2.848   3.812
 4797SOL    HW114951   2.920   2.900   3.734
 4797SOL    HW214952   3.017   2.797   3.787
 4798SOL     OW14953   3.719   3.418   4.569
 4798SOL    HW114954   3.642   3.407   4.514
 4798SOL    HW214955   3.711   3.350   4.636
 4799SOL     OW14956   2.086   3.167   5.579
 4799SOL    HW114957   2.017   3.106   5.552
 4799SOL    HW214958   2.072   3.179   5.673
 4800SOL     OW14959   1.948   3.104   4.394
 4800SOL    HW114960   1.918   3.039   4.458
 4800SOL    HW214961   2.006   3.055   4.336
 4801SOL     OW14962   2.539   3.265   5.344
 4801SOL    HW114963   2.461   3.221   5.377
 4801SOL    HW214964   2.536   3.352   5.385
 4802SOL     OW14965   3.680   2.049   4.962
 4802SOL    HW114966   3.682   1.955   4.979
 4802SOL    HW214967   3.687   2.056   4.866
 4803SOL     OW14968   3.564   3.353   4.824
 4803SOL    HW114969   3.482   3.327   4.781
 4803SOL    HW214970   3.579   3.285   4.890
 4804SOL     OW14971   2.688   3.441   4.401
 4804SOL    HW114972   2.679   3.483   4.316
 4804SOL    HW214973   2.611   3.386   4.410
 4805SOL     OW14974   3.301   2.098   4.838
 4805SOL    HW114975   3.318   2.008   4.868
 4805SOL    HW214976   3.236   2.132   4.899
 4806SOL     OW14977   2.633   3.195   4.034
 4806SOL    HW114978   2.600   3.105   4.040
 4806SOL    HW214979   2.716   3.193   4.082
 4807SOL     OW14980   2.480   3.425   5.004
 4807SOL    HW114981   2.486   3.504   5.057
 4807SOL    HW214982   2.568   3.413   4.969
 4808SOL     OW14983   3.214   1.916   3.887
 4808SOL    HW114984   3.240   1.855   3.817
 4808SOL    HW214985   3.128   1.884   3.915
 4809SOL     OW14986   3.160   2.321   4.409
 4809SOL    HW114987   3.103   2.399   4.415
 4809SOL    HW214988   3.153   2.280   4.495
 4810SOL     OW14989   3.447   2.067   4.601
 4810SOL    HW114990   3.387   2.086   4.673
 4810SOL    HW214991   3.449   2.146   4.548
 4811SOL     OW14992   1.906   2.935   4.031
 4811SOL    HW114993   1.999   2.925   4.010
 4811SOL    HW214994   1.876   2.847   4.052
 4812SOL     OW14995   2.742   3.511   4.069
 4812SOL    HW114996   2.672   3.494   4.007
 4812SOL    HW214997   2.714   3.588   4.118
 4813SOL     OW14998   2.428   3.145   6.757
 4813SOL    HW114999   2.339   3.150   6.723
 4813SOL    HW215000   2.445   3.233   6.793
 4814SOL     OW15001   3.419   3.374   6.291
 4814SOL    HW115002   3.375   3.355   6.374
 4814SOL    HW215003   3.349   3.378   6.227
 4815SOL     OW15004   3.625   2.469   5.818
 4815SOL    HW115005   3.608   2.462   5.724
 4815SOL    HW215006   3.591   2.387   5.854
 4816SOL     OW15007   2.610   3.000   6.618
 4816SOL    HW115008   2.546   3.042   6.675
 4816SOL    HW215009   2.655   3.072   6.575
 4817SOL     OW15010   2.722   2.644   7.406
 4817SOL    HW115011   2.712   2.714   7.470
 4817SOL    HW215012   2.748   2.688   7.325
 4818SOL     OW15013   2.569   3.014   7.394
 4818SOL    HW115014   2.617   3.093   7.419
 4818SOL    HW215015   2.485   3.046   7.361
 4819SOL     OW15016   2.193   3.288   6.652
 4819SOL    HW115017   2.120   3.257   6.599
 4819SOL    HW215018   2.246   3.341   6.592
 4820SOL     OW15019   3.324   3.360   6.936
 4820SOL    HW115020   3.367   3.445   6.946
 4820SOL    HW215021   3.270   3.350   7.015
 4821SOL     OW15022   3.476   2.314   6.325
 4821SOL    HW115023   3.415   2.357   6.265
 4821SOL    HW215024   3.502   2.383   6.387
 4822SOL     OW15025   2.083   3.576   6.061
 4822SOL    HW115026   2.106   3.653   6.113
 4822SOL    HW215027   2.152   3.571   5.995
 4823SOL     OW15028   2.998   3.203   7.277
 4823SOL    HW115029   3.037   3.199   7.364
 4823SOL    HW215030   2.945   3.123   7.272
 4824SOL     OW15031   2.094   3.306   6.115
 4824SOL    HW115032   2.081   3.401   6.118
 4824SOL    HW215033   2.033   3.271   6.180
 4825SOL     OW15034   2.477   3.652   7.018
 4825SOL    HW115035   2.394   3.635   7.062
 4825SOL    HW215036   2.500   3.742   7.042
 4826SOL     OW15037   2.549   2.829   5.701
 4826SOL    HW115038   2.537   2.907   5.647
 4826SOL    HW215039   2.501   2.849   5.782
 4827SOL     OW15040   3.458   1.983   7.056
 4827SOL    HW115041   3.456   2.062   7.002
 4827SOL    HW215042   3.447   2.014   7.145
 4828SOL     OW15043   3.703   3.623   5.923
 4828SOL    HW115044   3.762   3.594   5.993
 4828SOL    HW215045   3.731   3.713   5.905
 4829SOL     OW15046   1.892   3.458   5.711
 4829SOL    HW115047   1.871   3.367   5.732
 4829SOL    HW215048   1.868   3.507   5.790
 4830SOL     OW15049   3.550   2.780   6.223
 4830SOL    HW115050   3.636   2.741   6.206
 4830SOL    HW215051   3.530   2.831   6.144
 4831SOL     OW15052   3.507   2.970   6.016
 4831SOL    HW115053   3.591   2.979   5.972
 4831SOL    HW215054   3.512   3.030   6.091
 4832SOL     OW15055   1.982   2.597   7.173
 4832SOL    HW115056   2.070   2.612   7.207
 4832SOL    HW215057   1.938   2.682   7.182
 4833SOL     OW15058   2.485   3.260   6.319
 4833SOL    HW115059   2.424   3.188   6.337
 4833SOL    HW215060   2.467   3.285   6.229
 4834SOL     OW15061   3.152   3.100   7.010
 4834SOL    HW115062   3.185   3.033   6.950
 4834SOL    HW215063   3.208   3.092   7.088
 4835SOL     OW15064   2.055   2.827   6.858
 4835SOL    HW115065   2.139   2.788   6.831
 4835SOL    HW215066   1.990   2.780   6.807
 4836SOL     OW15067   3.397   2.854   5.781
 4836SOL    HW115068   3.327   2.794   5.807
 4836SOL    HW215069   3.433   2.887   5.864
 4837SOL     OW15070   3.047   3.665   7.206
 4837SOL    HW115071   3.063   3.723   7.131
 4837SOL    HW215072   3.062   3.577   7.172
 4838SOL     OW15073   3.327   3.281   6.539
 4838SOL    HW115074   3.259   3.295   6.605
 4838SOL    HW215075   3.316   3.191   6.511
 4839SOL     OW15076   3.524   3.594   6.164
 4839SOL    HW115077   3.500   3.567   6.075
 4839SOL    HW215078   3.497   3.521   6.219
 4840SOL     OW15079   3.153   2.203   6.523
 4840SOL    HW115080   3.070   2.157   6.514
 4840SOL    HW215081   3.201   2.154   6.589
 4841SOL     OW15082   3.443   3.530   5.895
 4841SOL    HW115083   3.532   3.565   5.889
 4841SOL    HW215084   3.419   3.512   5.804
 4842SOL     OW15085   2.653   2.467   7.034
 4842SOL    HW115086   2.634   2.458   7.128
 4842SOL    HW215087   2.597   2.401   6.993
 4843SOL     OW15088   3.256   2.335   7.264
 4843SOL    HW115089   3.256   2.380   7.349
 4843SOL    HW215090   3.319   2.264   7.273
 4844SOL     OW15091   2.819   2.750   7.166
 4844SOL    HW115092   2.875   2.680   7.132
 4844SOL    HW215093   2.774   2.785   7.089
 4845SOL     OW15094   2.858   2.277   6.816
 4845SOL    HW115095   2.786   2.307   6.872
 4845SOL    HW215096   2.819   2.209   6.761
 4846SOL     OW15097   1.990   3.700   7.161
 4846SOL    HW115098   1.988   3.681   7.255
 4846SOL    HW215099   1.898   3.706   7.136
 4847SOL     OW15100   3.573   2.440   7.414
 4847SOL    HW115101   3.536   2.516   7.369
 4847SOL    HW215102   3.596   2.379   7.344
 4848SOL     OW15103   3.238   3.005   6.128
 4848SOL    HW115104   3.316   2.990   6.074
 4848SOL    HW215105   3.186   3.066   6.076
 4849SOL     OW15106   2.435   2.037   6.461
 4849SOL    HW115107   2.437   2.053   6.555
 4849SOL    HW215108   2.439   2.124   6.422
 4850SOL     OW15109   2.869   3.307   6.060
 4850SOL    HW115110   2.829   3.379   6.011
 4850SOL    HW215111   2.859   3.332   6.152
 4851SOL     OW15112   2.216   3.668   6.443
 4851SOL    HW115113   2.260   3.584   6.453
 4851SOL    HW215114   2.284   3.733   6.460
 4852SOL     OW15115   3.659   2.923   6.453
 4852SOL    HW115116   3.602   2.906   6.378
 4852SOL    HW215117   3.600   2.927   6.528
 4853SOL     OW15118   3.090   3.402   7.098
 4853SOL    HW115119   3.076   3.329   7.158
 4853SOL    HW215120   3.030   3.385   7.026
 4854SOL     OW15121   3.335   2.591   6.312
 4854SOL    HW115122   3.322   2.555   6.400
 4854SOL    HW215123   3.404   2.656   6.324
 4855SOL     OW15124   2.326   3.125   7.323
 4855SOL    HW115125   2.298   3.130   7.232
 4855SOL    HW215126   2.245   3.123   7.373
 4856SOL     OW15127   2.982   3.640   5.817
 4856SOL    HW115128   2.912   3.595   5.865
 4856SOL    HW215129   3.004   3.580   5.746
 4857SOL     OW15130   3.492   3.241   5.672
 4857SOL    HW115131   3.450   3.326   5.658
 4857SOL    HW215132   3.423   3.177   5.655
 4858SOL     OW15133   2.329   3.600   5.908
 4858SOL    HW115134   2.368   3.657   5.974
 4858SOL    HW215135   2.403   3.575   5.852
 4859SOL     OW15136   3.265   1.966   6.016
 4859SOL    HW115137   3.252   1.942   5.924
 4859SOL    HW215138   3.360   1.974   6.025
 4860SOL     OW15139   2.116   3.654   6.819
 4860SOL    HW115140   2.168   3.589   6.867
 4860SOL    HW215141   2.105   3.616   6.732
 4861SOL     OW15142   2.800   3.560   6.488
 4861SOL    HW115143   2.878   3.507   6.507
 4861SOL    HW215144   2.756   3.513   6.418
 4862SOL     OW15145   3.400   2.088   7.311
 4862SOL    HW115146   3.408   2.109   7.404
 4862SOL    HW215147   3.333   2.020   7.308
 4863SOL     OW15148   2.631   2.139   7.340
 4863SOL    HW115149   2.703   2.077   7.345
 4863SOL    HW215150   2.579   2.122   7.418
 4864SOL     OW15151   2.739   3.382   6.780
 4864SOL    HW115152   2.724   3.347   6.692
 4864SOL    HW215153   2.808   3.328   6.817
 4865SOL     OW15154   3.202   2.451   7.019
 4865SOL    HW115155   3.234   2.419   7.103
 4865SOL    HW215156   3.240   2.539   7.011
 4866SOL     OW15157   2.677   3.260   6.524
 4866SOL    HW115158   2.761   3.249   6.479
 4866SOL    HW215159   2.612   3.261   6.453
 4867SOL     OW15160   3.291   3.060   5.628
 4867SOL    HW115161   3.323   2.983   5.675
 4867SOL    HW215162   3.202   3.074   5.661
 4868SOL     OW15163   2.941   2.540   7.046
 4868SOL    HW115164   2.875   2.472   7.055
 4868SOL    HW215165   3.024   2.493   7.039
 4869SOL     OW15166   3.086   3.431   6.380
 4869SOL    HW115167   3.105   3.499   6.315
 4869SOL    HW215168   3.155   3.442   6.446
 4870SOL     OW15169   2.299   3.075   6.346
 4870SOL    HW115170   2.261   3.025   6.418
 4870SOL    HW215171   2.295   3.015   6.271
 4871SOL     OW15172   3.133   3.657   6.191
 4871SOL    HW115173   3.177   3.718   6.132
 4871SOL    HW215174   3.070   3.711   6.238
 4872SOL     OW15175   1.940   2.430   6.968
 4872SOL    HW115176   2.033   2.407   6.976
 4872SOL    HW215177   1.924   2.492   7.039
 4873SOL     OW15178   2.433   2.043   6.731
 4873SOL    HW115179   2.475   1.971   6.778
 4873SOL    HW215180   2.350   2.057   6.777
 4874SOL     OW15181   3.296   3.026   6.444
 4874SOL    HW115182   3.231   2.956   6.443
 4874SOL    HW215183   3.319   3.038   6.351
 4875SOL     OW15184   3.329   2.464   6.567
 4875SOL    HW115185   3.282   2.381   6.570
 4875SOL    HW215186   3.389   2.460   6.642
 4876SOL     OW15187   3.711   2.681   5.967
 4876SOL    HW115188   3.765   2.628   6.025
 4876SOL    HW215189   3.679   2.620   5.900
 4877SOL     OW15190   2.357   3.271   5.749
 4877SOL    HW115191   2.279   3.245   5.799
 4877SOL    HW215192   2.335   3.250   5.658
 4878SOL     OW15193   3.530   3.128   6.235
 4878SOL    HW115194   3.625   3.133   6.248
 4878SOL    HW215195   3.498   3.215   6.256
 4879SOL     OW15196   3.256   2.433   5.653
 4879SOL    HW115197   3.194   2.417   5.724
 4879SOL    HW215198   3.339   2.397   5.684
 4880SOL     OW15199   3.616   3.098   7.163
 4880SOL    HW115200   3.703   3.059   7.160
 4880SOL    HW215201   3.630   3.188   7.193
 4881SOL     OW15202   2.923   3.217   6.923
 4881SOL    HW115203   2.848   3.185   6.973
 4881SOL    HW215204   2.999   3.174   6.962
 4882SOL     OW15205   3.467   3.487   7.237
 4882SOL    HW115206   3.465   3.521   7.147
 4882SOL    HW215207   3.551   3.441   7.243
 4883SOL     OW15208   2.990   3.066   6.695
 4883SOL    HW115209   2.929   3.102   6.759
 4883SOL    HW215210   2.952   3.091   6.610
 4884SOL     OW15211   3.493   2.962   6.665
 4884SOL    HW115212   3.488   3.024   6.737
 4884SOL    HW215213   3.412   2.976   6.616
 4885SOL     OW15214   2.782   1.963   6.988
 4885SOL    HW115215   2.802   1.940   6.898
 4885SOL    HW215216   2.863   1.999   7.023
 4886SOL     OW15217   2.846   2.976   7.308
 4886SOL    HW115218   2.753   2.991   7.327
 4886SOL    HW215219   2.846   2.899   7.251
 4887SOL     OW15220   2.293   2.678   6.847
 4887SOL    HW115221   2.361   2.690   6.914
 4887SOL    HW215222   2.239   2.606   6.881
 4888SOL     OW15223   3.130   2.240   6.860
 4888SOL    HW115224   3.162   2.318   6.905
 4888SOL    HW215225   3.043   2.264   6.829
 4889SOL     OW15226   1.929   3.434   6.936
 4889SOL    HW115227   1.897   3.508   6.884
 4889SOL    HW215228   2.025   3.442   6.931
 4890SOL     OW15229   2.495   2.396   6.434
 4890SOL    HW115230   2.443   2.448   6.373
 4890SOL    HW215231   2.481   2.438   6.519
 4891SOL     OW15232   3.110   3.209   5.976
 4891SOL    HW115233   3.165   3.282   6.006
 4891SOL    HW215234   3.023   3.230   6.009
 4892SOL     OW15235   3.138   3.318   6.731
 4892SOL    HW115236   3.193   3.319   6.810
 4892SOL    HW215237   3.084   3.239   6.741
 4893SOL     OW15238   3.445   2.485   6.066
 4893SOL    HW115239   3.403   2.547   6.127
 4893SOL    HW215240   3.487   2.541   6.001
 4894SOL     OW15241   2.210   3.387   6.903
 4894SOL    HW115242   2.196   3.343   6.819
 4894SOL    HW215243   2.304   3.399   6.909
 4895SOL     OW15244   2.277   2.614   7.185
 4895SOL    HW115245   2.341   2.661   7.132
 4895SOL    HW215246   2.319   2.530   7.204
 4896SOL     OW15247   3.459   2.639   7.265
 4896SOL    HW115248   3.373   2.680   7.257
 4896SOL    HW215249   3.512   2.681   7.197
 4897SOL     OW15250   2.858   1.979   7.342
 4897SOL    HW115251   2.910   2.052   7.308
 4897SOL    HW215252   2.907   1.901   7.316
 4898SOL     OW15253   2.359   1.908   7.332
 4898SOL    HW115254   2.321   1.851   7.265
 4898SOL    HW215255   2.295   1.979   7.342
 4899SOL     OW15256   2.439   2.735   6.617
 4899SOL    HW115257   2.486   2.819   6.614
 4899SOL    HW215258   2.392   2.737   6.700
 4900SOL     OW15259   3.220   2.721   6.617
 4900SOL    HW115260   3.136   2.714   6.572
 4900SOL    HW215261   3.256   2.633   6.615
 4901SOL     OW15262   3.089   2.391   5.859
 4901SOL    HW115263   3.089   2.310   5.910
 4901SOL    HW215264   3.029   2.448   5.906
 4902SOL     OW15265   1.920   3.173   6.857
 4902SOL    HW115266   1.943   3.119   6.933
 4902SOL    HW215267   1.918   3.263   6.891
 4903SOL     OW15268   2.593   2.505   6.674
 4903SOL    HW115269   2.645   2.478   6.598
 4903SOL    HW215270   2.559   2.591   6.651
 4904SOL     OW15271   3.595   2.821   7.437
 4904SOL    HW115272   3.547   2.766   7.375
 4904SOL    HW215273   3.535   2.832   7.510
 4905SOL     OW15274   3.476   2.233   5.956
 4905SOL    HW115275   3.504   2.171   6.022
 4905SOL    HW215276   3.454   2.312   6.005
 4906SOL     OW15277   2.927   2.630   6.560
 4906SOL    HW115278   2.901   2.650   6.650
 4906SOL    HW215279   2.887   2.545   6.542
 4907SOL     OW15280   2.844   3.428   7.300
 4907SOL    HW115281   2.829   3.473   7.217
 4907SOL    HW215282   2.887   3.346   7.276
 4908SOL     OW15283   3.718   3.372   7.192
 4908SOL    HW115284   3.734   3.397   7.101
 4908SOL    HW215285   3.799   3.393   7.238
 4909SOL     OW15286   2.217   2.781   7.394
 4909SOL    HW115287   2.301   2.796   7.439
 4909SOL    HW215288   2.238   2.721   7.323
 4910SOL     OW15289   3.395   2.135   5.713
 4910SOL    HW115290   3.329   2.070   5.739
 4910SOL    HW215291   3.425   2.172   5.796
 4911SOL     OW15292   3.161   2.690   5.622
 4911SOL    HW115293   3.196   2.601   5.621
 4911SOL    HW215294   3.188   2.727   5.537
 4912SOL     OW15295   2.925   3.197   6.435
 4912SOL    HW115296   2.930   3.122   6.375
 4912SOL    HW215297   2.990   3.259   6.403
 4913SOL     OW15298   2.169   2.630   6.596
 4913SOL    HW115299   2.251   2.677   6.581
 4913SOL    HW215300   2.194   2.538   6.598
 4914SOL     OW15301   2.996   2.243   7.264
 4914SOL    HW115302   2.951   2.296   7.330
 4914SOL    HW215303   3.085   2.278   7.261
 4915SOL     OW15304   3.023   2.067   7.056
 4915SOL    HW115305   3.015   2.130   7.128
 4915SOL    HW215306   3.062   2.117   6.985
 4916SOL     OW15307   1.860   3.176   5.785
 4916SOL    HW115308   1.776   3.204   5.749
 4916SOL    HW215309   1.857   3.080   5.783
 4917SOL     OW15310   1.952   3.651   6.522
 4917SOL    HW115311   1.922   3.571   6.479
 4917SOL    HW215312   2.042   3.662   6.491
 4918SOL     OW15313   2.361   3.436   6.494
 4918SOL    HW115314   2.428   3.500   6.518
 4918SOL    HW215315   2.407   3.373   6.438
 4919SOL     OW15316   2.847   2.658   6.817
 4919SOL    HW115317   2.900   2.630   6.892
 4919SOL    HW215318   2.761   2.618   6.832
 4920SOL     OW15319   1.900   2.397   6.704
 4920SOL    HW115320   1.981   2.360   6.671
 4920SOL    HW215321   1.918   2.416   6.796
 4921SOL     OW15322   3.237   2.804   7.245
 4921SOL    HW115323   3.258   2.897   7.246
 4921SOL    HW215324   3.236   2.780   7.152
 4922SOL     OW15325   3.505   2.463   6.776
 4922SOL    HW115326   3.494   2.402   6.849
 4922SOL    HW215327   3.592   2.442   6.741
 4923SOL     OW15328   2.110   3.415   7.317
 4923SOL    HW115329   2.084   3.478   7.384
 4923SOL    HW215330   2.107   3.330   7.361
 4924SOL     OW15331   2.792   3.541   7.052
 4924SOL    HW115332   2.766   3.510   6.965
 4924SOL    HW215333   2.792   3.636   7.045
 4925SOL     OW15334   2.011   3.001   7.058
 4925SOL    HW115335   2.014   2.948   7.138
 4925SOL    HW215336   2.026   2.939   6.987
 4926SOL     OW15337   3.191   2.911   6.811
 4926SOL    HW115338   3.215   2.848   6.742
 4926SOL    HW215339   3.119   2.961   6.773
 4927SOL     OW15340   3.177   2.715   5.893
 4927SOL    HW115341   3.092   2.717   5.936
 4927SOL    HW215342   3.157   2.703   5.800
 4928SOL     OW15343   3.630   3.609   6.734
 4928SOL    HW115344   3.690   3.635   6.664
 4928SOL    HW215345   3.606   3.519   6.714
 4929SOL     OW15346   3.104   3.595   6.703
 4929SOL    HW115347   3.185   3.613   6.656
 4929SOL    HW215348   3.106   3.501   6.720
 4930SOL     OW15349   1.933   3.115   6.590
 4930SOL    HW115350   1.943   3.134   6.683
 4930SOL    HW215351   1.851   3.066   6.585
 4931SOL     OW15352   2.540   3.526   7.310
 4931SOL    HW115353   2.488   3.606   7.308
 4931SOL    HW215354   2.602   3.535   7.238
 4932SOL     OW15355   3.581   2.004   6.099
 4932SOL    HW115356   3.654   1.991   6.039
 4932SOL    HW215357   3.565   1.918   6.138
 4933SOL     OW15358   3.252   3.430   6.069
 4933SOL    HW115359   3.312   3.460   6.001
 4933SOL    HW215360   3.205   3.509   6.096
 4934SOL     OW15361   1.997   3.658   7.429
 4934SOL    HW115362   1.946   3.594   7.478
 4934SOL    HW215363   2.046   3.707   7.496
 4935SOL     OW15364   3.131   2.792   6.259
 4935SOL    HW115365   3.192   2.718   6.261
 4935SOL    HW215366   3.175   2.857   6.205
 4936SOL     OW15367   2.681   3.133   7.018
 4936SOL    HW115368   2.655   3.172   7.101
 4936SOL    HW215369   2.610   3.156   6.958
 4937SOL     OW15370   2.534   3.478   5.741
 4937SOL    HW115371   2.543   3.489   5.647
 4937SOL    HW215372   2.482   3.399   5.751
 4938SOL     OW15373   3.495   3.588   6.978
 4938SOL    HW115374   3.542   3.596   6.895
 4938SOL    HW215375   3.481   3.679   7.007
 4939SOL     OW15376   3.701   2.035   6.554
 4939SOL    HW115377   3.731   1.949   6.524
 4939SOL    HW215378   3.615   2.046   6.514
 4940SOL     OW15379   3.067   3.471   5.617
 4940SOL    HW115380   3.060   3.380   5.645
 4940SOL    HW215381   3.003   3.480   5.546
 4941SOL     OW15382   2.687   2.868   6.956
 4941SOL    HW115383   2.730   2.865   6.871
 4941SOL    HW215384   2.688   2.961   6.980
 4942SOL     OW15385   2.804   2.807   5.881
 4942SOL    HW115386   2.851   2.837   5.803
 4942SOL    HW215387   2.809   2.711   5.877
 4943SOL     OW15388   3.357   3.487   5.628
 4943SOL    HW115389   3.262   3.482   5.617
 4943SOL    HW215390   3.392   3.492   5.539
 4944SOL     OW15391   2.232   3.162   7.077
 4944SOL    HW115392   2.217   3.241   7.024
 4944SOL    HW215393   2.155   3.108   7.061
 4945SOL     OW15394   3.474   3.145   6.867
 4945SOL    HW115395   3.533   3.138   6.942
 4945SOL    HW215396   3.413   3.216   6.891
 4946SOL     OW15397   2.906   2.959   6.295
 4946SOL    HW115398   2.841   2.897   6.330
 4946SOL    HW215399   2.977   2.903   6.264
 4947SOL     OW15400   2.461   3.352   6.067
 4947SOL    HW115401   2.505   3.304   5.997
 4947SOL    HW215402   2.397   3.407   6.022
 4948SOL     OW15403   3.581   2.254   6.966
 4948SOL    HW115404   3.653   2.317   6.964
 4948SOL    HW215405   3.611   2.182   6.910
 4949SOL     OW15406   2.116   3.212   5.866
 4949SOL    HW115407   2.021   3.213   5.851
 4949SOL    HW215408   2.126   3.245   5.955
 4950SOL     OW15409   1.974   2.881   7.306
 4950SOL    HW115410   1.897   2.857   7.358
 4950SOL    HW215411   2.048   2.844   7.354
 4951SOL     OW15412   2.540   2.053   7.079
 4951SOL    HW115413   2.626   2.030   7.044
 4951SOL    HW215414   2.558   2.087   7.167
 4952SOL     OW15415   3.294   2.720   6.988
 4952SOL    HW115416   3.246   2.779   6.930
 4952SOL    HW215417   3.384   2.723   6.955
 4953SOL     OW15418   3.041   3.208   5.703
 4953SOL    HW115419   2.956   3.164   5.705
 4953SOL    HW215420   3.072   3.203   5.794
 4954SOL     OW15421   2.488   2.694   7.026
 4954SOL    HW115422   2.541   2.772   7.008
 4954SOL    HW215423   2.551   2.623   7.029
 4955SOL     OW15424   3.347   3.636   6.561
 4955SOL    HW115425   3.374   3.693   6.489
 4955SOL    HW215426   3.428   3.620   6.610
 4956SOL     OW15427   2.583   2.428   7.291
 4956SOL    HW115428   2.617   2.493   7.352
 4956SOL    HW215429   2.618   2.345   7.322
 4957SOL     OW15430   3.330   3.066   7.219
 4957SOL    HW115431   3.319   3.078   7.313
 4957SOL    HW215432   3.424   3.077   7.205
 4958SOL     OW15433   2.245   3.602   7.149
 4958SOL    HW115434   2.158   3.641   7.137
 4958SOL    HW215435   2.227   3.517   7.191
 4959SOL     OW15436   3.534   2.744   6.842
 4959SOL    HW115437   3.525   2.659   6.799
 4959SOL    HW215438   3.525   2.807   6.771
 4960SOL     OW15439   3.103   2.186   6.037
 4960SOL    HW115440   3.154   2.106   6.023
 4960SOL    HW215441   3.126   2.214   6.126
 4961SOL     OW15442   3.628   2.221   7.235
 4961SOL    HW115443   3.610   2.235   7.142
 4961SOL    HW215444   3.556   2.165   7.265
 4962SOL     OW15445   3.605   2.795   7.099
 4962SOL    HW115446   3.608   2.890   7.111
 4962SOL    HW215447   3.590   2.784   7.005
 4963SOL     OW15448   2.718   3.237   5.615
 4963SOL    HW115449   2.687   3.269   5.700
 4963SOL    HW215450   2.748   3.316   5.569
 4964SOL     OW15451   2.520   3.656   6.534
 4964SOL    HW115452   2.500   3.747   6.510
 4964SOL    HW215453   2.616   3.651   6.526
 4965SOL     OW15454   2.966   2.876   5.675
 4965SOL    HW115455   2.921   2.900   5.594
 4965SOL    HW215456   3.023   2.803   5.650
 4966SOL     OW15457   3.719   3.419   6.432
 4966SOL    HW115458   3.642   3.407   6.375
 4966SOL    HW215459   3.711   3.350   6.497
 4967SOL     OW15460   2.086   3.167   7.441
 4967SOL    HW115461   2.018   3.105   7.413
 4967SOL    HW215462   2.068   3.180   7.535
 4968SOL     OW15463   1.950   3.123   6.257
 4968SOL    HW115464   1.955   3.088   6.346
 4968SOL    HW215465   2.020   3.080   6.210
 4969SOL     OW15466   2.541   3.262   7.211
 4969SOL    HW115467   2.462   3.219   7.242
 4969SOL    HW215468   2.536   3.350   7.248
 4970SOL     OW15469   3.676   2.047   6.824
 4970SOL    HW115470   3.686   1.954   6.840
 4970SOL    HW215471   3.685   2.057   6.729
 4971SOL     OW15472   3.563   3.354   6.687
 4971SOL    HW115473   3.482   3.327   6.643
 4971SOL    HW215474   3.579   3.285   6.752
 4972SOL     OW15475   2.691   3.443   6.266
 4972SOL    HW115476   2.681   3.484   6.179
 4972SOL    HW215477   2.614   3.387   6.275
 4973SOL     OW15478   3.298   2.083   6.709
 4973SOL    HW115479   3.324   2.004   6.757
 4973SOL    HW215480   3.245   2.132   6.772
 4974SOL     OW15481   2.870   1.886   6.744
 4974SOL    HW115482   2.806   1.827   6.703
 4974SOL    HW215483   2.954   1.842   6.732
 4975SOL     OW15484   2.633   3.200   5.903
 4975SOL    HW115485   2.610   3.109   5.886
 4975SOL    HW215486   2.720   3.196   5.943
 4976SOL     OW15487   2.482   3.421   6.869
 4976SOL    HW115488   2.485   3.502   6.921
 4976SOL    HW215489   2.569   3.413   6.831
 4977SOL     OW15490   3.216   1.916   5.750
 4977SOL    HW115491   3.240   1.862   5.675
 4977SOL    HW215492   3.130   1.883   5.778
 4978SOL     OW15493   3.449   2.069   6.462
 4978SOL    HW115494   3.386   2.086   6.532
 4978SOL    HW215495   3.448   2.148   6.409
 4979SOL     OW15496   2.742   3.511   5.931
 4979SOL    HW115497   2.671   3.494   5.869
 4979SOL    HW215498   2.713   3.588   5.980
 4980SOL     OW15499   2.069   2.523   7.562
 4980SOL    HW115500   1.988   2.496   7.604
 4980SOL    HW215501   2.079   2.463   7.488
 4981SOL     OW15502   1.867   2.246   8.080
 4981SOL    HW115503   1.787   2.265   8.128
 4981SOL    HW215504   1.850   2.160   8.040
 4982SOL     OW15505   2.428   3.144   8.620
 4982SOL    HW115506   2.341   3.147   8.582
 4982SOL    HW215507   2.443   3.232   8.654
 4983SOL     OW15508   3.419   3.373   8.153
 4983SOL    HW115509   3.375   3.356   8.236
 4983SOL    HW215510   3.348   3.379   8.089
 4984SOL     OW15511   2.991   2.561   8.152
 4984SOL    HW115512   3.041   2.641   8.137
 4984SOL    HW215513   2.946   2.575   8.235
 4985SOL     OW15514   3.627   2.469   7.678
 4985SOL    HW115515   3.607   2.460   7.585
 4985SOL    HW215516   3.591   2.390   7.718
 4986SOL     OW15517   2.621   3.006   8.485
 4986SOL    HW115518   2.550   3.040   8.541
 4986SOL    HW215519   2.655   3.084   8.440
 4987SOL     OW15520   2.721   2.645   9.269
 4987SOL    HW115521   2.713   2.716   9.332
 4987SOL    HW215522   2.747   2.687   9.187
 4988SOL     OW15523   2.547   2.867   8.099
 4988SOL    HW115524   2.612   2.854   8.168
 4988SOL    HW215525   2.478   2.919   8.140
 4989SOL     OW15526   2.569   3.014   9.256
 4989SOL    HW115527   2.617   3.093   9.281
 4989SOL    HW215528   2.485   3.046   9.223
 4990SOL     OW15529   2.193   3.291   8.516
 4990SOL    HW115530   2.121   3.255   8.465
 4990SOL    HW215531   2.244   3.341   8.453
 4991SOL     OW15532   3.324   3.360   8.798
 4991SOL    HW115533   3.367   3.445   8.808
 4991SOL    HW215534   3.270   3.350   8.877
 4992SOL     OW15535   3.475   2.312   8.187
 4992SOL    HW115536   3.399   2.338   8.135
 4992SOL    HW215537   3.496   2.389   8.240
 4993SOL     OW15538   2.082   3.575   7.923
 4993SOL    HW115539   2.106   3.652   7.975
 4993SOL    HW215540   2.151   3.568   7.857
 4994SOL     OW15541   2.997   3.203   9.139
 4994SOL    HW115542   3.037   3.199   9.226
 4994SOL    HW215543   2.945   3.123   9.134
 4995SOL     OW15544   2.092   3.301   7.982
 4995SOL    HW115545   2.075   3.395   7.988
 4995SOL    HW215546   2.030   3.262   8.043
 4996SOL     OW15547   2.116   2.954   8.338
 4996SOL    HW115548   2.112   2.867   8.380
 4996SOL    HW215549   2.057   3.008   8.390
 4997SOL     OW15550   2.478   3.652   8.880
 4997SOL    HW115551   2.394   3.635   8.924
 4997SOL    HW215552   2.500   3.742   8.904
 4998SOL     OW15553   2.453   2.840   7.577
 4998SOL    HW115554   2.494   2.895   7.511
 4998SOL    HW215555   2.492   2.867   7.659
 4999SOL     OW15556   3.458   1.983   8.918
 4999SOL    HW115557   3.455   2.062   8.864
 4999SOL    HW215558   3.447   2.014   9.008
 5000SOL     OW15559   1.970   2.506   8.007
 5000SOL    HW115560   1.945   2.417   8.031
 5000SOL    HW215561   1.967   2.555   8.089
 5001SOL     OW15562   3.703   3.623   7.785
 5001SOL    HW115563   3.762   3.594   7.855
 5001SOL    HW215564   3.730   3.713   7.767
 5002SOL     OW15565   1.892   3.459   7.572
 5002SOL    HW115566   1.874   3.366   7.591
 5002SOL    HW215567   1.867   3.505   7.652
 5003SOL     OW15568   3.551   2.781   8.085
 5003SOL    HW115569   3.637   2.742   8.068
 5003SOL    HW215570   3.532   2.831   8.006
 5004SOL     OW15571   3.507   2.970   7.878
 5004SOL    HW115572   3.592   2.979   7.835
 5004SOL    HW215573   3.512   3.030   7.952
 5005SOL     OW15574   1.984   2.596   9.030
 5005SOL    HW115575   2.071   2.614   9.067
 5005SOL    HW215576   1.936   2.678   9.042
 5006SOL     OW15577   2.474   3.244   8.183
 5006SOL    HW115578   2.428   3.161   8.192
 5006SOL    HW215579   2.458   3.271   8.093
 5007SOL     OW15580   3.152   3.101   8.872
 5007SOL    HW115581   3.185   3.033   8.813
 5007SOL    HW215582   3.208   3.093   8.950
 5008SOL     OW15583   2.674   1.861   7.953
 5008SOL    HW115584   2.715   1.946   7.937
 5008SOL    HW215585   2.581   1.881   7.963
 5009SOL     OW15586   2.054   2.832   8.716
 5009SOL    HW115587   2.137   2.789   8.697
 5009SOL    HW215588   1.987   2.775   8.677
 5010SOL     OW15589   3.394   2.853   7.644
 5010SOL    HW115590   3.324   2.795   7.674
 5010SOL    HW215591   3.433   2.887   7.725
 5011SOL     OW15592   3.047   3.665   9.068
 5011SOL    HW115593   3.062   3.723   8.993
 5011SOL    HW215594   3.062   3.577   9.034
 5012SOL     OW15595   3.327   3.282   8.401
 5012SOL    HW115596   3.259   3.296   8.467
 5012SOL    HW215597   3.316   3.191   8.374
 5013SOL     OW15598   3.524   3.594   8.026
 5013SOL    HW115599   3.500   3.567   7.937
 5013SOL    HW215600   3.497   3.521   8.081
 5014SOL     OW15601   2.465   2.586   7.711
 5014SOL    HW115602   2.473   2.660   7.651
 5014SOL    HW215603   2.385   2.603   7.761
 5015SOL     OW15604   3.142   2.209   8.380
 5015SOL    HW115605   3.053   2.176   8.388
 5015SOL    HW215606   3.192   2.157   8.443
 5016SOL     OW15607   3.444   3.530   7.757
 5016SOL    HW115608   3.532   3.565   7.751
 5016SOL    HW215609   3.419   3.512   7.666
 5017SOL     OW15610   2.653   2.470   8.895
 5017SOL    HW115611   2.635   2.459   8.988
 5017SOL    HW215612   2.604   2.400   8.853
 5018SOL     OW15613   3.256   2.335   9.126
 5018SOL    HW115614   3.256   2.380   9.211
 5018SOL    HW215615   3.319   2.264   9.135
 5019SOL     OW15616   2.819   2.750   9.028
 5019SOL    HW115617   2.874   2.680   8.994
 5019SOL    HW215618   2.773   2.784   8.952
 5020SOL     OW15619   2.861   2.270   8.687
 5020SOL    HW115620   2.782   2.310   8.725
 5020SOL    HW215621   2.830   2.230   8.605
 5021SOL     OW15622   2.911   2.561   7.874
 5021SOL    HW115623   2.925   2.555   7.969
 5021SOL    HW215624   2.829   2.514   7.860
 5022SOL     OW15625   1.951   2.682   8.223
 5022SOL    HW115626   2.033   2.677   8.272
 5022SOL    HW215627   1.907   2.759   8.258
 5023SOL     OW15628   1.990   3.700   9.023
 5023SOL    HW115629   1.988   3.681   9.117
 5023SOL    HW215630   1.898   3.706   8.998
 5024SOL     OW15631   2.749   2.207   7.643
 5024SOL    HW115632   2.793   2.269   7.584
 5024SOL    HW215633   2.765   2.121   7.604
 5025SOL     OW15634   3.573   2.440   9.276
 5025SOL    HW115635   3.536   2.516   9.231
 5025SOL    HW215636   3.596   2.379   9.206
 5026SOL     OW15637   3.236   3.004   7.990
 5026SOL    HW115638   3.315   2.990   7.938
 5026SOL    HW215639   3.185   3.067   7.939
 5027SOL     OW15640   2.871   3.308   7.922
 5027SOL    HW115641   2.830   3.379   7.873
 5027SOL    HW215642   2.857   3.331   8.014
 5028SOL     OW15643   2.216   3.668   8.306
 5028SOL    HW115644   2.260   3.584   8.315
 5028SOL    HW215645   2.285   3.733   8.322
 5029SOL     OW15646   3.659   2.923   8.315
 5029SOL    HW115647   3.602   2.906   8.240
 5029SOL    HW215648   3.600   2.927   8.390
 5030SOL     OW15649   3.090   3.402   8.960
 5030SOL    HW115650   3.076   3.329   9.020
 5030SOL    HW215651   3.030   3.385   8.888
 5031SOL     OW15652   2.189   2.807   7.700
 5031SOL    HW115653   2.265   2.831   7.648
 5031SOL    HW215654   2.149   2.734   7.653
 5032SOL     OW15655   3.337   2.600   8.176
 5032SOL    HW115656   3.326   2.555   8.259
 5032SOL    HW215657   3.414   2.656   8.189
 5033SOL     OW15658   2.326   3.125   9.185
 5033SOL    HW115659   2.298   3.130   9.094
 5033SOL    HW215660   2.245   3.124   9.236
 5034SOL     OW15661   2.982   3.639   7.680
 5034SOL    HW115662   2.911   3.595   7.727
 5034SOL    HW215663   3.004   3.580   7.608
 5035SOL     OW15664   1.966   2.104   8.951
 5035SOL    HW115665   1.989   2.194   8.928
 5035SOL    HW215666   2.037   2.076   9.010
 5036SOL     OW15667   3.492   3.241   7.535
 5036SOL    HW115668   3.451   3.326   7.520
 5036SOL    HW215669   3.422   3.177   7.516
 5037SOL     OW15670   2.329   3.601   7.769
 5037SOL    HW115671   2.369   3.657   7.836
 5037SOL    HW215672   2.402   3.574   7.714
 5038SOL     OW15673   3.263   1.970   7.878
 5038SOL    HW115674   3.251   1.945   7.786
 5038SOL    HW215675   3.358   1.977   7.889
 5039SOL     OW15676   2.116   3.654   8.681
 5039SOL    HW115677   2.168   3.589   8.729
 5039SOL    HW215678   2.105   3.616   8.594
 5040SOL     OW15679   2.800   3.560   8.349
 5040SOL    HW115680   2.877   3.507   8.368
 5040SOL    HW215681   2.754   3.511   8.280
 5041SOL     OW15682   3.400   2.088   9.173
 5041SOL    HW115683   3.408   2.109   9.266
 5041SOL    HW215684   3.332   2.021   9.170
 5042SOL     OW15685   2.486   1.992   7.555
 5042SOL    HW115686   2.560   1.936   7.577
 5042SOL    HW215687   2.447   1.952   7.477
 5043SOL     OW15688   2.630   2.141   9.200
 5043SOL    HW115689   2.701   2.077   9.208
 5043SOL    HW215690   2.575   2.125   9.277
 5044SOL     OW15691   2.739   3.383   8.642
 5044SOL    HW115692   2.724   3.347   8.554
 5044SOL    HW215693   2.808   3.328   8.678
 5045SOL     OW15694   3.202   2.451   8.881
 5045SOL    HW115695   3.234   2.419   8.965
 5045SOL    HW215696   3.240   2.539   8.873
 5046SOL     OW15697   2.675   3.260   8.384
 5046SOL    HW115698   2.759   3.250   8.339
 5046SOL    HW215699   2.609   3.258   8.313
 5047SOL     OW15700   2.786   2.368   8.352
 5047SOL    HW115701   2.763   2.361   8.260
 5047SOL    HW215702   2.823   2.282   8.374
 5048SOL     OW15703   2.409   1.931   7.948
 5048SOL    HW115704   2.329   1.928   8.001
 5048SOL    HW215705   2.406   2.017   7.906
 5049SOL     OW15706   3.291   3.059   7.489
 5049SOL    HW115707   3.322   2.984   7.539
 5049SOL    HW215708   3.205   3.079   7.526
 5050SOL     OW15709   2.156   1.895   7.627
 5050SOL    HW115710   2.219   1.961   7.597
 5050SOL    HW215711   2.210   1.829   7.671
 5051SOL     OW15712   2.797   2.106   7.911
 5051SOL    HW115713   2.771   2.149   7.829
 5051SOL    HW215714   2.892   2.117   7.914
 5052SOL     OW15715   2.941   2.541   8.906
 5052SOL    HW115716   2.874   2.473   8.915
 5052SOL    HW215717   3.023   2.492   8.900
 5053SOL     OW15718   3.087   3.431   8.241
 5053SOL    HW115719   3.105   3.499   8.177
 5053SOL    HW215720   3.155   3.443   8.308
 5054SOL     OW15721   2.329   3.010   8.184
 5054SOL    HW115722   2.258   2.992   8.246
 5054SOL    HW215723   2.291   2.992   8.098
 5055SOL     OW15724   3.133   3.657   8.053
 5055SOL    HW115725   3.177   3.718   7.994
 5055SOL    HW215726   3.069   3.711   8.100
 5056SOL     OW15727   2.888   2.408   7.467
 5056SOL    HW115728   2.847   2.492   7.448
 5056SOL    HW215729   2.952   2.428   7.536
 5057SOL     OW15730   1.949   2.413   8.833
 5057SOL    HW115731   2.043   2.398   8.836
 5057SOL    HW215732   1.933   2.480   8.900
 5058SOL     OW15733   2.727   2.318   8.089
 5058SOL    HW115734   2.687   2.377   8.025
 5058SOL    HW215735   2.750   2.241   8.037
 5059SOL     OW15736   2.875   1.914   8.202
 5059SOL    HW115737   2.818   1.904   8.126
 5059SOL    HW215738   2.856   1.838   8.257
 5060SOL     OW15739   3.297   3.026   8.306
 5060SOL    HW115740   3.231   2.957   8.304
 5060SOL    HW215741   3.320   3.040   8.214
 5061SOL     OW15742   3.330   2.464   8.429
 5061SOL    HW115743   3.283   2.381   8.434
 5061SOL    HW215744   3.391   2.461   8.503
 5062SOL     OW15745   3.710   2.681   7.829
 5062SOL    HW115746   3.765   2.629   7.887
 5062SOL    HW215747   3.680   2.619   7.762
 5063SOL     OW15748   2.354   3.276   7.609
 5063SOL    HW115749   2.279   3.246   7.661
 5063SOL    HW215750   2.333   3.250   7.520
 5064SOL     OW15751   3.530   3.127   8.097
 5064SOL    HW115752   3.625   3.133   8.109
 5064SOL    HW215753   3.498   3.215   8.118
 5065SOL     OW15754   3.255   2.434   7.519
 5065SOL    HW115755   3.196   2.415   7.592
 5065SOL    HW215756   3.340   2.401   7.549
 5066SOL     OW15757   3.616   3.098   9.025
 5066SOL    HW115758   3.703   3.059   9.022
 5066SOL    HW215759   3.630   3.187   9.055
 5067SOL     OW15760   2.923   3.216   8.783
 5067SOL    HW115761   2.848   3.185   8.834
 5067SOL    HW215762   2.999   3.174   8.824
 5068SOL     OW15763   3.467   3.487   9.099
 5068SOL    HW115764   3.465   3.521   9.009
 5068SOL    HW215765   3.551   3.441   9.105
 5069SOL     OW15766   2.987   3.064   8.555
 5069SOL    HW115767   2.929   3.102   8.621
 5069SOL    HW215768   2.952   3.094   8.471
 5070SOL     OW15769   3.493   2.962   8.527
 5070SOL    HW115770   3.489   3.024   8.599
 5070SOL    HW215771   3.412   2.977   8.478
 5071SOL     OW15772   2.785   1.958   8.848
 5071SOL    HW115773   2.805   1.940   8.756
 5071SOL    HW215774   2.865   1.998   8.883
 5072SOL     OW15775   2.846   2.976   9.170
 5072SOL    HW115776   2.753   2.991   9.188
 5072SOL    HW215777   2.846   2.899   9.113
 5073SOL     OW15778   2.570   2.922   7.820
 5073SOL    HW115779   2.556   2.907   7.914
 5073SOL    HW215780   2.646   2.868   7.798
 5074SOL     OW15781   2.279   2.674   8.699
 5074SOL    HW115782   2.351   2.691   8.761
 5074SOL    HW215783   2.243   2.590   8.726
 5075SOL     OW15784   3.132   2.240   8.720
 5075SOL    HW115785   3.162   2.318   8.767
 5075SOL    HW215786   3.042   2.261   8.695
 5076SOL     OW15787   1.930   3.434   8.797
 5076SOL    HW115788   1.897   3.507   8.745
 5076SOL    HW215789   2.025   3.442   8.793
 5077SOL     OW15790   2.218   2.966   7.938
 5077SOL    HW115791   2.220   3.044   7.882
 5077SOL    HW215792   2.214   2.893   7.877
 5078SOL     OW15793   3.110   3.210   7.837
 5078SOL    HW115794   3.165   3.282   7.868
 5078SOL    HW215795   3.023   3.230   7.871
 5079SOL     OW15796   3.139   3.317   8.594
 5079SOL    HW115797   3.193   3.319   8.672
 5079SOL    HW215798   3.084   3.240   8.605
 5080SOL     OW15799   3.445   2.488   7.924
 5080SOL    HW115800   3.401   2.544   7.988
 5080SOL    HW215801   3.490   2.549   7.866
 5081SOL     OW15802   2.210   3.386   8.766
 5081SOL    HW115803   2.196   3.344   8.681
 5081SOL    HW215804   2.305   3.399   8.772
 5082SOL     OW15805   2.277   2.625   9.052
 5082SOL    HW115806   2.340   2.666   8.993
 5082SOL    HW215807   2.322   2.546   9.083
 5083SOL     OW15808   3.459   2.639   9.127
 5083SOL    HW115809   3.373   2.680   9.119
 5083SOL    HW215810   3.512   2.681   9.059
 5084SOL     OW15811   2.858   1.979   9.204
 5084SOL    HW115812   2.909   2.053   9.171
 5084SOL    HW215813   2.907   1.902   9.179
 5085SOL     OW15814   2.364   1.900   9.193
 5085SOL    HW115815   2.325   1.843   9.126
 5085SOL    HW215816   2.302   1.972   9.203
 5086SOL     OW15817   2.437   2.736   8.474
 5086SOL    HW115818   2.479   2.822   8.474
 5086SOL    HW215819   2.387   2.734   8.556
 5087SOL     OW15820   3.223   2.721   8.481
 5087SOL    HW115821   3.141   2.714   8.433
 5087SOL    HW215822   3.260   2.633   8.479
 5088SOL     OW15823   3.069   2.391   7.717
 5088SOL    HW115824   3.077   2.312   7.772
 5088SOL    HW215825   3.027   2.455   7.774
 5089SOL     OW15826   1.910   3.172   8.725
 5089SOL    HW115827   1.942   3.120   8.798
 5089SOL    HW215828   1.916   3.263   8.756
 5090SOL     OW15829   2.612   2.513   8.532
 5090SOL    HW115830   2.649   2.465   8.457
 5090SOL    HW215831   2.554   2.578   8.492
 5091SOL     OW15832   3.595   2.821   9.299
 5091SOL    HW115833   3.547   2.766   9.237
 5091SOL    HW215834   3.535   2.832   9.372
 5092SOL     OW15835   2.166   1.933   8.075
 5092SOL    HW115836   2.141   2.021   8.103
 5092SOL    HW215837   2.164   1.881   8.155
 5093SOL     OW15838   3.475   2.234   7.817
 5093SOL    HW115839   3.502   2.171   7.884
 5093SOL    HW215840   3.452   2.312   7.867
 5094SOL     OW15841   2.891   2.621   8.410
 5094SOL    HW115842   2.889   2.641   8.503
 5094SOL    HW215843   2.855   2.532   8.404
 5095SOL     OW15844   2.844   3.428   9.162
 5095SOL    HW115845   2.829   3.473   9.079
 5095SOL    HW215846   2.887   3.346   9.138
 5096SOL     OW15847   3.718   3.372   9.054
 5096SOL    HW115848   3.735   3.397   8.963
 5096SOL    HW215849   3.799   3.393   9.100
 5097SOL     OW15850   2.216   2.784   9.261
 5097SOL    HW115851   2.301   2.798   9.304
 5097SOL    HW215852   2.236   2.727   9.187
 5098SOL     OW15853   3.393   2.136   7.575
 5098SOL    HW115854   3.329   2.070   7.602
 5098SOL    HW215855   3.425   2.172   7.658
 5099SOL     OW15856   3.157   2.689   7.481
 5099SOL    HW115857   3.199   2.604   7.484
 5099SOL    HW215858   3.187   2.728   7.399
 5100SOL     OW15859   2.926   3.197   8.300
 5100SOL    HW115860   2.929   3.124   8.238
 5100SOL    HW215861   2.990   3.260   8.266
 5101SOL     OW15862   2.175   2.675   8.392
 5101SOL    HW115863   2.267   2.699   8.389
 5101SOL    HW215864   2.173   2.593   8.440
 5102SOL     OW15865   2.996   2.242   9.126
 5102SOL    HW115866   2.951   2.296   9.191
 5102SOL    HW215867   3.085   2.277   9.123
 5103SOL     OW15868   3.024   2.067   8.918
 5103SOL    HW115869   3.014   2.129   8.990
 5103SOL    HW215870   3.061   2.119   8.846
 5104SOL     OW15871   1.867   3.184   7.643
 5104SOL    HW115872   1.780   3.198   7.605
 5104SOL    HW215873   1.865   3.094   7.676
 5105SOL     OW15874   1.952   3.652   8.384
 5105SOL    HW115875   1.921   3.571   8.342
 5105SOL    HW215876   2.042   3.662   8.353
 5106SOL     OW15877   2.361   3.435   8.354
 5106SOL    HW115878   2.430   3.497   8.377
 5106SOL    HW215879   2.406   3.369   8.300
 5107SOL     OW15880   2.851   2.661   8.676
 5107SOL    HW115881   2.897   2.630   8.754
 5107SOL    HW215882   2.766   2.617   8.679
 5108SOL     OW15883   1.903   2.423   8.564
 5108SOL    HW115884   1.956   2.355   8.521
 5108SOL    HW215885   1.921   2.412   8.657
 5109SOL     OW15886   3.237   2.804   9.107
 5109SOL    HW115887   3.258   2.897   9.108
 5109SOL    HW215888   3.236   2.780   9.015
 5110SOL     OW15889   2.677   2.429   7.804
 5110SOL    HW115890   2.678   2.355   7.743
 5110SOL    HW215891   2.602   2.482   7.775
 5111SOL     OW15892   3.505   2.463   8.638
 5111SOL    HW115893   3.494   2.403   8.711
 5111SOL    HW215894   3.592   2.442   8.603
 5112SOL     OW15895   2.110   3.415   9.179
 5112SOL    HW115896   2.084   3.478   9.246
 5112SOL    HW215897   2.107   3.330   9.224
 5113SOL     OW15898   2.792   3.541   8.914
 5113SOL    HW115899   2.766   3.510   8.827
 5113SOL    HW215900   2.792   3.636   8.908
 5114SOL     OW15901   2.011   3.002   8.920
 5114SOL    HW115902   2.014   2.947   8.999
 5114SOL    HW215903   2.027   2.941   8.848
 5115SOL     OW15904   3.192   2.911   8.673
 5115SOL    HW115905   3.216   2.849   8.605
 5115SOL    HW215906   3.118   2.960   8.636
 5116SOL     OW15907   3.171   2.718   7.755
 5116SOL    HW115908   3.093   2.689   7.804
 5116SOL    HW215909   3.148   2.705   7.663
 5117SOL     OW15910   3.630   3.609   8.596
 5117SOL    HW115911   3.690   3.635   8.526
 5117SOL    HW215912   3.606   3.519   8.576
 5118SOL     OW15913   3.104   3.595   8.565
 5118SOL    HW115914   3.185   3.613   8.518
 5118SOL    HW215915   3.106   3.501   8.582
 5119SOL     OW15916   1.945   3.128   8.462
 5119SOL    HW115917   1.932   3.139   8.556
 5119SOL    HW215918   1.871   3.075   8.433
 5120SOL     OW15919   2.540   3.526   9.172
 5120SOL    HW115920   2.488   3.606   9.170
 5120SOL    HW215921   2.602   3.535   9.100
 5121SOL     OW15922   3.580   2.004   7.960
 5121SOL    HW115923   3.654   1.990   7.901
 5121SOL    HW215924   3.565   1.918   8.000
 5122SOL     OW15925   3.252   3.430   7.930
 5122SOL    HW115926   3.313   3.460   7.863
 5122SOL    HW215927   3.205   3.508   7.958
 5123SOL     OW15928   1.997   3.658   9.291
 5123SOL    HW115929   1.946   3.594   9.340
 5123SOL    HW215930   2.046   3.707   9.358
 5124SOL     OW15931   3.139   2.786   8.119
 5124SOL    HW115932   3.212   2.724   8.123
 5124SOL    HW215933   3.173   2.859   8.067
 5125SOL     OW15934   2.681   3.134   8.879
 5125SOL    HW115935   2.655   3.173   8.963
 5125SOL    HW215936   2.610   3.156   8.820
 5126SOL     OW15937   2.534   3.478   7.603
 5126SOL    HW115938   2.543   3.489   7.509
 5126SOL    HW215939   2.481   3.400   7.614
 5127SOL     OW15940   3.495   3.588   8.840
 5127SOL    HW115941   3.542   3.596   8.757
 5127SOL    HW215942   3.481   3.679   8.869
 5128SOL     OW15943   3.701   2.035   8.416
 5128SOL    HW115944   3.731   1.949   8.386
 5128SOL    HW215945   3.615   2.046   8.376
 5129SOL     OW15946   3.067   3.470   7.479
 5129SOL    HW115947   3.059   3.379   7.506
 5129SOL    HW215948   3.003   3.480   7.409
 5130SOL     OW15949   2.685   2.868   8.820
 5130SOL    HW115950   2.730   2.862   8.736
 5130SOL    HW215951   2.688   2.961   8.842
 5131SOL     OW15952   2.777   2.773   7.737
 5131SOL    HW115953   2.840   2.804   7.671
 5131SOL    HW215954   2.823   2.701   7.781
 5132SOL     OW15955   3.357   3.486   7.490
 5132SOL    HW115956   3.262   3.483   7.479
 5132SOL    HW215957   3.392   3.492   7.401
 5133SOL     OW15958   2.232   3.162   8.939
 5133SOL    HW115959   2.218   3.241   8.886
 5133SOL    HW215960   2.155   3.108   8.923
 5134SOL     OW15961   3.474   3.145   8.729
 5134SOL    HW115962   3.533   3.138   8.804
 5134SOL    HW215963   3.413   3.215   8.753
 5135SOL     OW15964   2.910   2.967   8.153
 5135SOL    HW115965   2.840   2.915   8.193
 5135SOL    HW215966   2.971   2.902   8.118
 5136SOL     OW15967   2.881   2.101   8.413
 5136SOL    HW115968   2.877   2.052   8.331
 5136SOL    HW215969   2.878   2.034   8.481
 5137SOL     OW15970   2.463   3.351   7.931
 5137SOL    HW115971   2.503   3.300   7.860
 5137SOL    HW215972   2.397   3.404   7.887
 5138SOL     OW15973   3.581   2.254   8.828
 5138SOL    HW115974   3.653   2.317   8.826
 5138SOL    HW215975   3.611   2.182   8.772
 5139SOL     OW15976   2.120   3.209   7.735
 5139SOL    HW115977   2.027   3.207   7.713
 5139SOL    HW215978   2.123   3.246   7.823
 5140SOL     OW15979   1.974   2.879   9.167
 5140SOL    HW115980   1.897   2.857   9.220
 5140SOL    HW215981   2.048   2.844   9.217
 5141SOL     OW15982   2.546   2.051   8.941
 5141SOL    HW115983   2.632   2.026   8.906
 5141SOL    HW215984   2.564   2.083   9.029
 5142SOL     OW15985   1.922   2.205   7.497
 5142SOL    HW115986   1.843   2.178   7.450
 5142SOL    HW215987   1.973   2.254   7.432
 5143SOL     OW15988   3.294   2.720   8.850
 5143SOL    HW115989   3.246   2.780   8.792
 5143SOL    HW215990   3.384   2.723   8.817
 5144SOL     OW15991   1.936   2.020   7.761
 5144SOL    HW115992   1.914   2.097   7.708
 5144SOL    HW215993   2.016   1.986   7.722
 5145SOL     OW15994   3.042   3.204   7.565
 5145SOL    HW115995   2.951   3.174   7.569
 5145SOL    HW215996   3.071   3.203   7.656
 5146SOL     OW15997   2.482   2.693   8.878
 5146SOL    HW115998   2.534   2.772   8.865
 5146SOL    HW215999   2.546   2.622   8.884
 5147SOL     OW16000   3.347   3.636   8.422
 5147SOL    HW116001   3.374   3.694   8.351
 5147SOL    HW216002   3.428   3.621   8.472
 5148SOL     OW16003   2.582   2.427   9.149
 5148SOL    HW116004   2.614   2.490   9.214
 5148SOL    HW216005   2.610   2.342   9.182
 5149SOL     OW16006   3.330   3.066   9.081
 5149SOL    HW116007   3.318   3.078   9.175
 5149SOL    HW216008   3.424   3.077   9.067
 5150SOL     OW16009   2.245   3.602   9.011
 5150SOL    HW116010   2.158   3.641   8.999
 5150SOL    HW216011   2.227   3.517   9.053
 5151SOL     OW16012   3.534   2.744   8.704
 5151SOL    HW116013   3.525   2.659   8.661
 5151SOL    HW216014   3.525   2.807   8.632
 5152SOL     OW16015   3.080   2.181   7.906
 5152SOL    HW116016   3.144   2.111   7.896
 5152SOL    HW216017   3.109   2.230   7.983
 5153SOL     OW16018   2.457   2.601   8.092
 5153SOL    HW116019   2.499   2.688   8.091
 5153SOL    HW216020   2.370   2.617   8.056
 5154SOL     OW16021   3.628   2.221   9.096
 5154SOL    HW116022   3.609   2.235   9.004
 5154SOL    HW216023   3.556   2.165   9.127
 5155SOL     OW16024   3.605   2.796   8.961
 5155SOL    HW116025   3.608   2.890   8.973
 5155SOL    HW216026   3.590   2.784   8.867
 5156SOL     OW16027   2.724   3.230   7.477
 5156SOL    HW116028   2.685   3.256   7.561
 5156SOL    HW216029   2.744   3.313   7.434
 5157SOL     OW16030   2.521   3.656   8.396
 5157SOL    HW116031   2.499   3.746   8.372
 5157SOL    HW216032   2.616   3.651   8.388
 5158SOL     OW16033   2.728   2.827   8.304
 5158SOL    HW116034   2.777   2.755   8.345
 5158SOL    HW216035   2.696   2.879   8.378
 5159SOL     OW16036   2.942   2.849   7.536
 5159SOL    HW116037   2.921   2.900   7.458
 5159SOL    HW216038   3.018   2.797   7.511
 5160SOL     OW16039   3.719   3.419   8.293
 5160SOL    HW116040   3.642   3.407   8.237
 5160SOL    HW216041   3.711   3.350   8.359
 5161SOL     OW16042   2.086   3.167   9.304
 5161SOL    HW116043   2.018   3.106   9.275
 5161SOL    HW216044   2.068   3.180   9.397
 5162SOL     OW16045   1.945   3.099   8.112
 5162SOL    HW116046   1.944   3.048   8.193
 5162SOL    HW216047   2.013   3.059   8.058
 5163SOL     OW16048   2.541   3.262   9.073
 5163SOL    HW116049   2.462   3.219   9.104
 5163SOL    HW216050   2.536   3.350   9.110
 5164SOL     OW16051   3.676   2.048   8.686
 5164SOL    HW116052   3.686   1.954   8.702
 5164SOL    HW216053   3.685   2.057   8.591
 5165SOL     OW16054   3.563   3.353   8.549
 5165SOL    HW116055   3.482   3.327   8.505
 5165SOL    HW216056   3.579   3.285   8.614
 5166SOL     OW16057   2.687   3.440   8.128
 5166SOL    HW116058   2.681   3.484   8.043
 5166SOL    HW216059   2.608   3.385   8.132
 5167SOL     OW16060   3.294   2.085   8.566
 5167SOL    HW116061   3.324   2.008   8.614
 5167SOL    HW216062   3.242   2.134   8.629
 5168SOL     OW16063   2.870   1.883   8.593
 5168SOL    HW116064   2.816   1.812   8.558
 5168SOL    HW216065   2.959   1.846   8.596
 5169SOL     OW16066   2.633   3.194   7.758
 5169SOL    HW116067   2.599   3.105   7.765
 5169SOL    HW216068   2.716   3.192   7.806
 5170SOL     OW16069   2.482   3.421   8.732
 5170SOL    HW116070   2.485   3.502   8.783
 5170SOL    HW216071   2.569   3.413   8.693
 5171SOL     OW16072   3.214   1.916   7.612
 5171SOL    HW116073   3.240   1.856   7.541
 5171SOL    HW216074   3.127   1.884   7.639
 5172SOL     OW16075   3.159   2.321   8.131
 5172SOL    HW116076   3.105   2.400   8.140
 5172SOL    HW216077   3.157   2.281   8.218
 5173SOL     OW16078   3.450   2.068   8.325
 5173SOL    HW116079   3.385   2.085   8.393
 5173SOL    HW216080   3.449   2.147   8.270
 5174SOL     OW16081   1.905   2.935   7.754
 5174SOL    HW116082   1.999   2.925   7.737
 5174SOL    HW216083   1.875   2.847   7.776
 5175SOL     OW16084   2.743   3.511   7.793
 5175SOL    HW116085   2.672   3.493   7.731
 5175SOL    HW216086   2.713   3.588   7.842
 5176SOL     OW16087   2.077   2.525   9.427
 5176SOL    HW116088   1.994   2.496   9.466
 5176SOL    HW216089   2.085   2.472   9.348
 5177SOL     OW16090   1.864   2.241   9.946
 5177SOL    HW116091   1.784   2.264   9.993
 5177SOL    HW216092   1.843   2.159   9.901
 5178SOL     OW16093   2.428   3.144  10.482
 5178SOL    HW116094   2.341   3.147  10.444
 5178SOL    HW216095   2.442   3.232  10.517
 5179SOL     OW16096   3.419   3.373  10.015
 5179SOL    HW116097   3.375   3.356  10.098
 5179SOL    HW216098   3.348   3.379   9.951
 5180SOL     OW16099   2.992   2.561  10.013
 5180SOL    HW116100   3.042   2.642  10.001
 5180SOL    HW216101   2.945   2.573  10.095
 5181SOL     OW16102   3.627   2.469   9.540
 5181SOL    HW116103   3.607   2.460   9.447
 5181SOL    HW216104   3.591   2.390   9.581
 5182SOL     OW16105   2.621   3.006  10.348
 5182SOL    HW116106   2.551   3.040  10.403
 5182SOL    HW216107   2.655   3.084  10.302
 5183SOL     OW16108   2.710   2.646   0.019
 5183SOL    HW116109   2.717   2.703   0.096
 5183SOL    HW216110   2.746   2.699  11.048
 5184SOL     OW16111   2.549   2.869   9.959
 5184SOL    HW116112   2.613   2.855  10.029
 5184SOL    HW216113   2.479   2.921  10.001
 5185SOL     OW16114   2.194   3.290  10.377
 5185SOL    HW116115   2.121   3.255  10.327
 5185SOL    HW216116   2.244   3.341  10.314
 5186SOL     OW16117   3.325   3.362  10.656
 5186SOL    HW116118   3.375   3.443  10.667
 5186SOL    HW216119   3.282   3.349  10.741
 5187SOL     OW16120   3.475   2.312  10.049
 5187SOL    HW116121   3.399   2.338   9.997
 5187SOL    HW216122   3.496   2.389  10.101
 5188SOL     OW16123   2.082   3.575   9.785
 5188SOL    HW116124   2.106   3.652   9.837
 5188SOL    HW216125   2.151   3.569   9.719
 5189SOL     OW16126   2.092   3.301   9.844
 5189SOL    HW116127   2.075   3.395   9.850
 5189SOL    HW216128   2.029   3.262   9.905
 5190SOL     OW16129   2.117   2.954  10.200
 5190SOL    HW116130   2.111   2.868  10.241
 5190SOL    HW216131   2.057   3.009  10.252
 5191SOL     OW16132   2.477   3.652  10.741
 5191SOL    HW116133   2.396   3.633  10.788
 5191SOL    HW216134   2.499   3.741  10.765
 5192SOL     OW16135   2.453   2.840   9.438
 5192SOL    HW116136   2.495   2.895   9.372
 5192SOL    HW216137   2.492   2.867   9.521
 5193SOL     OW16138   3.451   1.978  10.780
 5193SOL    HW116139   3.458   2.057  10.727
 5193SOL    HW216140   3.453   2.009  10.871
 5194SOL     OW16141   1.968   2.507   9.869
 5194SOL    HW116142   1.944   2.418   9.894
 5194SOL    HW216143   1.967   2.556   9.951
 5195SOL     OW16144   3.703   3.623   9.647
 5195SOL    HW116145   3.762   3.594   9.717
 5195SOL    HW216146   3.730   3.713   9.629
 5196SOL     OW16147   1.892   3.459   9.434
 5196SOL    HW116148   1.874   3.366   9.454
 5196SOL    HW216149   1.867   3.505   9.514
 5197SOL     OW16150   3.551   2.781   9.947
 5197SOL    HW116151   3.637   2.742   9.931
 5197SOL    HW216152   3.532   2.831   9.868
 5198SOL     OW16153   3.507   2.970   9.740
 5198SOL    HW116154   3.592   2.979   9.697
 5198SOL    HW216155   3.512   3.030   9.814
 5199SOL     OW16156   1.981   2.598  10.889
 5199SOL    HW116157   2.065   2.606  10.935
 5199SOL    HW216158   1.937   2.681  10.905
 5200SOL     OW16159   2.474   3.244  10.045
 5200SOL    HW116160   2.428   3.161  10.054
 5200SOL    HW216161   2.458   3.271   9.955
 5201SOL     OW16162   3.159   3.100  10.750
 5201SOL    HW116163   3.183   3.038  10.681
 5201SOL    HW216164   3.214   3.075  10.824
 5202SOL     OW16165   2.672   1.860   9.814
 5202SOL    HW116166   2.714   1.945   9.799
 5202SOL    HW216167   2.580   1.881   9.826
 5203SOL     OW16168   2.055   2.832  10.574
 5203SOL    HW116169   2.137   2.786  10.557
 5203SOL    HW216170   1.987   2.773  10.543
 5204SOL     OW16171   3.394   2.853   9.506
 5204SOL    HW116172   3.324   2.795   9.536
 5204SOL    HW216173   3.433   2.887   9.587
 5205SOL     OW16174   3.056   3.667  10.926
 5205SOL    HW116175   3.060   3.728  10.853
 5205SOL    HW216176   3.064   3.580  10.885
 5206SOL     OW16177   3.328   3.282  10.263
 5206SOL    HW116178   3.259   3.296  10.328
 5206SOL    HW216179   3.316   3.191  10.235
 5207SOL     OW16180   3.524   3.594   9.888
 5207SOL    HW116181   3.500   3.567   9.799
 5207SOL    HW216182   3.498   3.521   9.943
 5208SOL     OW16183   2.462   2.587   9.578
 5208SOL    HW116184   2.477   2.655   9.513
 5208SOL    HW216185   2.381   2.613   9.622
 5209SOL     OW16186   3.143   2.210  10.243
 5209SOL    HW116187   3.053   2.177  10.249
 5209SOL    HW216188   3.192   2.157  10.305
 5210SOL     OW16189   3.444   3.530   9.619
 5210SOL    HW116190   3.532   3.565   9.613
 5210SOL    HW216191   3.419   3.512   9.528
 5211SOL     OW16192   2.653   2.466  10.760
 5211SOL    HW116193   2.631   2.457  10.853
 5211SOL    HW216194   2.597   2.404  10.716
 5212SOL     OW16195   2.827   2.758  10.898
 5212SOL    HW116196   2.877   2.686  10.858
 5212SOL    HW216197   2.778   2.796  10.825
 5213SOL     OW16198   2.859   2.269  10.551
 5213SOL    HW116199   2.780   2.311  10.585
 5213SOL    HW216200   2.832   2.231  10.467
 5214SOL     OW16201   2.910   2.560   9.737
 5214SOL    HW116202   2.926   2.554   9.831
 5214SOL    HW216203   2.828   2.513   9.723
 5215SOL     OW16204   1.951   2.683  10.084
 5215SOL    HW116205   2.033   2.677  10.134
 5215SOL    HW216206   1.907   2.759  10.120
 5216SOL     OW16207   1.991   3.699  10.893
 5216SOL    HW116208   1.972   3.668  10.982
 5216SOL    HW216209   1.905   3.708  10.852
 5217SOL     OW16210   2.748   2.209   9.505
 5217SOL    HW116211   2.793   2.269   9.445
 5217SOL    HW216212   2.763   2.122   9.467
 5218SOL     OW16213   3.236   3.005   9.852
 5218SOL    HW116214   3.315   2.990   9.799
 5218SOL    HW216215   3.185   3.067   9.801
 5219SOL     OW16216   2.871   3.308   9.784
 5219SOL    HW116217   2.830   3.379   9.735
 5219SOL    HW216218   2.857   3.331   9.876
 5220SOL     OW16219   2.216   3.668  10.167
 5220SOL    HW116220   2.260   3.583  10.177
 5220SOL    HW216221   2.284   3.733  10.184
 5221SOL     OW16222   3.659   2.923  10.177
 5221SOL    HW116223   3.602   2.906  10.102
 5221SOL    HW216224   3.600   2.927  10.252
 5222SOL     OW16225   3.087   3.403  10.825
 5222SOL    HW116226   3.097   3.316  10.864
 5222SOL    HW216227   3.030   3.389  10.749
 5223SOL     OW16228   2.190   2.805   9.564
 5223SOL    HW116229   2.265   2.831   9.510
 5223SOL    HW216230   2.149   2.734   9.515
 5224SOL     OW16231   3.337   2.600  10.038
 5224SOL    HW116232   3.325   2.555  10.121
 5224SOL    HW216233   3.414   2.656  10.051
 5225SOL     OW16234   2.314   3.131  11.052
 5225SOL    HW116235   2.287   3.138  10.961
 5225SOL    HW216236   2.250   3.073  11.093
 5226SOL     OW16237   2.982   3.639   9.542
 5226SOL    HW116238   2.911   3.595   9.589
 5226SOL    HW216239   3.004   3.580   9.470
 5227SOL     OW16240   3.492   3.241   9.397
 5227SOL    HW116241   3.451   3.326   9.382
 5227SOL    HW216242   3.422   3.177   9.378
 5228SOL     OW16243   2.329   3.600   9.631
 5228SOL    HW116244   2.368   3.657   9.698
 5228SOL    HW216245   2.402   3.574   9.576
 5229SOL     OW16246   3.263   1.970   9.740
 5229SOL    HW116247   3.251   1.944   9.648
 5229SOL    HW216248   3.358   1.977   9.751
 5230SOL     OW16249   2.115   3.654  10.544
 5230SOL    HW116250   2.168   3.592  10.594
 5230SOL    HW216251   2.106   3.614  10.457
 5231SOL     OW16252   2.800   3.560  10.211
 5231SOL    HW116253   2.878   3.507  10.230
 5231SOL    HW216254   2.754   3.511  10.142
 5232SOL     OW16255   2.486   1.994   9.415
 5232SOL    HW116256   2.560   1.939   9.441
 5232SOL    HW216257   2.449   1.950   9.339
 5233SOL     OW16258   2.630   2.132  11.046
 5233SOL    HW116259   2.698   2.076  11.083
 5233SOL    HW216260   2.573   2.153   0.020
 5234SOL     OW16261   2.738   3.382  10.503
 5234SOL    HW116262   2.724   3.347  10.415
 5234SOL    HW216263   2.809   3.329  10.539
 5235SOL     OW16264   3.204   2.452  10.752
 5235SOL    HW116265   3.254   2.429  10.831
 5235SOL    HW216266   3.234   2.540  10.730
 5236SOL     OW16267   2.675   3.260  10.245
 5236SOL    HW116268   2.759   3.250  10.200
 5236SOL    HW216269   2.609   3.258  10.176
 5237SOL     OW16270   2.798   2.369  10.220
 5237SOL    HW116271   2.761   2.367  10.132
 5237SOL    HW216272   2.827   2.280  10.236
 5238SOL     OW16273   2.406   1.929   9.810
 5238SOL    HW116274   2.328   1.920   9.864
 5238SOL    HW216275   2.399   2.016   9.771
 5239SOL     OW16276   3.291   3.059   9.351
 5239SOL    HW116277   3.322   2.984   9.401
 5239SOL    HW216278   3.205   3.079   9.388
 5240SOL     OW16279   2.160   1.905   9.495
 5240SOL    HW116280   2.225   1.973   9.478
 5240SOL    HW216281   2.210   1.834   9.535
 5241SOL     OW16282   2.797   2.104   9.771
 5241SOL    HW116283   2.771   2.149   9.691
 5241SOL    HW216284   2.891   2.116   9.777
 5242SOL     OW16285   2.939   2.544  10.770
 5242SOL    HW116286   2.871   2.477  10.776
 5242SOL    HW216287   3.021   2.494  10.765
 5243SOL     OW16288   3.086   3.432  10.104
 5243SOL    HW116289   3.105   3.499  10.038
 5243SOL    HW216290   3.155   3.443  10.170
 5244SOL     OW16291   2.329   3.009  10.047
 5244SOL    HW116292   2.258   2.992  10.108
 5244SOL    HW216293   2.291   2.992   9.961
 5245SOL     OW16294   3.133   3.657   9.915
 5245SOL    HW116295   3.177   3.718   9.856
 5245SOL    HW216296   3.069   3.711   9.962
 5246SOL     OW16297   2.888   2.408   9.329
 5246SOL    HW116298   2.847   2.491   9.309
 5246SOL    HW216299   2.952   2.428   9.398
 5247SOL     OW16300   1.942   2.423  10.691
 5247SOL    HW116301   2.035   2.401  10.700
 5247SOL    HW216302   1.926   2.487  10.760
 5248SOL     OW16303   2.441   2.005  10.435
 5248SOL    HW116304   2.465   1.973  10.522
 5248SOL    HW216305   2.363   2.059  10.451
 5249SOL     OW16306   2.743   2.321   9.948
 5249SOL    HW116307   2.686   2.375   9.893
 5249SOL    HW216308   2.754   2.239   9.899
 5250SOL     OW16309   2.877   1.913  10.064
 5250SOL    HW116310   2.817   1.906   9.989
 5250SOL    HW216311   2.856   1.838  10.119
 5251SOL     OW16312   3.297   3.026  10.168
 5251SOL    HW116313   3.231   2.957  10.166
 5251SOL    HW216314   3.320   3.040  10.076
 5252SOL     OW16315   3.329   2.465  10.291
 5252SOL    HW116316   3.283   2.381  10.294
 5252SOL    HW216317   3.391   2.461  10.364
 5253SOL     OW16318   3.710   2.681   9.691
 5253SOL    HW116319   3.765   2.629   9.749
 5253SOL    HW216320   3.680   2.619   9.624
 5254SOL     OW16321   2.354   3.276   9.471
 5254SOL    HW116322   2.279   3.246   9.523
 5254SOL    HW216323   2.333   3.250   9.382
 5255SOL     OW16324   3.530   3.127   9.959
 5255SOL    HW116325   3.625   3.132   9.972
 5255SOL    HW216326   3.498   3.215   9.980
 5256SOL     OW16327   3.255   2.434   9.381
 5256SOL    HW116328   3.196   2.415   9.454
 5256SOL    HW216329   3.340   2.400   9.411
 5257SOL     OW16330   3.622   3.091  10.874
 5257SOL    HW116331   3.713   3.061  10.879
 5257SOL    HW216332   3.624   3.178  10.915
 5258SOL     OW16333   2.927   3.215  10.650
 5258SOL    HW116334   2.849   3.183  10.695
 5258SOL    HW216335   3.000   3.168  10.690
 5259SOL     OW16336   2.987   3.065  10.418
 5259SOL    HW116337   2.925   3.102  10.480
 5259SOL    HW216338   2.955   3.093  10.332
 5260SOL     OW16339   3.493   2.962  10.389
 5260SOL    HW116340   3.490   3.024  10.462
 5260SOL    HW216341   3.412   2.978  10.340
 5261SOL     OW16342   2.783   1.959  10.710
 5261SOL    HW116343   2.804   1.941  10.618
 5261SOL    HW216344   2.862   2.001  10.745
 5262SOL     OW16345   2.570   2.922   9.682
 5262SOL    HW116346   2.557   2.909   9.776
 5262SOL    HW216347   2.646   2.868   9.660
 5263SOL     OW16348   2.280   2.669  10.561
 5263SOL    HW116349   2.351   2.690  10.622
 5263SOL    HW216350   2.237   2.593  10.600
 5264SOL     OW16351   3.132   2.240  10.586
 5264SOL    HW116352   3.162   2.320  10.630
 5264SOL    HW216353   3.043   2.261  10.556
 5265SOL     OW16354   1.930   3.436  10.657
 5265SOL    HW116355   1.898   3.510  10.605
 5265SOL    HW216356   2.025   3.443  10.654
 5266SOL     OW16357   2.218   2.966   9.800
 5266SOL    HW116358   2.220   3.044   9.745
 5266SOL    HW216359   2.213   2.893   9.738
 5267SOL     OW16360   2.514   2.428  10.147
 5267SOL    HW116361   2.486   2.486  10.076
 5267SOL    HW216362   2.475   2.466  10.225
 5268SOL     OW16363   3.110   3.210   9.699
 5268SOL    HW116364   3.165   3.282   9.730
 5268SOL    HW216365   3.023   3.230   9.733
 5269SOL     OW16366   3.137   3.318  10.454
 5269SOL    HW116367   3.194   3.322  10.531
 5269SOL    HW216368   3.085   3.239  10.466
 5270SOL     OW16369   3.445   2.488   9.786
 5270SOL    HW116370   3.401   2.544   9.850
 5270SOL    HW216371   3.490   2.549   9.728
 5271SOL     OW16372   2.209   3.384  10.628
 5271SOL    HW116373   2.197   3.342  10.542
 5271SOL    HW216374   2.304   3.399  10.633
 5272SOL     OW16375   2.279   2.600  10.905
 5272SOL    HW116376   2.342   2.648  10.850
 5272SOL    HW216377   2.325   2.521  10.931
 5273SOL     OW16378   3.452   2.625  10.972
 5273SOL    HW116379   3.375   2.681  10.964
 5273SOL    HW216380   3.522   2.675  10.928
 5274SOL     OW16381   2.440   2.731  10.337
 5274SOL    HW116382   2.477   2.820  10.332
 5274SOL    HW216383   2.388   2.731  10.418
 5275SOL     OW16384   3.222   2.722  10.346
 5275SOL    HW116385   3.141   2.715  10.295
 5275SOL    HW216386   3.260   2.635  10.343
 5276SOL     OW16387   3.069   2.391   9.580
 5276SOL    HW116388   3.077   2.313   9.633
 5276SOL    HW216389   3.027   2.455   9.637
 5277SOL     OW16390   1.912   3.173  10.586
 5277SOL    HW116391   1.939   3.120  10.661
 5277SOL    HW216392   1.915   3.263  10.618
 5278SOL     OW16393   2.612   2.513  10.401
 5278SOL    HW116394   2.650   2.467  10.326
 5278SOL    HW216395   2.568   2.589  10.362
 5279SOL     OW16396   2.161   1.906   9.938
 5279SOL    HW116397   2.121   1.990   9.960
 5279SOL    HW216398   2.169   1.861  10.023
 5280SOL     OW16399   3.475   2.234   9.679
 5280SOL    HW116400   3.502   2.171   9.746
 5280SOL    HW216401   3.452   2.312   9.729
 5281SOL     OW16402   2.890   2.623  10.271
 5281SOL    HW116403   2.889   2.641  10.365
 5281SOL    HW216404   2.859   2.533  10.264
 5282SOL     OW16405   2.836   3.434  11.004
 5282SOL    HW116406   2.822   3.483  10.924
 5282SOL    HW216407   2.869   3.349  10.975
 5283SOL     OW16408   3.721   3.360  10.912
 5283SOL    HW116409   3.735   3.394  10.824
 5283SOL    HW216410   3.789   3.402  10.965
 5284SOL     OW16411   2.224   2.790  11.090
 5284SOL    HW116412   2.308   2.795   0.036
 5284SOL    HW216413   2.235   2.717  11.029
 5285SOL     OW16414   3.393   2.136   9.437
 5285SOL    HW116415   3.329   2.070   9.464
 5285SOL    HW216416   3.425   2.172   9.520
 5286SOL     OW16417   3.156   2.689   9.343
 5286SOL    HW116418   3.199   2.604   9.347
 5286SOL    HW216419   3.187   2.728   9.261
 5287SOL     OW16420   2.927   3.196  10.162
 5287SOL    HW116421   2.930   3.123  10.100
 5287SOL    HW216422   2.990   3.260  10.128
 5288SOL     OW16423   2.174   2.677  10.254
 5288SOL    HW116424   2.267   2.699  10.251
 5288SOL    HW216425   2.169   2.596  10.304
 5289SOL     OW16426   3.019   2.072  10.782
 5289SOL    HW116427   3.032   2.130  10.857
 5289SOL    HW216428   3.057   2.120  10.708
 5290SOL     OW16429   1.867   3.184   9.505
 5290SOL    HW116430   1.780   3.198   9.467
 5290SOL    HW216431   1.865   3.095   9.538
 5291SOL     OW16432   1.951   3.652  10.246
 5291SOL    HW116433   1.921   3.571  10.203
 5291SOL    HW216434   2.042   3.662  10.215
 5292SOL     OW16435   2.361   3.435  10.215
 5292SOL    HW116436   2.430   3.497  10.239
 5292SOL    HW216437   2.406   3.369  10.162
 5293SOL     OW16438   2.850   2.661  10.538
 5293SOL    HW116439   2.897   2.633  10.617
 5293SOL    HW216440   2.766   2.616  10.543
 5294SOL     OW16441   1.906   2.418  10.422
 5294SOL    HW116442   1.961   2.348  10.386
 5294SOL    HW216443   1.922   2.415  10.516
 5295SOL     OW16444   2.675   2.429   9.665
 5295SOL    HW116445   2.680   2.356   9.603
 5295SOL    HW216446   2.601   2.482   9.634
 5296SOL     OW16447   3.505   2.463  10.498
 5296SOL    HW116448   3.495   2.403  10.573
 5296SOL    HW216449   3.592   2.444  10.463
 5297SOL     OW16450   2.118   3.426  11.055
 5297SOL    HW116451   2.066   3.467   0.023
 5297SOL    HW216452   2.114   3.332  11.075
 5298SOL     OW16453   2.803   3.544  10.761
 5298SOL    HW116454   2.764   3.514  10.679
 5298SOL    HW216455   2.791   3.639  10.760
 5299SOL     OW16456   2.017   3.000  10.781
 5299SOL    HW116457   2.011   2.943  10.858
 5299SOL    HW216458   2.029   2.939  10.708
 5300SOL     OW16459   3.190   2.916  10.539
 5300SOL    HW116460   3.217   2.851  10.474
 5300SOL    HW216461   3.117   2.962  10.497
 5301SOL     OW16462   3.170   2.718   9.617
 5301SOL    HW116463   3.093   2.688   9.666
 5301SOL    HW216464   3.148   2.705   9.525
 5302SOL     OW16465   3.631   3.610  10.460
 5302SOL    HW116466   3.690   3.635  10.389
 5302SOL    HW216467   3.606   3.519  10.440
 5303SOL     OW16468   3.104   3.595  10.427
 5303SOL    HW116469   3.185   3.614  10.381
 5303SOL    HW216470   3.106   3.501  10.444
 5304SOL     OW16471   1.945   3.128  10.323
 5304SOL    HW116472   1.934   3.139  10.417
 5304SOL    HW216473   1.870   3.075  10.296
 5305SOL     OW16474   3.580   2.004   9.823
 5305SOL    HW116475   3.654   1.990   9.763
 5305SOL    HW216476   3.565   1.918   9.862
 5306SOL     OW16477   3.252   3.430   9.792
 5306SOL    HW116478   3.313   3.460   9.725
 5306SOL    HW216479   3.205   3.508   9.820
 5307SOL     OW16480   3.139   2.787   9.982
 5307SOL    HW116481   3.212   2.725   9.986
 5307SOL    HW216482   3.173   2.860   9.930
 5308SOL     OW16483   2.684   3.134  10.739
 5308SOL    HW116484   2.655   3.168  10.824
 5308SOL    HW216485   2.613   3.156  10.679
 5309SOL     OW16486   2.534   3.478   9.465
 5309SOL    HW116487   2.543   3.489   9.371
 5309SOL    HW216488   2.481   3.400   9.476
 5310SOL     OW16489   3.490   3.581  10.700
 5310SOL    HW116490   3.542   3.595  10.621
 5310SOL    HW216491   3.476   3.669  10.736
 5311SOL     OW16492   3.701   2.035  10.278
 5311SOL    HW116493   3.731   1.949  10.248
 5311SOL    HW216494   3.615   2.046  10.238
 5312SOL     OW16495   3.067   3.470   9.341
 5312SOL    HW116496   3.059   3.379   9.368
 5312SOL    HW216497   3.003   3.480   9.271
 5313SOL     OW16498   2.686   2.868  10.684
 5313SOL    HW116499   2.730   2.861  10.600
 5313SOL    HW216500   2.689   2.961  10.705
 5314SOL     OW16501   2.777   2.772   9.599
 5314SOL    HW116502   2.839   2.804   9.534
 5314SOL    HW216503   2.823   2.701   9.644
 5315SOL     OW16504   3.357   3.486   9.352
 5315SOL    HW116505   3.262   3.483   9.341
 5315SOL    HW216506   3.392   3.492   9.263
 5316SOL     OW16507   2.231   3.164  10.804
 5316SOL    HW116508   2.217   3.241  10.747
 5316SOL    HW216509   2.156   3.108  10.786
 5317SOL     OW16510   3.474   3.145  10.593
 5317SOL    HW116511   3.531   3.135  10.669
 5317SOL    HW216512   3.417   3.218  10.615
 5318SOL     OW16513   2.909   2.967  10.015
 5318SOL    HW116514   2.840   2.915  10.055
 5318SOL    HW216515   2.971   2.902   9.981
 5319SOL     OW16516   2.884   2.101  10.276
 5319SOL    HW116517   2.877   2.054  10.193
 5319SOL    HW216518   2.876   2.033  10.343
 5320SOL     OW16519   2.463   3.351   9.793
 5320SOL    HW116520   2.503   3.300   9.722
 5320SOL    HW216521   2.397   3.405   9.749
 5321SOL     OW16522   3.578   2.256  10.688
 5321SOL    HW116523   3.650   2.318  10.688
 5321SOL    HW216524   3.609   2.184  10.632
 5322SOL     OW16525   2.120   3.208   9.597
 5322SOL    HW116526   2.027   3.207   9.575
 5322SOL    HW216527   2.123   3.246   9.685
 5323SOL     OW16528   1.973   2.872  11.021
 5323SOL    HW116529   1.904   2.853  11.084
 5323SOL    HW216530   2.053   2.843  11.065
 5324SOL     OW16531   2.541   2.051  10.799
 5324SOL    HW116532   2.626   2.028  10.761
 5324SOL    HW216533   2.563   2.090  10.884
 5325SOL     OW16534   1.900   2.194   9.349
 5325SOL    HW116535   1.821   2.164   9.304
 5325SOL    HW216536   1.928   2.271   9.301
 5326SOL     OW16537   3.293   2.711  10.710
 5326SOL    HW116538   3.245   2.778  10.661
 5326SOL    HW216539   3.384   2.721  10.682
 5327SOL     OW16540   1.934   2.020   9.625
 5327SOL    HW116541   1.912   2.097   9.573
 5327SOL    HW216542   2.019   1.991   9.592
 5328SOL     OW16543   3.042   3.204   9.427
 5328SOL    HW116544   2.951   3.174   9.430
 5328SOL    HW216545   3.071   3.203   9.518
 5329SOL     OW16546   2.482   2.694  10.740
 5329SOL    HW116547   2.536   2.772  10.727
 5329SOL    HW216548   2.546   2.622  10.747
 5330SOL     OW16549   3.347   3.636  10.284
 5330SOL    HW116550   3.374   3.693  10.213
 5330SOL    HW216551   3.427   3.620  10.334
 5331SOL     OW16552   2.578   2.427  11.017
 5331SOL    HW116553   2.609   2.500  11.071
 5331SOL    HW216554   2.632   2.353  11.044
 5332SOL     OW16555   2.247   3.594  10.869
 5332SOL    HW116556   2.166   3.646  10.864
 5332SOL    HW216557   2.223   3.519  10.924
 5333SOL     OW16558   3.534   2.745  10.567
 5333SOL    HW116559   3.525   2.659  10.524
 5333SOL    HW216560   3.526   2.808  10.495
 5334SOL     OW16561   3.081   2.182   9.767
 5334SOL    HW116562   3.145   2.111   9.758
 5334SOL    HW216563   3.109   2.230   9.845
 5335SOL     OW16564   2.444   2.613   9.964
 5335SOL    HW116565   2.490   2.696   9.953
 5335SOL    HW216566   2.366   2.621   9.908
 5336SOL     OW16567   3.618   2.184  10.950
 5336SOL    HW116568   3.598   2.220  10.863
 5336SOL    HW216569   3.536   2.194  10.999
 5337SOL     OW16570   3.610   2.797  10.825
 5337SOL    HW116571   3.605   2.892  10.838
 5337SOL    HW216572   3.593   2.785  10.732
 5338SOL     OW16573   2.724   3.230   9.339
 5338SOL    HW116574   2.685   3.257   9.423
 5338SOL    HW216575   2.744   3.313   9.295
 5339SOL     OW16576   2.521   3.656  10.258
 5339SOL    HW116577   2.499   3.746  10.234
 5339SOL    HW216578   2.616   3.652  10.250
 5340SOL     OW16579   2.727   2.826  10.166
 5340SOL    HW116580   2.777   2.755  10.206
 5340SOL    HW216581   2.697   2.878  10.241
 5341SOL     OW16582   2.941   2.849   9.398
 5341SOL    HW116583   2.921   2.900   9.320
 5341SOL    HW216584   3.018   2.797   9.373
 5342SOL     OW16585   3.719   3.419  10.155
 5342SOL    HW116586   3.642   3.407  10.100
 5342SOL    HW216587   3.712   3.350  10.222
 5343SOL     OW16588   1.945   3.099   9.974
 5343SOL    HW116589   1.944   3.048  10.055
 5343SOL    HW216590   2.013   3.058   9.921
 5344SOL     OW16591   2.539   3.255  10.934
 5344SOL    HW116592   2.466   3.206  10.970
 5344SOL    HW216593   2.514   3.347  10.943
 5345SOL     OW16594   3.674   2.047  10.549
 5345SOL    HW116595   3.684   1.953  10.563
 5345SOL    HW216596   3.684   2.058  10.454
 5346SOL     OW16597   3.563   3.354  10.411
 5346SOL    HW116598   3.483   3.326  10.368
 5346SOL    HW216599   3.581   3.286  10.476
 5347SOL     OW16600   2.687   3.440   9.990
 5347SOL    HW116601   2.682   3.484   9.905
 5347SOL    HW216602   2.608   3.386   9.993
 5348SOL     OW16603   3.294   2.084  10.428
 5348SOL    HW116604   3.324   2.007  10.476
 5348SOL    HW216605   3.242   2.134  10.492
 5349SOL     OW16606   2.870   1.882  10.457
 5349SOL    HW116607   2.816   1.814  10.416
 5349SOL    HW216608   2.958   1.845  10.458
 5350SOL     OW16609   2.633   3.194   9.620
 5350SOL    HW116610   2.599   3.105   9.627
 5350SOL    HW216611   2.716   3.192   9.668
 5351SOL     OW16612   2.481   3.420  10.595
 5351SOL    HW116613   2.483   3.502  10.644
 5351SOL    HW216614   2.568   3.414  10.555
 5352SOL     OW16615   3.214   1.916   9.474
 5352SOL    HW116616   3.239   1.856   9.403
 5352SOL    HW216617   3.128   1.884   9.501
 5353SOL     OW16618   3.160   2.322   9.993
 5353SOL    HW116619   3.104   2.399  10.001
 5353SOL    HW216620   3.157   2.282  10.080
 5354SOL     OW16621   3.450   2.068  10.187
 5354SOL    HW116622   3.384   2.085  10.254
 5354SOL    HW216623   3.449   2.147  10.132
 5355SOL     OW16624   1.905   2.935   9.615
 5355SOL    HW116625   1.998   2.926   9.599
 5355SOL    HW216626   1.875   2.847   9.638
 5356SOL     OW16627   2.743   3.511   9.655
 5356SOL    HW116628   2.672   3.493   9.593
 5356SOL    HW216629   2.713   3.588   9.704
 5357SOL     OW16630   2.068   4.295   0.090
 5357SOL    HW116631   2.036   4.352   0.160
 5357SOL    HW216632   2.082   4.354   0.016
 5358SOL     OW16633   2.086   4.001   0.990
 5358SOL    HW116634   2.114   3.969   1.076
 5358SOL    HW216635   1.996   3.969   0.981
 5359SOL     OW16636   1.868   4.102   0.643
 5359SOL    HW116637   1.784   4.128   0.681
 5359SOL    HW216638   1.848   4.025   0.590
 5360SOL     OW16639   3.600   4.333   0.228
 5360SOL    HW116640   3.607   4.305   0.137
 5360SOL    HW216641   3.591   4.251   0.278
 5361SOL     OW16642   2.591   0.267   0.682
 5361SOL    HW116643   2.589   0.205   0.755
 5361SOL    HW216644   2.499   0.284   0.663
 5362SOL     OW16645   2.308   4.119   1.488
 5362SOL    HW116646   2.385   4.062   1.495
 5362SOL    HW216647   2.234   4.060   1.502
 5363SOL     OW16648   3.477   4.173   0.739
 5363SOL    HW116649   3.405   4.200   0.682
 5363SOL    HW216650   3.487   4.245   0.801
 5364SOL     OW16651   3.459   3.844   1.470
 5364SOL    HW116652   3.455   3.923   1.416
 5364SOL    HW216653   3.447   3.876   1.560
 5365SOL     OW16654   1.952   4.365   0.561
 5365SOL    HW116655   1.934   4.275   0.588
 5365SOL    HW216656   1.997   4.405   0.636
 5366SOL     OW16657   1.982   4.472   1.584
 5366SOL    HW116658   2.053   4.486   1.647
 5366SOL    HW216659   1.949   0.060   1.566
 5367SOL     OW16660   2.674   3.724   0.504
 5367SOL    HW116661   2.713   3.810   0.491
 5367SOL    HW216662   2.581   3.741   0.516
 5368SOL     OW16663   2.192   3.976   1.805
 5368SOL    HW116664   2.237   4.059   1.822
 5368SOL    HW216665   2.103   3.989   1.838
 5369SOL     OW16666   3.140   4.070   0.932
 5369SOL    HW116667   3.051   4.036   0.941
 5369SOL    HW216668   3.192   4.019   0.995
 5370SOL     OW16669   2.685   4.310   1.452
 5370SOL    HW116670   2.643   4.315   1.537
 5370SOL    HW216671   2.620   4.268   1.395
 5371SOL     OW16672   3.258   4.199   1.677
 5371SOL    HW116673   3.257   4.242   1.762
 5371SOL    HW216674   3.318   4.125   1.687
 5372SOL     OW16675   2.857   4.147   1.235
 5372SOL    HW116676   2.783   4.167   1.292
 5372SOL    HW216677   2.821   4.088   1.168
 5373SOL     OW16678   2.921   4.403   0.424
 5373SOL    HW116679   2.921   4.449   0.508
 5373SOL    HW216680   2.829   4.384   0.406
 5374SOL     OW16681   2.745   4.072   0.208
 5374SOL    HW116682   2.793   4.129   0.147
 5374SOL    HW216683   2.760   3.984   0.175
 5375SOL     OW16684   3.568   4.298   1.828
 5375SOL    HW116685   3.576   4.387   1.795
 5375SOL    HW216686   3.591   4.242   1.753
 5376SOL     OW16687   2.412   3.908   0.891
 5376SOL    HW116688   2.413   3.934   0.983
 5376SOL    HW216689   2.411   3.990   0.843
 5377SOL     OW16690   3.348   4.460   0.736
 5377SOL    HW116691   3.328   4.407   0.813
 5377SOL    HW216692   3.390   0.039   0.771
 5378SOL     OW16693   2.060   4.006   1.501
 5378SOL    HW116694   1.976   4.052   1.493
 5378SOL    HW216695   2.046   3.944   1.573
 5379SOL     OW16696   3.264   3.831   0.429
 5379SOL    HW116697   3.254   3.808   0.337
 5379SOL    HW216698   3.358   3.840   0.442
 5380SOL     OW16699   2.219   4.381   0.409
 5380SOL    HW116700   2.259   4.309   0.458
 5380SOL    HW216701   2.149   4.412   0.467
 5381SOL     OW16702   3.400   3.951   1.725
 5381SOL    HW116703   3.407   3.972   1.818
 5381SOL    HW216704   3.333   3.883   1.722
 5382SOL     OW16705   2.476   3.831   0.124
 5382SOL    HW116706   2.567   3.802   0.121
 5382SOL    HW216707   2.443   3.818   0.035
 5383SOL     OW16708   2.630   4.001   1.753
 5383SOL    HW116709   2.703   3.938   1.760
 5383SOL    HW216710   2.578   3.986   1.831
 5384SOL     OW16711   3.208   4.311   1.428
 5384SOL    HW116712   3.230   4.274   1.514
 5384SOL    HW216713   3.244   4.399   1.430
 5385SOL     OW16714   2.784   4.236   0.900
 5385SOL    HW116715   2.762   4.220   0.808
 5385SOL    HW216716   2.824   4.155   0.930
 5386SOL     OW16717   2.410   3.787   0.507
 5386SOL    HW116718   2.328   3.787   0.556
 5386SOL    HW216719   2.405   3.865   0.452
 5387SOL     OW16720   2.149   3.770   0.198
 5387SOL    HW116721   2.191   3.825   0.132
 5387SOL    HW216722   2.216   3.707   0.223
 5388SOL     OW16723   2.799   3.969   0.466
 5388SOL    HW116724   2.770   4.011   0.384
 5388SOL    HW216725   2.894   3.982   0.467
 5389SOL     OW16726   2.940   4.396   1.511
 5389SOL    HW116727   2.856   4.364   1.478
 5389SOL    HW216728   3.005   4.351   1.456
 5390SOL     OW16729   2.871   4.266   0.039
 5390SOL    HW116730   2.878   4.330  11.068
 5390SOL    HW216731   2.953   4.277   0.088
 5391SOL     OW16732   1.936   4.280   1.391
 5391SOL    HW116733   2.027   4.272   1.363
 5391SOL    HW216734   1.936   4.353   1.453
 5392SOL     OW16735   2.423   3.950   1.162
 5392SOL    HW116736   2.462   3.871   1.200
 5392SOL    HW216737   2.332   3.949   1.193
 5393SOL     OW16738   2.732   4.188   0.639
 5393SOL    HW116739   2.697   4.248   0.574
 5393SOL    HW216740   2.749   4.107   0.591
 5394SOL     OW16741   2.876   3.777   0.754
 5394SOL    HW116742   2.817   3.768   0.679
 5394SOL    HW216743   2.856   3.701   0.808
 5395SOL     OW16744   3.338   4.313   0.971
 5395SOL    HW116745   3.285   4.236   0.990
 5395SOL    HW216746   3.391   4.326   1.050
 5396SOL     OW16747   3.261   4.295   0.073
 5396SOL    HW116748   3.197   4.277   0.142
 5396SOL    HW216749   3.332   4.232   0.089
 5397SOL     OW16750   2.390   3.990   0.327
 5397SOL    HW116751   2.415   3.929   0.257
 5397SOL    HW216752   2.374   4.073   0.282
 5398SOL     OW16753   2.780   3.822   1.399
 5398SOL    HW116754   2.803   3.802   1.308
 5398SOL    HW216755   2.859   3.861   1.436
 5399SOL     OW16756   2.294   0.008   1.266
 5399SOL    HW116757   2.360   0.009   1.336
 5399SOL    HW216758   2.252   4.422   1.273
 5400SOL     OW16759   3.129   4.101   1.272
 5400SOL    HW116760   3.162   4.178   1.318
 5400SOL    HW216761   3.040   4.125   1.246
 5401SOL     OW16762   2.417   4.257   0.865
 5401SOL    HW116763   2.438   4.304   0.785
 5401SOL    HW216764   2.480   4.289   0.929
 5402SOL     OW16765   3.443   4.343   0.478
 5402SOL    HW116766   3.398   4.406   0.534
 5402SOL    HW216767   3.488   4.397   0.412
 5403SOL     OW16768   2.859   3.841   1.758
 5403SOL    HW116769   2.909   3.915   1.725
 5403SOL    HW216770   2.908   3.764   1.730
 5404SOL     OW16771   2.361   3.768   1.746
 5404SOL    HW116772   2.320   3.713   1.679
 5404SOL    HW216773   2.299   3.840   1.758
 5405SOL     OW16774   3.075   4.252   0.268
 5405SOL    HW116775   3.084   4.173   0.320
 5405SOL    HW216776   3.025   4.313   0.323
 5406SOL     OW16777   2.163   3.925   1.245
 5406SOL    HW116778   2.126   3.958   1.327
 5406SOL    HW216779   2.143   3.831   1.246
 5407SOL     OW16780   2.592   4.360   1.049
 5407SOL    HW116781   2.666   4.326   0.998
 5407SOL    HW216782   2.595   4.454   1.035
 5408SOL     OW16783   3.611   0.137   1.857
 5408SOL    HW116784   3.550   0.148   1.784
 5408SOL    HW216785   3.564   0.168   1.933
 5409SOL     OW16786   2.164   3.791   0.623
 5409SOL    HW116787   2.146   3.881   0.648
 5409SOL    HW216788   2.168   3.743   0.706
 5410SOL     OW16789   3.474   4.092   0.369
 5410SOL    HW116790   3.503   4.030   0.436
 5410SOL    HW216791   3.453   4.171   0.418
 5411SOL     OW16792   3.399   4.009   0.118
 5411SOL    HW116793   3.338   3.937   0.135
 5411SOL    HW216794   3.429   4.035   0.205
 5412SOL     OW16795   2.179   0.012   0.922
 5412SOL    HW116796   2.256   0.068   0.934
 5412SOL    HW216797   2.191   4.441   0.985
 5413SOL     OW16798   2.199   4.239   1.019
 5413SOL    HW116799   2.159   4.154   0.999
 5413SOL    HW216800   2.272   4.247   0.958
 5414SOL     OW16801   3.000   4.096   1.683
 5414SOL    HW116802   2.949   4.155   1.739
 5414SOL    HW216803   3.085   4.139   1.674
 5415SOL     OW16804   3.022   3.928   1.469
 5415SOL    HW116805   3.013   3.989   1.542
 5415SOL    HW216806   3.060   3.980   1.398
 5416SOL     OW16807   1.899   4.270   1.115
 5416SOL    HW116808   1.980   4.250   1.069
 5416SOL    HW216809   1.924   4.274   1.207
 5417SOL     OW16810   2.054   4.243   1.717
 5417SOL    HW116811   2.111   4.200   1.653
 5417SOL    HW216812   1.998   4.301   1.665
 5418SOL     OW16813   2.677   4.306   0.327
 5418SOL    HW116814   2.685   4.220   0.286
 5418SOL    HW216815   2.582   4.318   0.339
 5419SOL     OW16816   3.501   4.319   1.190
 5419SOL    HW116817   3.494   4.260   1.265
 5419SOL    HW216818   3.588   4.304   1.155
 5420SOL     OW16819   2.546   4.182   1.259
 5420SOL    HW116820   2.502   4.104   1.226
 5420SOL    HW216821   2.549   4.241   1.183
 5421SOL     OW16822   2.338   4.219   0.186
 5421SOL    HW116823   2.378   4.305   0.202
 5421SOL    HW216824   2.244   4.237   0.186
 5422SOL     OW16825   2.778   3.815   0.111
 5422SOL    HW116826   2.830   3.781   0.038
 5422SOL    HW216827   2.814   3.771   0.188
 5423SOL     OW16828   3.580   3.866   0.513
 5423SOL    HW116829   3.654   3.853   0.453
 5423SOL    HW216830   3.565   3.780   0.552
 5424SOL     OW16831   3.141   0.139   0.681
 5424SOL    HW116832   3.198   0.062   0.685
 5424SOL    HW216833   3.189   0.202   0.628
 5425SOL     OW16834   3.701   3.897   0.968
 5425SOL    HW116835   3.730   3.811   0.938
 5425SOL    HW216836   3.615   3.908   0.928
 5426SOL     OW16837   2.126   4.043   0.719
 5426SOL    HW116838   2.039   4.075   0.693
 5426SOL    HW216839   2.120   4.031   0.814
 5427SOL     OW16840   2.925   0.307   0.719
 5427SOL    HW116841   2.839   0.268   0.703
 5427SOL    HW216842   2.987   0.238   0.695
 5428SOL     OW16843   2.881   3.964   0.965
 5428SOL    HW116844   2.876   3.915   0.883
 5428SOL    HW216845   2.876   3.897   1.033
 5429SOL     OW16846   3.581   4.114   1.380
 5429SOL    HW116847   3.652   4.178   1.377
 5429SOL    HW216848   3.610   4.043   1.324
 5430SOL     OW16849   2.534   3.919   1.499
 5430SOL    HW116850   2.618   3.902   1.456
 5430SOL    HW216851   2.558   3.949   1.587
 5431SOL     OW16852   1.939   4.052   0.053
 5431SOL    HW116853   1.869   4.044  11.087
 5431SOL    HW216854   1.969   4.142   0.045
 5432SOL     OW16855   1.932   3.884   0.316
 5432SOL    HW116856   1.918   3.960   0.260
 5432SOL    HW216857   2.014   3.846   0.285
 5433SOL     OW16858   2.587   4.289   1.704
 5433SOL    HW116859   2.594   4.337   1.787
 5433SOL    HW216860   2.617   4.200   1.725
 5434SOL     OW16861   3.080   4.041   0.456
 5434SOL    HW116862   3.145   3.971   0.446
 5434SOL    HW216863   3.109   4.090   0.533
 5435SOL     OW16864   3.626   4.087   1.647
 5435SOL    HW116865   3.608   4.097   1.554
 5435SOL    HW216866   3.557   4.029   1.679
 5436SOL     OW16867   2.960   0.203   0.051
 5436SOL    HW116868   2.960   0.288   0.005
 5436SOL    HW216869   3.052   0.177   0.052
 5437SOL     OW16870   3.677   3.909   1.238
 5437SOL    HW116871   3.686   3.815   1.254
 5437SOL    HW216872   3.685   3.919   1.143
 5438SOL     OW16873   2.306   4.153   0.538
 5438SOL    HW116874   2.326   4.084   0.475
 5438SOL    HW216875   2.249   4.111   0.603
 5439SOL     OW16876   2.185   4.265   1.293
 5439SOL    HW116877   2.241   4.210   1.348
 5439SOL    HW216878   2.206   4.239   1.203
 5440SOL     OW16879   3.294   3.947   1.118
 5440SOL    HW116880   3.323   3.870   1.165
 5440SOL    HW216881   3.242   3.996   1.181
 5441SOL     OW16882   2.870   3.745   1.146
 5441SOL    HW116883   2.815   3.676   1.108
 5441SOL    HW216884   2.958   3.708   1.147
 5442SOL     OW16885   3.213   3.777   0.164
 5442SOL    HW116886   3.236   3.728   0.085
 5442SOL    HW216887   3.127   3.744   0.189
 5443SOL     OW16888   3.162   4.176   0.682
 5443SOL    HW116889   3.118   4.260   0.696
 5443SOL    HW216890   3.162   4.135   0.769
 5444SOL     OW16891   3.449   3.930   0.877
 5444SOL    HW116892   3.385   3.948   0.945
 5444SOL    HW216893   3.450   4.009   0.822
 5445SOL     OW16894   2.088   4.292   1.985
 5445SOL    HW116895   2.026   4.356   2.021
 5445SOL    HW216896   2.078   4.299   1.890
 5446SOL     OW16897   2.086   4.000   2.852
 5446SOL    HW116898   2.114   3.969   2.938
 5446SOL    HW216899   1.996   3.969   2.843
 5447SOL     OW16900   1.868   4.102   2.505
 5447SOL    HW116901   1.785   4.129   2.543
 5447SOL    HW216902   1.847   4.025   2.453
 5448SOL     OW16903   3.598   4.335   2.098
 5448SOL    HW116904   3.596   4.320   2.004
 5448SOL    HW216905   3.595   4.247   2.136
 5449SOL     OW16906   2.587   0.265   2.543
 5449SOL    HW116907   2.586   0.209   2.620
 5449SOL    HW216908   2.494   0.285   2.527
 5450SOL     OW16909   2.308   4.119   3.350
 5450SOL    HW116910   2.385   4.062   3.357
 5450SOL    HW216911   2.234   4.060   3.364
 5451SOL     OW16912   3.477   4.174   2.600
 5451SOL    HW116913   3.404   4.201   2.544
 5451SOL    HW216914   3.487   4.245   2.663
 5452SOL     OW16915   3.458   3.844   3.332
 5452SOL    HW116916   3.455   3.923   3.278
 5452SOL    HW216917   3.447   3.876   3.422
 5453SOL     OW16918   1.946   4.368   2.427
 5453SOL    HW116919   1.935   4.276   2.451
 5453SOL    HW216920   2.000   4.405   2.497
 5454SOL     OW16921   1.982   4.472   3.447
 5454SOL    HW116922   2.053   4.486   3.509
 5454SOL    HW216923   1.949   0.060   3.428
 5455SOL     OW16924   2.674   3.723   2.367
 5455SOL    HW116925   2.714   3.808   2.352
 5455SOL    HW216926   2.581   3.742   2.378
 5456SOL     OW16927   2.192   3.976   3.667
 5456SOL    HW116928   2.237   4.058   3.684
 5456SOL    HW216929   2.103   3.989   3.700
 5457SOL     OW16930   3.140   4.069   2.794
 5457SOL    HW116931   3.051   4.036   2.803
 5457SOL    HW216932   3.192   4.019   2.857
 5458SOL     OW16933   2.685   4.309   3.314
 5458SOL    HW116934   2.642   4.315   3.399
 5458SOL    HW216935   2.620   4.267   3.257
 5459SOL     OW16936   3.258   4.199   3.539
 5459SOL    HW116937   3.257   4.242   3.624
 5459SOL    HW216938   3.318   4.126   3.549
 5460SOL     OW16939   2.857   4.146   3.097
 5460SOL    HW116940   2.783   4.168   3.154
 5460SOL    HW216941   2.821   4.089   3.030
 5461SOL     OW16942   2.919   4.409   2.283
 5461SOL    HW116943   2.920   4.443   2.372
 5461SOL    HW216944   2.830   4.375   2.271
 5462SOL     OW16945   2.747   4.063   2.053
 5462SOL    HW116946   2.792   4.125   1.996
 5462SOL    HW216947   2.768   3.977   2.016
 5463SOL     OW16948   3.568   4.298   3.690
 5463SOL    HW116949   3.576   4.387   3.657
 5463SOL    HW216950   3.591   4.243   3.615
 5464SOL     OW16951   2.411   3.908   2.753
 5464SOL    HW116952   2.413   3.934   2.845
 5464SOL    HW216953   2.411   3.990   2.705
 5465SOL     OW16954   3.350   4.461   2.597
 5465SOL    HW116955   3.329   4.407   2.674
 5465SOL    HW216956   3.391   0.039   2.633
 5466SOL     OW16957   2.060   4.006   3.363
 5466SOL    HW116958   1.977   4.053   3.355
 5466SOL    HW216959   2.046   3.945   3.435
 5467SOL     OW16960   3.263   3.831   2.292
 5467SOL    HW116961   3.252   3.806   2.200
 5467SOL    HW216962   3.357   3.840   2.303
 5468SOL     OW16963   2.219   4.384   2.273
 5468SOL    HW116964   2.259   4.310   2.320
 5468SOL    HW216965   2.148   4.413   2.331
 5469SOL     OW16966   3.400   3.951   3.587
 5469SOL    HW116967   3.408   3.972   3.680
 5469SOL    HW216968   3.332   3.883   3.584
 5470SOL     OW16969   2.491   3.849   1.969
 5470SOL    HW116970   2.566   3.791   1.979
 5470SOL    HW216971   2.445   3.816   1.892
 5471SOL     OW16972   2.630   4.000   3.614
 5471SOL    HW116973   2.703   3.938   3.622
 5471SOL    HW216974   2.579   3.987   3.694
 5472SOL     OW16975   3.208   4.311   3.290
 5472SOL    HW116976   3.230   4.274   3.376
 5472SOL    HW216977   3.244   4.399   3.292
 5473SOL     OW16978   2.784   4.236   2.761
 5473SOL    HW116979   2.762   4.220   2.669
 5473SOL    HW216980   2.824   4.155   2.791
 5474SOL     OW16981   2.410   3.787   2.367
 5474SOL    HW116982   2.329   3.788   2.419
 5474SOL    HW216983   2.404   3.866   2.313
 5475SOL     OW16984   2.155   3.770   2.046
 5475SOL    HW116985   2.213   3.836   2.008
 5475SOL    HW216986   2.213   3.706   2.086
 5476SOL     OW16987   2.797   3.969   2.327
 5476SOL    HW116988   2.769   4.009   2.245
 5476SOL    HW216989   2.892   3.980   2.327
 5477SOL     OW16990   2.940   4.395   3.374
 5477SOL    HW116991   2.856   4.364   3.340
 5477SOL    HW216992   3.005   4.351   3.318
 5478SOL     OW16993   2.887   4.269   1.885
 5478SOL    HW116994   2.867   4.357   1.852
 5478SOL    HW216995   2.950   4.284   1.956
 5479SOL     OW16996   1.936   4.280   3.253
 5479SOL    HW116997   2.027   4.272   3.225
 5479SOL    HW216998   1.936   4.353   3.315
 5480SOL     OW16999   2.423   3.950   3.024
 5480SOL    HW117000   2.462   3.871   3.062
 5480SOL    HW217001   2.332   3.949   3.055
 5481SOL     OW17002   2.732   4.189   2.500
 5481SOL    HW117003   2.694   4.246   2.434
 5481SOL    HW217004   2.750   4.107   2.453
 5482SOL     OW17005   2.875   3.777   2.616
 5482SOL    HW117006   2.817   3.768   2.540
 5482SOL    HW217007   2.856   3.701   2.670
 5483SOL     OW17008   3.339   4.313   2.832
 5483SOL    HW117009   3.284   4.236   2.852
 5483SOL    HW217010   3.391   4.326   2.911
 5484SOL     OW17011   3.262   4.296   1.934
 5484SOL    HW117012   3.201   4.270   2.004
 5484SOL    HW217013   3.345   4.255   1.960
 5485SOL     OW17014   2.386   3.987   2.183
 5485SOL    HW117015   2.426   3.936   2.112
 5485SOL    HW217016   2.372   4.074   2.145
 5486SOL     OW17017   2.780   3.822   3.261
 5486SOL    HW117018   2.803   3.802   3.170
 5486SOL    HW217019   2.859   3.861   3.298
 5487SOL     OW17020   2.294   0.008   3.128
 5487SOL    HW117021   2.360   0.009   3.198
 5487SOL    HW217022   2.252   4.422   3.135
 5488SOL     OW17023   3.129   4.101   3.134
 5488SOL    HW117024   3.162   4.178   3.180
 5488SOL    HW217025   3.040   4.125   3.108
 5489SOL     OW17026   2.417   4.257   2.727
 5489SOL    HW117027   2.437   4.304   2.647
 5489SOL    HW217028   2.480   4.289   2.791
 5490SOL     OW17029   3.435   4.343   2.337
 5490SOL    HW117030   3.402   4.408   2.399
 5490SOL    HW217031   3.493   4.392   2.279
 5491SOL     OW17032   2.859   3.841   3.620
 5491SOL    HW117033   2.909   3.915   3.587
 5491SOL    HW217034   2.909   3.764   3.592
 5492SOL     OW17035   2.361   3.768   3.608
 5492SOL    HW117036   2.319   3.713   3.541
 5492SOL    HW217037   2.300   3.840   3.620
 5493SOL     OW17038   3.074   4.256   2.129
 5493SOL    HW117039   3.083   4.176   2.181
 5493SOL    HW217040   3.025   4.315   2.186
 5494SOL     OW17041   2.163   3.925   3.107
 5494SOL    HW117042   2.127   3.958   3.189
 5494SOL    HW217043   2.142   3.831   3.108
 5495SOL     OW17044   2.592   4.360   2.911
 5495SOL    HW117045   2.665   4.326   2.860
 5495SOL    HW217046   2.595   4.454   2.898
 5496SOL     OW17047   3.611   0.136   3.719
 5496SOL    HW117048   3.550   0.149   3.646
 5496SOL    HW217049   3.564   0.168   3.795
 5497SOL     OW17050   2.164   3.790   2.485
 5497SOL    HW117051   2.146   3.881   2.510
 5497SOL    HW217052   2.169   3.743   2.568
 5498SOL     OW17053   3.473   4.091   2.232
 5498SOL    HW117054   3.502   4.030   2.300
 5498SOL    HW217055   3.452   4.171   2.279
 5499SOL     OW17056   3.391   3.999   1.989
 5499SOL    HW117057   3.329   3.931   2.015
 5499SOL    HW217058   3.425   4.034   2.071
 5500SOL     OW17059   2.179   0.012   2.784
 5500SOL    HW117060   2.256   0.068   2.796
 5500SOL    HW217061   2.192   4.441   2.848
 5501SOL     OW17062   2.199   4.239   2.881
 5501SOL    HW117063   2.160   4.154   2.861
 5501SOL    HW217064   2.272   4.247   2.820
 5502SOL     OW17065   3.000   4.096   3.545
 5502SOL    HW117066   2.949   4.155   3.601
 5502SOL    HW217067   3.085   4.139   3.536
 5503SOL     OW17068   3.022   3.928   3.331
 5503SOL    HW117069   3.013   3.989   3.404
 5503SOL    HW217070   3.060   3.980   3.260
 5504SOL     OW17071   1.899   4.269   2.977
 5504SOL    HW117072   1.980   4.250   2.931
 5504SOL    HW217073   1.924   4.274   3.069
 5505SOL     OW17074   2.054   4.243   3.579
 5505SOL    HW117075   2.112   4.201   3.515
 5505SOL    HW217076   1.999   4.301   3.527
 5506SOL     OW17077   2.681   4.286   2.204
 5506SOL    HW117078   2.678   4.209   2.147
 5506SOL    HW217079   2.593   4.323   2.197
 5507SOL     OW17080   3.501   4.319   3.052
 5507SOL    HW117081   3.494   4.260   3.127
 5507SOL    HW217082   3.588   4.304   3.017
 5508SOL     OW17083   2.546   4.182   3.121
 5508SOL    HW117084   2.501   4.104   3.088
 5508SOL    HW217085   2.549   4.241   3.045
 5509SOL     OW17086   2.343   4.222   2.053
 5509SOL    HW117087   2.379   4.309   2.069
 5509SOL    HW217088   2.249   4.236   2.045
 5510SOL     OW17089   3.580   3.866   2.375
 5510SOL    HW117090   3.654   3.852   2.315
 5510SOL    HW217091   3.565   3.780   2.414
 5511SOL     OW17092   3.142   0.138   2.541
 5511SOL    HW117093   3.200   0.062   2.546
 5511SOL    HW217094   3.191   0.203   2.491
 5512SOL     OW17095   3.701   3.897   2.830
 5512SOL    HW117096   3.730   3.811   2.800
 5512SOL    HW217097   3.615   3.908   2.790
 5513SOL     OW17098   2.126   4.042   2.580
 5513SOL    HW117099   2.039   4.075   2.555
 5513SOL    HW217100   2.120   4.031   2.675
 5514SOL     OW17101   2.774   0.093   2.089
 5514SOL    HW117102   2.855   0.136   2.061
 5514SOL    HW217103   2.796   0.051   2.172
 5515SOL     OW17104   2.929   0.306   2.597
 5515SOL    HW117105   2.844   0.286   2.559
 5515SOL    HW217106   2.988   0.240   2.561
 5516SOL     OW17107   2.881   3.964   2.827
 5516SOL    HW117108   2.876   3.915   2.745
 5516SOL    HW217109   2.876   3.897   2.895
 5517SOL     OW17110   3.581   4.114   3.242
 5517SOL    HW117111   3.652   4.178   3.239
 5517SOL    HW217112   3.611   4.043   3.186
 5518SOL     OW17113   2.534   3.919   3.361
 5518SOL    HW117114   2.618   3.902   3.318
 5518SOL    HW217115   2.558   3.949   3.448
 5519SOL     OW17116   1.937   4.048   1.892
 5519SOL    HW117117   1.848   4.039   1.856
 5519SOL    HW217118   1.968   4.132   1.858
 5520SOL     OW17119   1.933   3.882   2.176
 5520SOL    HW117120   1.917   3.962   2.125
 5520SOL    HW217121   2.017   3.850   2.145
 5521SOL     OW17122   2.586   4.289   3.566
 5521SOL    HW117123   2.595   4.337   3.648
 5521SOL    HW217124   2.617   4.200   3.587
 5522SOL     OW17125   3.082   4.043   2.317
 5522SOL    HW117126   3.145   3.972   2.308
 5522SOL    HW217127   3.110   4.091   2.395
 5523SOL     OW17128   3.626   4.087   3.509
 5523SOL    HW117129   3.608   4.097   3.416
 5523SOL    HW217130   3.556   4.029   3.541
 5524SOL     OW17131   2.971   0.230   1.967
 5524SOL    HW117132   2.948   0.269   1.882
 5524SOL    HW217133   3.049   0.177   1.948
 5525SOL     OW17134   3.676   3.909   3.100
 5525SOL    HW117135   3.686   3.815   3.116
 5525SOL    HW217136   3.685   3.919   3.005
 5526SOL     OW17137   2.307   4.152   2.400
 5526SOL    HW117138   2.323   4.084   2.335
 5526SOL    HW217139   2.249   4.111   2.465
 5527SOL     OW17140   2.185   4.264   3.155
 5527SOL    HW117141   2.241   4.210   3.210
 5527SOL    HW217142   2.206   4.239   3.065
 5528SOL     OW17143   3.294   3.947   2.980
 5528SOL    HW117144   3.324   3.870   3.028
 5528SOL    HW217145   3.242   3.996   3.043
 5529SOL     OW17146   2.870   3.745   3.008
 5529SOL    HW117147   2.816   3.676   2.969
 5529SOL    HW217148   2.958   3.708   3.009
 5530SOL     OW17149   3.214   3.778   2.025
 5530SOL    HW117150   3.240   3.718   1.955
 5530SOL    HW217151   3.128   3.746   2.053
 5531SOL     OW17152   3.161   4.177   2.545
 5531SOL    HW117153   3.118   4.261   2.559
 5531SOL    HW217154   3.162   4.135   2.631
 5532SOL     OW17155   3.449   3.930   2.738
 5532SOL    HW117156   3.385   3.948   2.807
 5532SOL    HW217157   3.450   4.009   2.684
 5533SOL     OW17158   2.087   4.291   3.847
 5533SOL    HW117159   2.027   4.357   3.883
 5533SOL    HW217160   2.078   4.299   3.752
 5534SOL     OW17161   2.086   4.000   4.714
 5534SOL    HW117162   2.114   3.970   4.800
 5534SOL    HW217163   1.996   3.969   4.706
 5535SOL     OW17164   1.868   4.101   4.368
 5535SOL    HW117165   1.785   4.129   4.405
 5535SOL    HW217166   1.847   4.025   4.314
 5536SOL     OW17167   3.598   4.335   3.960
 5536SOL    HW117168   3.596   4.320   3.866
 5536SOL    HW217169   3.595   4.247   3.998
 5537SOL     OW17170   2.587   0.265   4.404
 5537SOL    HW117171   2.586   0.210   4.483
 5537SOL    HW217172   2.495   0.286   4.390
 5538SOL     OW17173   2.308   4.119   5.212
 5538SOL    HW117174   2.385   4.063   5.219
 5538SOL    HW217175   2.234   4.059   5.227
 5539SOL     OW17176   3.477   4.174   4.462
 5539SOL    HW117177   3.404   4.201   4.406
 5539SOL    HW217178   3.487   4.245   4.525
 5540SOL     OW17179   3.459   3.845   5.194
 5540SOL    HW117180   3.455   3.924   5.140
 5540SOL    HW217181   3.447   3.876   5.284
 5541SOL     OW17182   1.945   4.368   4.289
 5541SOL    HW117183   1.935   4.276   4.314
 5541SOL    HW217184   2.000   4.406   4.358
 5542SOL     OW17185   1.982   4.472   5.309
 5542SOL    HW117186   2.053   4.486   5.371
 5542SOL    HW217187   1.949   0.060   5.290
 5543SOL     OW17188   2.673   3.723   4.227
 5543SOL    HW117189   2.714   3.808   4.214
 5543SOL    HW217190   2.580   3.742   4.240
 5544SOL     OW17191   2.192   3.976   5.528
 5544SOL    HW117192   2.237   4.058   5.546
 5544SOL    HW217193   2.103   3.989   5.562
 5545SOL     OW17194   3.140   4.069   4.656
 5545SOL    HW117195   3.051   4.036   4.665
 5545SOL    HW217196   3.192   4.019   4.719
 5546SOL     OW17197   2.685   4.309   5.176
 5546SOL    HW117198   2.642   4.315   5.261
 5546SOL    HW217199   2.619   4.267   5.119
 5547SOL     OW17200   3.258   4.199   5.400
 5547SOL    HW117201   3.257   4.242   5.486
 5547SOL    HW217202   3.318   4.125   5.411
 5548SOL     OW17203   2.858   4.147   4.959
 5548SOL    HW117204   2.784   4.167   5.016
 5548SOL    HW217205   2.821   4.088   4.892
 5549SOL     OW17206   2.919   4.409   4.145
 5549SOL    HW117207   2.920   4.444   4.234
 5549SOL    HW217208   2.830   4.375   4.134
 5550SOL     OW17209   2.746   4.063   3.914
 5550SOL    HW117210   2.792   4.126   3.858
 5550SOL    HW217211   2.769   3.977   3.878
 5551SOL     OW17212   3.568   4.298   5.552
 5551SOL    HW117213   3.576   4.387   5.519
 5551SOL    HW217214   3.591   4.243   5.477
 5552SOL     OW17215   2.410   3.908   4.615
 5552SOL    HW117216   2.413   3.934   4.707
 5552SOL    HW217217   2.412   3.991   4.567
 5553SOL     OW17218   3.350   4.461   4.459
 5553SOL    HW117219   3.329   4.408   4.536
 5553SOL    HW217220   3.391   0.040   4.495
 5554SOL     OW17221   2.060   4.005   5.224
 5554SOL    HW117222   1.977   4.053   5.217
 5554SOL    HW217223   2.046   3.946   5.298
 5555SOL     OW17224   3.263   3.831   4.154
 5555SOL    HW117225   3.252   3.806   4.062
 5555SOL    HW217226   3.357   3.841   4.165
 5556SOL     OW17227   2.218   4.384   4.135
 5556SOL    HW117228   2.259   4.311   4.182
 5556SOL    HW217229   2.149   4.414   4.193
 5557SOL     OW17230   3.400   3.951   5.449
 5557SOL    HW117231   3.407   3.972   5.542
 5557SOL    HW217232   3.333   3.882   5.446
 5558SOL     OW17233   2.490   3.848   3.832
 5558SOL    HW117234   2.567   3.792   3.841
 5558SOL    HW217235   2.445   3.816   3.754
 5559SOL     OW17236   2.630   4.000   5.476
 5559SOL    HW117237   2.703   3.938   5.483
 5559SOL    HW217238   2.579   3.987   5.556
 5560SOL     OW17239   3.208   4.311   5.152
 5560SOL    HW117240   3.230   4.274   5.238
 5560SOL    HW217241   3.244   4.399   5.154
 5561SOL     OW17242   2.784   4.236   4.623
 5561SOL    HW117243   2.762   4.220   4.532
 5561SOL    HW217244   2.824   4.155   4.654
 5562SOL     OW17245   2.409   3.787   4.229
 5562SOL    HW117246   2.329   3.788   4.281
 5562SOL    HW217247   2.404   3.866   4.175
 5563SOL     OW17248   2.155   3.770   3.908
 5563SOL    HW117249   2.213   3.837   3.870
 5563SOL    HW217250   2.214   3.707   3.948
 5564SOL     OW17251   2.797   3.969   4.189
 5564SOL    HW117252   2.769   4.010   4.107
 5564SOL    HW217253   2.892   3.980   4.190
 5565SOL     OW17254   2.940   4.395   5.236
 5565SOL    HW117255   2.856   4.364   5.202
 5565SOL    HW217256   3.005   4.352   5.180
 5566SOL     OW17257   2.887   4.269   3.747
 5566SOL    HW117258   2.867   4.357   3.714
 5566SOL    HW217259   2.950   4.284   3.818
 5567SOL     OW17260   1.936   4.280   5.115
 5567SOL    HW117261   2.027   4.272   5.087
 5567SOL    HW217262   1.936   4.353   5.177
 5568SOL     OW17263   2.423   3.949   4.886
 5568SOL    HW117264   2.463   3.871   4.925
 5568SOL    HW217265   2.333   3.949   4.917
 5569SOL     OW17266   2.732   4.188   4.362
 5569SOL    HW117267   2.695   4.246   4.296
 5569SOL    HW217268   2.750   4.107   4.315
 5570SOL     OW17269   2.876   3.777   4.477
 5570SOL    HW117270   2.818   3.768   4.402
 5570SOL    HW217271   2.857   3.701   4.532
 5571SOL     OW17272   3.339   4.312   4.694
 5571SOL    HW117273   3.284   4.236   4.714
 5571SOL    HW217274   3.391   4.326   4.773
 5572SOL     OW17275   3.262   4.296   3.796
 5572SOL    HW117276   3.201   4.270   3.866
 5572SOL    HW217277   3.345   4.256   3.822
 5573SOL     OW17278   2.386   3.987   4.045
 5573SOL    HW117279   2.426   3.936   3.974
 5573SOL    HW217280   2.372   4.074   4.007
 5574SOL     OW17281   2.780   3.823   5.122
 5574SOL    HW117282   2.803   3.802   5.032
 5574SOL    HW217283   2.859   3.862   5.160
 5575SOL     OW17284   2.294   0.008   4.990
 5575SOL    HW117285   2.360   0.009   5.059
 5575SOL    HW217286   2.252   4.422   4.998
 5576SOL     OW17287   3.129   4.101   4.996
 5576SOL    HW117288   3.162   4.178   5.042
 5576SOL    HW217289   3.040   4.125   4.970
 5577SOL     OW17290   2.417   4.257   4.589
 5577SOL    HW117291   2.437   4.304   4.509
 5577SOL    HW217292   2.480   4.289   4.653
 5578SOL     OW17293   3.435   4.343   4.199
 5578SOL    HW117294   3.402   4.408   4.261
 5578SOL    HW217295   3.493   4.392   4.140
 5579SOL     OW17296   2.858   3.841   5.482
 5579SOL    HW117297   2.910   3.915   5.449
 5579SOL    HW217298   2.908   3.764   5.455
 5580SOL     OW17299   2.360   3.768   5.470
 5580SOL    HW117300   2.320   3.713   5.403
 5580SOL    HW217301   2.300   3.841   5.482
 5581SOL     OW17302   3.074   4.255   3.991
 5581SOL    HW117303   3.084   4.176   4.043
 5581SOL    HW217304   3.025   4.315   4.047
 5582SOL     OW17305   2.163   3.925   4.969
 5582SOL    HW117306   2.127   3.959   5.051
 5582SOL    HW217307   2.142   3.831   4.970
 5583SOL     OW17308   2.592   4.359   4.773
 5583SOL    HW117309   2.665   4.326   4.722
 5583SOL    HW217310   2.595   4.454   4.760
 5584SOL     OW17311   3.611   0.136   5.581
 5584SOL    HW117312   3.551   0.149   5.508
 5584SOL    HW217313   3.564   0.168   5.657
 5585SOL     OW17314   2.163   3.790   4.347
 5585SOL    HW117315   2.146   3.881   4.372
 5585SOL    HW217316   2.169   3.743   4.430
 5586SOL     OW17317   3.473   4.091   4.094
 5586SOL    HW117318   3.502   4.030   4.162
 5586SOL    HW217319   3.452   4.171   4.141
 5587SOL     OW17320   3.391   3.999   3.851
 5587SOL    HW117321   3.329   3.931   3.877
 5587SOL    HW217322   3.425   4.034   3.933
 5588SOL     OW17323   2.179   0.012   4.646
 5588SOL    HW117324   2.256   0.069   4.658
 5588SOL    HW217325   2.192   4.442   4.710
 5589SOL     OW17326   2.199   4.239   4.743
 5589SOL    HW117327   2.160   4.154   4.723
 5589SOL    HW217328   2.272   4.247   4.682
 5590SOL     OW17329   3.000   4.096   5.407
 5590SOL    HW117330   2.949   4.155   5.463
 5590SOL    HW217331   3.085   4.139   5.398
 5591SOL     OW17332   3.022   3.928   5.193
 5591SOL    HW117333   3.013   3.989   5.266
 5591SOL    HW217334   3.060   3.981   5.122
 5592SOL     OW17335   1.899   4.269   4.839
 5592SOL    HW117336   1.981   4.251   4.793
 5592SOL    HW217337   1.924   4.274   4.931
 5593SOL     OW17338   2.053   4.242   5.441
 5593SOL    HW117339   2.112   4.202   5.377
 5593SOL    HW217340   1.999   4.301   5.389
 5594SOL     OW17341   2.681   4.285   4.066
 5594SOL    HW117342   2.678   4.208   4.009
 5594SOL    HW217343   2.593   4.324   4.059
 5595SOL     OW17344   3.501   4.319   4.914
 5595SOL    HW117345   3.494   4.260   4.989
 5595SOL    HW217346   3.588   4.304   4.879
 5596SOL     OW17347   2.545   4.182   4.983
 5596SOL    HW117348   2.501   4.104   4.950
 5596SOL    HW217349   2.549   4.241   4.907
 5597SOL     OW17350   2.343   4.222   3.915
 5597SOL    HW117351   2.379   4.309   3.931
 5597SOL    HW217352   2.248   4.236   3.907
 5598SOL     OW17353   3.580   3.866   4.237
 5598SOL    HW117354   3.654   3.852   4.177
 5598SOL    HW217355   3.565   3.780   4.276
 5599SOL     OW17356   3.142   0.138   4.403
 5599SOL    HW117357   3.200   0.062   4.407
 5599SOL    HW217358   3.191   0.204   4.354
 5600SOL     OW17359   3.701   3.897   4.692
 5600SOL    HW117360   3.730   3.811   4.662
 5600SOL    HW217361   3.615   3.908   4.652
 5601SOL     OW17362   2.126   4.042   4.442
 5601SOL    HW117363   2.039   4.075   4.417
 5601SOL    HW217364   2.120   4.031   4.537
 5602SOL     OW17365   2.774   0.093   3.950
 5602SOL    HW117366   2.855   0.136   3.923
 5602SOL    HW217367   2.796   0.051   4.034
 5603SOL     OW17368   2.929   0.306   4.459
 5603SOL    HW117369   2.844   0.286   4.421
 5603SOL    HW217370   2.988   0.240   4.423
 5604SOL     OW17371   2.881   3.964   4.689
 5604SOL    HW117372   2.876   3.915   4.607
 5604SOL    HW217373   2.876   3.896   4.757
 5605SOL     OW17374   3.581   4.114   5.104
 5605SOL    HW117375   3.652   4.178   5.101
 5605SOL    HW217376   3.610   4.043   5.048
 5606SOL     OW17377   2.534   3.919   5.223
 5606SOL    HW117378   2.618   3.902   5.180
 5606SOL    HW217379   2.558   3.949   5.311
 5607SOL     OW17380   1.936   4.048   3.754
 5607SOL    HW117381   1.848   4.040   3.718
 5607SOL    HW217382   1.968   4.132   3.721
 5608SOL     OW17383   1.933   3.882   4.038
 5608SOL    HW117384   1.917   3.962   3.988
 5608SOL    HW217385   2.017   3.850   4.007
 5609SOL     OW17386   2.586   4.288   5.428
 5609SOL    HW117387   2.595   4.337   5.510
 5609SOL    HW217388   2.617   4.200   5.449
 5610SOL     OW17389   3.082   4.043   4.179
 5610SOL    HW117390   3.145   3.972   4.170
 5610SOL    HW217391   3.110   4.091   4.257
 5611SOL     OW17392   3.626   4.087   5.371
 5611SOL    HW117393   3.608   4.097   5.278
 5611SOL    HW217394   3.557   4.029   5.403
 5612SOL     OW17395   2.971   0.230   3.829
 5612SOL    HW117396   2.949   0.270   3.744
 5612SOL    HW217397   3.049   0.177   3.810
 5613SOL     OW17398   3.677   3.909   4.962
 5613SOL    HW117399   3.686   3.815   4.978
 5613SOL    HW217400   3.685   3.919   4.867
 5614SOL     OW17401   2.307   4.152   4.262
 5614SOL    HW117402   2.323   4.084   4.197
 5614SOL    HW217403   2.250   4.111   4.327
 5615SOL     OW17404   2.184   4.264   5.017
 5615SOL    HW117405   2.241   4.210   5.072
 5615SOL    HW217406   2.206   4.239   4.927
 5616SOL     OW17407   3.294   3.947   4.842
 5616SOL    HW117408   3.323   3.870   4.890
 5616SOL    HW217409   3.242   3.996   4.905
 5617SOL     OW17410   2.870   3.745   4.870
 5617SOL    HW117411   2.815   3.676   4.833
 5617SOL    HW217412   2.958   3.708   4.871
 5618SOL     OW17413   3.214   3.778   3.887
 5618SOL    HW117414   3.239   3.719   3.817
 5618SOL    HW217415   3.128   3.746   3.915
 5619SOL     OW17416   3.161   4.176   4.407
 5619SOL    HW117417   3.119   4.261   4.421
 5619SOL    HW217418   3.162   4.135   4.493
 5620SOL     OW17419   3.449   3.930   4.600
 5620SOL    HW117420   3.385   3.948   4.669
 5620SOL    HW217421   3.450   4.009   4.546
 5621SOL     OW17422   2.087   4.291   5.709
 5621SOL    HW117423   2.026   4.356   5.745
 5621SOL    HW217424   2.078   4.299   5.614
 5622SOL     OW17425   2.086   4.000   6.576
 5622SOL    HW117426   2.114   3.969   6.662
 5622SOL    HW217427   1.996   3.969   6.567
 5623SOL     OW17428   1.868   4.102   6.229
 5623SOL    HW117429   1.785   4.129   6.267
 5623SOL    HW217430   1.847   4.025   6.177
 5624SOL     OW17431   3.598   4.335   5.822
 5624SOL    HW117432   3.596   4.320   5.728
 5624SOL    HW217433   3.595   4.247   5.860
 5625SOL     OW17434   2.587   0.265   6.267
 5625SOL    HW117435   2.587   0.209   6.344
 5625SOL    HW217436   2.494   0.285   6.252
 5626SOL     OW17437   2.308   4.119   7.074
 5626SOL    HW117438   2.385   4.062   7.081
 5626SOL    HW217439   2.234   4.060   7.089
 5627SOL     OW17440   3.477   4.173   6.324
 5627SOL    HW117441   3.404   4.201   6.268
 5627SOL    HW217442   3.487   4.245   6.387
 5628SOL     OW17443   3.458   3.844   7.056
 5628SOL    HW117444   3.455   3.923   7.002
 5628SOL    HW217445   3.447   3.876   7.146
 5629SOL     OW17446   1.946   4.368   6.151
 5629SOL    HW117447   1.935   4.276   6.176
 5629SOL    HW217448   2.000   4.406   6.221
 5630SOL     OW17449   1.982   4.472   7.170
 5630SOL    HW117450   2.053   4.486   7.233
 5630SOL    HW217451   1.949   0.060   7.152
 5631SOL     OW17452   2.673   3.723   6.090
 5631SOL    HW117453   2.714   3.809   6.076
 5631SOL    HW217454   2.580   3.743   6.102
 5632SOL     OW17455   2.192   3.976   7.390
 5632SOL    HW117456   2.237   4.058   7.408
 5632SOL    HW217457   2.103   3.989   7.424
 5633SOL     OW17458   3.140   4.069   6.518
 5633SOL    HW117459   3.051   4.036   6.527
 5633SOL    HW217460   3.192   4.019   6.581
 5634SOL     OW17461   2.685   4.310   7.038
 5634SOL    HW117462   2.643   4.315   7.123
 5634SOL    HW217463   2.620   4.268   6.981
 5635SOL     OW17464   3.258   4.199   7.263
 5635SOL    HW117465   3.257   4.242   7.348
 5635SOL    HW217466   3.318   4.126   7.273
 5636SOL     OW17467   2.857   4.147   6.821
 5636SOL    HW117468   2.783   4.167   6.878
 5636SOL    HW217469   2.821   4.088   6.754
 5637SOL     OW17470   2.918   4.409   6.007
 5637SOL    HW117471   2.920   4.443   6.096
 5637SOL    HW217472   2.830   4.375   5.996
 5638SOL     OW17473   2.746   4.063   5.776
 5638SOL    HW117474   2.792   4.126   5.720
 5638SOL    HW217475   2.769   3.977   5.740
 5639SOL     OW17476   3.568   4.298   7.414
 5639SOL    HW117477   3.576   4.387   7.381
 5639SOL    HW217478   3.591   4.242   7.339
 5640SOL     OW17479   2.411   3.908   6.477
 5640SOL    HW117480   2.413   3.933   6.569
 5640SOL    HW217481   2.412   3.991   6.429
 5641SOL     OW17482   3.349   4.461   6.321
 5641SOL    HW117483   3.329   4.407   6.398
 5641SOL    HW217484   3.391   0.039   6.357
 5642SOL     OW17485   2.060   4.006   7.087
 5642SOL    HW117486   1.976   4.052   7.079
 5642SOL    HW217487   2.046   3.944   7.159
 5643SOL     OW17488   3.263   3.831   6.016
 5643SOL    HW117489   3.252   3.806   5.924
 5643SOL    HW217490   3.357   3.840   6.027
 5644SOL     OW17491   2.219   4.384   5.997
 5644SOL    HW117492   2.259   4.311   6.044
 5644SOL    HW217493   2.148   4.413   6.055
 5645SOL     OW17494   3.400   3.951   7.311
 5645SOL    HW117495   3.408   3.972   7.404
 5645SOL    HW217496   3.333   3.883   7.308
 5646SOL     OW17497   2.490   3.848   5.694
 5646SOL    HW117498   2.567   3.792   5.703
 5646SOL    HW217499   2.445   3.816   5.616
 5647SOL     OW17500   2.630   4.000   7.338
 5647SOL    HW117501   2.703   3.938   7.346
 5647SOL    HW217502   2.578   3.986   7.418
 5648SOL     OW17503   3.208   4.311   7.014
 5648SOL    HW117504   3.230   4.274   7.100
 5648SOL    HW217505   3.244   4.399   7.016
 5649SOL     OW17506   2.784   4.236   6.485
 5649SOL    HW117507   2.762   4.220   6.393
 5649SOL    HW217508   2.824   4.155   6.515
 5650SOL     OW17509   2.409   3.787   6.091
 5650SOL    HW117510   2.329   3.788   6.143
 5650SOL    HW217511   2.404   3.866   6.037
 5651SOL     OW17512   2.155   3.770   5.769
 5651SOL    HW117513   2.213   3.837   5.733
 5651SOL    HW217514   2.214   3.707   5.810
 5652SOL     OW17515   2.797   3.969   6.051
 5652SOL    HW117516   2.769   4.009   5.969
 5652SOL    HW217517   2.892   3.980   6.052
 5653SOL     OW17518   2.940   4.395   7.097
 5653SOL    HW117519   2.856   4.365   7.064
 5653SOL    HW217520   3.005   4.352   7.042
 5654SOL     OW17521   2.887   4.269   5.609
 5654SOL    HW117522   2.868   4.357   5.576
 5654SOL    HW217523   2.950   4.284   5.680
 5655SOL     OW17524   1.936   4.280   6.977
 5655SOL    HW117525   2.027   4.272   6.949
 5655SOL    HW217526   1.936   4.353   7.039
 5656SOL     OW17527   2.423   3.950   6.748
 5656SOL    HW117528   2.462   3.871   6.787
 5656SOL    HW217529   2.332   3.949   6.779
 5657SOL     OW17530   2.732   4.189   6.224
 5657SOL    HW117531   2.695   4.246   6.158
 5657SOL    HW217532   2.750   4.107   6.177
 5658SOL     OW17533   2.875   3.777   6.340
 5658SOL    HW117534   2.818   3.767   6.264
 5658SOL    HW217535   2.856   3.701   6.395
 5659SOL     OW17536   3.339   4.313   6.556
 5659SOL    HW117537   3.285   4.236   6.576
 5659SOL    HW217538   3.391   4.326   6.635
 5660SOL     OW17539   3.262   4.296   5.658
 5660SOL    HW117540   3.201   4.270   5.728
 5660SOL    HW217541   3.345   4.255   5.684
 5661SOL     OW17542   2.386   3.987   5.907
 5661SOL    HW117543   2.426   3.936   5.836
 5661SOL    HW217544   2.372   4.074   5.869
 5662SOL     OW17545   2.780   3.822   6.985
 5662SOL    HW117546   2.803   3.802   6.894
 5662SOL    HW217547   2.859   3.861   7.022
 5663SOL     OW17548   2.294   0.008   6.852
 5663SOL    HW117549   2.360   0.009   6.922
 5663SOL    HW217550   2.252   4.422   6.859
 5664SOL     OW17551   3.129   4.101   6.858
 5664SOL    HW117552   3.162   4.178   6.904
 5664SOL    HW217553   3.040   4.125   6.832
 5665SOL     OW17554   2.417   4.257   6.451
 5665SOL    HW117555   2.437   4.304   6.371
 5665SOL    HW217556   2.480   4.289   6.515
 5666SOL     OW17557   3.435   4.342   6.061
 5666SOL    HW117558   3.402   4.408   6.123
 5666SOL    HW217559   3.493   4.391   6.002
 5667SOL     OW17560   2.859   3.841   7.343
 5667SOL    HW117561   2.909   3.915   7.311
 5667SOL    HW217562   2.908   3.764   7.316
 5668SOL     OW17563   2.361   3.768   7.332
 5668SOL    HW117564   2.319   3.713   7.265
 5668SOL    HW217565   2.299   3.840   7.344
 5669SOL     OW17566   3.074   4.255   5.853
 5669SOL    HW117567   3.084   4.176   5.905
 5669SOL    HW217568   3.025   4.315   5.910
 5670SOL     OW17569   2.163   3.925   6.831
 5670SOL    HW117570   2.127   3.958   6.913
 5670SOL    HW217571   2.143   3.831   6.832
 5671SOL     OW17572   2.592   4.360   6.635
 5671SOL    HW117573   2.665   4.326   6.584
 5671SOL    HW217574   2.595   4.454   6.622
 5672SOL     OW17575   3.611   0.137   7.443
 5672SOL    HW117576   3.550   0.148   7.370
 5672SOL    HW217577   3.564   0.168   7.519
 5673SOL     OW17578   2.163   3.791   6.209
 5673SOL    HW117579   2.146   3.881   6.234
 5673SOL    HW217580   2.169   3.743   6.292
 5674SOL     OW17581   3.473   4.091   5.956
 5674SOL    HW117582   3.502   4.030   6.024
 5674SOL    HW217583   3.452   4.171   6.003
 5675SOL     OW17584   3.391   3.999   5.713
 5675SOL    HW117585   3.329   3.931   5.739
 5675SOL    HW217586   3.425   4.034   5.795
 5676SOL     OW17587   2.179   0.012   6.508
 5676SOL    HW117588   2.256   0.068   6.520
 5676SOL    HW217589   2.192   4.441   6.572
 5677SOL     OW17590   2.199   4.239   6.605
 5677SOL    HW117591   2.160   4.154   6.585
 5677SOL    HW217592   2.272   4.247   6.544
 5678SOL     OW17593   3.000   4.096   7.269
 5678SOL    HW117594   2.949   4.155   7.325
 5678SOL    HW217595   3.085   4.139   7.260
 5679SOL     OW17596   3.022   3.928   7.055
 5679SOL    HW117597   3.013   3.989   7.128
 5679SOL    HW217598   3.060   3.980   6.984
 5680SOL     OW17599   1.899   4.270   6.701
 5680SOL    HW117600   1.981   4.250   6.655
 5680SOL    HW217601   1.923   4.274   6.793
 5681SOL     OW17602   2.053   4.243   7.303
 5681SOL    HW117603   2.111   4.201   7.239
 5681SOL    HW217604   1.998   4.301   7.251
 5682SOL     OW17605   2.681   4.285   5.928
 5682SOL    HW117606   2.678   4.209   5.871
 5682SOL    HW217607   2.593   4.323   5.921
 5683SOL     OW17608   3.501   4.319   6.776
 5683SOL    HW117609   3.494   4.260   6.851
 5683SOL    HW217610   3.588   4.304   6.741
 5684SOL     OW17611   2.546   4.182   6.845
 5684SOL    HW117612   2.501   4.104   6.812
 5684SOL    HW217613   2.549   4.241   6.769
 5685SOL     OW17614   2.343   4.222   5.777
 5685SOL    HW117615   2.379   4.309   5.793
 5685SOL    HW217616   2.248   4.236   5.769
 5686SOL     OW17617   3.580   3.866   6.099
 5686SOL    HW117618   3.654   3.852   6.039
 5686SOL    HW217619   3.565   3.780   6.138
 5687SOL     OW17620   3.142   0.138   6.265
 5687SOL    HW117621   3.200   0.062   6.270
 5687SOL    HW217622   3.191   0.203   6.215
 5688SOL     OW17623   3.701   3.897   6.554
 5688SOL    HW117624   3.730   3.811   6.524
 5688SOL    HW217625   3.615   3.908   6.514
 5689SOL     OW17626   2.126   4.042   6.304
 5689SOL    HW117627   2.039   4.075   6.279
 5689SOL    HW217628   2.120   4.031   6.399
 5690SOL     OW17629   2.774   0.093   5.813
 5690SOL    HW117630   2.855   0.135   5.785
 5690SOL    HW217631   2.796   0.050   5.896
 5691SOL     OW17632   2.929   0.306   6.321
 5691SOL    HW117633   2.844   0.286   6.283
 5691SOL    HW217634   2.988   0.240   6.285
 5692SOL     OW17635   2.881   3.964   6.551
 5692SOL    HW117636   2.876   3.915   6.469
 5692SOL    HW217637   2.876   3.897   6.619
 5693SOL     OW17638   3.581   4.114   6.967
 5693SOL    HW117639   3.652   4.178   6.963
 5693SOL    HW217640   3.610   4.043   6.910
 5694SOL     OW17641   2.534   3.919   7.085
 5694SOL    HW117642   2.618   3.902   7.042
 5694SOL    HW217643   2.558   3.949   7.172
 5695SOL     OW17644   1.936   4.048   5.616
 5695SOL    HW117645   1.848   4.040   5.580
 5695SOL    HW217646   1.968   4.132   5.583
 5696SOL     OW17647   1.933   3.882   5.900
 5696SOL    HW117648   1.917   3.962   5.850
 5696SOL    HW217649   2.018   3.850   5.869
 5697SOL     OW17650   2.586   4.289   7.290
 5697SOL    HW117651   2.595   4.337   7.372
 5697SOL    HW217652   2.617   4.200   7.311
 5698SOL     OW17653   3.081   4.043   6.041
 5698SOL    HW117654   3.145   3.972   6.031
 5698SOL    HW217655   3.110   4.090   6.119
 5699SOL     OW17656   3.626   4.087   7.233
 5699SOL    HW117657   3.608   4.097   7.140
 5699SOL    HW217658   3.556   4.029   7.265
 5700SOL     OW17659   2.971   0.230   5.691
 5700SOL    HW117660   2.949   0.270   5.606
 5700SOL    HW217661   3.049   0.177   5.672
 5701SOL     OW17662   3.676   3.909   6.824
 5701SOL    HW117663   3.686   3.815   6.840
 5701SOL    HW217664   3.685   3.919   6.729
 5702SOL     OW17665   2.306   4.152   6.124
 5702SOL    HW117666   2.323   4.084   6.059
 5702SOL    HW217667   2.249   4.111   6.189
 5703SOL     OW17668   2.185   4.265   6.879
 5703SOL    HW117669   2.241   4.210   6.934
 5703SOL    HW217670   2.206   4.239   6.789
 5704SOL     OW17671   3.294   3.947   6.704
 5704SOL    HW117672   3.323   3.870   6.752
 5704SOL    HW217673   3.242   3.996   6.767
 5705SOL     OW17674   2.870   3.745   6.732
 5705SOL    HW117675   2.816   3.676   6.693
 5705SOL    HW217676   2.958   3.708   6.733
 5706SOL     OW17677   3.214   3.778   5.749
 5706SOL    HW117678   3.240   3.718   5.679
 5706SOL    HW217679   3.128   3.746   5.776
 5707SOL     OW17680   3.161   4.177   6.269
 5707SOL    HW117681   3.119   4.261   6.283
 5707SOL    HW217682   3.162   4.135   6.355
 5708SOL     OW17683   3.449   3.930   6.462
 5708SOL    HW117684   3.385   3.948   6.531
 5708SOL    HW217685   3.450   4.009   6.408
 5709SOL     OW17686   2.088   4.292   7.571
 5709SOL    HW117687   2.026   4.356   7.607
 5709SOL    HW217688   2.077   4.299   7.476
 5710SOL     OW17689   2.086   4.000   8.438
 5710SOL    HW117690   2.114   3.969   8.524
 5710SOL    HW217691   1.996   3.969   8.429
 5711SOL     OW17692   1.868   4.102   8.091
 5711SOL    HW117693   1.785   4.129   8.129
 5711SOL    HW217694   1.847   4.025   8.039
 5712SOL     OW17695   3.598   4.335   7.684
 5712SOL    HW117696   3.596   4.320   7.590
 5712SOL    HW217697   3.595   4.247   7.722
 5713SOL     OW17698   2.587   0.266   8.130
 5713SOL    HW117699   2.586   0.208   8.206
 5713SOL    HW217700   2.494   0.285   8.113
 5714SOL     OW17701   2.308   4.119   8.936
 5714SOL    HW117702   2.385   4.062   8.943
 5714SOL    HW217703   2.234   4.060   8.951
 5715SOL     OW17704   3.477   4.173   8.186
 5715SOL    HW117705   3.404   4.201   8.130
 5715SOL    HW217706   3.487   4.245   8.249
 5716SOL     OW17707   3.458   3.844   8.918
 5716SOL    HW117708   3.455   3.923   8.864
 5716SOL    HW217709   3.447   3.876   9.008
 5717SOL     OW17710   1.946   4.368   8.013
 5717SOL    HW117711   1.935   4.276   8.037
 5717SOL    HW217712   2.000   4.405   8.083
 5718SOL     OW17713   1.982   4.472   9.032
 5718SOL    HW117714   2.053   4.486   9.095
 5718SOL    HW217715   1.949   0.060   9.014
 5719SOL     OW17716   2.674   3.723   7.953
 5719SOL    HW117717   2.714   3.808   7.938
 5719SOL    HW217718   2.581   3.742   7.964
 5720SOL     OW17719   2.192   3.976   9.253
 5720SOL    HW117720   2.237   4.059   9.270
 5720SOL    HW217721   2.103   3.989   9.286
 5721SOL     OW17722   3.140   4.069   8.380
 5721SOL    HW117723   3.051   4.036   8.389
 5721SOL    HW217724   3.192   4.019   8.443
 5722SOL     OW17725   2.685   4.310   8.900
 5722SOL    HW117726   2.643   4.315   8.985
 5722SOL    HW217727   2.620   4.268   8.843
 5723SOL     OW17728   3.258   4.199   9.124
 5723SOL    HW117729   3.257   4.242   9.210
 5723SOL    HW217730   3.318   4.126   9.135
 5724SOL     OW17731   2.857   4.146   8.683
 5724SOL    HW117732   2.783   4.167   8.740
 5724SOL    HW217733   2.821   4.089   8.616
 5725SOL     OW17734   2.918   4.409   7.869
 5725SOL    HW117735   2.920   4.443   7.958
 5725SOL    HW217736   2.830   4.375   7.857
 5726SOL     OW17737   2.747   4.063   7.639
 5726SOL    HW117738   2.792   4.126   7.582
 5726SOL    HW217739   2.768   3.977   7.602
 5727SOL     OW17740   3.568   4.298   9.276
 5727SOL    HW117741   3.576   4.387   9.243
 5727SOL    HW217742   3.591   4.242   9.201
 5728SOL     OW17743   2.412   3.908   8.339
 5728SOL    HW117744   2.413   3.934   8.431
 5728SOL    HW217745   2.411   3.990   8.291
 5729SOL     OW17746   3.349   4.461   8.183
 5729SOL    HW117747   3.329   4.407   8.260
 5729SOL    HW217748   3.391   0.039   8.219
 5730SOL     OW17749   2.060   4.006   8.949
 5730SOL    HW117750   1.977   4.052   8.941
 5730SOL    HW217751   2.046   3.944   9.021
 5731SOL     OW17752   3.263   3.831   7.878
 5731SOL    HW117753   3.252   3.806   7.786
 5731SOL    HW217754   3.357   3.840   7.889
 5732SOL     OW17755   2.219   4.384   7.860
 5732SOL    HW117756   2.259   4.310   7.906
 5732SOL    HW217757   2.148   4.413   7.917
 5733SOL     OW17758   3.400   3.951   9.173
 5733SOL    HW117759   3.408   3.972   9.266
 5733SOL    HW217760   3.332   3.883   9.170
 5734SOL     OW17761   2.491   3.849   7.555
 5734SOL    HW117762   2.566   3.791   7.565
 5734SOL    HW217763   2.445   3.816   7.478
 5735SOL     OW17764   2.630   4.000   9.200
 5735SOL    HW117765   2.703   3.938   9.208
 5735SOL    HW217766   2.578   3.986   9.280
 5736SOL     OW17767   3.208   4.311   8.876
 5736SOL    HW117768   3.230   4.274   8.962
 5736SOL    HW217769   3.244   4.399   8.878
 5737SOL     OW17770   2.784   4.236   8.347
 5737SOL    HW117771   2.762   4.220   8.255
 5737SOL    HW217772   2.823   4.155   8.377
 5738SOL     OW17773   2.410   3.787   7.953
 5738SOL    HW117774   2.329   3.788   8.005
 5738SOL    HW217775   2.404   3.866   7.899
 5739SOL     OW17776   2.155   3.770   7.632
 5739SOL    HW117777   2.213   3.837   7.595
 5739SOL    HW217778   2.213   3.706   7.672
 5740SOL     OW17779   2.797   3.969   7.913
 5740SOL    HW117780   2.769   4.009   7.831
 5740SOL    HW217781   2.892   3.980   7.913
 5741SOL     OW17782   2.940   4.395   8.959
 5741SOL    HW117783   2.856   4.365   8.926
 5741SOL    HW217784   3.005   4.351   8.904
 5742SOL     OW17785   2.887   4.269   7.471
 5742SOL    HW117786   2.867   4.357   7.438
 5742SOL    HW217787   2.950   4.284   7.542
 5743SOL     OW17788   1.936   4.280   8.839
 5743SOL    HW117789   2.027   4.272   8.811
 5743SOL    HW217790   1.936   4.353   8.901
 5744SOL     OW17791   2.423   3.950   8.610
 5744SOL    HW117792   2.462   3.871   8.648
 5744SOL    HW217793   2.332   3.949   8.641
 5745SOL     OW17794   2.733   4.189   8.086
 5745SOL    HW117795   2.694   4.246   8.020
 5745SOL    HW217796   2.750   4.107   8.039
 5746SOL     OW17797   2.876   3.777   8.202
 5746SOL    HW117798   2.817   3.768   8.126
 5746SOL    HW217799   2.856   3.701   8.256
 5747SOL     OW17800   3.339   4.313   8.418
 5747SOL    HW117801   3.284   4.236   8.438
 5747SOL    HW217802   3.391   4.326   8.497
 5748SOL     OW17803   3.262   4.296   7.520
 5748SOL    HW117804   3.201   4.270   7.590
 5748SOL    HW217805   3.345   4.255   7.546
 5749SOL     OW17806   2.386   3.987   7.769
 5749SOL    HW117807   2.426   3.936   7.698
 5749SOL    HW217808   2.372   4.074   7.731
 5750SOL     OW17809   2.780   3.822   8.847
 5750SOL    HW117810   2.803   3.802   8.756
 5750SOL    HW217811   2.859   3.861   8.884
 5751SOL     OW17812   2.294   0.008   8.714
 5751SOL    HW117813   2.360   0.009   8.784
 5751SOL    HW217814   2.252   4.422   8.721
 5752SOL     OW17815   3.129   4.101   8.720
 5752SOL    HW117816   3.162   4.178   8.766
 5752SOL    HW217817   3.040   4.125   8.694
 5753SOL     OW17818   2.417   4.257   8.313
 5753SOL    HW117819   2.437   4.304   8.233
 5753SOL    HW217820   2.480   4.289   8.377
 5754SOL     OW17821   3.435   4.343   7.923
 5754SOL    HW117822   3.403   4.408   7.985
 5754SOL    HW217823   3.493   4.391   7.864
 5755SOL     OW17824   2.859   3.841   9.206
 5755SOL    HW117825   2.909   3.915   9.173
 5755SOL    HW217826   2.908   3.764   9.178
 5756SOL     OW17827   2.361   3.768   9.194
 5756SOL    HW117828   2.319   3.713   9.127
 5756SOL    HW217829   2.299   3.840   9.206
 5757SOL     OW17830   3.074   4.256   7.715
 5757SOL    HW117831   3.083   4.176   7.767
 5757SOL    HW217832   3.025   4.315   7.772
 5758SOL     OW17833   2.163   3.925   8.693
 5758SOL    HW117834   2.127   3.958   8.775
 5758SOL    HW217835   2.143   3.831   8.694
 5759SOL     OW17836   2.592   4.360   8.497
 5759SOL    HW117837   2.665   4.326   8.446
 5759SOL    HW217838   2.595   4.454   8.484
 5760SOL     OW17839   3.611   0.137   9.305
 5760SOL    HW117840   3.550   0.148   9.232
 5760SOL    HW217841   3.564   0.168   9.381
 5761SOL     OW17842   2.164   3.790   8.071
 5761SOL    HW117843   2.146   3.881   8.096
 5761SOL    HW217844   2.169   3.743   8.153
 5762SOL     OW17845   3.473   4.091   7.818
 5762SOL    HW117846   3.502   4.030   7.886
 5762SOL    HW217847   3.452   4.171   7.865
 5763SOL     OW17848   3.391   3.999   7.575
 5763SOL    HW117849   3.329   3.931   7.601
 5763SOL    HW217850   3.425   4.034   7.657
 5764SOL     OW17851   2.179   0.012   8.370
 5764SOL    HW117852   2.256   0.068   8.382
 5764SOL    HW217853   2.192   4.441   8.433
 5765SOL     OW17854   2.199   4.239   8.467
 5765SOL    HW117855   2.160   4.154   8.447
 5765SOL    HW217856   2.272   4.247   8.406
 5766SOL     OW17857   3.000   4.096   9.131
 5766SOL    HW117858   2.949   4.155   9.187
 5766SOL    HW217859   3.085   4.139   9.122
 5767SOL     OW17860   3.022   3.928   8.917
 5767SOL    HW117861   3.013   3.989   8.990
 5767SOL    HW217862   3.060   3.980   8.846
 5768SOL     OW17863   1.899   4.270   8.563
 5768SOL    HW117864   1.980   4.250   8.517
 5768SOL    HW217865   1.924   4.274   8.655
 5769SOL     OW17866   2.053   4.243   9.165
 5769SOL    HW117867   2.111   4.201   9.101
 5769SOL    HW217868   1.998   4.301   9.113
 5770SOL     OW17869   2.681   4.286   7.790
 5770SOL    HW117870   2.678   4.209   7.733
 5770SOL    HW217871   2.593   4.323   7.783
 5771SOL     OW17872   3.501   4.319   8.638
 5771SOL    HW117873   3.494   4.260   8.713
 5771SOL    HW217874   3.588   4.304   8.603
 5772SOL     OW17875   2.546   4.182   8.707
 5772SOL    HW117876   2.501   4.104   8.674
 5772SOL    HW217877   2.549   4.241   8.631
 5773SOL     OW17878   2.343   4.222   7.639
 5773SOL    HW117879   2.379   4.309   7.655
 5773SOL    HW217880   2.249   4.236   7.631
 5774SOL     OW17881   3.580   3.866   7.961
 5774SOL    HW117882   3.654   3.852   7.901
 5774SOL    HW217883   3.565   3.780   8.000
 5775SOL     OW17884   3.142   0.138   8.127
 5775SOL    HW117885   3.200   0.062   8.132
 5775SOL    HW217886   3.192   0.203   8.077
 5776SOL     OW17887   3.701   3.897   8.416
 5776SOL    HW117888   3.730   3.811   8.386
 5776SOL    HW217889   3.615   3.908   8.376
 5777SOL     OW17890   2.126   4.042   8.166
 5777SOL    HW117891   2.039   4.075   8.141
 5777SOL    HW217892   2.120   4.031   8.261
 5778SOL     OW17893   2.774   0.093   7.675
 5778SOL    HW117894   2.855   0.136   7.647
 5778SOL    HW217895   2.796   0.050   7.757
 5779SOL     OW17896   2.929   0.306   8.183
 5779SOL    HW117897   2.844   0.286   8.145
 5779SOL    HW217898   2.988   0.240   8.147
 5780SOL     OW17899   2.881   3.964   8.413
 5780SOL    HW117900   2.876   3.915   8.331
 5780SOL    HW217901   2.876   3.897   8.481
 5781SOL     OW17902   3.581   4.114   8.829
 5781SOL    HW117903   3.652   4.178   8.825
 5781SOL    HW217904   3.610   4.043   8.772
 5782SOL     OW17905   2.534   3.919   8.947
 5782SOL    HW117906   2.618   3.902   8.904
 5782SOL    HW217907   2.558   3.949   9.034
 5783SOL     OW17908   1.937   4.048   7.478
 5783SOL    HW117909   1.848   4.039   7.443
 5783SOL    HW217910   1.968   4.132   7.444
 5784SOL     OW17911   1.933   3.882   7.762
 5784SOL    HW117912   1.917   3.962   7.711
 5784SOL    HW217913   2.017   3.850   7.731
 5785SOL     OW17914   2.586   4.289   9.152
 5785SOL    HW117915   2.594   4.337   9.235
 5785SOL    HW217916   2.617   4.200   9.173
 5786SOL     OW17917   3.082   4.043   7.903
 5786SOL    HW117918   3.145   3.972   7.894
 5786SOL    HW217919   3.110   4.090   7.981
 5787SOL     OW17920   3.626   4.087   9.095
 5787SOL    HW117921   3.608   4.097   9.002
 5787SOL    HW217922   3.556   4.029   9.127
 5788SOL     OW17923   2.971   0.230   7.553
 5788SOL    HW117924   2.948   0.269   7.468
 5788SOL    HW217925   3.049   0.177   7.534
 5789SOL     OW17926   3.676   3.909   8.686
 5789SOL    HW117927   3.686   3.815   8.702
 5789SOL    HW217928   3.685   3.919   8.591
 5790SOL     OW17929   2.307   4.152   7.986
 5790SOL    HW117930   2.323   4.084   7.921
 5790SOL    HW217931   2.249   4.111   8.051
 5791SOL     OW17932   2.185   4.265   8.741
 5791SOL    HW117933   2.241   4.210   8.796
 5791SOL    HW217934   2.206   4.239   8.651
 5792SOL     OW17935   3.294   3.947   8.566
 5792SOL    HW117936   3.324   3.870   8.614
 5792SOL    HW217937   3.242   3.996   8.629
 5793SOL     OW17938   2.870   3.745   8.594
 5793SOL    HW117939   2.815   3.676   8.556
 5793SOL    HW217940   2.958   3.708   8.595
 5794SOL     OW17941   3.214   3.778   7.611
 5794SOL    HW117942   3.240   3.718   7.541
 5794SOL    HW217943   3.128   3.746   7.639
 5795SOL     OW17944   3.161   4.177   8.131
 5795SOL    HW117945   3.118   4.261   8.145
 5795SOL    HW217946   3.162   4.135   8.217
 5796SOL     OW17947   3.449   3.930   8.324
 5796SOL    HW117948   3.385   3.948   8.393
 5796SOL    HW217949   3.450   4.009   8.270
 5797SOL     OW17950   2.088   4.292   9.433
 5797SOL    HW117951   2.026   4.356   9.469
 5797SOL    HW217952   2.077   4.299   9.338
 5798SOL     OW17953   2.086   4.000  10.300
 5798SOL    HW117954   2.114   3.970  10.386
 5798SOL    HW217955   1.996   3.969  10.291
 5799SOL     OW17956   1.868   4.102   9.953
 5799SOL    HW117957   1.785   4.129   9.991
 5799SOL    HW217958   1.847   4.025   9.901
 5800SOL     OW17959   3.598   4.335   9.546
 5800SOL    HW117960   3.596   4.320   9.452
 5800SOL    HW217961   3.595   4.247   9.584
 5801SOL     OW17962   2.587   0.266   9.992
 5801SOL    HW117963   2.586   0.208  10.068
 5801SOL    HW217964   2.495   0.285   9.975
 5802SOL     OW17965   2.313   4.119  10.794
 5802SOL    HW117966   2.384   4.055  10.802
 5802SOL    HW217967   2.234   4.071  10.816
 5803SOL     OW17968   3.477   4.173  10.048
 5803SOL    HW117969   3.404   4.201   9.992
 5803SOL    HW217970   3.488   4.245  10.111
 5804SOL     OW17971   3.452   3.839  10.780
 5804SOL    HW117972   3.458   3.919  10.728
 5804SOL    HW217973   3.450   3.870  10.871
 5805SOL     OW17974   1.946   4.368   9.875
 5805SOL    HW117975   1.935   4.276   9.899
 5805SOL    HW217976   2.000   4.405   9.945
 5806SOL     OW17977   1.988   4.458  10.908
 5806SOL    HW117978   2.083   4.464  10.913
 5806SOL    HW217979   1.959   0.048  10.892
 5807SOL     OW17980   2.674   3.723   9.815
 5807SOL    HW117981   2.714   3.808   9.800
 5807SOL    HW217982   2.581   3.742   9.826
 5808SOL     OW17983   2.201   3.979   0.014
 5808SOL    HW117984   2.246   4.062   0.032
 5808SOL    HW217985   2.109   3.997   0.034
 5809SOL     OW17986   3.140   4.070  10.242
 5809SOL    HW117987   3.051   4.036  10.251
 5809SOL    HW217988   3.192   4.019  10.305
 5810SOL     OW17989   2.684   4.305  10.767
 5810SOL    HW117990   2.636   4.318  10.849
 5810SOL    HW217991   2.620   4.266  10.708
 5811SOL     OW17992   2.857   4.145  10.546
 5811SOL    HW117993   2.780   4.167  10.600
 5811SOL    HW217994   2.823   4.089  10.477
 5812SOL     OW17995   2.918   4.409   9.731
 5812SOL    HW117996   2.919   4.443   9.820
 5812SOL    HW217997   2.830   4.375   9.719
 5813SOL     OW17998   2.747   4.063   9.501
 5813SOL    HW117999   2.792   4.126   9.444
 5813SOL    HW218000   2.768   3.977   9.464
 5814SOL     OW18001   2.412   3.908  10.201
 5814SOL    HW118002   2.413   3.934  10.294
 5814SOL    HW218003   2.411   3.990  10.153
 5815SOL     OW18004   3.350   4.461  10.045
 5815SOL    HW118005   3.328   4.408  10.122
 5815SOL    HW218006   3.391   0.039  10.081
 5816SOL     OW18007   2.063   4.005  10.806
 5816SOL    HW118008   1.982   4.057  10.805
 5816SOL    HW218009   2.053   3.947  10.882
 5817SOL     OW18010   3.263   3.831   9.740
 5817SOL    HW118011   3.252   3.806   9.648
 5817SOL    HW218012   3.357   3.840   9.751
 5818SOL     OW18013   2.219   4.384   9.722
 5818SOL    HW118014   2.259   4.310   9.768
 5818SOL    HW218015   2.149   4.413   9.779
 5819SOL     OW18016   2.491   3.849   9.417
 5819SOL    HW118017   2.566   3.791   9.427
 5819SOL    HW218018   2.445   3.816   9.340
 5820SOL     OW18019   2.631   3.997  11.046
 5820SOL    HW118020   2.697   3.940  11.084
 5820SOL    HW218021   2.571   4.017   0.017
 5821SOL     OW18022   3.214   4.308  10.744
 5821SOL    HW118023   3.238   4.286  10.834
 5821SOL    HW218024   3.238   4.400  10.735
 5822SOL     OW18025   2.784   4.236  10.209
 5822SOL    HW118026   2.762   4.220  10.117
 5822SOL    HW218027   2.823   4.154  10.239
 5823SOL     OW18028   2.410   3.787   9.815
 5823SOL    HW118029   2.329   3.788   9.867
 5823SOL    HW218030   2.404   3.866   9.761
 5824SOL     OW18031   2.155   3.770   9.493
 5824SOL    HW118032   2.213   3.837   9.457
 5824SOL    HW218033   2.213   3.706   9.534
 5825SOL     OW18034   2.797   3.969   9.775
 5825SOL    HW118035   2.769   4.009   9.693
 5825SOL    HW218036   2.892   3.980   9.775
 5826SOL     OW18037   2.942   4.389  10.811
 5826SOL    HW118038   2.856   4.362  10.780
 5826SOL    HW218039   3.004   4.343  10.755
 5827SOL     OW18040   2.887   4.269   9.333
 5827SOL    HW118041   2.867   4.357   9.300
 5827SOL    HW218042   2.950   4.284   9.404
 5828SOL     OW18043   1.934   4.282  10.703
 5828SOL    HW118044   2.026   4.274  10.675
 5828SOL    HW218045   1.936   4.341  10.778
 5829SOL     OW18046   2.423   3.950  10.473
 5829SOL    HW118047   2.461   3.870  10.511
 5829SOL    HW218048   2.332   3.950  10.503
 5830SOL     OW18049   2.733   4.189   9.948
 5830SOL    HW118050   2.694   4.246   9.882
 5830SOL    HW218051   2.750   4.107   9.901
 5831SOL     OW18052   2.875   3.777  10.064
 5831SOL    HW118053   2.817   3.768   9.988
 5831SOL    HW218054   2.856   3.701  10.118
 5832SOL     OW18055   3.338   4.313  10.280
 5832SOL    HW118056   3.285   4.236  10.300
 5832SOL    HW218057   3.391   4.326  10.359
 5833SOL     OW18058   3.262   4.296   9.382
 5833SOL    HW118059   3.201   4.270   9.452
 5833SOL    HW218060   3.345   4.255   9.408
 5834SOL     OW18061   2.386   3.987   9.631
 5834SOL    HW118062   2.426   3.936   9.560
 5834SOL    HW218063   2.372   4.074   9.593
 5835SOL     OW18064   2.780   3.822  10.709
 5835SOL    HW118065   2.803   3.802  10.618
 5835SOL    HW218066   2.859   3.863  10.745
 5836SOL     OW18067   2.296   0.006  10.570
 5836SOL    HW118068   2.355   0.011  10.645
 5836SOL    HW218069   2.250   4.423  10.581
 5837SOL     OW18070   3.129   4.100  10.584
 5837SOL    HW118071   3.163   4.178  10.628
 5837SOL    HW218072   3.041   4.126  10.556
 5838SOL     OW18073   2.418   4.256  10.175
 5838SOL    HW118074   2.437   4.305  10.095
 5838SOL    HW218075   2.480   4.289  10.240
 5839SOL     OW18076   3.435   4.342   9.785
 5839SOL    HW118077   3.403   4.408   9.847
 5839SOL    HW218078   3.493   4.391   9.726
 5840SOL     OW18079   2.265   4.464  10.906
 5840SOL    HW118080   2.331   0.029  10.884
 5840SOL    HW218081   2.315   4.383  10.921
 5841SOL     OW18082   3.074   4.256   9.577
 5841SOL    HW118083   3.083   4.176   9.629
 5841SOL    HW218084   3.025   4.315   9.634
 5842SOL     OW18085   2.163   3.925  10.554
 5842SOL    HW118086   2.129   3.959  10.637
 5842SOL    HW218087   2.142   3.832  10.556
 5843SOL     OW18088   2.592   4.360  10.359
 5843SOL    HW118089   2.665   4.326  10.307
 5843SOL    HW218090   2.594   4.455  10.345
 5844SOL     OW18091   2.164   3.790   9.933
 5844SOL    HW118092   2.146   3.881   9.958
 5844SOL    HW218093   2.169   3.743  10.015
 5845SOL     OW18094   3.473   4.091   9.680
 5845SOL    HW118095   3.502   4.030   9.748
 5845SOL    HW218096   3.452   4.171   9.727
 5846SOL     OW18097   3.391   3.999   9.437
 5846SOL    HW118098   3.329   3.931   9.463
 5846SOL    HW218099   3.425   4.034   9.519
 5847SOL     OW18100   2.180   0.012  10.232
 5847SOL    HW118101   2.256   0.068  10.245
 5847SOL    HW218102   2.191   4.441  10.296
 5848SOL     OW18103   2.199   4.239  10.328
 5848SOL    HW118104   2.160   4.154  10.308
 5848SOL    HW218105   2.272   4.246  10.267
 5849SOL     OW18106   3.019   3.933  10.781
 5849SOL    HW118107   3.026   3.993  10.856
 5849SOL    HW218108   3.058   3.982  10.708
 5850SOL     OW18109   1.899   4.271  10.425
 5850SOL    HW118110   1.981   4.251  10.380
 5850SOL    HW218111   1.923   4.275  10.518
 5851SOL     OW18112   3.219   0.181  10.989
 5851SOL    HW118113   3.274   0.259  10.997
 5851SOL    HW218114   3.228   0.155  10.897
 5852SOL     OW18115   2.681   4.286   9.652
 5852SOL    HW118116   2.678   4.209   9.595
 5852SOL    HW218117   2.593   4.323   9.645
 5853SOL     OW18118   3.500   4.319  10.499
 5853SOL    HW118119   3.495   4.260  10.574
 5853SOL    HW218120   3.588   4.305  10.463
 5854SOL     OW18121   2.550   4.181  10.568
 5854SOL    HW118122   2.502   4.104  10.538
 5854SOL    HW218123   2.549   4.241  10.494
 5855SOL     OW18124   2.343   4.222   9.501
 5855SOL    HW118125   2.378   4.309   9.517
 5855SOL    HW218126   2.249   4.236   9.493
 5856SOL     OW18127   3.580   3.866   9.823
 5856SOL    HW118128   3.654   3.852   9.763
 5856SOL    HW218129   3.565   3.780   9.862
 5857SOL     OW18130   3.142   0.138   9.989
 5857SOL    HW118131   3.200   0.062   9.994
 5857SOL    HW218132   3.192   0.203   9.938
 5858SOL     OW18133   3.701   3.897  10.279
 5858SOL    HW118134   3.731   3.811  10.248
 5858SOL    HW218135   3.615   3.908  10.238
 5859SOL     OW18136   2.126   4.042  10.028
 5859SOL    HW118137   2.039   4.075  10.003
 5859SOL    HW218138   2.120   4.031  10.123
 5860SOL     OW18139   2.774   0.093   9.537
 5860SOL    HW118140   2.855   0.136   9.509
 5860SOL    HW218141   2.796   0.050   9.619
 5861SOL     OW18142   2.929   0.306  10.046
 5861SOL    HW118143   2.844   0.287  10.007
 5861SOL    HW218144   2.988   0.240  10.009
 5862SOL     OW18145   2.881   3.964  10.275
 5862SOL    HW118146   2.876   3.916  10.193
 5862SOL    HW218147   2.876   3.896  10.343
 5863SOL     OW18148   3.578   4.116  10.689
 5863SOL    HW118149   3.650   4.180  10.688
 5863SOL    HW218150   3.609   4.045  10.633
 5864SOL     OW18151   2.534   3.918  10.804
 5864SOL    HW118152   2.616   3.900  10.759
 5864SOL    HW218153   2.561   3.952  10.890
 5865SOL     OW18154   1.937   4.048   9.340
 5865SOL    HW118155   1.848   4.039   9.305
 5865SOL    HW218156   1.968   4.132   9.306
 5866SOL     OW18157   1.933   3.882   9.624
 5866SOL    HW118158   1.917   3.962   9.574
 5866SOL    HW218159   2.017   3.850   9.593
 5867SOL     OW18160   2.580   4.298  11.025
 5867SOL    HW118161   2.615   4.344   0.001
 5867SOL    HW218162   2.623   4.212  11.027
 5868SOL     OW18163   3.082   4.043   9.765
 5868SOL    HW118164   3.145   3.972   9.756
 5868SOL    HW218165   3.110   4.090   9.843
 5869SOL     OW18166   3.618   4.052  10.951
 5869SOL    HW118167   3.597   4.082  10.863
 5869SOL    HW218168   3.534   4.053  10.998
 5870SOL     OW18169   2.971   0.230   9.415
 5870SOL    HW118170   2.948   0.269   9.330
 5870SOL    HW218171   3.049   0.177   9.396
 5871SOL     OW18172   3.674   3.909  10.549
 5871SOL    HW118173   3.685   3.815  10.564
 5871SOL    HW218174   3.684   3.919  10.454
 5872SOL     OW18175   2.307   4.152   9.848
 5872SOL    HW118176   2.323   4.084   9.783
 5872SOL    HW218177   2.249   4.111   9.913
 5873SOL     OW18178   2.183   4.264  10.602
 5873SOL    HW118179   2.239   4.210  10.659
 5873SOL    HW218180   2.206   4.238  10.513
 5874SOL     OW18181   3.293   3.947  10.428
 5874SOL    HW118182   3.325   3.870  10.475
 5874SOL    HW218183   3.242   3.995  10.492
 5875SOL     OW18184   2.870   3.745  10.456
 5875SOL    HW118185   2.815   3.677  10.418
 5875SOL    HW218186   2.958   3.708  10.458
 5876SOL     OW18187   3.214   3.778   9.473
 5876SOL    HW118188   3.240   3.718   9.403
 5876SOL    HW218189   3.128   3.746   9.501
 5877SOL     OW18190   3.161   4.176   9.993
 5877SOL    HW118191   3.118   4.261  10.007
 5877SOL    HW218192   3.162   4.135  10.079
 5878SOL     OW18193   3.449   3.930  10.186
 5878SOL    HW118194   3.385   3.948  10.255
 5878SOL    HW218195   3.450   4.009  10.132
 5879SOL     OW18196   3.952   0.616   0.119
 5879SOL    HW118197   3.865   0.621   0.159
 5879SOL    HW218198   3.936   0.626   0.025
 5880SOL     OW18199   3.933   0.298   0.988
 5880SOL    HW118200   3.966   0.270   1.073
 5880SOL    HW218201   3.852   0.248   0.976
 5881SOL     OW18202   3.732   0.383   0.639
 5881SOL    HW118203   3.646   0.404   0.676
 5881SOL    HW218204   3.716   0.307   0.584
 5882SOL     OW18205   4.270   1.251   1.147
 5882SOL    HW118206   4.193   1.303   1.124
 5882SOL    HW218207   4.328   1.313   1.192
 5883SOL     OW18208   0.026   0.781   1.857
 5883SOL    HW118209   0.072   0.835   1.922
 5883SOL    HW218210   0.066   0.806   1.774
 5884SOL     OW18211   4.398   0.995   0.644
 5884SOL    HW118212   4.471   0.993   0.705
 5884SOL    HW218213   4.334   1.054   0.684
 5885SOL     OW18214   4.418   1.161   1.815
 5885SOL    HW118215   4.462   1.242   1.790
 5885SOL    HW218216   4.328   1.173   1.786
 5886SOL     OW18217   4.059   1.434   1.069
 5886SOL    HW118218   3.987   1.393   1.021
 5886SOL    HW218219   4.108   1.482   1.002
 5887SOL     OW18220   4.163   0.396   1.490
 5887SOL    HW118221   4.242   0.342   1.491
 5887SOL    HW218222   4.092   0.334   1.503
 5888SOL     OW18223   3.943   1.712   0.477
 5888SOL    HW118224   3.966   1.790   0.527
 5888SOL    HW218225   4.010   1.707   0.409
 5889SOL     OW18226   3.951   1.439   0.532
 5889SOL    HW118227   3.936   1.533   0.539
 5889SOL    HW218228   3.890   1.401   0.595
 5890SOL     OW18229   3.973   1.089   0.886
 5890SOL    HW118230   3.977   1.005   0.932
 5890SOL    HW218231   3.919   1.144   0.943
 5891SOL     OW18232   4.359   1.798   1.451
 5891SOL    HW118233   4.273   1.764   1.477
 5891SOL    HW218234   4.349   1.893   1.453
 5892SOL     OW18235   4.302   0.999   0.137
 5892SOL    HW118236   4.319   1.063   0.068
 5892SOL    HW218237   4.381   1.001   0.192
 5893SOL     OW18238   3.838   0.650   0.559
 5893SOL    HW118239   3.809   0.562   0.582
 5893SOL    HW218240   3.830   0.699   0.641
 5894SOL     OW18241   3.765   1.602   0.121
 5894SOL    HW118242   3.738   1.513   0.142
 5894SOL    HW218243   3.738   1.655   0.196
 5895SOL     OW18244   3.845   0.743   1.586
 5895SOL    HW118245   3.937   0.765   1.603
 5895SOL    HW218246   3.799   0.826   1.592
 5896SOL     OW18247   4.314   1.385   0.737
 5896SOL    HW118248   4.278   1.297   0.741
 5896SOL    HW218249   4.313   1.407   0.644
 5897SOL     OW18250   0.016   0.010   0.506
 5897SOL    HW118251   0.049   0.079   0.448
 5897SOL    HW218252   4.427   0.037   0.528
 5898SOL     OW18253   3.914   0.968   1.269
 5898SOL    HW118254   3.999   0.927   1.251
 5898SOL    HW218255   3.851   0.912   1.226
 5899SOL     OW18256   4.039   0.254   1.785
 5899SOL    HW118257   4.101   0.320   1.814
 5899SOL    HW218258   3.964   0.264   1.843
 5900SOL     OW18259   4.308   0.720   0.269
 5900SOL    HW118260   4.330   0.795   0.213
 5900SOL    HW218261   4.244   0.755   0.331
 5901SOL     OW18262   3.813   0.820   0.775
 5901SOL    HW118263   3.895   0.812   0.824
 5901SOL    HW218264   3.771   0.899   0.810
 5902SOL     OW18265   3.853   1.837   1.575
 5902SOL    HW118266   3.850   1.819   1.669
 5902SOL    HW218267   3.762   1.844   1.549
 5903SOL     OW18268   4.253   0.201   0.893
 5903SOL    HW118269   4.285   0.218   0.982
 5903SOL    HW218270   4.265   0.284   0.848
 5904SOL     OW18271   4.081   1.809   0.859
 5904SOL    HW118272   4.129   1.726   0.866
 5904SOL    HW218273   4.148   1.876   0.870
 5905SOL     OW18274   4.042   0.957   0.273
 5905SOL    HW118275   4.120   0.983   0.224
 5905SOL    HW218276   4.014   0.875   0.232
 5906SOL     OW18277   4.179   1.254   1.735
 5906SOL    HW118278   4.151   1.265   1.644
 5906SOL    HW218279   4.098   1.263   1.786
 5907SOL     OW18280   3.914   0.270   1.508
 5907SOL    HW118281   3.846   0.335   1.490
 5907SOL    HW218282   3.920   0.267   1.604
 5908SOL     OW18283   4.193   1.734   0.325
 5908SOL    HW118284   4.223   1.794   0.394
 5908SOL    HW218285   4.267   1.726   0.266
 5909SOL     OW18286   3.978   1.793   1.234
 5909SOL    HW118287   4.027   1.725   1.281
 5909SOL    HW218288   3.965   1.756   1.146
 5910SOL     OW18289   4.108   0.694   0.476
 5910SOL    HW118290   4.136   0.603   0.488
 5910SOL    HW218291   4.015   0.694   0.499
 5911SOL     OW18292   4.343   0.132   0.103
 5911SOL    HW118293   4.426   0.096   0.133
 5911SOL    HW218294   4.320   0.079   0.027
 5912SOL     OW18295   0.018   1.425   0.915
 5912SOL    HW118296   0.090   1.455   0.860
 5912SOL    HW218297   4.446   1.409   0.854
 5913SOL     OW18298   4.271   0.106   0.537
 5913SOL    HW118299   4.186   0.070   0.561
 5913SOL    HW218300   4.254   0.156   0.457
 5914SOL     OW18301   4.013   0.058   0.197
 5914SOL    HW118302   4.078   0.112   0.152
 5914SOL    HW218303   4.063   0.006   0.259
 5915SOL     OW18304   0.320   0.682   1.454
 5915SOL    HW118305   0.245   0.623   1.448
 5915SOL    HW218306   0.396   0.626   1.435
 5916SOL     OW18307   4.190   1.145   0.738
 5916SOL    HW118308   4.119   1.127   0.800
 5916SOL    HW218309   4.151   1.128   0.652
 5917SOL     OW18310   3.804   0.551   1.393
 5917SOL    HW118311   3.894   0.555   1.362
 5917SOL    HW218312   3.797   0.623   1.456
 5918SOL     OW18313   4.294   0.234   1.157
 5918SOL    HW118314   4.307   0.142   1.178
 5918SOL    HW218315   4.206   0.254   1.187
 5919SOL     OW18316   4.234   1.401   0.189
 5919SOL    HW118317   4.148   1.385   0.229
 5919SOL    HW218318   4.218   1.389   0.095
 5920SOL     OW18319   4.246   0.266   0.319
 5920SOL    HW118320   4.286   0.213   0.250
 5920SOL    HW218321   4.229   0.350   0.278
 5921SOL     OW18322   4.139   0.813   1.250
 5921SOL    HW118323   4.206   0.824   1.317
 5921SOL    HW218324   4.104   0.725   1.264
 5922SOL     OW18325   3.792   1.572   1.349
 5922SOL    HW118326   3.758   1.645   1.297
 5922SOL    HW218327   3.887   1.581   1.344
 5923SOL     OW18328   4.077   1.111   0.496
 5923SOL    HW118329   4.076   1.185   0.435
 5923SOL    HW218330   4.071   1.033   0.440
 5924SOL     OW18331   4.300   0.539   0.862
 5924SOL    HW118332   4.302   0.605   0.793
 5924SOL    HW218333   4.360   0.571   0.929
 5925SOL     OW18334   4.073   1.529   1.319
 5925SOL    HW118335   4.065   1.486   1.233
 5925SOL    HW218336   4.167   1.533   1.335
 5926SOL     OW18337   4.136   0.743   1.604
 5926SOL    HW118338   4.193   0.789   1.543
 5926SOL    HW218339   4.181   0.660   1.621
 5927SOL     OW18340   4.236   0.068   1.729
 5927SOL    HW118341   4.201   4.488   1.690
 5927SOL    HW218342   4.158   0.121   1.748
 5928SOL     OW18343   4.292   0.885   1.026
 5928SOL    HW118344   4.326   0.974   1.038
 5928SOL    HW218345   4.243   0.866   1.106
 5929SOL     OW18346   4.014   0.238   1.240
 5929SOL    HW118347   3.974   0.250   1.326
 5929SOL    HW218348   4.045   0.147   1.240
 5930SOL     OW18349   3.770   1.310   1.277
 5930SOL    HW118350   3.803   1.257   1.350
 5930SOL    HW218351   3.777   1.400   1.308
 5931SOL     OW18352   4.018   0.061   0.655
 5931SOL    HW118353   4.011   0.157   0.661
 5931SOL    HW218354   4.033   0.032   0.745
 5932SOL     OW18355   4.077   0.916   1.807
 5932SOL    HW118356   4.158   0.932   1.854
 5932SOL    HW218357   4.099   0.852   1.739
 5933SOL     OW18358   4.032   0.809   0.947
 5933SOL    HW118359   4.124   0.836   0.946
 5933SOL    HW218360   4.034   0.720   0.981
 5934SOL     OW18361   4.066   0.529   1.010
 5934SOL    HW118362   4.023   0.445   0.991
 5934SOL    HW218363   4.143   0.529   0.953
 5935SOL     OW18364   3.731   1.328   0.195
 5935SOL    HW118365   3.644   1.339   0.157
 5935SOL    HW218366   3.732   1.237   0.225
 5936SOL     OW18367   3.815   1.790   0.937
 5936SOL    HW118368   3.785   1.710   0.894
 5936SOL    HW218369   3.905   1.801   0.905
 5937SOL     OW18370   4.232   1.581   0.906
 5937SOL    HW118371   4.316   1.619   0.930
 5937SOL    HW218372   4.255   1.508   0.848
 5938SOL     OW18373   3.758   0.543   1.117
 5938SOL    HW118374   3.836   0.519   1.067
 5938SOL    HW218375   3.789   0.548   1.208
 5939SOL     OW18376   3.909   0.517   1.720
 5939SOL    HW118377   3.981   0.495   1.660
 5939SOL    HW218378   3.865   0.592   1.679
 5940SOL     OW18379   0.031   0.554   0.271
 5940SOL    HW118380   0.016   0.479   0.330
 5940SOL    HW218381   4.464   0.617   0.295
 5941SOL     OW18382   3.972   1.554   1.731
 5941SOL    HW118383   3.945   1.616   1.798
 5941SOL    HW218384   3.968   1.469   1.774
 5942SOL     OW18385   4.192   0.491   0.178
 5942SOL    HW118386   4.249   0.563   0.205
 5942SOL    HW218387   4.104   0.529   0.175
 5943SOL     OW18388   3.872   1.139   1.471
 5943SOL    HW118389   3.877   1.085   1.550
 5943SOL    HW218390   3.888   1.078   1.399
 5944SOL     OW18391   3.807   1.267   1.014
 5944SOL    HW118392   3.794   1.277   1.108
 5944SOL    HW218393   3.735   1.213   0.984
 5945SOL     OW18394   4.390   1.652   1.703
 5945SOL    HW118395   4.357   1.739   1.724
 5945SOL    HW218396   4.442   1.665   1.623
 5946SOL     OW18397   3.859   1.797   1.844
 5946SOL    HW118398   3.808   1.732   1.892
 5946SOL    HW218399   3.908   1.845   1.911
 5947SOL     OW18400   3.990   0.328   0.719
 5947SOL    HW118401   3.904   0.359   0.693
 5947SOL    HW218402   3.984   0.315   0.813
 5948SOL     OW18403   4.090   1.304   1.491
 5948SOL    HW118404   4.072   1.381   1.437
 5948SOL    HW218405   4.016   1.245   1.474
 5949SOL     OW18406   4.324   1.489   0.482
 5949SOL    HW118407   4.345   1.433   0.408
 5949SOL    HW218408   4.259   1.551   0.448
 5950SOL     OW18409   3.988   1.344   0.287
 5950SOL    HW118410   3.899   1.344   0.252
 5950SOL    HW218411   3.980   1.382   0.374
 5951SOL     OW18412   3.835   1.018   1.719
 5951SOL    HW118413   3.759   0.995   1.773
 5951SOL    HW218414   3.910   0.983   1.767
 5952SOL     OW18415   4.374   0.205   1.489
 5952SOL    HW118416   4.464   0.215   1.457
 5952SOL    HW218417   4.385   0.183   1.582
 5953SOL     OW18418   3.802   0.349   0.053
 5953SOL    HW118419   3.724   0.311   0.011
 5953SOL    HW218420   3.821   0.428   0.001
 5954SOL     OW18421   3.791   0.178   0.326
 5954SOL    HW118422   3.785   0.246   0.259
 5954SOL    HW218423   3.864   0.123   0.298
 5955SOL     OW18424   4.337   0.840   1.434
 5955SOL    HW118425   4.381   0.923   1.419
 5955SOL    HW218426   4.407   0.776   1.445
 5956SOL     OW18427   4.402   0.558   1.731
 5956SOL    HW118428   4.427   0.634   1.784
 5956SOL    HW218429   4.485   0.515   1.710
 5957SOL     OW18430   4.109   1.739   1.560
 5957SOL    HW118431   4.022   1.778   1.549
 5957SOL    HW218432   4.092   1.656   1.606
 5958SOL     OW18433   4.311   0.732   0.663
 5958SOL    HW118434   4.353   0.818   0.654
 5958SOL    HW218435   4.239   0.734   0.600
 5959SOL     OW18436   3.944   1.307   1.855
 5959SOL    HW118437   3.878   1.244   1.828
 5959SOL    HW218438   3.930   1.318   1.949
 5960SOL     OW18439   3.807   1.235   0.664
 5960SOL    HW118440   3.809   1.185   0.746
 5960SOL    HW218441   3.878   1.199   0.611
 5961SOL     OW18442   4.412   1.387   1.650
 5961SOL    HW118443   4.322   1.353   1.653
 5961SOL    HW218444   4.402   1.481   1.668
 5962SOL     OW18445   4.161   0.432   0.527
 5962SOL    HW118446   4.181   0.359   0.469
 5962SOL    HW218447   4.108   0.394   0.597
 5963SOL     OW18448   4.052   0.554   1.289
 5963SOL    HW118449   4.104   0.495   1.343
 5963SOL    HW218450   4.071   0.528   1.199
 5964SOL     OW18451   0.036   1.593   0.686
 5964SOL    HW118452   0.059   1.649   0.611
 5964SOL    HW218453   4.463   1.541   0.654
 5965SOL     OW18454   3.766   1.072   0.300
 5965SOL    HW118455   3.862   1.066   0.296
 5965SOL    HW218456   3.737   0.985   0.327
 5966SOL     OW18457   3.955   0.628   1.981
 5966SOL    HW118458   3.867   0.621   2.018
 5966SOL    HW218459   3.945   0.594   1.892
 5967SOL     OW18460   3.932   0.299   2.850
 5967SOL    HW118461   3.966   0.270   2.935
 5967SOL    HW218462   3.852   0.248   2.838
 5968SOL     OW18463   3.732   0.384   2.502
 5968SOL    HW118464   3.646   0.404   2.538
 5968SOL    HW218465   3.718   0.308   2.445
 5969SOL     OW18466   4.271   1.252   3.007
 5969SOL    HW118467   4.193   1.303   2.986
 5969SOL    HW218468   4.328   1.313   3.054
 5970SOL     OW18469   0.026   0.781   3.719
 5970SOL    HW118470   0.072   0.835   3.784
 5970SOL    HW218471   0.066   0.806   3.636
 5971SOL     OW18472   4.399   0.997   2.505
 5971SOL    HW118473   4.470   0.990   2.569
 5971SOL    HW218474   4.334   1.054   2.547
 5972SOL     OW18475   4.418   1.161   3.677
 5972SOL    HW118476   4.462   1.242   3.652
 5972SOL    HW218477   4.328   1.173   3.648
 5973SOL     OW18478   4.058   1.434   2.931
 5973SOL    HW118479   3.986   1.393   2.883
 5973SOL    HW218480   4.107   1.482   2.864
 5974SOL     OW18481   4.163   0.396   3.352
 5974SOL    HW118482   4.242   0.342   3.353
 5974SOL    HW218483   4.091   0.334   3.364
 5975SOL     OW18484   3.943   1.713   2.337
 5975SOL    HW118485   3.967   1.790   2.390
 5975SOL    HW218486   4.014   1.706   2.273
 5976SOL     OW18487   3.953   1.439   2.395
 5976SOL    HW118488   3.936   1.533   2.403
 5976SOL    HW218489   3.892   1.399   2.457
 5977SOL     OW18490   3.973   1.089   2.749
 5977SOL    HW118491   3.977   1.004   2.794
 5977SOL    HW218492   3.919   1.144   2.805
 5978SOL     OW18493   4.359   1.798   3.313
 5978SOL    HW118494   4.273   1.764   3.338
 5978SOL    HW218495   4.348   1.893   3.315
 5979SOL     OW18496   4.311   0.984   1.998
 5979SOL    HW118497   4.339   1.038   1.925
 5979SOL    HW218498   4.378   0.996   2.065
 5980SOL     OW18499   3.839   0.651   2.421
 5980SOL    HW118500   3.810   0.562   2.443
 5980SOL    HW218501   3.830   0.699   2.503
 5981SOL     OW18502   3.754   1.597   1.986
 5981SOL    HW118503   3.736   1.505   2.005
 5981SOL    HW218504   3.729   1.643   2.066
 5982SOL     OW18505   3.845   0.743   3.448
 5982SOL    HW118506   3.936   0.765   3.465
 5982SOL    HW218507   3.799   0.826   3.454
 5983SOL     OW18508   4.315   1.385   2.599
 5983SOL    HW118509   4.278   1.297   2.603
 5983SOL    HW218510   4.313   1.407   2.506
 5984SOL     OW18511   0.019   0.018   2.376
 5984SOL    HW118512   0.048   0.081   2.310
 5984SOL    HW218513   4.428   0.041   2.393
 5985SOL     OW18514   3.914   0.968   3.131
 5985SOL    HW118515   3.999   0.927   3.113
 5985SOL    HW218516   3.850   0.912   3.088
 5986SOL     OW18517   4.039   0.254   3.647
 5986SOL    HW118518   4.101   0.320   3.676
 5986SOL    HW218519   3.964   0.264   3.705
 5987SOL     OW18520   4.312   0.729   2.131
 5987SOL    HW118521   4.313   0.804   2.072
 5987SOL    HW218522   4.243   0.749   2.195
 5988SOL     OW18523   3.813   0.820   2.637
 5988SOL    HW118524   3.894   0.812   2.687
 5988SOL    HW218525   3.771   0.899   2.672
 5989SOL     OW18526   3.853   1.838   3.437
 5989SOL    HW118527   3.850   1.820   3.531
 5989SOL    HW218528   3.762   1.844   3.411
 5990SOL     OW18529   4.251   0.201   2.757
 5990SOL    HW118530   4.286   0.218   2.844
 5990SOL    HW218531   4.265   0.282   2.708
 5991SOL     OW18532   4.081   1.809   2.721
 5991SOL    HW118533   4.129   1.726   2.728
 5991SOL    HW218534   4.148   1.876   2.732
 5992SOL     OW18535   4.045   0.956   2.110
 5992SOL    HW118536   4.127   0.974   2.064
 5992SOL    HW218537   4.014   0.874   2.072
 5993SOL     OW18538   4.179   1.254   3.597
 5993SOL    HW118539   4.151   1.265   3.506
 5993SOL    HW218540   4.098   1.263   3.648
 5994SOL     OW18541   3.914   0.270   3.370
 5994SOL    HW118542   3.847   0.335   3.352
 5994SOL    HW218543   3.919   0.267   3.466
 5995SOL     OW18544   4.193   1.735   2.187
 5995SOL    HW118545   4.223   1.794   2.256
 5995SOL    HW218546   4.263   1.736   2.122
 5996SOL     OW18547   3.979   1.793   3.095
 5996SOL    HW118548   4.027   1.725   3.143
 5996SOL    HW218549   3.965   1.756   3.008
 5997SOL     OW18550   4.110   0.695   2.336
 5997SOL    HW118551   4.137   0.604   2.349
 5997SOL    HW218552   4.017   0.695   2.358
 5998SOL     OW18553   4.328   0.124   1.978
 5998SOL    HW118554   4.414   0.084   1.993
 5998SOL    HW218555   4.305   0.099   1.889
 5999SOL     OW18556   0.017   1.427   2.778
 5999SOL    HW118557   0.090   1.453   2.723
 5999SOL    HW218558   4.446   1.410   2.716
 6000SOL     OW18559   4.270   0.106   2.400
 6000SOL    HW118560   4.185   0.066   2.418
 6000SOL    HW218561   4.256   0.157   2.320
 6001SOL     OW18562   4.023   0.074   2.053
 6001SOL    HW118563   4.102   0.124   2.035
 6001SOL    HW218564   4.053   4.499   2.105
 6002SOL     OW18565   0.320   0.682   3.317
 6002SOL    HW118566   0.245   0.623   3.310
 6002SOL    HW218567   0.396   0.626   3.296
 6003SOL     OW18568   4.189   1.145   2.598
 6003SOL    HW118569   4.119   1.127   2.661
 6003SOL    HW218570   4.150   1.127   2.513
 6004SOL     OW18571   3.804   0.551   3.255
 6004SOL    HW118572   3.894   0.555   3.224
 6004SOL    HW218573   3.797   0.623   3.318
 6005SOL     OW18574   4.295   0.235   3.020
 6005SOL    HW118575   4.307   0.142   3.039
 6005SOL    HW218576   4.206   0.254   3.049
 6006SOL     OW18577   4.229   1.387   2.034
 6006SOL    HW118578   4.145   1.372   2.077
 6006SOL    HW218579   4.207   1.404   1.943
 6007SOL     OW18580   4.247   0.269   2.185
 6007SOL    HW118581   4.285   0.213   2.118
 6007SOL    HW218582   4.228   0.352   2.140
 6008SOL     OW18583   4.139   0.813   3.112
 6008SOL    HW118584   4.206   0.824   3.179
 6008SOL    HW218585   4.104   0.725   3.126
 6009SOL     OW18586   3.792   1.572   3.212
 6009SOL    HW118587   3.758   1.644   3.159
 6009SOL    HW218588   3.887   1.581   3.206
 6010SOL     OW18589   4.077   1.106   2.353
 6010SOL    HW118590   4.077   1.179   2.291
 6010SOL    HW218591   4.075   1.028   2.298
 6011SOL     OW18592   4.299   0.539   2.724
 6011SOL    HW118593   4.301   0.605   2.655
 6011SOL    HW218594   4.360   0.572   2.790
 6012SOL     OW18595   4.073   1.530   3.181
 6012SOL    HW118596   4.065   1.486   3.095
 6012SOL    HW218597   4.167   1.533   3.197
 6013SOL     OW18598   4.136   0.743   3.466
 6013SOL    HW118599   4.193   0.789   3.405
 6013SOL    HW218600   4.181   0.660   3.483
 6014SOL     OW18601   4.235   0.068   3.591
 6014SOL    HW118602   4.201   4.488   3.552
 6014SOL    HW218603   4.158   0.121   3.610
 6015SOL     OW18604   4.292   0.885   2.888
 6015SOL    HW118605   4.326   0.974   2.901
 6015SOL    HW218606   4.243   0.866   2.968
 6016SOL     OW18607   4.014   0.238   3.102
 6016SOL    HW118608   3.974   0.250   3.188
 6016SOL    HW218609   4.045   0.147   3.102
 6017SOL     OW18610   3.771   1.310   3.139
 6017SOL    HW118611   3.803   1.257   3.212
 6017SOL    HW218612   3.777   1.400   3.170
 6018SOL     OW18613   4.013   0.060   2.518
 6018SOL    HW118614   4.010   0.155   2.522
 6018SOL    HW218615   4.032   0.033   2.608
 6019SOL     OW18616   4.077   0.916   3.669
 6019SOL    HW118617   4.159   0.931   3.716
 6019SOL    HW218618   4.099   0.852   3.601
 6020SOL     OW18619   4.032   0.809   2.809
 6020SOL    HW118620   4.124   0.836   2.808
 6020SOL    HW218621   4.034   0.720   2.842
 6021SOL     OW18622   4.066   0.529   2.872
 6021SOL    HW118623   4.023   0.445   2.853
 6021SOL    HW218624   4.143   0.529   2.815
 6022SOL     OW18625   3.729   1.323   2.057
 6022SOL    HW118626   3.642   1.336   2.020
 6022SOL    HW218627   3.728   1.233   2.090
 6023SOL     OW18628   3.815   1.790   2.799
 6023SOL    HW118629   3.785   1.710   2.756
 6023SOL    HW218630   3.905   1.801   2.767
 6024SOL     OW18631   4.232   1.581   2.767
 6024SOL    HW118632   4.316   1.619   2.793
 6024SOL    HW218633   4.255   1.508   2.710
 6025SOL     OW18634   3.758   0.543   2.979
 6025SOL    HW118635   3.835   0.519   2.928
 6025SOL    HW218636   3.789   0.548   3.070
 6026SOL     OW18637   3.909   0.517   3.582
 6026SOL    HW118638   3.981   0.495   3.522
 6026SOL    HW218639   3.865   0.592   3.541
 6027SOL     OW18640   0.032   0.555   2.128
 6027SOL    HW118641   0.020   0.480   2.187
 6027SOL    HW218642   4.464   0.617   2.154
 6028SOL     OW18643   3.972   1.554   3.593
 6028SOL    HW118644   3.944   1.616   3.660
 6028SOL    HW218645   3.968   1.469   3.636
 6029SOL     OW18646   4.193   0.494   2.048
 6029SOL    HW118647   4.250   0.569   2.068
 6029SOL    HW218648   4.106   0.532   2.039
 6030SOL     OW18649   3.873   1.139   3.333
 6030SOL    HW118650   3.877   1.085   3.412
 6030SOL    HW218651   3.888   1.078   3.261
 6031SOL     OW18652   3.808   1.268   2.876
 6031SOL    HW118653   3.794   1.277   2.970
 6031SOL    HW218654   3.735   1.213   2.846
 6032SOL     OW18655   4.390   1.652   3.565
 6032SOL    HW118656   4.357   1.739   3.586
 6032SOL    HW218657   4.442   1.665   3.485
 6033SOL     OW18658   3.859   1.797   3.706
 6033SOL    HW118659   3.808   1.732   3.754
 6033SOL    HW218660   3.908   1.845   3.773
 6034SOL     OW18661   3.991   0.328   2.581
 6034SOL    HW118662   3.904   0.359   2.555
 6034SOL    HW218663   3.984   0.315   2.675
 6035SOL     OW18664   4.090   1.304   3.353
 6035SOL    HW118665   4.072   1.381   3.299
 6035SOL    HW218666   4.016   1.245   3.336
 6036SOL     OW18667   4.325   1.490   2.344
 6036SOL    HW118668   4.344   1.431   2.271
 6036SOL    HW218669   4.260   1.552   2.309
 6037SOL     OW18670   3.983   1.351   2.147
 6037SOL    HW118671   3.890   1.347   2.125
 6037SOL    HW218672   3.985   1.386   2.236
 6038SOL     OW18673   3.835   1.019   3.581
 6038SOL    HW118674   3.759   0.995   3.635
 6038SOL    HW218675   3.910   0.983   3.629
 6039SOL     OW18676   4.374   0.205   3.351
 6039SOL    HW118677   4.463   0.216   3.318
 6039SOL    HW218678   4.385   0.183   3.444
 6040SOL     OW18679   3.804   0.344   1.908
 6040SOL    HW118680   3.732   0.293   1.872
 6040SOL    HW218681   3.820   0.412   1.843
 6041SOL     OW18682   3.790   0.179   2.184
 6041SOL    HW118683   3.787   0.246   2.116
 6041SOL    HW218684   3.866   0.125   2.162
 6042SOL     OW18685   4.337   0.840   3.296
 6042SOL    HW118686   4.382   0.923   3.281
 6042SOL    HW218687   4.407   0.776   3.306
 6043SOL     OW18688   4.403   0.558   3.594
 6043SOL    HW118689   4.428   0.633   3.646
 6043SOL    HW218690   4.485   0.515   3.572
 6044SOL     OW18691   4.109   1.739   3.422
 6044SOL    HW118692   4.022   1.778   3.411
 6044SOL    HW218693   4.092   1.656   3.468
 6045SOL     OW18694   4.311   0.733   2.526
 6045SOL    HW118695   4.353   0.818   2.514
 6045SOL    HW218696   4.240   0.733   2.462
 6046SOL     OW18697   3.944   1.307   3.717
 6046SOL    HW118698   3.878   1.244   3.690
 6046SOL    HW218699   3.930   1.319   3.811
 6047SOL     OW18700   3.808   1.236   2.526
 6047SOL    HW118701   3.808   1.186   2.607
 6047SOL    HW218702   3.877   1.197   2.473
 6048SOL     OW18703   4.412   1.387   3.512
 6048SOL    HW118704   4.322   1.353   3.516
 6048SOL    HW218705   4.402   1.481   3.530
 6049SOL     OW18706   4.162   0.434   2.392
 6049SOL    HW118707   4.182   0.363   2.330
 6049SOL    HW218708   4.109   0.393   2.459
 6050SOL     OW18709   4.052   0.554   3.151
 6050SOL    HW118710   4.104   0.495   3.205
 6050SOL    HW218711   4.071   0.528   3.061
 6051SOL     OW18712   0.038   1.594   2.547
 6051SOL    HW118713   0.057   1.650   2.472
 6051SOL    HW218714   4.464   1.540   2.518
 6052SOL     OW18715   3.768   1.073   2.166
 6052SOL    HW118716   3.862   1.063   2.150
 6052SOL    HW218717   3.738   0.986   2.190
 6053SOL     OW18718   3.955   0.627   3.843
 6053SOL    HW118719   3.867   0.621   3.880
 6053SOL    HW218720   3.945   0.594   3.754
 6054SOL     OW18721   3.932   0.298   4.712
 6054SOL    HW118722   3.966   0.270   4.797
 6054SOL    HW218723   3.852   0.248   4.700
 6055SOL     OW18724   3.732   0.384   4.364
 6055SOL    HW118725   3.646   0.404   4.400
 6055SOL    HW218726   3.718   0.308   4.307
 6056SOL     OW18727   4.272   1.252   4.869
 6056SOL    HW118728   4.193   1.302   4.848
 6056SOL    HW218729   4.328   1.313   4.916
 6057SOL     OW18730   0.026   0.781   5.581
 6057SOL    HW118731   0.071   0.835   5.646
 6057SOL    HW218732   0.066   0.806   5.498
 6058SOL     OW18733   4.399   0.997   4.367
 6058SOL    HW118734   4.469   0.990   4.432
 6058SOL    HW218735   4.334   1.054   4.409
 6059SOL     OW18736   4.418   1.161   5.539
 6059SOL    HW118737   4.462   1.242   5.514
 6059SOL    HW218738   4.327   1.173   5.510
 6060SOL     OW18739   4.059   1.434   4.793
 6060SOL    HW118740   3.986   1.393   4.746
 6060SOL    HW218741   4.107   1.482   4.726
 6061SOL     OW18742   4.163   0.396   5.214
 6061SOL    HW118743   4.242   0.342   5.215
 6061SOL    HW218744   4.091   0.334   5.226
 6062SOL     OW18745   3.943   1.713   4.199
 6062SOL    HW118746   3.967   1.790   4.252
 6062SOL    HW218747   4.014   1.706   4.135
 6063SOL     OW18748   3.953   1.440   4.258
 6063SOL    HW118749   3.935   1.533   4.265
 6063SOL    HW218750   3.892   1.399   4.319
 6064SOL     OW18751   3.974   1.089   4.611
 6064SOL    HW118752   3.977   1.004   4.656
 6064SOL    HW218753   3.919   1.144   4.667
 6065SOL     OW18754   4.359   1.798   5.176
 6065SOL    HW118755   4.273   1.763   5.200
 6065SOL    HW218756   4.348   1.893   5.177
 6066SOL     OW18757   4.311   0.984   3.860
 6066SOL    HW118758   4.340   1.038   3.787
 6066SOL    HW218759   4.378   0.996   3.927
 6067SOL     OW18760   3.839   0.651   4.283
 6067SOL    HW118761   3.810   0.562   4.305
 6067SOL    HW218762   3.830   0.700   4.365
 6068SOL     OW18763   3.754   1.597   3.848
 6068SOL    HW118764   3.736   1.504   3.867
 6068SOL    HW218765   3.729   1.643   3.928
 6069SOL     OW18766   3.845   0.743   5.310
 6069SOL    HW118767   3.936   0.765   5.327
 6069SOL    HW218768   3.798   0.826   5.315
 6070SOL     OW18769   4.315   1.385   4.461
 6070SOL    HW118770   4.278   1.297   4.465
 6070SOL    HW218771   4.313   1.407   4.368
 6071SOL     OW18772   0.019   0.018   4.238
 6071SOL    HW118773   0.048   0.081   4.172
 6071SOL    HW218774   4.428   0.041   4.255
 6072SOL     OW18775   3.914   0.968   4.994
 6072SOL    HW118776   3.999   0.927   4.975
 6072SOL    HW218777   3.850   0.913   4.949
 6073SOL     OW18778   4.039   0.254   5.509
 6073SOL    HW118779   4.101   0.320   5.538
 6073SOL    HW218780   3.964   0.264   5.567
 6074SOL     OW18781   4.312   0.729   3.993
 6074SOL    HW118782   4.313   0.804   3.934
 6074SOL    HW218783   4.243   0.749   4.057
 6075SOL     OW18784   3.813   0.820   4.499
 6075SOL    HW118785   3.894   0.812   4.549
 6075SOL    HW218786   3.771   0.898   4.534
 6076SOL     OW18787   3.853   1.837   5.299
 6076SOL    HW118788   3.849   1.820   5.393
 6076SOL    HW218789   3.762   1.844   5.272
 6077SOL     OW18790   4.252   0.201   4.619
 6077SOL    HW118791   4.286   0.219   4.706
 6077SOL    HW218792   4.265   0.282   4.571
 6078SOL     OW18793   4.081   1.809   4.582
 6078SOL    HW118794   4.128   1.726   4.591
 6078SOL    HW218795   4.148   1.876   4.594
 6079SOL     OW18796   4.045   0.956   3.972
 6079SOL    HW118797   4.127   0.974   3.926
 6079SOL    HW218798   4.014   0.874   3.934
 6080SOL     OW18799   4.179   1.254   5.459
 6080SOL    HW118800   4.151   1.265   5.368
 6080SOL    HW218801   4.098   1.263   5.510
 6081SOL     OW18802   3.914   0.270   5.232
 6081SOL    HW118803   3.847   0.335   5.213
 6081SOL    HW218804   3.919   0.267   5.328
 6082SOL     OW18805   4.193   1.736   4.049
 6082SOL    HW118806   4.223   1.794   4.118
 6082SOL    HW218807   4.263   1.735   3.984
 6083SOL     OW18808   3.980   1.793   4.957
 6083SOL    HW118809   4.027   1.725   5.005
 6083SOL    HW218810   3.964   1.756   4.871
 6084SOL     OW18811   4.110   0.694   4.198
 6084SOL    HW118812   4.137   0.603   4.211
 6084SOL    HW218813   4.017   0.695   4.220
 6085SOL     OW18814   4.328   0.124   3.840
 6085SOL    HW118815   4.414   0.084   3.854
 6085SOL    HW218816   4.305   0.099   3.751
 6086SOL     OW18817   0.017   1.427   4.640
 6086SOL    HW118818   0.091   1.453   4.584
 6086SOL    HW218819   4.446   1.410   4.579
 6087SOL     OW18820   4.270   0.106   4.262
 6087SOL    HW118821   4.185   0.066   4.281
 6087SOL    HW218822   4.256   0.157   4.182
 6088SOL     OW18823   4.023   0.073   3.915
 6088SOL    HW118824   4.102   0.124   3.897
 6088SOL    HW218825   4.053   4.500   3.968
 6089SOL     OW18826   0.321   0.682   5.179
 6089SOL    HW118827   0.245   0.624   5.172
 6089SOL    HW218828   0.395   0.626   5.158
 6090SOL     OW18829   4.189   1.145   4.460
 6090SOL    HW118830   4.119   1.127   4.523
 6090SOL    HW218831   4.150   1.127   4.375
 6091SOL     OW18832   3.804   0.551   5.118
 6091SOL    HW118833   3.894   0.555   5.086
 6091SOL    HW218834   3.797   0.623   5.180
 6092SOL     OW18835   4.295   0.235   4.883
 6092SOL    HW118836   4.307   0.142   4.901
 6092SOL    HW218837   4.206   0.254   4.911
 6093SOL     OW18838   4.229   1.387   3.896
 6093SOL    HW118839   4.145   1.372   3.939
 6093SOL    HW218840   4.206   1.404   3.805
 6094SOL     OW18841   4.246   0.269   4.047
 6094SOL    HW118842   4.285   0.213   3.980
 6094SOL    HW218843   4.228   0.352   4.002
 6095SOL     OW18844   4.139   0.813   4.973
 6095SOL    HW118845   4.206   0.824   5.041
 6095SOL    HW218846   4.104   0.725   4.988
 6096SOL     OW18847   3.791   1.571   5.074
 6096SOL    HW118848   3.756   1.644   5.023
 6096SOL    HW218849   3.886   1.583   5.068
 6097SOL     OW18850   4.077   1.106   4.215
 6097SOL    HW118851   4.077   1.179   4.153
 6097SOL    HW218852   4.075   1.028   4.160
 6098SOL     OW18853   4.299   0.539   4.586
 6098SOL    HW118854   4.301   0.605   4.517
 6098SOL    HW218855   4.360   0.572   4.652
 6099SOL     OW18856   4.074   1.530   5.042
 6099SOL    HW118857   4.065   1.486   4.958
 6099SOL    HW218858   4.168   1.533   5.059
 6100SOL     OW18859   4.136   0.743   5.328
 6100SOL    HW118860   4.193   0.789   5.267
 6100SOL    HW218861   4.181   0.660   5.345
 6101SOL     OW18862   4.235   0.068   5.453
 6101SOL    HW118863   4.201   4.488   5.414
 6101SOL    HW218864   4.158   0.121   5.472
 6102SOL     OW18865   4.293   0.885   4.750
 6102SOL    HW118866   4.325   0.974   4.763
 6102SOL    HW218867   4.243   0.866   4.830
 6103SOL     OW18868   4.014   0.238   4.964
 6103SOL    HW118869   3.974   0.250   5.050
 6103SOL    HW218870   4.045   0.147   4.964
 6104SOL     OW18871   3.772   1.310   5.001
 6104SOL    HW118872   3.804   1.257   5.074
 6104SOL    HW218873   3.777   1.400   5.032
 6105SOL     OW18874   4.013   0.060   4.380
 6105SOL    HW118875   4.010   0.155   4.384
 6105SOL    HW218876   4.032   0.033   4.470
 6106SOL     OW18877   4.077   0.916   5.531
 6106SOL    HW118878   4.159   0.932   5.578
 6106SOL    HW218879   4.099   0.852   5.463
 6107SOL     OW18880   4.032   0.809   4.671
 6107SOL    HW118881   4.124   0.836   4.670
 6107SOL    HW218882   4.034   0.720   4.705
 6108SOL     OW18883   4.066   0.528   4.734
 6108SOL    HW118884   4.023   0.445   4.715
 6108SOL    HW218885   4.143   0.529   4.677
 6109SOL     OW18886   3.729   1.322   3.919
 6109SOL    HW118887   3.642   1.336   3.882
 6109SOL    HW218888   3.728   1.233   3.952
 6110SOL     OW18889   3.815   1.790   4.660
 6110SOL    HW118890   3.784   1.710   4.617
 6110SOL    HW218891   3.905   1.801   4.629
 6111SOL     OW18892   4.232   1.581   4.629
 6111SOL    HW118893   4.316   1.619   4.655
 6111SOL    HW218894   4.255   1.508   4.572
 6112SOL     OW18895   3.758   0.542   4.841
 6112SOL    HW118896   3.835   0.519   4.791
 6112SOL    HW218897   3.789   0.548   4.932
 6113SOL     OW18898   3.909   0.517   5.444
 6113SOL    HW118899   3.981   0.495   5.384
 6113SOL    HW218900   3.865   0.592   5.403
 6114SOL     OW18901   0.032   0.555   3.990
 6114SOL    HW118902   0.020   0.480   4.049
 6114SOL    HW218903   4.464   0.617   4.016
 6115SOL     OW18904   3.974   1.554   5.455
 6115SOL    HW118905   3.944   1.617   5.521
 6115SOL    HW218906   3.968   1.469   5.499
 6116SOL     OW18907   4.193   0.494   3.910
 6116SOL    HW118908   4.250   0.569   3.930
 6116SOL    HW218909   4.106   0.532   3.901
 6117SOL     OW18910   3.873   1.140   5.196
 6117SOL    HW118911   3.876   1.085   5.274
 6117SOL    HW218912   3.888   1.078   5.124
 6118SOL     OW18913   3.808   1.267   4.738
 6118SOL    HW118914   3.794   1.277   4.832
 6118SOL    HW218915   3.734   1.214   4.708
 6119SOL     OW18916   4.391   1.652   5.427
 6119SOL    HW118917   4.356   1.739   5.448
 6119SOL    HW218918   4.441   1.666   5.346
 6120SOL     OW18919   3.860   1.796   5.568
 6120SOL    HW118920   3.809   1.732   5.616
 6120SOL    HW218921   3.908   1.845   5.635
 6121SOL     OW18922   3.991   0.328   4.443
 6121SOL    HW118923   3.904   0.359   4.417
 6121SOL    HW218924   3.984   0.315   4.537
 6122SOL     OW18925   4.090   1.304   5.214
 6122SOL    HW118926   4.072   1.381   5.162
 6122SOL    HW218927   4.016   1.245   5.198
 6123SOL     OW18928   4.325   1.490   4.206
 6123SOL    HW118929   4.343   1.431   4.133
 6123SOL    HW218930   4.260   1.551   4.171
 6124SOL     OW18931   3.983   1.351   4.009
 6124SOL    HW118932   3.890   1.347   3.987
 6124SOL    HW218933   3.985   1.386   4.098
 6125SOL     OW18934   3.835   1.018   5.444
 6125SOL    HW118935   3.759   0.995   5.497
 6125SOL    HW218936   3.910   0.982   5.492
 6126SOL     OW18937   4.374   0.205   5.213
 6126SOL    HW118938   4.463   0.215   5.180
 6126SOL    HW218939   4.385   0.183   5.306
 6127SOL     OW18940   3.804   0.344   3.770
 6127SOL    HW118941   3.731   0.293   3.734
 6127SOL    HW218942   3.820   0.412   3.705
 6128SOL     OW18943   3.790   0.179   4.046
 6128SOL    HW118944   3.786   0.246   3.978
 6128SOL    HW218945   3.866   0.125   4.024
 6129SOL     OW18946   4.337   0.840   5.158
 6129SOL    HW118947   4.381   0.923   5.143
 6129SOL    HW218948   4.407   0.776   5.168
 6130SOL     OW18949   4.403   0.557   5.456
 6130SOL    HW118950   4.428   0.633   5.508
 6130SOL    HW218951   4.486   0.515   5.434
 6131SOL     OW18952   4.109   1.739   5.284
 6131SOL    HW118953   4.022   1.779   5.273
 6131SOL    HW218954   4.091   1.656   5.330
 6132SOL     OW18955   4.311   0.733   4.388
 6132SOL    HW118956   4.353   0.818   4.376
 6132SOL    HW218957   4.240   0.733   4.324
 6133SOL     OW18958   3.945   1.307   5.579
 6133SOL    HW118959   3.877   1.244   5.551
 6133SOL    HW218960   3.929   1.318   5.673
 6134SOL     OW18961   3.808   1.236   4.388
 6134SOL    HW118962   3.808   1.186   4.470
 6134SOL    HW218963   3.878   1.196   4.335
 6135SOL     OW18964   4.412   1.387   5.375
 6135SOL    HW118965   4.323   1.353   5.377
 6135SOL    HW218966   4.402   1.481   5.392
 6136SOL     OW18967   4.162   0.434   4.254
 6136SOL    HW118968   4.182   0.363   4.192
 6136SOL    HW218969   4.109   0.393   4.321
 6137SOL     OW18970   4.052   0.554   5.013
 6137SOL    HW118971   4.104   0.495   5.067
 6137SOL    HW218972   4.071   0.528   4.923
 6138SOL     OW18973   0.038   1.594   4.409
 6138SOL    HW118974   0.057   1.650   4.333
 6138SOL    HW218975   4.464   1.540   4.381
 6139SOL     OW18976   3.768   1.073   4.028
 6139SOL    HW118977   3.862   1.063   4.012
 6139SOL    HW218978   3.738   0.986   4.052
 6140SOL     OW18979   3.955   0.627   5.705
 6140SOL    HW118980   3.867   0.621   5.742
 6140SOL    HW218981   3.946   0.594   5.615
 6141SOL     OW18982   3.932   0.299   6.574
 6141SOL    HW118983   3.966   0.270   6.659
 6141SOL    HW218984   3.852   0.248   6.562
 6142SOL     OW18985   3.732   0.384   6.226
 6142SOL    HW118986   3.646   0.404   6.262
 6142SOL    HW218987   3.718   0.308   6.169
 6143SOL     OW18988   4.271   1.251   6.732
 6143SOL    HW118989   4.193   1.303   6.710
 6143SOL    HW218990   4.328   1.313   6.778
 6144SOL     OW18991   0.026   0.782   7.443
 6144SOL    HW118992   0.072   0.835   7.508
 6144SOL    HW218993   0.066   0.805   7.360
 6145SOL     OW18994   4.399   0.997   6.229
 6145SOL    HW118995   4.470   0.990   6.293
 6145SOL    HW218996   4.334   1.054   6.271
 6146SOL     OW18997   4.418   1.161   7.401
 6146SOL    HW118998   4.462   1.242   7.376
 6146SOL    HW218999   4.327   1.173   7.372
 6147SOL     OW19000   4.058   1.434   6.655
 6147SOL    HW119001   3.987   1.393   6.607
 6147SOL    HW219002   4.107   1.482   6.588
 6148SOL     OW19003   4.163   0.396   7.076
 6148SOL    HW119004   4.242   0.342   7.077
 6148SOL    HW219005   4.092   0.334   7.088
 6149SOL     OW19006   3.943   1.713   6.062
 6149SOL    HW119007   3.967   1.790   6.114
 6149SOL    HW219008   4.013   1.706   5.997
 6150SOL     OW19009   3.953   1.440   6.120
 6150SOL    HW119010   3.936   1.533   6.126
 6150SOL    HW219011   3.892   1.399   6.181
 6151SOL     OW19012   3.973   1.089   6.473
 6151SOL    HW119013   3.977   1.004   6.518
 6151SOL    HW219014   3.919   1.144   6.529
 6152SOL     OW19015   4.359   1.798   7.037
 6152SOL    HW119016   4.273   1.764   7.062
 6152SOL    HW219017   4.349   1.893   7.039
 6153SOL     OW19018   4.311   0.984   5.722
 6153SOL    HW119019   4.340   1.039   5.649
 6153SOL    HW219020   4.378   0.996   5.789
 6154SOL     OW19021   3.839   0.651   6.145
 6154SOL    HW119022   3.810   0.562   6.167
 6154SOL    HW219023   3.830   0.699   6.227
 6155SOL     OW19024   3.755   1.597   5.711
 6155SOL    HW119025   3.736   1.505   5.729
 6155SOL    HW219026   3.729   1.643   5.791
 6156SOL     OW19027   3.845   0.743   7.172
 6156SOL    HW119028   3.937   0.765   7.189
 6156SOL    HW219029   3.799   0.826   7.178
 6157SOL     OW19030   4.315   1.385   6.323
 6157SOL    HW119031   4.278   1.297   6.327
 6157SOL    HW219032   4.313   1.407   6.230
 6158SOL     OW19033   0.019   0.018   6.100
 6158SOL    HW119034   0.048   0.081   6.034
 6158SOL    HW219035   4.428   0.041   6.117
 6159SOL     OW19036   3.914   0.968   6.855
 6159SOL    HW119037   3.999   0.927   6.837
 6159SOL    HW219038   3.850   0.912   6.811
 6160SOL     OW19039   4.039   0.254   7.371
 6160SOL    HW119040   4.101   0.320   7.400
 6160SOL    HW219041   3.964   0.264   7.430
 6161SOL     OW19042   4.312   0.729   5.855
 6161SOL    HW119043   4.313   0.804   5.796
 6161SOL    HW219044   4.243   0.749   5.919
 6162SOL     OW19045   3.813   0.820   6.362
 6162SOL    HW119046   3.894   0.812   6.411
 6162SOL    HW219047   3.771   0.899   6.396
 6163SOL     OW19048   3.853   1.837   7.161
 6163SOL    HW119049   3.850   1.819   7.255
 6163SOL    HW219050   3.762   1.844   7.135
 6164SOL     OW19051   4.251   0.201   6.481
 6164SOL    HW119052   4.286   0.219   6.568
 6164SOL    HW219053   4.265   0.282   6.432
 6165SOL     OW19054   4.081   1.809   6.445
 6165SOL    HW119055   4.129   1.726   6.452
 6165SOL    HW219056   4.148   1.876   6.456
 6166SOL     OW19057   4.045   0.955   5.834
 6166SOL    HW119058   4.126   0.974   5.788
 6166SOL    HW219059   4.014   0.874   5.795
 6167SOL     OW19060   4.179   1.254   7.321
 6167SOL    HW119061   4.151   1.265   7.230
 6167SOL    HW219062   4.098   1.263   7.372
 6168SOL     OW19063   3.914   0.270   7.094
 6168SOL    HW119064   3.847   0.335   7.076
 6168SOL    HW219065   3.919   0.267   7.190
 6169SOL     OW19066   4.193   1.735   5.911
 6169SOL    HW119067   4.223   1.794   5.980
 6169SOL    HW219068   4.263   1.736   5.846
 6170SOL     OW19069   3.978   1.793   6.820
 6170SOL    HW119070   4.027   1.725   6.867
 6170SOL    HW219071   3.965   1.756   6.732
 6171SOL     OW19072   4.110   0.694   6.061
 6171SOL    HW119073   4.137   0.603   6.073
 6171SOL    HW219074   4.017   0.695   6.082
 6172SOL     OW19075   4.328   0.124   5.702
 6172SOL    HW119076   4.414   0.084   5.716
 6172SOL    HW219077   4.305   0.099   5.613
 6173SOL     OW19078   0.017   1.426   6.502
 6173SOL    HW119079   0.090   1.453   6.447
 6173SOL    HW219080   4.446   1.410   6.440
 6174SOL     OW19081   4.270   0.106   6.124
 6174SOL    HW119082   4.185   0.066   6.142
 6174SOL    HW219083   4.256   0.157   6.044
 6175SOL     OW19084   4.023   0.073   5.777
 6175SOL    HW119085   4.102   0.124   5.758
 6175SOL    HW219086   4.053   4.500   5.829
 6176SOL     OW19087   0.320   0.682   7.041
 6176SOL    HW119088   0.245   0.623   7.034
 6176SOL    HW219089   0.396   0.626   7.020
 6177SOL     OW19090   4.189   1.145   6.322
 6177SOL    HW119091   4.119   1.127   6.385
 6177SOL    HW219092   4.150   1.127   6.237
 6178SOL     OW19093   3.804   0.551   6.980
 6178SOL    HW119094   3.894   0.555   6.948
 6178SOL    HW219095   3.798   0.623   7.042
 6179SOL     OW19096   4.295   0.235   6.745
 6179SOL    HW119097   4.307   0.142   6.763
 6179SOL    HW219098   4.206   0.254   6.773
 6180SOL     OW19099   4.229   1.386   5.758
 6180SOL    HW119100   4.145   1.372   5.801
 6180SOL    HW219101   4.206   1.405   5.667
 6181SOL     OW19102   4.247   0.269   5.909
 6181SOL    HW119103   4.285   0.213   5.842
 6181SOL    HW219104   4.228   0.352   5.864
 6182SOL     OW19105   4.139   0.813   6.836
 6182SOL    HW119106   4.206   0.824   6.903
 6182SOL    HW219107   4.105   0.725   6.850
 6183SOL     OW19108   3.792   1.572   6.936
 6183SOL    HW119109   3.758   1.644   6.883
 6183SOL    HW219110   3.887   1.581   6.930
 6184SOL     OW19111   4.077   1.106   6.077
 6184SOL    HW119112   4.077   1.179   6.015
 6184SOL    HW219113   4.075   1.028   6.022
 6185SOL     OW19114   4.299   0.539   6.448
 6185SOL    HW119115   4.301   0.605   6.379
 6185SOL    HW219116   4.360   0.572   6.514
 6186SOL     OW19117   4.073   1.529   6.905
 6186SOL    HW119118   4.065   1.486   6.819
 6186SOL    HW219119   4.167   1.533   6.921
 6187SOL     OW19120   4.135   0.743   7.190
 6187SOL    HW119121   4.193   0.789   7.129
 6187SOL    HW219122   4.181   0.660   7.207
 6188SOL     OW19123   4.235   0.068   7.315
 6188SOL    HW119124   4.201   4.488   7.276
 6188SOL    HW219125   4.158   0.121   7.334
 6189SOL     OW19126   4.292   0.885   6.612
 6189SOL    HW119127   4.326   0.974   6.625
 6189SOL    HW219128   4.243   0.866   6.692
 6190SOL     OW19129   4.014   0.238   6.826
 6190SOL    HW119130   3.974   0.250   6.912
 6190SOL    HW219131   4.045   0.147   6.826
 6191SOL     OW19132   3.770   1.310   6.863
 6191SOL    HW119133   3.803   1.257   6.936
 6191SOL    HW219134   3.777   1.400   6.894
 6192SOL     OW19135   4.013   0.060   6.243
 6192SOL    HW119136   4.010   0.155   6.246
 6192SOL    HW219137   4.032   0.033   6.332
 6193SOL     OW19138   4.077   0.916   7.393
 6193SOL    HW119139   4.159   0.932   7.440
 6193SOL    HW219140   4.099   0.852   7.325
 6194SOL     OW19141   4.032   0.810   6.533
 6194SOL    HW119142   4.124   0.836   6.532
 6194SOL    HW219143   4.034   0.720   6.566
 6195SOL     OW19144   4.066   0.529   6.596
 6195SOL    HW119145   4.023   0.445   6.577
 6195SOL    HW219146   4.143   0.529   6.539
 6196SOL     OW19147   3.729   1.322   5.781
 6196SOL    HW119148   3.642   1.336   5.744
 6196SOL    HW219149   3.727   1.233   5.814
 6197SOL     OW19150   3.815   1.790   6.523
 6197SOL    HW119151   3.784   1.710   6.480
 6197SOL    HW219152   3.905   1.801   6.491
 6198SOL     OW19153   4.232   1.581   6.491
 6198SOL    HW119154   4.316   1.619   6.516
 6198SOL    HW219155   4.255   1.508   6.434
 6199SOL     OW19156   3.758   0.543   6.703
 6199SOL    HW119157   3.835   0.519   6.652
 6199SOL    HW219158   3.789   0.548   6.794
 6200SOL     OW19159   3.909   0.517   7.306
 6200SOL    HW119160   3.981   0.495   7.246
 6200SOL    HW219161   3.865   0.591   7.265
 6201SOL     OW19162   0.032   0.555   5.852
 6201SOL    HW119163   0.020   0.480   5.910
 6201SOL    HW219164   4.464   0.617   5.878
 6202SOL     OW19165   3.972   1.554   7.317
 6202SOL    HW119166   3.945   1.616   7.384
 6202SOL    HW219167   3.968   1.469   7.360
 6203SOL     OW19168   4.193   0.494   5.772
 6203SOL    HW119169   4.250   0.569   5.792
 6203SOL    HW219170   4.106   0.532   5.763
 6204SOL     OW19171   3.872   1.139   7.057
 6204SOL    HW119172   3.877   1.085   7.136
 6204SOL    HW219173   3.888   1.078   6.985
 6205SOL     OW19174   3.807   1.268   6.600
 6205SOL    HW119175   3.793   1.277   6.694
 6205SOL    HW219176   3.735   1.213   6.570
 6206SOL     OW19177   4.390   1.652   7.289
 6206SOL    HW119178   4.357   1.739   7.310
 6206SOL    HW219179   4.443   1.665   7.210
 6207SOL     OW19180   3.859   1.797   7.430
 6207SOL    HW119181   3.808   1.732   7.479
 6207SOL    HW219182   3.908   1.845   7.497
 6208SOL     OW19183   3.991   0.328   6.305
 6208SOL    HW119184   3.904   0.359   6.279
 6208SOL    HW219185   3.984   0.315   6.399
 6209SOL     OW19186   4.090   1.304   7.077
 6209SOL    HW119187   4.072   1.381   7.023
 6209SOL    HW219188   4.016   1.245   7.060
 6210SOL     OW19189   4.325   1.490   6.068
 6210SOL    HW119190   4.344   1.431   5.995
 6210SOL    HW219191   4.260   1.552   6.033
 6211SOL     OW19192   3.983   1.351   5.871
 6211SOL    HW119193   3.890   1.347   5.849
 6211SOL    HW219194   3.985   1.386   5.960
 6212SOL     OW19195   3.835   1.019   7.306
 6212SOL    HW119196   3.759   0.995   7.359
 6212SOL    HW219197   3.910   0.983   7.353
 6213SOL     OW19198   4.374   0.205   7.075
 6213SOL    HW119199   4.463   0.215   7.042
 6213SOL    HW219200   4.385   0.183   7.168
 6214SOL     OW19201   3.804   0.344   5.632
 6214SOL    HW119202   3.731   0.293   5.596
 6214SOL    HW219203   3.820   0.412   5.567
 6215SOL     OW19204   3.790   0.179   5.909
 6215SOL    HW119205   3.786   0.246   5.840
 6215SOL    HW219206   3.866   0.125   5.886
 6216SOL     OW19207   4.337   0.840   7.020
 6216SOL    HW119208   4.382   0.923   7.005
 6216SOL    HW219209   4.407   0.776   7.030
 6217SOL     OW19210   4.402   0.558   7.318
 6217SOL    HW119211   4.428   0.634   7.370
 6217SOL    HW219212   4.485   0.515   7.296
 6218SOL     OW19213   4.109   1.739   7.146
 6218SOL    HW119214   4.022   1.778   7.135
 6218SOL    HW219215   4.092   1.656   7.191
 6219SOL     OW19216   4.311   0.733   6.250
 6219SOL    HW119217   4.353   0.818   6.238
 6219SOL    HW219218   4.240   0.733   6.186
 6220SOL     OW19219   3.944   1.307   7.441
 6220SOL    HW119220   3.878   1.244   7.414
 6220SOL    HW219221   3.930   1.318   7.535
 6221SOL     OW19222   3.808   1.236   6.250
 6221SOL    HW119223   3.809   1.186   6.331
 6221SOL    HW219224   3.877   1.197   6.197
 6222SOL     OW19225   4.412   1.387   7.236
 6222SOL    HW119226   4.322   1.353   7.239
 6222SOL    HW219227   4.402   1.481   7.254
 6223SOL     OW19228   4.162   0.434   6.116
 6223SOL    HW119229   4.182   0.363   6.054
 6223SOL    HW219230   4.109   0.392   6.183
 6224SOL     OW19231   4.052   0.554   6.875
 6224SOL    HW119232   4.104   0.495   6.929
 6224SOL    HW219233   4.071   0.528   6.785
 6225SOL     OW19234   0.038   1.594   6.271
 6225SOL    HW119235   0.057   1.650   6.196
 6225SOL    HW219236   4.464   1.540   6.242
 6226SOL     OW19237   3.768   1.073   5.891
 6226SOL    HW119238   3.861   1.063   5.874
 6226SOL    HW219239   3.738   0.986   5.914
 6227SOL     OW19240   3.955   0.628   7.567
 6227SOL    HW119241   3.867   0.621   7.604
 6227SOL    HW219242   3.946   0.594   7.478
 6228SOL     OW19243   3.932   0.299   8.436
 6228SOL    HW119244   3.966   0.270   8.521
 6228SOL    HW219245   3.852   0.248   8.424
 6229SOL     OW19246   3.732   0.384   8.088
 6229SOL    HW119247   3.646   0.404   8.124
 6229SOL    HW219248   3.718   0.308   8.031
 6230SOL     OW19249   4.271   1.252   8.594
 6230SOL    HW119250   4.193   1.303   8.572
 6230SOL    HW219251   4.328   1.313   8.640
 6231SOL     OW19252   0.026   0.782   9.305
 6231SOL    HW119253   0.072   0.835   9.370
 6231SOL    HW219254   0.066   0.805   9.222
 6232SOL     OW19255   4.399   0.997   8.091
 6232SOL    HW119256   4.470   0.990   8.155
 6232SOL    HW219257   4.334   1.054   8.133
 6233SOL     OW19258   4.418   1.161   9.263
 6233SOL    HW119259   4.462   1.242   9.238
 6233SOL    HW219260   4.327   1.173   9.234
 6234SOL     OW19261   4.058   1.434   8.517
 6234SOL    HW119262   3.987   1.393   8.469
 6234SOL    HW219263   4.108   1.482   8.450
 6235SOL     OW19264   4.163   0.396   8.938
 6235SOL    HW119265   4.242   0.342   8.939
 6235SOL    HW219266   4.092   0.334   8.950
 6236SOL     OW19267   3.943   1.713   7.923
 6236SOL    HW119268   3.967   1.790   7.976
 6236SOL    HW219269   4.014   1.706   7.859
 6237SOL     OW19270   3.953   1.439   7.981
 6237SOL    HW119271   3.936   1.533   7.989
 6237SOL    HW219272   3.892   1.399   8.043
 6238SOL     OW19273   3.973   1.089   8.335
 6238SOL    HW119274   3.977   1.004   8.380
 6238SOL    HW219275   3.920   1.144   8.392
 6239SOL     OW19276   4.359   1.798   8.899
 6239SOL    HW119277   4.273   1.764   8.924
 6239SOL    HW219278   4.349   1.893   8.901
 6240SOL     OW19279   4.311   0.984   7.584
 6240SOL    HW119280   4.339   1.038   7.511
 6240SOL    HW219281   4.378   0.996   7.651
 6241SOL     OW19282   3.839   0.651   8.007
 6241SOL    HW119283   3.810   0.562   8.029
 6241SOL    HW219284   3.830   0.699   8.089
 6242SOL     OW19285   3.754   1.597   7.572
 6242SOL    HW119286   3.737   1.505   7.591
 6242SOL    HW219287   3.729   1.643   7.653
 6243SOL     OW19288   3.845   0.743   9.034
 6243SOL    HW119289   3.937   0.765   9.051
 6243SOL    HW219290   3.799   0.826   9.040
 6244SOL     OW19291   4.315   1.385   8.185
 6244SOL    HW119292   4.278   1.297   8.189
 6244SOL    HW219293   4.313   1.407   8.092
 6245SOL     OW19294   0.019   0.018   7.962
 6245SOL    HW119295   0.048   0.081   7.896
 6245SOL    HW219296   4.428   0.041   7.979
 6246SOL     OW19297   3.914   0.968   8.717
 6246SOL    HW119298   3.999   0.927   8.699
 6246SOL    HW219299   3.851   0.912   8.674
 6247SOL     OW19300   4.039   0.254   9.233
 6247SOL    HW119301   4.101   0.320   9.262
 6247SOL    HW219302   3.964   0.264   9.292
 6248SOL     OW19303   4.312   0.729   7.717
 6248SOL    HW119304   4.313   0.804   7.658
 6248SOL    HW219305   4.243   0.749   7.781
 6249SOL     OW19306   3.813   0.820   8.224
 6249SOL    HW119307   3.894   0.812   8.273
 6249SOL    HW219308   3.771   0.899   8.259
 6250SOL     OW19309   3.853   1.837   9.023
 6250SOL    HW119310   3.850   1.819   9.117
 6250SOL    HW219311   3.762   1.844   8.997
 6251SOL     OW19312   4.251   0.201   8.343
 6251SOL    HW119313   4.286   0.219   8.430
 6251SOL    HW219314   4.265   0.282   8.294
 6252SOL     OW19315   4.081   1.809   8.307
 6252SOL    HW119316   4.129   1.726   8.314
 6252SOL    HW219317   4.148   1.876   8.318
 6253SOL     OW19318   4.045   0.956   7.696
 6253SOL    HW119319   4.127   0.974   7.650
 6253SOL    HW219320   4.014   0.874   7.658
 6254SOL     OW19321   4.179   1.254   9.183
 6254SOL    HW119322   4.151   1.265   9.092
 6254SOL    HW219323   4.098   1.263   9.234
 6255SOL     OW19324   3.914   0.270   8.956
 6255SOL    HW119325   3.847   0.335   8.938
 6255SOL    HW219326   3.920   0.267   9.052
 6256SOL     OW19327   4.193   1.735   7.773
 6256SOL    HW119328   4.223   1.794   7.842
 6256SOL    HW219329   4.263   1.735   7.708
 6257SOL     OW19330   3.978   1.793   8.682
 6257SOL    HW119331   4.027   1.725   8.729
 6257SOL    HW219332   3.965   1.756   8.594
 6258SOL     OW19333   4.110   0.695   7.922
 6258SOL    HW119334   4.137   0.604   7.935
 6258SOL    HW219335   4.017   0.695   7.944
 6259SOL     OW19336   4.328   0.123   7.564
 6259SOL    HW119337   4.414   0.084   7.578
 6259SOL    HW219338   4.305   0.099   7.475
 6260SOL     OW19339   0.017   1.427   8.364
 6260SOL    HW119340   0.090   1.453   8.309
 6260SOL    HW219341   4.446   1.410   8.302
 6261SOL     OW19342   4.270   0.106   7.986
 6261SOL    HW119343   4.185   0.066   8.004
 6261SOL    HW219344   4.256   0.157   7.906
 6262SOL     OW19345   4.023   0.074   7.639
 6262SOL    HW119346   4.102   0.124   7.621
 6262SOL    HW219347   4.053   4.499   7.691
 6263SOL     OW19348   0.320   0.682   8.903
 6263SOL    HW119349   0.245   0.623   8.896
 6263SOL    HW219350   0.396   0.627   8.883
 6264SOL     OW19351   4.189   1.145   8.184
 6264SOL    HW119352   4.119   1.127   8.247
 6264SOL    HW219353   4.150   1.127   8.099
 6265SOL     OW19354   3.804   0.551   8.842
 6265SOL    HW119355   3.894   0.555   8.810
 6265SOL    HW219356   3.798   0.623   8.904
 6266SOL     OW19357   4.295   0.235   8.607
 6266SOL    HW119358   4.307   0.142   8.625
 6266SOL    HW219359   4.206   0.254   8.635
 6267SOL     OW19360   4.229   1.387   7.620
 6267SOL    HW119361   4.145   1.372   7.663
 6267SOL    HW219362   4.207   1.404   7.529
 6268SOL     OW19363   4.247   0.269   7.772
 6268SOL    HW119364   4.285   0.213   7.704
 6268SOL    HW219365   4.228   0.352   7.726
 6269SOL     OW19366   4.139   0.813   8.698
 6269SOL    HW119367   4.206   0.824   8.765
 6269SOL    HW219368   4.105   0.725   8.712
 6270SOL     OW19369   3.792   1.572   8.798
 6270SOL    HW119370   3.758   1.645   8.745
 6270SOL    HW219371   3.887   1.581   8.792
 6271SOL     OW19372   4.076   1.106   7.939
 6271SOL    HW119373   4.077   1.179   7.877
 6271SOL    HW219374   4.075   1.028   7.884
 6272SOL     OW19375   4.299   0.539   8.311
 6272SOL    HW119376   4.301   0.605   8.241
 6272SOL    HW219377   4.361   0.572   8.376
 6273SOL     OW19378   4.073   1.529   8.767
 6273SOL    HW119379   4.065   1.486   8.681
 6273SOL    HW219380   4.167   1.533   8.783
 6274SOL     OW19381   4.136   0.743   9.052
 6274SOL    HW119382   4.193   0.789   8.991
 6274SOL    HW219383   4.181   0.660   9.069
 6275SOL     OW19384   4.235   0.068   9.177
 6275SOL    HW119385   4.201   4.488   9.138
 6275SOL    HW219386   4.158   0.121   9.196
 6276SOL     OW19387   4.292   0.885   8.474
 6276SOL    HW119388   4.326   0.974   8.487
 6276SOL    HW219389   4.243   0.866   8.554
 6277SOL     OW19390   4.014   0.238   8.688
 6277SOL    HW119391   3.974   0.250   8.774
 6277SOL    HW219392   4.045   0.147   8.688
 6278SOL     OW19393   3.770   1.310   8.725
 6278SOL    HW119394   3.803   1.257   8.798
 6278SOL    HW219395   3.777   1.400   8.756
 6279SOL     OW19396   4.013   0.060   8.104
 6279SOL    HW119397   4.010   0.155   8.108
 6279SOL    HW219398   4.032   0.033   8.194
 6280SOL     OW19399   4.077   0.916   9.255
 6280SOL    HW119400   4.159   0.931   9.302
 6280SOL    HW219401   4.099   0.852   9.187
 6281SOL     OW19402   4.032   0.810   8.395
 6281SOL    HW119403   4.124   0.836   8.394
 6281SOL    HW219404   4.034   0.720   8.428
 6282SOL     OW19405   4.066   0.529   8.458
 6282SOL    HW119406   4.023   0.445   8.439
 6282SOL    HW219407   4.143   0.529   8.401
 6283SOL     OW19408   3.729   1.323   7.643
 6283SOL    HW119409   3.642   1.336   7.606
 6283SOL    HW219410   3.728   1.233   7.676
 6284SOL     OW19411   3.815   1.790   8.384
 6284SOL    HW119412   3.785   1.710   8.342
 6284SOL    HW219413   3.905   1.801   8.353
 6285SOL     OW19414   4.232   1.581   8.353
 6285SOL    HW119415   4.316   1.619   8.379
 6285SOL    HW219416   4.255   1.508   8.296
 6286SOL     OW19417   3.758   0.543   8.565
 6286SOL    HW119418   3.835   0.518   8.514
 6286SOL    HW219419   3.789   0.548   8.656
 6287SOL     OW19420   3.909   0.517   9.168
 6287SOL    HW119421   3.981   0.495   9.108
 6287SOL    HW219422   3.865   0.591   9.127
 6288SOL     OW19423   0.032   0.555   7.714
 6288SOL    HW119424   0.020   0.480   7.772
 6288SOL    HW219425   4.464   0.617   7.740
 6289SOL     OW19426   3.972   1.554   9.179
 6289SOL    HW119427   3.945   1.616   9.246
 6289SOL    HW219428   3.968   1.469   9.222
 6290SOL     OW19429   4.193   0.494   7.634
 6290SOL    HW119430   4.250   0.569   7.654
 6290SOL    HW219431   4.106   0.532   7.625
 6291SOL     OW19432   3.873   1.139   8.919
 6291SOL    HW119433   3.877   1.085   8.998
 6291SOL    HW219434   3.888   1.078   8.847
 6292SOL     OW19435   3.807   1.268   8.462
 6292SOL    HW119436   3.794   1.277   8.556
 6292SOL    HW219437   3.735   1.212   8.432
 6293SOL     OW19438   4.390   1.652   9.151
 6293SOL    HW119439   4.357   1.739   9.172
 6293SOL    HW219440   4.443   1.665   9.072
 6294SOL     OW19441   3.859   1.797   9.292
 6294SOL    HW119442   3.808   1.732   9.340
 6294SOL    HW219443   3.908   1.845   9.359
 6295SOL     OW19444   3.991   0.328   8.167
 6295SOL    HW119445   3.904   0.359   8.141
 6295SOL    HW219446   3.984   0.315   8.261
 6296SOL     OW19447   4.090   1.304   8.939
 6296SOL    HW119448   4.072   1.381   8.885
 6296SOL    HW219449   4.016   1.245   8.922
 6297SOL     OW19450   4.324   1.490   7.930
 6297SOL    HW119451   4.344   1.431   7.857
 6297SOL    HW219452   4.260   1.552   7.894
 6298SOL     OW19453   3.983   1.351   7.733
 6298SOL    HW119454   3.890   1.347   7.711
 6298SOL    HW219455   3.985   1.386   7.822
 6299SOL     OW19456   3.835   1.019   9.168
 6299SOL    HW119457   3.759   0.995   9.221
 6299SOL    HW219458   3.910   0.983   9.215
 6300SOL     OW19459   4.374   0.205   8.937
 6300SOL    HW119460   4.463   0.215   8.904
 6300SOL    HW219461   4.385   0.183   9.030
 6301SOL     OW19462   3.804   0.344   7.494
 6301SOL    HW119463   3.732   0.293   7.458
 6301SOL    HW219464   3.820   0.412   7.428
 6302SOL     OW19465   3.790   0.179   7.771
 6302SOL    HW119466   3.786   0.246   7.702
 6302SOL    HW219467   3.866   0.125   7.748
 6303SOL     OW19468   4.337   0.840   8.882
 6303SOL    HW119469   4.382   0.923   8.867
 6303SOL    HW219470   4.407   0.776   8.892
 6304SOL     OW19471   4.402   0.558   9.180
 6304SOL    HW119472   4.428   0.634   9.232
 6304SOL    HW219473   4.485   0.515   9.158
 6305SOL     OW19474   4.109   1.739   9.008
 6305SOL    HW119475   4.022   1.778   8.997
 6305SOL    HW219476   4.092   1.656   9.053
 6306SOL     OW19477   4.311   0.733   8.112
 6306SOL    HW119478   4.353   0.818   8.100
 6306SOL    HW219479   4.240   0.733   8.048
 6307SOL     OW19480   3.944   1.307   9.303
 6307SOL    HW119481   3.878   1.244   9.276
 6307SOL    HW219482   3.930   1.318   9.397
 6308SOL     OW19483   3.808   1.236   8.112
 6308SOL    HW119484   3.809   1.186   8.193
 6308SOL    HW219485   3.877   1.197   8.059
 6309SOL     OW19486   4.412   1.387   9.098
 6309SOL    HW119487   4.322   1.353   9.101
 6309SOL    HW219488   4.402   1.481   9.116
 6310SOL     OW19489   4.162   0.434   7.978
 6310SOL    HW119490   4.182   0.363   7.916
 6310SOL    HW219491   4.109   0.393   8.045
 6311SOL     OW19492   4.052   0.554   8.737
 6311SOL    HW119493   4.104   0.495   8.791
 6311SOL    HW219494   4.071   0.528   8.647
 6312SOL     OW19495   0.038   1.594   8.133
 6312SOL    HW119496   0.057   1.650   8.058
 6312SOL    HW219497   4.464   1.540   8.104
 6313SOL     OW19498   3.768   1.073   7.752
 6313SOL    HW119499   3.862   1.063   7.736
 6313SOL    HW219500   3.738   0.986   7.776
 6314SOL     OW19501   3.955   0.628   9.429
 6314SOL    HW119502   3.867   0.621   9.466
 6314SOL    HW219503   3.946   0.594   9.340
 6315SOL     OW19504   3.932   0.299  10.298
 6315SOL    HW119505   3.966   0.270  10.383
 6315SOL    HW219506   3.852   0.248  10.286
 6316SOL     OW19507   3.732   0.384   9.950
 6316SOL    HW119508   3.646   0.403   9.986
 6316SOL    HW219509   3.718   0.308   9.893
 6317SOL     OW19510   4.271   1.252  10.456
 6317SOL    HW119511   4.193   1.303  10.434
 6317SOL    HW219512   4.328   1.313  10.503
 6318SOL     OW19513   0.026   0.807   0.077
 6318SOL    HW119514   0.097   0.854   0.123
 6318SOL    HW219515   0.058   0.796  11.088
 6319SOL     OW19516   4.399   0.997   9.953
 6319SOL    HW119517   4.469   0.989  10.017
 6319SOL    HW219518   4.334   1.054   9.995
 6320SOL     OW19519   4.059   1.434  10.379
 6320SOL    HW119520   3.987   1.393  10.331
 6320SOL    HW219521   4.107   1.482  10.312
 6321SOL     OW19522   4.173   0.397  10.798
 6321SOL    HW119523   4.242   0.331  10.798
 6321SOL    HW219524   4.093   0.348  10.819
 6322SOL     OW19525   3.943   1.713   9.785
 6322SOL    HW119526   3.967   1.790   9.838
 6322SOL    HW219527   4.014   1.706   9.721
 6323SOL     OW19528   3.953   1.439   9.843
 6323SOL    HW119529   3.936   1.533   9.851
 6323SOL    HW219530   3.892   1.399   9.905
 6324SOL     OW19531   3.973   1.089  10.197
 6324SOL    HW119532   3.977   1.004  10.242
 6324SOL    HW219533   3.920   1.144  10.253
 6325SOL     OW19534   4.357   1.798  10.759
 6325SOL    HW119535   4.269   1.768  10.783
 6325SOL    HW219536   4.352   1.893  10.764
 6326SOL     OW19537   4.311   0.984   9.446
 6326SOL    HW119538   4.339   1.038   9.373
 6326SOL    HW219539   4.378   0.996   9.513
 6327SOL     OW19540   3.839   0.651   9.869
 6327SOL    HW119541   3.810   0.562   9.891
 6327SOL    HW219542   3.830   0.699   9.951
 6328SOL     OW19543   3.754   1.597   9.434
 6328SOL    HW119544   3.736   1.505   9.453
 6328SOL    HW219545   3.729   1.643   9.514
 6329SOL     OW19546   3.847   0.728  10.912
 6329SOL    HW119547   3.940   0.749  10.913
 6329SOL    HW219548   3.803   0.812  10.905
 6330SOL     OW19549   4.315   1.385  10.047
 6330SOL    HW119550   4.278   1.297  10.051
 6330SOL    HW219551   4.313   1.407   9.954
 6331SOL     OW19552   0.018   0.017   9.823
 6331SOL    HW119553   0.048   0.081   9.758
 6331SOL    HW219554   4.427   0.041   9.840
 6332SOL     OW19555   3.914   0.967  10.578
 6332SOL    HW119556   3.998   0.926  10.559
 6332SOL    HW219557   3.850   0.910  10.536
 6333SOL     OW19558   4.056   0.274  11.088
 6333SOL    HW119559   4.114   0.334   0.035
 6333SOL    HW219560   3.972   0.281   0.034
 6334SOL     OW19561   4.312   0.729   9.579
 6334SOL    HW119562   4.313   0.804   9.520
 6334SOL    HW219563   4.243   0.749   9.643
 6335SOL     OW19564   3.813   0.820  10.086
 6335SOL    HW119565   3.894   0.812  10.135
 6335SOL    HW219566   3.771   0.899  10.121
 6336SOL     OW19567   3.854   1.839  10.894
 6336SOL    HW119568   3.835   1.804  10.981
 6336SOL    HW219569   3.769   1.844  10.850
 6337SOL     OW19570   4.251   0.201  10.208
 6337SOL    HW119571   4.288   0.221  10.294
 6337SOL    HW219572   4.265   0.281  10.157
 6338SOL     OW19573   4.081   1.809  10.169
 6338SOL    HW119574   4.129   1.726  10.176
 6338SOL    HW219575   4.148   1.876  10.180
 6339SOL     OW19576   4.045   0.956   9.558
 6339SOL    HW119577   4.127   0.974   9.512
 6339SOL    HW219578   4.014   0.874   9.520
 6340SOL     OW19579   4.180   1.262  11.053
 6340SOL    HW119580   4.153   1.272  10.961
 6340SOL    HW219581   4.106   1.218  11.094
 6341SOL     OW19582   3.921   0.272  10.812
 6341SOL    HW119583   3.848   0.334  10.803
 6341SOL    HW219584   3.928   0.258  10.906
 6342SOL     OW19585   4.193   1.735   9.635
 6342SOL    HW119586   4.223   1.794   9.704
 6342SOL    HW219587   4.263   1.735   9.570
 6343SOL     OW19588   3.978   1.793  10.544
 6343SOL    HW119589   4.027   1.726  10.592
 6343SOL    HW219590   3.965   1.756  10.457
 6344SOL     OW19591   4.110   0.695   9.784
 6344SOL    HW119592   4.137   0.604   9.796
 6344SOL    HW219593   4.017   0.695   9.806
 6345SOL     OW19594   4.328   0.124   9.426
 6345SOL    HW119595   4.414   0.085   9.441
 6345SOL    HW219596   4.305   0.099   9.337
 6346SOL     OW19597   0.017   1.427  10.226
 6346SOL    HW119598   0.091   1.453  10.171
 6346SOL    HW219599   4.446   1.410  10.165
 6347SOL     OW19600   4.270   0.107   9.848
 6347SOL    HW119601   4.185   0.066   9.866
 6347SOL    HW219602   4.256   0.157   9.768
 6348SOL     OW19603   4.023   0.074   9.501
 6348SOL    HW119604   4.102   0.124   9.483
 6348SOL    HW219605   4.053   4.499   9.553
 6349SOL     OW19606   0.309   0.684  10.766
 6349SOL    HW119607   0.242   0.617  10.772
 6349SOL    HW219608   0.390   0.636  10.747
 6350SOL     OW19609   4.189   1.145  10.047
 6350SOL    HW119610   4.119   1.127  10.109
 6350SOL    HW219611   4.150   1.127   9.961
 6351SOL     OW19612   3.802   0.551  10.705
 6351SOL    HW119613   3.893   0.554  10.674
 6351SOL    HW219614   3.798   0.617  10.774
 6352SOL     OW19615   4.296   0.235  10.474
 6352SOL    HW119616   4.305   0.140  10.482
 6352SOL    HW219617   4.205   0.253  10.496
 6353SOL     OW19618   4.229   1.387   9.482
 6353SOL    HW119619   4.145   1.372   9.525
 6353SOL    HW219620   4.207   1.404   9.391
 6354SOL     OW19621   4.247   0.269   9.633
 6354SOL    HW119622   4.285   0.213   9.566
 6354SOL    HW219623   4.228   0.352   9.588
 6355SOL     OW19624   4.139   0.813  10.560
 6355SOL    HW119625   4.207   0.823  10.626
 6355SOL    HW219626   4.105   0.725  10.574
 6356SOL     OW19627   3.792   1.575  10.659
 6356SOL    HW119628   3.759   1.646  10.604
 6356SOL    HW219629   3.887   1.581  10.652
 6357SOL     OW19630   4.076   1.106   9.801
 6357SOL    HW119631   4.077   1.179   9.739
 6357SOL    HW219632   4.075   1.028   9.746
 6358SOL     OW19633   4.299   0.539  10.173
 6358SOL    HW119634   4.301   0.605  10.104
 6358SOL    HW219635   4.361   0.571  10.238
 6359SOL     OW19636   4.073   1.528  10.629
 6359SOL    HW119637   4.066   1.485  10.543
 6359SOL    HW219638   4.167   1.532  10.646
 6360SOL     OW19639   4.134   0.738  10.906
 6360SOL    HW119640   4.195   0.784  10.849
 6360SOL    HW219641   4.168   0.648  10.910
 6361SOL     OW19642   4.292   0.885  10.336
 6361SOL    HW119643   4.326   0.974  10.349
 6361SOL    HW219644   4.243   0.867  10.416
 6362SOL     OW19645   4.014   0.238  10.549
 6362SOL    HW119646   3.976   0.252  10.636
 6362SOL    HW219647   4.043   0.147  10.549
 6363SOL     OW19648   3.773   1.311  10.586
 6363SOL    HW119649   3.801   1.257  10.660
 6363SOL    HW219650   3.776   1.401  10.620
 6364SOL     OW19651   4.013   0.060   9.966
 6364SOL    HW119652   4.010   0.155   9.970
 6364SOL    HW219653   4.032   0.033  10.056
 6365SOL     OW19654   4.080   0.919  11.095
 6365SOL    HW119655   4.164   0.933   0.039
 6365SOL    HW219656   4.099   0.852  11.029
 6366SOL     OW19657   4.032   0.809  10.257
 6366SOL    HW119658   4.124   0.836  10.256
 6366SOL    HW219659   4.034   0.720  10.290
 6367SOL     OW19660   4.066   0.529  10.320
 6367SOL    HW119661   4.023   0.446  10.301
 6367SOL    HW219662   4.143   0.530  10.264
 6368SOL     OW19663   3.729   1.323   9.505
 6368SOL    HW119664   3.642   1.336   9.468
 6368SOL    HW219665   3.728   1.233   9.538
 6369SOL     OW19666   3.815   1.790  10.247
 6369SOL    HW119667   3.784   1.710  10.204
 6369SOL    HW219668   3.905   1.801  10.215
 6370SOL     OW19669   4.232   1.581  10.215
 6370SOL    HW119670   4.316   1.619  10.240
 6370SOL    HW219671   4.255   1.508  10.158
 6371SOL     OW19672   3.758   0.543  10.427
 6371SOL    HW119673   3.836   0.519  10.377
 6371SOL    HW219674   3.789   0.549  10.518
 6372SOL     OW19675   0.032   0.555   9.576
 6372SOL    HW119676   0.020   0.480   9.635
 6372SOL    HW219677   4.464   0.617   9.602
 6373SOL     OW19678   3.979   1.566  11.055
 6373SOL    HW119679   3.925   1.604   0.024
 6373SOL    HW219680   3.976   1.471  11.071
 6374SOL     OW19681   4.193   0.494   9.496
 6374SOL    HW119682   4.250   0.569   9.516
 6374SOL    HW219683   4.106   0.532   9.487
 6375SOL     OW19684   3.877   1.138  10.780
 6375SOL    HW119685   3.873   1.082  10.857
 6375SOL    HW219686   3.890   1.077  10.707
 6376SOL     OW19687   3.808   1.268  10.323
 6376SOL    HW119688   3.795   1.277  10.418
 6376SOL    HW219689   3.735   1.212  10.295
 6377SOL     OW19690   4.396   1.666  11.007
 6377SOL    HW119691   4.323   1.726  10.992
 6377SOL    HW219692   4.434   1.652  10.920
 6378SOL     OW19693   3.991   0.328  10.029
 6378SOL    HW119694   3.904   0.359  10.003
 6378SOL    HW219695   3.984   0.315  10.124
 6379SOL     OW19696   4.086   1.306  10.808
 6379SOL    HW119697   4.074   1.380  10.749
 6379SOL    HW219698   4.015   1.246  10.787
 6380SOL     OW19699   4.324   1.490   9.792
 6380SOL    HW119700   4.344   1.431   9.719
 6380SOL    HW219701   4.260   1.552   9.757
 6381SOL     OW19702   3.983   1.351   9.595
 6381SOL    HW119703   3.890   1.347   9.573
 6381SOL    HW219704   3.985   1.386   9.684
 6382SOL     OW19705   3.836   1.011  11.021
 6382SOL    HW119706   3.765   0.995  11.083
 6382SOL    HW219707   3.915   0.982  11.066
 6383SOL     OW19708   4.381   0.185  10.813
 6383SOL    HW119709   4.452   0.206  10.752
 6383SOL    HW219710   4.416   0.210  10.898
 6384SOL     OW19711   3.804   0.344   9.356
 6384SOL    HW119712   3.732   0.293   9.320
 6384SOL    HW219713   3.820   0.412   9.290
 6385SOL     OW19714   3.790   0.179   9.632
 6385SOL    HW119715   3.787   0.246   9.564
 6385SOL    HW219716   3.866   0.125   9.610
 6386SOL     OW19717   4.337   0.839  10.744
 6386SOL    HW119718   4.379   0.923  10.729
 6386SOL    HW219719   4.410   0.776  10.748
 6387SOL     OW19720   4.114   1.735  10.869
 6387SOL    HW119721   4.033   1.785  10.863
 6387SOL    HW219722   4.091   1.658  10.921
 6388SOL     OW19723   4.311   0.734   9.974
 6388SOL    HW119724   4.354   0.818   9.962
 6388SOL    HW219725   4.240   0.733   9.910
 6389SOL     OW19726   3.807   1.236   9.974
 6389SOL    HW119727   3.809   1.186  10.056
 6389SOL    HW219728   3.877   1.197   9.921
 6390SOL     OW19729   4.404   1.392  10.939
 6390SOL    HW119730   4.330   1.343  10.973
 6390SOL    HW219731   4.396   1.479  10.980
 6391SOL     OW19732   4.162   0.434   9.840
 6391SOL    HW119733   4.182   0.363   9.778
 6391SOL    HW219734   4.109   0.392   9.907
 6392SOL     OW19735   4.052   0.554  10.599
 6392SOL    HW119736   4.104   0.494  10.652
 6392SOL    HW219737   4.070   0.528  10.509
 6393SOL     OW19738   0.038   1.594   9.995
 6393SOL    HW119739   0.057   1.650   9.920
 6393SOL    HW219740   4.464   1.540   9.966
 6394SOL     OW19741   3.768   1.073   9.614
 6394SOL    HW119742   3.862   1.063   9.598
 6394SOL    HW219743   3.738   0.986   9.638
 6395SOL     OW19744   3.952   2.478   0.119
 6395SOL    HW119745   3.865   2.482   0.158
 6395SOL    HW219746   3.936   2.488   0.025
 6396SOL     OW19747   3.947   2.144   0.991
 6396SOL    HW119748   3.979   2.110   1.074
 6396SOL    HW219749   3.858   2.109   0.983
 6397SOL     OW19750   3.730   2.244   0.638
 6397SOL    HW119751   3.647   2.267   0.679
 6397SOL    HW219752   3.711   2.163   0.590
 6398SOL     OW19753   4.270   3.113   1.147
 6398SOL    HW119754   4.193   3.165   1.124
 6398SOL    HW219755   4.328   3.175   1.192
 6399SOL     OW19756   0.024   2.645   1.857
 6399SOL    HW119757   0.073   2.696   1.922
 6399SOL    HW219758   0.066   2.666   1.773
 6400SOL     OW19759   4.398   2.858   0.643
 6400SOL    HW119760   4.470   2.853   0.705
 6400SOL    HW219761   4.334   2.916   0.685
 6401SOL     OW19762   4.418   3.023   1.815
 6401SOL    HW119763   4.462   3.104   1.790
 6401SOL    HW219764   4.327   3.035   1.786
 6402SOL     OW19765   4.059   3.296   1.069
 6402SOL    HW119766   3.987   3.255   1.021
 6402SOL    HW219767   4.108   3.344   1.002
 6403SOL     OW19768   4.170   2.261   1.489
 6403SOL    HW119769   4.244   2.200   1.492
 6403SOL    HW219770   4.093   2.205   1.501
 6404SOL     OW19771   3.943   3.574   0.477
 6404SOL    HW119772   3.966   3.652   0.527
 6404SOL    HW219773   4.010   3.569   0.408
 6405SOL     OW19774   3.951   3.301   0.532
 6405SOL    HW119775   3.937   3.395   0.538
 6405SOL    HW219776   3.890   3.263   0.595
 6406SOL     OW19777   3.972   2.951   0.886
 6406SOL    HW119778   3.977   2.867   0.932
 6406SOL    HW219779   3.919   3.006   0.944
 6407SOL     OW19780   4.359   3.659   1.451
 6407SOL    HW119781   4.273   3.626   1.476
 6407SOL    HW219782   4.349   3.755   1.453
 6408SOL     OW19783   4.302   2.861   0.137
 6408SOL    HW119784   4.319   2.925   0.068
 6408SOL    HW219785   4.381   2.863   0.192
 6409SOL     OW19786   3.838   2.512   0.559
 6409SOL    HW119787   3.808   2.423   0.581
 6409SOL    HW219788   3.830   2.561   0.641
 6410SOL     OW19789   3.765   3.464   0.120
 6410SOL    HW119790   3.738   3.375   0.143
 6410SOL    HW219791   3.738   3.517   0.195
 6411SOL     OW19792   3.845   2.603   1.587
 6411SOL    HW119793   3.937   2.624   1.603
 6411SOL    HW219794   3.800   2.687   1.592
 6412SOL     OW19795   4.314   3.247   0.737
 6412SOL    HW119796   4.278   3.159   0.741
 6412SOL    HW219797   4.313   3.270   0.644
 6413SOL     OW19798   0.022   1.871   0.530
 6413SOL    HW119799   0.055   1.931   0.464
 6413SOL    HW219800   4.427   1.884   0.529
 6414SOL     OW19801   3.914   2.830   1.269
 6414SOL    HW119802   3.999   2.789   1.251
 6414SOL    HW219803   3.851   2.773   1.226
 6415SOL     OW19804   4.054   2.113   1.806
 6415SOL    HW119805   4.101   2.195   1.821
 6415SOL    HW219806   3.966   2.129   1.840
 6416SOL     OW19807   4.308   2.582   0.269
 6416SOL    HW119808   4.330   2.657   0.212
 6416SOL    HW219809   4.244   2.618   0.331
 6417SOL     OW19810   3.813   2.682   0.775
 6417SOL    HW119811   3.894   2.674   0.824
 6417SOL    HW219812   3.771   2.761   0.810
 6418SOL     OW19813   3.853   3.700   1.575
 6418SOL    HW119814   3.850   3.682   1.669
 6418SOL    HW219815   3.761   3.705   1.549
 6419SOL     OW19816   4.255   2.055   0.881
 6419SOL    HW119817   4.273   2.060   0.975
 6419SOL    HW219818   4.266   2.145   0.850
 6420SOL     OW19819   4.081   3.671   0.859
 6420SOL    HW119820   4.129   3.588   0.866
 6420SOL    HW219821   4.148   3.738   0.870
 6421SOL     OW19822   4.042   2.819   0.273
 6421SOL    HW119823   4.120   2.845   0.224
 6421SOL    HW219824   4.014   2.737   0.232
 6422SOL     OW19825   4.179   3.116   1.735
 6422SOL    HW119826   4.151   3.127   1.644
 6422SOL    HW219827   4.098   3.125   1.786
 6423SOL     OW19828   3.923   2.145   1.500
 6423SOL    HW119829   3.842   2.195   1.492
 6423SOL    HW219830   3.907   2.084   1.572
 6424SOL     OW19831   4.194   3.596   0.326
 6424SOL    HW119832   4.224   3.656   0.394
 6424SOL    HW219833   4.267   3.590   0.265
 6425SOL     OW19834   3.978   3.655   1.234
 6425SOL    HW119835   4.027   3.587   1.281
 6425SOL    HW219836   3.965   3.618   1.146
 6426SOL     OW19837   4.108   2.557   0.476
 6426SOL    HW119838   4.136   2.466   0.488
 6426SOL    HW219839   4.015   2.556   0.499
 6427SOL     OW19840   4.344   1.990   0.111
 6427SOL    HW119841   4.432   1.955   0.125
 6427SOL    HW219842   4.315   1.951   0.028
 6428SOL     OW19843   0.017   3.288   0.915
 6428SOL    HW119844   0.090   3.317   0.860
 6428SOL    HW219845   4.446   3.272   0.854
 6429SOL     OW19846   4.262   1.925   0.502
 6429SOL    HW119847   4.183   1.930   0.556
 6429SOL    HW219848   4.258   2.005   0.448
 6430SOL     OW19849   4.010   1.909   0.197
 6430SOL    HW119850   4.056   1.964   0.133
 6430SOL    HW219851   4.075   1.845   0.224
 6431SOL     OW19852   0.321   2.540   1.447
 6431SOL    HW119853   0.246   2.480   1.449
 6431SOL    HW219854   0.397   2.484   1.438
 6432SOL     OW19855   4.190   3.007   0.738
 6432SOL    HW119856   4.119   2.989   0.800
 6432SOL    HW219857   4.151   2.990   0.652
 6433SOL     OW19858   3.801   2.417   1.391
 6433SOL    HW119859   3.892   2.415   1.363
 6433SOL    HW219860   3.797   2.487   1.456
 6434SOL     OW19861   4.285   2.076   1.149
 6434SOL    HW119862   4.325   2.004   1.199
 6434SOL    HW219863   4.198   2.087   1.188
 6435SOL     OW19864   4.234   3.263   0.189
 6435SOL    HW119865   4.148   3.247   0.229
 6435SOL    HW219866   4.218   3.252   0.095
 6436SOL     OW19867   4.250   2.130   0.325
 6436SOL    HW119868   4.284   2.074   0.255
 6436SOL    HW219869   4.229   2.213   0.281
 6437SOL     OW19870   4.138   2.674   1.250
 6437SOL    HW119871   4.206   2.685   1.317
 6437SOL    HW219872   4.104   2.586   1.265
 6438SOL     OW19873   3.792   3.434   1.350
 6438SOL    HW119874   3.758   3.506   1.297
 6438SOL    HW219875   3.887   3.443   1.344
 6439SOL     OW19876   4.077   2.973   0.496
 6439SOL    HW119877   4.076   3.047   0.435
 6439SOL    HW219878   4.071   2.895   0.440
 6440SOL     OW19879   4.297   2.401   0.863
 6440SOL    HW119880   4.301   2.467   0.794
 6440SOL    HW219881   4.360   2.431   0.929
 6441SOL     OW19882   4.073   3.391   1.319
 6441SOL    HW119883   4.065   3.348   1.233
 6441SOL    HW219884   4.167   3.395   1.335
 6442SOL     OW19885   4.135   2.606   1.604
 6442SOL    HW119886   4.194   2.651   1.543
 6442SOL    HW219887   4.178   2.521   1.620
 6443SOL     OW19888   4.230   1.914   1.735
 6443SOL    HW119889   4.187   1.854   1.675
 6443SOL    HW219890   4.164   1.980   1.755
 6444SOL     OW19891   4.291   2.747   1.026
 6444SOL    HW119892   4.326   2.835   1.039
 6444SOL    HW219893   4.243   2.728   1.106
 6445SOL     OW19894   4.025   2.064   1.246
 6445SOL    HW119895   3.987   2.096   1.328
 6445SOL    HW219896   4.004   1.970   1.245
 6446SOL     OW19897   3.769   3.172   1.277
 6446SOL    HW119898   3.803   3.119   1.350
 6446SOL    HW219899   3.777   3.262   1.308
 6447SOL     OW19900   4.021   1.929   0.625
 6447SOL    HW119901   4.007   2.020   0.651
 6447SOL    HW219902   4.031   1.882   0.708
 6448SOL     OW19903   4.076   2.777   1.808
 6448SOL    HW119904   4.158   2.794   1.853
 6448SOL    HW219905   4.099   2.714   1.739
 6449SOL     OW19906   4.032   2.671   0.947
 6449SOL    HW119907   4.124   2.698   0.946
 6449SOL    HW219908   4.034   2.582   0.981
 6450SOL     OW19909   4.062   2.386   1.009
 6450SOL    HW119910   4.025   2.299   0.993
 6450SOL    HW219911   4.140   2.390   0.953
 6451SOL     OW19912   3.731   3.190   0.195
 6451SOL    HW119913   3.644   3.201   0.157
 6451SOL    HW219914   3.732   3.099   0.225
 6452SOL     OW19915   3.815   3.652   0.937
 6452SOL    HW119916   3.785   3.572   0.894
 6452SOL    HW219917   3.905   3.663   0.905
 6453SOL     OW19918   4.232   3.443   0.906
 6453SOL    HW119919   4.316   3.481   0.930
 6453SOL    HW219920   4.255   3.370   0.848
 6454SOL     OW19921   3.759   2.405   1.116
 6454SOL    HW119922   3.840   2.387   1.068
 6454SOL    HW219923   3.787   2.411   1.207
 6455SOL     OW19924   3.914   2.379   1.726
 6455SOL    HW119925   3.972   2.345   1.658
 6455SOL    HW219926   3.867   2.451   1.683
 6456SOL     OW19927   0.032   2.417   0.271
 6456SOL    HW119928   0.017   2.342   0.328
 6456SOL    HW219929   4.464   2.480   0.296
 6457SOL     OW19930   3.972   3.416   1.731
 6457SOL    HW119931   3.945   3.478   1.797
 6457SOL    HW219932   3.968   3.331   1.774
 6458SOL     OW19933   4.192   2.353   0.180
 6458SOL    HW119934   4.248   2.425   0.206
 6458SOL    HW219935   4.104   2.391   0.176
 6459SOL     OW19936   3.872   3.001   1.471
 6459SOL    HW119937   3.877   2.947   1.550
 6459SOL    HW219938   3.888   2.940   1.399
 6460SOL     OW19939   3.807   3.129   1.014
 6460SOL    HW119940   3.794   3.139   1.108
 6460SOL    HW219941   3.735   3.074   0.984
 6461SOL     OW19942   4.390   3.514   1.702
 6461SOL    HW119943   4.357   3.601   1.724
 6461SOL    HW219944   4.443   3.528   1.624
 6462SOL     OW19945   3.859   3.659   1.843
 6462SOL    HW119946   3.808   3.594   1.892
 6462SOL    HW219947   3.907   3.707   1.910
 6463SOL     OW19948   3.988   2.183   0.717
 6463SOL    HW119949   3.902   2.216   0.694
 6463SOL    HW219950   3.985   2.171   0.812
 6464SOL     OW19951   4.090   3.166   1.491
 6464SOL    HW119952   4.072   3.243   1.437
 6464SOL    HW219953   4.016   3.107   1.474
 6465SOL     OW19954   4.324   3.352   0.482
 6465SOL    HW119955   4.345   3.295   0.408
 6465SOL    HW219956   4.259   3.413   0.448
 6466SOL     OW19957   3.988   3.206   0.287
 6466SOL    HW119958   3.899   3.206   0.252
 6466SOL    HW219959   3.980   3.244   0.374
 6467SOL     OW19960   3.835   2.881   1.720
 6467SOL    HW119961   3.759   2.858   1.773
 6467SOL    HW219962   3.910   2.844   1.767
 6468SOL     OW19963   4.392   2.067   1.493
 6468SOL    HW119964   4.479   2.061   1.455
 6468SOL    HW219965   4.406   2.058   1.587
 6469SOL     OW19966   3.807   2.211   0.049
 6469SOL    HW119967   3.729   2.173   0.009
 6469SOL    HW219968   3.824   2.289  11.096
 6470SOL     OW19969   3.793   2.021   0.316
 6470SOL    HW119970   3.783   2.103   0.266
 6470SOL    HW219971   3.875   1.984   0.284
 6471SOL     OW19972   4.336   2.701   1.434
 6471SOL    HW119973   4.383   2.784   1.419
 6471SOL    HW219974   4.405   2.636   1.442
 6472SOL     OW19975   4.403   2.418   1.735
 6472SOL    HW119976   4.427   2.496   1.785
 6472SOL    HW219977   4.486   2.378   1.710
 6473SOL     OW19978   4.109   3.601   1.560
 6473SOL    HW119979   4.022   3.640   1.549
 6473SOL    HW219980   4.092   3.518   1.605
 6474SOL     OW19981   4.310   2.595   0.664
 6474SOL    HW119982   4.354   2.680   0.653
 6474SOL    HW219983   4.239   2.596   0.600
 6475SOL     OW19984   3.944   3.169   1.855
 6475SOL    HW119985   3.878   3.106   1.828
 6475SOL    HW219986   3.930   3.180   1.949
 6476SOL     OW19987   3.807   3.097   0.664
 6476SOL    HW119988   3.810   3.047   0.746
 6476SOL    HW219989   3.878   3.061   0.611
 6477SOL     OW19990   4.412   3.249   1.651
 6477SOL    HW119991   4.323   3.215   1.653
 6477SOL    HW219992   4.401   3.343   1.668
 6478SOL     OW19993   4.159   2.295   0.529
 6478SOL    HW119994   4.180   2.224   0.468
 6478SOL    HW219995   4.106   2.253   0.597
 6479SOL     OW19996   4.051   2.414   1.289
 6479SOL    HW119997   4.105   2.357   1.344
 6479SOL    HW219998   4.073   2.387   1.199
 6480SOL     OW19999   0.036   3.456   0.685
 6480SOL    HW120000   0.059   3.511   0.611
 6480SOL    HW220001   4.463   3.402   0.655
 6481SOL     OW20002   3.766   2.934   0.300
 6481SOL    HW120003   3.862   2.928   0.296
 6481SOL    HW220004   3.737   2.847   0.327
 6482SOL     OW20005   3.955   2.486   1.983
 6482SOL    HW120006   3.865   2.485   2.016
 6482SOL    HW220007   3.947   2.458   1.892
 6483SOL     OW20008   3.947   2.144   2.853
 6483SOL    HW120009   3.979   2.110   2.936
 6483SOL    HW220010   3.858   2.109   2.845
 6484SOL     OW20011   3.730   2.244   2.500
 6484SOL    HW120012   3.647   2.268   2.542
 6484SOL    HW220013   3.710   2.164   2.452
 6485SOL     OW20014   4.271   3.114   3.008
 6485SOL    HW120015   4.193   3.165   2.986
 6485SOL    HW220016   4.328   3.175   3.054
 6486SOL     OW20017   0.024   2.645   3.719
 6486SOL    HW120018   0.073   2.696   3.784
 6486SOL    HW220019   0.066   2.666   3.635
 6487SOL     OW20020   4.399   2.860   2.505
 6487SOL    HW120021   4.470   2.851   2.569
 6487SOL    HW220022   4.334   2.916   2.547
 6488SOL     OW20023   4.418   3.023   3.677
 6488SOL    HW120024   4.462   3.104   3.652
 6488SOL    HW220025   4.327   3.035   3.648
 6489SOL     OW20026   4.058   3.296   2.931
 6489SOL    HW120027   3.987   3.255   2.883
 6489SOL    HW220028   4.108   3.344   2.864
 6490SOL     OW20029   4.170   2.261   3.351
 6490SOL    HW120030   4.244   2.200   3.354
 6490SOL    HW220031   4.093   2.205   3.363
 6491SOL     OW20032   3.943   3.575   2.337
 6491SOL    HW120033   3.967   3.652   2.390
 6491SOL    HW220034   4.014   3.568   2.273
 6492SOL     OW20035   3.953   3.301   2.395
 6492SOL    HW120036   3.936   3.395   2.402
 6492SOL    HW220037   3.892   3.261   2.457
 6493SOL     OW20038   3.973   2.951   2.748
 6493SOL    HW120039   3.977   2.867   2.794
 6493SOL    HW220040   3.920   3.006   2.806
 6494SOL     OW20041   4.359   3.659   3.312
 6494SOL    HW120042   4.273   3.626   3.338
 6494SOL    HW220043   4.350   3.754   3.315
 6495SOL     OW20044   4.311   2.846   1.998
 6495SOL    HW120045   4.339   2.900   1.925
 6495SOL    HW220046   4.379   2.859   2.065
 6496SOL     OW20047   3.839   2.512   2.422
 6496SOL    HW120048   3.808   2.424   2.443
 6496SOL    HW220049   3.830   2.561   2.503
 6497SOL     OW20050   3.753   3.459   1.986
 6497SOL    HW120051   3.736   3.367   2.006
 6497SOL    HW220052   3.729   3.505   2.067
 6498SOL     OW20053   3.845   2.603   3.449
 6498SOL    HW120054   3.937   2.624   3.465
 6498SOL    HW220055   3.800   2.687   3.454
 6499SOL     OW20056   4.315   3.247   2.599
 6499SOL    HW120057   4.278   3.159   2.603
 6499SOL    HW220058   4.313   3.269   2.506
 6500SOL     OW20059   0.022   1.869   2.388
 6500SOL    HW120060   0.055   1.933   2.326
 6500SOL    HW220061   4.427   1.883   2.390
 6501SOL     OW20062   3.914   2.830   3.131
 6501SOL    HW120063   3.999   2.789   3.113
 6501SOL    HW220064   3.851   2.773   3.088
 6502SOL     OW20065   4.054   2.113   3.668
 6502SOL    HW120066   4.101   2.195   3.684
 6502SOL    HW220067   3.966   2.129   3.702
 6503SOL     OW20068   4.312   2.590   2.131
 6503SOL    HW120069   4.314   2.665   2.071
 6503SOL    HW220070   4.243   2.612   2.194
 6504SOL     OW20071   3.812   2.682   2.637
 6504SOL    HW120072   3.894   2.674   2.686
 6504SOL    HW220073   3.771   2.761   2.672
 6505SOL     OW20074   3.853   3.699   3.437
 6505SOL    HW120075   3.850   3.681   3.531
 6505SOL    HW220076   3.761   3.706   3.411
 6506SOL     OW20077   4.255   2.055   2.743
 6506SOL    HW120078   4.274   2.060   2.837
 6506SOL    HW220079   4.266   2.145   2.711
 6507SOL     OW20080   4.081   3.671   2.721
 6507SOL    HW120081   4.129   3.588   2.729
 6507SOL    HW220082   4.147   3.739   2.732
 6508SOL     OW20083   4.045   2.818   2.110
 6508SOL    HW120084   4.127   2.837   2.064
 6508SOL    HW220085   4.014   2.736   2.071
 6509SOL     OW20086   4.179   3.116   3.597
 6509SOL    HW120087   4.151   3.127   3.506
 6509SOL    HW220088   4.098   3.125   3.648
 6510SOL     OW20089   3.924   2.146   3.363
 6510SOL    HW120090   3.842   2.195   3.354
 6510SOL    HW220091   3.907   2.084   3.433
 6511SOL     OW20092   4.193   3.597   2.187
 6511SOL    HW120093   4.224   3.656   2.256
 6511SOL    HW220094   4.263   3.599   2.122
 6512SOL     OW20095   3.978   3.655   3.096
 6512SOL    HW120096   4.027   3.587   3.143
 6512SOL    HW220097   3.965   3.618   3.008
 6513SOL     OW20098   4.110   2.557   2.337
 6513SOL    HW120099   4.138   2.466   2.349
 6513SOL    HW220100   4.017   2.557   2.358
 6514SOL     OW20101   4.340   1.975   1.979
 6514SOL    HW120102   4.434   1.958   1.979
 6514SOL    HW220103   4.312   1.951   1.890
 6515SOL     OW20104   0.017   3.289   2.778
 6515SOL    HW120105   0.090   3.315   2.722
 6515SOL    HW220106   4.446   3.272   2.716
 6516SOL     OW20107   4.262   1.925   2.364
 6516SOL    HW120108   4.183   1.931   2.419
 6516SOL    HW220109   4.258   2.004   2.310
 6517SOL     OW20110   4.018   1.909   2.046
 6517SOL    HW120111   4.078   1.974   2.009
 6517SOL    HW220112   4.075   1.844   2.087
 6518SOL     OW20113   0.321   2.540   3.309
 6518SOL    HW120114   0.246   2.480   3.311
 6518SOL    HW220115   0.397   2.483   3.300
 6519SOL     OW20116   4.189   3.008   2.598
 6519SOL    HW120117   4.119   2.989   2.661
 6519SOL    HW220118   4.150   2.989   2.513
 6520SOL     OW20119   3.801   2.417   3.253
 6520SOL    HW120120   3.892   2.415   3.225
 6520SOL    HW220121   3.797   2.487   3.318
 6521SOL     OW20122   4.285   2.076   3.011
 6521SOL    HW120123   4.325   2.004   3.061
 6521SOL    HW220124   4.198   2.087   3.050
 6522SOL     OW20125   4.229   3.249   2.034
 6522SOL    HW120126   4.145   3.234   2.077
 6522SOL    HW220127   4.207   3.266   1.943
 6523SOL     OW20128   4.247   2.127   2.185
 6523SOL    HW120129   4.287   2.073   2.117
 6523SOL    HW220130   4.229   2.210   2.142
 6524SOL     OW20131   4.138   2.674   3.112
 6524SOL    HW120132   4.206   2.685   3.179
 6524SOL    HW220133   4.104   2.586   3.127
 6525SOL     OW20134   3.792   3.434   3.211
 6525SOL    HW120135   3.758   3.507   3.159
 6525SOL    HW220136   3.887   3.443   3.207
 6526SOL     OW20137   4.076   2.968   2.353
 6526SOL    HW120138   4.078   3.041   2.292
 6526SOL    HW220139   4.075   2.890   2.298
 6527SOL     OW20140   4.297   2.401   2.725
 6527SOL    HW120141   4.301   2.467   2.656
 6527SOL    HW220142   4.360   2.432   2.791
 6528SOL     OW20143   4.073   3.391   3.181
 6528SOL    HW120144   4.066   3.348   3.095
 6528SOL    HW220145   4.167   3.395   3.197
 6529SOL     OW20146   4.135   2.606   3.466
 6529SOL    HW120147   4.194   2.651   3.405
 6529SOL    HW220148   4.178   2.521   3.482
 6530SOL     OW20149   4.230   1.914   3.597
 6530SOL    HW120150   4.187   1.854   3.537
 6530SOL    HW220151   4.164   1.980   3.617
 6531SOL     OW20152   4.292   2.747   2.888
 6531SOL    HW120153   4.326   2.836   2.901
 6531SOL    HW220154   4.243   2.728   2.968
 6532SOL     OW20155   4.025   2.064   3.108
 6532SOL    HW120156   3.987   2.096   3.190
 6532SOL    HW220157   4.005   1.970   3.107
 6533SOL     OW20158   3.769   3.172   3.139
 6533SOL    HW120159   3.803   3.119   3.212
 6533SOL    HW220160   3.777   3.262   3.170
 6534SOL     OW20161   4.021   1.929   2.487
 6534SOL    HW120162   4.006   2.020   2.512
 6534SOL    HW220163   4.031   1.882   2.569
 6535SOL     OW20164   4.076   2.777   3.670
 6535SOL    HW120165   4.158   2.794   3.715
 6535SOL    HW220166   4.099   2.714   3.601
 6536SOL     OW20167   4.032   2.671   2.809
 6536SOL    HW120168   4.124   2.698   2.808
 6536SOL    HW220169   4.033   2.582   2.843
 6537SOL     OW20170   4.062   2.386   2.871
 6537SOL    HW120171   4.025   2.299   2.855
 6537SOL    HW220172   4.140   2.390   2.815
 6538SOL     OW20173   3.729   3.185   2.057
 6538SOL    HW120174   3.642   3.198   2.020
 6538SOL    HW220175   3.728   3.095   2.090
 6539SOL     OW20176   3.815   3.652   2.799
 6539SOL    HW120177   3.785   3.572   2.756
 6539SOL    HW220178   3.905   3.663   2.767
 6540SOL     OW20179   4.232   3.443   2.767
 6540SOL    HW120180   4.316   3.481   2.793
 6540SOL    HW220181   4.255   3.370   2.710
 6541SOL     OW20182   3.759   2.405   2.978
 6541SOL    HW120183   3.840   2.387   2.930
 6541SOL    HW220184   3.787   2.411   3.069
 6542SOL     OW20185   3.914   2.379   3.588
 6542SOL    HW120186   3.972   2.344   3.520
 6542SOL    HW220187   3.867   2.451   3.545
 6543SOL     OW20188   0.035   2.422   2.129
 6543SOL    HW120189   0.020   2.342   2.179
 6543SOL    HW220190   4.465   2.481   2.157
 6544SOL     OW20191   3.972   3.416   3.593
 6544SOL    HW120192   3.945   3.479   3.659
 6544SOL    HW220193   3.968   3.331   3.636
 6545SOL     OW20194   4.192   2.355   2.052
 6545SOL    HW120195   4.249   2.429   2.070
 6545SOL    HW220196   4.106   2.394   2.039
 6546SOL     OW20197   3.872   3.001   3.333
 6546SOL    HW120198   3.877   2.947   3.412
 6546SOL    HW220199   3.888   2.940   3.261
 6547SOL     OW20200   3.807   3.130   2.876
 6547SOL    HW120201   3.793   3.139   2.970
 6547SOL    HW220202   3.735   3.074   2.846
 6548SOL     OW20203   4.390   3.514   3.564
 6548SOL    HW120204   4.357   3.601   3.587
 6548SOL    HW220205   4.443   3.528   3.486
 6549SOL     OW20206   3.859   3.659   3.705
 6549SOL    HW120207   3.808   3.594   3.755
 6549SOL    HW220208   3.907   3.707   3.772
 6550SOL     OW20209   3.988   2.182   2.579
 6550SOL    HW120210   3.902   2.217   2.556
 6550SOL    HW220211   3.985   2.171   2.673
 6551SOL     OW20212   4.090   3.166   3.353
 6551SOL    HW120213   4.072   3.243   3.299
 6551SOL    HW220214   4.016   3.107   3.336
 6552SOL     OW20215   4.324   3.352   2.344
 6552SOL    HW120216   4.344   3.293   2.271
 6552SOL    HW220217   4.261   3.414   2.308
 6553SOL     OW20218   3.983   3.213   2.147
 6553SOL    HW120219   3.890   3.209   2.125
 6553SOL    HW220220   3.985   3.248   2.236
 6554SOL     OW20221   3.835   2.881   3.582
 6554SOL    HW120222   3.759   2.857   3.635
 6554SOL    HW220223   3.910   2.844   3.629
 6555SOL     OW20224   4.392   2.067   3.355
 6555SOL    HW120225   4.479   2.061   3.317
 6555SOL    HW220226   4.406   2.057   3.449
 6556SOL     OW20227   3.801   2.198   1.898
 6556SOL    HW120228   3.714   2.178   1.865
 6556SOL    HW220229   3.830   2.273   1.845
 6557SOL     OW20230   3.795   2.020   2.176
 6557SOL    HW120231   3.779   2.100   2.125
 6557SOL    HW220232   3.880   1.988   2.145
 6558SOL     OW20233   4.336   2.701   3.296
 6558SOL    HW120234   4.383   2.784   3.281
 6558SOL    HW220235   4.405   2.636   3.305
 6559SOL     OW20236   4.403   2.418   3.597
 6559SOL    HW120237   4.427   2.496   3.647
 6559SOL    HW220238   4.486   2.378   3.572
 6560SOL     OW20239   4.109   3.601   3.422
 6560SOL    HW120240   4.022   3.640   3.411
 6560SOL    HW220241   4.092   3.518   3.467
 6561SOL     OW20242   4.310   2.596   2.527
 6561SOL    HW120243   4.354   2.680   2.514
 6561SOL    HW220244   4.239   2.596   2.462
 6562SOL     OW20245   3.944   3.169   3.717
 6562SOL    HW120246   3.878   3.106   3.690
 6562SOL    HW220247   3.930   3.180   3.811
 6563SOL     OW20248   3.807   3.098   2.526
 6563SOL    HW120249   3.809   3.048   2.607
 6563SOL    HW220250   3.877   3.059   2.473
 6564SOL     OW20251   4.412   3.249   3.512
 6564SOL    HW120252   4.323   3.215   3.515
 6564SOL    HW220253   4.402   3.343   3.530
 6565SOL     OW20254   4.161   2.295   2.392
 6565SOL    HW120255   4.179   2.225   2.329
 6565SOL    HW220256   4.106   2.253   2.459
 6566SOL     OW20257   4.051   2.414   3.151
 6566SOL    HW120258   4.105   2.357   3.206
 6566SOL    HW220259   4.073   2.387   3.061
 6567SOL     OW20260   0.038   3.456   2.547
 6567SOL    HW120261   0.057   3.512   2.472
 6567SOL    HW220262   4.464   3.402   2.518
 6568SOL     OW20263   3.768   2.935   2.167
 6568SOL    HW120264   3.861   2.925   2.150
 6568SOL    HW220265   3.738   2.847   2.190
 6569SOL     OW20266   3.955   2.486   3.845
 6569SOL    HW120267   3.865   2.485   3.878
 6569SOL    HW220268   3.947   2.458   3.753
 6570SOL     OW20269   3.947   2.143   4.715
 6570SOL    HW120270   3.979   2.110   4.799
 6570SOL    HW220271   3.858   2.109   4.707
 6571SOL     OW20272   3.729   2.244   4.362
 6571SOL    HW120273   3.647   2.265   4.405
 6571SOL    HW220274   3.711   2.164   4.313
 6572SOL     OW20275   4.272   3.114   4.868
 6572SOL    HW120276   4.193   3.165   4.849
 6572SOL    HW220277   4.328   3.175   4.917
 6573SOL     OW20278   0.024   2.645   5.581
 6573SOL    HW120279   0.073   2.696   5.646
 6573SOL    HW220280   0.066   2.667   5.497
 6574SOL     OW20281   4.399   2.860   4.367
 6574SOL    HW120282   4.469   2.851   4.431
 6574SOL    HW220283   4.334   2.916   4.409
 6575SOL     OW20284   4.418   3.023   5.539
 6575SOL    HW120285   4.462   3.104   5.514
 6575SOL    HW220286   4.327   3.035   5.510
 6576SOL     OW20287   4.058   3.296   4.793
 6576SOL    HW120288   3.986   3.255   4.745
 6576SOL    HW220289   4.107   3.344   4.726
 6577SOL     OW20290   4.170   2.261   5.212
 6577SOL    HW120291   4.243   2.199   5.216
 6577SOL    HW220292   4.092   2.206   5.225
 6578SOL     OW20293   3.943   3.575   4.199
 6578SOL    HW120294   3.967   3.652   4.252
 6578SOL    HW220295   4.014   3.568   4.135
 6579SOL     OW20296   3.953   3.301   4.257
 6579SOL    HW120297   3.936   3.395   4.264
 6579SOL    HW220298   3.892   3.262   4.320
 6580SOL     OW20299   3.972   2.951   4.610
 6580SOL    HW120300   3.978   2.867   4.656
 6580SOL    HW220301   3.920   3.006   4.668
 6581SOL     OW20302   4.359   3.659   5.174
 6581SOL    HW120303   4.273   3.626   5.200
 6581SOL    HW220304   4.350   3.754   5.177
 6582SOL     OW20305   4.311   2.846   3.860
 6582SOL    HW120306   4.339   2.900   3.787
 6582SOL    HW220307   4.379   2.859   3.927
 6583SOL     OW20308   3.839   2.512   4.283
 6583SOL    HW120309   3.809   2.424   4.305
 6583SOL    HW220310   3.830   2.561   4.365
 6584SOL     OW20311   3.753   3.459   3.848
 6584SOL    HW120312   3.736   3.367   3.868
 6584SOL    HW220313   3.729   3.505   3.929
 6585SOL     OW20314   3.845   2.603   5.310
 6585SOL    HW120315   3.936   2.625   5.328
 6585SOL    HW220316   3.799   2.686   5.316
 6586SOL     OW20317   4.315   3.247   4.461
 6586SOL    HW120318   4.278   3.159   4.465
 6586SOL    HW220319   4.313   3.269   4.368
 6587SOL     OW20320   0.022   1.869   4.250
 6587SOL    HW120321   0.055   1.934   4.188
 6587SOL    HW220322   4.427   1.882   4.252
 6588SOL     OW20323   3.915   2.831   4.992
 6588SOL    HW120324   3.999   2.789   4.975
 6588SOL    HW220325   3.850   2.772   4.953
 6589SOL     OW20326   4.054   2.113   5.531
 6589SOL    HW120327   4.100   2.196   5.545
 6589SOL    HW220328   3.966   2.128   5.563
 6590SOL     OW20329   4.312   2.590   3.993
 6590SOL    HW120330   4.314   2.666   3.933
 6590SOL    HW220331   4.243   2.612   4.056
 6591SOL     OW20332   3.812   2.683   4.499
 6591SOL    HW120333   3.894   2.673   4.548
 6591SOL    HW220334   3.772   2.762   4.535
 6592SOL     OW20335   3.853   3.700   5.299
 6592SOL    HW120336   3.851   3.682   5.393
 6592SOL    HW220337   3.761   3.705   5.273
 6593SOL     OW20338   4.255   2.055   4.605
 6593SOL    HW120339   4.273   2.060   4.698
 6593SOL    HW220340   4.266   2.145   4.574
 6594SOL     OW20341   4.081   3.671   4.583
 6594SOL    HW120342   4.129   3.588   4.591
 6594SOL    HW220343   4.147   3.738   4.594
 6595SOL     OW20344   4.045   2.818   3.972
 6595SOL    HW120345   4.127   2.837   3.926
 6595SOL    HW220346   4.014   2.736   3.933
 6596SOL     OW20347   4.179   3.117   5.459
 6596SOL    HW120348   4.151   3.127   5.368
 6596SOL    HW220349   4.098   3.125   5.510
 6597SOL     OW20350   3.923   2.147   5.226
 6597SOL    HW120351   3.841   2.194   5.215
 6597SOL    HW220352   3.906   2.083   5.295
 6598SOL     OW20353   4.193   3.597   4.049
 6598SOL    HW120354   4.224   3.656   4.118
 6598SOL    HW220355   4.263   3.599   3.984
 6599SOL     OW20356   3.978   3.655   4.958
 6599SOL    HW120357   4.027   3.587   5.005
 6599SOL    HW220358   3.965   3.618   4.870
 6600SOL     OW20359   4.110   2.557   4.198
 6600SOL    HW120360   4.138   2.466   4.211
 6600SOL    HW220361   4.017   2.557   4.220
 6601SOL     OW20362   4.340   1.976   3.840
 6601SOL    HW120363   4.434   1.957   3.841
 6601SOL    HW220364   4.312   1.951   3.752
 6602SOL     OW20365   0.017   3.289   4.640
 6602SOL    HW120366   0.090   3.315   4.584
 6602SOL    HW220367   4.446   3.272   4.579
 6603SOL     OW20368   4.262   1.925   4.226
 6603SOL    HW120369   4.183   1.930   4.281
 6603SOL    HW220370   4.258   2.004   4.172
 6604SOL     OW20371   4.018   1.909   3.907
 6604SOL    HW120372   4.078   1.974   3.872
 6604SOL    HW220373   4.075   1.844   3.949
 6605SOL     OW20374   0.321   2.540   5.171
 6605SOL    HW120375   0.246   2.482   5.173
 6605SOL    HW220376   0.397   2.482   5.162
 6606SOL     OW20377   4.189   3.008   4.460
 6606SOL    HW120378   4.119   2.989   4.523
 6606SOL    HW220379   4.150   2.989   4.375
 6607SOL     OW20380   3.801   2.418   5.113
 6607SOL    HW120381   3.893   2.416   5.086
 6607SOL    HW220382   3.796   2.487   5.179
 6608SOL     OW20383   4.285   2.076   4.873
 6608SOL    HW120384   4.324   2.004   4.923
 6608SOL    HW220385   4.198   2.087   4.912
 6609SOL     OW20386   4.230   3.248   3.896
 6609SOL    HW120387   4.146   3.234   3.939
 6609SOL    HW220388   4.207   3.267   3.805
 6610SOL     OW20389   4.247   2.127   4.047
 6610SOL    HW120390   4.287   2.073   3.979
 6610SOL    HW220391   4.229   2.211   4.004
 6611SOL     OW20392   4.139   2.674   4.973
 6611SOL    HW120393   4.206   2.685   5.041
 6611SOL    HW220394   4.104   2.586   4.989
 6612SOL     OW20395   3.792   3.434   5.074
 6612SOL    HW120396   3.758   3.507   5.021
 6612SOL    HW220397   3.887   3.443   5.068
 6613SOL     OW20398   4.076   2.968   4.215
 6613SOL    HW120399   4.078   3.041   4.154
 6613SOL    HW220400   4.075   2.890   4.160
 6614SOL     OW20401   4.298   2.401   4.587
 6614SOL    HW120402   4.301   2.467   4.518
 6614SOL    HW220403   4.360   2.432   4.653
 6615SOL     OW20404   4.073   3.392   5.043
 6615SOL    HW120405   4.065   3.349   4.958
 6615SOL    HW220406   4.167   3.395   5.060
 6616SOL     OW20407   4.136   2.606   5.328
 6616SOL    HW120408   4.195   2.651   5.267
 6616SOL    HW220409   4.177   2.521   5.344
 6617SOL     OW20410   4.230   1.914   5.459
 6617SOL    HW120411   4.186   1.854   5.399
 6617SOL    HW220412   4.164   1.980   5.479
 6618SOL     OW20413   4.291   2.748   4.750
 6618SOL    HW120414   4.326   2.836   4.764
 6618SOL    HW220415   4.243   2.728   4.830
 6619SOL     OW20416   4.026   2.064   4.970
 6619SOL    HW120417   3.987   2.097   5.052
 6619SOL    HW220418   4.005   1.971   4.969
 6620SOL     OW20419   3.771   3.172   5.001
 6620SOL    HW120420   3.803   3.119   5.074
 6620SOL    HW220421   3.777   3.262   5.033
 6621SOL     OW20422   4.021   1.929   4.348
 6621SOL    HW120423   4.007   2.020   4.374
 6621SOL    HW220424   4.031   1.882   4.431
 6622SOL     OW20425   4.076   2.778   5.532
 6622SOL    HW120426   4.159   2.793   5.578
 6622SOL    HW220427   4.098   2.714   5.463
 6623SOL     OW20428   4.032   2.671   4.670
 6623SOL    HW120429   4.124   2.698   4.670
 6623SOL    HW220430   4.033   2.582   4.705
 6624SOL     OW20431   4.062   2.386   4.732
 6624SOL    HW120432   4.025   2.298   4.717
 6624SOL    HW220433   4.140   2.389   4.677
 6625SOL     OW20434   3.729   3.185   3.919
 6625SOL    HW120435   3.642   3.198   3.882
 6625SOL    HW220436   3.728   3.095   3.952
 6626SOL     OW20437   3.815   3.652   4.660
 6626SOL    HW120438   3.785   3.571   4.618
 6626SOL    HW220439   3.905   3.663   4.629
 6627SOL     OW20440   4.232   3.443   4.629
 6627SOL    HW120441   4.316   3.481   4.655
 6627SOL    HW220442   4.255   3.370   4.572
 6628SOL     OW20443   3.760   2.405   4.839
 6628SOL    HW120444   3.841   2.386   4.793
 6628SOL    HW220445   3.786   2.411   4.931
 6629SOL     OW20446   3.916   2.380   5.450
 6629SOL    HW120447   3.970   2.343   5.380
 6629SOL    HW220448   3.866   2.450   5.408
 6630SOL     OW20449   0.035   2.422   3.991
 6630SOL    HW120450   0.020   2.342   4.041
 6630SOL    HW220451   4.465   2.481   4.019
 6631SOL     OW20452   3.973   3.416   5.455
 6631SOL    HW120453   3.945   3.478   5.521
 6631SOL    HW220454   3.968   3.331   5.498
 6632SOL     OW20455   4.192   2.355   3.914
 6632SOL    HW120456   4.250   2.429   3.932
 6632SOL    HW220457   4.106   2.394   3.901
 6633SOL     OW20458   3.873   3.001   5.195
 6633SOL    HW120459   3.876   2.947   5.274
 6633SOL    HW220460   3.889   2.940   5.123
 6634SOL     OW20461   3.808   3.130   4.738
 6634SOL    HW120462   3.794   3.139   4.832
 6634SOL    HW220463   3.735   3.074   4.709
 6635SOL     OW20464   4.390   3.514   5.427
 6635SOL    HW120465   4.357   3.601   5.449
 6635SOL    HW220466   4.443   3.528   5.348
 6636SOL     OW20467   3.859   3.659   5.567
 6636SOL    HW120468   3.808   3.594   5.616
 6636SOL    HW220469   3.907   3.707   5.634
 6637SOL     OW20470   3.988   2.182   4.441
 6637SOL    HW120471   3.902   2.217   4.418
 6637SOL    HW220472   3.985   2.170   4.536
 6638SOL     OW20473   4.090   3.166   5.214
 6638SOL    HW120474   4.071   3.243   5.161
 6638SOL    HW220475   4.016   3.107   5.198
 6639SOL     OW20476   4.324   3.352   4.206
 6639SOL    HW120477   4.344   3.293   4.133
 6639SOL    HW220478   4.261   3.414   4.170
 6640SOL     OW20479   3.983   3.213   4.009
 6640SOL    HW120480   3.890   3.209   3.987
 6640SOL    HW220481   3.985   3.248   4.098
 6641SOL     OW20482   3.836   2.882   5.444
 6641SOL    HW120483   3.759   2.858   5.496
 6641SOL    HW220484   3.909   2.844   5.492
 6642SOL     OW20485   4.392   2.067   5.217
 6642SOL    HW120486   4.480   2.061   5.179
 6642SOL    HW220487   4.405   2.058   5.311
 6643SOL     OW20488   3.801   2.199   3.760
 6643SOL    HW120489   3.714   2.178   3.727
 6643SOL    HW220490   3.830   2.273   3.707
 6644SOL     OW20491   3.795   2.020   4.038
 6644SOL    HW120492   3.779   2.100   3.987
 6644SOL    HW220493   3.880   1.988   4.007
 6645SOL     OW20494   4.336   2.701   5.157
 6645SOL    HW120495   4.384   2.784   5.144
 6645SOL    HW220496   4.405   2.636   5.167
 6646SOL     OW20497   4.403   2.418   5.458
 6646SOL    HW120498   4.427   2.496   5.509
 6646SOL    HW220499   4.487   2.378   5.435
 6647SOL     OW20500   4.109   3.601   5.284
 6647SOL    HW120501   4.022   3.640   5.273
 6647SOL    HW220502   4.092   3.518   5.330
 6648SOL     OW20503   4.310   2.596   4.389
 6648SOL    HW120504   4.354   2.680   4.376
 6648SOL    HW220505   4.239   2.596   4.324
 6649SOL     OW20506   3.944   3.169   5.578
 6649SOL    HW120507   3.878   3.105   5.551
 6649SOL    HW220508   3.930   3.180   5.672
 6650SOL     OW20509   3.807   3.097   4.387
 6650SOL    HW120510   3.810   3.048   4.470
 6650SOL    HW220511   3.877   3.059   4.335
 6651SOL     OW20512   4.412   3.250   5.374
 6651SOL    HW120513   4.323   3.214   5.377
 6651SOL    HW220514   4.401   3.343   5.392
 6652SOL     OW20515   4.161   2.295   4.254
 6652SOL    HW120516   4.179   2.225   4.191
 6652SOL    HW220517   4.106   2.253   4.321
 6653SOL     OW20518   4.052   2.414   5.013
 6653SOL    HW120519   4.105   2.357   5.068
 6653SOL    HW220520   4.073   2.387   4.923
 6654SOL     OW20521   0.038   3.456   4.409
 6654SOL    HW120522   0.057   3.512   4.334
 6654SOL    HW220523   4.464   3.402   4.380
 6655SOL     OW20524   3.767   2.935   4.028
 6655SOL    HW120525   3.861   2.925   4.012
 6655SOL    HW220526   3.738   2.847   4.052
 6656SOL     OW20527   3.955   2.485   5.707
 6656SOL    HW120528   3.865   2.486   5.740
 6656SOL    HW220529   3.948   2.458   5.616
 6657SOL     OW20530   3.947   2.144   6.576
 6657SOL    HW120531   3.979   2.110   6.660
 6657SOL    HW220532   3.858   2.109   6.569
 6658SOL     OW20533   3.730   2.244   6.224
 6658SOL    HW120534   3.647   2.267   6.266
 6658SOL    HW220535   3.711   2.163   6.175
 6659SOL     OW20536   4.271   3.113   6.732
 6659SOL    HW120537   4.193   3.165   6.710
 6659SOL    HW220538   4.328   3.175   6.778
 6660SOL     OW20539   0.024   2.645   7.443
 6660SOL    HW120540   0.073   2.696   7.508
 6660SOL    HW220541   0.066   2.666   7.359
 6661SOL     OW20542   4.399   2.860   6.229
 6661SOL    HW120543   4.469   2.851   6.293
 6661SOL    HW220544   4.334   2.916   6.271
 6662SOL     OW20545   4.418   3.023   7.401
 6662SOL    HW120546   4.462   3.104   7.376
 6662SOL    HW220547   4.327   3.035   7.372
 6663SOL     OW20548   4.058   3.296   6.655
 6663SOL    HW120549   3.987   3.255   6.607
 6663SOL    HW220550   4.108   3.344   6.588
 6664SOL     OW20551   4.170   2.261   7.075
 6664SOL    HW120552   4.244   2.200   7.078
 6664SOL    HW220553   4.093   2.205   7.087
 6665SOL     OW20554   3.943   3.575   6.061
 6665SOL    HW120555   3.967   3.652   6.114
 6665SOL    HW220556   4.014   3.568   5.997
 6666SOL     OW20557   3.953   3.301   6.120
 6666SOL    HW120558   3.936   3.395   6.126
 6666SOL    HW220559   3.892   3.261   6.181
 6667SOL     OW20560   3.973   2.951   6.473
 6667SOL    HW120561   3.977   2.867   6.518
 6667SOL    HW220562   3.919   3.006   6.530
 6668SOL     OW20563   4.359   3.659   7.036
 6668SOL    HW120564   4.273   3.626   7.062
 6668SOL    HW220565   4.350   3.755   7.039
 6669SOL     OW20566   4.311   2.846   5.722
 6669SOL    HW120567   4.340   2.900   5.649
 6669SOL    HW220568   4.379   2.859   5.789
 6670SOL     OW20569   3.839   2.512   6.146
 6670SOL    HW120570   3.808   2.424   6.167
 6670SOL    HW220571   3.830   2.561   6.227
 6671SOL     OW20572   3.754   3.459   5.710
 6671SOL    HW120573   3.736   3.367   5.729
 6671SOL    HW220574   3.729   3.505   5.791
 6672SOL     OW20575   3.845   2.603   7.173
 6672SOL    HW120576   3.937   2.624   7.189
 6672SOL    HW220577   3.800   2.687   7.178
 6673SOL     OW20578   4.315   3.247   6.323
 6673SOL    HW120579   4.278   3.159   6.327
 6673SOL    HW220580   4.313   3.269   6.230
 6674SOL     OW20581   0.022   1.869   6.112
 6674SOL    HW120582   0.055   1.933   6.050
 6674SOL    HW220583   4.427   1.883   6.114
 6675SOL     OW20584   3.914   2.830   6.855
 6675SOL    HW120585   3.999   2.789   6.838
 6675SOL    HW220586   3.851   2.773   6.812
 6676SOL     OW20587   4.054   2.113   7.392
 6676SOL    HW120588   4.101   2.195   7.407
 6676SOL    HW220589   3.966   2.129   7.426
 6677SOL     OW20590   4.312   2.591   5.855
 6677SOL    HW120591   4.314   2.666   5.795
 6677SOL    HW220592   4.243   2.612   5.918
 6678SOL     OW20593   3.812   2.682   6.361
 6678SOL    HW120594   3.894   2.674   6.410
 6678SOL    HW220595   3.771   2.761   6.396
 6679SOL     OW20596   3.853   3.700   7.161
 6679SOL    HW120597   3.850   3.682   7.255
 6679SOL    HW220598   3.761   3.705   7.135
 6680SOL     OW20599   4.254   2.055   6.467
 6680SOL    HW120600   4.273   2.060   6.561
 6680SOL    HW220601   4.266   2.144   6.435
 6681SOL     OW20602   4.081   3.671   6.445
 6681SOL    HW120603   4.129   3.588   6.452
 6681SOL    HW220604   4.147   3.738   6.456
 6682SOL     OW20605   4.045   2.818   5.834
 6682SOL    HW120606   4.127   2.837   5.788
 6682SOL    HW220607   4.014   2.736   5.795
 6683SOL     OW20608   4.179   3.116   7.321
 6683SOL    HW120609   4.151   3.127   7.230
 6683SOL    HW220610   4.098   3.125   7.372
 6684SOL     OW20611   3.924   2.145   7.086
 6684SOL    HW120612   3.842   2.195   7.078
 6684SOL    HW220613   3.907   2.084   7.158
 6685SOL     OW20614   4.193   3.597   5.911
 6685SOL    HW120615   4.224   3.656   5.980
 6685SOL    HW220616   4.263   3.599   5.846
 6686SOL     OW20617   3.978   3.655   6.820
 6686SOL    HW120618   4.027   3.587   6.867
 6686SOL    HW220619   3.965   3.618   6.732
 6687SOL     OW20620   4.110   2.557   6.061
 6687SOL    HW120621   4.138   2.466   6.073
 6687SOL    HW220622   4.017   2.557   6.082
 6688SOL     OW20623   4.340   1.975   5.703
 6688SOL    HW120624   4.434   1.958   5.703
 6688SOL    HW220625   4.312   1.951   5.614
 6689SOL     OW20626   0.017   3.289   6.502
 6689SOL    HW120627   0.090   3.315   6.447
 6689SOL    HW220628   4.446   3.272   6.440
 6690SOL     OW20629   4.262   1.925   6.088
 6690SOL    HW120630   4.183   1.931   6.143
 6690SOL    HW220631   4.258   2.004   6.034
 6691SOL     OW20632   4.017   1.909   5.770
 6691SOL    HW120633   4.077   1.974   5.733
 6691SOL    HW220634   4.075   1.844   5.811
 6692SOL     OW20635   0.320   2.540   7.033
 6692SOL    HW120636   0.246   2.479   7.034
 6692SOL    HW220637   0.397   2.484   7.024
 6693SOL     OW20638   4.189   3.008   6.322
 6693SOL    HW120639   4.119   2.989   6.385
 6693SOL    HW220640   4.150   2.989   6.237
 6694SOL     OW20641   3.801   2.417   6.977
 6694SOL    HW120642   3.892   2.415   6.949
 6694SOL    HW220643   3.797   2.487   7.042
 6695SOL     OW20644   4.285   2.076   6.735
 6695SOL    HW120645   4.325   2.004   6.785
 6695SOL    HW220646   4.198   2.087   6.774
 6696SOL     OW20647   4.229   3.249   5.758
 6696SOL    HW120648   4.146   3.234   5.801
 6696SOL    HW220649   4.206   3.266   5.667
 6697SOL     OW20650   4.247   2.127   5.909
 6697SOL    HW120651   4.286   2.073   5.841
 6697SOL    HW220652   4.229   2.210   5.866
 6698SOL     OW20653   4.138   2.674   6.836
 6698SOL    HW120654   4.206   2.685   6.903
 6698SOL    HW220655   4.104   2.586   6.851
 6699SOL     OW20656   3.792   3.434   6.936
 6699SOL    HW120657   3.758   3.507   6.883
 6699SOL    HW220658   3.887   3.443   6.930
 6700SOL     OW20659   4.077   2.968   6.077
 6700SOL    HW120660   4.077   3.041   6.015
 6700SOL    HW220661   4.075   2.890   6.022
 6701SOL     OW20662   4.297   2.401   6.449
 6701SOL    HW120663   4.300   2.467   6.380
 6701SOL    HW220664   4.360   2.432   6.515
 6702SOL     OW20665   4.073   3.391   6.905
 6702SOL    HW120666   4.066   3.348   6.819
 6702SOL    HW220667   4.167   3.395   6.921
 6703SOL     OW20668   4.135   2.606   7.190
 6703SOL    HW120669   4.194   2.651   7.129
 6703SOL    HW220670   4.178   2.521   7.206
 6704SOL     OW20671   4.230   1.914   7.321
 6704SOL    HW120672   4.187   1.854   7.261
 6704SOL    HW220673   4.164   1.980   7.341
 6705SOL     OW20674   4.292   2.747   6.612
 6705SOL    HW120675   4.326   2.836   6.625
 6705SOL    HW220676   4.243   2.728   6.692
 6706SOL     OW20677   4.025   2.064   6.832
 6706SOL    HW120678   3.987   2.096   6.914
 6706SOL    HW220679   4.005   1.970   6.831
 6707SOL     OW20680   3.769   3.172   6.863
 6707SOL    HW120681   3.803   3.119   6.936
 6707SOL    HW220682   3.777   3.262   6.894
 6708SOL     OW20683   4.021   1.929   6.211
 6708SOL    HW120684   4.007   2.020   6.236
 6708SOL    HW220685   4.031   1.882   6.293
 6709SOL     OW20686   4.076   2.777   7.394
 6709SOL    HW120687   4.158   2.794   7.439
 6709SOL    HW220688   4.099   2.714   7.325
 6710SOL     OW20689   4.032   2.671   6.533
 6710SOL    HW120690   4.124   2.698   6.532
 6710SOL    HW220691   4.034   2.582   6.567
 6711SOL     OW20692   4.062   2.386   6.595
 6711SOL    HW120693   4.025   2.299   6.579
 6711SOL    HW220694   4.140   2.390   6.540
 6712SOL     OW20695   3.729   3.185   5.781
 6712SOL    HW120696   3.642   3.198   5.744
 6712SOL    HW220697   3.728   3.095   5.814
 6713SOL     OW20698   3.815   3.652   6.523
 6713SOL    HW120699   3.785   3.572   6.480
 6713SOL    HW220700   3.905   3.663   6.491
 6714SOL     OW20701   4.232   3.443   6.491
 6714SOL    HW120702   4.316   3.481   6.517
 6714SOL    HW220703   4.255   3.370   6.434
 6715SOL     OW20704   3.759   2.404   6.702
 6715SOL    HW120705   3.840   2.387   6.653
 6715SOL    HW220706   3.787   2.411   6.793
 6716SOL     OW20707   3.914   2.379   7.312
 6716SOL    HW120708   3.972   2.345   7.244
 6716SOL    HW220709   3.867   2.451   7.269
 6717SOL     OW20710   0.035   2.422   5.853
 6717SOL    HW120711   0.020   2.342   5.903
 6717SOL    HW220712   4.465   2.481   5.881
 6718SOL     OW20713   3.972   3.416   7.317
 6718SOL    HW120714   3.945   3.479   7.383
 6718SOL    HW220715   3.968   3.331   7.360
 6719SOL     OW20716   4.192   2.355   5.776
 6719SOL    HW120717   4.249   2.430   5.794
 6719SOL    HW220718   4.106   2.393   5.763
 6720SOL     OW20719   3.872   3.001   7.057
 6720SOL    HW120720   3.877   2.947   7.136
 6720SOL    HW220721   3.888   2.940   6.985
 6721SOL     OW20722   3.807   3.130   6.600
 6721SOL    HW120723   3.793   3.138   6.694
 6721SOL    HW220724   3.735   3.074   6.570
 6722SOL     OW20725   4.390   3.514   7.288
 6722SOL    HW120726   4.357   3.601   7.311
 6722SOL    HW220727   4.443   3.528   7.210
 6723SOL     OW20728   3.859   3.659   7.429
 6723SOL    HW120729   3.808   3.594   7.479
 6723SOL    HW220730   3.907   3.707   7.496
 6724SOL     OW20731   3.988   2.182   6.303
 6724SOL    HW120732   3.902   2.217   6.280
 6724SOL    HW220733   3.985   2.171   6.398
 6725SOL     OW20734   4.090   3.166   7.077
 6725SOL    HW120735   4.072   3.243   7.023
 6725SOL    HW220736   4.016   3.107   7.060
 6726SOL     OW20737   4.325   3.352   6.068
 6726SOL    HW120738   4.344   3.293   5.995
 6726SOL    HW220739   4.261   3.414   6.032
 6727SOL     OW20740   3.983   3.213   5.871
 6727SOL    HW120741   3.890   3.208   5.849
 6727SOL    HW220742   3.985   3.248   5.960
 6728SOL     OW20743   3.835   2.881   7.306
 6728SOL    HW120744   3.759   2.857   7.359
 6728SOL    HW220745   3.910   2.844   7.353
 6729SOL     OW20746   4.392   2.067   7.079
 6729SOL    HW120747   4.479   2.061   7.041
 6729SOL    HW220748   4.406   2.058   7.173
 6730SOL     OW20749   3.801   2.198   5.622
 6730SOL    HW120750   3.713   2.177   5.588
 6730SOL    HW220751   3.829   2.273   5.569
 6731SOL     OW20752   3.794   2.021   5.900
 6731SOL    HW120753   3.778   2.099   5.848
 6731SOL    HW220754   3.879   1.989   5.869
 6732SOL     OW20755   4.336   2.701   7.020
 6732SOL    HW120756   4.383   2.784   7.005
 6732SOL    HW220757   4.405   2.636   7.028
 6733SOL     OW20758   4.403   2.418   7.321
 6733SOL    HW120759   4.427   2.496   7.371
 6733SOL    HW220760   4.486   2.378   7.296
 6734SOL     OW20761   4.109   3.601   7.146
 6734SOL    HW120762   4.022   3.640   7.135
 6734SOL    HW220763   4.092   3.518   7.191
 6735SOL     OW20764   4.310   2.596   6.251
 6735SOL    HW120765   4.354   2.680   6.238
 6735SOL    HW220766   4.240   2.596   6.186
 6736SOL     OW20767   3.944   3.169   7.441
 6736SOL    HW120768   3.878   3.106   7.414
 6736SOL    HW220769   3.930   3.180   7.535
 6737SOL     OW20770   3.808   3.098   6.250
 6737SOL    HW120771   3.809   3.048   6.331
 6737SOL    HW220772   3.877   3.059   6.196
 6738SOL     OW20773   4.412   3.249   7.236
 6738SOL    HW120774   4.323   3.215   7.239
 6738SOL    HW220775   4.401   3.343   7.254
 6739SOL     OW20776   4.162   2.295   6.116
 6739SOL    HW120777   4.179   2.225   6.053
 6739SOL    HW220778   4.106   2.253   6.183
 6740SOL     OW20779   4.051   2.413   6.875
 6740SOL    HW120780   4.105   2.357   6.930
 6740SOL    HW220781   4.073   2.387   6.785
 6741SOL     OW20782   0.038   3.456   6.271
 6741SOL    HW120783   0.057   3.512   6.196
 6741SOL    HW220784   4.464   3.402   6.242
 6742SOL     OW20785   3.768   2.936   5.891
 6742SOL    HW120786   3.862   2.925   5.874
 6742SOL    HW220787   3.738   2.848   5.914
 6743SOL     OW20788   3.955   2.485   7.569
 6743SOL    HW120789   3.865   2.486   7.602
 6743SOL    HW220790   3.947   2.458   7.478
 6744SOL     OW20791   3.947   2.144   8.438
 6744SOL    HW120792   3.979   2.110   8.522
 6744SOL    HW220793   3.858   2.109   8.431
 6745SOL     OW20794   3.730   2.244   8.086
 6745SOL    HW120795   3.647   2.268   8.128
 6745SOL    HW220796   3.710   2.164   8.038
 6746SOL     OW20797   4.271   3.114   8.594
 6746SOL    HW120798   4.193   3.165   8.572
 6746SOL    HW220799   4.328   3.174   8.640
 6747SOL     OW20800   0.024   2.645   9.305
 6747SOL    HW120801   0.073   2.696   9.370
 6747SOL    HW220802   0.066   2.666   9.221
 6748SOL     OW20803   4.399   2.859   8.091
 6748SOL    HW120804   4.470   2.851   8.155
 6748SOL    HW220805   4.334   2.916   8.133
 6749SOL     OW20806   4.418   3.023   9.263
 6749SOL    HW120807   4.462   3.104   9.238
 6749SOL    HW220808   4.327   3.035   9.234
 6750SOL     OW20809   4.058   3.296   8.517
 6750SOL    HW120810   3.987   3.255   8.469
 6750SOL    HW220811   4.108   3.344   8.450
 6751SOL     OW20812   4.170   2.261   8.937
 6751SOL    HW120813   4.244   2.200   8.940
 6751SOL    HW220814   4.093   2.205   8.949
 6752SOL     OW20815   3.943   3.575   7.923
 6752SOL    HW120816   3.967   3.652   7.976
 6752SOL    HW220817   4.014   3.568   7.859
 6753SOL     OW20818   3.953   3.301   7.981
 6753SOL    HW120819   3.936   3.395   7.988
 6753SOL    HW220820   3.892   3.261   8.043
 6754SOL     OW20821   3.973   2.951   8.334
 6754SOL    HW120822   3.977   2.867   8.380
 6754SOL    HW220823   3.920   3.006   8.392
 6755SOL     OW20824   4.359   3.659   8.898
 6755SOL    HW120825   4.273   3.626   8.924
 6755SOL    HW220826   4.350   3.754   8.901
 6756SOL     OW20827   4.311   2.846   7.585
 6756SOL    HW120828   4.339   2.900   7.511
 6756SOL    HW220829   4.379   2.859   7.651
 6757SOL     OW20830   3.839   2.512   8.007
 6757SOL    HW120831   3.808   2.424   8.029
 6757SOL    HW220832   3.830   2.561   8.089
 6758SOL     OW20833   3.753   3.459   7.572
 6758SOL    HW120834   3.736   3.367   7.592
 6758SOL    HW220835   3.729   3.505   7.653
 6759SOL     OW20836   3.845   2.603   9.035
 6759SOL    HW120837   3.937   2.624   9.051
 6759SOL    HW220838   3.800   2.687   9.040
 6760SOL     OW20839   4.315   3.247   8.185
 6760SOL    HW120840   4.278   3.159   8.189
 6760SOL    HW220841   4.313   3.269   8.092
 6761SOL     OW20842   0.022   1.869   7.974
 6761SOL    HW120843   0.055   1.933   7.912
 6761SOL    HW220844   4.427   1.883   7.976
 6762SOL     OW20845   3.914   2.830   8.717
 6762SOL    HW120846   3.999   2.789   8.699
 6762SOL    HW220847   3.851   2.773   8.674
 6763SOL     OW20848   4.054   2.113   9.254
 6763SOL    HW120849   4.101   2.195   9.269
 6763SOL    HW220850   3.966   2.129   9.288
 6764SOL     OW20851   4.312   2.590   7.717
 6764SOL    HW120852   4.314   2.665   7.657
 6764SOL    HW220853   4.243   2.612   7.780
 6765SOL     OW20854   3.812   2.682   8.223
 6765SOL    HW120855   3.894   2.674   8.272
 6765SOL    HW220856   3.771   2.761   8.258
 6766SOL     OW20857   3.853   3.699   9.023
 6766SOL    HW120858   3.850   3.682   9.117
 6766SOL    HW220859   3.761   3.706   8.997
 6767SOL     OW20860   4.254   2.055   8.329
 6767SOL    HW120861   4.273   2.060   8.423
 6767SOL    HW220862   4.266   2.144   8.297
 6768SOL     OW20863   4.081   3.671   8.307
 6768SOL    HW120864   4.129   3.588   8.314
 6768SOL    HW220865   4.147   3.739   8.318
 6769SOL     OW20866   4.045   2.818   7.696
 6769SOL    HW120867   4.127   2.837   7.650
 6769SOL    HW220868   4.014   2.736   7.657
 6770SOL     OW20869   4.179   3.116   9.183
 6770SOL    HW120870   4.151   3.127   9.092
 6770SOL    HW220871   4.098   3.125   9.234
 6771SOL     OW20872   3.923   2.145   8.948
 6771SOL    HW120873   3.842   2.195   8.940
 6771SOL    HW220874   3.907   2.084   9.020
 6772SOL     OW20875   4.193   3.597   7.773
 6772SOL    HW120876   4.224   3.656   7.842
 6772SOL    HW220877   4.263   3.599   7.708
 6773SOL     OW20878   3.978   3.655   8.682
 6773SOL    HW120879   4.027   3.588   8.729
 6773SOL    HW220880   3.965   3.618   8.594
 6774SOL     OW20881   4.110   2.557   7.923
 6774SOL    HW120882   4.138   2.466   7.935
 6774SOL    HW220883   4.017   2.557   7.944
 6775SOL     OW20884   4.340   1.975   7.565
 6775SOL    HW120885   4.434   1.958   7.565
 6775SOL    HW220886   4.312   1.951   7.476
 6776SOL     OW20887   0.017   3.289   8.364
 6776SOL    HW120888   0.090   3.315   8.308
 6776SOL    HW220889   4.446   3.272   8.302
 6777SOL     OW20890   4.261   1.925   7.950
 6777SOL    HW120891   4.183   1.931   8.005
 6777SOL    HW220892   4.258   2.004   7.896
 6778SOL     OW20893   4.018   1.909   7.632
 6778SOL    HW120894   4.078   1.974   7.595
 6778SOL    HW220895   4.075   1.844   7.673
 6779SOL     OW20896   0.320   2.540   8.895
 6779SOL    HW120897   0.246   2.480   8.897
 6779SOL    HW220898   0.397   2.484   8.886
 6780SOL     OW20899   4.189   3.008   8.184
 6780SOL    HW120900   4.118   2.989   8.247
 6780SOL    HW220901   4.150   2.989   8.099
 6781SOL     OW20902   3.801   2.417   8.839
 6781SOL    HW120903   3.892   2.415   8.811
 6781SOL    HW220904   3.797   2.487   8.904
 6782SOL     OW20905   4.285   2.076   8.597
 6782SOL    HW120906   4.325   2.005   8.647
 6782SOL    HW220907   4.198   2.087   8.636
 6783SOL     OW20908   4.229   3.249   7.620
 6783SOL    HW120909   4.145   3.234   7.663
 6783SOL    HW220910   4.207   3.267   7.529
 6784SOL     OW20911   4.247   2.127   7.771
 6784SOL    HW120912   4.287   2.073   7.703
 6784SOL    HW220913   4.229   2.210   7.728
 6785SOL     OW20914   4.138   2.674   8.698
 6785SOL    HW120915   4.206   2.685   8.765
 6785SOL    HW220916   4.104   2.586   8.713
 6786SOL     OW20917   3.792   3.434   8.797
 6786SOL    HW120918   3.758   3.507   8.745
 6786SOL    HW220919   3.887   3.443   8.793
 6787SOL     OW20920   4.076   2.968   7.940
 6787SOL    HW120921   4.078   3.041   7.878
 6787SOL    HW220922   4.075   2.890   7.884
 6788SOL     OW20923   4.297   2.401   8.311
 6788SOL    HW120924   4.301   2.467   8.242
 6788SOL    HW220925   4.360   2.432   8.377
 6789SOL     OW20926   4.073   3.391   8.767
 6789SOL    HW120927   4.066   3.348   8.681
 6789SOL    HW220928   4.167   3.395   8.783
 6790SOL     OW20929   4.135   2.606   9.052
 6790SOL    HW120930   4.194   2.651   8.991
 6790SOL    HW220931   4.178   2.521   9.068
 6791SOL     OW20932   4.230   1.914   9.183
 6791SOL    HW120933   4.187   1.854   9.123
 6791SOL    HW220934   4.164   1.980   9.203
 6792SOL     OW20935   4.291   2.747   8.474
 6792SOL    HW120936   4.326   2.836   8.487
 6792SOL    HW220937   4.243   2.728   8.554
 6793SOL     OW20938   4.025   2.064   8.694
 6793SOL    HW120939   3.987   2.096   8.776
 6793SOL    HW220940   4.005   1.970   8.693
 6794SOL     OW20941   3.769   3.172   8.725
 6794SOL    HW120942   3.803   3.119   8.798
 6794SOL    HW220943   3.777   3.262   8.756
 6795SOL     OW20944   4.021   1.929   8.073
 6795SOL    HW120945   4.006   2.020   8.098
 6795SOL    HW220946   4.031   1.882   8.155
 6796SOL     OW20947   4.076   2.777   9.256
 6796SOL    HW120948   4.158   2.794   9.301
 6796SOL    HW220949   4.099   2.714   9.187
 6797SOL     OW20950   4.032   2.671   8.395
 6797SOL    HW120951   4.124   2.698   8.394
 6797SOL    HW220952   4.034   2.582   8.429
 6798SOL     OW20953   4.062   2.386   8.457
 6798SOL    HW120954   4.025   2.299   8.441
 6798SOL    HW220955   4.140   2.390   8.402
 6799SOL     OW20956   3.729   3.185   7.643
 6799SOL    HW120957   3.642   3.198   7.606
 6799SOL    HW220958   3.728   3.095   7.676
 6800SOL     OW20959   3.815   3.652   8.385
 6800SOL    HW120960   3.785   3.572   8.342
 6800SOL    HW220961   3.905   3.663   8.353
 6801SOL     OW20962   4.232   3.443   8.353
 6801SOL    HW120963   4.316   3.481   8.379
 6801SOL    HW220964   4.255   3.370   8.296
 6802SOL     OW20965   3.759   2.405   8.564
 6802SOL    HW120966   3.840   2.387   8.516
 6802SOL    HW220967   3.787   2.411   8.655
 6803SOL     OW20968   3.914   2.379   9.174
 6803SOL    HW120969   3.972   2.345   9.106
 6803SOL    HW220970   3.867   2.451   9.131
 6804SOL     OW20971   0.035   2.422   7.715
 6804SOL    HW120972   0.020   2.342   7.765
 6804SOL    HW220973   4.465   2.481   7.743
 6805SOL     OW20974   3.972   3.416   9.179
 6805SOL    HW120975   3.945   3.479   9.245
 6805SOL    HW220976   3.968   3.331   9.222
 6806SOL     OW20977   4.192   2.355   7.638
 6806SOL    HW120978   4.250   2.429   7.656
 6806SOL    HW220979   4.106   2.394   7.625
 6807SOL     OW20980   3.872   3.001   8.919
 6807SOL    HW120981   3.877   2.947   8.998
 6807SOL    HW220982   3.888   2.940   8.847
 6808SOL     OW20983   3.807   3.130   8.462
 6808SOL    HW120984   3.794   3.139   8.556
 6808SOL    HW220985   3.735   3.074   8.432
 6809SOL     OW20986   4.390   3.514   9.150
 6809SOL    HW120987   4.357   3.601   9.173
 6809SOL    HW220988   4.443   3.528   9.072
 6810SOL     OW20989   3.859   3.659   9.291
 6810SOL    HW120990   3.808   3.594   9.341
 6810SOL    HW220991   3.907   3.707   9.358
 6811SOL     OW20992   3.988   2.182   8.165
 6811SOL    HW120993   3.902   2.217   8.142
 6811SOL    HW220994   3.985   2.171   8.259
 6812SOL     OW20995   4.090   3.166   8.939
 6812SOL    HW120996   4.072   3.243   8.885
 6812SOL    HW220997   4.016   3.107   8.922
 6813SOL     OW20998   4.324   3.352   7.930
 6813SOL    HW120999   4.344   3.293   7.857
 6813SOL    HW221000   4.261   3.414   7.894
 6814SOL     OW21001   3.983   3.213   7.733
 6814SOL    HW121002   3.890   3.209   7.711
 6814SOL    HW221003   3.985   3.248   7.822
 6815SOL     OW21004   3.835   2.881   9.168
 6815SOL    HW121005   3.759   2.857   9.221
 6815SOL    HW221006   3.910   2.844   9.215
 6816SOL     OW21007   4.392   2.067   8.941
 6816SOL    HW121008   4.479   2.061   8.903
 6816SOL    HW221009   4.406   2.058   9.035
 6817SOL     OW21010   3.801   2.199   7.484
 6817SOL    HW121011   3.714   2.178   7.451
 6817SOL    HW221012   3.830   2.273   7.431
 6818SOL     OW21013   3.794   2.020   7.761
 6818SOL    HW121014   3.779   2.100   7.711
 6818SOL    HW221015   3.880   1.988   7.731
 6819SOL     OW21016   4.336   2.701   8.882
 6819SOL    HW121017   4.383   2.784   8.868
 6819SOL    HW221018   4.405   2.636   8.890
 6820SOL     OW21019   4.403   2.418   9.183
 6820SOL    HW121020   4.427   2.496   9.233
 6820SOL    HW221021   4.486   2.378   9.158
 6821SOL     OW21022   4.109   3.601   9.008
 6821SOL    HW121023   4.022   3.640   8.997
 6821SOL    HW221024   4.092   3.518   9.053
 6822SOL     OW21025   4.310   2.596   8.113
 6822SOL    HW121026   4.354   2.680   8.101
 6822SOL    HW221027   4.239   2.596   8.048
 6823SOL     OW21028   3.944   3.169   9.303
 6823SOL    HW121029   3.878   3.106   9.276
 6823SOL    HW221030   3.930   3.180   9.397
 6824SOL     OW21031   3.807   3.098   8.112
 6824SOL    HW121032   3.809   3.048   8.194
 6824SOL    HW221033   3.877   3.059   8.059
 6825SOL     OW21034   4.412   3.249   9.098
 6825SOL    HW121035   4.323   3.215   9.101
 6825SOL    HW221036   4.401   3.343   9.116
 6826SOL     OW21037   4.161   2.295   7.978
 6826SOL    HW121038   4.179   2.225   7.915
 6826SOL    HW221039   4.106   2.253   8.045
 6827SOL     OW21040   4.051   2.414   8.737
 6827SOL    HW121041   4.105   2.357   8.792
 6827SOL    HW221042   4.073   2.387   8.647
 6828SOL     OW21043   0.038   3.456   8.133
 6828SOL    HW121044   0.057   3.512   8.058
 6828SOL    HW221045   4.464   3.402   8.104
 6829SOL     OW21046   3.768   2.935   7.752
 6829SOL    HW121047   3.861   2.925   7.736
 6829SOL    HW221048   3.738   2.847   7.776
 6830SOL     OW21049   3.955   2.486   9.431
 6830SOL    HW121050   3.865   2.485   9.464
 6830SOL    HW221051   3.947   2.458   9.340
 6831SOL     OW21052   3.947   2.144  10.300
 6831SOL    HW121053   3.979   2.110  10.384
 6831SOL    HW221054   3.858   2.109  10.293
 6832SOL     OW21055   3.730   2.244   9.948
 6832SOL    HW121056   3.647   2.268   9.990
 6832SOL    HW221057   3.710   2.164   9.900
 6833SOL     OW21058   4.271   3.114  10.456
 6833SOL    HW121059   4.193   3.165  10.434
 6833SOL    HW221060   4.328   3.175  10.503
 6834SOL     OW21061   0.026   2.669   0.077
 6834SOL    HW121062   0.097   2.715   0.122
 6834SOL    HW221063   0.059   2.658  11.087
 6835SOL     OW21064   4.399   2.860   9.953
 6835SOL    HW121065   4.470   2.851  10.017
 6835SOL    HW221066   4.334   2.916   9.995
 6836SOL     OW21067   4.059   3.296  10.379
 6836SOL    HW121068   3.987   3.255  10.331
 6836SOL    HW221069   4.108   3.344  10.312
 6837SOL     OW21070   4.176   2.262  10.801
 6837SOL    HW121071   4.243   2.194  10.799
 6837SOL    HW221072   4.094   2.214  10.817
 6838SOL     OW21073   3.943   3.575   9.785
 6838SOL    HW121074   3.967   3.652   9.838
 6838SOL    HW221075   4.014   3.568   9.721
 6839SOL     OW21076   3.953   3.301   9.843
 6839SOL    HW121077   3.936   3.395   9.851
 6839SOL    HW221078   3.892   3.261   9.905
 6840SOL     OW21079   3.973   2.951  10.196
 6840SOL    HW121080   3.977   2.867  10.242
 6840SOL    HW221081   3.920   3.006  10.253
 6841SOL     OW21082   4.357   3.660  10.759
 6841SOL    HW121083   4.269   3.630  10.783
 6841SOL    HW221084   4.352   3.755  10.764
 6842SOL     OW21085   4.311   2.846   9.446
 6842SOL    HW121086   4.339   2.900   9.373
 6842SOL    HW221087   4.379   2.859   9.513
 6843SOL     OW21088   3.839   2.512   9.870
 6843SOL    HW121089   3.808   2.424   9.891
 6843SOL    HW221090   3.830   2.561   9.951
 6844SOL     OW21091   3.753   3.459   9.434
 6844SOL    HW121092   3.736   3.367   9.454
 6844SOL    HW221093   3.729   3.505   9.515
 6845SOL     OW21094   3.847   2.590  10.912
 6845SOL    HW121095   3.941   2.611  10.912
 6845SOL    HW221096   3.803   2.675  10.905
 6846SOL     OW21097   4.315   3.247  10.047
 6846SOL    HW121098   4.278   3.159  10.051
 6846SOL    HW221099   4.313   3.269   9.954
 6847SOL     OW21100   0.022   1.869   9.836
 6847SOL    HW121101   0.055   1.933   9.774
 6847SOL    HW221102   4.427   1.883   9.838
 6848SOL     OW21103   3.914   2.830  10.577
 6848SOL    HW121104   3.999   2.788  10.559
 6848SOL    HW221105   3.850   2.772  10.537
 6849SOL     OW21106   4.062   2.119   0.012
 6849SOL    HW121107   4.114   2.194   0.041
 6849SOL    HW221108   3.972   2.142   0.034
 6850SOL     OW21109   4.312   2.590   9.579
 6850SOL    HW121110   4.314   2.666   9.519
 6850SOL    HW221111   4.243   2.612   9.642
 6851SOL     OW21112   3.812   2.682  10.085
 6851SOL    HW121113   3.894   2.674  10.134
 6851SOL    HW221114   3.771   2.761  10.121
 6852SOL     OW21115   3.855   3.699  10.893
 6852SOL    HW121116   3.835   3.668  10.982
 6852SOL    HW221117   3.769   3.707  10.851
 6853SOL     OW21118   4.255   2.055  10.191
 6853SOL    HW121119   4.274   2.061  10.285
 6853SOL    HW221120   4.266   2.144  10.159
 6854SOL     OW21121   4.081   3.671  10.169
 6854SOL    HW121122   4.129   3.588  10.176
 6854SOL    HW221123   4.147   3.739  10.180
 6855SOL     OW21124   4.045   2.818   9.558
 6855SOL    HW121125   4.127   2.837   9.512
 6855SOL    HW221126   4.014   2.736   9.519
 6856SOL     OW21127   4.180   3.124  11.052
 6856SOL    HW121128   4.154   3.133  10.961
 6856SOL    HW221129   4.106   3.080  11.094
 6857SOL     OW21130   3.927   2.146  10.806
 6857SOL    HW121131   3.845   2.195  10.800
 6857SOL    HW221132   3.912   2.084  10.878
 6858SOL     OW21133   4.193   3.597   9.635
 6858SOL    HW121134   4.224   3.656   9.704
 6858SOL    HW221135   4.263   3.599   9.570
 6859SOL     OW21136   3.978   3.655  10.544
 6859SOL    HW121137   4.027   3.588  10.592
 6859SOL    HW221138   3.965   3.617  10.457
 6860SOL     OW21139   4.110   2.557   9.785
 6860SOL    HW121140   4.138   2.466   9.797
 6860SOL    HW221141   4.017   2.557   9.806
 6861SOL     OW21142   4.340   1.975   9.427
 6861SOL    HW121143   4.434   1.958   9.427
 6861SOL    HW221144   4.312   1.951   9.338
 6862SOL     OW21145   0.017   3.289  10.226
 6862SOL    HW121146   0.090   3.315  10.170
 6862SOL    HW221147   4.446   3.272  10.165
 6863SOL     OW21148   4.261   1.925   9.812
 6863SOL    HW121149   4.183   1.931   9.867
 6863SOL    HW221150   4.258   2.004   9.758
 6864SOL     OW21151   4.018   1.909   9.494
 6864SOL    HW121152   4.078   1.974   9.457
 6864SOL    HW221153   4.075   1.844   9.535
 6865SOL     OW21154   0.310   2.542  10.759
 6865SOL    HW121155   0.243   2.475  10.773
 6865SOL    HW221156   0.391   2.493  10.749
 6866SOL     OW21157   4.189   3.008  10.047
 6866SOL    HW121158   4.119   2.989  10.109
 6866SOL    HW221159   4.150   2.989   9.961
 6867SOL     OW21160   3.800   2.417  10.702
 6867SOL    HW121161   3.892   2.415  10.675
 6867SOL    HW221162   3.797   2.480  10.774
 6868SOL     OW21163   4.285   2.076  10.460
 6868SOL    HW121164   4.323   2.002  10.507
 6868SOL    HW221165   4.198   2.087  10.498
 6869SOL     OW21166   4.230   3.248   9.482
 6869SOL    HW121167   4.145   3.234   9.525
 6869SOL    HW221168   4.207   3.267   9.391
 6870SOL     OW21169   4.247   2.127   9.633
 6870SOL    HW121170   4.287   2.073   9.565
 6870SOL    HW221171   4.229   2.210   9.590
 6871SOL     OW21172   4.139   2.674  10.560
 6871SOL    HW121173   4.207   2.685  10.626
 6871SOL    HW221174   4.104   2.586  10.575
 6872SOL     OW21175   3.792   3.436  10.658
 6872SOL    HW121176   3.759   3.508  10.604
 6872SOL    HW221177   3.887   3.443  10.652
 6873SOL     OW21178   4.076   2.968   9.801
 6873SOL    HW121179   4.078   3.041   9.740
 6873SOL    HW221180   4.075   2.890   9.746
 6874SOL     OW21181   4.297   2.401  10.173
 6874SOL    HW121182   4.301   2.467  10.104
 6874SOL    HW221183   4.360   2.431  10.239
 6875SOL     OW21184   4.073   3.390  10.629
 6875SOL    HW121185   4.066   3.347  10.543
 6875SOL    HW221186   4.167   3.395  10.646
 6876SOL     OW21187   4.134   2.599  10.906
 6876SOL    HW121188   4.196   2.646  10.849
 6876SOL    HW221189   4.167   2.510  10.909
 6877SOL     OW21190   4.292   2.747  10.336
 6877SOL    HW121191   4.326   2.836  10.349
 6877SOL    HW221192   4.243   2.729  10.416
 6878SOL     OW21193   4.026   2.064  10.556
 6878SOL    HW121194   3.989   2.097  10.638
 6878SOL    HW221195   4.005   1.970  10.556
 6879SOL     OW21196   3.772   3.173  10.586
 6879SOL    HW121197   3.801   3.119  10.660
 6879SOL    HW221198   3.776   3.263  10.619
 6880SOL     OW21199   4.021   1.929   9.935
 6880SOL    HW121200   4.006   2.020   9.960
 6880SOL    HW221201   4.031   1.882  10.017
 6881SOL     OW21202   4.080   2.780  11.095
 6881SOL    HW121203   4.164   2.795   0.039
 6881SOL    HW221204   4.099   2.713  11.029
 6882SOL     OW21205   4.032   2.671  10.257
 6882SOL    HW121206   4.124   2.698  10.256
 6882SOL    HW221207   4.034   2.582  10.291
 6883SOL     OW21208   4.062   2.386  10.319
 6883SOL    HW121209   4.025   2.299  10.303
 6883SOL    HW221210   4.140   2.390  10.264
 6884SOL     OW21211   3.729   3.185   9.505
 6884SOL    HW121212   3.642   3.198   9.468
 6884SOL    HW221213   3.728   3.095   9.538
 6885SOL     OW21214   3.815   3.652  10.247
 6885SOL    HW121215   3.785   3.572  10.204
 6885SOL    HW221216   3.905   3.663  10.215
 6886SOL     OW21217   4.232   3.443  10.215
 6886SOL    HW121218   4.316   3.481  10.240
 6886SOL    HW221219   4.255   3.370  10.158
 6887SOL     OW21220   3.760   2.405  10.426
 6887SOL    HW121221   3.840   2.387  10.378
 6887SOL    HW221222   3.787   2.411  10.518
 6888SOL     OW21223   0.035   2.422   9.577
 6888SOL    HW121224   0.020   2.342   9.627
 6888SOL    HW221225   4.465   2.481   9.605
 6889SOL     OW21226   3.980   3.427  11.055
 6889SOL    HW121227   3.925   3.467   0.024
 6889SOL    HW221228   3.975   3.333  11.072
 6890SOL     OW21229   4.192   2.355   9.500
 6890SOL    HW121230   4.250   2.429   9.518
 6890SOL    HW221231   4.106   2.394   9.487
 6891SOL     OW21232   3.877   3.000  10.780
 6891SOL    HW121233   3.873   2.944  10.857
 6891SOL    HW221234   3.890   2.939  10.707
 6892SOL     OW21235   3.808   3.130  10.323
 6892SOL    HW121236   3.795   3.139  10.418
 6892SOL    HW221237   3.735   3.074  10.295
 6893SOL     OW21238   4.397   3.528  11.007
 6893SOL    HW121239   4.323   3.588  10.994
 6893SOL    HW221240   4.433   3.515  10.920
 6894SOL     OW21241   3.988   2.182  10.027
 6894SOL    HW121242   3.902   2.217  10.004
 6894SOL    HW221243   3.985   2.171  10.121
 6895SOL     OW21244   4.086   3.168  10.808
 6895SOL    HW121245   4.074   3.242  10.749
 6895SOL    HW221246   4.015   3.108  10.787
 6896SOL     OW21247   4.324   3.352   9.792
 6896SOL    HW121248   4.344   3.293   9.719
 6896SOL    HW221249   4.261   3.414   9.756
 6897SOL     OW21250   3.983   3.213   9.595
 6897SOL    HW121251   3.890   3.209   9.573
 6897SOL    HW221252   3.985   3.248   9.684
 6898SOL     OW21253   3.836   2.874  11.021
 6898SOL    HW121254   3.765   2.857  11.083
 6898SOL    HW221255   3.915   2.844  11.066
 6899SOL     OW21256   4.396   2.064  10.807
 6899SOL    HW121257   4.476   2.066  10.755
 6899SOL    HW221258   4.425   2.073  10.898
 6900SOL     OW21259   3.801   2.199   9.346
 6900SOL    HW121260   3.714   2.178   9.313
 6900SOL    HW221261   3.830   2.273   9.293
 6901SOL     OW21262   3.794   2.020   9.623
 6901SOL    HW121263   3.779   2.100   9.573
 6901SOL    HW221264   3.880   1.988   9.593
 6902SOL     OW21265   4.337   2.700  10.744
 6902SOL    HW121266   4.381   2.784  10.729
 6902SOL    HW221267   4.408   2.636  10.747
 6903SOL     OW21268   4.114   3.597  10.869
 6903SOL    HW121269   4.032   3.646  10.863
 6903SOL    HW221270   4.091   3.520  10.921
 6904SOL     OW21271   4.310   2.596   9.975
 6904SOL    HW121272   4.354   2.680   9.962
 6904SOL    HW221273   4.239   2.596   9.910
 6905SOL     OW21274   3.807   3.097   9.974
 6905SOL    HW121275   3.809   3.048  10.056
 6905SOL    HW221276   3.877   3.059   9.921
 6906SOL     OW21277   4.405   3.254  10.939
 6906SOL    HW121278   4.330   3.205  10.973
 6906SOL    HW221279   4.396   3.341  10.980
 6907SOL     OW21280   4.161   2.295   9.840
 6907SOL    HW121281   4.179   2.225   9.777
 6907SOL    HW221282   4.106   2.253   9.907
 6908SOL     OW21283   4.052   2.414  10.599
 6908SOL    HW121284   4.105   2.356  10.654
 6908SOL    HW221285   4.072   2.387  10.509
 6909SOL     OW21286   0.038   3.456   9.995
 6909SOL    HW121287   0.057   3.512   9.920
 6909SOL    HW221288   4.464   3.402   9.966
 6910SOL     OW21289   3.768   2.935   9.614
 6910SOL    HW121290   3.861   2.925   9.598
 6910SOL    HW221291   3.738   2.847   9.638
 6911SOL     OW21292   3.930   4.295   0.091
 6911SOL    HW121293   3.896   4.351   0.160
 6911SOL    HW221294   3.941   4.354   0.016
 6912SOL     OW21295   3.947   4.004   0.990
 6912SOL    HW121296   3.978   3.971   1.074
 6912SOL    HW221297   3.857   3.970   0.982
 6913SOL     OW21298   3.730   4.102   0.643
 6913SOL    HW121299   3.645   4.128   0.681
 6913SOL    HW221300   3.710   4.025   0.591
 6914SOL     OW21301   0.059   0.016   1.858
 6914SOL    HW121302   0.110   0.085   1.902
 6914SOL    HW221303   0.075   0.031   1.765
 6915SOL     OW21304   4.170   4.119   1.485
 6915SOL    HW121305   4.245   4.060   1.493
 6915SOL    HW221306   4.094   4.063   1.501
 6916SOL     OW21307   3.817   4.363   0.557
 6916SOL    HW121308   3.798   4.275   0.589
 6916SOL    HW221309   3.861   4.406   0.630
 6917SOL     OW21310   3.843   4.472   1.584
 6917SOL    HW121311   3.914   4.486   1.647
 6917SOL    HW221312   3.810   0.060   1.566
 6918SOL     OW21313   0.023   3.733   0.530
 6918SOL    HW121314   0.056   3.794   0.464
 6918SOL    HW221315   4.428   3.745   0.528
 6919SOL     OW21316   4.054   3.976   1.803
 6919SOL    HW121317   4.100   4.057   1.825
 6919SOL    HW221318   3.966   3.989   1.838
 6920SOL     OW21319   4.254   3.915   0.881
 6920SOL    HW121320   4.273   3.921   0.975
 6920SOL    HW221321   4.266   4.005   0.849
 6921SOL     OW21322   3.923   4.008   1.502
 6921SOL    HW121323   3.838   4.052   1.492
 6921SOL    HW221324   3.908   3.945   1.573
 6922SOL     OW21325   4.094   4.387   0.415
 6922SOL    HW121326   4.130   4.313   0.463
 6922SOL    HW221327   4.021   4.417   0.470
 6923SOL     OW21328   4.341   3.845   0.115
 6923SOL    HW121329   4.433   3.818   0.122
 6923SOL    HW221330   4.314   3.817   0.028
 6924SOL     OW21331   4.262   3.788   0.502
 6924SOL    HW121332   4.183   3.792   0.556
 6924SOL    HW221333   4.258   3.867   0.447
 6925SOL     OW21334   4.010   3.770   0.197
 6925SOL    HW121335   4.055   3.826   0.133
 6925SOL    HW221336   4.077   3.707   0.224
 6926SOL     OW21337   0.353   4.398   1.518
 6926SOL    HW121338   0.281   4.370   1.462
 6926SOL    HW221339   0.424   4.336   1.499
 6927SOL     OW21340   3.799   4.279   1.391
 6927SOL    HW121341   3.890   4.272   1.362
 6927SOL    HW221342   3.799   4.353   1.453
 6928SOL     OW21343   4.285   3.938   1.149
 6928SOL    HW121344   4.325   3.867   1.199
 6928SOL    HW221345   4.198   3.949   1.188
 6929SOL     OW21346   4.248   3.992   0.325
 6929SOL    HW121347   4.281   3.934   0.256
 6929SOL    HW221348   4.233   4.075   0.280
 6930SOL     OW21349   4.152   0.009   1.266
 6930SOL    HW121350   4.218   0.010   1.336
 6930SOL    HW221351   4.111   4.423   1.272
 6931SOL     OW21352   4.300   4.264   0.869
 6931SOL    HW121353   4.312   4.331   0.802
 6931SOL    HW221354   4.366   4.285   0.935
 6932SOL     OW21355   4.230   3.776   1.735
 6932SOL    HW121356   4.187   3.716   1.675
 6932SOL    HW221357   4.164   3.843   1.755
 6933SOL     OW21358   4.025   3.926   1.246
 6933SOL    HW121359   3.987   3.958   1.328
 6933SOL    HW221360   4.004   3.832   1.245
 6934SOL     OW21361   4.022   3.791   0.625
 6934SOL    HW121362   4.006   3.882   0.651
 6934SOL    HW221363   4.031   3.744   0.708
 6935SOL     OW21364   4.040   0.014   0.924
 6935SOL    HW121365   4.118   0.069   0.931
 6935SOL    HW221366   4.057   4.441   0.984
 6936SOL     OW21367   4.066   4.241   1.016
 6936SOL    HW121368   4.027   4.156   0.996
 6936SOL    HW221369   4.142   4.247   0.958
 6937SOL     OW21370   3.760   4.269   1.115
 6937SOL    HW121371   3.841   4.249   1.067
 6937SOL    HW221372   3.787   4.274   1.206
 6938SOL     OW21373   3.915   4.244   1.718
 6938SOL    HW121374   3.972   4.199   1.655
 6938SOL    HW221375   3.860   4.300   1.665
 6939SOL     OW21376   4.500   4.292   0.277
 6939SOL    HW121377   0.033   4.211   0.314
 6939SOL    HW221378   4.478   4.346   0.353
 6940SOL     OW21379   4.199   4.217   0.179
 6940SOL    HW121380   4.249   4.291   0.215
 6940SOL    HW221381   4.108   4.247   0.182
 6941SOL     OW21382   3.988   4.045   0.718
 6941SOL    HW121383   3.900   4.076   0.694
 6941SOL    HW221384   3.984   4.032   0.812
 6942SOL     OW21385   4.392   3.928   1.494
 6942SOL    HW121386   4.480   3.925   1.456
 6942SOL    HW221387   4.406   3.923   1.588
 6943SOL     OW21388   3.801   4.051   0.053
 6943SOL    HW121389   3.731   4.043  11.088
 6943SOL    HW221390   3.831   4.142   0.044
 6944SOL     OW21391   3.794   3.884   0.316
 6944SOL    HW121392   3.779   3.960   0.260
 6944SOL    HW221393   3.876   3.846   0.284
 6945SOL     OW21394   4.408   4.272   1.741
 6945SOL    HW121395   4.429   4.356   1.782
 6945SOL    HW221396   4.493   4.236   1.716
 6946SOL     OW21397   4.172   4.151   0.541
 6946SOL    HW121398   4.185   4.084   0.474
 6946SOL    HW221399   4.110   4.112   0.603
 6947SOL     OW21400   4.046   4.264   1.291
 6947SOL    HW121401   4.102   4.208   1.345
 6947SOL    HW221402   4.069   4.239   1.201
 6948SOL     OW21403   3.951   4.296   1.986
 6948SOL    HW121404   3.885   4.355   2.020
 6948SOL    HW221405   3.939   4.298   1.891
 6949SOL     OW21406   3.947   4.003   2.852
 6949SOL    HW121407   3.978   3.971   2.936
 6949SOL    HW221408   3.857   3.970   2.845
 6950SOL     OW21409   3.730   4.102   2.506
 6950SOL    HW121410   3.646   4.129   2.543
 6950SOL    HW221411   3.709   4.025   2.453
 6951SOL     OW21412   0.059   0.016   3.720
 6951SOL    HW121413   0.109   0.085   3.764
 6951SOL    HW221414   0.075   0.031   3.627
 6952SOL     OW21415   4.170   4.119   3.347
 6952SOL    HW121416   4.245   4.060   3.355
 6952SOL    HW221417   4.094   4.063   3.363
 6953SOL     OW21418   3.810   4.367   2.423
 6953SOL    HW121419   3.799   4.276   2.453
 6953SOL    HW221420   3.864   4.408   2.491
 6954SOL     OW21421   3.843   4.472   3.446
 6954SOL    HW121422   3.914   4.486   3.509
 6954SOL    HW221423   3.809   0.060   3.427
 6955SOL     OW21424   0.022   3.729   2.388
 6955SOL    HW121425   0.055   3.795   2.327
 6955SOL    HW221426   4.427   3.744   2.389
 6956SOL     OW21427   4.054   3.976   3.665
 6956SOL    HW121428   4.100   4.057   3.686
 6956SOL    HW221429   3.966   3.989   3.700
 6957SOL     OW21430   4.254   3.915   2.743
 6957SOL    HW121431   4.272   3.921   2.837
 6957SOL    HW221432   4.267   4.004   2.710
 6958SOL     OW21433   3.922   4.007   3.364
 6958SOL    HW121434   3.839   4.052   3.354
 6958SOL    HW221435   3.908   3.945   3.436
 6959SOL     OW21436   4.094   4.391   2.282
 6959SOL    HW121437   4.130   4.314   2.326
 6959SOL    HW221438   4.020   4.418   2.336
 6960SOL     OW21439   4.339   3.834   1.980
 6960SOL    HW121440   4.434   3.823   1.979
 6960SOL    HW221441   4.312   3.813   1.891
 6961SOL     OW21442   4.262   3.788   2.365
 6961SOL    HW121443   4.183   3.793   2.419
 6961SOL    HW221444   4.258   3.866   2.310
 6962SOL     OW21445   4.018   3.770   2.045
 6962SOL    HW121446   4.078   3.837   2.011
 6962SOL    HW221447   4.075   3.706   2.087
 6963SOL     OW21448   0.353   4.398   3.380
 6963SOL    HW121449   0.281   4.370   3.324
 6963SOL    HW221450   0.424   4.336   3.361
 6964SOL     OW21451   3.799   4.279   3.254
 6964SOL    HW121452   3.889   4.272   3.224
 6964SOL    HW221453   3.799   4.353   3.315
 6965SOL     OW21454   4.285   3.938   3.011
 6965SOL    HW121455   4.325   3.867   3.062
 6965SOL    HW221456   4.198   3.949   3.050
 6966SOL     OW21457   4.245   3.988   2.185
 6966SOL    HW121458   4.285   3.933   2.117
 6966SOL    HW221459   4.232   4.073   2.143
 6967SOL     OW21460   4.152   0.010   3.127
 6967SOL    HW121461   4.218   0.010   3.197
 6967SOL    HW221462   4.111   4.423   3.134
 6968SOL     OW21463   4.299   4.264   2.731
 6968SOL    HW121464   4.311   4.330   2.663
 6968SOL    HW221465   4.366   4.285   2.797
 6969SOL     OW21466   4.230   3.776   3.597
 6969SOL    HW121467   4.186   3.716   3.537
 6969SOL    HW221468   4.164   3.843   3.617
 6970SOL     OW21469   4.025   3.926   3.108
 6970SOL    HW121470   3.987   3.958   3.190
 6970SOL    HW221471   4.004   3.832   3.107
 6971SOL     OW21472   4.021   3.791   2.487
 6971SOL    HW121473   4.006   3.882   2.512
 6971SOL    HW221474   4.031   3.744   2.569
 6972SOL     OW21475   4.040   0.014   2.788
 6972SOL    HW121476   4.118   0.069   2.793
 6972SOL    HW221477   4.058   4.441   2.847
 6973SOL     OW21478   4.066   4.241   2.878
 6973SOL    HW121479   4.027   4.156   2.857
 6973SOL    HW221480   4.142   4.247   2.820
 6974SOL     OW21481   3.760   4.268   2.977
 6974SOL    HW121482   3.841   4.250   2.929
 6974SOL    HW221483   3.787   4.274   3.068
 6975SOL     OW21484   3.915   4.244   3.580
 6975SOL    HW121485   3.972   4.200   3.517
 6975SOL    HW221486   3.860   4.301   3.527
 6976SOL     OW21487   0.005   4.295   2.136
 6976SOL    HW121488   0.031   4.209   2.168
 6976SOL    HW221489   4.468   4.339   2.212
 6977SOL     OW21490   4.203   4.216   2.053
 6977SOL    HW121491   4.252   4.298   2.065
 6977SOL    HW221492   4.111   4.244   2.045
 6978SOL     OW21493   3.988   4.045   2.579
 6978SOL    HW121494   3.900   4.075   2.557
 6978SOL    HW221495   3.985   4.031   2.674
 6979SOL     OW21496   4.392   3.927   3.355
 6979SOL    HW121497   4.480   3.926   3.318
 6979SOL    HW221498   4.406   3.923   3.450
 6980SOL     OW21499   3.799   4.049   1.892
 6980SOL    HW121500   3.710   4.039   1.857
 6980SOL    HW221501   3.830   4.132   1.857
 6981SOL     OW21502   3.795   3.882   2.176
 6981SOL    HW121503   3.779   3.962   2.126
 6981SOL    HW221504   3.880   3.850   2.145
 6982SOL     OW21505   4.408   4.271   3.603
 6982SOL    HW121506   4.428   4.356   3.644
 6982SOL    HW221507   4.493   4.236   3.578
 6983SOL     OW21508   4.174   4.150   2.404
 6983SOL    HW121509   4.183   4.086   2.333
 6983SOL    HW221510   4.111   4.111   2.464
 6984SOL     OW21511   4.046   4.264   3.153
 6984SOL    HW121512   4.102   4.208   3.207
 6984SOL    HW221513   4.069   4.239   3.063
 6985SOL     OW21514   3.951   4.295   3.848
 6985SOL    HW121515   3.885   4.356   3.882
 6985SOL    HW221516   3.939   4.298   3.753
 6986SOL     OW21517   3.947   4.003   4.714
 6986SOL    HW121518   3.978   3.971   4.798
 6986SOL    HW221519   3.857   3.970   4.707
 6987SOL     OW21520   3.730   4.102   4.368
 6987SOL    HW121521   3.646   4.129   4.405
 6987SOL    HW221522   3.709   4.025   4.315
 6988SOL     OW21523   0.059   0.016   5.582
 6988SOL    HW121524   0.109   0.085   5.626
 6988SOL    HW221525   0.075   0.031   5.489
 6989SOL     OW21526   4.170   4.119   5.209
 6989SOL    HW121527   4.245   4.060   5.217
 6989SOL    HW221528   4.094   4.063   5.225
 6990SOL     OW21529   3.810   4.366   4.285
 6990SOL    HW121530   3.799   4.276   4.315
 6990SOL    HW221531   3.864   4.408   4.353
 6991SOL     OW21532   3.843   4.472   5.308
 6991SOL    HW121533   3.914   4.486   5.371
 6991SOL    HW221534   3.809   0.060   5.289
 6992SOL     OW21535   0.022   3.729   4.250
 6992SOL    HW121536   0.055   3.795   4.189
 6992SOL    HW221537   4.427   3.744   4.251
 6993SOL     OW21538   4.054   3.976   5.527
 6993SOL    HW121539   4.100   4.058   5.548
 6993SOL    HW221540   3.966   3.988   5.562
 6994SOL     OW21541   4.254   3.915   4.605
 6994SOL    HW121542   4.272   3.921   4.699
 6994SOL    HW221543   4.266   4.004   4.572
 6995SOL     OW21544   3.923   4.007   5.226
 6995SOL    HW121545   3.839   4.052   5.216
 6995SOL    HW221546   3.908   3.945   5.297
 6996SOL     OW21547   4.094   4.391   4.144
 6996SOL    HW121548   4.130   4.314   4.188
 6996SOL    HW221549   4.020   4.418   4.198
 6997SOL     OW21550   4.339   3.834   3.842
 6997SOL    HW121551   4.434   3.823   3.841
 6997SOL    HW221552   4.312   3.813   3.753
 6998SOL     OW21553   4.262   3.788   4.227
 6998SOL    HW121554   4.183   3.793   4.281
 6998SOL    HW221555   4.258   3.866   4.172
 6999SOL     OW21556   4.018   3.770   3.907
 6999SOL    HW121557   4.078   3.837   3.873
 6999SOL    HW221558   4.075   3.706   3.949
 7000SOL     OW21559   0.353   4.398   5.242
 7000SOL    HW121560   0.281   4.370   5.186
 7000SOL    HW221561   0.424   4.336   5.223
 7001SOL     OW21562   3.799   4.279   5.115
 7001SOL    HW121563   3.889   4.272   5.086
 7001SOL    HW221564   3.799   4.353   5.177
 7002SOL     OW21565   4.285   3.938   4.873
 7002SOL    HW121566   4.325   3.867   4.924
 7002SOL    HW221567   4.198   3.949   4.912
 7003SOL     OW21568   4.245   3.988   4.047
 7003SOL    HW121569   4.285   3.933   3.979
 7003SOL    HW221570   4.232   4.073   4.005
 7004SOL     OW21571   4.152   0.009   4.989
 7004SOL    HW121572   4.218   0.011   5.059
 7004SOL    HW221573   4.112   4.423   4.996
 7005SOL     OW21574   4.299   4.264   4.593
 7005SOL    HW121575   4.311   4.330   4.525
 7005SOL    HW221576   4.366   4.285   4.659
 7006SOL     OW21577   4.230   3.776   5.459
 7006SOL    HW121578   4.186   3.716   5.399
 7006SOL    HW221579   4.164   3.843   5.479
 7007SOL     OW21580   4.025   3.926   4.970
 7007SOL    HW121581   3.987   3.958   5.052
 7007SOL    HW221582   4.004   3.832   4.969
 7008SOL     OW21583   4.021   3.791   4.349
 7008SOL    HW121584   4.006   3.882   4.374
 7008SOL    HW221585   4.031   3.744   4.431
 7009SOL     OW21586   4.040   0.014   4.650
 7009SOL    HW121587   4.118   0.069   4.655
 7009SOL    HW221588   4.058   4.441   4.709
 7010SOL     OW21589   4.066   4.241   4.740
 7010SOL    HW121590   4.027   4.156   4.719
 7010SOL    HW221591   4.142   4.247   4.682
 7011SOL     OW21592   3.760   4.268   4.839
 7011SOL    HW121593   3.841   4.250   4.791
 7011SOL    HW221594   3.787   4.274   4.930
 7012SOL     OW21595   3.915   4.244   5.442
 7012SOL    HW121596   3.972   4.199   5.379
 7012SOL    HW221597   3.860   4.301   5.389
 7013SOL     OW21598   0.005   4.295   3.998
 7013SOL    HW121599   0.030   4.209   4.030
 7013SOL    HW221600   4.468   4.340   4.074
 7014SOL     OW21601   4.203   4.216   3.915
 7014SOL    HW121602   4.251   4.298   3.927
 7014SOL    HW221603   4.111   4.244   3.907
 7015SOL     OW21604   3.988   4.044   4.441
 7015SOL    HW121605   3.900   4.076   4.419
 7015SOL    HW221606   3.985   4.031   4.536
 7016SOL     OW21607   4.392   3.927   5.217
 7016SOL    HW121608   4.481   3.926   5.180
 7016SOL    HW221609   4.406   3.923   5.312
 7017SOL     OW21610   3.799   4.049   3.754
 7017SOL    HW121611   3.710   4.039   3.719
 7017SOL    HW221612   3.830   4.132   3.719
 7018SOL     OW21613   3.795   3.882   4.038
 7018SOL    HW121614   3.779   3.962   3.988
 7018SOL    HW221615   3.880   3.850   4.007
 7019SOL     OW21616   4.408   4.272   5.465
 7019SOL    HW121617   4.428   4.356   5.506
 7019SOL    HW221618   4.493   4.236   5.440
 7020SOL     OW21619   4.174   4.150   4.266
 7020SOL    HW121620   4.183   4.086   4.196
 7020SOL    HW221621   4.111   4.111   4.326
 7021SOL     OW21622   4.046   4.264   5.015
 7021SOL    HW121623   4.102   4.208   5.069
 7021SOL    HW221624   4.069   4.239   4.925
 7022SOL     OW21625   3.951   4.296   5.710
 7022SOL    HW121626   3.885   4.355   5.744
 7022SOL    HW221627   3.939   4.298   5.615
 7023SOL     OW21628   3.947   4.004   6.576
 7023SOL    HW121629   3.978   3.971   6.660
 7023SOL    HW221630   3.857   3.970   6.569
 7024SOL     OW21631   3.730   4.102   6.230
 7024SOL    HW121632   3.646   4.129   6.267
 7024SOL    HW221633   3.709   4.025   6.177
 7025SOL     OW21634   0.059   0.016   7.444
 7025SOL    HW121635   0.110   0.085   7.488
 7025SOL    HW221636   0.075   0.031   7.351
 7026SOL     OW21637   4.170   4.119   7.071
 7026SOL    HW121638   4.245   4.060   7.079
 7026SOL    HW221639   4.094   4.063   7.087
 7027SOL     OW21640   3.810   4.366   6.147
 7027SOL    HW121641   3.799   4.276   6.177
 7027SOL    HW221642   3.864   4.408   6.215
 7028SOL     OW21643   3.843   4.472   7.170
 7028SOL    HW121644   3.914   4.486   7.233
 7028SOL    HW221645   3.810   0.060   7.151
 7029SOL     OW21646   0.022   3.729   6.112
 7029SOL    HW121647   0.055   3.795   6.051
 7029SOL    HW221648   4.427   3.744   6.113
 7030SOL     OW21649   4.054   3.976   7.389
 7030SOL    HW121650   4.100   4.057   7.410
 7030SOL    HW221651   3.966   3.989   7.424
 7031SOL     OW21652   4.254   3.915   6.467
 7031SOL    HW121653   4.272   3.921   6.561
 7031SOL    HW221654   4.266   4.004   6.434
 7032SOL     OW21655   3.923   4.007   7.088
 7032SOL    HW121656   3.839   4.052   7.078
 7032SOL    HW221657   3.908   3.945   7.159
 7033SOL     OW21658   4.094   4.391   6.006
 7033SOL    HW121659   4.130   4.314   6.050
 7033SOL    HW221660   4.020   4.418   6.060
 7034SOL     OW21661   4.339   3.834   5.704
 7034SOL    HW121662   4.434   3.823   5.703
 7034SOL    HW221663   4.311   3.813   5.615
 7035SOL     OW21664   4.262   3.788   6.089
 7035SOL    HW121665   4.183   3.793   6.143
 7035SOL    HW221666   4.258   3.866   6.034
 7036SOL     OW21667   4.018   3.770   5.770
 7036SOL    HW121668   4.078   3.837   5.735
 7036SOL    HW221669   4.075   3.706   5.811
 7037SOL     OW21670   0.353   4.398   7.104
 7037SOL    HW121671   0.281   4.370   7.048
 7037SOL    HW221672   0.424   4.337   7.085
 7038SOL     OW21673   3.799   4.279   6.978
 7038SOL    HW121674   3.890   4.272   6.948
 7038SOL    HW221675   3.799   4.353   7.039
 7039SOL     OW21676   4.285   3.938   6.735
 7039SOL    HW121677   4.325   3.867   6.786
 7039SOL    HW221678   4.198   3.949   6.774
 7040SOL     OW21679   4.245   3.988   5.909
 7040SOL    HW121680   4.285   3.933   5.841
 7040SOL    HW221681   4.232   4.073   5.867
 7041SOL     OW21682   4.152   0.010   6.852
 7041SOL    HW121683   4.218   0.010   6.921
 7041SOL    HW221684   4.111   4.423   6.858
 7042SOL     OW21685   4.299   4.264   6.456
 7042SOL    HW121686   4.311   4.330   6.387
 7042SOL    HW221687   4.366   4.285   6.521
 7043SOL     OW21688   4.230   3.776   7.321
 7043SOL    HW121689   4.186   3.716   7.261
 7043SOL    HW221690   4.164   3.843   7.341
 7044SOL     OW21691   4.025   3.926   6.832
 7044SOL    HW121692   3.987   3.958   6.914
 7044SOL    HW221693   4.004   3.832   6.831
 7045SOL     OW21694   4.021   3.791   6.211
 7045SOL    HW121695   4.006   3.882   6.236
 7045SOL    HW221696   4.031   3.744   6.293
 7046SOL     OW21697   4.040   0.014   6.512
 7046SOL    HW121698   4.118   0.069   6.517
 7046SOL    HW221699   4.058   4.441   6.571
 7047SOL     OW21700   4.066   4.241   6.602
 7047SOL    HW121701   4.027   4.156   6.581
 7047SOL    HW221702   4.142   4.247   6.544
 7048SOL     OW21703   3.760   4.269   6.701
 7048SOL    HW121704   3.841   4.250   6.653
 7048SOL    HW221705   3.787   4.274   6.792
 7049SOL     OW21706   3.915   4.244   7.304
 7049SOL    HW121707   3.972   4.199   7.241
 7049SOL    HW221708   3.860   4.301   7.251
 7050SOL     OW21709   0.005   4.295   5.860
 7050SOL    HW121710   0.030   4.209   5.892
 7050SOL    HW221711   4.468   4.339   5.936
 7051SOL     OW21712   4.203   4.216   5.777
 7051SOL    HW121713   4.252   4.298   5.789
 7051SOL    HW221714   4.111   4.244   5.769
 7052SOL     OW21715   3.988   4.045   6.303
 7052SOL    HW121716   3.900   4.075   6.280
 7052SOL    HW221717   3.985   4.031   6.398
 7053SOL     OW21718   4.392   3.927   7.080
 7053SOL    HW121719   4.480   3.926   7.042
 7053SOL    HW221720   4.406   3.923   7.174
 7054SOL     OW21721   3.799   4.049   5.616
 7054SOL    HW121722   3.710   4.039   5.581
 7054SOL    HW221723   3.830   4.132   5.581
 7055SOL     OW21724   3.795   3.882   5.900
 7055SOL    HW121725   3.779   3.962   5.849
 7055SOL    HW221726   3.880   3.850   5.869
 7056SOL     OW21727   4.408   4.272   7.327
 7056SOL    HW121728   4.429   4.356   7.368
 7056SOL    HW221729   4.493   4.236   7.302
 7057SOL     OW21730   4.174   4.150   6.128
 7057SOL    HW121731   4.183   4.086   6.058
 7057SOL    HW221732   4.111   4.111   6.188
 7058SOL     OW21733   4.046   4.264   6.877
 7058SOL    HW121734   4.102   4.208   6.931
 7058SOL    HW221735   4.069   4.239   6.787
 7059SOL     OW21736   3.951   4.296   7.572
 7059SOL    HW121737   3.885   4.355   7.606
 7059SOL    HW221738   3.939   4.298   7.477
 7060SOL     OW21739   3.947   4.004   8.438
 7060SOL    HW121740   3.978   3.971   8.522
 7060SOL    HW221741   3.857   3.970   8.431
 7061SOL     OW21742   3.730   4.102   8.092
 7061SOL    HW121743   3.646   4.129   8.129
 7061SOL    HW221744   3.709   4.025   8.039
 7062SOL     OW21745   0.059   0.016   9.306
 7062SOL    HW121746   0.110   0.085   9.350
 7062SOL    HW221747   0.075   0.031   9.213
 7063SOL     OW21748   4.170   4.119   8.933
 7063SOL    HW121749   4.245   4.060   8.941
 7063SOL    HW221750   4.094   4.063   8.949
 7064SOL     OW21751   3.809   4.367   8.009
 7064SOL    HW121752   3.799   4.276   8.039
 7064SOL    HW221753   3.864   4.408   8.077
 7065SOL     OW21754   3.843   4.472   9.032
 7065SOL    HW121755   3.914   4.486   9.095
 7065SOL    HW221756   3.810   0.060   9.013
 7066SOL     OW21757   0.022   3.729   7.974
 7066SOL    HW121758   0.055   3.795   7.913
 7066SOL    HW221759   4.427   3.744   7.975
 7067SOL     OW21760   4.054   3.976   9.251
 7067SOL    HW121761   4.100   4.057   9.272
 7067SOL    HW221762   3.966   3.989   9.286
 7068SOL     OW21763   4.254   3.915   8.329
 7068SOL    HW121764   4.272   3.921   8.423
 7068SOL    HW221765   4.267   4.004   8.296
 7069SOL     OW21766   3.922   4.007   8.950
 7069SOL    HW121767   3.839   4.052   8.940
 7069SOL    HW221768   3.908   3.945   9.021
 7070SOL     OW21769   4.094   4.391   7.868
 7070SOL    HW121770   4.130   4.314   7.912
 7070SOL    HW221771   4.020   4.418   7.922
 7071SOL     OW21772   4.339   3.834   7.566
 7071SOL    HW121773   4.434   3.823   7.565
 7071SOL    HW221774   4.312   3.813   7.477
 7072SOL     OW21775   4.262   3.788   7.951
 7072SOL    HW121776   4.183   3.793   8.005
 7072SOL    HW221777   4.258   3.866   7.896
 7073SOL     OW21778   4.018   3.770   7.632
 7073SOL    HW121779   4.078   3.837   7.597
 7073SOL    HW221780   4.075   3.706   7.673
 7074SOL     OW21781   0.353   4.398   8.966
 7074SOL    HW121782   0.281   4.370   8.910
 7074SOL    HW221783   0.424   4.337   8.947
 7075SOL     OW21784   3.799   4.279   8.840
 7075SOL    HW121785   3.890   4.272   8.810
 7075SOL    HW221786   3.799   4.353   8.901
 7076SOL     OW21787   4.285   3.938   8.597
 7076SOL    HW121788   4.325   3.867   8.648
 7076SOL    HW221789   4.198   3.949   8.636
 7077SOL     OW21790   4.245   3.988   7.771
 7077SOL    HW121791   4.285   3.933   7.703
 7077SOL    HW221792   4.232   4.073   7.729
 7078SOL     OW21793   4.152   0.010   8.714
 7078SOL    HW121794   4.218   0.010   8.783
 7078SOL    HW221795   4.111   4.423   8.720
 7079SOL     OW21796   4.299   4.264   8.318
 7079SOL    HW121797   4.311   4.330   8.249
 7079SOL    HW221798   4.366   4.285   8.383
 7080SOL     OW21799   4.230   3.776   9.183
 7080SOL    HW121800   4.186   3.716   9.123
 7080SOL    HW221801   4.164   3.843   9.203
 7081SOL     OW21802   4.025   3.926   8.694
 7081SOL    HW121803   3.987   3.958   8.776
 7081SOL    HW221804   4.004   3.832   8.693
 7082SOL     OW21805   4.021   3.791   8.073
 7082SOL    HW121806   4.006   3.882   8.098
 7082SOL    HW221807   4.031   3.744   8.155
 7083SOL     OW21808   4.040   0.014   8.374
 7083SOL    HW121809   4.118   0.069   8.379
 7083SOL    HW221810   4.058   4.441   8.433
 7084SOL     OW21811   4.066   4.241   8.464
 7084SOL    HW121812   4.027   4.156   8.443
 7084SOL    HW221813   4.142   4.247   8.406
 7085SOL     OW21814   3.760   4.268   8.563
 7085SOL    HW121815   3.841   4.250   8.515
 7085SOL    HW221816   3.787   4.274   8.654
 7086SOL     OW21817   3.915   4.244   9.166
 7086SOL    HW121818   3.972   4.199   9.103
 7086SOL    HW221819   3.860   4.301   9.113
 7087SOL     OW21820   0.005   4.295   7.722
 7087SOL    HW121821   0.031   4.209   7.754
 7087SOL    HW221822   4.468   4.339   7.798
 7088SOL     OW21823   4.203   4.216   7.639
 7088SOL    HW121824   4.252   4.298   7.651
 7088SOL    HW221825   4.111   4.244   7.631
 7089SOL     OW21826   3.988   4.045   8.165
 7089SOL    HW121827   3.900   4.075   8.143
 7089SOL    HW221828   3.985   4.031   8.260
 7090SOL     OW21829   4.392   3.927   8.942
 7090SOL    HW121830   4.480   3.926   8.904
 7090SOL    HW221831   4.406   3.923   9.036
 7091SOL     OW21832   3.799   4.049   7.478
 7091SOL    HW121833   3.710   4.039   7.443
 7091SOL    HW221834   3.830   4.132   7.443
 7092SOL     OW21835   3.795   3.882   7.762
 7092SOL    HW121836   3.779   3.962   7.711
 7092SOL    HW221837   3.880   3.850   7.731
 7093SOL     OW21838   4.408   4.272   9.189
 7093SOL    HW121839   4.429   4.356   9.230
 7093SOL    HW221840   4.493   4.236   9.164
 7094SOL     OW21841   4.174   4.150   7.990
 7094SOL    HW121842   4.183   4.086   7.919
 7094SOL    HW221843   4.111   4.111   8.050
 7095SOL     OW21844   4.046   4.264   8.739
 7095SOL    HW121845   4.102   4.208   8.793
 7095SOL    HW221846   4.069   4.239   8.649
 7096SOL     OW21847   3.951   4.296   9.434
 7096SOL    HW121848   3.885   4.356   9.468
 7096SOL    HW221849   3.939   4.298   9.339
 7097SOL     OW21850   3.947   4.003  10.300
 7097SOL    HW121851   3.978   3.971  10.384
 7097SOL    HW221852   3.857   3.970  10.293
 7098SOL     OW21853   3.730   4.102   9.954
 7098SOL    HW121854   3.646   4.129   9.991
 7098SOL    HW221855   3.709   4.025   9.901
 7099SOL     OW21856   4.177   4.122  10.800
 7099SOL    HW121857   4.244   4.053  10.800
 7099SOL    HW221858   4.095   4.076  10.819
 7100SOL     OW21859   3.809   4.367   9.872
 7100SOL    HW121860   3.799   4.276   9.901
 7100SOL    HW221861   3.864   4.408   9.939
 7101SOL     OW21862   3.849   4.457  10.908
 7101SOL    HW121863   3.944   4.466  10.916
 7101SOL    HW221864   3.818   0.047  10.892
 7102SOL     OW21865   0.022   3.729   9.836
 7102SOL    HW121866   0.056   3.795   9.775
 7102SOL    HW221867   4.427   3.744   9.837
 7103SOL     OW21868   4.063   3.980   0.012
 7103SOL    HW121869   4.108   4.060   0.038
 7103SOL    HW221870   3.971   3.997   0.032
 7104SOL     OW21871   4.254   3.915  10.192
 7104SOL    HW121872   4.273   3.922  10.286
 7104SOL    HW221873   4.267   4.004  10.158
 7105SOL     OW21874   3.926   4.007  10.807
 7105SOL    HW121875   3.845   4.058  10.804
 7105SOL    HW221876   3.915   3.948  10.881
 7106SOL     OW21877   4.094   4.392   9.730
 7106SOL    HW121878   4.130   4.314   9.773
 7106SOL    HW221879   4.020   4.418   9.784
 7107SOL     OW21880   4.339   3.834   9.428
 7107SOL    HW121881   4.434   3.823   9.427
 7107SOL    HW221882   4.312   3.813   9.339
 7108SOL     OW21883   4.262   3.788   9.813
 7108SOL    HW121884   4.183   3.793   9.867
 7108SOL    HW221885   4.258   3.866   9.758
 7109SOL     OW21886   4.018   3.770   9.493
 7109SOL    HW121887   4.078   3.837   9.459
 7109SOL    HW221888   4.075   3.706   9.535
 7110SOL     OW21889   0.320   4.404  10.790
 7110SOL    HW121890   0.235   4.359  10.796
 7110SOL    HW221891   0.381   4.336  10.761
 7111SOL     OW21892   3.797   4.281  10.702
 7111SOL    HW121893   3.888   4.274  10.675
 7111SOL    HW221894   3.799   4.341  10.777
 7112SOL     OW21895   4.285   3.939  10.460
 7112SOL    HW121896   4.323   3.864  10.507
 7112SOL    HW221897   4.198   3.949  10.498
 7113SOL     OW21898   4.245   3.988   9.633
 7113SOL    HW121899   4.285   3.933   9.565
 7113SOL    HW221900   4.232   4.073   9.591
 7114SOL     OW21901   4.151   0.008  10.572
 7114SOL    HW121902   4.220   0.008  10.638
 7114SOL    HW221903   4.109   4.423  10.580
 7115SOL     OW21904   4.299   4.264  10.180
 7115SOL    HW121905   4.312   4.330  10.112
 7115SOL    HW221906   4.366   4.284  10.245
 7116SOL     OW21907   4.125   4.465  10.914
 7116SOL    HW121908   4.190   0.026  10.879
 7116SOL    HW221909   4.169   4.380  10.914
 7117SOL     OW21910   4.026   3.926  10.556
 7117SOL    HW121911   3.989   3.958  10.638
 7117SOL    HW221912   4.005   3.832  10.555
 7118SOL     OW21913   4.021   3.791   9.935
 7118SOL    HW121914   4.006   3.882   9.960
 7118SOL    HW221915   4.031   3.744  10.017
 7119SOL     OW21916   4.040   0.014  10.236
 7119SOL    HW121917   4.118   0.069  10.241
 7119SOL    HW221918   4.058   4.441  10.295
 7120SOL     OW21919   4.066   4.241  10.326
 7120SOL    HW121920   4.027   4.156  10.305
 7120SOL    HW221921   4.142   4.247  10.268
 7121SOL     OW21922   3.760   4.270  10.425
 7121SOL    HW121923   3.842   4.250  10.378
 7121SOL    HW221924   3.786   4.275  10.517
 7122SOL     OW21925   0.004   4.295   9.584
 7122SOL    HW121926   0.031   4.209   9.616
 7122SOL    HW221927   4.469   4.340   9.660
 7123SOL     OW21928   4.203   4.216   9.501
 7123SOL    HW121929   4.252   4.297   9.513
 7123SOL    HW221930   4.111   4.244   9.493
 7124SOL     OW21931   3.988   4.044  10.027
 7124SOL    HW121932   3.900   4.075  10.005
 7124SOL    HW221933   3.985   4.031  10.122
 7125SOL     OW21934   4.396   3.926  10.809
 7125SOL    HW121935   4.476   3.929  10.756
 7125SOL    HW221936   4.426   3.939  10.899
 7126SOL     OW21937   3.799   4.049   9.340
 7126SOL    HW121938   3.710   4.039   9.305
 7126SOL    HW221939   3.830   4.132   9.305
 7127SOL     OW21940   3.795   3.882   9.624
 7127SOL    HW121941   3.779   3.962   9.573
 7127SOL    HW221942   3.880   3.850   9.593
 7128SOL     OW21943   4.174   4.150   9.852
 7128SOL    HW121944   4.183   4.086   9.782
 7128SOL    HW221945   4.111   4.111   9.912
 7129SOL     OW21946   4.047   4.263  10.601
 7129SOL    HW121947   4.102   4.206  10.655
 7129SOL    HW221948   4.068   4.238  10.511
   4.50000   4.50000  11.10000
