Built with Packmol
21948
    1LIG      O    1   2.227   2.220   0.053
    1LIG      C    2   2.292   2.270   0.173
    1LIG     C1    3   2.221   2.217   0.301
    1LIG     O1    4   2.285   2.267   0.423
    1LIG     C2    5   2.220   2.218   0.544
    1LIG     C3    6   2.291   2.273   0.670
    1LIG     O2    7   2.227   2.225   0.791
    1LIG     C4    8   2.290   2.275   0.912
    1LIG     C5    9   2.218   2.221   1.038
    1LIG     O3   10   2.281   2.270   1.160
    1LIG     C6   11   2.216   2.221   1.280
    1LIG     C7   12   2.288   2.277   1.406
    1LIG     O4   13   2.224   2.229   1.528
    1LIG     C8   14   2.288   2.279   1.649
    1LIG     C9   15   2.215   2.223   1.774
    1LIG     O5   16   2.279   2.273   1.895
    1LIG    C10   17   2.215   2.224   2.016
    1LIG    C11   18   2.287   2.280   2.142
    1LIG     O6   19   2.223   2.231   2.263
    1LIG    C12   20   2.286   2.280   2.384
    1LIG    C13   21   2.213   2.225   2.509
    1LIG     O7   22   2.277   2.274   2.631
    1LIG    C14   23   2.213   2.225   2.752
    1LIG    C15   24   2.285   2.280   2.878
    1LIG     O8   25   2.221   2.232   3.000
    1LIG    C16   26   2.285   2.281   3.121
    1LIG    C17   27   2.214   2.226   3.247
    1LIG     O9   28   2.277   2.275   3.369
    1LIG    C18   29   2.212   2.226   3.489
    1LIG    C19   30   2.284   2.281   3.614
    1LIG    O10   31   2.221   2.232   3.736
    1LIG    C20   32   2.285   2.282   3.857
    1LIG    C21   33   2.212   2.226   3.982
    1LIG    O11   34   2.276   2.275   4.103
    1LIG    C22   35   2.212   2.226   4.224
    1LIG    C23   36   2.284   2.282   4.350
    1LIG    O12   37   2.220   2.233   4.471
    1LIG    C24   38   2.284   2.282   4.593
    1LIG    C25   39   2.212   2.227   4.719
    1LIG    O13   40   2.275   2.276   4.841
    1LIG    C26   41   2.211   2.227   4.961
    1LIG    C27   42   2.283   2.282   5.086
    1LIG    O14   43   2.219   2.233   5.208
    1LIG    C28   44   2.284   2.282   5.329
    1LIG    C29   45   2.212   2.226   5.455
    1LIG    O15   46   2.276   2.276   5.577
    1LIG    C30   47   2.212   2.226   5.697
    1LIG    C31   48   2.284   2.281   5.822
    1LIG    O16   49   2.220   2.232   5.943
    1LIG    C32   50   2.284   2.281   6.065
    1LIG    C33   51   2.212   2.226   6.191
    1LIG    O17   52   2.276   2.275   6.312
    1LIG    C34   53   2.212   2.225   6.433
    1LIG    C35   54   2.284   2.280   6.559
    1LIG    O18   55   2.220   2.231   6.680
    1LIG    C36   56   2.284   2.281   6.801
    1LIG    C37   57   2.213   2.225   6.927
    1LIG    O19   58   2.277   2.274   7.049
    1LIG    C38   59   2.213   2.224   7.169
    1LIG    C39   60   2.284   2.279   7.295
    1LIG    O20   61   2.221   2.230   7.417
    1LIG    C40   62   2.285   2.279   7.538
    1LIG    C41   63   2.214   2.224   7.664
    1LIG    O21   64   2.277   2.273   7.786
    1LIG    C42   65   2.213   2.223   7.906
    1LIG    C43   66   2.285   2.278   8.031
    1LIG    O22   67   2.222   2.229   8.153
    1LIG    C44   68   2.286   2.278   8.274
    1LIG    C45   69   2.214   2.222   8.399
    1LIG    O23   70   2.278   2.271   8.521
    1LIG    C46   71   2.214   2.222   8.642
    1LIG    C47   72   2.287   2.278   8.767
    1LIG    O24   73   2.223   2.228   8.888
    1LIG    C48   74   2.286   2.277   9.010
    1LIG    C49   75   2.214   2.221   9.135
    1LIG    O25   76   2.278   2.270   9.256
    1LIG    C50   77   2.215   2.221   9.378
    1LIG    C51   78   2.287   2.277   9.503
    1LIG    O26   79   2.224   2.227   9.624
    1LIG    C52   80   2.287   2.276   9.746
    1LIG    C53   81   2.215   2.220   9.871
    1LIG    O27   82   2.279   2.269   9.991
    1LIG    C54   83   2.216   2.219  10.113
    1LIG    C55   84   2.288   2.275  10.240
    1LIG    O28   85   2.224   2.225  10.361
    1LIG    C56   86   2.288   2.274  10.482
    1LIG    C57   87   2.217   2.218  10.609
    1LIG    O29   88   2.281   2.267  10.731
    1LIG    C58   89   2.217   2.217  10.852
    1LIG    C59   90   2.288   2.272  10.978
    1LIG      H   91   2.289   2.380   0.171
    1LIG     H1   92   2.397   2.239   0.172
    1LIG     H2   93   2.224   2.108   0.301
    1LIG     H3   94   2.116   2.248   0.300
    1LIG     H4   95   2.223   2.108   0.546
    1LIG     H5   96   2.115   2.249   0.545
    1LIG     H6   97   2.289   2.383   0.668
    1LIG     H7   98   2.397   2.242   0.669
    1LIG     H8   99   2.288   2.384   0.913
    1LIG     H9  100   2.395   2.244   0.914
    1LIG    H10  101   2.221   2.111   1.037
    1LIG    H11  102   2.113   2.251   1.036
    1LIG    H12  103   2.219   2.112   1.282
    1LIG    H13  104   2.111   2.252   1.281
    1LIG    H14  105   2.285   2.387   1.404
    1LIG    H15  106   2.393   2.247   1.405
    1LIG    H16  107   2.285   2.388   1.650
    1LIG    H17  108   2.393   2.248   1.651
    1LIG    H18  109   2.218   2.114   1.772
    1LIG    H19  110   2.110   2.255   1.772
    1LIG    H20  111   2.217   2.115   2.018
    1LIG    H21  112   2.109   2.255   2.018
    1LIG    H22  113   2.284   2.389   2.140
    1LIG    H23  114   2.392   2.249   2.140
    1LIG    H24  115   2.283   2.390   2.386
    1LIG    H25  116   2.391   2.249   2.386
    1LIG    H26  117   2.216   2.115   2.508
    1LIG    H27  118   2.108   2.256   2.508
    1LIG    H28  119   2.216   2.115   2.754
    1LIG    H29  120   2.108   2.256   2.753
    1LIG    H30  121   2.282   2.390   2.877
    1LIG    H31  122   2.390   2.249   2.877
    1LIG    H32  123   2.282   2.391   3.122
    1LIG    H33  124   2.390   2.250   3.122
    1LIG    H34  125   2.216   2.117   3.245
    1LIG    H35  126   2.108   2.257   3.245
    1LIG    H36  127   2.215   2.116   3.490
    1LIG    H37  128   2.107   2.257   3.490
    1LIG    H38  129   2.281   2.391   3.613
    1LIG    H39  130   2.389   2.250   3.613
    1LIG    H40  131   2.282   2.391   3.858
    1LIG    H41  132   2.390   2.251   3.858
    1LIG    H42  133   2.215   2.117   3.981
    1LIG    H43  134   2.107   2.257   3.980
    1LIG    H44  135   2.215   2.117   4.226
    1LIG    H45  136   2.107   2.257   4.226
    1LIG    H46  137   2.281   2.392   4.348
    1LIG    H47  138   2.390   2.251   4.349
    1LIG    H48  139   2.281   2.392   4.594
    1LIG    H49  140   2.389   2.251   4.594
    1LIG    H50  141   2.215   2.117   4.718
    1LIG    H51  142   2.107   2.258   4.717
    1LIG    H52  143   2.214   2.117   4.963
    1LIG    H53  144   2.106   2.258   4.963
    1LIG    H54  145   2.280   2.392   5.085
    1LIG    H55  146   2.388   2.251   5.085
    1LIG    H56  147   2.281   2.391   5.331
    1LIG    H57  148   2.389   2.251   5.330
    1LIG    H58  149   2.215   2.117   5.453
    1LIG    H59  150   2.107   2.257   5.454
    1LIG    H60  151   2.215   2.116   5.699
    1LIG    H61  152   2.107   2.257   5.699
    1LIG    H62  153   2.281   2.391   5.821
    1LIG    H63  154   2.389   2.251   5.821
    1LIG    H64  155   2.281   2.391   6.066
    1LIG    H65  156   2.389   2.250   6.066
    1LIG    H66  157   2.215   2.116   6.189
    1LIG    H67  158   2.107   2.257   6.189
    1LIG    H68  159   2.215   2.116   6.434
    1LIG    H69  160   2.107   2.256   6.434
    1LIG    H70  161   2.281   2.390   6.558
    1LIG    H71  162   2.389   2.250   6.557
    1LIG    H72  163   2.281   2.390   6.802
    1LIG    H73  164   2.390   2.250   6.802
    1LIG    H74  165   2.216   2.116   6.926
    1LIG    H75  166   2.108   2.256   6.926
    1LIG    H76  167   2.216   2.115   7.170
    1LIG    H77  168   2.108   2.255   7.171
    1LIG    H78  169   2.281   2.389   7.294
    1LIG    H79  170   2.390   2.248   7.294
    1LIG    H80  171   2.282   2.389   7.539
    1LIG    H81  172   2.390   2.249   7.539
    1LIG    H82  173   2.217   2.114   7.662
    1LIG    H83  174   2.108   2.254   7.663
    1LIG    H84  175   2.217   2.113   7.907
    1LIG    H85  176   2.108   2.254   7.907
    1LIG    H86  177   2.282   2.388   8.030
    1LIG    H87  178   2.391   2.248   8.029
    1LIG    H88  179   2.283   2.388   8.276
    1LIG    H89  180   2.391   2.248   8.275
    1LIG    H90  181   2.217   2.113   8.398
    1LIG    H91  182   2.109   2.253   8.398
    1LIG    H92  183   2.218   2.112   8.644
    1LIG    H93  184   2.109   2.252   8.644
    1LIG    H94  185   2.283   2.387   8.766
    1LIG    H95  186   2.392   2.247   8.766
    1LIG    H96  187   2.283   2.386   9.012
    1LIG    H97  188   2.391   2.246   9.011
    1LIG    H98  189   2.218   2.111   9.133
    1LIG    H99  190   2.109   2.251   9.134
    1LIG   H100  191   2.218   2.111   9.379
    1LIG   H101  192   2.110   2.251   9.380
    1LIG   H102  193   2.284   2.386   9.502
    1LIG   H103  194   2.392   2.246   9.501
    1LIG   H104  195   2.284   2.385   9.747
    1LIG   H105  196   2.392   2.245   9.747
    1LIG   H106  197   2.219   2.110   9.869
    1LIG   H107  198   2.110   2.250   9.870
    1LIG   H108  199   2.220   2.110  10.114
    1LIG   H109  200   2.111   2.250  10.115
    1LIG   H110  201   2.284   2.384  10.239
    1LIG   H111  202   2.393   2.244  10.238
    1LIG   H112  203   2.285   2.384  10.484
    1LIG   H113  204   2.394   2.244  10.483
    1LIG   H114  205   2.221   2.109  10.607
    1LIG   H115  206   2.112   2.249  10.608
    1LIG   H116  207   2.221   2.108  10.852
    1LIG   H117  208   2.112   2.249  10.853
    1LIG   H118  209   2.393   2.242  10.978
    1LIG   H119  210   2.241   2.235  11.073
    1MOL     C1  211   1.903   1.837   5.047
    1MOL     H1  212   1.896   1.730   5.070
    1MOL     O1  213   1.854   1.901   5.164
    1MOL     C2  214   1.857   2.045   5.162
    1MOL     H2  215   1.961   2.080   5.156
    1MOL     C3  216   1.795   2.091   5.292
    1MOL     H3  217   1.694   2.047   5.300
    1MOL     H4  218   1.785   2.200   5.292
    1MOL     O2  219   1.874   2.048   5.402
    1MOL     C4  220   1.818   2.090   5.525
    1MOL     C5  221   1.810   1.875   4.930
    1MOL     H5  222   1.709   1.844   4.959
    1MOL     O3  223   1.845   1.815   4.807
    1MOL     C6  224   1.810   1.678   4.796
    1MOL     C7  225   1.810   2.027   4.910
    1MOL     H6  226   1.909   2.058   4.874
    1MOL     O4  227   1.709   2.063   4.816
    1MOL     C8  228   1.758   2.094   4.686
    1MOL     C9  229   1.779   2.101   5.040
    1MOL     H7  230   1.671   2.091   5.059
    1MOL     O5  231   1.811   2.239   5.018
    1MOL    C10  232   1.719   2.337   5.056
    1MOL     H8  233   1.621   2.292   5.078
    1MOL     O6  234   1.755   2.403   5.176
    1MOL    C11  235   1.884   2.466   5.173
    1MOL     H9  236   1.962   2.392   5.151
    1MOL    C12  237   1.908   2.522   5.313
    1MOL    H10  238   1.822   2.585   5.341
    1MOL    H11  239   1.998   2.586   5.312
    1MOL     O7  240   1.925   2.415   5.404
    1MOL    C13  241   1.963   2.461   5.532
    1MOL    C14  242   1.705   2.444   4.946
    1MOL    H12  243   1.626   2.513   4.979
    1MOL     O8  244   1.671   2.392   4.819
    1MOL    C15  245   1.537   2.348   4.806
    1MOL    C16  246   1.834   2.525   4.930
    1MOL    H13  247   1.911   2.460   4.886
    1MOL     O9  248   1.810   2.638   4.847
    1MOL    C17  249   1.857   2.624   4.714
    1MOL    C18  250   1.887   2.576   5.065
    1MOL    H14  251   1.822   2.659   5.096
    1MOL    O10  252   2.020   2.624   5.042
    1MOL    C19  253   2.056   2.752   5.089
    1MOL    H15  254   1.967   2.806   5.123
    1MOL    O11  255   2.140   2.746   5.202
    1MOL    C20  256   2.263   2.675   5.184
    1MOL    H16  257   2.243   2.570   5.161
    1MOL    C21  258   2.338   2.685   5.316
    1MOL    H17  259   2.335   2.790   5.350
    1MOL    H18  260   2.443   2.656   5.302
    1MOL    O12  261   2.276   2.601   5.412
    1MOL    C22  262   2.343   2.605   5.537
    1MOL    C23  263   2.129   2.830   4.978
    1MOL    H19  264   2.151   2.930   5.020
    1MOL    O13  265   2.055   2.844   4.859
    1MOL    C24  266   1.948   2.937   4.865
    1MOL    C25  267   2.262   2.763   4.943
    1MOL    H20  268   2.241   2.668   4.894
    1MOL    O14  269   2.338   2.848   4.858
    1MOL    C26  270   2.335   2.812   4.721
    1MOL    C27  271   2.346   2.735   5.068
    1MOL    H21  272   2.391   2.831   5.101
    1MOL    O15  273   2.450   2.645   5.029
    1MOL    C28  274   2.584   2.675   5.059
    1MOL    H22  275   2.594   2.780   5.087
    1MOL    O16  276   2.631   2.603   5.172
    1MOL    C29  277   2.623   2.460   5.159
    1MOL    H23  278   2.518   2.431   5.144
    1MOL    C30  279   2.670   2.401   5.291
    1MOL    H24  280   2.644   2.294   5.294
    1MOL    H25  281   2.616   2.451   5.374
    1MOL    O17  282   2.810   2.418   5.305
    1MOL    C31  283   2.861   2.352   5.418
    1MOL    C32  284   2.674   2.641   4.939
    1MOL    H26  285   2.776   2.671   4.967
    1MOL    O18  286   2.636   2.706   4.819
    1MOL    C33  287   2.672   2.843   4.813
    1MOL    C34  288   2.675   2.490   4.911
    1MOL    H27  289   2.576   2.460   4.873
    1MOL    O19  290   2.776   2.460   4.816
    1MOL    C35  291   2.728   2.430   4.686
    1MOL    C36  292   2.705   2.411   5.038
    1MOL    H28  293   2.812   2.422   5.062
    1MOL    O20  294   2.675   2.273   5.010
    1MOL    C37  295   2.768   2.174   5.049
    1MOL    H29  296   2.863   2.220   5.076
    1MOL    O21  297   2.727   2.105   5.165
    1MOL    C38  298   2.599   2.039   5.154
    1MOL    H30  299   2.522   2.114   5.131
    1MOL    C39  300   2.568   1.979   5.291
    1MOL    H31  301   2.461   1.955   5.297
    1MOL    H32  302   2.589   2.055   5.368
    1MOL    O22  303   2.647   1.864   5.312
    1MOL    C40  304   2.609   1.795   5.430
    1MOL    C41  305   2.785   2.073   4.934
    1MOL    H33  306   2.863   2.002   4.967
    1MOL    O23  307   2.822   2.131   4.811
    1MOL    C42  308   2.956   2.176   4.805
    1MOL    C43  309   2.657   1.993   4.910
    1MOL    H34  310   2.581   2.060   4.867
    1MOL    O24  311   2.683   1.884   4.822
    1MOL    C44  312   2.637   1.903   4.690
    1MOL    C45  313   2.602   1.935   5.041
    1MOL    H35  314   2.666   1.851   5.072
    1MOL    O25  315   2.469   1.887   5.013
    1MOL    C46  316   2.432   1.759   5.058
    1MOL    H36  317   2.521   1.703   5.088
    1MOL    O26  318   2.351   1.763   5.174
    1MOL    C47  319   2.230   1.838   5.161
    1MOL    H37  320   2.253   1.942   5.136
    1MOL    C48  321   2.163   1.833   5.298
    1MOL    H38  322   2.154   1.728   5.330
    1MOL    H39  323   2.062   1.876   5.292
    1MOL    O27  324   2.243   1.906   5.389
    1MOL    C49  325   2.184   1.916   5.517
    1MOL    C50  326   2.354   1.686   4.947
    1MOL    H40  327   2.333   1.585   4.986
    1MOL    O28  328   2.423   1.676   4.825
    1MOL    C51  329   2.533   1.586   4.825
    1MOL    C52  330   2.220   1.755   4.920
    1MOL    H41  331   2.240   1.852   4.873
    1MOL    O29  332   2.139   1.673   4.836
    1MOL    C53  333   2.141   1.710   4.699
    1MOL    C54  334   2.141   1.780   5.049
    1MOL    H42  335   2.098   1.684   5.082
    1MOL    O30  336   2.036   1.872   5.017
    1MOL    H43  337   1.979   2.373   5.594
    1MOL    H44  338   2.056   2.519   5.527
    1MOL    H45  339   1.885   2.523   5.578
    1MOL    H46  340   1.886   2.057   5.604
    1MOL    H47  341   1.807   2.199   5.529
    1MOL    H48  342   1.719   2.044   5.542
    1MOL    H49  343   2.251   1.975   5.579
    1MOL    H50  344   2.086   1.966   5.511
    1MOL    H51  345   2.170   1.817   5.563
    1MOL    H52  346   2.671   1.705   5.436
    1MOL    H53  347   2.628   1.856   5.520
    1MOL    H54  348   2.503   1.767   5.428
    1MOL    H55  349   2.969   2.371   5.420
    1MOL    H56  350   2.817   2.391   5.512
    1MOL    H57  351   2.844   2.244   5.413
    1MOL    H58  352   2.290   2.537   5.604
    1MOL    H59  353   2.448   2.573   5.528
    1MOL    H60  354   2.341   2.706   5.580
    1MOL    H61  355   2.977   2.198   4.699
    1MOL    H62  356   2.972   2.268   4.862
    1MOL    H63  357   3.026   2.099   4.839
    1MOL    H64  358   2.817   2.416   4.623
    1MOL    H65  359   2.669   2.338   4.686
    1MOL    H66  360   2.669   2.513   4.645
    1MOL    H67  361   2.657   2.875   4.710
    1MOL    H68  362   2.609   2.906   4.878
    1MOL    H69  363   2.778   2.858   4.840
    1MOL    H70  364   2.392   2.890   4.668
    1MOL    H71  365   2.384   2.715   4.704
    1MOL    H72  366   2.232   2.810   4.682
    1MOL    H73  367   1.915   2.954   4.762
    1MOL    H74  368   1.863   2.899   4.923
    1MOL    H75  369   1.981   3.033   4.908
    1MOL    H76  370   1.827   2.716   4.661
    1MOL    H77  371   1.966   2.616   4.711
    1MOL    H78  372   1.811   2.538   4.664
    1MOL    H79  373   1.519   2.333   4.700
    1MOL    H80  374   1.519   2.254   4.859
    1MOL    H81  375   1.467   2.425   4.843
    1MOL    H82  376   1.670   2.113   4.624
    1MOL    H83  377   1.820   2.184   4.688
    1MOL    H84  378   1.814   2.010   4.643
    1MOL    H85  379   1.821   1.651   4.691
    1MOL    H86  380   1.875   1.614   4.856
    1MOL    H87  381   1.705   1.662   4.826
    1MOL    H88  382   2.081   1.636   4.646
    1MOL    H89  383   2.095   1.809   4.684
    1MOL    H90  384   2.243   1.710   4.658
    1MOL    H91  385   2.561   1.571   4.720
    1MOL    H92  386   2.619   1.627   4.879
    1MOL    H93  387   2.504   1.489   4.868
    1MOL    H94  388   2.669   1.815   4.633
    1MOL    H95  389   2.527   1.909   4.686
    1MOL    H96  390   2.680   1.993   4.644
    1MOL     C1  391   2.597   1.837   6.053
    1MOL     H1  392   2.605   1.730   6.031
    1MOL     O1  393   2.646   1.901   5.936
    1MOL     C2  394   2.643   2.045   5.938
    1MOL     H2  395   2.539   2.080   5.944
    1MOL     C3  396   2.705   2.091   5.808
    1MOL     H3  397   2.806   2.047   5.800
    1MOL     H4  398   2.715   2.200   5.808
    1MOL     O2  399   2.626   2.048   5.698
    1MOL     C4  400   2.682   2.090   5.575
    1MOL     C5  401   2.690   1.875   6.170
    1MOL     H5  402   2.791   1.844   6.141
    1MOL     O3  403   2.655   1.815   6.293
    1MOL     C6  404   2.691   1.678   6.304
    1MOL     C7  405   2.690   2.027   6.191
    1MOL     H6  406   2.591   2.058   6.226
    1MOL     O4  407   2.791   2.063   6.284
    1MOL     C8  408   2.743   2.094   6.414
    1MOL     C9  409   2.721   2.101   6.060
    1MOL     H7  410   2.829   2.091   6.041
    1MOL     O5  411   2.689   2.239   6.082
    1MOL    C10  412   2.782   2.337   6.044
    1MOL     H8  413   2.879   2.292   6.022
    1MOL     O6  414   2.745   2.403   5.924
    1MOL    C11  415   2.616   2.466   5.927
    1MOL     H9  416   2.538   2.392   5.950
    1MOL    C12  417   2.592   2.522   5.788
    1MOL    H10  418   2.678   2.585   5.759
    1MOL    H11  419   2.502   2.586   5.788
    1MOL     O7  420   2.575   2.415   5.696
    1MOL    C13  421   2.537   2.461   5.568
    1MOL    C14  422   2.795   2.444   6.154
    1MOL    H12  423   2.874   2.513   6.121
    1MOL     O8  424   2.829   2.392   6.281
    1MOL    C15  425   2.963   2.348   6.294
    1MOL    C16  426   2.666   2.525   6.170
    1MOL    H13  427   2.589   2.460   6.214
    1MOL     O9  428   2.690   2.638   6.253
    1MOL    C17  429   2.643   2.624   6.387
    1MOL    C18  430   2.614   2.576   6.035
    1MOL    H14  431   2.678   2.659   6.004
    1MOL    O10  432   2.480   2.624   6.058
    1MOL    C19  433   2.444   2.752   6.011
    1MOL    H15  434   2.533   2.806   5.978
    1MOL    O11  435   2.360   2.746   5.898
    1MOL    C20  436   2.237   2.675   5.916
    1MOL    H16  437   2.258   2.570   5.939
    1MOL    C21  438   2.162   2.685   5.784
    1MOL    H17  439   2.165   2.790   5.750
    1MOL    H18  440   2.057   2.656   5.798
    1MOL    O12  441   2.224   2.601   5.688
    1MOL    C22  442   2.157   2.605   5.563
    1MOL    C23  443   2.371   2.830   6.122
    1MOL    H19  444   2.349   2.930   6.080
    1MOL    O13  445   2.445   2.844   6.241
    1MOL    C24  446   2.552   2.937   6.235
    1MOL    C25  447   2.238   2.763   6.157
    1MOL    H20  448   2.259   2.668   6.206
    1MOL    O14  449   2.162   2.848   6.242
    1MOL    C26  450   2.165   2.812   6.379
    1MOL    C27  451   2.154   2.735   6.032
    1MOL    H21  452   2.109   2.831   6.000
    1MOL    O15  453   2.050   2.645   6.071
    1MOL    C28  454   1.916   2.675   6.041
    1MOL    H22  455   1.907   2.780   6.013
    1MOL    O16  456   1.869   2.603   5.928
    1MOL    C29  457   1.877   2.460   5.941
    1MOL    H23  458   1.982   2.431   5.956
    1MOL    C30  459   1.830   2.401   5.809
    1MOL    H24  460   1.856   2.294   5.806
    1MOL    H25  461   1.884   2.451   5.726
    1MOL    O17  462   1.690   2.418   5.795
    1MOL    C31  463   1.639   2.352   5.682
    1MOL    C32  464   1.826   2.641   6.162
    1MOL    H26  465   1.724   2.671   6.133
    1MOL    O18  466   1.864   2.706   6.281
    1MOL    C33  467   1.828   2.843   6.287
    1MOL    C34  468   1.825   2.490   6.189
    1MOL    H27  469   1.924   2.460   6.227
    1MOL    O19  470   1.724   2.460   6.284
    1MOL    C35  471   1.772   2.430   6.414
    1MOL    C36  472   1.795   2.411   6.062
    1MOL    H28  473   1.688   2.422   6.038
    1MOL    O20  474   1.825   2.273   6.090
    1MOL    C37  475   1.733   2.174   6.051
    1MOL    H29  476   1.637   2.220   6.024
    1MOL    O21  477   1.773   2.105   5.935
    1MOL    C38  478   1.901   2.039   5.946
    1MOL    H30  479   1.978   2.114   5.969
    1MOL    C39  480   1.932   1.979   5.809
    1MOL    H31  481   2.039   1.955   5.803
    1MOL    H32  482   1.911   2.055   5.732
    1MOL    O22  483   1.853   1.864   5.788
    1MOL    C40  484   1.891   1.795   5.670
    1MOL    C41  485   1.715   2.073   6.166
    1MOL    H33  486   1.637   2.002   6.134
    1MOL    O23  487   1.678   2.131   6.289
    1MOL    C42  488   1.544   2.176   6.296
    1MOL    C43  489   1.844   1.993   6.190
    1MOL    H34  490   1.919   2.060   6.233
    1MOL    O24  491   1.817   1.884   6.278
    1MOL    C44  492   1.863   1.903   6.411
    1MOL    C45  493   1.899   1.935   6.059
    1MOL    H35  494   1.835   1.851   6.029
    1MOL    O25  495   2.031   1.887   6.087
    1MOL    C46  496   2.068   1.759   6.042
    1MOL    H36  497   1.979   1.703   6.012
    1MOL    O26  498   2.149   1.763   5.926
    1MOL    C47  499   2.270   1.838   5.939
    1MOL    H37  500   2.247   1.942   5.964
    1MOL    C48  501   2.337   1.833   5.802
    1MOL    H38  502   2.346   1.728   5.771
    1MOL    H39  503   2.438   1.876   5.808
    1MOL    O27  504   2.257   1.906   5.711
    1MOL    C49  505   2.317   1.916   5.583
    1MOL    C50  506   2.146   1.686   6.153
    1MOL    H40  507   2.167   1.585   6.114
    1MOL    O28  508   2.077   1.676   6.276
    1MOL    C51  509   1.967   1.586   6.275
    1MOL    C52  510   2.280   1.755   6.180
    1MOL    H41  511   2.261   1.852   6.227
    1MOL    O29  512   2.361   1.673   6.264
    1MOL    C53  513   2.359   1.710   6.402
    1MOL    C54  514   2.359   1.780   6.051
    1MOL    H42  515   2.402   1.684   6.018
    1MOL    O30  516   2.465   1.872   6.083
    1MOL    H43  517   2.521   2.373   5.506
    1MOL    H44  518   2.444   2.519   5.573
    1MOL    H45  519   2.615   2.523   5.522
    1MOL    H46  520   2.614   2.057   5.496
    1MOL    H47  521   2.693   2.199   5.571
    1MOL    H48  522   2.781   2.044   5.558
    1MOL    H49  523   2.249   1.975   5.521
    1MOL    H50  524   2.414   1.966   5.589
    1MOL    H51  525   2.330   1.817   5.537
    1MOL    H52  526   1.829   1.705   5.664
    1MOL    H53  527   1.872   1.856   5.580
    1MOL    H54  528   1.997   1.767   5.672
    1MOL    H55  529   1.531   2.371   5.680
    1MOL    H56  530   1.683   2.391   5.589
    1MOL    H57  531   1.657   2.244   5.687
    1MOL    H58  532   2.210   2.537   5.496
    1MOL    H59  533   2.052   2.573   5.572
    1MOL    H60  534   2.159   2.706   5.520
    1MOL    H61  535   1.523   2.198   6.401
    1MOL    H62  536   1.528   2.268   6.238
    1MOL    H63  537   1.474   2.099   6.261
    1MOL    H64  538   1.684   2.416   6.477
    1MOL    H65  539   1.831   2.338   6.414
    1MOL    H66  540   1.831   2.513   6.455
    1MOL    H67  541   1.843   2.875   6.390
    1MOL    H68  542   1.891   2.906   6.222
    1MOL    H69  543   1.722   2.858   6.260
    1MOL    H70  544   2.108   2.890   6.433
    1MOL    H71  545   2.116   2.715   6.396
    1MOL    H72  546   2.268   2.810   6.418
    1MOL    H73  547   2.585   2.954   6.338
    1MOL    H74  548   2.637   2.899   6.177
    1MOL    H75  549   2.519   3.033   6.192
    1MOL    H76  550   2.673   2.716   6.439
    1MOL    H77  551   2.534   2.616   6.390
    1MOL    H78  552   2.689   2.538   6.436
    1MOL    H79  553   2.981   2.333   6.401
    1MOL    H80  554   2.981   2.254   6.242
    1MOL    H81  555   3.033   2.425   6.257
    1MOL    H82  556   2.831   2.113   6.476
    1MOL    H83  557   2.681   2.184   6.412
    1MOL    H84  558   2.686   2.010   6.457
    1MOL    H85  559   2.679   1.651   6.409
    1MOL    H86  560   2.625   1.614   6.244
    1MOL    H87  561   2.795   1.662   6.274
    1MOL    H88  562   2.419   1.636   6.455
    1MOL    H89  563   2.405   1.809   6.416
    1MOL    H90  564   2.257   1.710   6.442
    1MOL    H91  565   1.939   1.571   6.380
    1MOL    H92  566   1.881   1.627   6.221
    1MOL    H93  567   1.996   1.489   6.232
    1MOL    H94  568   1.831   1.815   6.467
    1MOL    H95  569   1.973   1.909   6.414
    1MOL    H96  570   1.820   1.993   6.456
    2SOL     OW  571   0.230   0.628   0.113
    2SOL    HW1  572   0.137   0.626   0.150
    2SOL    HW2  573   0.231   0.589   0.021
    3SOL     OW  574   0.225   0.275   0.996
    3SOL    HW1  575   0.260   0.258   1.088
    3SOL    HW2  576   0.137   0.230   0.984
    4SOL     OW  577   0.019   0.368   0.647
    4SOL    HW1  578  -0.063   0.411   0.686
    4SOL    HW2  579  -0.009   0.295   0.584
    5SOL     OW  580   0.569   1.275   1.165
    5SOL    HW1  581   0.476   1.268   1.128
    5SOL    HW2  582   0.580   1.364   1.209
    6SOL     OW  583   1.555   1.511   0.703
    6SOL    HW1  584   1.498   1.495   0.784
    6SOL    HW2  585   1.496   1.521   0.623
    7SOL     OW  586   1.135   0.703   0.717
    7SOL    HW1  587   1.192   0.781   0.692
    7SOL    HW2  588   1.075   0.729   0.793
    8SOL     OW  589   1.755   0.607   0.231
    8SOL    HW1  590   1.743   0.594   0.132
    8SOL    HW2  591   1.725   0.526   0.280
    9SOL     OW  592   0.768   1.144   1.023
    9SOL    HW1  593   0.690   1.161   1.083
    9SOL    HW2  594   0.802   1.231   0.987
   10SOL     OW  595   0.850   0.798   1.823
   10SOL    HW1  596   0.846   0.874   1.888
   10SOL    HW2  597   0.872   0.834   1.732
   11SOL     OW  598   0.685   1.012   0.665
   11SOL    HW1  599   0.754   0.996   0.735
   11SOL    HW2  600   0.612   1.069   0.703
   12SOL     OW  601   0.686   1.161   1.803
   12SOL    HW1  602   0.746   1.240   1.817
   12SOL    HW2  603   0.600   1.192   1.762
   13SOL     OW  604   0.335   1.435   1.061
   13SOL    HW1  605   0.257   1.404   1.008
   13SOL    HW2  606   0.393   1.493   1.004
   14SOL     OW  607   1.460   1.505   1.339
   14SOL    HW1  608   1.484   1.599   1.365
   14SOL    HW2  609   1.444   1.451   1.421
   15SOL     OW  610   0.438   0.392   1.499
   15SOL    HW1  611   0.520   0.336   1.508
   15SOL    HW2  612   0.357   0.334   1.503
   16SOL     OW  613   1.603   0.447   0.737
   16SOL    HW1  614   1.529   0.493   0.687
   16SOL    HW2  615   1.654   0.515   0.790
   17SOL     OW  616   0.231   1.713   0.483
   17SOL    HW1  617   0.265   1.790   0.537
   17SOL    HW2  618   0.275   1.713   0.393
   18SOL     OW  619   1.127   1.341   1.690
   18SOL    HW1  620   1.174   1.341   1.778
   18SOL    HW2  621   1.079   1.254   1.679
   19SOL     OW  622   0.230   1.434   0.538
   19SOL    HW1  623   0.204   1.530   0.538
   19SOL    HW2  624   0.159   1.380   0.583
   20SOL     OW  625   0.240   1.091   0.886
   20SOL    HW1  626   0.254   1.007   0.938
   20SOL    HW2  627   0.185   1.155   0.941
   21SOL     OW  628   0.620   1.786   1.439
   21SOL    HW1  629   0.528   1.769   1.474
   21SOL    HW2  630   0.648   1.878   1.465
   22SOL     OW  631   0.606   0.964   0.123
   22SOL    HW1  632   0.613   1.048   0.069
   22SOL    HW2  633   0.652   0.977   0.211
   23SOL     OW  634   1.594   0.114   1.480
   23SOL    HW1  635   1.576   0.181   1.408
   23SOL    HW2  636   1.591   0.160   1.569
   24SOL     OW  637   0.122   0.643   0.563
   24SOL    HW1  638   0.077   0.555   0.580
   24SOL    HW2  639   0.121   0.697   0.647
   25SOL     OW  640   1.842   1.767   0.359
   25SOL    HW1  641   1.896   1.738   0.439
   25SOL    HW2  642   1.872   1.857   0.330
   26SOL     OW  643   0.027   1.596   0.117
   26SOL    HW1  644   0.008   1.500   0.138
   26SOL    HW2  645  -0.006   1.654   0.192
   27SOL     OW  646   1.689   0.922   0.612
   27SOL    HW1  647   1.784   0.893   0.620
   27SOL    HW2  648   1.681   0.987   0.537
   28SOL     OW  649   1.641   1.108   0.432
   28SOL    HW1  650   1.727   1.110   0.380
   28SOL    HW2  651   1.655   1.155   0.520
   29SOL     OW  652   0.113   0.737   1.597
   29SOL    HW1  653   0.201   0.724   1.642
   29SOL    HW2  654   0.100   0.834   1.575
   30SOL     OW  655   0.613   1.365   0.726
   30SOL    HW1  656   0.564   1.278   0.735
   30SOL    HW2  657   0.590   1.408   0.639
   31SOL     OW  658   1.293   1.228   1.423
   31SOL    HW1  659   1.330   1.155   1.365
   31SOL    HW2  660   1.345   1.233   1.508
   32SOL     OW  661   0.809   0.004   0.502
   32SOL    HW1  662   0.849   0.095   0.493
   32SOL    HW2  663   0.709   0.012   0.508
   33SOL     OW  664   0.197   0.976   1.264
   33SOL    HW1  665   0.286   0.931   1.250
   33SOL    HW2  666   0.124   0.911   1.245
   34SOL     OW  667   1.525   0.999   0.190
   34SOL    HW1  668   1.462   0.923   0.203
   34SOL    HW2  669   1.573   1.017   0.276
   35SOL     OW  670   1.187   1.792   1.616
   35SOL    HW1  671   1.211   1.852   1.540
   35SOL    HW2  672   1.194   1.697   1.586
   36SOL     OW  673   0.317   0.251   1.801
   36SOL    HW1  674   0.388   0.322   1.807
   36SOL    HW2  675   0.229   0.290   1.829
   37SOL     OW  676   1.466   1.417   0.953
   37SOL    HW1  677   1.407   1.423   1.033
   37SOL    HW2  678   1.451   1.329   0.907
   38SOL     OW  679   1.667   1.714   0.572
   38SOL    HW1  680   1.626   1.691   0.484
   38SOL    HW2  681   1.649   1.640   0.637
   39SOL     OW  682   0.598   0.729   0.270
   39SOL    HW1  683   0.622   0.798   0.202
   39SOL    HW2  684   0.520   0.762   0.324
   40SOL     OW  685   1.281   0.345   0.944
   40SOL    HW1  686   1.195   0.295   0.931
   40SOL    HW2  687   1.343   0.291   1.000
   41SOL     OW  688   1.576   1.662   0.307
   41SOL    HW1  689   1.665   1.708   0.310
   41SOL    HW2  690   1.555   1.638   0.212
   42SOL     OW  691   0.807   0.605   1.465
   42SOL    HW1  692   0.760   0.602   1.554
   42SOL    HW2  693   0.756   0.550   1.399
   43SOL     OW  694   1.394   0.469   1.674
   43SOL    HW1  695   1.374   0.512   1.762
   43SOL    HW2  696   1.472   0.407   1.683
   44SOL     OW  697   0.973   0.890   1.572
   44SOL    HW1  698   1.019   0.806   1.543
   44SOL    HW2  699   0.917   0.924   1.497
   45SOL     OW  700   0.991   0.410   1.242
   45SOL    HW1  701   0.914   0.444   1.296
   45SOL    HW2  702   0.957   0.359   1.163
   46SOL     OW  703   1.041   0.701   0.429
   46SOL    HW1  704   1.067   0.697   0.525
   46SOL    HW2  705   0.956   0.650   0.415
   47SOL     OW  706   0.076   0.811   0.789
   47SOL    HW1  707   0.175   0.799   0.798
   47SOL    HW2  708   0.052   0.906   0.810
   48SOL     OW  709   0.130   1.821   1.571
   48SOL    HW1  710   0.120   1.806   1.670
   48SOL    HW2  711   0.044   1.857   1.535
   49SOL     OW  712   0.865   0.348   0.195
   49SOL    HW1  713   0.924   0.411   0.146
   49SOL    HW2  714   0.884   0.254   0.166
   50SOL     OW  715   1.719   0.585   1.831
   50SOL    HW1  716   1.693   0.674   1.795
   50SOL    HW2  717   1.717   0.517   1.758
   51SOL     OW  718   1.362   1.144   0.545
   51SOL    HW1  719   1.445   1.115   0.497
   51SOL    HW2  720   1.313   1.211   0.489
   52SOL     OW  721   0.550   0.196   0.885
   52SOL    HW1  722   0.545   0.191   0.985
   52SOL    HW2  723   0.552   0.292   0.856
   53SOL     OW  724   1.008   1.456   0.477
   53SOL    HW1  725   0.962   1.528   0.425
   53SOL    HW2  726   1.004   1.476   0.575
   54SOL     OW  727   0.351   1.801   0.853
   54SOL    HW1  728   0.401   1.715   0.859
   54SOL    HW2  729   0.416   1.878   0.850
   55SOL     OW  730   1.795   1.066   0.873
   55SOL    HW1  731   1.733   1.051   0.797
   55SOL    HW2  732   1.743   1.077   0.958
   56SOL     OW  733   1.227   1.550   1.506
   56SOL    HW1  734   1.233   1.473   1.570
   56SOL    HW2  735   1.175   1.524   1.426
   57SOL     OW  736   0.321   0.943   0.242
   57SOL    HW1  737   0.403   0.982   0.200
   57SOL    HW2  738   0.294   0.861   0.193
   58SOL     OW  739   1.458   0.735   0.728
   58SOL    HW1  740   1.453   0.670   0.803
   58SOL    HW2  741   1.538   0.794   0.741
   59SOL     OW  742   0.461   1.266   1.727
   59SOL    HW1  743   0.411   1.267   1.641
   59SOL    HW2  744   0.398   1.248   1.803
   60SOL     OW  745   1.111   1.776   0.237
   60SOL    HW1  746   1.051   1.714   0.287
   60SOL    HW2  747   1.142   1.732   0.152
   61SOL     OW  748   0.202   0.285   1.498
   61SOL    HW1  749   0.122   0.345   1.485
   61SOL    HW2  750   0.192   0.236   1.584
   62SOL     OW  751   1.632   1.377   0.081
   62SOL    HW1  752   1.600   1.471   0.071
   62SOL    HW2  753   1.556   1.314   0.069
   63SOL     OW  754   0.464   1.743   0.323
   63SOL    HW1  755   0.497   1.782   0.409
   63SOL    HW2  756   0.540   1.736   0.258
   64SOL     OW  757   1.400   0.107   0.426
   64SOL    HW1  758   1.376   0.070   0.336
   64SOL    HW2  759   1.499   0.123   0.430
   65SOL     OW  760   0.249   1.785   1.241
   65SOL    HW1  761   0.306   1.720   1.291
   65SOL    HW2  762   0.233   1.752   1.148
   66SOL     OW  763   0.940   1.698   0.904
   66SOL    HW1  764   1.020   1.641   0.925
   66SOL    HW2  765   0.891   1.658   0.827
   67SOL     OW  766   0.382   0.700   0.480
   67SOL    HW1  767   0.427   0.610   0.477
   67SOL    HW2  768   0.288   0.689   0.513
   68SOL     OW  769   1.547   0.222   1.729
   68SOL    HW1  770   1.542   0.259   1.821
   68SOL    HW2  771   1.475   0.153   1.717
   69SOL     OW  772   0.614   0.122   0.117
   69SOL    HW1  773   0.712   0.100   0.124
   69SOL    HW2  774   0.583   0.105   0.024
   70SOL     OW  775   0.781   0.264   1.749
   70SOL    HW1  776   0.848   0.203   1.792
   70SOL    HW2  777   0.708   0.283   1.814
   71SOL     OW  778   0.888   1.514   1.195
   71SOL    HW1  779   0.865   1.489   1.101
   71SOL    HW2  780   0.949   1.445   1.234
   72SOL     OW  781   1.351   0.590   1.433
   72SOL    HW1  782   1.379   0.547   1.518
   72SOL    HW2  783   1.376   0.686   1.434
   73SOL     OW  784   0.803   1.402   0.924
   73SOL    HW1  785   0.893   1.416   0.882
   73SOL    HW2  786   0.732   1.404   0.853
   74SOL     OW  787   0.922   0.503   0.899
   74SOL    HW1  788   0.897   0.494   0.803
   74SOL    HW2  789   0.970   0.421   0.930
   75SOL     OW  790   0.539   0.064   0.512
   75SOL    HW1  791   0.458   0.065   0.570
   75SOL    HW2  792   0.542   0.147   0.457
   76SOL     OW  793   1.434   1.188   0.041
   76SOL    HW1  794   1.466   1.112   0.098
   76SOL    HW2  795   1.342   1.215   0.071
   77SOL     OW  796   0.297   0.035   0.171
   77SOL    HW1  797   0.346   0.119   0.150
   77SOL    HW2  798   0.359  -0.030   0.216
   78SOL     OW  799   0.935   0.236   0.480
   78SOL    HW1  800   0.887   0.277   0.402
   78SOL    HW2  801   1.034   0.234   0.461
   79SOL     OW  802   1.076   0.683   1.464
   79SOL    HW1  803   0.996   0.622   1.467
   79SOL    HW2  804   1.157   0.630   1.440
   80SOL     OW  805   1.227   1.570   0.793
   80SOL    HW1  806   1.248   1.644   0.728
   80SOL    HW2  807   1.295   1.570   0.866
   81SOL     OW  808   0.459   1.152   0.741
   81SOL    HW1  809   0.388   1.125   0.806
   81SOL    HW2  810   0.433   1.124   0.648
   82SOL     OW  811   1.271   1.797   0.591
   82SOL    HW1  812   1.315   1.861   0.527
   82SOL    HW2  813   1.221   1.849   0.661
   83SOL     OW  814   1.032   0.549   0.016
   83SOL    HW1  815   0.991   0.631  -0.023
   83SOL    HW2  816   1.096   0.575   0.089
   84SOL     OW  817   0.078   0.556   1.386
   84SOL    HW1  818   0.170   0.555   1.345
   84SOL    HW2  819   0.072   0.630   1.453
   85SOL     OW  820   0.561   0.222   1.147
   85SOL    HW1  821   0.599   0.138   1.184
   85SOL    HW2  822   0.473   0.241   1.191
   86SOL     OW  823   0.866   0.454   0.642
   86SOL    HW1  824   0.834   0.526   0.580
   86SOL    HW2  825   0.890   0.373   0.589
   87SOL     OW  826   1.017   0.039   0.753
   87SOL    HW1  827   0.945   0.044   0.684
   87SOL    HW2  828   0.993  -0.030   0.822
   88SOL     OW  829   1.429   1.173   0.867
   88SOL    HW1  830   1.374   1.089   0.860
   88SOL    HW2  831   1.455   1.202   0.775
   89SOL     OW  832   1.466   0.590   0.992
   89SOL    HW1  833   1.436   0.495   0.999
   89SOL    HW2  834   1.539   0.606   1.058
   90SOL     OW  835   1.857   0.833   0.377
   90SOL    HW1  836   1.899   0.769   0.441
   90SOL    HW2  837   1.819   0.782   0.299
   91SOL     OW  838   0.488   1.385   0.174
   91SOL    HW1  839   0.401   1.370   0.221
   91SOL    HW2  840   0.471   1.411   0.079
   92SOL     OW  841   1.664   1.280   0.657
   92SOL    HW1  842   1.763   1.288   0.671
   92SOL    HW2  843   1.619   1.364   0.688
   93SOL     OW  844   1.390   0.575   0.078
   93SOL    HW1  845   1.336   0.554   0.159
   93SOL    HW2  846   1.481   0.534   0.087
   94SOL     OW  847   0.527   0.256   0.328
   94SOL    HW1  848   0.554   0.197   0.253
   94SOL    HW2  849   0.527   0.351   0.297
   95SOL     OW  850   1.754   1.223   1.588
   95SOL    HW1  851   1.845   1.184   1.575
   95SOL    HW2  852   1.762   1.319   1.612
   96SOL     OW  853   1.064   1.347   1.340
   96SOL    HW1  854   0.984   1.324   1.395
   96SOL    HW2  855   1.147   1.321   1.389
   97SOL     OW  856   1.592   1.629   1.625
   97SOL    HW1  857   1.619   1.663   1.535
   97SOL    HW2  858   1.671   1.591   1.671
   98SOL     OW  859   1.111   1.195   1.100
   98SOL    HW1  860   1.071   1.239   1.181
   98SOL    HW2  861   1.070   1.232   1.017
   99SOL     OW  862   1.638   1.099   1.079
   99SOL    HW1  863   1.643   1.180   1.138
   99SOL    HW2  864   1.552   1.101   1.028
  100SOL     OW  865   0.915   0.089   1.402
  100SOL    HW1  866   0.940   0.069   1.307
  100SOL    HW2  867   0.987   0.145   1.444
  101SOL     OW  868   0.980   1.116   1.719
  101SOL    HW1  869   0.881   1.122   1.729
  101SOL    HW2  870   1.003   1.036   1.663
  102SOL     OW  871   0.705   1.050   0.368
  102SOL    HW1  872   0.691   1.057   0.467
  102SOL    HW2  873   0.789   0.999   0.350
  103SOL     OW  874   0.410   0.813   1.251
  103SOL    HW1  875   0.496   0.825   1.301
  103SOL    HW2  876   0.368   0.726   1.278
  104SOL     OW  877   1.274   0.386   1.262
  104SOL    HW1  878   1.295   0.460   1.326
  104SOL    HW2  879   1.185   0.403   1.219
  105SOL     OW  880   0.064   1.564   1.331
  105SOL    HW1  881   0.018   1.646   1.297
  105SOL    HW2  882   0.162   1.583   1.340
  106SOL     OW  883   0.367   1.100   0.501
  106SOL    HW1  884   0.360   1.183   0.445
  106SOL    HW2  885   0.371   1.020   0.441
  107SOL     OW  886   0.566   0.537   0.865
  107SOL    HW1  887   0.578   0.603   0.791
  107SOL    HW2  888   0.612   0.571   0.948
  108SOL     OW  889   1.252   1.348   0.388
  108SOL    HW1  890   1.302   1.425   0.428
  108SOL    HW2  891   1.157   1.350   0.420
  109SOL     OW  892   1.272   1.445   1.142
  109SOL    HW1  893   1.319   1.458   1.229
  109SOL    HW2  894   1.206   1.371   1.151
  110SOL     OW  895   1.582   0.639   0.472
  110SOL    HW1  896   1.551   0.700   0.545
  110SOL    HW2  897   1.632   0.691   0.403
  111SOL     OW  898   0.354   1.510   1.329
  111SOL    HW1  899   0.333   1.466   1.242
  111SOL    HW2  900   0.451   1.536   1.332
  112SOL     OW  901   0.402   0.751   1.598
  112SOL    HW1  902   0.470   0.806   1.551
  112SOL    HW2  903   0.442   0.663   1.625
  113SOL     OW  904   1.587   0.779   1.670
  113SOL    HW1  905   1.495   0.817   1.665
  113SOL    HW2  906   1.647   0.826   1.605
  114SOL     OW  907   1.013   0.105   1.770
  114SOL    HW1  908   1.019   0.190   1.718
  114SOL    HW2  909   1.045   0.029   1.713
  115SOL     OW  910   0.504   0.050   1.740
  115SOL    HW1  911   0.462  -0.007   1.670
  115SOL    HW2  912   0.438   0.119   1.772
  116SOL     OW  913   0.573   0.870   1.029
  116SOL    HW1  914   0.617   0.959   1.020
  116SOL    HW2  915   0.510   0.870   1.106
  117SOL     OW  916   1.360   0.862   1.045
  117SOL    HW1  917   1.285   0.862   0.979
  117SOL    HW2  918   1.397   0.770   1.054
  118SOL     OW  919   1.209   0.525   0.275
  118SOL    HW1  920   1.222   0.441   0.329
  118SOL    HW2  921   1.180   0.599   0.335
  119SOL     OW  922   0.307   0.213   1.231
  119SOL    HW1  923   0.284   0.250   1.321
  119SOL    HW2  924   0.277   0.118   1.225
  120SOL     OW  925   0.037   1.310   1.282
  120SOL    HW1  926   0.090   1.261   1.350
  120SOL    HW2  927   0.059   1.408   1.287
  121SOL     OW  928   0.732   0.634   1.064
  121SOL    HW1  929   0.791   0.608   0.988
  121SOL    HW2  930   0.704   0.730   1.053
  122SOL     OW  931   1.728   0.935   1.854
  122SOL    HW1  932   1.682   0.928   1.765
  122SOL    HW2  933   1.666   0.979   1.920
  123SOL     OW  934   0.307   0.063   0.618
  123SOL    HW1  935   0.296   0.157   0.651
  123SOL    HW2  936   0.302   0.000   0.695
  124SOL     OW  937   1.622   0.367   0.374
  124SOL    HW1  938   1.624   0.291   0.438
  124SOL    HW2  939   1.574   0.444   0.414
  125SOL     OW  940   1.023   0.766   0.966
  125SOL    HW1  941   1.038   0.787   1.062
  125SOL    HW2  942   0.993   0.671   0.957
  126SOL     OW  943   0.980   1.573   1.700
  126SOL    HW1  944   0.960   1.617   1.612
  126SOL    HW2  945   1.019   1.482   1.684
  127SOL     OW  946   1.859   1.518   1.605
  127SOL    HW1  947   1.873   1.545   1.510
  127SOL    HW2  948   1.942   1.540   1.658
  128SOL     OW  949   0.350   0.898   1.804
  128SOL    HW1  950   0.426   0.942   1.852
  128SOL    HW2  951   0.385   0.851   1.722
  129SOL     OW  952   1.540   0.274   0.125
  129SOL    HW1  953   1.479   0.199   0.148
  129SOL    HW2  954   1.562   0.326   0.208
  130SOL     OW  955   1.303   0.838   0.042
  130SOL    HW1  956   1.337   0.745   0.057
  130SOL    HW2  957   1.321   0.865  -0.053
  131SOL     OW  958   1.068   1.333   0.849
  131SOL    HW1  959   1.075   1.249   0.794
  131SOL    HW2  960   1.130   1.402   0.813
  132SOL     OW  961   0.319   0.810   0.949
  132SOL    HW1  962   0.412   0.846   0.954
  132SOL    HW2  963   0.313   0.725   1.001
  133SOL     OW  964   0.339   0.509   1.006
  133SOL    HW1  965   0.287   0.426   0.989
  133SOL    HW2  966   0.416   0.514   0.942
  134SOL     OW  967   1.138   0.380   1.678
  134SOL    HW1  968   1.093   0.443   1.742
  134SOL    HW2  969   1.231   0.411   1.661
  135SOL     OW  970   1.160   0.207   1.477
  135SOL    HW1  971   1.160   0.271   1.554
  135SOL    HW2  972   1.188   0.255   1.394
  136SOL     OW  973   0.008   1.326   0.200
  136SOL    HW1  974  -0.085   1.347   0.169
  136SOL    HW2  975   0.018   1.227   0.213
  137SOL     OW  976   0.088   1.801   0.927
  137SOL    HW1  977   0.046   1.715   0.900
  137SOL    HW2  978   0.182   1.804   0.893
  138SOL     OW  979   0.504   1.568   0.910
  138SOL    HW1  980   0.570   1.642   0.919
  138SOL    HW2  981   0.548   1.489   0.868
  139SOL     OW  982   1.002   0.796   1.238
  139SOL    HW1  983   1.043   0.764   1.324
  139SOL    HW2  984   0.906   0.769   1.235
  140SOL     OW  985   0.040   0.544   1.114
  140SOL    HW1  986   0.125   0.511   1.073
  140SOL    HW2  987   0.053   0.559   1.212
  141SOL     OW  988   0.189   0.520   1.722
  141SOL    HW1  989   0.248   0.480   1.652
  141SOL    HW2  990   0.131   0.591   1.681
  142SOL     OW  991   1.369   0.950   1.660
  142SOL    HW1  992   1.408   1.039   1.680
  142SOL    HW2  993   1.379   0.930   1.563
  143SOL     OW  994   0.815   0.572   0.325
  143SOL    HW1  995   0.822   0.483   0.279
  143SOL    HW2  996   0.721   0.606   0.317
  144SOL     OW  997   1.657   0.604   1.206
  144SOL    HW1  998   1.619   0.535   1.268
  144SOL    HW2  999   1.739   0.568   1.162
  145SOL     OW 1000   0.252   1.564   1.744
  145SOL    HW1 1001   0.222   1.621   1.820
  145SOL    HW2 1002   0.245   1.467   1.770
  146SOL     OW 1003   0.671   0.464   1.269
  146SOL    HW1 1004   0.637   0.375   1.239
  146SOL    HW2 1005   0.697   0.518   1.189
  147SOL     OW 1006   0.930   1.678   1.465
  147SOL    HW1 1007   0.906   1.660   1.370
  147SOL    HW2 1008   0.960   1.772   1.475
  148SOL     OW 1009   0.473   0.500   0.191
  148SOL    HW1 1010   0.534   0.580   0.195
  148SOL    HW2 1011   0.378   0.531   0.198
  149SOL     OW 1012   0.159   1.137   1.466
  149SOL    HW1 1013   0.181   1.076   1.542
  149SOL    HW2 1014   0.169   1.088   1.380
  150SOL     OW 1015   1.347   1.059   1.234
  150SOL    HW1 1016   1.371   0.996   1.160
  150SOL    HW2 1017   1.257   1.099   1.216
  151SOL     OW 1018   1.302   0.855   0.309
  151SOL    HW1 1019   1.216   0.824   0.351
  151SOL    HW2 1020   1.298   0.841   0.210
  152SOL     OW 1021   1.759   1.747   1.154
  152SOL    HW1 1022   1.820   1.777   1.081
  152SOL    HW2 1023   1.721   1.658   1.132
  153SOL     OW 1024   1.252   1.731   1.128
  153SOL    HW1 1025   1.336   1.736   1.074
  153SOL    HW2 1026   1.229   1.635   1.146
  154SOL     OW 1027   0.083   1.258   1.022
  154SOL    HW1 1028   0.078   1.257   1.122
  154SOL    HW2 1029   0.000   1.217   0.984
  155SOL     OW 1030   0.688   1.662   1.716
  155SOL    HW1 1031   0.632   1.743   1.725
  155SOL    HW2 1032   0.740   1.666   1.630
  156SOL     OW 1033   0.903   0.086   0.133
  156SOL    HW1 1034   0.954   0.087   0.047
  156SOL    HW2 1035   0.959   0.044   0.204
  157SOL     OW 1036   1.726   0.135   0.523
  157SOL    HW1 1037   1.799   0.118   0.456
  157SOL    HW2 1038   1.695   0.048   0.561
  158SOL     OW 1039   1.388   1.573   0.477
  158SOL    HW1 1040   1.455   1.585   0.403
  158SOL    HW2 1041   1.348   1.662   0.500
  159SOL     OW 1042   0.130   1.794   1.851
  159SOL    HW1 1043   0.089   1.720   1.904
  159SOL    HW2 1044   0.194   1.845   1.909
  160SOL     OW 1045   1.280   0.927   0.672
  160SOL    HW1 1046   1.340   0.846   0.674
  160SOL    HW2 1047   1.320   0.996   0.612
  161SOL     OW 1048   0.830   1.273   1.422
  161SOL    HW1 1049   0.825   1.306   1.517
  161SOL    HW2 1050   0.744   1.292   1.376
  162SOL     OW 1051   0.672   1.616   0.154
  162SOL    HW1 1052   0.681   1.626   0.055
  162SOL    HW2 1053   0.632   1.527   0.175
  163SOL     OW 1054   1.650   1.720   1.394
  163SOL    HW1 1055   1.703   1.730   1.310
  163SOL    HW2 1056   1.623   1.810   1.428
  164SOL     OW 1057   1.841   0.175   0.963
  164SOL    HW1 1058   1.880   0.090   0.927
  164SOL    HW2 1059   1.743   0.177   0.944
  165SOL     OW 1060   0.263   0.326   0.720
  165SOL    HW1 1061   0.184   0.377   0.686
  165SOL    HW2 1062   0.254   0.311   0.818
  166SOL     OW 1063   1.194   1.612   0.031
  166SOL    HW1 1064   1.200   1.519   0.068
  166SOL    HW2 1065   1.135   1.612  -0.049
  167SOL     OW 1066   0.822   1.002   1.372
  167SOL    HW1 1067   0.862   1.001   1.280
  167SOL    HW2 1068   0.832   1.094   1.412
  168SOL     OW 1069   0.916   0.910   0.291
  168SOL    HW1 1070   0.979   0.948   0.223
  168SOL    HW2 1071   0.956   0.827   0.330
  169SOL     OW 1072   1.504   1.607   0.044
  169SOL    HW1 1073   1.412   1.644   0.051
  169SOL    HW2 1074   1.542   1.627  -0.046
  170SOL     OW 1075   0.372   1.288   1.490
  170SOL    HW1 1076   0.359   1.381   1.456
  170SOL    HW2 1077   0.288   1.236   1.477
  171SOL     OW 1078   1.614   1.292   1.289
  171SOL    HW1 1079   1.674   1.295   1.369
  171SOL    HW2 1080   1.539   1.356   1.302
  172SOL     OW 1081   1.039   1.098   0.696
  172SOL    HW1 1082   0.969   1.051   0.750
  172SOL    HW2 1083   1.098   1.030   0.653
  173SOL     OW 1084   1.014   0.236   0.971
  173SOL    HW1 1085   1.006   0.200   0.878
  173SOL    HW2 1086   1.012   0.160   1.036
  174SOL     OW 1087   0.590   1.487   0.491
  174SOL    HW1 1088   0.632   1.429   0.421
  174SOL    HW2 1089   0.546   1.566   0.447
  175SOL     OW 1090   1.709   0.385   1.381
  175SOL    HW1 1091   1.782   0.454   1.385
  175SOL    HW2 1092   1.737   0.310   1.322
  176SOL     OW 1093   0.255   1.348   0.290
  176SOL    HW1 1094   0.159   1.349   0.263
  176SOL    HW2 1095   0.267   1.401   0.374
  177SOL     OW 1096   0.105   1.013   1.726
  177SOL    HW1 1097   0.028   0.980   1.780
  177SOL    HW2 1098   0.190   0.983   1.768
  178SOL     OW 1099   0.672   0.203   1.489
  178SOL    HW1 1100   0.762   0.187   1.449
  178SOL    HW2 1101   0.680   0.208   1.588
  179SOL     OW 1102   0.075   0.345   0.033
  179SOL    HW1 1103  -0.017   0.317   0.004
  179SOL    HW2 1104   0.106   0.422  -0.023
  180SOL     OW 1105   1.440   0.856   1.398
  180SOL    HW1 1106   1.383   0.908   1.335
  180SOL    HW2 1107   1.536   0.868   1.374
  181SOL     OW 1108   0.072   0.166   0.318
  181SOL    HW1 1109   0.055   0.249   0.264
  181SOL    HW2 1110   0.162   0.129   0.296
  182SOL     OW 1111   1.183   1.335   0.119
  182SOL    HW1 1112   1.084   1.324   0.121
  182SOL    HW2 1113   1.217   1.350   0.212
  183SOL     OW 1114   0.613   0.842   1.431
  183SOL    HW1 1115   0.669   0.923   1.414
  183SOL    HW2 1116   0.672   0.762   1.434
  184SOL     OW 1117   1.493   1.767   0.959
  184SOL    HW1 1118   1.526   1.831   0.890
  184SOL    HW2 1119   1.559   1.761   1.034
  185SOL     OW 1120   0.716   0.565   1.708
  185SOL    HW1 1121   0.735   0.630   1.782
  185SOL    HW2 1122   0.776   0.485   1.717
  186SOL     OW 1123   1.450   1.220   1.633
  186SOL    HW1 1124   1.441   1.210   1.732
  186SOL    HW2 1125   1.546   1.213   1.607
  187SOL     OW 1126   0.390   1.741   1.560
  187SOL    HW1 1127   0.299   1.782   1.558
  187SOL    HW2 1128   0.383   1.647   1.592
  188SOL     OW 1129   1.674   0.883   1.254
  188SOL    HW1 1130   1.647   0.794   1.217
  188SOL    HW2 1131   1.675   0.951   1.181
  189SOL     OW 1132   1.225   0.325   0.449
  189SOL    HW1 1133   1.290   0.251   0.438
  189SOL    HW2 1134   1.245   0.375   0.533
  190SOL     OW 1135   0.594   0.745   0.652
  190SOL    HW1 1136   0.644   0.830   0.633
  190SOL    HW2 1137   0.506   0.747   0.604
  191SOL     OW 1138   1.777   0.342   1.642
  191SOL    HW1 1139   1.760   0.373   1.548
  191SOL    HW2 1140   1.693   0.305   1.680
  192SOL     OW 1141   1.730   0.934   1.517
  192SOL    HW1 1142   1.768   1.025   1.532
  192SOL    HW2 1143   1.722   0.917   1.418
  193SOL     OW 1144   0.859   1.374   0.016
  193SOL    HW1 1145   0.813   1.389   0.104
  193SOL    HW2 1146   0.903   1.459  -0.014
  194SOL     OW 1147   0.661   1.790   0.953
  194SOL    HW1 1148   0.615   1.878   0.940
  194SOL    HW2 1149   0.760   1.802   0.946
  195SOL     OW 1150   0.859   0.956   0.861
  195SOL    HW1 1151   0.913   0.887   0.909
  195SOL    HW2 1152   0.827   1.025   0.927
  196SOL     OW 1153   1.083   0.984   0.087
  196SOL    HW1 1154   1.060   1.037   0.005
  196SOL    HW2 1155   1.164   0.928   0.068
  197SOL     OW 1156   1.861   1.569   0.851
  197SOL    HW1 1157   1.790   1.557   0.781
  197SOL    HW2 1158   1.862   1.490   0.911
  198SOL     OW 1159   0.221   1.314   1.844
  198SOL    HW1 1160   0.156   1.241   1.823
  198SOL    HW2 1161   0.225   1.328   1.942
  199SOL     OW 1162   0.079   1.240   0.653
  199SOL    HW1 1163   0.078   1.193   0.741
  199SOL    HW2 1164   0.161   1.212   0.602
  200SOL     OW 1165   0.672   1.391   1.624
  200SOL    HW1 1166   0.594   1.341   1.662
  200SOL    HW2 1167   0.669   1.486   1.655
  201SOL     OW 1168   1.824   0.192   1.227
  201SOL    HW1 1169   1.820   0.102   1.271
  201SOL    HW2 1170   1.827   0.181   1.128
  202SOL     OW 1171   0.428   0.424   0.520
  202SOL    HW1 1172   0.458   0.352   0.458
  202SOL    HW2 1173   0.389   0.384   0.603
  203SOL     OW 1174   1.705   1.487   1.104
  203SOL    HW1 1175   1.612   1.462   1.077
  203SOL    HW2 1176   1.731   1.437   1.186
  204SOL     OW 1177   0.317   0.547   1.280
  204SOL    HW1 1178   0.355   0.488   1.352
  204SOL    HW2 1179   0.357   0.521   1.192
  205SOL     OW 1180   0.812   1.586   0.687
  205SOL    HW1 1181   0.844   1.596   0.593
  205SOL    HW2 1182   0.733   1.524   0.689
  206SOL     OW 1183   1.424   0.214   1.112
  206SOL    HW1 1184   1.476   0.149   1.167
  206SOL    HW2 1185   1.375   0.277   1.173
  207SOL     OW 1186   1.001   0.034   1.154
  207SOL    HW1 1187   0.938  -0.038   1.123
  207SOL    HW2 1188   1.094  -0.002   1.154
  208SOL     OW 1189   0.770   1.330   0.301
  208SOL    HW1 1190   0.724   1.243   0.318
  208SOL    HW2 1191   0.861   1.327   0.342
  209SOL     OW 1192   0.618   1.567   1.284
  209SOL    HW1 1193   0.613   1.649   1.341
  209SOL    HW2 1194   0.707   1.564   1.239
  210SOL     OW 1195   1.352   0.052   0.168
  210SOL    HW1 1196   1.387   0.011   0.084
  210SOL    HW2 1197   1.262   0.014   0.188
  211SOL     OW 1198   1.300   0.453   0.691
  211SOL    HW1 1199   1.241   0.533   0.695
  211SOL    HW2 1200   1.315   0.418   0.784
  212SOL     OW 1201   1.593   0.221   0.882
  212SOL    HW1 1202   1.509   0.220   0.936
  212SOL    HW2 1203   1.595   0.304   0.826
  213SOL     OW 1204   0.039   1.077   0.300
  213SOL    HW1 1205   0.138   1.066   0.291
  213SOL    HW2 1206  -0.001   0.991   0.332
  214SOL     OW 1207   0.875   1.646   0.337
  214SOL    HW1 1208   0.798   1.611   0.283
  214SOL    HW2 1209   0.843   1.717   0.399
  215SOL     OW 1210   0.230   0.628   1.975
  215SOL    HW1 1211   0.137   0.626   2.012
  215SOL    HW2 1212   0.231   0.589   1.883
  216SOL     OW 1213   0.225   0.275   2.858
  216SOL    HW1 1214   0.260   0.258   2.950
  216SOL    HW2 1215   0.137   0.230   2.846
  217SOL     OW 1216   0.019   0.368   2.509
  217SOL    HW1 1217  -0.063   0.411   2.548
  217SOL    HW2 1218  -0.009   0.295   2.446
  218SOL     OW 1219   0.569   1.275   3.027
  218SOL    HW1 1220   0.476   1.268   2.990
  218SOL    HW2 1221   0.580   1.364   3.071
  219SOL     OW 1222   1.555   1.511   2.565
  219SOL    HW1 1223   1.498   1.495   2.646
  219SOL    HW2 1224   1.496   1.521   2.485
  220SOL     OW 1225   1.135   0.703   2.579
  220SOL    HW1 1226   1.192   0.781   2.554
  220SOL    HW2 1227   1.075   0.729   2.655
  221SOL     OW 1228   1.755   0.607   2.093
  221SOL    HW1 1229   1.743   0.594   1.994
  221SOL    HW2 1230   1.725   0.526   2.142
  222SOL     OW 1231   0.768   1.144   2.885
  222SOL    HW1 1232   0.690   1.161   2.945
  222SOL    HW2 1233   0.802   1.231   2.849
  223SOL     OW 1234   0.850   0.798   3.685
  223SOL    HW1 1235   0.846   0.874   3.750
  223SOL    HW2 1236   0.872   0.834   3.594
  224SOL     OW 1237   0.685   1.012   2.527
  224SOL    HW1 1238   0.754   0.996   2.597
  224SOL    HW2 1239   0.612   1.069   2.565
  225SOL     OW 1240   0.686   1.161   3.665
  225SOL    HW1 1241   0.746   1.240   3.679
  225SOL    HW2 1242   0.600   1.192   3.624
  226SOL     OW 1243   0.335   1.435   2.923
  226SOL    HW1 1244   0.257   1.404   2.870
  226SOL    HW2 1245   0.393   1.493   2.866
  227SOL     OW 1246   1.460   1.505   3.201
  227SOL    HW1 1247   1.484   1.599   3.227
  227SOL    HW2 1248   1.444   1.451   3.283
  228SOL     OW 1249   0.438   0.392   3.361
  228SOL    HW1 1250   0.520   0.336   3.370
  228SOL    HW2 1251   0.357   0.334   3.365
  229SOL     OW 1252   1.603   0.447   2.599
  229SOL    HW1 1253   1.529   0.493   2.549
  229SOL    HW2 1254   1.654   0.515   2.652
  230SOL     OW 1255   0.231   1.713   2.345
  230SOL    HW1 1256   0.265   1.790   2.399
  230SOL    HW2 1257   0.275   1.713   2.255
  231SOL     OW 1258   1.127   1.341   3.552
  231SOL    HW1 1259   1.174   1.341   3.640
  231SOL    HW2 1260   1.079   1.254   3.541
  232SOL     OW 1261   0.230   1.434   2.400
  232SOL    HW1 1262   0.204   1.530   2.400
  232SOL    HW2 1263   0.159   1.380   2.445
  233SOL     OW 1264   0.240   1.091   2.748
  233SOL    HW1 1265   0.254   1.007   2.800
  233SOL    HW2 1266   0.185   1.155   2.803
  234SOL     OW 1267   0.620   1.786   3.301
  234SOL    HW1 1268   0.528   1.769   3.336
  234SOL    HW2 1269   0.648   1.878   3.327
  235SOL     OW 1270   0.606   0.964   1.985
  235SOL    HW1 1271   0.613   1.048   1.931
  235SOL    HW2 1272   0.652   0.977   2.073
  236SOL     OW 1273   1.594   0.114   3.342
  236SOL    HW1 1274   1.576   0.181   3.270
  236SOL    HW2 1275   1.591   0.160   3.431
  237SOL     OW 1276   0.122   0.643   2.425
  237SOL    HW1 1277   0.077   0.555   2.442
  237SOL    HW2 1278   0.121   0.697   2.509
  238SOL     OW 1279   1.842   1.767   2.221
  238SOL    HW1 1280   1.896   1.738   2.301
  238SOL    HW2 1281   1.872   1.857   2.192
  239SOL     OW 1282   0.027   1.596   1.979
  239SOL    HW1 1283   0.008   1.500   2.000
  239SOL    HW2 1284  -0.006   1.654   2.054
  240SOL     OW 1285   1.689   0.922   2.474
  240SOL    HW1 1286   1.784   0.893   2.482
  240SOL    HW2 1287   1.681   0.987   2.399
  241SOL     OW 1288   1.641   1.108   2.294
  241SOL    HW1 1289   1.727   1.110   2.242
  241SOL    HW2 1290   1.655   1.155   2.382
  242SOL     OW 1291   0.113   0.737   3.459
  242SOL    HW1 1292   0.201   0.724   3.504
  242SOL    HW2 1293   0.100   0.834   3.437
  243SOL     OW 1294   0.613   1.365   2.588
  243SOL    HW1 1295   0.564   1.278   2.597
  243SOL    HW2 1296   0.590   1.408   2.501
  244SOL     OW 1297   1.293   1.228   3.285
  244SOL    HW1 1298   1.330   1.155   3.227
  244SOL    HW2 1299   1.345   1.233   3.370
  245SOL     OW 1300   0.809   0.004   2.364
  245SOL    HW1 1301   0.849   0.095   2.355
  245SOL    HW2 1302   0.709   0.012   2.370
  246SOL     OW 1303   0.197   0.976   3.126
  246SOL    HW1 1304   0.286   0.931   3.112
  246SOL    HW2 1305   0.124   0.911   3.107
  247SOL     OW 1306   1.525   0.999   2.052
  247SOL    HW1 1307   1.462   0.923   2.065
  247SOL    HW2 1308   1.573   1.017   2.138
  248SOL     OW 1309   1.187   1.792   3.478
  248SOL    HW1 1310   1.211   1.852   3.402
  248SOL    HW2 1311   1.194   1.697   3.448
  249SOL     OW 1312   0.317   0.251   3.663
  249SOL    HW1 1313   0.388   0.322   3.669
  249SOL    HW2 1314   0.229   0.290   3.691
  250SOL     OW 1315   1.466   1.417   2.815
  250SOL    HW1 1316   1.407   1.423   2.895
  250SOL    HW2 1317   1.451   1.329   2.769
  251SOL     OW 1318   1.667   1.714   2.434
  251SOL    HW1 1319   1.626   1.691   2.346
  251SOL    HW2 1320   1.649   1.640   2.499
  252SOL     OW 1321   0.598   0.729   2.132
  252SOL    HW1 1322   0.622   0.798   2.064
  252SOL    HW2 1323   0.520   0.762   2.186
  253SOL     OW 1324   1.281   0.345   2.806
  253SOL    HW1 1325   1.195   0.295   2.793
  253SOL    HW2 1326   1.343   0.291   2.862
  254SOL     OW 1327   1.576   1.662   2.169
  254SOL    HW1 1328   1.665   1.708   2.172
  254SOL    HW2 1329   1.555   1.638   2.074
  255SOL     OW 1330   0.807   0.605   3.327
  255SOL    HW1 1331   0.760   0.602   3.416
  255SOL    HW2 1332   0.756   0.550   3.261
  256SOL     OW 1333   1.394   0.469   3.536
  256SOL    HW1 1334   1.374   0.512   3.624
  256SOL    HW2 1335   1.472   0.407   3.545
  257SOL     OW 1336   0.973   0.890   3.434
  257SOL    HW1 1337   1.019   0.806   3.405
  257SOL    HW2 1338   0.917   0.924   3.359
  258SOL     OW 1339   0.991   0.410   3.104
  258SOL    HW1 1340   0.914   0.444   3.158
  258SOL    HW2 1341   0.957   0.359   3.025
  259SOL     OW 1342   1.041   0.701   2.291
  259SOL    HW1 1343   1.067   0.697   2.387
  259SOL    HW2 1344   0.956   0.650   2.277
  260SOL     OW 1345   0.076   0.811   2.651
  260SOL    HW1 1346   0.175   0.799   2.660
  260SOL    HW2 1347   0.052   0.906   2.672
  261SOL     OW 1348   0.130   1.821   3.433
  261SOL    HW1 1349   0.120   1.806   3.532
  261SOL    HW2 1350   0.044   1.857   3.397
  262SOL     OW 1351   0.865   0.348   2.057
  262SOL    HW1 1352   0.924   0.411   2.008
  262SOL    HW2 1353   0.884   0.254   2.028
  263SOL     OW 1354   1.719   0.585   3.693
  263SOL    HW1 1355   1.693   0.674   3.657
  263SOL    HW2 1356   1.717   0.517   3.620
  264SOL     OW 1357   1.362   1.144   2.407
  264SOL    HW1 1358   1.445   1.115   2.359
  264SOL    HW2 1359   1.313   1.211   2.351
  265SOL     OW 1360   0.550   0.196   2.747
  265SOL    HW1 1361   0.545   0.191   2.847
  265SOL    HW2 1362   0.552   0.292   2.718
  266SOL     OW 1363   1.008   1.456   2.339
  266SOL    HW1 1364   0.962   1.528   2.287
  266SOL    HW2 1365   1.004   1.476   2.437
  267SOL     OW 1366   0.351   1.801   2.715
  267SOL    HW1 1367   0.401   1.715   2.721
  267SOL    HW2 1368   0.416   1.878   2.712
  268SOL     OW 1369   1.795   1.066   2.735
  268SOL    HW1 1370   1.733   1.051   2.659
  268SOL    HW2 1371   1.743   1.077   2.820
  269SOL     OW 1372   1.227   1.550   3.368
  269SOL    HW1 1373   1.233   1.473   3.432
  269SOL    HW2 1374   1.175   1.524   3.288
  270SOL     OW 1375   0.321   0.943   2.104
  270SOL    HW1 1376   0.403   0.982   2.062
  270SOL    HW2 1377   0.294   0.861   2.055
  271SOL     OW 1378   1.458   0.735   2.590
  271SOL    HW1 1379   1.453   0.670   2.665
  271SOL    HW2 1380   1.538   0.794   2.603
  272SOL     OW 1381   0.461   1.266   3.589
  272SOL    HW1 1382   0.411   1.267   3.503
  272SOL    HW2 1383   0.398   1.248   3.665
  273SOL     OW 1384   1.111   1.776   2.099
  273SOL    HW1 1385   1.051   1.714   2.149
  273SOL    HW2 1386   1.142   1.732   2.014
  274SOL     OW 1387   0.202   0.285   3.360
  274SOL    HW1 1388   0.122   0.345   3.347
  274SOL    HW2 1389   0.192   0.236   3.446
  275SOL     OW 1390   1.632   1.377   1.943
  275SOL    HW1 1391   1.600   1.471   1.933
  275SOL    HW2 1392   1.556   1.314   1.931
  276SOL     OW 1393   0.464   1.743   2.185
  276SOL    HW1 1394   0.497   1.782   2.271
  276SOL    HW2 1395   0.540   1.736   2.120
  277SOL     OW 1396   1.400   0.107   2.288
  277SOL    HW1 1397   1.376   0.070   2.198
  277SOL    HW2 1398   1.499   0.123   2.292
  278SOL     OW 1399   0.249   1.785   3.103
  278SOL    HW1 1400   0.306   1.720   3.153
  278SOL    HW2 1401   0.233   1.752   3.010
  279SOL     OW 1402   0.940   1.698   2.766
  279SOL    HW1 1403   1.020   1.641   2.787
  279SOL    HW2 1404   0.891   1.658   2.689
  280SOL     OW 1405   0.382   0.700   2.342
  280SOL    HW1 1406   0.427   0.610   2.339
  280SOL    HW2 1407   0.288   0.689   2.375
  281SOL     OW 1408   1.547   0.222   3.591
  281SOL    HW1 1409   1.542   0.259   3.683
  281SOL    HW2 1410   1.475   0.153   3.579
  282SOL     OW 1411   0.614   0.122   1.979
  282SOL    HW1 1412   0.712   0.100   1.986
  282SOL    HW2 1413   0.583   0.105   1.886
  283SOL     OW 1414   0.781   0.264   3.611
  283SOL    HW1 1415   0.848   0.203   3.654
  283SOL    HW2 1416   0.708   0.283   3.676
  284SOL     OW 1417   0.888   1.514   3.057
  284SOL    HW1 1418   0.865   1.489   2.963
  284SOL    HW2 1419   0.949   1.445   3.096
  285SOL     OW 1420   1.351   0.590   3.295
  285SOL    HW1 1421   1.379   0.547   3.380
  285SOL    HW2 1422   1.376   0.686   3.296
  286SOL     OW 1423   0.803   1.402   2.786
  286SOL    HW1 1424   0.893   1.416   2.744
  286SOL    HW2 1425   0.732   1.404   2.715
  287SOL     OW 1426   0.922   0.503   2.761
  287SOL    HW1 1427   0.897   0.494   2.665
  287SOL    HW2 1428   0.970   0.421   2.792
  288SOL     OW 1429   0.539   0.064   2.374
  288SOL    HW1 1430   0.458   0.065   2.432
  288SOL    HW2 1431   0.542   0.147   2.319
  289SOL     OW 1432   1.434   1.188   1.903
  289SOL    HW1 1433   1.466   1.112   1.960
  289SOL    HW2 1434   1.342   1.215   1.933
  290SOL     OW 1435   0.297   0.035   2.033
  290SOL    HW1 1436   0.346   0.119   2.012
  290SOL    HW2 1437   0.359  -0.030   2.078
  291SOL     OW 1438   0.935   0.236   2.342
  291SOL    HW1 1439   0.887   0.277   2.264
  291SOL    HW2 1440   1.034   0.234   2.323
  292SOL     OW 1441   1.076   0.683   3.326
  292SOL    HW1 1442   0.996   0.622   3.329
  292SOL    HW2 1443   1.157   0.630   3.302
  293SOL     OW 1444   1.227   1.570   2.655
  293SOL    HW1 1445   1.248   1.644   2.590
  293SOL    HW2 1446   1.295   1.570   2.728
  294SOL     OW 1447   0.459   1.152   2.603
  294SOL    HW1 1448   0.388   1.125   2.668
  294SOL    HW2 1449   0.433   1.124   2.510
  295SOL     OW 1450   1.271   1.797   2.453
  295SOL    HW1 1451   1.315   1.861   2.389
  295SOL    HW2 1452   1.221   1.849   2.523
  296SOL     OW 1453   1.032   0.549   1.878
  296SOL    HW1 1454   0.991   0.631   1.839
  296SOL    HW2 1455   1.096   0.575   1.951
  297SOL     OW 1456   0.078   0.556   3.248
  297SOL    HW1 1457   0.170   0.555   3.207
  297SOL    HW2 1458   0.072   0.630   3.315
  298SOL     OW 1459   0.561   0.222   3.009
  298SOL    HW1 1460   0.599   0.138   3.046
  298SOL    HW2 1461   0.473   0.241   3.053
  299SOL     OW 1462   0.866   0.454   2.504
  299SOL    HW1 1463   0.834   0.526   2.442
  299SOL    HW2 1464   0.890   0.373   2.451
  300SOL     OW 1465   1.017   0.039   2.615
  300SOL    HW1 1466   0.945   0.044   2.546
  300SOL    HW2 1467   0.993  -0.030   2.684
  301SOL     OW 1468   1.429   1.173   2.729
  301SOL    HW1 1469   1.374   1.089   2.722
  301SOL    HW2 1470   1.455   1.202   2.637
  302SOL     OW 1471   1.466   0.590   2.854
  302SOL    HW1 1472   1.436   0.495   2.861
  302SOL    HW2 1473   1.539   0.606   2.920
  303SOL     OW 1474   1.857   0.833   2.239
  303SOL    HW1 1475   1.899   0.769   2.303
  303SOL    HW2 1476   1.819   0.782   2.161
  304SOL     OW 1477   0.488   1.385   2.036
  304SOL    HW1 1478   0.401   1.370   2.083
  304SOL    HW2 1479   0.471   1.411   1.941
  305SOL     OW 1480   1.664   1.280   2.519
  305SOL    HW1 1481   1.763   1.288   2.533
  305SOL    HW2 1482   1.619   1.364   2.550
  306SOL     OW 1483   1.390   0.575   1.940
  306SOL    HW1 1484   1.336   0.554   2.021
  306SOL    HW2 1485   1.481   0.534   1.949
  307SOL     OW 1486   0.527   0.256   2.190
  307SOL    HW1 1487   0.554   0.197   2.115
  307SOL    HW2 1488   0.527   0.351   2.159
  308SOL     OW 1489   1.754   1.223   3.450
  308SOL    HW1 1490   1.845   1.184   3.437
  308SOL    HW2 1491   1.762   1.319   3.474
  309SOL     OW 1492   1.064   1.347   3.202
  309SOL    HW1 1493   0.984   1.324   3.257
  309SOL    HW2 1494   1.147   1.321   3.251
  310SOL     OW 1495   1.592   1.629   3.487
  310SOL    HW1 1496   1.619   1.663   3.397
  310SOL    HW2 1497   1.671   1.591   3.533
  311SOL     OW 1498   1.111   1.195   2.962
  311SOL    HW1 1499   1.071   1.239   3.043
  311SOL    HW2 1500   1.070   1.232   2.879
  312SOL     OW 1501   1.638   1.099   2.941
  312SOL    HW1 1502   1.643   1.180   3.000
  312SOL    HW2 1503   1.552   1.101   2.890
  313SOL     OW 1504   0.915   0.089   3.264
  313SOL    HW1 1505   0.940   0.069   3.169
  313SOL    HW2 1506   0.987   0.145   3.306
  314SOL     OW 1507   0.980   1.116   3.581
  314SOL    HW1 1508   0.881   1.122   3.591
  314SOL    HW2 1509   1.003   1.036   3.525
  315SOL     OW 1510   0.705   1.050   2.230
  315SOL    HW1 1511   0.691   1.057   2.329
  315SOL    HW2 1512   0.789   0.999   2.212
  316SOL     OW 1513   0.410   0.813   3.113
  316SOL    HW1 1514   0.496   0.825   3.163
  316SOL    HW2 1515   0.368   0.726   3.140
  317SOL     OW 1516   1.274   0.386   3.124
  317SOL    HW1 1517   1.295   0.460   3.188
  317SOL    HW2 1518   1.185   0.403   3.081
  318SOL     OW 1519   0.064   1.564   3.193
  318SOL    HW1 1520   0.018   1.646   3.159
  318SOL    HW2 1521   0.162   1.583   3.202
  319SOL     OW 1522   0.367   1.100   2.363
  319SOL    HW1 1523   0.360   1.183   2.307
  319SOL    HW2 1524   0.371   1.020   2.303
  320SOL     OW 1525   0.566   0.537   2.727
  320SOL    HW1 1526   0.578   0.603   2.653
  320SOL    HW2 1527   0.612   0.571   2.810
  321SOL     OW 1528   1.252   1.348   2.250
  321SOL    HW1 1529   1.302   1.425   2.290
  321SOL    HW2 1530   1.157   1.350   2.282
  322SOL     OW 1531   1.272   1.445   3.004
  322SOL    HW1 1532   1.319   1.458   3.091
  322SOL    HW2 1533   1.206   1.371   3.013
  323SOL     OW 1534   1.582   0.639   2.334
  323SOL    HW1 1535   1.551   0.700   2.407
  323SOL    HW2 1536   1.632   0.691   2.265
  324SOL     OW 1537   0.354   1.510   3.191
  324SOL    HW1 1538   0.333   1.466   3.104
  324SOL    HW2 1539   0.451   1.536   3.194
  325SOL     OW 1540   0.402   0.751   3.460
  325SOL    HW1 1541   0.470   0.806   3.413
  325SOL    HW2 1542   0.442   0.663   3.487
  326SOL     OW 1543   1.587   0.779   3.532
  326SOL    HW1 1544   1.495   0.817   3.527
  326SOL    HW2 1545   1.647   0.826   3.467
  327SOL     OW 1546   1.013   0.105   3.632
  327SOL    HW1 1547   1.019   0.190   3.580
  327SOL    HW2 1548   1.045   0.029   3.575
  328SOL     OW 1549   0.504   0.050   3.602
  328SOL    HW1 1550   0.462  -0.007   3.532
  328SOL    HW2 1551   0.438   0.119   3.634
  329SOL     OW 1552   0.573   0.870   2.891
  329SOL    HW1 1553   0.617   0.959   2.882
  329SOL    HW2 1554   0.510   0.870   2.968
  330SOL     OW 1555   1.360   0.862   2.907
  330SOL    HW1 1556   1.285   0.862   2.841
  330SOL    HW2 1557   1.397   0.770   2.916
  331SOL     OW 1558   1.209   0.525   2.137
  331SOL    HW1 1559   1.222   0.441   2.191
  331SOL    HW2 1560   1.180   0.599   2.197
  332SOL     OW 1561   0.307   0.213   3.093
  332SOL    HW1 1562   0.284   0.250   3.183
  332SOL    HW2 1563   0.277   0.118   3.087
  333SOL     OW 1564   0.037   1.310   3.144
  333SOL    HW1 1565   0.090   1.261   3.212
  333SOL    HW2 1566   0.059   1.408   3.149
  334SOL     OW 1567   0.732   0.634   2.926
  334SOL    HW1 1568   0.791   0.608   2.850
  334SOL    HW2 1569   0.704   0.730   2.915
  335SOL     OW 1570   1.728   0.935   3.716
  335SOL    HW1 1571   1.682   0.928   3.627
  335SOL    HW2 1572   1.666   0.979   3.782
  336SOL     OW 1573   0.307   0.063   2.480
  336SOL    HW1 1574   0.296   0.157   2.513
  336SOL    HW2 1575   0.302   0.000   2.557
  337SOL     OW 1576   1.622   0.367   2.236
  337SOL    HW1 1577   1.624   0.291   2.300
  337SOL    HW2 1578   1.574   0.444   2.276
  338SOL     OW 1579   1.023   0.766   2.828
  338SOL    HW1 1580   1.038   0.787   2.924
  338SOL    HW2 1581   0.993   0.671   2.819
  339SOL     OW 1582   0.980   1.573   3.562
  339SOL    HW1 1583   0.960   1.617   3.474
  339SOL    HW2 1584   1.019   1.482   3.546
  340SOL     OW 1585   1.859   1.518   3.467
  340SOL    HW1 1586   1.873   1.545   3.372
  340SOL    HW2 1587   1.942   1.540   3.520
  341SOL     OW 1588   0.350   0.898   3.666
  341SOL    HW1 1589   0.426   0.942   3.714
  341SOL    HW2 1590   0.385   0.851   3.584
  342SOL     OW 1591   1.540   0.274   1.987
  342SOL    HW1 1592   1.479   0.199   2.010
  342SOL    HW2 1593   1.562   0.326   2.070
  343SOL     OW 1594   1.303   0.838   1.904
  343SOL    HW1 1595   1.337   0.745   1.919
  343SOL    HW2 1596   1.321   0.865   1.809
  344SOL     OW 1597   1.068   1.333   2.711
  344SOL    HW1 1598   1.075   1.249   2.656
  344SOL    HW2 1599   1.130   1.402   2.675
  345SOL     OW 1600   0.319   0.810   2.811
  345SOL    HW1 1601   0.412   0.846   2.816
  345SOL    HW2 1602   0.313   0.725   2.863
  346SOL     OW 1603   0.339   0.509   2.868
  346SOL    HW1 1604   0.287   0.426   2.851
  346SOL    HW2 1605   0.416   0.514   2.804
  347SOL     OW 1606   1.138   0.380   3.540
  347SOL    HW1 1607   1.093   0.443   3.604
  347SOL    HW2 1608   1.231   0.411   3.523
  348SOL     OW 1609   1.160   0.207   3.339
  348SOL    HW1 1610   1.160   0.271   3.416
  348SOL    HW2 1611   1.188   0.255   3.256
  349SOL     OW 1612   0.008   1.326   2.062
  349SOL    HW1 1613  -0.085   1.347   2.031
  349SOL    HW2 1614   0.018   1.227   2.075
  350SOL     OW 1615   0.088   1.801   2.789
  350SOL    HW1 1616   0.046   1.715   2.762
  350SOL    HW2 1617   0.182   1.804   2.755
  351SOL     OW 1618   0.504   1.568   2.772
  351SOL    HW1 1619   0.570   1.642   2.781
  351SOL    HW2 1620   0.548   1.489   2.730
  352SOL     OW 1621   1.002   0.796   3.100
  352SOL    HW1 1622   1.043   0.764   3.186
  352SOL    HW2 1623   0.906   0.769   3.097
  353SOL     OW 1624   0.040   0.544   2.976
  353SOL    HW1 1625   0.125   0.511   2.935
  353SOL    HW2 1626   0.053   0.559   3.074
  354SOL     OW 1627   0.189   0.520   3.584
  354SOL    HW1 1628   0.248   0.480   3.514
  354SOL    HW2 1629   0.131   0.591   3.543
  355SOL     OW 1630   1.369   0.950   3.522
  355SOL    HW1 1631   1.408   1.039   3.542
  355SOL    HW2 1632   1.379   0.930   3.425
  356SOL     OW 1633   0.815   0.572   2.187
  356SOL    HW1 1634   0.822   0.483   2.141
  356SOL    HW2 1635   0.721   0.606   2.179
  357SOL     OW 1636   1.657   0.604   3.068
  357SOL    HW1 1637   1.619   0.535   3.130
  357SOL    HW2 1638   1.739   0.568   3.024
  358SOL     OW 1639   0.252   1.564   3.606
  358SOL    HW1 1640   0.222   1.621   3.682
  358SOL    HW2 1641   0.245   1.467   3.632
  359SOL     OW 1642   0.671   0.464   3.131
  359SOL    HW1 1643   0.637   0.375   3.101
  359SOL    HW2 1644   0.697   0.518   3.051
  360SOL     OW 1645   0.930   1.678   3.327
  360SOL    HW1 1646   0.906   1.660   3.232
  360SOL    HW2 1647   0.960   1.772   3.337
  361SOL     OW 1648   0.473   0.500   2.053
  361SOL    HW1 1649   0.534   0.580   2.057
  361SOL    HW2 1650   0.378   0.531   2.060
  362SOL     OW 1651   0.159   1.137   3.328
  362SOL    HW1 1652   0.181   1.076   3.404
  362SOL    HW2 1653   0.169   1.088   3.242
  363SOL     OW 1654   1.347   1.059   3.096
  363SOL    HW1 1655   1.371   0.996   3.022
  363SOL    HW2 1656   1.257   1.099   3.078
  364SOL     OW 1657   1.302   0.855   2.171
  364SOL    HW1 1658   1.216   0.824   2.213
  364SOL    HW2 1659   1.298   0.841   2.072
  365SOL     OW 1660   1.759   1.747   3.016
  365SOL    HW1 1661   1.820   1.777   2.943
  365SOL    HW2 1662   1.721   1.658   2.994
  366SOL     OW 1663   1.252   1.731   2.990
  366SOL    HW1 1664   1.336   1.736   2.936
  366SOL    HW2 1665   1.229   1.635   3.008
  367SOL     OW 1666   0.083   1.258   2.884
  367SOL    HW1 1667   0.078   1.257   2.984
  367SOL    HW2 1668   0.000   1.217   2.846
  368SOL     OW 1669   0.688   1.662   3.578
  368SOL    HW1 1670   0.632   1.743   3.587
  368SOL    HW2 1671   0.740   1.666   3.492
  369SOL     OW 1672   1.726   0.135   2.385
  369SOL    HW1 1673   1.799   0.118   2.318
  369SOL    HW2 1674   1.695   0.048   2.423
  370SOL     OW 1675   1.388   1.573   2.339
  370SOL    HW1 1676   1.455   1.585   2.265
  370SOL    HW2 1677   1.348   1.662   2.362
  371SOL     OW 1678   0.130   1.794   3.713
  371SOL    HW1 1679   0.089   1.720   3.766
  371SOL    HW2 1680   0.194   1.845   3.771
  372SOL     OW 1681   1.280   0.927   2.534
  372SOL    HW1 1682   1.340   0.846   2.536
  372SOL    HW2 1683   1.320   0.996   2.474
  373SOL     OW 1684   0.830   1.273   3.284
  373SOL    HW1 1685   0.825   1.306   3.379
  373SOL    HW2 1686   0.744   1.292   3.238
  374SOL     OW 1687   0.672   1.616   2.016
  374SOL    HW1 1688   0.681   1.626   1.917
  374SOL    HW2 1689   0.632   1.527   2.037
  375SOL     OW 1690   1.650   1.720   3.256
  375SOL    HW1 1691   1.703   1.730   3.172
  375SOL    HW2 1692   1.623   1.810   3.290
  376SOL     OW 1693   1.841   0.175   2.825
  376SOL    HW1 1694   1.880   0.090   2.789
  376SOL    HW2 1695   1.743   0.177   2.806
  377SOL     OW 1696   0.263   0.326   2.582
  377SOL    HW1 1697   0.184   0.377   2.548
  377SOL    HW2 1698   0.254   0.311   2.680
  378SOL     OW 1699   1.194   1.612   1.893
  378SOL    HW1 1700   1.200   1.519   1.930
  378SOL    HW2 1701   1.135   1.612   1.813
  379SOL     OW 1702   0.822   1.002   3.234
  379SOL    HW1 1703   0.862   1.001   3.142
  379SOL    HW2 1704   0.832   1.094   3.274
  380SOL     OW 1705   0.916   0.910   2.153
  380SOL    HW1 1706   0.979   0.948   2.085
  380SOL    HW2 1707   0.956   0.827   2.192
  381SOL     OW 1708   1.504   1.607   1.906
  381SOL    HW1 1709   1.412   1.644   1.913
  381SOL    HW2 1710   1.542   1.627   1.816
  382SOL     OW 1711   0.372   1.288   3.352
  382SOL    HW1 1712   0.359   1.381   3.318
  382SOL    HW2 1713   0.288   1.236   3.339
  383SOL     OW 1714   1.614   1.292   3.151
  383SOL    HW1 1715   1.674   1.295   3.231
  383SOL    HW2 1716   1.539   1.356   3.164
  384SOL     OW 1717   1.039   1.098   2.558
  384SOL    HW1 1718   0.969   1.051   2.612
  384SOL    HW2 1719   1.098   1.030   2.515
  385SOL     OW 1720   1.014   0.236   2.833
  385SOL    HW1 1721   1.006   0.200   2.740
  385SOL    HW2 1722   1.012   0.160   2.898
  386SOL     OW 1723   0.590   1.487   2.353
  386SOL    HW1 1724   0.632   1.429   2.283
  386SOL    HW2 1725   0.546   1.566   2.309
  387SOL     OW 1726   1.709   0.385   3.243
  387SOL    HW1 1727   1.782   0.454   3.247
  387SOL    HW2 1728   1.737   0.310   3.184
  388SOL     OW 1729   0.255   1.348   2.152
  388SOL    HW1 1730   0.159   1.349   2.125
  388SOL    HW2 1731   0.267   1.401   2.236
  389SOL     OW 1732   0.105   1.013   3.588
  389SOL    HW1 1733   0.028   0.980   3.642
  389SOL    HW2 1734   0.190   0.983   3.630
  390SOL     OW 1735   0.672   0.203   3.351
  390SOL    HW1 1736   0.762   0.187   3.311
  390SOL    HW2 1737   0.680   0.208   3.450
  391SOL     OW 1738   0.075   0.345   1.895
  391SOL    HW1 1739  -0.017   0.317   1.866
  391SOL    HW2 1740   0.106   0.422   1.839
  392SOL     OW 1741   1.440   0.856   3.260
  392SOL    HW1 1742   1.383   0.908   3.197
  392SOL    HW2 1743   1.536   0.868   3.236
  393SOL     OW 1744   0.072   0.166   2.180
  393SOL    HW1 1745   0.055   0.249   2.126
  393SOL    HW2 1746   0.162   0.129   2.158
  394SOL     OW 1747   1.183   1.335   1.981
  394SOL    HW1 1748   1.084   1.324   1.983
  394SOL    HW2 1749   1.217   1.350   2.074
  395SOL     OW 1750   0.613   0.842   3.293
  395SOL    HW1 1751   0.669   0.923   3.276
  395SOL    HW2 1752   0.672   0.762   3.296
  396SOL     OW 1753   1.493   1.767   2.821
  396SOL    HW1 1754   1.526   1.831   2.752
  396SOL    HW2 1755   1.559   1.761   2.896
  397SOL     OW 1756   0.716   0.565   3.570
  397SOL    HW1 1757   0.735   0.630   3.644
  397SOL    HW2 1758   0.776   0.485   3.579
  398SOL     OW 1759   1.450   1.220   3.495
  398SOL    HW1 1760   1.441   1.210   3.594
  398SOL    HW2 1761   1.546   1.213   3.469
  399SOL     OW 1762   0.390   1.741   3.422
  399SOL    HW1 1763   0.299   1.782   3.420
  399SOL    HW2 1764   0.383   1.647   3.454
  400SOL     OW 1765   1.674   0.883   3.116
  400SOL    HW1 1766   1.647   0.794   3.079
  400SOL    HW2 1767   1.675   0.951   3.043
  401SOL     OW 1768   1.225   0.325   2.311
  401SOL    HW1 1769   1.290   0.251   2.300
  401SOL    HW2 1770   1.245   0.375   2.395
  402SOL     OW 1771   0.594   0.745   2.514
  402SOL    HW1 1772   0.644   0.830   2.495
  402SOL    HW2 1773   0.506   0.747   2.466
  403SOL     OW 1774   1.777   0.342   3.504
  403SOL    HW1 1775   1.760   0.373   3.410
  403SOL    HW2 1776   1.693   0.305   3.542
  404SOL     OW 1777   1.730   0.934   3.379
  404SOL    HW1 1778   1.768   1.025   3.394
  404SOL    HW2 1779   1.722   0.917   3.280
  405SOL     OW 1780   0.859   1.374   1.878
  405SOL    HW1 1781   0.813   1.389   1.966
  405SOL    HW2 1782   0.903   1.459   1.848
  406SOL     OW 1783   0.661   1.790   2.815
  406SOL    HW1 1784   0.615   1.878   2.802
  406SOL    HW2 1785   0.760   1.802   2.808
  407SOL     OW 1786   0.859   0.956   2.723
  407SOL    HW1 1787   0.913   0.887   2.771
  407SOL    HW2 1788   0.827   1.025   2.789
  408SOL     OW 1789   1.083   0.984   1.949
  408SOL    HW1 1790   1.060   1.037   1.867
  408SOL    HW2 1791   1.164   0.928   1.930
  409SOL     OW 1792   1.861   1.569   2.713
  409SOL    HW1 1793   1.790   1.557   2.643
  409SOL    HW2 1794   1.862   1.490   2.773
  410SOL     OW 1795   0.221   1.314   3.706
  410SOL    HW1 1796   0.156   1.241   3.685
  410SOL    HW2 1797   0.225   1.328   3.804
  411SOL     OW 1798   0.079   1.240   2.515
  411SOL    HW1 1799   0.078   1.193   2.603
  411SOL    HW2 1800   0.161   1.212   2.464
  412SOL     OW 1801   0.672   1.391   3.486
  412SOL    HW1 1802   0.594   1.341   3.524
  412SOL    HW2 1803   0.669   1.486   3.517
  413SOL     OW 1804   1.824   0.192   3.089
  413SOL    HW1 1805   1.820   0.102   3.133
  413SOL    HW2 1806   1.827   0.181   2.990
  414SOL     OW 1807   0.428   0.424   2.382
  414SOL    HW1 1808   0.458   0.352   2.320
  414SOL    HW2 1809   0.389   0.384   2.465
  415SOL     OW 1810   1.705   1.487   2.966
  415SOL    HW1 1811   1.612   1.462   2.939
  415SOL    HW2 1812   1.731   1.437   3.048
  416SOL     OW 1813   0.317   0.547   3.142
  416SOL    HW1 1814   0.355   0.488   3.214
  416SOL    HW2 1815   0.357   0.521   3.054
  417SOL     OW 1816   0.812   1.586   2.549
  417SOL    HW1 1817   0.844   1.596   2.455
  417SOL    HW2 1818   0.733   1.524   2.551
  418SOL     OW 1819   1.424   0.214   2.974
  418SOL    HW1 1820   1.476   0.149   3.029
  418SOL    HW2 1821   1.375   0.277   3.035
  419SOL     OW 1822   1.001   0.034   3.016
  419SOL    HW1 1823   0.938  -0.038   2.985
  419SOL    HW2 1824   1.094  -0.002   3.016
  420SOL     OW 1825   0.770   1.330   2.163
  420SOL    HW1 1826   0.724   1.243   2.180
  420SOL    HW2 1827   0.861   1.327   2.204
  421SOL     OW 1828   0.618   1.567   3.146
  421SOL    HW1 1829   0.613   1.649   3.203
  421SOL    HW2 1830   0.707   1.564   3.101
  422SOL     OW 1831   1.352   0.052   2.030
  422SOL    HW1 1832   1.387   0.011   1.946
  422SOL    HW2 1833   1.262   0.014   2.050
  423SOL     OW 1834   1.300   0.453   2.553
  423SOL    HW1 1835   1.241   0.533   2.557
  423SOL    HW2 1836   1.315   0.418   2.646
  424SOL     OW 1837   1.593   0.221   2.744
  424SOL    HW1 1838   1.509   0.220   2.798
  424SOL    HW2 1839   1.595   0.304   2.688
  425SOL     OW 1840   0.039   1.077   2.162
  425SOL    HW1 1841   0.138   1.066   2.153
  425SOL    HW2 1842  -0.001   0.991   2.194
  426SOL     OW 1843   0.875   1.646   2.199
  426SOL    HW1 1844   0.798   1.611   2.145
  426SOL    HW2 1845   0.843   1.717   2.261
  427SOL     OW 1846   0.230   0.628   3.837
  427SOL    HW1 1847   0.137   0.626   3.874
  427SOL    HW2 1848   0.231   0.589   3.745
  428SOL     OW 1849   0.225   0.275   4.720
  428SOL    HW1 1850   0.260   0.258   4.812
  428SOL    HW2 1851   0.137   0.230   4.708
  429SOL     OW 1852   0.019   0.368   4.371
  429SOL    HW1 1853  -0.063   0.411   4.410
  429SOL    HW2 1854  -0.009   0.295   4.308
  430SOL     OW 1855   0.569   1.275   4.889
  430SOL    HW1 1856   0.476   1.268   4.852
  430SOL    HW2 1857   0.580   1.364   4.933
  431SOL     OW 1858   1.555   1.511   4.427
  431SOL    HW1 1859   1.498   1.495   4.508
  431SOL    HW2 1860   1.496   1.521   4.347
  432SOL     OW 1861   1.135   0.703   4.441
  432SOL    HW1 1862   1.192   0.781   4.416
  432SOL    HW2 1863   1.075   0.729   4.517
  433SOL     OW 1864   1.755   0.607   3.955
  433SOL    HW1 1865   1.743   0.594   3.856
  433SOL    HW2 1866   1.725   0.526   4.004
  434SOL     OW 1867   0.768   1.144   4.747
  434SOL    HW1 1868   0.690   1.161   4.807
  434SOL    HW2 1869   0.802   1.231   4.711
  435SOL     OW 1870   0.850   0.798   5.547
  435SOL    HW1 1871   0.846   0.874   5.612
  435SOL    HW2 1872   0.872   0.834   5.456
  436SOL     OW 1873   0.685   1.012   4.389
  436SOL    HW1 1874   0.754   0.996   4.459
  436SOL    HW2 1875   0.612   1.069   4.427
  437SOL     OW 1876   0.686   1.161   5.527
  437SOL    HW1 1877   0.746   1.240   5.541
  437SOL    HW2 1878   0.600   1.192   5.486
  438SOL     OW 1879   0.335   1.435   4.785
  438SOL    HW1 1880   0.257   1.404   4.732
  438SOL    HW2 1881   0.393   1.493   4.728
  439SOL     OW 1882   1.460   1.505   5.063
  439SOL    HW1 1883   1.484   1.599   5.089
  439SOL    HW2 1884   1.444   1.451   5.145
  440SOL     OW 1885   0.438   0.392   5.223
  440SOL    HW1 1886   0.520   0.336   5.232
  440SOL    HW2 1887   0.357   0.334   5.227
  441SOL     OW 1888   1.603   0.447   4.461
  441SOL    HW1 1889   1.529   0.493   4.411
  441SOL    HW2 1890   1.654   0.515   4.514
  442SOL     OW 1891   0.231   1.713   4.207
  442SOL    HW1 1892   0.265   1.790   4.261
  442SOL    HW2 1893   0.275   1.713   4.117
  443SOL     OW 1894   1.127   1.341   5.414
  443SOL    HW1 1895   1.174   1.341   5.502
  443SOL    HW2 1896   1.079   1.254   5.403
  444SOL     OW 1897   0.230   1.434   4.262
  444SOL    HW1 1898   0.204   1.530   4.262
  444SOL    HW2 1899   0.159   1.380   4.307
  445SOL     OW 1900   0.240   1.091   4.610
  445SOL    HW1 1901   0.254   1.007   4.662
  445SOL    HW2 1902   0.185   1.155   4.665
  446SOL     OW 1903   0.620   1.786   5.163
  446SOL    HW1 1904   0.528   1.769   5.198
  446SOL    HW2 1905   0.648   1.878   5.189
  447SOL     OW 1906   0.606   0.964   3.847
  447SOL    HW1 1907   0.613   1.048   3.793
  447SOL    HW2 1908   0.652   0.977   3.935
  448SOL     OW 1909   1.594   0.114   5.204
  448SOL    HW1 1910   1.576   0.181   5.132
  448SOL    HW2 1911   1.591   0.160   5.293
  449SOL     OW 1912   0.122   0.643   4.287
  449SOL    HW1 1913   0.077   0.555   4.304
  449SOL    HW2 1914   0.121   0.697   4.371
  450SOL     OW 1915   1.842   1.767   4.083
  450SOL    HW1 1916   1.896   1.738   4.163
  450SOL    HW2 1917   1.872   1.857   4.054
  451SOL     OW 1918   0.027   1.596   3.841
  451SOL    HW1 1919   0.008   1.500   3.862
  451SOL    HW2 1920  -0.006   1.654   3.916
  452SOL     OW 1921   1.689   0.922   4.336
  452SOL    HW1 1922   1.784   0.893   4.344
  452SOL    HW2 1923   1.681   0.987   4.261
  453SOL     OW 1924   1.641   1.108   4.156
  453SOL    HW1 1925   1.727   1.110   4.104
  453SOL    HW2 1926   1.655   1.155   4.244
  454SOL     OW 1927   0.113   0.737   5.321
  454SOL    HW1 1928   0.201   0.724   5.366
  454SOL    HW2 1929   0.100   0.834   5.299
  455SOL     OW 1930   0.613   1.365   4.450
  455SOL    HW1 1931   0.564   1.278   4.459
  455SOL    HW2 1932   0.590   1.408   4.363
  456SOL     OW 1933   1.293   1.228   5.147
  456SOL    HW1 1934   1.330   1.155   5.089
  456SOL    HW2 1935   1.345   1.233   5.232
  457SOL     OW 1936   0.809   0.004   4.226
  457SOL    HW1 1937   0.849   0.095   4.217
  457SOL    HW2 1938   0.709   0.012   4.232
  458SOL     OW 1939   0.197   0.976   4.988
  458SOL    HW1 1940   0.286   0.931   4.974
  458SOL    HW2 1941   0.124   0.911   4.969
  459SOL     OW 1942   1.525   0.999   3.914
  459SOL    HW1 1943   1.462   0.923   3.927
  459SOL    HW2 1944   1.573   1.017   4.000
  460SOL     OW 1945   1.187   1.792   5.340
  460SOL    HW1 1946   1.211   1.852   5.264
  460SOL    HW2 1947   1.194   1.697   5.310
  461SOL     OW 1948   0.317   0.251   5.525
  461SOL    HW1 1949   0.388   0.322   5.531
  461SOL    HW2 1950   0.229   0.290   5.553
  462SOL     OW 1951   1.466   1.417   4.677
  462SOL    HW1 1952   1.407   1.423   4.757
  462SOL    HW2 1953   1.451   1.329   4.631
  463SOL     OW 1954   1.667   1.714   4.296
  463SOL    HW1 1955   1.626   1.691   4.208
  463SOL    HW2 1956   1.649   1.640   4.361
  464SOL     OW 1957   0.598   0.729   3.994
  464SOL    HW1 1958   0.622   0.798   3.926
  464SOL    HW2 1959   0.520   0.762   4.048
  465SOL     OW 1960   1.281   0.345   4.668
  465SOL    HW1 1961   1.195   0.295   4.655
  465SOL    HW2 1962   1.343   0.291   4.724
  466SOL     OW 1963   1.576   1.662   4.031
  466SOL    HW1 1964   1.665   1.708   4.034
  466SOL    HW2 1965   1.555   1.638   3.936
  467SOL     OW 1966   0.807   0.605   5.189
  467SOL    HW1 1967   0.760   0.602   5.278
  467SOL    HW2 1968   0.756   0.550   5.123
  468SOL     OW 1969   1.394   0.469   5.398
  468SOL    HW1 1970   1.374   0.512   5.486
  468SOL    HW2 1971   1.472   0.407   5.407
  469SOL     OW 1972   0.973   0.890   5.296
  469SOL    HW1 1973   1.019   0.806   5.267
  469SOL    HW2 1974   0.917   0.924   5.221
  470SOL     OW 1975   0.991   0.410   4.966
  470SOL    HW1 1976   0.914   0.444   5.020
  470SOL    HW2 1977   0.957   0.359   4.887
  471SOL     OW 1978   1.041   0.701   4.153
  471SOL    HW1 1979   1.067   0.697   4.249
  471SOL    HW2 1980   0.956   0.650   4.139
  472SOL     OW 1981   0.076   0.811   4.513
  472SOL    HW1 1982   0.175   0.799   4.522
  472SOL    HW2 1983   0.052   0.906   4.534
  473SOL     OW 1984   0.130   1.821   5.295
  473SOL    HW1 1985   0.120   1.806   5.394
  473SOL    HW2 1986   0.044   1.857   5.259
  474SOL     OW 1987   0.865   0.348   3.919
  474SOL    HW1 1988   0.924   0.411   3.870
  474SOL    HW2 1989   0.884   0.254   3.890
  475SOL     OW 1990   1.719   0.585   5.555
  475SOL    HW1 1991   1.693   0.674   5.519
  475SOL    HW2 1992   1.717   0.517   5.482
  476SOL     OW 1993   1.362   1.144   4.269
  476SOL    HW1 1994   1.445   1.115   4.221
  476SOL    HW2 1995   1.313   1.211   4.213
  477SOL     OW 1996   0.550   0.196   4.609
  477SOL    HW1 1997   0.545   0.191   4.709
  477SOL    HW2 1998   0.552   0.292   4.580
  478SOL     OW 1999   1.008   1.456   4.201
  478SOL    HW1 2000   0.962   1.528   4.149
  478SOL    HW2 2001   1.004   1.476   4.299
  479SOL     OW 2002   0.351   1.801   4.577
  479SOL    HW1 2003   0.401   1.715   4.583
  479SOL    HW2 2004   0.416   1.878   4.574
  480SOL     OW 2005   1.795   1.066   4.597
  480SOL    HW1 2006   1.733   1.051   4.521
  480SOL    HW2 2007   1.743   1.077   4.682
  481SOL     OW 2008   1.227   1.550   5.230
  481SOL    HW1 2009   1.233   1.473   5.294
  481SOL    HW2 2010   1.175   1.524   5.150
  482SOL     OW 2011   0.321   0.943   3.966
  482SOL    HW1 2012   0.403   0.982   3.924
  482SOL    HW2 2013   0.294   0.861   3.917
  483SOL     OW 2014   1.458   0.735   4.452
  483SOL    HW1 2015   1.453   0.670   4.527
  483SOL    HW2 2016   1.538   0.794   4.465
  484SOL     OW 2017   0.461   1.266   5.451
  484SOL    HW1 2018   0.411   1.267   5.365
  484SOL    HW2 2019   0.398   1.248   5.527
  485SOL     OW 2020   1.111   1.776   3.961
  485SOL    HW1 2021   1.051   1.714   4.011
  485SOL    HW2 2022   1.142   1.732   3.876
  486SOL     OW 2023   0.202   0.285   5.222
  486SOL    HW1 2024   0.122   0.345   5.209
  486SOL    HW2 2025   0.192   0.236   5.308
  487SOL     OW 2026   1.632   1.377   3.805
  487SOL    HW1 2027   1.600   1.471   3.795
  487SOL    HW2 2028   1.556   1.314   3.793
  488SOL     OW 2029   0.464   1.743   4.047
  488SOL    HW1 2030   0.497   1.782   4.133
  488SOL    HW2 2031   0.540   1.736   3.982
  489SOL     OW 2032   1.400   0.107   4.150
  489SOL    HW1 2033   1.376   0.070   4.060
  489SOL    HW2 2034   1.499   0.123   4.154
  490SOL     OW 2035   0.249   1.785   4.965
  490SOL    HW1 2036   0.306   1.720   5.015
  490SOL    HW2 2037   0.233   1.752   4.872
  491SOL     OW 2038   0.940   1.698   4.628
  491SOL    HW1 2039   1.020   1.641   4.649
  491SOL    HW2 2040   0.891   1.658   4.551
  492SOL     OW 2041   0.382   0.700   4.204
  492SOL    HW1 2042   0.427   0.610   4.201
  492SOL    HW2 2043   0.288   0.689   4.237
  493SOL     OW 2044   1.547   0.222   5.453
  493SOL    HW1 2045   1.542   0.259   5.545
  493SOL    HW2 2046   1.475   0.153   5.441
  494SOL     OW 2047   0.614   0.122   3.841
  494SOL    HW1 2048   0.712   0.100   3.848
  494SOL    HW2 2049   0.583   0.105   3.748
  495SOL     OW 2050   0.781   0.264   5.473
  495SOL    HW1 2051   0.848   0.203   5.516
  495SOL    HW2 2052   0.708   0.283   5.538
  496SOL     OW 2053   0.888   1.514   4.919
  496SOL    HW1 2054   0.865   1.489   4.825
  496SOL    HW2 2055   0.949   1.445   4.958
  497SOL     OW 2056   1.351   0.590   5.157
  497SOL    HW1 2057   1.379   0.547   5.242
  497SOL    HW2 2058   1.376   0.686   5.158
  498SOL     OW 2059   0.803   1.402   4.648
  498SOL    HW1 2060   0.893   1.416   4.606
  498SOL    HW2 2061   0.732   1.404   4.577
  499SOL     OW 2062   0.922   0.503   4.623
  499SOL    HW1 2063   0.897   0.494   4.527
  499SOL    HW2 2064   0.970   0.421   4.654
  500SOL     OW 2065   0.539   0.064   4.236
  500SOL    HW1 2066   0.458   0.065   4.294
  500SOL    HW2 2067   0.542   0.147   4.181
  501SOL     OW 2068   1.434   1.188   3.765
  501SOL    HW1 2069   1.466   1.112   3.822
  501SOL    HW2 2070   1.342   1.215   3.795
  502SOL     OW 2071   0.297   0.035   3.895
  502SOL    HW1 2072   0.346   0.119   3.874
  502SOL    HW2 2073   0.359  -0.030   3.940
  503SOL     OW 2074   0.935   0.236   4.204
  503SOL    HW1 2075   0.887   0.277   4.126
  503SOL    HW2 2076   1.034   0.234   4.185
  504SOL     OW 2077   1.076   0.683   5.188
  504SOL    HW1 2078   0.996   0.622   5.191
  504SOL    HW2 2079   1.157   0.630   5.164
  505SOL     OW 2080   1.227   1.570   4.517
  505SOL    HW1 2081   1.248   1.644   4.452
  505SOL    HW2 2082   1.295   1.570   4.590
  506SOL     OW 2083   0.459   1.152   4.465
  506SOL    HW1 2084   0.388   1.125   4.530
  506SOL    HW2 2085   0.433   1.124   4.372
  507SOL     OW 2086   1.271   1.797   4.315
  507SOL    HW1 2087   1.315   1.861   4.251
  507SOL    HW2 2088   1.221   1.849   4.385
  508SOL     OW 2089   1.032   0.549   3.740
  508SOL    HW1 2090   0.991   0.631   3.701
  508SOL    HW2 2091   1.096   0.575   3.813
  509SOL     OW 2092   0.078   0.556   5.110
  509SOL    HW1 2093   0.170   0.555   5.069
  509SOL    HW2 2094   0.072   0.630   5.177
  510SOL     OW 2095   0.561   0.222   4.871
  510SOL    HW1 2096   0.599   0.138   4.908
  510SOL    HW2 2097   0.473   0.241   4.915
  511SOL     OW 2098   0.866   0.454   4.366
  511SOL    HW1 2099   0.834   0.526   4.304
  511SOL    HW2 2100   0.890   0.373   4.313
  512SOL     OW 2101   1.017   0.039   4.477
  512SOL    HW1 2102   0.945   0.044   4.408
  512SOL    HW2 2103   0.993  -0.030   4.546
  513SOL     OW 2104   1.429   1.173   4.591
  513SOL    HW1 2105   1.374   1.089   4.584
  513SOL    HW2 2106   1.455   1.202   4.499
  514SOL     OW 2107   1.466   0.590   4.716
  514SOL    HW1 2108   1.436   0.495   4.723
  514SOL    HW2 2109   1.539   0.606   4.782
  515SOL     OW 2110   1.857   0.833   4.101
  515SOL    HW1 2111   1.899   0.769   4.165
  515SOL    HW2 2112   1.819   0.782   4.023
  516SOL     OW 2113   0.488   1.385   3.898
  516SOL    HW1 2114   0.401   1.370   3.945
  516SOL    HW2 2115   0.471   1.411   3.803
  517SOL     OW 2116   1.664   1.280   4.381
  517SOL    HW1 2117   1.763   1.288   4.395
  517SOL    HW2 2118   1.619   1.364   4.412
  518SOL     OW 2119   1.390   0.575   3.802
  518SOL    HW1 2120   1.336   0.554   3.883
  518SOL    HW2 2121   1.481   0.534   3.811
  519SOL     OW 2122   0.527   0.256   4.052
  519SOL    HW1 2123   0.554   0.197   3.977
  519SOL    HW2 2124   0.527   0.351   4.021
  520SOL     OW 2125   1.754   1.223   5.312
  520SOL    HW1 2126   1.845   1.184   5.299
  520SOL    HW2 2127   1.762   1.319   5.336
  521SOL     OW 2128   1.064   1.347   5.064
  521SOL    HW1 2129   0.984   1.324   5.119
  521SOL    HW2 2130   1.147   1.321   5.113
  522SOL     OW 2131   1.592   1.629   5.349
  522SOL    HW1 2132   1.619   1.663   5.259
  522SOL    HW2 2133   1.671   1.591   5.395
  523SOL     OW 2134   1.111   1.195   4.824
  523SOL    HW1 2135   1.071   1.239   4.905
  523SOL    HW2 2136   1.070   1.232   4.741
  524SOL     OW 2137   1.638   1.099   4.803
  524SOL    HW1 2138   1.643   1.180   4.862
  524SOL    HW2 2139   1.552   1.101   4.752
  525SOL     OW 2140   0.915   0.089   5.126
  525SOL    HW1 2141   0.940   0.069   5.031
  525SOL    HW2 2142   0.987   0.145   5.168
  526SOL     OW 2143   0.980   1.116   5.443
  526SOL    HW1 2144   0.881   1.122   5.453
  526SOL    HW2 2145   1.003   1.036   5.387
  527SOL     OW 2146   0.705   1.050   4.092
  527SOL    HW1 2147   0.691   1.057   4.191
  527SOL    HW2 2148   0.789   0.999   4.074
  528SOL     OW 2149   0.410   0.813   4.975
  528SOL    HW1 2150   0.496   0.825   5.025
  528SOL    HW2 2151   0.368   0.726   5.002
  529SOL     OW 2152   1.274   0.386   4.986
  529SOL    HW1 2153   1.295   0.460   5.050
  529SOL    HW2 2154   1.185   0.403   4.943
  530SOL     OW 2155   0.064   1.564   5.055
  530SOL    HW1 2156   0.018   1.646   5.021
  530SOL    HW2 2157   0.162   1.583   5.064
  531SOL     OW 2158   0.367   1.100   4.225
  531SOL    HW1 2159   0.360   1.183   4.169
  531SOL    HW2 2160   0.371   1.020   4.165
  532SOL     OW 2161   0.566   0.537   4.589
  532SOL    HW1 2162   0.578   0.603   4.515
  532SOL    HW2 2163   0.612   0.571   4.672
  533SOL     OW 2164   1.252   1.348   4.112
  533SOL    HW1 2165   1.302   1.425   4.152
  533SOL    HW2 2166   1.157   1.350   4.144
  534SOL     OW 2167   1.272   1.445   4.866
  534SOL    HW1 2168   1.319   1.458   4.953
  534SOL    HW2 2169   1.206   1.371   4.875
  535SOL     OW 2170   1.582   0.639   4.196
  535SOL    HW1 2171   1.551   0.700   4.269
  535SOL    HW2 2172   1.632   0.691   4.127
  536SOL     OW 2173   0.354   1.510   5.053
  536SOL    HW1 2174   0.333   1.466   4.966
  536SOL    HW2 2175   0.451   1.536   5.056
  537SOL     OW 2176   0.402   0.751   5.322
  537SOL    HW1 2177   0.470   0.806   5.275
  537SOL    HW2 2178   0.442   0.663   5.349
  538SOL     OW 2179   1.587   0.779   5.394
  538SOL    HW1 2180   1.495   0.817   5.389
  538SOL    HW2 2181   1.647   0.826   5.329
  539SOL     OW 2182   1.013   0.105   5.494
  539SOL    HW1 2183   1.019   0.190   5.442
  539SOL    HW2 2184   1.045   0.029   5.437
  540SOL     OW 2185   0.504   0.050   5.464
  540SOL    HW1 2186   0.462  -0.007   5.394
  540SOL    HW2 2187   0.438   0.119   5.496
  541SOL     OW 2188   0.573   0.870   4.753
  541SOL    HW1 2189   0.617   0.959   4.744
  541SOL    HW2 2190   0.510   0.870   4.830
  542SOL     OW 2191   1.360   0.862   4.769
  542SOL    HW1 2192   1.285   0.862   4.703
  542SOL    HW2 2193   1.397   0.770   4.778
  543SOL     OW 2194   1.209   0.525   3.999
  543SOL    HW1 2195   1.222   0.441   4.053
  543SOL    HW2 2196   1.180   0.599   4.059
  544SOL     OW 2197   0.307   0.213   4.955
  544SOL    HW1 2198   0.284   0.250   5.045
  544SOL    HW2 2199   0.277   0.118   4.949
  545SOL     OW 2200   0.037   1.310   5.006
  545SOL    HW1 2201   0.090   1.261   5.074
  545SOL    HW2 2202   0.059   1.408   5.011
  546SOL     OW 2203   0.732   0.634   4.788
  546SOL    HW1 2204   0.791   0.608   4.712
  546SOL    HW2 2205   0.704   0.730   4.777
  547SOL     OW 2206   1.728   0.935   5.578
  547SOL    HW1 2207   1.682   0.928   5.489
  547SOL    HW2 2208   1.666   0.979   5.644
  548SOL     OW 2209   0.307   0.063   4.342
  548SOL    HW1 2210   0.296   0.157   4.375
  548SOL    HW2 2211   0.302   0.000   4.419
  549SOL     OW 2212   1.622   0.367   4.098
  549SOL    HW1 2213   1.624   0.291   4.162
  549SOL    HW2 2214   1.574   0.444   4.138
  550SOL     OW 2215   1.023   0.766   4.690
  550SOL    HW1 2216   1.038   0.787   4.786
  550SOL    HW2 2217   0.993   0.671   4.681
  551SOL     OW 2218   0.980   1.573   5.424
  551SOL    HW1 2219   0.960   1.617   5.336
  551SOL    HW2 2220   1.019   1.482   5.408
  552SOL     OW 2221   1.859   1.518   5.329
  552SOL    HW1 2222   1.873   1.545   5.234
  552SOL    HW2 2223   1.942   1.540   5.382
  553SOL     OW 2224   0.350   0.898   5.528
  553SOL    HW1 2225   0.426   0.942   5.576
  553SOL    HW2 2226   0.385   0.851   5.446
  554SOL     OW 2227   1.540   0.274   3.849
  554SOL    HW1 2228   1.479   0.199   3.872
  554SOL    HW2 2229   1.562   0.326   3.932
  555SOL     OW 2230   1.303   0.838   3.766
  555SOL    HW1 2231   1.337   0.745   3.781
  555SOL    HW2 2232   1.321   0.865   3.671
  556SOL     OW 2233   1.068   1.333   4.573
  556SOL    HW1 2234   1.075   1.249   4.518
  556SOL    HW2 2235   1.130   1.402   4.537
  557SOL     OW 2236   0.319   0.810   4.673
  557SOL    HW1 2237   0.412   0.846   4.678
  557SOL    HW2 2238   0.313   0.725   4.725
  558SOL     OW 2239   0.339   0.509   4.730
  558SOL    HW1 2240   0.287   0.426   4.713
  558SOL    HW2 2241   0.416   0.514   4.666
  559SOL     OW 2242   1.138   0.380   5.402
  559SOL    HW1 2243   1.093   0.443   5.466
  559SOL    HW2 2244   1.231   0.411   5.385
  560SOL     OW 2245   1.160   0.207   5.201
  560SOL    HW1 2246   1.160   0.271   5.278
  560SOL    HW2 2247   1.188   0.255   5.118
  561SOL     OW 2248   0.008   1.326   3.924
  561SOL    HW1 2249  -0.085   1.347   3.893
  561SOL    HW2 2250   0.018   1.227   3.937
  562SOL     OW 2251   0.088   1.801   4.651
  562SOL    HW1 2252   0.046   1.715   4.624
  562SOL    HW2 2253   0.182   1.804   4.617
  563SOL     OW 2254   0.504   1.568   4.634
  563SOL    HW1 2255   0.570   1.642   4.643
  563SOL    HW2 2256   0.548   1.489   4.592
  564SOL     OW 2257   1.002   0.796   4.962
  564SOL    HW1 2258   1.043   0.764   5.048
  564SOL    HW2 2259   0.906   0.769   4.959
  565SOL     OW 2260   0.040   0.544   4.838
  565SOL    HW1 2261   0.125   0.511   4.797
  565SOL    HW2 2262   0.053   0.559   4.936
  566SOL     OW 2263   0.189   0.520   5.446
  566SOL    HW1 2264   0.248   0.480   5.376
  566SOL    HW2 2265   0.131   0.591   5.405
  567SOL     OW 2266   1.369   0.950   5.384
  567SOL    HW1 2267   1.408   1.039   5.404
  567SOL    HW2 2268   1.379   0.930   5.287
  568SOL     OW 2269   0.815   0.572   4.049
  568SOL    HW1 2270   0.822   0.483   4.003
  568SOL    HW2 2271   0.721   0.606   4.041
  569SOL     OW 2272   1.657   0.604   4.930
  569SOL    HW1 2273   1.619   0.535   4.992
  569SOL    HW2 2274   1.739   0.568   4.886
  570SOL     OW 2275   0.252   1.564   5.468
  570SOL    HW1 2276   0.222   1.621   5.544
  570SOL    HW2 2277   0.245   1.467   5.494
  571SOL     OW 2278   0.671   0.464   4.993
  571SOL    HW1 2279   0.637   0.375   4.963
  571SOL    HW2 2280   0.697   0.518   4.913
  572SOL     OW 2281   0.930   1.678   5.189
  572SOL    HW1 2282   0.906   1.660   5.094
  572SOL    HW2 2283   0.960   1.772   5.199
  573SOL     OW 2284   0.473   0.500   3.915
  573SOL    HW1 2285   0.534   0.580   3.919
  573SOL    HW2 2286   0.378   0.531   3.922
  574SOL     OW 2287   0.159   1.137   5.190
  574SOL    HW1 2288   0.181   1.076   5.266
  574SOL    HW2 2289   0.169   1.088   5.104
  575SOL     OW 2290   1.347   1.059   4.958
  575SOL    HW1 2291   1.371   0.996   4.884
  575SOL    HW2 2292   1.257   1.099   4.940
  576SOL     OW 2293   1.302   0.855   4.033
  576SOL    HW1 2294   1.216   0.824   4.075
  576SOL    HW2 2295   1.298   0.841   3.934
  577SOL     OW 2296   1.252   1.731   4.852
  577SOL    HW1 2297   1.336   1.736   4.798
  577SOL    HW2 2298   1.229   1.635   4.870
  578SOL     OW 2299   0.083   1.258   4.746
  578SOL    HW1 2300   0.078   1.257   4.846
  578SOL    HW2 2301   0.000   1.217   4.708
  579SOL     OW 2302   0.688   1.662   5.440
  579SOL    HW1 2303   0.632   1.743   5.449
  579SOL    HW2 2304   0.740   1.666   5.354
  580SOL     OW 2305   1.726   0.135   4.247
  580SOL    HW1 2306   1.799   0.118   4.180
  580SOL    HW2 2307   1.695   0.048   4.285
  581SOL     OW 2308   1.388   1.573   4.201
  581SOL    HW1 2309   1.455   1.585   4.127
  581SOL    HW2 2310   1.348   1.662   4.224
  582SOL     OW 2311   0.130   1.794   5.575
  582SOL    HW1 2312   0.089   1.720   5.628
  582SOL    HW2 2313   0.194   1.845   5.633
  583SOL     OW 2314   1.280   0.927   4.396
  583SOL    HW1 2315   1.340   0.846   4.398
  583SOL    HW2 2316   1.320   0.996   4.336
  584SOL     OW 2317   0.830   1.273   5.146
  584SOL    HW1 2318   0.825   1.306   5.241
  584SOL    HW2 2319   0.744   1.292   5.100
  585SOL     OW 2320   0.672   1.616   3.878
  585SOL    HW1 2321   0.681   1.626   3.779
  585SOL    HW2 2322   0.632   1.527   3.899
  586SOL     OW 2323   1.841   0.175   4.687
  586SOL    HW1 2324   1.880   0.090   4.651
  586SOL    HW2 2325   1.743   0.177   4.668
  587SOL     OW 2326   0.263   0.326   4.444
  587SOL    HW1 2327   0.184   0.377   4.410
  587SOL    HW2 2328   0.254   0.311   4.542
  588SOL     OW 2329   1.194   1.612   3.755
  588SOL    HW1 2330   1.200   1.519   3.792
  588SOL    HW2 2331   1.135   1.612   3.675
  589SOL     OW 2332   0.822   1.002   5.096
  589SOL    HW1 2333   0.862   1.001   5.004
  589SOL    HW2 2334   0.832   1.094   5.136
  590SOL     OW 2335   0.916   0.910   4.015
  590SOL    HW1 2336   0.979   0.948   3.947
  590SOL    HW2 2337   0.956   0.827   4.054
  591SOL     OW 2338   1.504   1.607   3.768
  591SOL    HW1 2339   1.412   1.644   3.775
  591SOL    HW2 2340   1.542   1.627   3.678
  592SOL     OW 2341   0.372   1.288   5.214
  592SOL    HW1 2342   0.359   1.381   5.180
  592SOL    HW2 2343   0.288   1.236   5.201
  593SOL     OW 2344   1.614   1.292   5.013
  593SOL    HW1 2345   1.674   1.295   5.093
  593SOL    HW2 2346   1.539   1.356   5.026
  594SOL     OW 2347   1.039   1.098   4.420
  594SOL    HW1 2348   0.969   1.051   4.474
  594SOL    HW2 2349   1.098   1.030   4.377
  595SOL     OW 2350   1.014   0.236   4.695
  595SOL    HW1 2351   1.006   0.200   4.602
  595SOL    HW2 2352   1.012   0.160   4.760
  596SOL     OW 2353   0.590   1.487   4.215
  596SOL    HW1 2354   0.632   1.429   4.145
  596SOL    HW2 2355   0.546   1.566   4.171
  597SOL     OW 2356   1.709   0.385   5.105
  597SOL    HW1 2357   1.782   0.454   5.109
  597SOL    HW2 2358   1.737   0.310   5.046
  598SOL     OW 2359   0.255   1.348   4.014
  598SOL    HW1 2360   0.159   1.349   3.987
  598SOL    HW2 2361   0.267   1.401   4.098
  599SOL     OW 2362   0.105   1.013   5.450
  599SOL    HW1 2363   0.028   0.980   5.504
  599SOL    HW2 2364   0.190   0.983   5.492
  600SOL     OW 2365   0.672   0.203   5.213
  600SOL    HW1 2366   0.762   0.187   5.173
  600SOL    HW2 2367   0.680   0.208   5.312
  601SOL     OW 2368   0.075   0.345   3.757
  601SOL    HW1 2369  -0.017   0.317   3.728
  601SOL    HW2 2370   0.106   0.422   3.701
  602SOL     OW 2371   1.440   0.856   5.122
  602SOL    HW1 2372   1.383   0.908   5.059
  602SOL    HW2 2373   1.536   0.868   5.098
  603SOL     OW 2374   0.072   0.166   4.042
  603SOL    HW1 2375   0.055   0.249   3.988
  603SOL    HW2 2376   0.162   0.129   4.020
  604SOL     OW 2377   1.183   1.335   3.843
  604SOL    HW1 2378   1.084   1.324   3.845
  604SOL    HW2 2379   1.217   1.350   3.936
  605SOL     OW 2380   0.613   0.842   5.155
  605SOL    HW1 2381   0.669   0.923   5.138
  605SOL    HW2 2382   0.672   0.762   5.158
  606SOL     OW 2383   1.493   1.767   4.683
  606SOL    HW1 2384   1.526   1.831   4.614
  606SOL    HW2 2385   1.559   1.761   4.758
  607SOL     OW 2386   0.716   0.565   5.432
  607SOL    HW1 2387   0.735   0.630   5.506
  607SOL    HW2 2388   0.776   0.485   5.441
  608SOL     OW 2389   1.450   1.220   5.357
  608SOL    HW1 2390   1.441   1.210   5.456
  608SOL    HW2 2391   1.546   1.213   5.331
  609SOL     OW 2392   0.390   1.741   5.284
  609SOL    HW1 2393   0.299   1.782   5.282
  609SOL    HW2 2394   0.383   1.647   5.316
  610SOL     OW 2395   1.674   0.883   4.978
  610SOL    HW1 2396   1.647   0.794   4.941
  610SOL    HW2 2397   1.675   0.951   4.905
  611SOL     OW 2398   1.225   0.325   4.173
  611SOL    HW1 2399   1.290   0.251   4.162
  611SOL    HW2 2400   1.245   0.375   4.257
  612SOL     OW 2401   0.594   0.745   4.376
  612SOL    HW1 2402   0.644   0.830   4.357
  612SOL    HW2 2403   0.506   0.747   4.328
  613SOL     OW 2404   1.777   0.342   5.366
  613SOL    HW1 2405   1.760   0.373   5.272
  613SOL    HW2 2406   1.693   0.305   5.404
  614SOL     OW 2407   1.730   0.934   5.241
  614SOL    HW1 2408   1.768   1.025   5.256
  614SOL    HW2 2409   1.722   0.917   5.142
  615SOL     OW 2410   0.859   1.374   3.740
  615SOL    HW1 2411   0.813   1.389   3.828
  615SOL    HW2 2412   0.903   1.459   3.710
  616SOL     OW 2413   0.661   1.790   4.677
  616SOL    HW1 2414   0.615   1.878   4.664
  616SOL    HW2 2415   0.760   1.802   4.670
  617SOL     OW 2416   0.859   0.956   4.585
  617SOL    HW1 2417   0.913   0.887   4.633
  617SOL    HW2 2418   0.827   1.025   4.651
  618SOL     OW 2419   1.083   0.984   3.811
  618SOL    HW1 2420   1.060   1.037   3.729
  618SOL    HW2 2421   1.164   0.928   3.792
  619SOL     OW 2422   0.221   1.314   5.568
  619SOL    HW1 2423   0.156   1.241   5.547
  619SOL    HW2 2424   0.225   1.328   5.666
  620SOL     OW 2425   0.079   1.240   4.377
  620SOL    HW1 2426   0.078   1.193   4.465
  620SOL    HW2 2427   0.161   1.212   4.326
  621SOL     OW 2428   0.672   1.391   5.348
  621SOL    HW1 2429   0.594   1.341   5.386
  621SOL    HW2 2430   0.669   1.486   5.379
  622SOL     OW 2431   1.824   0.192   4.951
  622SOL    HW1 2432   1.820   0.102   4.995
  622SOL    HW2 2433   1.827   0.181   4.852
  623SOL     OW 2434   0.428   0.424   4.244
  623SOL    HW1 2435   0.458   0.352   4.182
  623SOL    HW2 2436   0.389   0.384   4.327
  624SOL     OW 2437   1.705   1.487   4.828
  624SOL    HW1 2438   1.612   1.462   4.801
  624SOL    HW2 2439   1.731   1.437   4.910
  625SOL     OW 2440   0.317   0.547   5.004
  625SOL    HW1 2441   0.355   0.488   5.076
  625SOL    HW2 2442   0.357   0.521   4.916
  626SOL     OW 2443   0.812   1.586   4.411
  626SOL    HW1 2444   0.844   1.596   4.317
  626SOL    HW2 2445   0.733   1.524   4.413
  627SOL     OW 2446   1.424   0.214   4.836
  627SOL    HW1 2447   1.476   0.149   4.891
  627SOL    HW2 2448   1.375   0.277   4.897
  628SOL     OW 2449   1.001   0.034   4.878
  628SOL    HW1 2450   0.938  -0.038   4.847
  628SOL    HW2 2451   1.094  -0.002   4.878
  629SOL     OW 2452   0.770   1.330   4.025
  629SOL    HW1 2453   0.724   1.243   4.042
  629SOL    HW2 2454   0.861   1.327   4.066
  630SOL     OW 2455   0.618   1.567   5.008
  630SOL    HW1 2456   0.613   1.649   5.065
  630SOL    HW2 2457   0.707   1.564   4.963
  631SOL     OW 2458   1.352   0.052   3.892
  631SOL    HW1 2459   1.387   0.011   3.808
  631SOL    HW2 2460   1.262   0.014   3.912
  632SOL     OW 2461   1.300   0.453   4.415
  632SOL    HW1 2462   1.241   0.533   4.419
  632SOL    HW2 2463   1.315   0.418   4.508
  633SOL     OW 2464   1.593   0.221   4.606
  633SOL    HW1 2465   1.509   0.220   4.660
  633SOL    HW2 2466   1.595   0.304   4.550
  634SOL     OW 2467   0.039   1.077   4.024
  634SOL    HW1 2468   0.138   1.066   4.015
  634SOL    HW2 2469  -0.001   0.991   4.056
  635SOL     OW 2470   0.875   1.646   4.061
  635SOL    HW1 2471   0.798   1.611   4.007
  635SOL    HW2 2472   0.843   1.717   4.123
  636SOL     OW 2473   0.230   0.628   5.699
  636SOL    HW1 2474   0.137   0.626   5.736
  636SOL    HW2 2475   0.231   0.589   5.607
  637SOL     OW 2476   0.225   0.275   6.582
  637SOL    HW1 2477   0.260   0.258   6.674
  637SOL    HW2 2478   0.137   0.230   6.570
  638SOL     OW 2479   0.019   0.368   6.233
  638SOL    HW1 2480  -0.063   0.411   6.272
  638SOL    HW2 2481  -0.009   0.295   6.170
  639SOL     OW 2482   0.569   1.275   6.751
  639SOL    HW1 2483   0.476   1.268   6.714
  639SOL    HW2 2484   0.580   1.364   6.795
  640SOL     OW 2485   1.555   1.511   6.289
  640SOL    HW1 2486   1.498   1.495   6.370
  640SOL    HW2 2487   1.496   1.521   6.209
  641SOL     OW 2488   1.135   0.703   6.303
  641SOL    HW1 2489   1.192   0.781   6.278
  641SOL    HW2 2490   1.075   0.729   6.379
  642SOL     OW 2491   1.755   0.607   5.817
  642SOL    HW1 2492   1.743   0.594   5.718
  642SOL    HW2 2493   1.725   0.526   5.866
  643SOL     OW 2494   0.768   1.144   6.609
  643SOL    HW1 2495   0.690   1.161   6.669
  643SOL    HW2 2496   0.802   1.231   6.573
  644SOL     OW 2497   0.850   0.798   7.409
  644SOL    HW1 2498   0.846   0.874   7.474
  644SOL    HW2 2499   0.872   0.834   7.318
  645SOL     OW 2500   0.685   1.012   6.251
  645SOL    HW1 2501   0.754   0.996   6.321
  645SOL    HW2 2502   0.612   1.069   6.289
  646SOL     OW 2503   0.686   1.161   7.389
  646SOL    HW1 2504   0.746   1.240   7.403
  646SOL    HW2 2505   0.600   1.192   7.348
  647SOL     OW 2506   0.335   1.435   6.647
  647SOL    HW1 2507   0.257   1.404   6.594
  647SOL    HW2 2508   0.393   1.493   6.590
  648SOL     OW 2509   1.460   1.505   6.925
  648SOL    HW1 2510   1.484   1.599   6.951
  648SOL    HW2 2511   1.444   1.451   7.007
  649SOL     OW 2512   0.438   0.392   7.085
  649SOL    HW1 2513   0.520   0.336   7.094
  649SOL    HW2 2514   0.357   0.334   7.089
  650SOL     OW 2515   1.603   0.447   6.323
  650SOL    HW1 2516   1.529   0.493   6.273
  650SOL    HW2 2517   1.654   0.515   6.376
  651SOL     OW 2518   0.231   1.713   6.069
  651SOL    HW1 2519   0.265   1.790   6.123
  651SOL    HW2 2520   0.275   1.713   5.979
  652SOL     OW 2521   1.127   1.341   7.276
  652SOL    HW1 2522   1.174   1.341   7.364
  652SOL    HW2 2523   1.079   1.254   7.265
  653SOL     OW 2524   0.230   1.434   6.124
  653SOL    HW1 2525   0.204   1.530   6.124
  653SOL    HW2 2526   0.159   1.380   6.169
  654SOL     OW 2527   0.240   1.091   6.472
  654SOL    HW1 2528   0.254   1.007   6.524
  654SOL    HW2 2529   0.185   1.155   6.527
  655SOL     OW 2530   0.620   1.786   7.025
  655SOL    HW1 2531   0.528   1.769   7.060
  655SOL    HW2 2532   0.648   1.878   7.051
  656SOL     OW 2533   0.606   0.964   5.709
  656SOL    HW1 2534   0.613   1.048   5.655
  656SOL    HW2 2535   0.652   0.977   5.797
  657SOL     OW 2536   1.594   0.114   7.066
  657SOL    HW1 2537   1.576   0.181   6.994
  657SOL    HW2 2538   1.591   0.160   7.155
  658SOL     OW 2539   0.122   0.643   6.149
  658SOL    HW1 2540   0.077   0.555   6.166
  658SOL    HW2 2541   0.121   0.697   6.233
  659SOL     OW 2542   0.027   1.596   5.703
  659SOL    HW1 2543   0.008   1.500   5.724
  659SOL    HW2 2544  -0.006   1.654   5.778
  660SOL     OW 2545   1.689   0.922   6.198
  660SOL    HW1 2546   1.784   0.893   6.206
  660SOL    HW2 2547   1.681   0.987   6.123
  661SOL     OW 2548   1.641   1.108   6.018
  661SOL    HW1 2549   1.727   1.110   5.966
  661SOL    HW2 2550   1.655   1.155   6.106
  662SOL     OW 2551   0.113   0.737   7.183
  662SOL    HW1 2552   0.201   0.724   7.228
  662SOL    HW2 2553   0.100   0.834   7.161
  663SOL     OW 2554   0.613   1.365   6.312
  663SOL    HW1 2555   0.564   1.278   6.321
  663SOL    HW2 2556   0.590   1.408   6.225
  664SOL     OW 2557   1.293   1.228   7.009
  664SOL    HW1 2558   1.330   1.155   6.951
  664SOL    HW2 2559   1.345   1.233   7.094
  665SOL     OW 2560   0.809   0.004   6.088
  665SOL    HW1 2561   0.849   0.095   6.079
  665SOL    HW2 2562   0.709   0.012   6.094
  666SOL     OW 2563   0.197   0.976   6.850
  666SOL    HW1 2564   0.286   0.931   6.836
  666SOL    HW2 2565   0.124   0.911   6.831
  667SOL     OW 2566   1.525   0.999   5.776
  667SOL    HW1 2567   1.462   0.923   5.789
  667SOL    HW2 2568   1.573   1.017   5.862
  668SOL     OW 2569   1.187   1.792   7.202
  668SOL    HW1 2570   1.211   1.852   7.126
  668SOL    HW2 2571   1.194   1.697   7.172
  669SOL     OW 2572   0.317   0.251   7.387
  669SOL    HW1 2573   0.388   0.322   7.393
  669SOL    HW2 2574   0.229   0.290   7.415
  670SOL     OW 2575   1.466   1.417   6.539
  670SOL    HW1 2576   1.407   1.423   6.619
  670SOL    HW2 2577   1.451   1.329   6.493
  671SOL     OW 2578   1.667   1.714   6.158
  671SOL    HW1 2579   1.626   1.691   6.070
  671SOL    HW2 2580   1.649   1.640   6.223
  672SOL     OW 2581   0.598   0.729   5.856
  672SOL    HW1 2582   0.622   0.798   5.788
  672SOL    HW2 2583   0.520   0.762   5.910
  673SOL     OW 2584   1.281   0.345   6.530
  673SOL    HW1 2585   1.195   0.295   6.517
  673SOL    HW2 2586   1.343   0.291   6.586
  674SOL     OW 2587   1.576   1.662   5.893
  674SOL    HW1 2588   1.665   1.708   5.896
  674SOL    HW2 2589   1.555   1.638   5.798
  675SOL     OW 2590   0.807   0.605   7.051
  675SOL    HW1 2591   0.760   0.602   7.140
  675SOL    HW2 2592   0.756   0.550   6.985
  676SOL     OW 2593   1.394   0.469   7.260
  676SOL    HW1 2594   1.374   0.512   7.348
  676SOL    HW2 2595   1.472   0.407   7.269
  677SOL     OW 2596   0.973   0.890   7.158
  677SOL    HW1 2597   1.019   0.806   7.129
  677SOL    HW2 2598   0.917   0.924   7.083
  678SOL     OW 2599   0.991   0.410   6.828
  678SOL    HW1 2600   0.914   0.444   6.882
  678SOL    HW2 2601   0.957   0.359   6.749
  679SOL     OW 2602   1.041   0.701   6.015
  679SOL    HW1 2603   1.067   0.697   6.111
  679SOL    HW2 2604   0.956   0.650   6.001
  680SOL     OW 2605   0.076   0.811   6.375
  680SOL    HW1 2606   0.175   0.799   6.384
  680SOL    HW2 2607   0.052   0.906   6.396
  681SOL     OW 2608   0.130   1.821   7.157
  681SOL    HW1 2609   0.120   1.806   7.256
  681SOL    HW2 2610   0.044   1.857   7.121
  682SOL     OW 2611   0.865   0.348   5.781
  682SOL    HW1 2612   0.924   0.411   5.732
  682SOL    HW2 2613   0.884   0.254   5.752
  683SOL     OW 2614   1.719   0.585   7.417
  683SOL    HW1 2615   1.693   0.674   7.381
  683SOL    HW2 2616   1.717   0.517   7.344
  684SOL     OW 2617   1.362   1.144   6.131
  684SOL    HW1 2618   1.445   1.115   6.083
  684SOL    HW2 2619   1.313   1.211   6.075
  685SOL     OW 2620   0.550   0.196   6.471
  685SOL    HW1 2621   0.545   0.191   6.571
  685SOL    HW2 2622   0.552   0.292   6.442
  686SOL     OW 2623   1.008   1.456   6.063
  686SOL    HW1 2624   0.962   1.528   6.011
  686SOL    HW2 2625   1.004   1.476   6.161
  687SOL     OW 2626   0.351   1.801   6.439
  687SOL    HW1 2627   0.401   1.715   6.445
  687SOL    HW2 2628   0.416   1.878   6.436
  688SOL     OW 2629   1.795   1.066   6.459
  688SOL    HW1 2630   1.733   1.051   6.383
  688SOL    HW2 2631   1.743   1.077   6.544
  689SOL     OW 2632   1.227   1.550   7.092
  689SOL    HW1 2633   1.233   1.473   7.156
  689SOL    HW2 2634   1.175   1.524   7.012
  690SOL     OW 2635   0.321   0.943   5.828
  690SOL    HW1 2636   0.403   0.982   5.786
  690SOL    HW2 2637   0.294   0.861   5.779
  691SOL     OW 2638   1.458   0.735   6.314
  691SOL    HW1 2639   1.453   0.670   6.389
  691SOL    HW2 2640   1.538   0.794   6.327
  692SOL     OW 2641   0.461   1.266   7.313
  692SOL    HW1 2642   0.411   1.267   7.227
  692SOL    HW2 2643   0.398   1.248   7.389
  693SOL     OW 2644   1.111   1.776   5.823
  693SOL    HW1 2645   1.051   1.714   5.873
  693SOL    HW2 2646   1.142   1.732   5.738
  694SOL     OW 2647   0.202   0.285   7.084
  694SOL    HW1 2648   0.122   0.345   7.071
  694SOL    HW2 2649   0.192   0.236   7.170
  695SOL     OW 2650   1.632   1.377   5.667
  695SOL    HW1 2651   1.600   1.471   5.657
  695SOL    HW2 2652   1.556   1.314   5.655
  696SOL     OW 2653   0.464   1.743   5.909
  696SOL    HW1 2654   0.497   1.782   5.995
  696SOL    HW2 2655   0.540   1.736   5.844
  697SOL     OW 2656   1.400   0.107   6.012
  697SOL    HW1 2657   1.376   0.070   5.922
  697SOL    HW2 2658   1.499   0.123   6.016
  698SOL     OW 2659   0.249   1.785   6.827
  698SOL    HW1 2660   0.306   1.720   6.877
  698SOL    HW2 2661   0.233   1.752   6.734
  699SOL     OW 2662   0.940   1.698   6.490
  699SOL    HW1 2663   1.020   1.641   6.511
  699SOL    HW2 2664   0.891   1.658   6.413
  700SOL     OW 2665   0.382   0.700   6.066
  700SOL    HW1 2666   0.427   0.610   6.063
  700SOL    HW2 2667   0.288   0.689   6.099
  701SOL     OW 2668   1.547   0.222   7.315
  701SOL    HW1 2669   1.542   0.259   7.407
  701SOL    HW2 2670   1.475   0.153   7.303
  702SOL     OW 2671   0.614   0.122   5.703
  702SOL    HW1 2672   0.712   0.100   5.710
  702SOL    HW2 2673   0.583   0.105   5.610
  703SOL     OW 2674   0.781   0.264   7.335
  703SOL    HW1 2675   0.848   0.203   7.378
  703SOL    HW2 2676   0.708   0.283   7.400
  704SOL     OW 2677   0.888   1.514   6.781
  704SOL    HW1 2678   0.865   1.489   6.687
  704SOL    HW2 2679   0.949   1.445   6.820
  705SOL     OW 2680   1.351   0.590   7.019
  705SOL    HW1 2681   1.379   0.547   7.104
  705SOL    HW2 2682   1.376   0.686   7.020
  706SOL     OW 2683   0.803   1.402   6.510
  706SOL    HW1 2684   0.893   1.416   6.468
  706SOL    HW2 2685   0.732   1.404   6.439
  707SOL     OW 2686   0.922   0.503   6.485
  707SOL    HW1 2687   0.897   0.494   6.389
  707SOL    HW2 2688   0.970   0.421   6.516
  708SOL     OW 2689   0.539   0.064   6.098
  708SOL    HW1 2690   0.458   0.065   6.156
  708SOL    HW2 2691   0.542   0.147   6.043
  709SOL     OW 2692   1.434   1.188   5.627
  709SOL    HW1 2693   1.466   1.112   5.684
  709SOL    HW2 2694   1.342   1.215   5.657
  710SOL     OW 2695   0.297   0.035   5.757
  710SOL    HW1 2696   0.346   0.119   5.736
  710SOL    HW2 2697   0.359  -0.030   5.802
  711SOL     OW 2698   0.935   0.236   6.066
  711SOL    HW1 2699   0.887   0.277   5.988
  711SOL    HW2 2700   1.034   0.234   6.047
  712SOL     OW 2701   1.076   0.683   7.050
  712SOL    HW1 2702   0.996   0.622   7.053
  712SOL    HW2 2703   1.157   0.630   7.026
  713SOL     OW 2704   1.227   1.570   6.379
  713SOL    HW1 2705   1.248   1.644   6.314
  713SOL    HW2 2706   1.295   1.570   6.452
  714SOL     OW 2707   0.459   1.152   6.327
  714SOL    HW1 2708   0.388   1.125   6.392
  714SOL    HW2 2709   0.433   1.124   6.234
  715SOL     OW 2710   1.271   1.797   6.177
  715SOL    HW1 2711   1.315   1.861   6.113
  715SOL    HW2 2712   1.221   1.849   6.247
  716SOL     OW 2713   1.032   0.549   5.602
  716SOL    HW1 2714   0.991   0.631   5.563
  716SOL    HW2 2715   1.096   0.575   5.675
  717SOL     OW 2716   0.078   0.556   6.972
  717SOL    HW1 2717   0.170   0.555   6.931
  717SOL    HW2 2718   0.072   0.630   7.039
  718SOL     OW 2719   0.561   0.222   6.733
  718SOL    HW1 2720   0.599   0.138   6.770
  718SOL    HW2 2721   0.473   0.241   6.777
  719SOL     OW 2722   0.866   0.454   6.228
  719SOL    HW1 2723   0.834   0.526   6.166
  719SOL    HW2 2724   0.890   0.373   6.175
  720SOL     OW 2725   1.017   0.039   6.339
  720SOL    HW1 2726   0.945   0.044   6.270
  720SOL    HW2 2727   0.993  -0.030   6.408
  721SOL     OW 2728   1.429   1.173   6.453
  721SOL    HW1 2729   1.374   1.089   6.446
  721SOL    HW2 2730   1.455   1.202   6.361
  722SOL     OW 2731   1.466   0.590   6.578
  722SOL    HW1 2732   1.436   0.495   6.585
  722SOL    HW2 2733   1.539   0.606   6.644
  723SOL     OW 2734   1.857   0.833   5.963
  723SOL    HW1 2735   1.899   0.769   6.027
  723SOL    HW2 2736   1.819   0.782   5.885
  724SOL     OW 2737   0.488   1.385   5.760
  724SOL    HW1 2738   0.401   1.370   5.807
  724SOL    HW2 2739   0.471   1.411   5.665
  725SOL     OW 2740   1.664   1.280   6.243
  725SOL    HW1 2741   1.763   1.288   6.257
  725SOL    HW2 2742   1.619   1.364   6.274
  726SOL     OW 2743   1.390   0.575   5.664
  726SOL    HW1 2744   1.336   0.554   5.745
  726SOL    HW2 2745   1.481   0.534   5.673
  727SOL     OW 2746   0.527   0.256   5.914
  727SOL    HW1 2747   0.554   0.197   5.839
  727SOL    HW2 2748   0.527   0.351   5.883
  728SOL     OW 2749   1.754   1.223   7.174
  728SOL    HW1 2750   1.845   1.184   7.161
  728SOL    HW2 2751   1.762   1.319   7.198
  729SOL     OW 2752   1.064   1.347   6.926
  729SOL    HW1 2753   0.984   1.324   6.981
  729SOL    HW2 2754   1.147   1.321   6.975
  730SOL     OW 2755   1.592   1.629   7.211
  730SOL    HW1 2756   1.619   1.663   7.121
  730SOL    HW2 2757   1.671   1.591   7.257
  731SOL     OW 2758   1.111   1.195   6.686
  731SOL    HW1 2759   1.071   1.239   6.767
  731SOL    HW2 2760   1.070   1.232   6.603
  732SOL     OW 2761   1.638   1.099   6.665
  732SOL    HW1 2762   1.643   1.180   6.724
  732SOL    HW2 2763   1.552   1.101   6.614
  733SOL     OW 2764   0.915   0.089   6.988
  733SOL    HW1 2765   0.940   0.069   6.893
  733SOL    HW2 2766   0.987   0.145   7.030
  734SOL     OW 2767   0.980   1.116   7.305
  734SOL    HW1 2768   0.881   1.122   7.315
  734SOL    HW2 2769   1.003   1.036   7.249
  735SOL     OW 2770   0.705   1.050   5.954
  735SOL    HW1 2771   0.691   1.057   6.053
  735SOL    HW2 2772   0.789   0.999   5.936
  736SOL     OW 2773   0.410   0.813   6.837
  736SOL    HW1 2774   0.496   0.825   6.887
  736SOL    HW2 2775   0.368   0.726   6.864
  737SOL     OW 2776   1.274   0.386   6.848
  737SOL    HW1 2777   1.295   0.460   6.912
  737SOL    HW2 2778   1.185   0.403   6.805
  738SOL     OW 2779   0.064   1.564   6.917
  738SOL    HW1 2780   0.018   1.646   6.883
  738SOL    HW2 2781   0.162   1.583   6.926
  739SOL     OW 2782   0.367   1.100   6.087
  739SOL    HW1 2783   0.360   1.183   6.031
  739SOL    HW2 2784   0.371   1.020   6.027
  740SOL     OW 2785   0.566   0.537   6.451
  740SOL    HW1 2786   0.578   0.603   6.377
  740SOL    HW2 2787   0.612   0.571   6.534
  741SOL     OW 2788   1.252   1.348   5.974
  741SOL    HW1 2789   1.302   1.425   6.014
  741SOL    HW2 2790   1.157   1.350   6.006
  742SOL     OW 2791   1.272   1.445   6.728
  742SOL    HW1 2792   1.319   1.458   6.815
  742SOL    HW2 2793   1.206   1.371   6.737
  743SOL     OW 2794   1.582   0.639   6.058
  743SOL    HW1 2795   1.551   0.700   6.131
  743SOL    HW2 2796   1.632   0.691   5.989
  744SOL     OW 2797   0.354   1.510   6.915
  744SOL    HW1 2798   0.333   1.466   6.828
  744SOL    HW2 2799   0.451   1.536   6.918
  745SOL     OW 2800   0.402   0.751   7.184
  745SOL    HW1 2801   0.470   0.806   7.137
  745SOL    HW2 2802   0.442   0.663   7.211
  746SOL     OW 2803   1.587   0.779   7.256
  746SOL    HW1 2804   1.495   0.817   7.251
  746SOL    HW2 2805   1.647   0.826   7.191
  747SOL     OW 2806   1.013   0.105   7.356
  747SOL    HW1 2807   1.019   0.190   7.304
  747SOL    HW2 2808   1.045   0.029   7.299
  748SOL     OW 2809   0.504   0.050   7.326
  748SOL    HW1 2810   0.462  -0.007   7.256
  748SOL    HW2 2811   0.438   0.119   7.358
  749SOL     OW 2812   0.573   0.870   6.615
  749SOL    HW1 2813   0.617   0.959   6.606
  749SOL    HW2 2814   0.510   0.870   6.692
  750SOL     OW 2815   1.360   0.862   6.631
  750SOL    HW1 2816   1.285   0.862   6.565
  750SOL    HW2 2817   1.397   0.770   6.640
  751SOL     OW 2818   1.209   0.525   5.861
  751SOL    HW1 2819   1.222   0.441   5.915
  751SOL    HW2 2820   1.180   0.599   5.921
  752SOL     OW 2821   0.307   0.213   6.817
  752SOL    HW1 2822   0.284   0.250   6.907
  752SOL    HW2 2823   0.277   0.118   6.811
  753SOL     OW 2824   0.037   1.310   6.868
  753SOL    HW1 2825   0.090   1.261   6.936
  753SOL    HW2 2826   0.059   1.408   6.873
  754SOL     OW 2827   0.732   0.634   6.650
  754SOL    HW1 2828   0.791   0.608   6.574
  754SOL    HW2 2829   0.704   0.730   6.639
  755SOL     OW 2830   1.728   0.935   7.440
  755SOL    HW1 2831   1.682   0.928   7.351
  755SOL    HW2 2832   1.666   0.979   7.506
  756SOL     OW 2833   0.307   0.063   6.204
  756SOL    HW1 2834   0.296   0.157   6.237
  756SOL    HW2 2835   0.302   0.000   6.281
  757SOL     OW 2836   1.622   0.367   5.960
  757SOL    HW1 2837   1.624   0.291   6.024
  757SOL    HW2 2838   1.574   0.444   6.000
  758SOL     OW 2839   1.023   0.766   6.552
  758SOL    HW1 2840   1.038   0.787   6.648
  758SOL    HW2 2841   0.993   0.671   6.543
  759SOL     OW 2842   0.980   1.573   7.286
  759SOL    HW1 2843   0.960   1.617   7.198
  759SOL    HW2 2844   1.019   1.482   7.270
  760SOL     OW 2845   1.859   1.518   7.191
  760SOL    HW1 2846   1.873   1.545   7.096
  760SOL    HW2 2847   1.942   1.540   7.244
  761SOL     OW 2848   0.350   0.898   7.390
  761SOL    HW1 2849   0.426   0.942   7.438
  761SOL    HW2 2850   0.385   0.851   7.308
  762SOL     OW 2851   1.540   0.274   5.711
  762SOL    HW1 2852   1.479   0.199   5.734
  762SOL    HW2 2853   1.562   0.326   5.794
  763SOL     OW 2854   1.303   0.838   5.628
  763SOL    HW1 2855   1.337   0.745   5.643
  763SOL    HW2 2856   1.321   0.865   5.533
  764SOL     OW 2857   1.068   1.333   6.435
  764SOL    HW1 2858   1.075   1.249   6.380
  764SOL    HW2 2859   1.130   1.402   6.399
  765SOL     OW 2860   0.319   0.810   6.535
  765SOL    HW1 2861   0.412   0.846   6.540
  765SOL    HW2 2862   0.313   0.725   6.587
  766SOL     OW 2863   0.339   0.509   6.592
  766SOL    HW1 2864   0.287   0.426   6.575
  766SOL    HW2 2865   0.416   0.514   6.528
  767SOL     OW 2866   1.138   0.380   7.264
  767SOL    HW1 2867   1.093   0.443   7.328
  767SOL    HW2 2868   1.231   0.411   7.247
  768SOL     OW 2869   1.160   0.207   7.063
  768SOL    HW1 2870   1.160   0.271   7.140
  768SOL    HW2 2871   1.188   0.255   6.980
  769SOL     OW 2872   0.008   1.326   5.786
  769SOL    HW1 2873  -0.085   1.347   5.755
  769SOL    HW2 2874   0.018   1.227   5.799
  770SOL     OW 2875   0.088   1.801   6.513
  770SOL    HW1 2876   0.046   1.715   6.486
  770SOL    HW2 2877   0.182   1.804   6.479
  771SOL     OW 2878   0.504   1.568   6.496
  771SOL    HW1 2879   0.570   1.642   6.505
  771SOL    HW2 2880   0.548   1.489   6.454
  772SOL     OW 2881   1.002   0.796   6.824
  772SOL    HW1 2882   1.043   0.764   6.910
  772SOL    HW2 2883   0.906   0.769   6.821
  773SOL     OW 2884   0.040   0.544   6.700
  773SOL    HW1 2885   0.125   0.511   6.659
  773SOL    HW2 2886   0.053   0.559   6.798
  774SOL     OW 2887   0.189   0.520   7.308
  774SOL    HW1 2888   0.248   0.480   7.238
  774SOL    HW2 2889   0.131   0.591   7.267
  775SOL     OW 2890   1.369   0.950   7.246
  775SOL    HW1 2891   1.408   1.039   7.266
  775SOL    HW2 2892   1.379   0.930   7.149
  776SOL     OW 2893   0.815   0.572   5.911
  776SOL    HW1 2894   0.822   0.483   5.865
  776SOL    HW2 2895   0.721   0.606   5.903
  777SOL     OW 2896   1.657   0.604   6.792
  777SOL    HW1 2897   1.619   0.535   6.854
  777SOL    HW2 2898   1.739   0.568   6.748
  778SOL     OW 2899   0.252   1.564   7.330
  778SOL    HW1 2900   0.222   1.621   7.406
  778SOL    HW2 2901   0.245   1.467   7.356
  779SOL     OW 2902   0.671   0.464   6.855
  779SOL    HW1 2903   0.637   0.375   6.825
  779SOL    HW2 2904   0.697   0.518   6.775
  780SOL     OW 2905   0.930   1.678   7.051
  780SOL    HW1 2906   0.906   1.660   6.956
  780SOL    HW2 2907   0.960   1.772   7.061
  781SOL     OW 2908   0.473   0.500   5.777
  781SOL    HW1 2909   0.534   0.580   5.781
  781SOL    HW2 2910   0.378   0.531   5.784
  782SOL     OW 2911   0.159   1.137   7.052
  782SOL    HW1 2912   0.181   1.076   7.128
  782SOL    HW2 2913   0.169   1.088   6.966
  783SOL     OW 2914   1.347   1.059   6.820
  783SOL    HW1 2915   1.371   0.996   6.746
  783SOL    HW2 2916   1.257   1.099   6.802
  784SOL     OW 2917   1.302   0.855   5.895
  784SOL    HW1 2918   1.216   0.824   5.937
  784SOL    HW2 2919   1.298   0.841   5.796
  785SOL     OW 2920   1.759   1.747   6.740
  785SOL    HW1 2921   1.820   1.777   6.667
  785SOL    HW2 2922   1.721   1.658   6.718
  786SOL     OW 2923   1.252   1.731   6.714
  786SOL    HW1 2924   1.336   1.736   6.660
  786SOL    HW2 2925   1.229   1.635   6.732
  787SOL     OW 2926   0.083   1.258   6.608
  787SOL    HW1 2927   0.078   1.257   6.708
  787SOL    HW2 2928   0.000   1.217   6.570
  788SOL     OW 2929   0.688   1.662   7.302
  788SOL    HW1 2930   0.632   1.743   7.311
  788SOL    HW2 2931   0.740   1.666   7.216
  789SOL     OW 2932   1.726   0.135   6.109
  789SOL    HW1 2933   1.799   0.118   6.042
  789SOL    HW2 2934   1.695   0.048   6.147
  790SOL     OW 2935   1.388   1.573   6.063
  790SOL    HW1 2936   1.455   1.585   5.989
  790SOL    HW2 2937   1.348   1.662   6.086
  791SOL     OW 2938   0.130   1.794   7.437
  791SOL    HW1 2939   0.089   1.720   7.490
  791SOL    HW2 2940   0.194   1.845   7.495
  792SOL     OW 2941   1.280   0.927   6.258
  792SOL    HW1 2942   1.340   0.846   6.260
  792SOL    HW2 2943   1.320   0.996   6.198
  793SOL     OW 2944   0.830   1.273   7.008
  793SOL    HW1 2945   0.825   1.306   7.103
  793SOL    HW2 2946   0.744   1.292   6.962
  794SOL     OW 2947   0.672   1.616   5.740
  794SOL    HW1 2948   0.681   1.626   5.641
  794SOL    HW2 2949   0.632   1.527   5.761
  795SOL     OW 2950   1.650   1.720   6.980
  795SOL    HW1 2951   1.703   1.730   6.896
  795SOL    HW2 2952   1.623   1.810   7.014
  796SOL     OW 2953   1.841   0.175   6.549
  796SOL    HW1 2954   1.880   0.090   6.513
  796SOL    HW2 2955   1.743   0.177   6.530
  797SOL     OW 2956   0.263   0.326   6.306
  797SOL    HW1 2957   0.184   0.377   6.272
  797SOL    HW2 2958   0.254   0.311   6.404
  798SOL     OW 2959   1.194   1.612   5.617
  798SOL    HW1 2960   1.200   1.519   5.654
  798SOL    HW2 2961   1.135   1.612   5.537
  799SOL     OW 2962   0.822   1.002   6.958
  799SOL    HW1 2963   0.862   1.001   6.866
  799SOL    HW2 2964   0.832   1.094   6.998
  800SOL     OW 2965   0.916   0.910   5.877
  800SOL    HW1 2966   0.979   0.948   5.809
  800SOL    HW2 2967   0.956   0.827   5.916
  801SOL     OW 2968   1.504   1.607   5.630
  801SOL    HW1 2969   1.412   1.644   5.637
  801SOL    HW2 2970   1.542   1.627   5.540
  802SOL     OW 2971   0.372   1.288   7.076
  802SOL    HW1 2972   0.359   1.381   7.042
  802SOL    HW2 2973   0.288   1.236   7.063
  803SOL     OW 2974   1.614   1.292   6.875
  803SOL    HW1 2975   1.674   1.295   6.955
  803SOL    HW2 2976   1.539   1.356   6.888
  804SOL     OW 2977   1.039   1.098   6.282
  804SOL    HW1 2978   0.969   1.051   6.336
  804SOL    HW2 2979   1.098   1.030   6.239
  805SOL     OW 2980   1.014   0.236   6.557
  805SOL    HW1 2981   1.006   0.200   6.464
  805SOL    HW2 2982   1.012   0.160   6.622
  806SOL     OW 2983   0.590   1.487   6.077
  806SOL    HW1 2984   0.632   1.429   6.007
  806SOL    HW2 2985   0.546   1.566   6.033
  807SOL     OW 2986   1.709   0.385   6.967
  807SOL    HW1 2987   1.782   0.454   6.971
  807SOL    HW2 2988   1.737   0.310   6.908
  808SOL     OW 2989   0.255   1.348   5.876
  808SOL    HW1 2990   0.159   1.349   5.849
  808SOL    HW2 2991   0.267   1.401   5.960
  809SOL     OW 2992   0.105   1.013   7.312
  809SOL    HW1 2993   0.028   0.980   7.366
  809SOL    HW2 2994   0.190   0.983   7.354
  810SOL     OW 2995   0.672   0.203   7.075
  810SOL    HW1 2996   0.762   0.187   7.035
  810SOL    HW2 2997   0.680   0.208   7.174
  811SOL     OW 2998   0.075   0.345   5.619
  811SOL    HW1 2999  -0.017   0.317   5.590
  811SOL    HW2 3000   0.106   0.422   5.563
  812SOL     OW 3001   1.440   0.856   6.984
  812SOL    HW1 3002   1.383   0.908   6.921
  812SOL    HW2 3003   1.536   0.868   6.960
  813SOL     OW 3004   0.072   0.166   5.904
  813SOL    HW1 3005   0.055   0.249   5.850
  813SOL    HW2 3006   0.162   0.129   5.882
  814SOL     OW 3007   1.183   1.335   5.705
  814SOL    HW1 3008   1.084   1.324   5.707
  814SOL    HW2 3009   1.217   1.350   5.798
  815SOL     OW 3010   0.613   0.842   7.017
  815SOL    HW1 3011   0.669   0.923   7.000
  815SOL    HW2 3012   0.672   0.762   7.020
  816SOL     OW 3013   1.493   1.767   6.545
  816SOL    HW1 3014   1.526   1.831   6.476
  816SOL    HW2 3015   1.559   1.761   6.620
  817SOL     OW 3016   0.716   0.565   7.294
  817SOL    HW1 3017   0.735   0.630   7.368
  817SOL    HW2 3018   0.776   0.485   7.303
  818SOL     OW 3019   1.450   1.220   7.219
  818SOL    HW1 3020   1.441   1.210   7.318
  818SOL    HW2 3021   1.546   1.213   7.193
  819SOL     OW 3022   0.390   1.741   7.146
  819SOL    HW1 3023   0.299   1.782   7.144
  819SOL    HW2 3024   0.383   1.647   7.178
  820SOL     OW 3025   1.674   0.883   6.840
  820SOL    HW1 3026   1.647   0.794   6.803
  820SOL    HW2 3027   1.675   0.951   6.767
  821SOL     OW 3028   1.225   0.325   6.035
  821SOL    HW1 3029   1.290   0.251   6.024
  821SOL    HW2 3030   1.245   0.375   6.119
  822SOL     OW 3031   0.594   0.745   6.238
  822SOL    HW1 3032   0.644   0.830   6.219
  822SOL    HW2 3033   0.506   0.747   6.190
  823SOL     OW 3034   1.777   0.342   7.228
  823SOL    HW1 3035   1.760   0.373   7.134
  823SOL    HW2 3036   1.693   0.305   7.266
  824SOL     OW 3037   1.730   0.934   7.103
  824SOL    HW1 3038   1.768   1.025   7.118
  824SOL    HW2 3039   1.722   0.917   7.004
  825SOL     OW 3040   0.859   1.374   5.602
  825SOL    HW1 3041   0.813   1.389   5.690
  825SOL    HW2 3042   0.903   1.459   5.572
  826SOL     OW 3043   0.661   1.790   6.539
  826SOL    HW1 3044   0.615   1.878   6.526
  826SOL    HW2 3045   0.760   1.802   6.532
  827SOL     OW 3046   0.859   0.956   6.447
  827SOL    HW1 3047   0.913   0.887   6.495
  827SOL    HW2 3048   0.827   1.025   6.513
  828SOL     OW 3049   1.083   0.984   5.673
  828SOL    HW1 3050   1.060   1.037   5.591
  828SOL    HW2 3051   1.164   0.928   5.654
  829SOL     OW 3052   0.221   1.314   7.430
  829SOL    HW1 3053   0.156   1.241   7.409
  829SOL    HW2 3054   0.225   1.328   7.528
  830SOL     OW 3055   0.079   1.240   6.239
  830SOL    HW1 3056   0.078   1.193   6.327
  830SOL    HW2 3057   0.161   1.212   6.188
  831SOL     OW 3058   0.672   1.391   7.210
  831SOL    HW1 3059   0.594   1.341   7.248
  831SOL    HW2 3060   0.669   1.486   7.241
  832SOL     OW 3061   1.824   0.192   6.813
  832SOL    HW1 3062   1.820   0.102   6.857
  832SOL    HW2 3063   1.827   0.181   6.714
  833SOL     OW 3064   0.428   0.424   6.106
  833SOL    HW1 3065   0.458   0.352   6.044
  833SOL    HW2 3066   0.389   0.384   6.189
  834SOL     OW 3067   1.705   1.487   6.690
  834SOL    HW1 3068   1.612   1.462   6.663
  834SOL    HW2 3069   1.731   1.437   6.772
  835SOL     OW 3070   0.317   0.547   6.866
  835SOL    HW1 3071   0.355   0.488   6.938
  835SOL    HW2 3072   0.357   0.521   6.778
  836SOL     OW 3073   0.812   1.586   6.273
  836SOL    HW1 3074   0.844   1.596   6.179
  836SOL    HW2 3075   0.733   1.524   6.275
  837SOL     OW 3076   1.424   0.214   6.698
  837SOL    HW1 3077   1.476   0.149   6.753
  837SOL    HW2 3078   1.375   0.277   6.759
  838SOL     OW 3079   1.001   0.034   6.740
  838SOL    HW1 3080   0.938  -0.038   6.709
  838SOL    HW2 3081   1.094  -0.002   6.740
  839SOL     OW 3082   0.770   1.330   5.887
  839SOL    HW1 3083   0.724   1.243   5.904
  839SOL    HW2 3084   0.861   1.327   5.928
  840SOL     OW 3085   0.618   1.567   6.870
  840SOL    HW1 3086   0.613   1.649   6.927
  840SOL    HW2 3087   0.707   1.564   6.825
  841SOL     OW 3088   1.352   0.052   5.754
  841SOL    HW1 3089   1.387   0.011   5.670
  841SOL    HW2 3090   1.262   0.014   5.774
  842SOL     OW 3091   1.300   0.453   6.277
  842SOL    HW1 3092   1.241   0.533   6.281
  842SOL    HW2 3093   1.315   0.418   6.370
  843SOL     OW 3094   1.593   0.221   6.468
  843SOL    HW1 3095   1.509   0.220   6.522
  843SOL    HW2 3096   1.595   0.304   6.412
  844SOL     OW 3097   0.039   1.077   5.886
  844SOL    HW1 3098   0.138   1.066   5.877
  844SOL    HW2 3099  -0.001   0.991   5.918
  845SOL     OW 3100   0.875   1.646   5.923
  845SOL    HW1 3101   0.798   1.611   5.869
  845SOL    HW2 3102   0.843   1.717   5.985
  846SOL     OW 3103   0.230   0.628   7.561
  846SOL    HW1 3104   0.137   0.626   7.598
  846SOL    HW2 3105   0.231   0.589   7.469
  847SOL     OW 3106   0.225   0.275   8.444
  847SOL    HW1 3107   0.260   0.258   8.536
  847SOL    HW2 3108   0.137   0.230   8.432
  848SOL     OW 3109   0.019   0.368   8.095
  848SOL    HW1 3110  -0.063   0.411   8.134
  848SOL    HW2 3111  -0.009   0.295   8.032
  849SOL     OW 3112   0.569   1.275   8.613
  849SOL    HW1 3113   0.476   1.268   8.576
  849SOL    HW2 3114   0.580   1.364   8.657
  850SOL     OW 3115   1.555   1.511   8.151
  850SOL    HW1 3116   1.498   1.495   8.232
  850SOL    HW2 3117   1.496   1.521   8.071
  851SOL     OW 3118   1.135   0.703   8.165
  851SOL    HW1 3119   1.192   0.781   8.140
  851SOL    HW2 3120   1.075   0.729   8.241
  852SOL     OW 3121   1.755   0.607   7.679
  852SOL    HW1 3122   1.743   0.594   7.580
  852SOL    HW2 3123   1.725   0.526   7.728
  853SOL     OW 3124   0.768   1.144   8.471
  853SOL    HW1 3125   0.690   1.161   8.531
  853SOL    HW2 3126   0.802   1.231   8.435
  854SOL     OW 3127   0.850   0.798   9.271
  854SOL    HW1 3128   0.846   0.874   9.336
  854SOL    HW2 3129   0.872   0.834   9.180
  855SOL     OW 3130   0.685   1.012   8.113
  855SOL    HW1 3131   0.754   0.996   8.183
  855SOL    HW2 3132   0.612   1.069   8.151
  856SOL     OW 3133   0.686   1.161   9.251
  856SOL    HW1 3134   0.746   1.240   9.265
  856SOL    HW2 3135   0.600   1.192   9.210
  857SOL     OW 3136   0.335   1.435   8.509
  857SOL    HW1 3137   0.257   1.404   8.456
  857SOL    HW2 3138   0.393   1.493   8.452
  858SOL     OW 3139   1.460   1.505   8.787
  858SOL    HW1 3140   1.484   1.599   8.813
  858SOL    HW2 3141   1.444   1.451   8.869
  859SOL     OW 3142   0.438   0.392   8.947
  859SOL    HW1 3143   0.520   0.336   8.956
  859SOL    HW2 3144   0.357   0.334   8.951
  860SOL     OW 3145   1.603   0.447   8.185
  860SOL    HW1 3146   1.529   0.493   8.135
  860SOL    HW2 3147   1.654   0.515   8.238
  861SOL     OW 3148   0.231   1.713   7.931
  861SOL    HW1 3149   0.265   1.790   7.985
  861SOL    HW2 3150   0.275   1.713   7.841
  862SOL     OW 3151   1.127   1.341   9.138
  862SOL    HW1 3152   1.174   1.341   9.226
  862SOL    HW2 3153   1.079   1.254   9.127
  863SOL     OW 3154   0.230   1.434   7.986
  863SOL    HW1 3155   0.204   1.530   7.986
  863SOL    HW2 3156   0.159   1.380   8.031
  864SOL     OW 3157   0.240   1.091   8.334
  864SOL    HW1 3158   0.254   1.007   8.386
  864SOL    HW2 3159   0.185   1.155   8.389
  865SOL     OW 3160   0.620   1.786   8.887
  865SOL    HW1 3161   0.528   1.769   8.922
  865SOL    HW2 3162   0.648   1.878   8.913
  866SOL     OW 3163   0.606   0.964   7.571
  866SOL    HW1 3164   0.613   1.048   7.517
  866SOL    HW2 3165   0.652   0.977   7.659
  867SOL     OW 3166   1.594   0.114   8.928
  867SOL    HW1 3167   1.576   0.181   8.856
  867SOL    HW2 3168   1.591   0.160   9.017
  868SOL     OW 3169   0.122   0.643   8.011
  868SOL    HW1 3170   0.077   0.555   8.028
  868SOL    HW2 3171   0.121   0.697   8.095
  869SOL     OW 3172   1.842   1.767   7.807
  869SOL    HW1 3173   1.896   1.738   7.887
  869SOL    HW2 3174   1.872   1.857   7.778
  870SOL     OW 3175   0.027   1.596   7.565
  870SOL    HW1 3176   0.008   1.500   7.586
  870SOL    HW2 3177  -0.006   1.654   7.640
  871SOL     OW 3178   1.689   0.922   8.060
  871SOL    HW1 3179   1.784   0.893   8.068
  871SOL    HW2 3180   1.681   0.987   7.985
  872SOL     OW 3181   1.641   1.108   7.880
  872SOL    HW1 3182   1.727   1.110   7.828
  872SOL    HW2 3183   1.655   1.155   7.968
  873SOL     OW 3184   0.113   0.737   9.045
  873SOL    HW1 3185   0.201   0.724   9.090
  873SOL    HW2 3186   0.100   0.834   9.023
  874SOL     OW 3187   0.613   1.365   8.174
  874SOL    HW1 3188   0.564   1.278   8.183
  874SOL    HW2 3189   0.590   1.408   8.087
  875SOL     OW 3190   1.293   1.228   8.871
  875SOL    HW1 3191   1.330   1.155   8.813
  875SOL    HW2 3192   1.345   1.233   8.956
  876SOL     OW 3193   0.809   0.004   7.950
  876SOL    HW1 3194   0.849   0.095   7.941
  876SOL    HW2 3195   0.709   0.012   7.956
  877SOL     OW 3196   0.197   0.976   8.712
  877SOL    HW1 3197   0.286   0.931   8.698
  877SOL    HW2 3198   0.124   0.911   8.693
  878SOL     OW 3199   1.525   0.999   7.638
  878SOL    HW1 3200   1.462   0.923   7.651
  878SOL    HW2 3201   1.573   1.017   7.724
  879SOL     OW 3202   1.187   1.792   9.064
  879SOL    HW1 3203   1.211   1.852   8.988
  879SOL    HW2 3204   1.194   1.697   9.034
  880SOL     OW 3205   0.317   0.251   9.249
  880SOL    HW1 3206   0.388   0.322   9.255
  880SOL    HW2 3207   0.229   0.290   9.277
  881SOL     OW 3208   1.466   1.417   8.401
  881SOL    HW1 3209   1.407   1.423   8.481
  881SOL    HW2 3210   1.451   1.329   8.355
  882SOL     OW 3211   1.667   1.714   8.020
  882SOL    HW1 3212   1.626   1.691   7.932
  882SOL    HW2 3213   1.649   1.640   8.085
  883SOL     OW 3214   0.598   0.729   7.718
  883SOL    HW1 3215   0.622   0.798   7.650
  883SOL    HW2 3216   0.520   0.762   7.772
  884SOL     OW 3217   1.281   0.345   8.392
  884SOL    HW1 3218   1.195   0.295   8.379
  884SOL    HW2 3219   1.343   0.291   8.448
  885SOL     OW 3220   1.576   1.662   7.755
  885SOL    HW1 3221   1.665   1.708   7.758
  885SOL    HW2 3222   1.555   1.638   7.660
  886SOL     OW 3223   0.807   0.605   8.913
  886SOL    HW1 3224   0.760   0.602   9.002
  886SOL    HW2 3225   0.756   0.550   8.847
  887SOL     OW 3226   1.394   0.469   9.122
  887SOL    HW1 3227   1.374   0.512   9.210
  887SOL    HW2 3228   1.472   0.407   9.131
  888SOL     OW 3229   0.973   0.890   9.020
  888SOL    HW1 3230   1.019   0.806   8.991
  888SOL    HW2 3231   0.917   0.924   8.945
  889SOL     OW 3232   0.991   0.410   8.690
  889SOL    HW1 3233   0.914   0.444   8.744
  889SOL    HW2 3234   0.957   0.359   8.611
  890SOL     OW 3235   1.041   0.701   7.877
  890SOL    HW1 3236   1.067   0.697   7.973
  890SOL    HW2 3237   0.956   0.650   7.863
  891SOL     OW 3238   0.076   0.811   8.237
  891SOL    HW1 3239   0.175   0.799   8.246
  891SOL    HW2 3240   0.052   0.906   8.258
  892SOL     OW 3241   0.130   1.821   9.019
  892SOL    HW1 3242   0.120   1.806   9.118
  892SOL    HW2 3243   0.044   1.857   8.983
  893SOL     OW 3244   0.865   0.348   7.643
  893SOL    HW1 3245   0.924   0.411   7.594
  893SOL    HW2 3246   0.884   0.254   7.614
  894SOL     OW 3247   1.719   0.585   9.279
  894SOL    HW1 3248   1.693   0.674   9.243
  894SOL    HW2 3249   1.717   0.517   9.206
  895SOL     OW 3250   1.362   1.144   7.993
  895SOL    HW1 3251   1.445   1.115   7.945
  895SOL    HW2 3252   1.313   1.211   7.937
  896SOL     OW 3253   0.550   0.196   8.333
  896SOL    HW1 3254   0.545   0.191   8.433
  896SOL    HW2 3255   0.552   0.292   8.304
  897SOL     OW 3256   1.008   1.456   7.925
  897SOL    HW1 3257   0.962   1.528   7.873
  897SOL    HW2 3258   1.004   1.476   8.023
  898SOL     OW 3259   0.351   1.801   8.301
  898SOL    HW1 3260   0.401   1.715   8.307
  898SOL    HW2 3261   0.416   1.878   8.298
  899SOL     OW 3262   1.795   1.066   8.321
  899SOL    HW1 3263   1.733   1.051   8.245
  899SOL    HW2 3264   1.743   1.077   8.406
  900SOL     OW 3265   1.227   1.550   8.954
  900SOL    HW1 3266   1.233   1.473   9.018
  900SOL    HW2 3267   1.175   1.524   8.874
  901SOL     OW 3268   0.321   0.943   7.690
  901SOL    HW1 3269   0.403   0.982   7.648
  901SOL    HW2 3270   0.294   0.861   7.641
  902SOL     OW 3271   1.458   0.735   8.176
  902SOL    HW1 3272   1.453   0.670   8.251
  902SOL    HW2 3273   1.538   0.794   8.189
  903SOL     OW 3274   0.461   1.266   9.175
  903SOL    HW1 3275   0.411   1.267   9.089
  903SOL    HW2 3276   0.398   1.248   9.251
  904SOL     OW 3277   1.111   1.776   7.685
  904SOL    HW1 3278   1.051   1.714   7.735
  904SOL    HW2 3279   1.142   1.732   7.600
  905SOL     OW 3280   0.202   0.285   8.946
  905SOL    HW1 3281   0.122   0.345   8.933
  905SOL    HW2 3282   0.192   0.236   9.032
  906SOL     OW 3283   1.632   1.377   7.529
  906SOL    HW1 3284   1.600   1.471   7.519
  906SOL    HW2 3285   1.556   1.314   7.517
  907SOL     OW 3286   0.464   1.743   7.771
  907SOL    HW1 3287   0.497   1.782   7.857
  907SOL    HW2 3288   0.540   1.736   7.706
  908SOL     OW 3289   1.400   0.107   7.874
  908SOL    HW1 3290   1.376   0.070   7.784
  908SOL    HW2 3291   1.499   0.123   7.878
  909SOL     OW 3292   0.249   1.785   8.689
  909SOL    HW1 3293   0.306   1.720   8.739
  909SOL    HW2 3294   0.233   1.752   8.596
  910SOL     OW 3295   0.940   1.698   8.352
  910SOL    HW1 3296   1.020   1.641   8.373
  910SOL    HW2 3297   0.891   1.658   8.275
  911SOL     OW 3298   0.382   0.700   7.928
  911SOL    HW1 3299   0.427   0.610   7.925
  911SOL    HW2 3300   0.288   0.689   7.961
  912SOL     OW 3301   1.547   0.222   9.177
  912SOL    HW1 3302   1.542   0.259   9.269
  912SOL    HW2 3303   1.475   0.153   9.165
  913SOL     OW 3304   0.614   0.122   7.565
  913SOL    HW1 3305   0.712   0.100   7.572
  913SOL    HW2 3306   0.583   0.105   7.472
  914SOL     OW 3307   0.781   0.264   9.197
  914SOL    HW1 3308   0.848   0.203   9.240
  914SOL    HW2 3309   0.708   0.283   9.262
  915SOL     OW 3310   0.888   1.514   8.643
  915SOL    HW1 3311   0.865   1.489   8.549
  915SOL    HW2 3312   0.949   1.445   8.682
  916SOL     OW 3313   1.351   0.590   8.881
  916SOL    HW1 3314   1.379   0.547   8.966
  916SOL    HW2 3315   1.376   0.686   8.882
  917SOL     OW 3316   0.803   1.402   8.372
  917SOL    HW1 3317   0.893   1.416   8.330
  917SOL    HW2 3318   0.732   1.404   8.301
  918SOL     OW 3319   0.922   0.503   8.347
  918SOL    HW1 3320   0.897   0.494   8.251
  918SOL    HW2 3321   0.970   0.421   8.378
  919SOL     OW 3322   0.539   0.064   7.960
  919SOL    HW1 3323   0.458   0.065   8.018
  919SOL    HW2 3324   0.542   0.147   7.905
  920SOL     OW 3325   1.434   1.188   7.489
  920SOL    HW1 3326   1.466   1.112   7.546
  920SOL    HW2 3327   1.342   1.215   7.519
  921SOL     OW 3328   0.297   0.035   7.619
  921SOL    HW1 3329   0.346   0.119   7.598
  921SOL    HW2 3330   0.359  -0.030   7.664
  922SOL     OW 3331   0.935   0.236   7.928
  922SOL    HW1 3332   0.887   0.277   7.850
  922SOL    HW2 3333   1.034   0.234   7.909
  923SOL     OW 3334   1.076   0.683   8.912
  923SOL    HW1 3335   0.996   0.622   8.915
  923SOL    HW2 3336   1.157   0.630   8.888
  924SOL     OW 3337   1.227   1.570   8.241
  924SOL    HW1 3338   1.248   1.644   8.176
  924SOL    HW2 3339   1.295   1.570   8.314
  925SOL     OW 3340   0.459   1.152   8.189
  925SOL    HW1 3341   0.388   1.125   8.254
  925SOL    HW2 3342   0.433   1.124   8.096
  926SOL     OW 3343   1.271   1.797   8.039
  926SOL    HW1 3344   1.315   1.861   7.975
  926SOL    HW2 3345   1.221   1.849   8.109
  927SOL     OW 3346   1.032   0.549   7.464
  927SOL    HW1 3347   0.991   0.631   7.425
  927SOL    HW2 3348   1.096   0.575   7.537
  928SOL     OW 3349   0.078   0.556   8.834
  928SOL    HW1 3350   0.170   0.555   8.793
  928SOL    HW2 3351   0.072   0.630   8.901
  929SOL     OW 3352   0.561   0.222   8.595
  929SOL    HW1 3353   0.599   0.138   8.632
  929SOL    HW2 3354   0.473   0.241   8.639
  930SOL     OW 3355   0.866   0.454   8.090
  930SOL    HW1 3356   0.834   0.526   8.028
  930SOL    HW2 3357   0.890   0.373   8.037
  931SOL     OW 3358   1.017   0.039   8.201
  931SOL    HW1 3359   0.945   0.044   8.132
  931SOL    HW2 3360   0.993  -0.030   8.270
  932SOL     OW 3361   1.429   1.173   8.315
  932SOL    HW1 3362   1.374   1.089   8.308
  932SOL    HW2 3363   1.455   1.202   8.223
  933SOL     OW 3364   1.466   0.590   8.440
  933SOL    HW1 3365   1.436   0.495   8.447
  933SOL    HW2 3366   1.539   0.606   8.506
  934SOL     OW 3367   1.857   0.833   7.825
  934SOL    HW1 3368   1.899   0.769   7.889
  934SOL    HW2 3369   1.819   0.782   7.747
  935SOL     OW 3370   0.488   1.385   7.622
  935SOL    HW1 3371   0.401   1.370   7.669
  935SOL    HW2 3372   0.471   1.411   7.527
  936SOL     OW 3373   1.664   1.280   8.105
  936SOL    HW1 3374   1.763   1.288   8.119
  936SOL    HW2 3375   1.619   1.364   8.136
  937SOL     OW 3376   1.390   0.575   7.526
  937SOL    HW1 3377   1.336   0.554   7.607
  937SOL    HW2 3378   1.481   0.534   7.535
  938SOL     OW 3379   0.527   0.256   7.776
  938SOL    HW1 3380   0.554   0.197   7.701
  938SOL    HW2 3381   0.527   0.351   7.745
  939SOL     OW 3382   1.754   1.223   9.036
  939SOL    HW1 3383   1.845   1.184   9.023
  939SOL    HW2 3384   1.762   1.319   9.060
  940SOL     OW 3385   1.064   1.347   8.788
  940SOL    HW1 3386   0.984   1.324   8.843
  940SOL    HW2 3387   1.147   1.321   8.837
  941SOL     OW 3388   1.592   1.629   9.073
  941SOL    HW1 3389   1.619   1.663   8.983
  941SOL    HW2 3390   1.671   1.591   9.119
  942SOL     OW 3391   1.111   1.195   8.548
  942SOL    HW1 3392   1.071   1.239   8.629
  942SOL    HW2 3393   1.070   1.232   8.465
  943SOL     OW 3394   1.638   1.099   8.527
  943SOL    HW1 3395   1.643   1.180   8.586
  943SOL    HW2 3396   1.552   1.101   8.476
  944SOL     OW 3397   0.915   0.089   8.850
  944SOL    HW1 3398   0.940   0.069   8.755
  944SOL    HW2 3399   0.987   0.145   8.892
  945SOL     OW 3400   0.980   1.116   9.167
  945SOL    HW1 3401   0.881   1.122   9.177
  945SOL    HW2 3402   1.003   1.036   9.111
  946SOL     OW 3403   0.705   1.050   7.816
  946SOL    HW1 3404   0.691   1.057   7.915
  946SOL    HW2 3405   0.789   0.999   7.798
  947SOL     OW 3406   0.410   0.813   8.699
  947SOL    HW1 3407   0.496   0.825   8.749
  947SOL    HW2 3408   0.368   0.726   8.726
  948SOL     OW 3409   1.274   0.386   8.710
  948SOL    HW1 3410   1.295   0.460   8.774
  948SOL    HW2 3411   1.185   0.403   8.667
  949SOL     OW 3412   0.064   1.564   8.779
  949SOL    HW1 3413   0.018   1.646   8.745
  949SOL    HW2 3414   0.162   1.583   8.788
  950SOL     OW 3415   0.367   1.100   7.949
  950SOL    HW1 3416   0.360   1.183   7.893
  950SOL    HW2 3417   0.371   1.020   7.889
  951SOL     OW 3418   0.566   0.537   8.313
  951SOL    HW1 3419   0.578   0.603   8.239
  951SOL    HW2 3420   0.612   0.571   8.396
  952SOL     OW 3421   1.252   1.348   7.836
  952SOL    HW1 3422   1.302   1.425   7.876
  952SOL    HW2 3423   1.157   1.350   7.868
  953SOL     OW 3424   1.272   1.445   8.590
  953SOL    HW1 3425   1.319   1.458   8.677
  953SOL    HW2 3426   1.206   1.371   8.599
  954SOL     OW 3427   1.582   0.639   7.920
  954SOL    HW1 3428   1.551   0.700   7.993
  954SOL    HW2 3429   1.632   0.691   7.851
  955SOL     OW 3430   0.354   1.510   8.777
  955SOL    HW1 3431   0.333   1.466   8.690
  955SOL    HW2 3432   0.451   1.536   8.780
  956SOL     OW 3433   0.402   0.751   9.046
  956SOL    HW1 3434   0.470   0.806   8.999
  956SOL    HW2 3435   0.442   0.663   9.073
  957SOL     OW 3436   1.587   0.779   9.118
  957SOL    HW1 3437   1.495   0.817   9.113
  957SOL    HW2 3438   1.647   0.826   9.053
  958SOL     OW 3439   1.013   0.105   9.218
  958SOL    HW1 3440   1.019   0.190   9.166
  958SOL    HW2 3441   1.045   0.029   9.161
  959SOL     OW 3442   0.504   0.050   9.188
  959SOL    HW1 3443   0.462  -0.007   9.118
  959SOL    HW2 3444   0.438   0.119   9.220
  960SOL     OW 3445   0.573   0.870   8.477
  960SOL    HW1 3446   0.617   0.959   8.468
  960SOL    HW2 3447   0.510   0.870   8.554
  961SOL     OW 3448   1.360   0.862   8.493
  961SOL    HW1 3449   1.285   0.862   8.427
  961SOL    HW2 3450   1.397   0.770   8.502
  962SOL     OW 3451   1.209   0.525   7.723
  962SOL    HW1 3452   1.222   0.441   7.777
  962SOL    HW2 3453   1.180   0.599   7.783
  963SOL     OW 3454   0.307   0.213   8.679
  963SOL    HW1 3455   0.284   0.250   8.769
  963SOL    HW2 3456   0.277   0.118   8.673
  964SOL     OW 3457   0.037   1.310   8.730
  964SOL    HW1 3458   0.090   1.261   8.798
  964SOL    HW2 3459   0.059   1.408   8.735
  965SOL     OW 3460   0.732   0.634   8.512
  965SOL    HW1 3461   0.791   0.608   8.436
  965SOL    HW2 3462   0.704   0.730   8.501
  966SOL     OW 3463   1.728   0.935   9.302
  966SOL    HW1 3464   1.682   0.928   9.213
  966SOL    HW2 3465   1.666   0.979   9.368
  967SOL     OW 3466   0.307   0.063   8.066
  967SOL    HW1 3467   0.296   0.157   8.099
  967SOL    HW2 3468   0.302   0.000   8.143
  968SOL     OW 3469   1.622   0.367   7.822
  968SOL    HW1 3470   1.624   0.291   7.886
  968SOL    HW2 3471   1.574   0.444   7.862
  969SOL     OW 3472   1.023   0.766   8.414
  969SOL    HW1 3473   1.038   0.787   8.510
  969SOL    HW2 3474   0.993   0.671   8.405
  970SOL     OW 3475   0.980   1.573   9.148
  970SOL    HW1 3476   0.960   1.617   9.060
  970SOL    HW2 3477   1.019   1.482   9.132
  971SOL     OW 3478   1.859   1.518   9.053
  971SOL    HW1 3479   1.873   1.545   8.958
  971SOL    HW2 3480   1.942   1.540   9.106
  972SOL     OW 3481   0.350   0.898   9.252
  972SOL    HW1 3482   0.426   0.942   9.300
  972SOL    HW2 3483   0.385   0.851   9.170
  973SOL     OW 3484   1.540   0.274   7.573
  973SOL    HW1 3485   1.479   0.199   7.596
  973SOL    HW2 3486   1.562   0.326   7.656
  974SOL     OW 3487   1.303   0.838   7.490
  974SOL    HW1 3488   1.337   0.745   7.505
  974SOL    HW2 3489   1.321   0.865   7.395
  975SOL     OW 3490   1.068   1.333   8.297
  975SOL    HW1 3491   1.075   1.249   8.242
  975SOL    HW2 3492   1.130   1.402   8.261
  976SOL     OW 3493   0.319   0.810   8.397
  976SOL    HW1 3494   0.412   0.846   8.402
  976SOL    HW2 3495   0.313   0.725   8.449
  977SOL     OW 3496   0.339   0.509   8.454
  977SOL    HW1 3497   0.287   0.426   8.437
  977SOL    HW2 3498   0.416   0.514   8.390
  978SOL     OW 3499   1.138   0.380   9.126
  978SOL    HW1 3500   1.093   0.443   9.190
  978SOL    HW2 3501   1.231   0.411   9.109
  979SOL     OW 3502   1.160   0.207   8.925
  979SOL    HW1 3503   1.160   0.271   9.002
  979SOL    HW2 3504   1.188   0.255   8.842
  980SOL     OW 3505   0.008   1.326   7.648
  980SOL    HW1 3506  -0.085   1.347   7.617
  980SOL    HW2 3507   0.018   1.227   7.661
  981SOL     OW 3508   0.088   1.801   8.375
  981SOL    HW1 3509   0.046   1.715   8.348
  981SOL    HW2 3510   0.182   1.804   8.341
  982SOL     OW 3511   0.504   1.568   8.358
  982SOL    HW1 3512   0.570   1.642   8.367
  982SOL    HW2 3513   0.548   1.489   8.316
  983SOL     OW 3514   1.002   0.796   8.686
  983SOL    HW1 3515   1.043   0.764   8.772
  983SOL    HW2 3516   0.906   0.769   8.683
  984SOL     OW 3517   0.040   0.544   8.562
  984SOL    HW1 3518   0.125   0.511   8.521
  984SOL    HW2 3519   0.053   0.559   8.660
  985SOL     OW 3520   0.189   0.520   9.170
  985SOL    HW1 3521   0.248   0.480   9.100
  985SOL    HW2 3522   0.131   0.591   9.129
  986SOL     OW 3523   1.369   0.950   9.108
  986SOL    HW1 3524   1.408   1.039   9.128
  986SOL    HW2 3525   1.379   0.930   9.011
  987SOL     OW 3526   0.815   0.572   7.773
  987SOL    HW1 3527   0.822   0.483   7.727
  987SOL    HW2 3528   0.721   0.606   7.765
  988SOL     OW 3529   1.657   0.604   8.654
  988SOL    HW1 3530   1.619   0.535   8.716
  988SOL    HW2 3531   1.739   0.568   8.610
  989SOL     OW 3532   0.252   1.564   9.192
  989SOL    HW1 3533   0.222   1.621   9.268
  989SOL    HW2 3534   0.245   1.467   9.218
  990SOL     OW 3535   0.671   0.464   8.717
  990SOL    HW1 3536   0.637   0.375   8.687
  990SOL    HW2 3537   0.697   0.518   8.637
  991SOL     OW 3538   0.930   1.678   8.913
  991SOL    HW1 3539   0.906   1.660   8.818
  991SOL    HW2 3540   0.960   1.772   8.923
  992SOL     OW 3541   0.473   0.500   7.639
  992SOL    HW1 3542   0.534   0.580   7.643
  992SOL    HW2 3543   0.378   0.531   7.646
  993SOL     OW 3544   0.159   1.137   8.914
  993SOL    HW1 3545   0.181   1.076   8.990
  993SOL    HW2 3546   0.169   1.088   8.828
  994SOL     OW 3547   1.347   1.059   8.682
  994SOL    HW1 3548   1.371   0.996   8.608
  994SOL    HW2 3549   1.257   1.099   8.664
  995SOL     OW 3550   1.302   0.855   7.757
  995SOL    HW1 3551   1.216   0.824   7.799
  995SOL    HW2 3552   1.298   0.841   7.658
  996SOL     OW 3553   1.759   1.747   8.602
  996SOL    HW1 3554   1.820   1.777   8.529
  996SOL    HW2 3555   1.721   1.658   8.580
  997SOL     OW 3556   1.252   1.731   8.576
  997SOL    HW1 3557   1.336   1.736   8.522
  997SOL    HW2 3558   1.229   1.635   8.594
  998SOL     OW 3559   0.083   1.258   8.470
  998SOL    HW1 3560   0.078   1.257   8.570
  998SOL    HW2 3561   0.000   1.217   8.432
  999SOL     OW 3562   0.688   1.662   9.164
  999SOL    HW1 3563   0.632   1.743   9.173
  999SOL    HW2 3564   0.740   1.666   9.078
 1000SOL     OW 3565   1.726   0.135   7.971
 1000SOL    HW1 3566   1.799   0.118   7.904
 1000SOL    HW2 3567   1.695   0.048   8.009
 1001SOL     OW 3568   1.388   1.573   7.925
 1001SOL    HW1 3569   1.455   1.585   7.851
 1001SOL    HW2 3570   1.348   1.662   7.948
 1002SOL     OW 3571   0.130   1.794   9.299
 1002SOL    HW1 3572   0.089   1.720   9.352
 1002SOL    HW2 3573   0.194   1.845   9.357
 1003SOL     OW 3574   1.280   0.927   8.120
 1003SOL    HW1 3575   1.340   0.846   8.122
 1003SOL    HW2 3576   1.320   0.996   8.060
 1004SOL     OW 3577   0.830   1.273   8.870
 1004SOL    HW1 3578   0.825   1.306   8.965
 1004SOL    HW2 3579   0.744   1.292   8.824
 1005SOL     OW 3580   0.672   1.616   7.602
 1005SOL    HW1 3581   0.681   1.626   7.503
 1005SOL    HW2 3582   0.632   1.527   7.623
 1006SOL     OW 3583   1.650   1.720   8.842
 1006SOL    HW1 3584   1.703   1.730   8.758
 1006SOL    HW2 3585   1.623   1.810   8.876
 1007SOL     OW 3586   1.841   0.175   8.411
 1007SOL    HW1 3587   1.880   0.090   8.375
 1007SOL    HW2 3588   1.743   0.177   8.392
 1008SOL     OW 3589   0.263   0.326   8.168
 1008SOL    HW1 3590   0.184   0.377   8.134
 1008SOL    HW2 3591   0.254   0.311   8.266
 1009SOL     OW 3592   1.194   1.612   7.479
 1009SOL    HW1 3593   1.200   1.519   7.516
 1009SOL    HW2 3594   1.135   1.612   7.399
 1010SOL     OW 3595   0.822   1.002   8.820
 1010SOL    HW1 3596   0.862   1.001   8.728
 1010SOL    HW2 3597   0.832   1.094   8.860
 1011SOL     OW 3598   0.916   0.910   7.739
 1011SOL    HW1 3599   0.979   0.948   7.671
 1011SOL    HW2 3600   0.956   0.827   7.778
 1012SOL     OW 3601   1.504   1.607   7.492
 1012SOL    HW1 3602   1.412   1.644   7.499
 1012SOL    HW2 3603   1.542   1.627   7.402
 1013SOL     OW 3604   0.372   1.288   8.938
 1013SOL    HW1 3605   0.359   1.381   8.904
 1013SOL    HW2 3606   0.288   1.236   8.925
 1014SOL     OW 3607   1.614   1.292   8.737
 1014SOL    HW1 3608   1.674   1.295   8.817
 1014SOL    HW2 3609   1.539   1.356   8.750
 1015SOL     OW 3610   1.039   1.098   8.144
 1015SOL    HW1 3611   0.969   1.051   8.198
 1015SOL    HW2 3612   1.098   1.030   8.101
 1016SOL     OW 3613   1.014   0.236   8.419
 1016SOL    HW1 3614   1.006   0.200   8.326
 1016SOL    HW2 3615   1.012   0.160   8.484
 1017SOL     OW 3616   0.590   1.487   7.939
 1017SOL    HW1 3617   0.632   1.429   7.869
 1017SOL    HW2 3618   0.546   1.566   7.895
 1018SOL     OW 3619   1.709   0.385   8.829
 1018SOL    HW1 3620   1.782   0.454   8.833
 1018SOL    HW2 3621   1.737   0.310   8.770
 1019SOL     OW 3622   0.255   1.348   7.738
 1019SOL    HW1 3623   0.159   1.349   7.711
 1019SOL    HW2 3624   0.267   1.401   7.822
 1020SOL     OW 3625   0.105   1.013   9.174
 1020SOL    HW1 3626   0.028   0.980   9.228
 1020SOL    HW2 3627   0.190   0.983   9.216
 1021SOL     OW 3628   0.672   0.203   8.937
 1021SOL    HW1 3629   0.762   0.187   8.897
 1021SOL    HW2 3630   0.680   0.208   9.036
 1022SOL     OW 3631   0.075   0.345   7.481
 1022SOL    HW1 3632  -0.017   0.317   7.452
 1022SOL    HW2 3633   0.106   0.422   7.425
 1023SOL     OW 3634   1.440   0.856   8.846
 1023SOL    HW1 3635   1.383   0.908   8.783
 1023SOL    HW2 3636   1.536   0.868   8.822
 1024SOL     OW 3637   0.072   0.166   7.766
 1024SOL    HW1 3638   0.055   0.249   7.712
 1024SOL    HW2 3639   0.162   0.129   7.744
 1025SOL     OW 3640   1.183   1.335   7.567
 1025SOL    HW1 3641   1.084   1.324   7.569
 1025SOL    HW2 3642   1.217   1.350   7.660
 1026SOL     OW 3643   0.613   0.842   8.879
 1026SOL    HW1 3644   0.669   0.923   8.862
 1026SOL    HW2 3645   0.672   0.762   8.882
 1027SOL     OW 3646   1.493   1.767   8.407
 1027SOL    HW1 3647   1.526   1.831   8.338
 1027SOL    HW2 3648   1.559   1.761   8.482
 1028SOL     OW 3649   0.716   0.565   9.156
 1028SOL    HW1 3650   0.735   0.630   9.230
 1028SOL    HW2 3651   0.776   0.485   9.165
 1029SOL     OW 3652   1.450   1.220   9.081
 1029SOL    HW1 3653   1.441   1.210   9.180
 1029SOL    HW2 3654   1.546   1.213   9.055
 1030SOL     OW 3655   0.390   1.741   9.008
 1030SOL    HW1 3656   0.299   1.782   9.006
 1030SOL    HW2 3657   0.383   1.647   9.040
 1031SOL     OW 3658   1.674   0.883   8.702
 1031SOL    HW1 3659   1.647   0.794   8.665
 1031SOL    HW2 3660   1.675   0.951   8.629
 1032SOL     OW 3661   1.225   0.325   7.897
 1032SOL    HW1 3662   1.290   0.251   7.886
 1032SOL    HW2 3663   1.245   0.375   7.981
 1033SOL     OW 3664   0.594   0.745   8.100
 1033SOL    HW1 3665   0.644   0.830   8.081
 1033SOL    HW2 3666   0.506   0.747   8.052
 1034SOL     OW 3667   1.777   0.342   9.090
 1034SOL    HW1 3668   1.760   0.373   8.996
 1034SOL    HW2 3669   1.693   0.305   9.128
 1035SOL     OW 3670   1.730   0.934   8.965
 1035SOL    HW1 3671   1.768   1.025   8.980
 1035SOL    HW2 3672   1.722   0.917   8.866
 1036SOL     OW 3673   0.859   1.374   7.464
 1036SOL    HW1 3674   0.813   1.389   7.552
 1036SOL    HW2 3675   0.903   1.459   7.434
 1037SOL     OW 3676   0.661   1.790   8.401
 1037SOL    HW1 3677   0.615   1.878   8.388
 1037SOL    HW2 3678   0.760   1.802   8.394
 1038SOL     OW 3679   0.859   0.956   8.309
 1038SOL    HW1 3680   0.913   0.887   8.357
 1038SOL    HW2 3681   0.827   1.025   8.375
 1039SOL     OW 3682   1.083   0.984   7.535
 1039SOL    HW1 3683   1.060   1.037   7.453
 1039SOL    HW2 3684   1.164   0.928   7.516
 1040SOL     OW 3685   1.861   1.569   8.299
 1040SOL    HW1 3686   1.790   1.557   8.229
 1040SOL    HW2 3687   1.862   1.490   8.359
 1041SOL     OW 3688   0.221   1.314   9.292
 1041SOL    HW1 3689   0.156   1.241   9.271
 1041SOL    HW2 3690   0.225   1.328   9.390
 1042SOL     OW 3691   0.079   1.240   8.101
 1042SOL    HW1 3692   0.078   1.193   8.189
 1042SOL    HW2 3693   0.161   1.212   8.050
 1043SOL     OW 3694   0.672   1.391   9.072
 1043SOL    HW1 3695   0.594   1.341   9.110
 1043SOL    HW2 3696   0.669   1.486   9.103
 1044SOL     OW 3697   1.824   0.192   8.675
 1044SOL    HW1 3698   1.820   0.102   8.719
 1044SOL    HW2 3699   1.827   0.181   8.576
 1045SOL     OW 3700   0.428   0.424   7.968
 1045SOL    HW1 3701   0.458   0.352   7.906
 1045SOL    HW2 3702   0.389   0.384   8.051
 1046SOL     OW 3703   1.705   1.487   8.552
 1046SOL    HW1 3704   1.612   1.462   8.525
 1046SOL    HW2 3705   1.731   1.437   8.634
 1047SOL     OW 3706   0.317   0.547   8.728
 1047SOL    HW1 3707   0.355   0.488   8.800
 1047SOL    HW2 3708   0.357   0.521   8.640
 1048SOL     OW 3709   0.812   1.586   8.135
 1048SOL    HW1 3710   0.844   1.596   8.041
 1048SOL    HW2 3711   0.733   1.524   8.137
 1049SOL     OW 3712   1.424   0.214   8.560
 1049SOL    HW1 3713   1.476   0.149   8.615
 1049SOL    HW2 3714   1.375   0.277   8.621
 1050SOL     OW 3715   1.001   0.034   8.602
 1050SOL    HW1 3716   0.938  -0.038   8.571
 1050SOL    HW2 3717   1.094  -0.002   8.602
 1051SOL     OW 3718   0.770   1.330   7.749
 1051SOL    HW1 3719   0.724   1.243   7.766
 1051SOL    HW2 3720   0.861   1.327   7.790
 1052SOL     OW 3721   0.618   1.567   8.732
 1052SOL    HW1 3722   0.613   1.649   8.789
 1052SOL    HW2 3723   0.707   1.564   8.687
 1053SOL     OW 3724   1.352   0.052   7.616
 1053SOL    HW1 3725   1.387   0.011   7.532
 1053SOL    HW2 3726   1.262   0.014   7.636
 1054SOL     OW 3727   1.300   0.453   8.139
 1054SOL    HW1 3728   1.241   0.533   8.143
 1054SOL    HW2 3729   1.315   0.418   8.232
 1055SOL     OW 3730   1.593   0.221   8.330
 1055SOL    HW1 3731   1.509   0.220   8.384
 1055SOL    HW2 3732   1.595   0.304   8.274
 1056SOL     OW 3733   0.039   1.077   7.748
 1056SOL    HW1 3734   0.138   1.066   7.739
 1056SOL    HW2 3735  -0.001   0.991   7.780
 1057SOL     OW 3736   0.875   1.646   7.785
 1057SOL    HW1 3737   0.798   1.611   7.731
 1057SOL    HW2 3738   0.843   1.717   7.847
 1058SOL     OW 3739   0.230   0.628   9.423
 1058SOL    HW1 3740   0.137   0.626   9.460
 1058SOL    HW2 3741   0.231   0.589   9.331
 1059SOL     OW 3742   0.225   0.275  10.306
 1059SOL    HW1 3743   0.260   0.258  10.398
 1059SOL    HW2 3744   0.137   0.230  10.294
 1060SOL     OW 3745   0.019   0.368   9.957
 1060SOL    HW1 3746  -0.063   0.411   9.996
 1060SOL    HW2 3747  -0.009   0.295   9.894
 1061SOL     OW 3748   0.569   1.275  10.475
 1061SOL    HW1 3749   0.476   1.268  10.438
 1061SOL    HW2 3750   0.580   1.364  10.519
 1062SOL     OW 3751   1.555   1.511  10.013
 1062SOL    HW1 3752   1.498   1.495  10.094
 1062SOL    HW2 3753   1.496   1.521   9.933
 1063SOL     OW 3754   1.135   0.703  10.027
 1063SOL    HW1 3755   1.192   0.781  10.002
 1063SOL    HW2 3756   1.075   0.729  10.103
 1064SOL     OW 3757   1.755   0.607   9.541
 1064SOL    HW1 3758   1.743   0.594   9.442
 1064SOL    HW2 3759   1.725   0.526   9.590
 1065SOL     OW 3760   0.768   1.144  10.333
 1065SOL    HW1 3761   0.690   1.161  10.393
 1065SOL    HW2 3762   0.802   1.231  10.297
 1066SOL     OW 3763   0.850   0.798  11.133
 1066SOL    HW1 3764   0.846   0.874  11.198
 1066SOL    HW2 3765   0.872   0.834  11.042
 1067SOL     OW 3766   0.685   1.012   9.975
 1067SOL    HW1 3767   0.754   0.996  10.045
 1067SOL    HW2 3768   0.612   1.069  10.013
 1068SOL     OW 3769   0.335   1.435  10.371
 1068SOL    HW1 3770   0.257   1.404  10.318
 1068SOL    HW2 3771   0.393   1.493  10.314
 1069SOL     OW 3772   1.460   1.505  10.649
 1069SOL    HW1 3773   1.484   1.599  10.675
 1069SOL    HW2 3774   1.444   1.451  10.731
 1070SOL     OW 3775   0.438   0.392  10.809
 1070SOL    HW1 3776   0.520   0.336  10.818
 1070SOL    HW2 3777   0.357   0.334  10.813
 1071SOL     OW 3778   1.603   0.447  10.047
 1071SOL    HW1 3779   1.529   0.493   9.997
 1071SOL    HW2 3780   1.654   0.515  10.100
 1072SOL     OW 3781   0.231   1.713   9.793
 1072SOL    HW1 3782   0.265   1.790   9.847
 1072SOL    HW2 3783   0.275   1.713   9.703
 1073SOL     OW 3784   0.230   1.434   9.848
 1073SOL    HW1 3785   0.204   1.530   9.848
 1073SOL    HW2 3786   0.159   1.380   9.893
 1074SOL     OW 3787   0.240   1.091  10.196
 1074SOL    HW1 3788   0.254   1.007  10.248
 1074SOL    HW2 3789   0.185   1.155  10.251
 1075SOL     OW 3790   0.620   1.786  10.749
 1075SOL    HW1 3791   0.528   1.769  10.784
 1075SOL    HW2 3792   0.648   1.878  10.775
 1076SOL     OW 3793   0.606   0.964   9.433
 1076SOL    HW1 3794   0.613   1.048   9.379
 1076SOL    HW2 3795   0.652   0.977   9.521
 1077SOL     OW 3796   1.594   0.114  10.790
 1077SOL    HW1 3797   1.576   0.181  10.718
 1077SOL    HW2 3798   1.591   0.160  10.879
 1078SOL     OW 3799   0.122   0.643   9.873
 1078SOL    HW1 3800   0.077   0.555   9.890
 1078SOL    HW2 3801   0.121   0.697   9.957
 1079SOL     OW 3802   1.842   1.767   9.669
 1079SOL    HW1 3803   1.896   1.738   9.749
 1079SOL    HW2 3804   1.872   1.857   9.640
 1080SOL     OW 3805   0.027   1.596   9.427
 1080SOL    HW1 3806   0.008   1.500   9.448
 1080SOL    HW2 3807  -0.006   1.654   9.502
 1081SOL     OW 3808   1.689   0.922   9.922
 1081SOL    HW1 3809   1.784   0.893   9.930
 1081SOL    HW2 3810   1.681   0.987   9.847
 1082SOL     OW 3811   1.641   1.108   9.742
 1082SOL    HW1 3812   1.727   1.110   9.690
 1082SOL    HW2 3813   1.655   1.155   9.830
 1083SOL     OW 3814   0.113   0.737  10.907
 1083SOL    HW1 3815   0.201   0.724  10.952
 1083SOL    HW2 3816   0.100   0.834  10.885
 1084SOL     OW 3817   0.613   1.365  10.036
 1084SOL    HW1 3818   0.564   1.278  10.045
 1084SOL    HW2 3819   0.590   1.408   9.949
 1085SOL     OW 3820   1.293   1.228  10.733
 1085SOL    HW1 3821   1.330   1.155  10.675
 1085SOL    HW2 3822   1.345   1.233  10.818
 1086SOL     OW 3823   0.809   0.004   9.812
 1086SOL    HW1 3824   0.849   0.095   9.803
 1086SOL    HW2 3825   0.709   0.012   9.818
 1087SOL     OW 3826   0.197   0.976  10.574
 1087SOL    HW1 3827   0.286   0.931  10.560
 1087SOL    HW2 3828   0.124   0.911  10.555
 1088SOL     OW 3829   1.525   0.999   9.500
 1088SOL    HW1 3830   1.462   0.923   9.513
 1088SOL    HW2 3831   1.573   1.017   9.586
 1089SOL     OW 3832   1.187   1.792  10.926
 1089SOL    HW1 3833   1.211   1.852  10.850
 1089SOL    HW2 3834   1.194   1.697  10.896
 1090SOL     OW 3835   0.317   0.251  11.111
 1090SOL    HW1 3836   0.388   0.322  11.117
 1090SOL    HW2 3837   0.229   0.290  11.139
 1091SOL     OW 3838   1.466   1.417  10.263
 1091SOL    HW1 3839   1.407   1.423  10.343
 1091SOL    HW2 3840   1.451   1.329  10.217
 1092SOL     OW 3841   1.667   1.714   9.882
 1092SOL    HW1 3842   1.626   1.691   9.794
 1092SOL    HW2 3843   1.649   1.640   9.947
 1093SOL     OW 3844   0.598   0.729   9.580
 1093SOL    HW1 3845   0.622   0.798   9.512
 1093SOL    HW2 3846   0.520   0.762   9.634
 1094SOL     OW 3847   1.281   0.345  10.254
 1094SOL    HW1 3848   1.195   0.295  10.241
 1094SOL    HW2 3849   1.343   0.291  10.310
 1095SOL     OW 3850   1.576   1.662   9.617
 1095SOL    HW1 3851   1.665   1.708   9.620
 1095SOL    HW2 3852   1.555   1.638   9.522
 1096SOL     OW 3853   0.807   0.605  10.775
 1096SOL    HW1 3854   0.760   0.602  10.864
 1096SOL    HW2 3855   0.756   0.550  10.709
 1097SOL     OW 3856   0.973   0.890  10.882
 1097SOL    HW1 3857   1.019   0.806  10.853
 1097SOL    HW2 3858   0.917   0.924  10.807
 1098SOL     OW 3859   0.991   0.410  10.552
 1098SOL    HW1 3860   0.914   0.444  10.606
 1098SOL    HW2 3861   0.957   0.359  10.473
 1099SOL     OW 3862   1.041   0.701   9.739
 1099SOL    HW1 3863   1.067   0.697   9.835
 1099SOL    HW2 3864   0.956   0.650   9.725
 1100SOL     OW 3865   0.076   0.811  10.099
 1100SOL    HW1 3866   0.175   0.799  10.108
 1100SOL    HW2 3867   0.052   0.906  10.120
 1101SOL     OW 3868   0.130   1.821  10.881
 1101SOL    HW1 3869   0.120   1.806  10.980
 1101SOL    HW2 3870   0.044   1.857  10.845
 1102SOL     OW 3871   0.865   0.348   9.505
 1102SOL    HW1 3872   0.924   0.411   9.456
 1102SOL    HW2 3873   0.884   0.254   9.476
 1103SOL     OW 3874   1.362   1.144   9.855
 1103SOL    HW1 3875   1.445   1.115   9.807
 1103SOL    HW2 3876   1.313   1.211   9.799
 1104SOL     OW 3877   0.550   0.196  10.195
 1104SOL    HW1 3878   0.545   0.191  10.295
 1104SOL    HW2 3879   0.552   0.292  10.166
 1105SOL     OW 3880   1.008   1.456   9.787
 1105SOL    HW1 3881   0.962   1.528   9.735
 1105SOL    HW2 3882   1.004   1.476   9.885
 1106SOL     OW 3883   0.351   1.801  10.163
 1106SOL    HW1 3884   0.401   1.715  10.169
 1106SOL    HW2 3885   0.416   1.878  10.160
 1107SOL     OW 3886   1.795   1.066  10.183
 1107SOL    HW1 3887   1.733   1.051  10.107
 1107SOL    HW2 3888   1.743   1.077  10.268
 1108SOL     OW 3889   1.227   1.550  10.816
 1108SOL    HW1 3890   1.233   1.473  10.880
 1108SOL    HW2 3891   1.175   1.524  10.736
 1109SOL     OW 3892   0.321   0.943   9.552
 1109SOL    HW1 3893   0.403   0.982   9.510
 1109SOL    HW2 3894   0.294   0.861   9.503
 1110SOL     OW 3895   1.458   0.735  10.038
 1110SOL    HW1 3896   1.453   0.670  10.113
 1110SOL    HW2 3897   1.538   0.794  10.051
 1111SOL     OW 3898   0.461   1.266  11.037
 1111SOL    HW1 3899   0.411   1.267  10.951
 1111SOL    HW2 3900   0.398   1.248  11.113
 1112SOL     OW 3901   1.111   1.776   9.547
 1112SOL    HW1 3902   1.051   1.714   9.597
 1112SOL    HW2 3903   1.142   1.732   9.462
 1113SOL     OW 3904   0.202   0.285  10.808
 1113SOL    HW1 3905   0.122   0.345  10.795
 1113SOL    HW2 3906   0.192   0.236  10.894
 1114SOL     OW 3907   1.632   1.377   9.391
 1114SOL    HW1 3908   1.600   1.471   9.381
 1114SOL    HW2 3909   1.556   1.314   9.379
 1115SOL     OW 3910   0.464   1.743   9.633
 1115SOL    HW1 3911   0.497   1.782   9.719
 1115SOL    HW2 3912   0.540   1.736   9.568
 1116SOL     OW 3913   1.400   0.107   9.736
 1116SOL    HW1 3914   1.376   0.070   9.646
 1116SOL    HW2 3915   1.499   0.123   9.740
 1117SOL     OW 3916   0.249   1.785  10.551
 1117SOL    HW1 3917   0.306   1.720  10.601
 1117SOL    HW2 3918   0.233   1.752  10.458
 1118SOL     OW 3919   0.940   1.698  10.214
 1118SOL    HW1 3920   1.020   1.641  10.235
 1118SOL    HW2 3921   0.891   1.658  10.137
 1119SOL     OW 3922   0.382   0.700   9.790
 1119SOL    HW1 3923   0.427   0.610   9.787
 1119SOL    HW2 3924   0.288   0.689   9.823
 1120SOL     OW 3925   0.614   0.122   9.427
 1120SOL    HW1 3926   0.712   0.100   9.434
 1120SOL    HW2 3927   0.583   0.105   9.334
 1121SOL     OW 3928   0.781   0.264  11.059
 1121SOL    HW1 3929   0.848   0.203  11.102
 1121SOL    HW2 3930   0.708   0.283  11.124
 1122SOL     OW 3931   0.888   1.514  10.505
 1122SOL    HW1 3932   0.865   1.489  10.411
 1122SOL    HW2 3933   0.949   1.445  10.544
 1123SOL     OW 3934   1.351   0.590  10.743
 1123SOL    HW1 3935   1.379   0.547  10.828
 1123SOL    HW2 3936   1.376   0.686  10.744
 1124SOL     OW 3937   0.803   1.402  10.234
 1124SOL    HW1 3938   0.893   1.416  10.192
 1124SOL    HW2 3939   0.732   1.404  10.163
 1125SOL     OW 3940   0.922   0.503  10.209
 1125SOL    HW1 3941   0.897   0.494  10.113
 1125SOL    HW2 3942   0.970   0.421  10.240
 1126SOL     OW 3943   0.539   0.064   9.822
 1126SOL    HW1 3944   0.458   0.065   9.880
 1126SOL    HW2 3945   0.542   0.147   9.767
 1127SOL     OW 3946   1.434   1.188   9.351
 1127SOL    HW1 3947   1.466   1.112   9.408
 1127SOL    HW2 3948   1.342   1.215   9.381
 1128SOL     OW 3949   0.297   0.035   9.481
 1128SOL    HW1 3950   0.346   0.119   9.460
 1128SOL    HW2 3951   0.359  -0.030   9.526
 1129SOL     OW 3952   0.935   0.236   9.790
 1129SOL    HW1 3953   0.887   0.277   9.712
 1129SOL    HW2 3954   1.034   0.234   9.771
 1130SOL     OW 3955   1.076   0.683  10.774
 1130SOL    HW1 3956   0.996   0.622  10.777
 1130SOL    HW2 3957   1.157   0.630  10.750
 1131SOL     OW 3958   1.227   1.570  10.103
 1131SOL    HW1 3959   1.248   1.644  10.038
 1131SOL    HW2 3960   1.295   1.570  10.176
 1132SOL     OW 3961   0.459   1.152  10.051
 1132SOL    HW1 3962   0.388   1.125  10.116
 1132SOL    HW2 3963   0.433   1.124   9.958
 1133SOL     OW 3964   1.271   1.797   9.901
 1133SOL    HW1 3965   1.315   1.861   9.837
 1133SOL    HW2 3966   1.221   1.849   9.971
 1134SOL     OW 3967   1.032   0.549   9.326
 1134SOL    HW1 3968   0.991   0.631   9.287
 1134SOL    HW2 3969   1.096   0.575   9.399
 1135SOL     OW 3970   0.078   0.556  10.696
 1135SOL    HW1 3971   0.170   0.555  10.655
 1135SOL    HW2 3972   0.072   0.630  10.763
 1136SOL     OW 3973   0.561   0.222  10.457
 1136SOL    HW1 3974   0.599   0.138  10.494
 1136SOL    HW2 3975   0.473   0.241  10.501
 1137SOL     OW 3976   0.866   0.454   9.952
 1137SOL    HW1 3977   0.834   0.526   9.890
 1137SOL    HW2 3978   0.890   0.373   9.899
 1138SOL     OW 3979   1.017   0.039  10.063
 1138SOL    HW1 3980   0.945   0.044   9.994
 1138SOL    HW2 3981   0.993  -0.030  10.132
 1139SOL     OW 3982   1.429   1.173  10.177
 1139SOL    HW1 3983   1.374   1.089  10.170
 1139SOL    HW2 3984   1.455   1.202  10.085
 1140SOL     OW 3985   1.466   0.590  10.302
 1140SOL    HW1 3986   1.436   0.495  10.309
 1140SOL    HW2 3987   1.539   0.606  10.368
 1141SOL     OW 3988   1.857   0.833   9.687
 1141SOL    HW1 3989   1.899   0.769   9.751
 1141SOL    HW2 3990   1.819   0.782   9.609
 1142SOL     OW 3991   0.488   1.385   9.484
 1142SOL    HW1 3992   0.401   1.370   9.531
 1142SOL    HW2 3993   0.471   1.411   9.389
 1143SOL     OW 3994   1.664   1.280   9.967
 1143SOL    HW1 3995   1.763   1.288   9.981
 1143SOL    HW2 3996   1.619   1.364   9.998
 1144SOL     OW 3997   1.390   0.575   9.388
 1144SOL    HW1 3998   1.336   0.554   9.469
 1144SOL    HW2 3999   1.481   0.534   9.397
 1145SOL     OW 4000   0.527   0.256   9.638
 1145SOL    HW1 4001   0.554   0.197   9.563
 1145SOL    HW2 4002   0.527   0.351   9.607
 1146SOL     OW 4003   1.754   1.223  10.898
 1146SOL    HW1 4004   1.845   1.184  10.885
 1146SOL    HW2 4005   1.762   1.319  10.922
 1147SOL     OW 4006   1.064   1.347  10.650
 1147SOL    HW1 4007   0.984   1.324  10.705
 1147SOL    HW2 4008   1.147   1.321  10.699
 1148SOL     OW 4009   1.111   1.195  10.410
 1148SOL    HW1 4010   1.071   1.239  10.491
 1148SOL    HW2 4011   1.070   1.232  10.327
 1149SOL     OW 4012   1.638   1.099  10.389
 1149SOL    HW1 4013   1.643   1.180  10.448
 1149SOL    HW2 4014   1.552   1.101  10.338
 1150SOL     OW 4015   0.915   0.089  10.712
 1150SOL    HW1 4016   0.940   0.069  10.617
 1150SOL    HW2 4017   0.987   0.145  10.754
 1151SOL     OW 4018   0.705   1.050   9.678
 1151SOL    HW1 4019   0.691   1.057   9.777
 1151SOL    HW2 4020   0.789   0.999   9.660
 1152SOL     OW 4021   0.410   0.813  10.561
 1152SOL    HW1 4022   0.496   0.825  10.611
 1152SOL    HW2 4023   0.368   0.726  10.588
 1153SOL     OW 4024   1.274   0.386  10.572
 1153SOL    HW1 4025   1.295   0.460  10.636
 1153SOL    HW2 4026   1.185   0.403  10.529
 1154SOL     OW 4027   0.064   1.564  10.641
 1154SOL    HW1 4028   0.018   1.646  10.607
 1154SOL    HW2 4029   0.162   1.583  10.650
 1155SOL     OW 4030   0.367   1.100   9.811
 1155SOL    HW1 4031   0.360   1.183   9.755
 1155SOL    HW2 4032   0.371   1.020   9.751
 1156SOL     OW 4033   0.566   0.537  10.175
 1156SOL    HW1 4034   0.578   0.603  10.101
 1156SOL    HW2 4035   0.612   0.571  10.258
 1157SOL     OW 4036   1.252   1.348   9.698
 1157SOL    HW1 4037   1.302   1.425   9.738
 1157SOL    HW2 4038   1.157   1.350   9.730
 1158SOL     OW 4039   1.272   1.445  10.452
 1158SOL    HW1 4040   1.319   1.458  10.539
 1158SOL    HW2 4041   1.206   1.371  10.461
 1159SOL     OW 4042   1.582   0.639   9.782
 1159SOL    HW1 4043   1.551   0.700   9.855
 1159SOL    HW2 4044   1.632   0.691   9.713
 1160SOL     OW 4045   0.354   1.510  10.639
 1160SOL    HW1 4046   0.333   1.466  10.552
 1160SOL    HW2 4047   0.451   1.536  10.642
 1161SOL     OW 4048   0.402   0.751  10.908
 1161SOL    HW1 4049   0.470   0.806  10.861
 1161SOL    HW2 4050   0.442   0.663  10.935
 1162SOL     OW 4051   1.587   0.779  10.980
 1162SOL    HW1 4052   1.495   0.817  10.975
 1162SOL    HW2 4053   1.647   0.826  10.915
 1163SOL     OW 4054   0.573   0.870  10.339
 1163SOL    HW1 4055   0.617   0.959  10.330
 1163SOL    HW2 4056   0.510   0.870  10.416
 1164SOL     OW 4057   1.360   0.862  10.355
 1164SOL    HW1 4058   1.285   0.862  10.289
 1164SOL    HW2 4059   1.397   0.770  10.364
 1165SOL     OW 4060   1.209   0.525   9.585
 1165SOL    HW1 4061   1.222   0.441   9.639
 1165SOL    HW2 4062   1.180   0.599   9.645
 1166SOL     OW 4063   0.307   0.213  10.541
 1166SOL    HW1 4064   0.284   0.250  10.631
 1166SOL    HW2 4065   0.277   0.118  10.535
 1167SOL     OW 4066   0.037   1.310  10.592
 1167SOL    HW1 4067   0.090   1.261  10.660
 1167SOL    HW2 4068   0.059   1.408  10.597
 1168SOL     OW 4069   0.732   0.634  10.374
 1168SOL    HW1 4070   0.791   0.608  10.298
 1168SOL    HW2 4071   0.704   0.730  10.363
 1169SOL     OW 4072   0.307   0.063   9.928
 1169SOL    HW1 4073   0.296   0.157   9.961
 1169SOL    HW2 4074   0.302   0.000  10.005
 1170SOL     OW 4075   1.622   0.367   9.684
 1170SOL    HW1 4076   1.624   0.291   9.748
 1170SOL    HW2 4077   1.574   0.444   9.724
 1171SOL     OW 4078   1.023   0.766  10.276
 1171SOL    HW1 4079   1.038   0.787  10.372
 1171SOL    HW2 4080   0.993   0.671  10.267
 1172SOL     OW 4081   0.980   1.573  11.010
 1172SOL    HW1 4082   0.960   1.617  10.922
 1172SOL    HW2 4083   1.019   1.482  10.994
 1173SOL     OW 4084   1.859   1.518  10.915
 1173SOL    HW1 4085   1.873   1.545  10.820
 1173SOL    HW2 4086   1.942   1.540  10.968
 1174SOL     OW 4087   0.350   0.898  11.114
 1174SOL    HW1 4088   0.426   0.942  11.162
 1174SOL    HW2 4089   0.385   0.851  11.032
 1175SOL     OW 4090   1.540   0.274   9.435
 1175SOL    HW1 4091   1.479   0.199   9.458
 1175SOL    HW2 4092   1.562   0.326   9.518
 1176SOL     OW 4093   1.303   0.838   9.352
 1176SOL    HW1 4094   1.337   0.745   9.367
 1176SOL    HW2 4095   1.321   0.865   9.257
 1177SOL     OW 4096   1.068   1.333  10.159
 1177SOL    HW1 4097   1.075   1.249  10.104
 1177SOL    HW2 4098   1.130   1.402  10.123
 1178SOL     OW 4099   0.319   0.810  10.259
 1178SOL    HW1 4100   0.412   0.846  10.264
 1178SOL    HW2 4101   0.313   0.725  10.311
 1179SOL     OW 4102   0.339   0.509  10.316
 1179SOL    HW1 4103   0.287   0.426  10.299
 1179SOL    HW2 4104   0.416   0.514  10.252
 1180SOL     OW 4105   1.160   0.207  10.787
 1180SOL    HW1 4106   1.160   0.271  10.864
 1180SOL    HW2 4107   1.188   0.255  10.704
 1181SOL     OW 4108   0.008   1.326   9.510
 1181SOL    HW1 4109  -0.085   1.347   9.479
 1181SOL    HW2 4110   0.018   1.227   9.523
 1182SOL     OW 4111   0.088   1.801  10.237
 1182SOL    HW1 4112   0.046   1.715  10.210
 1182SOL    HW2 4113   0.182   1.804  10.203
 1183SOL     OW 4114   0.504   1.568  10.220
 1183SOL    HW1 4115   0.570   1.642  10.229
 1183SOL    HW2 4116   0.548   1.489  10.178
 1184SOL     OW 4117   1.002   0.796  10.548
 1184SOL    HW1 4118   1.043   0.764  10.634
 1184SOL    HW2 4119   0.906   0.769  10.545
 1185SOL     OW 4120   0.040   0.544  10.424
 1185SOL    HW1 4121   0.125   0.511  10.383
 1185SOL    HW2 4122   0.053   0.559  10.522
 1186SOL     OW 4123   0.815   0.572   9.635
 1186SOL    HW1 4124   0.822   0.483   9.589
 1186SOL    HW2 4125   0.721   0.606   9.627
 1187SOL     OW 4126   1.657   0.604  10.516
 1187SOL    HW1 4127   1.619   0.535  10.578
 1187SOL    HW2 4128   1.739   0.568  10.472
 1188SOL     OW 4129   0.252   1.564  11.054
 1188SOL    HW1 4130   0.222   1.621  11.130
 1188SOL    HW2 4131   0.245   1.467  11.080
 1189SOL     OW 4132   0.671   0.464  10.579
 1189SOL    HW1 4133   0.637   0.375  10.549
 1189SOL    HW2 4134   0.697   0.518  10.499
 1190SOL     OW 4135   0.930   1.678  10.775
 1190SOL    HW1 4136   0.906   1.660  10.680
 1190SOL    HW2 4137   0.960   1.772  10.785
 1191SOL     OW 4138   0.473   0.500   9.501
 1191SOL    HW1 4139   0.534   0.580   9.505
 1191SOL    HW2 4140   0.378   0.531   9.508
 1192SOL     OW 4141   0.159   1.137  10.776
 1192SOL    HW1 4142   0.181   1.076  10.852
 1192SOL    HW2 4143   0.169   1.088  10.690
 1193SOL     OW 4144   1.347   1.059  10.544
 1193SOL    HW1 4145   1.371   0.996  10.470
 1193SOL    HW2 4146   1.257   1.099  10.526
 1194SOL     OW 4147   1.302   0.855   9.619
 1194SOL    HW1 4148   1.216   0.824   9.661
 1194SOL    HW2 4149   1.298   0.841   9.520
 1195SOL     OW 4150   1.759   1.747  10.464
 1195SOL    HW1 4151   1.820   1.777  10.391
 1195SOL    HW2 4152   1.721   1.658  10.442
 1196SOL     OW 4153   1.252   1.731  10.438
 1196SOL    HW1 4154   1.336   1.736  10.384
 1196SOL    HW2 4155   1.229   1.635  10.456
 1197SOL     OW 4156   0.083   1.258  10.332
 1197SOL    HW1 4157   0.078   1.257  10.432
 1197SOL    HW2 4158   0.000   1.217  10.294
 1198SOL     OW 4159   1.726   0.135   9.833
 1198SOL    HW1 4160   1.799   0.118   9.766
 1198SOL    HW2 4161   1.695   0.048   9.871
 1199SOL     OW 4162   1.388   1.573   9.787
 1199SOL    HW1 4163   1.455   1.585   9.713
 1199SOL    HW2 4164   1.348   1.662   9.810
 1200SOL     OW 4165   1.280   0.927   9.982
 1200SOL    HW1 4166   1.340   0.846   9.984
 1200SOL    HW2 4167   1.320   0.996   9.922
 1201SOL     OW 4168   0.830   1.273  10.732
 1201SOL    HW1 4169   0.825   1.306  10.827
 1201SOL    HW2 4170   0.744   1.292  10.686
 1202SOL     OW 4171   0.672   1.616   9.464
 1202SOL    HW1 4172   0.681   1.626   9.365
 1202SOL    HW2 4173   0.632   1.527   9.485
 1203SOL     OW 4174   1.650   1.720  10.704
 1203SOL    HW1 4175   1.703   1.730  10.620
 1203SOL    HW2 4176   1.623   1.810  10.738
 1204SOL     OW 4177   1.841   0.175  10.273
 1204SOL    HW1 4178   1.880   0.090  10.237
 1204SOL    HW2 4179   1.743   0.177  10.254
 1205SOL     OW 4180   0.263   0.326  10.030
 1205SOL    HW1 4181   0.184   0.377   9.996
 1205SOL    HW2 4182   0.254   0.311  10.128
 1206SOL     OW 4183   1.194   1.612   9.341
 1206SOL    HW1 4184   1.200   1.519   9.378
 1206SOL    HW2 4185   1.135   1.612   9.261
 1207SOL     OW 4186   0.822   1.002  10.682
 1207SOL    HW1 4187   0.862   1.001  10.590
 1207SOL    HW2 4188   0.832   1.094  10.722
 1208SOL     OW 4189   0.916   0.910   9.601
 1208SOL    HW1 4190   0.979   0.948   9.533
 1208SOL    HW2 4191   0.956   0.827   9.640
 1209SOL     OW 4192   1.504   1.607   9.354
 1209SOL    HW1 4193   1.412   1.644   9.361
 1209SOL    HW2 4194   1.542   1.627   9.264
 1210SOL     OW 4195   0.372   1.288  10.800
 1210SOL    HW1 4196   0.359   1.381  10.766
 1210SOL    HW2 4197   0.288   1.236  10.787
 1211SOL     OW 4198   1.614   1.292  10.599
 1211SOL    HW1 4199   1.674   1.295  10.679
 1211SOL    HW2 4200   1.539   1.356  10.612
 1212SOL     OW 4201   1.039   1.098  10.006
 1212SOL    HW1 4202   0.969   1.051  10.060
 1212SOL    HW2 4203   1.098   1.030   9.963
 1213SOL     OW 4204   1.014   0.236  10.281
 1213SOL    HW1 4205   1.006   0.200  10.188
 1213SOL    HW2 4206   1.012   0.160  10.346
 1214SOL     OW 4207   0.590   1.487   9.801
 1214SOL    HW1 4208   0.632   1.429   9.731
 1214SOL    HW2 4209   0.546   1.566   9.757
 1215SOL     OW 4210   1.709   0.385  10.691
 1215SOL    HW1 4211   1.782   0.454  10.695
 1215SOL    HW2 4212   1.737   0.310  10.632
 1216SOL     OW 4213   0.255   1.348   9.600
 1216SOL    HW1 4214   0.159   1.349   9.573
 1216SOL    HW2 4215   0.267   1.401   9.684
 1217SOL     OW 4216   0.105   1.013  11.036
 1217SOL    HW1 4217   0.028   0.980  11.090
 1217SOL    HW2 4218   0.190   0.983  11.078
 1218SOL     OW 4219   0.672   0.203  10.799
 1218SOL    HW1 4220   0.762   0.187  10.759
 1218SOL    HW2 4221   0.680   0.208  10.898
 1219SOL     OW 4222   0.075   0.345   9.343
 1219SOL    HW1 4223  -0.017   0.317   9.314
 1219SOL    HW2 4224   0.106   0.422   9.287
 1220SOL     OW 4225   1.440   0.856  10.708
 1220SOL    HW1 4226   1.383   0.908  10.645
 1220SOL    HW2 4227   1.536   0.868  10.684
 1221SOL     OW 4228   0.072   0.166   9.628
 1221SOL    HW1 4229   0.055   0.249   9.574
 1221SOL    HW2 4230   0.162   0.129   9.606
 1222SOL     OW 4231   1.183   1.335   9.429
 1222SOL    HW1 4232   1.084   1.324   9.431
 1222SOL    HW2 4233   1.217   1.350   9.522
 1223SOL     OW 4234   0.613   0.842  10.741
 1223SOL    HW1 4235   0.669   0.923  10.724
 1223SOL    HW2 4236   0.672   0.762  10.744
 1224SOL     OW 4237   1.493   1.767  10.269
 1224SOL    HW1 4238   1.526   1.831  10.200
 1224SOL    HW2 4239   1.559   1.761  10.344
 1225SOL     OW 4240   0.716   0.565  11.018
 1225SOL    HW1 4241   0.735   0.630  11.092
 1225SOL    HW2 4242   0.776   0.485  11.027
 1226SOL     OW 4243   0.390   1.741  10.870
 1226SOL    HW1 4244   0.299   1.782  10.868
 1226SOL    HW2 4245   0.383   1.647  10.902
 1227SOL     OW 4246   1.674   0.883  10.564
 1227SOL    HW1 4247   1.647   0.794  10.527
 1227SOL    HW2 4248   1.675   0.951  10.491
 1228SOL     OW 4249   1.225   0.325   9.759
 1228SOL    HW1 4250   1.290   0.251   9.748
 1228SOL    HW2 4251   1.245   0.375   9.843
 1229SOL     OW 4252   0.594   0.745   9.962
 1229SOL    HW1 4253   0.644   0.830   9.943
 1229SOL    HW2 4254   0.506   0.747   9.914
 1230SOL     OW 4255   1.777   0.342  10.952
 1230SOL    HW1 4256   1.760   0.373  10.858
 1230SOL    HW2 4257   1.693   0.305  10.990
 1231SOL     OW 4258   1.730   0.934  10.827
 1231SOL    HW1 4259   1.768   1.025  10.842
 1231SOL    HW2 4260   1.722   0.917  10.728
 1232SOL     OW 4261   0.859   1.374   9.326
 1232SOL    HW1 4262   0.813   1.389   9.414
 1232SOL    HW2 4263   0.903   1.459   9.296
 1233SOL     OW 4264   0.661   1.790  10.263
 1233SOL    HW1 4265   0.615   1.878  10.250
 1233SOL    HW2 4266   0.760   1.802  10.256
 1234SOL     OW 4267   0.859   0.956  10.171
 1234SOL    HW1 4268   0.913   0.887  10.219
 1234SOL    HW2 4269   0.827   1.025  10.237
 1235SOL     OW 4270   1.083   0.984   9.397
 1235SOL    HW1 4271   1.060   1.037   9.315
 1235SOL    HW2 4272   1.164   0.928   9.378
 1236SOL     OW 4273   1.861   1.569  10.161
 1236SOL    HW1 4274   1.790   1.557  10.091
 1236SOL    HW2 4275   1.862   1.490  10.221
 1237SOL     OW 4276   0.079   1.240   9.963
 1237SOL    HW1 4277   0.078   1.193  10.051
 1237SOL    HW2 4278   0.161   1.212   9.912
 1238SOL     OW 4279   0.672   1.391  10.934
 1238SOL    HW1 4280   0.594   1.341  10.972
 1238SOL    HW2 4281   0.669   1.486  10.965
 1239SOL     OW 4282   1.824   0.192  10.537
 1239SOL    HW1 4283   1.820   0.102  10.581
 1239SOL    HW2 4284   1.827   0.181  10.438
 1240SOL     OW 4285   0.428   0.424   9.830
 1240SOL    HW1 4286   0.458   0.352   9.768
 1240SOL    HW2 4287   0.389   0.384   9.913
 1241SOL     OW 4288   1.705   1.487  10.414
 1241SOL    HW1 4289   1.612   1.462  10.387
 1241SOL    HW2 4290   1.731   1.437  10.496
 1242SOL     OW 4291   0.317   0.547  10.590
 1242SOL    HW1 4292   0.355   0.488  10.662
 1242SOL    HW2 4293   0.357   0.521  10.502
 1243SOL     OW 4294   0.812   1.586   9.997
 1243SOL    HW1 4295   0.844   1.596   9.903
 1243SOL    HW2 4296   0.733   1.524   9.999
 1244SOL     OW 4297   1.424   0.214  10.422
 1244SOL    HW1 4298   1.476   0.149  10.477
 1244SOL    HW2 4299   1.375   0.277  10.483
 1245SOL     OW 4300   1.001   0.034  10.464
 1245SOL    HW1 4301   0.938  -0.038  10.433
 1245SOL    HW2 4302   1.094  -0.002  10.464
 1246SOL     OW 4303   0.770   1.330   9.611
 1246SOL    HW1 4304   0.724   1.243   9.628
 1246SOL    HW2 4305   0.861   1.327   9.652
 1247SOL     OW 4306   0.618   1.567  10.594
 1247SOL    HW1 4307   0.613   1.649  10.651
 1247SOL    HW2 4308   0.707   1.564  10.549
 1248SOL     OW 4309   1.352   0.052   9.478
 1248SOL    HW1 4310   1.387   0.011   9.394
 1248SOL    HW2 4311   1.262   0.014   9.498
 1249SOL     OW 4312   1.300   0.453  10.001
 1249SOL    HW1 4313   1.241   0.533  10.005
 1249SOL    HW2 4314   1.315   0.418  10.094
 1250SOL     OW 4315   1.593   0.221  10.192
 1250SOL    HW1 4316   1.509   0.220  10.246
 1250SOL    HW2 4317   1.595   0.304  10.136
 1251SOL     OW 4318   0.039   1.077   9.610
 1251SOL    HW1 4319   0.138   1.066   9.601
 1251SOL    HW2 4320  -0.001   0.991   9.642
 1252SOL     OW 4321   0.875   1.646   9.647
 1252SOL    HW1 4322   0.798   1.611   9.593
 1252SOL    HW2 4323   0.843   1.717   9.709
 1253SOL     OW 4324   0.230   2.490   0.113
 1253SOL    HW1 4325   0.137   2.488   0.150
 1253SOL    HW2 4326   0.231   2.451   0.021
 1254SOL     OW 4327   0.225   2.137   0.996
 1254SOL    HW1 4328   0.260   2.120   1.088
 1254SOL    HW2 4329   0.137   2.092   0.984
 1255SOL     OW 4330   0.019   2.230   0.647
 1255SOL    HW1 4331  -0.063   2.273   0.686
 1255SOL    HW2 4332  -0.009   2.157   0.584
 1256SOL     OW 4333   0.569   3.137   1.165
 1256SOL    HW1 4334   0.476   3.130   1.128
 1256SOL    HW2 4335   0.580   3.226   1.209
 1257SOL     OW 4336   1.555   3.373   0.703
 1257SOL    HW1 4337   1.498   3.357   0.784
 1257SOL    HW2 4338   1.496   3.383   0.623
 1258SOL     OW 4339   1.135   2.565   0.717
 1258SOL    HW1 4340   1.192   2.643   0.692
 1258SOL    HW2 4341   1.075   2.591   0.793
 1259SOL     OW 4342   1.755   2.469   0.231
 1259SOL    HW1 4343   1.743   2.456   0.132
 1259SOL    HW2 4344   1.725   2.388   0.280
 1260SOL     OW 4345   0.768   3.006   1.023
 1260SOL    HW1 4346   0.690   3.023   1.083
 1260SOL    HW2 4347   0.802   3.093   0.987
 1261SOL     OW 4348   0.850   2.660   1.823
 1261SOL    HW1 4349   0.846   2.736   1.888
 1261SOL    HW2 4350   0.872   2.696   1.732
 1262SOL     OW 4351   0.685   2.874   0.665
 1262SOL    HW1 4352   0.754   2.858   0.735
 1262SOL    HW2 4353   0.612   2.931   0.703
 1263SOL     OW 4354   0.686   3.023   1.803
 1263SOL    HW1 4355   0.746   3.102   1.817
 1263SOL    HW2 4356   0.600   3.054   1.762
 1264SOL     OW 4357   0.335   3.297   1.061
 1264SOL    HW1 4358   0.257   3.266   1.008
 1264SOL    HW2 4359   0.393   3.355   1.004
 1265SOL     OW 4360   1.460   3.367   1.339
 1265SOL    HW1 4361   1.484   3.461   1.365
 1265SOL    HW2 4362   1.444   3.313   1.421
 1266SOL     OW 4363   0.438   2.254   1.499
 1266SOL    HW1 4364   0.520   2.198   1.508
 1266SOL    HW2 4365   0.357   2.196   1.503
 1267SOL     OW 4366   1.603   2.309   0.737
 1267SOL    HW1 4367   1.529   2.355   0.687
 1267SOL    HW2 4368   1.654   2.377   0.790
 1268SOL     OW 4369   0.231   3.575   0.483
 1268SOL    HW1 4370   0.265   3.652   0.537
 1268SOL    HW2 4371   0.275   3.575   0.393
 1269SOL     OW 4372   1.127   3.203   1.690
 1269SOL    HW1 4373   1.174   3.203   1.778
 1269SOL    HW2 4374   1.079   3.116   1.679
 1270SOL     OW 4375   0.230   3.296   0.538
 1270SOL    HW1 4376   0.204   3.392   0.538
 1270SOL    HW2 4377   0.159   3.242   0.583
 1271SOL     OW 4378   0.240   2.953   0.886
 1271SOL    HW1 4379   0.254   2.869   0.938
 1271SOL    HW2 4380   0.185   3.017   0.941
 1272SOL     OW 4381   0.620   3.648   1.439
 1272SOL    HW1 4382   0.528   3.631   1.474
 1272SOL    HW2 4383   0.648   3.740   1.465
 1273SOL     OW 4384   0.606   2.826   0.123
 1273SOL    HW1 4385   0.613   2.910   0.069
 1273SOL    HW2 4386   0.652   2.839   0.211
 1274SOL     OW 4387   1.594   1.976   1.480
 1274SOL    HW1 4388   1.576   2.043   1.408
 1274SOL    HW2 4389   1.591   2.022   1.569
 1275SOL     OW 4390   0.122   2.505   0.563
 1275SOL    HW1 4391   0.077   2.417   0.580
 1275SOL    HW2 4392   0.121   2.559   0.647
 1276SOL     OW 4393   1.842   3.629   0.359
 1276SOL    HW1 4394   1.896   3.600   0.439
 1276SOL    HW2 4395   1.872   3.719   0.330
 1277SOL     OW 4396   0.027   3.458   0.117
 1277SOL    HW1 4397   0.008   3.362   0.138
 1277SOL    HW2 4398  -0.006   3.516   0.192
 1278SOL     OW 4399   1.689   2.784   0.612
 1278SOL    HW1 4400   1.784   2.755   0.620
 1278SOL    HW2 4401   1.681   2.849   0.537
 1279SOL     OW 4402   1.641   2.970   0.432
 1279SOL    HW1 4403   1.727   2.972   0.380
 1279SOL    HW2 4404   1.655   3.017   0.520
 1280SOL     OW 4405   0.113   2.599   1.597
 1280SOL    HW1 4406   0.201   2.586   1.642
 1280SOL    HW2 4407   0.100   2.696   1.575
 1281SOL     OW 4408   0.613   3.227   0.726
 1281SOL    HW1 4409   0.564   3.140   0.735
 1281SOL    HW2 4410   0.590   3.270   0.639
 1282SOL     OW 4411   1.293   3.090   1.423
 1282SOL    HW1 4412   1.330   3.017   1.365
 1282SOL    HW2 4413   1.345   3.095   1.508
 1283SOL     OW 4414   0.809   1.866   0.502
 1283SOL    HW1 4415   0.849   1.957   0.493
 1283SOL    HW2 4416   0.709   1.874   0.508
 1284SOL     OW 4417   0.197   2.838   1.264
 1284SOL    HW1 4418   0.286   2.793   1.250
 1284SOL    HW2 4419   0.124   2.773   1.245
 1285SOL     OW 4420   1.525   2.861   0.190
 1285SOL    HW1 4421   1.462   2.785   0.203
 1285SOL    HW2 4422   1.573   2.879   0.276
 1286SOL     OW 4423   1.187   3.654   1.616
 1286SOL    HW1 4424   1.211   3.714   1.540
 1286SOL    HW2 4425   1.194   3.559   1.586
 1287SOL     OW 4426   0.317   2.113   1.801
 1287SOL    HW1 4427   0.388   2.184   1.807
 1287SOL    HW2 4428   0.229   2.152   1.829
 1288SOL     OW 4429   1.466   3.279   0.953
 1288SOL    HW1 4430   1.407   3.285   1.033
 1288SOL    HW2 4431   1.451   3.191   0.907
 1289SOL     OW 4432   1.667   3.576   0.572
 1289SOL    HW1 4433   1.626   3.553   0.484
 1289SOL    HW2 4434   1.649   3.502   0.637
 1290SOL     OW 4435   0.598   2.591   0.270
 1290SOL    HW1 4436   0.622   2.660   0.202
 1290SOL    HW2 4437   0.520   2.624   0.324
 1291SOL     OW 4438   1.281   2.207   0.944
 1291SOL    HW1 4439   1.195   2.157   0.931
 1291SOL    HW2 4440   1.343   2.153   1.000
 1292SOL     OW 4441   1.576   3.524   0.307
 1292SOL    HW1 4442   1.665   3.570   0.310
 1292SOL    HW2 4443   1.555   3.500   0.212
 1293SOL     OW 4444   0.807   2.467   1.465
 1293SOL    HW1 4445   0.760   2.464   1.554
 1293SOL    HW2 4446   0.756   2.412   1.399
 1294SOL     OW 4447   1.394   2.331   1.674
 1294SOL    HW1 4448   1.374   2.374   1.762
 1294SOL    HW2 4449   1.472   2.269   1.683
 1295SOL     OW 4450   0.973   2.752   1.572
 1295SOL    HW1 4451   1.019   2.668   1.543
 1295SOL    HW2 4452   0.917   2.786   1.497
 1296SOL     OW 4453   0.991   2.272   1.242
 1296SOL    HW1 4454   0.914   2.306   1.296
 1296SOL    HW2 4455   0.957   2.221   1.163
 1297SOL     OW 4456   1.041   2.563   0.429
 1297SOL    HW1 4457   1.067   2.559   0.525
 1297SOL    HW2 4458   0.956   2.512   0.415
 1298SOL     OW 4459   0.076   2.673   0.789
 1298SOL    HW1 4460   0.175   2.661   0.798
 1298SOL    HW2 4461   0.052   2.768   0.810
 1299SOL     OW 4462   0.130   3.683   1.571
 1299SOL    HW1 4463   0.120   3.668   1.670
 1299SOL    HW2 4464   0.044   3.719   1.535
 1300SOL     OW 4465   0.865   2.210   0.195
 1300SOL    HW1 4466   0.924   2.273   0.146
 1300SOL    HW2 4467   0.884   2.116   0.166
 1301SOL     OW 4468   1.719   2.447   1.831
 1301SOL    HW1 4469   1.693   2.536   1.795
 1301SOL    HW2 4470   1.717   2.379   1.758
 1302SOL     OW 4471   1.362   3.006   0.545
 1302SOL    HW1 4472   1.445   2.977   0.497
 1302SOL    HW2 4473   1.313   3.073   0.489
 1303SOL     OW 4474   0.550   2.058   0.885
 1303SOL    HW1 4475   0.545   2.053   0.985
 1303SOL    HW2 4476   0.552   2.154   0.856
 1304SOL     OW 4477   1.008   3.318   0.477
 1304SOL    HW1 4478   0.962   3.390   0.425
 1304SOL    HW2 4479   1.004   3.338   0.575
 1305SOL     OW 4480   0.351   3.663   0.853
 1305SOL    HW1 4481   0.401   3.577   0.859
 1305SOL    HW2 4482   0.416   3.740   0.850
 1306SOL     OW 4483   1.795   2.928   0.873
 1306SOL    HW1 4484   1.733   2.913   0.797
 1306SOL    HW2 4485   1.743   2.939   0.958
 1307SOL     OW 4486   1.227   3.412   1.506
 1307SOL    HW1 4487   1.233   3.335   1.570
 1307SOL    HW2 4488   1.175   3.386   1.426
 1308SOL     OW 4489   0.321   2.805   0.242
 1308SOL    HW1 4490   0.403   2.844   0.200
 1308SOL    HW2 4491   0.294   2.723   0.193
 1309SOL     OW 4492   1.458   2.597   0.728
 1309SOL    HW1 4493   1.453   2.532   0.803
 1309SOL    HW2 4494   1.538   2.656   0.741
 1310SOL     OW 4495   0.461   3.128   1.727
 1310SOL    HW1 4496   0.411   3.129   1.641
 1310SOL    HW2 4497   0.398   3.110   1.803
 1311SOL     OW 4498   1.111   3.638   0.237
 1311SOL    HW1 4499   1.051   3.576   0.287
 1311SOL    HW2 4500   1.142   3.594   0.152
 1312SOL     OW 4501   0.202   2.147   1.498
 1312SOL    HW1 4502   0.122   2.207   1.485
 1312SOL    HW2 4503   0.192   2.098   1.584
 1313SOL     OW 4504   1.632   3.239   0.081
 1313SOL    HW1 4505   1.600   3.333   0.071
 1313SOL    HW2 4506   1.556   3.176   0.069
 1314SOL     OW 4507   0.464   3.605   0.323
 1314SOL    HW1 4508   0.497   3.644   0.409
 1314SOL    HW2 4509   0.540   3.598   0.258
 1315SOL     OW 4510   1.400   1.969   0.426
 1315SOL    HW1 4511   1.376   1.932   0.336
 1315SOL    HW2 4512   1.499   1.985   0.430
 1316SOL     OW 4513   0.249   3.647   1.241
 1316SOL    HW1 4514   0.306   3.582   1.291
 1316SOL    HW2 4515   0.233   3.614   1.148
 1317SOL     OW 4516   0.940   3.560   0.904
 1317SOL    HW1 4517   1.020   3.503   0.925
 1317SOL    HW2 4518   0.891   3.520   0.827
 1318SOL     OW 4519   0.382   2.562   0.480
 1318SOL    HW1 4520   0.427   2.472   0.477
 1318SOL    HW2 4521   0.288   2.551   0.513
 1319SOL     OW 4522   1.547   2.084   1.729
 1319SOL    HW1 4523   1.542   2.121   1.821
 1319SOL    HW2 4524   1.475   2.015   1.717
 1320SOL     OW 4525   0.614   1.984   0.117
 1320SOL    HW1 4526   0.712   1.962   0.124
 1320SOL    HW2 4527   0.583   1.967   0.024
 1321SOL     OW 4528   0.781   2.126   1.749
 1321SOL    HW1 4529   0.848   2.065   1.792
 1321SOL    HW2 4530   0.708   2.145   1.814
 1322SOL     OW 4531   0.888   3.376   1.195
 1322SOL    HW1 4532   0.865   3.351   1.101
 1322SOL    HW2 4533   0.949   3.307   1.234
 1323SOL     OW 4534   1.351   2.452   1.433
 1323SOL    HW1 4535   1.379   2.409   1.518
 1323SOL    HW2 4536   1.376   2.548   1.434
 1324SOL     OW 4537   0.803   3.264   0.924
 1324SOL    HW1 4538   0.893   3.278   0.882
 1324SOL    HW2 4539   0.732   3.266   0.853
 1325SOL     OW 4540   0.922   2.365   0.899
 1325SOL    HW1 4541   0.897   2.356   0.803
 1325SOL    HW2 4542   0.970   2.283   0.930
 1326SOL     OW 4543   0.539   1.926   0.512
 1326SOL    HW1 4544   0.458   1.927   0.570
 1326SOL    HW2 4545   0.542   2.009   0.457
 1327SOL     OW 4546   1.434   3.050   0.041
 1327SOL    HW1 4547   1.466   2.974   0.098
 1327SOL    HW2 4548   1.342   3.077   0.071
 1328SOL     OW 4549   0.297   1.897   0.171
 1328SOL    HW1 4550   0.346   1.981   0.150
 1328SOL    HW2 4551   0.359   1.832   0.216
 1329SOL     OW 4552   0.935   2.098   0.480
 1329SOL    HW1 4553   0.887   2.139   0.402
 1329SOL    HW2 4554   1.034   2.096   0.461
 1330SOL     OW 4555   1.076   2.545   1.464
 1330SOL    HW1 4556   0.996   2.484   1.467
 1330SOL    HW2 4557   1.157   2.492   1.440
 1331SOL     OW 4558   1.227   3.432   0.793
 1331SOL    HW1 4559   1.248   3.506   0.728
 1331SOL    HW2 4560   1.295   3.432   0.866
 1332SOL     OW 4561   0.459   3.014   0.741
 1332SOL    HW1 4562   0.388   2.987   0.806
 1332SOL    HW2 4563   0.433   2.986   0.648
 1333SOL     OW 4564   1.271   3.659   0.591
 1333SOL    HW1 4565   1.315   3.723   0.527
 1333SOL    HW2 4566   1.221   3.711   0.661
 1334SOL     OW 4567   1.032   2.411   0.016
 1334SOL    HW1 4568   0.991   2.493  -0.023
 1334SOL    HW2 4569   1.096   2.437   0.089
 1335SOL     OW 4570   0.078   2.418   1.386
 1335SOL    HW1 4571   0.170   2.417   1.345
 1335SOL    HW2 4572   0.072   2.492   1.453
 1336SOL     OW 4573   0.561   2.084   1.147
 1336SOL    HW1 4574   0.599   2.000   1.184
 1336SOL    HW2 4575   0.473   2.103   1.191
 1337SOL     OW 4576   0.866   2.316   0.642
 1337SOL    HW1 4577   0.834   2.388   0.580
 1337SOL    HW2 4578   0.890   2.235   0.589
 1338SOL     OW 4579   1.017   1.901   0.753
 1338SOL    HW1 4580   0.945   1.906   0.684
 1338SOL    HW2 4581   0.993   1.832   0.822
 1339SOL     OW 4582   1.429   3.035   0.867
 1339SOL    HW1 4583   1.374   2.951   0.860
 1339SOL    HW2 4584   1.455   3.064   0.775
 1340SOL     OW 4585   1.466   2.452   0.992
 1340SOL    HW1 4586   1.436   2.357   0.999
 1340SOL    HW2 4587   1.539   2.468   1.058
 1341SOL     OW 4588   1.857   2.695   0.377
 1341SOL    HW1 4589   1.899   2.631   0.441
 1341SOL    HW2 4590   1.819   2.644   0.299
 1342SOL     OW 4591   0.488   3.247   0.174
 1342SOL    HW1 4592   0.401   3.232   0.221
 1342SOL    HW2 4593   0.471   3.273   0.079
 1343SOL     OW 4594   1.664   3.142   0.657
 1343SOL    HW1 4595   1.763   3.150   0.671
 1343SOL    HW2 4596   1.619   3.226   0.688
 1344SOL     OW 4597   1.390   2.437   0.078
 1344SOL    HW1 4598   1.336   2.416   0.159
 1344SOL    HW2 4599   1.481   2.396   0.087
 1345SOL     OW 4600   0.527   2.118   0.328
 1345SOL    HW1 4601   0.554   2.059   0.253
 1345SOL    HW2 4602   0.527   2.213   0.297
 1346SOL     OW 4603   1.754   3.085   1.588
 1346SOL    HW1 4604   1.845   3.046   1.575
 1346SOL    HW2 4605   1.762   3.181   1.612
 1347SOL     OW 4606   1.064   3.209   1.340
 1347SOL    HW1 4607   0.984   3.186   1.395
 1347SOL    HW2 4608   1.147   3.183   1.389
 1348SOL     OW 4609   1.592   3.491   1.625
 1348SOL    HW1 4610   1.619   3.525   1.535
 1348SOL    HW2 4611   1.671   3.453   1.671
 1349SOL     OW 4612   1.111   3.057   1.100
 1349SOL    HW1 4613   1.071   3.101   1.181
 1349SOL    HW2 4614   1.070   3.094   1.017
 1350SOL     OW 4615   1.638   2.961   1.079
 1350SOL    HW1 4616   1.643   3.042   1.138
 1350SOL    HW2 4617   1.552   2.963   1.028
 1351SOL     OW 4618   0.915   1.951   1.402
 1351SOL    HW1 4619   0.940   1.931   1.307
 1351SOL    HW2 4620   0.987   2.007   1.444
 1352SOL     OW 4621   0.980   2.978   1.719
 1352SOL    HW1 4622   0.881   2.984   1.729
 1352SOL    HW2 4623   1.003   2.898   1.663
 1353SOL     OW 4624   0.705   2.912   0.368
 1353SOL    HW1 4625   0.691   2.919   0.467
 1353SOL    HW2 4626   0.789   2.861   0.350
 1354SOL     OW 4627   0.410   2.675   1.251
 1354SOL    HW1 4628   0.496   2.687   1.301
 1354SOL    HW2 4629   0.368   2.588   1.278
 1355SOL     OW 4630   1.274   2.248   1.262
 1355SOL    HW1 4631   1.295   2.322   1.326
 1355SOL    HW2 4632   1.185   2.265   1.219
 1356SOL     OW 4633   0.064   3.426   1.331
 1356SOL    HW1 4634   0.018   3.508   1.297
 1356SOL    HW2 4635   0.162   3.445   1.340
 1357SOL     OW 4636   0.367   2.962   0.501
 1357SOL    HW1 4637   0.360   3.045   0.445
 1357SOL    HW2 4638   0.371   2.882   0.441
 1358SOL     OW 4639   0.566   2.399   0.865
 1358SOL    HW1 4640   0.578   2.465   0.791
 1358SOL    HW2 4641   0.612   2.433   0.948
 1359SOL     OW 4642   1.252   3.210   0.388
 1359SOL    HW1 4643   1.302   3.287   0.428
 1359SOL    HW2 4644   1.157   3.212   0.420
 1360SOL     OW 4645   1.272   3.307   1.142
 1360SOL    HW1 4646   1.319   3.320   1.229
 1360SOL    HW2 4647   1.206   3.233   1.151
 1361SOL     OW 4648   1.582   2.501   0.472
 1361SOL    HW1 4649   1.551   2.562   0.545
 1361SOL    HW2 4650   1.632   2.553   0.403
 1362SOL     OW 4651   0.354   3.372   1.329
 1362SOL    HW1 4652   0.333   3.328   1.242
 1362SOL    HW2 4653   0.451   3.398   1.332
 1363SOL     OW 4654   0.402   2.613   1.598
 1363SOL    HW1 4655   0.470   2.668   1.551
 1363SOL    HW2 4656   0.442   2.525   1.625
 1364SOL     OW 4657   1.587   2.641   1.670
 1364SOL    HW1 4658   1.495   2.679   1.665
 1364SOL    HW2 4659   1.647   2.688   1.605
 1365SOL     OW 4660   1.013   1.967   1.770
 1365SOL    HW1 4661   1.019   2.052   1.718
 1365SOL    HW2 4662   1.045   1.891   1.713
 1366SOL     OW 4663   0.504   1.912   1.740
 1366SOL    HW1 4664   0.462   1.855   1.670
 1366SOL    HW2 4665   0.438   1.981   1.772
 1367SOL     OW 4666   0.573   2.732   1.029
 1367SOL    HW1 4667   0.617   2.821   1.020
 1367SOL    HW2 4668   0.510   2.732   1.106
 1368SOL     OW 4669   1.360   2.724   1.045
 1368SOL    HW1 4670   1.285   2.724   0.979
 1368SOL    HW2 4671   1.397   2.632   1.054
 1369SOL     OW 4672   1.209   2.387   0.275
 1369SOL    HW1 4673   1.222   2.303   0.329
 1369SOL    HW2 4674   1.180   2.461   0.335
 1370SOL     OW 4675   0.307   2.075   1.231
 1370SOL    HW1 4676   0.284   2.112   1.321
 1370SOL    HW2 4677   0.277   1.980   1.225
 1371SOL     OW 4678   0.037   3.172   1.282
 1371SOL    HW1 4679   0.090   3.123   1.350
 1371SOL    HW2 4680   0.059   3.270   1.287
 1372SOL     OW 4681   0.732   2.496   1.064
 1372SOL    HW1 4682   0.791   2.470   0.988
 1372SOL    HW2 4683   0.704   2.592   1.053
 1373SOL     OW 4684   1.728   2.797   1.854
 1373SOL    HW1 4685   1.682   2.790   1.765
 1373SOL    HW2 4686   1.666   2.841   1.920
 1374SOL     OW 4687   0.307   1.925   0.618
 1374SOL    HW1 4688   0.296   2.019   0.651
 1374SOL    HW2 4689   0.302   1.862   0.695
 1375SOL     OW 4690   1.622   2.229   0.374
 1375SOL    HW1 4691   1.624   2.153   0.438
 1375SOL    HW2 4692   1.574   2.306   0.414
 1376SOL     OW 4693   1.023   2.628   0.966
 1376SOL    HW1 4694   1.038   2.649   1.062
 1376SOL    HW2 4695   0.993   2.533   0.957
 1377SOL     OW 4696   0.980   3.435   1.700
 1377SOL    HW1 4697   0.960   3.479   1.612
 1377SOL    HW2 4698   1.019   3.344   1.684
 1378SOL     OW 4699   1.859   3.380   1.605
 1378SOL    HW1 4700   1.873   3.407   1.510
 1378SOL    HW2 4701   1.942   3.402   1.658
 1379SOL     OW 4702   0.350   2.760   1.804
 1379SOL    HW1 4703   0.426   2.804   1.852
 1379SOL    HW2 4704   0.385   2.713   1.722
 1380SOL     OW 4705   1.540   2.136   0.125
 1380SOL    HW1 4706   1.479   2.061   0.148
 1380SOL    HW2 4707   1.562   2.188   0.208
 1381SOL     OW 4708   1.303   2.700   0.042
 1381SOL    HW1 4709   1.337   2.607   0.057
 1381SOL    HW2 4710   1.321   2.727  -0.053
 1382SOL     OW 4711   1.068   3.195   0.849
 1382SOL    HW1 4712   1.075   3.111   0.794
 1382SOL    HW2 4713   1.130   3.264   0.813
 1383SOL     OW 4714   0.319   2.672   0.949
 1383SOL    HW1 4715   0.412   2.708   0.954
 1383SOL    HW2 4716   0.313   2.587   1.001
 1384SOL     OW 4717   0.339   2.371   1.006
 1384SOL    HW1 4718   0.287   2.288   0.989
 1384SOL    HW2 4719   0.416   2.376   0.942
 1385SOL     OW 4720   1.138   2.242   1.678
 1385SOL    HW1 4721   1.093   2.305   1.742
 1385SOL    HW2 4722   1.231   2.273   1.661
 1386SOL     OW 4723   1.160   2.069   1.477
 1386SOL    HW1 4724   1.160   2.133   1.554
 1386SOL    HW2 4725   1.188   2.117   1.394
 1387SOL     OW 4726   0.008   3.188   0.200
 1387SOL    HW1 4727  -0.085   3.209   0.169
 1387SOL    HW2 4728   0.018   3.089   0.213
 1388SOL     OW 4729   0.088   3.663   0.927
 1388SOL    HW1 4730   0.046   3.577   0.900
 1388SOL    HW2 4731   0.182   3.666   0.893
 1389SOL     OW 4732   0.504   3.430   0.910
 1389SOL    HW1 4733   0.570   3.504   0.919
 1389SOL    HW2 4734   0.548   3.351   0.868
 1390SOL     OW 4735   1.002   2.658   1.238
 1390SOL    HW1 4736   1.043   2.626   1.324
 1390SOL    HW2 4737   0.906   2.631   1.235
 1391SOL     OW 4738   0.040   2.406   1.114
 1391SOL    HW1 4739   0.125   2.373   1.073
 1391SOL    HW2 4740   0.053   2.421   1.212
 1392SOL     OW 4741   0.189   2.382   1.722
 1392SOL    HW1 4742   0.248   2.342   1.652
 1392SOL    HW2 4743   0.131   2.453   1.681
 1393SOL     OW 4744   1.369   2.812   1.660
 1393SOL    HW1 4745   1.408   2.901   1.680
 1393SOL    HW2 4746   1.379   2.792   1.563
 1394SOL     OW 4747   0.815   2.434   0.325
 1394SOL    HW1 4748   0.822   2.345   0.279
 1394SOL    HW2 4749   0.721   2.468   0.317
 1395SOL     OW 4750   1.657   2.466   1.206
 1395SOL    HW1 4751   1.619   2.397   1.268
 1395SOL    HW2 4752   1.739   2.430   1.162
 1396SOL     OW 4753   0.252   3.426   1.744
 1396SOL    HW1 4754   0.222   3.483   1.820
 1396SOL    HW2 4755   0.245   3.329   1.770
 1397SOL     OW 4756   0.671   2.326   1.269
 1397SOL    HW1 4757   0.637   2.237   1.239
 1397SOL    HW2 4758   0.697   2.380   1.189
 1398SOL     OW 4759   0.930   3.540   1.465
 1398SOL    HW1 4760   0.906   3.522   1.370
 1398SOL    HW2 4761   0.960   3.634   1.475
 1399SOL     OW 4762   0.473   2.362   0.191
 1399SOL    HW1 4763   0.534   2.442   0.195
 1399SOL    HW2 4764   0.378   2.393   0.198
 1400SOL     OW 4765   0.159   2.999   1.466
 1400SOL    HW1 4766   0.181   2.938   1.542
 1400SOL    HW2 4767   0.169   2.950   1.380
 1401SOL     OW 4768   1.347   2.921   1.234
 1401SOL    HW1 4769   1.371   2.858   1.160
 1401SOL    HW2 4770   1.257   2.961   1.216
 1402SOL     OW 4771   1.302   2.717   0.309
 1402SOL    HW1 4772   1.216   2.686   0.351
 1402SOL    HW2 4773   1.298   2.703   0.210
 1403SOL     OW 4774   1.759   3.609   1.154
 1403SOL    HW1 4775   1.820   3.639   1.081
 1403SOL    HW2 4776   1.721   3.520   1.132
 1404SOL     OW 4777   1.252   3.593   1.128
 1404SOL    HW1 4778   1.336   3.598   1.074
 1404SOL    HW2 4779   1.229   3.497   1.146
 1405SOL     OW 4780   0.083   3.120   1.022
 1405SOL    HW1 4781   0.078   3.119   1.122
 1405SOL    HW2 4782   0.000   3.079   0.984
 1406SOL     OW 4783   0.688   3.524   1.716
 1406SOL    HW1 4784   0.632   3.605   1.725
 1406SOL    HW2 4785   0.740   3.528   1.630
 1407SOL     OW 4786   0.903   1.948   0.133
 1407SOL    HW1 4787   0.954   1.949   0.047
 1407SOL    HW2 4788   0.959   1.906   0.204
 1408SOL     OW 4789   1.726   1.997   0.523
 1408SOL    HW1 4790   1.799   1.980   0.456
 1408SOL    HW2 4791   1.695   1.910   0.561
 1409SOL     OW 4792   1.388   3.435   0.477
 1409SOL    HW1 4793   1.455   3.447   0.403
 1409SOL    HW2 4794   1.348   3.524   0.500
 1410SOL     OW 4795   0.130   3.656   1.851
 1410SOL    HW1 4796   0.089   3.582   1.904
 1410SOL    HW2 4797   0.194   3.707   1.909
 1411SOL     OW 4798   1.280   2.789   0.672
 1411SOL    HW1 4799   1.340   2.708   0.674
 1411SOL    HW2 4800   1.320   2.858   0.612
 1412SOL     OW 4801   0.830   3.135   1.422
 1412SOL    HW1 4802   0.825   3.168   1.517
 1412SOL    HW2 4803   0.744   3.154   1.376
 1413SOL     OW 4804   0.672   3.478   0.154
 1413SOL    HW1 4805   0.681   3.488   0.055
 1413SOL    HW2 4806   0.632   3.389   0.175
 1414SOL     OW 4807   1.650   3.582   1.394
 1414SOL    HW1 4808   1.703   3.592   1.310
 1414SOL    HW2 4809   1.623   3.672   1.428
 1415SOL     OW 4810   1.841   2.037   0.963
 1415SOL    HW1 4811   1.880   1.952   0.927
 1415SOL    HW2 4812   1.743   2.039   0.944
 1416SOL     OW 4813   0.263   2.188   0.720
 1416SOL    HW1 4814   0.184   2.239   0.686
 1416SOL    HW2 4815   0.254   2.173   0.818
 1417SOL     OW 4816   1.194   3.474   0.031
 1417SOL    HW1 4817   1.200   3.381   0.068
 1417SOL    HW2 4818   1.135   3.474  -0.049
 1418SOL     OW 4819   0.822   2.864   1.372
 1418SOL    HW1 4820   0.862   2.863   1.280
 1418SOL    HW2 4821   0.832   2.956   1.412
 1419SOL     OW 4822   0.916   2.772   0.291
 1419SOL    HW1 4823   0.979   2.810   0.223
 1419SOL    HW2 4824   0.956   2.689   0.330
 1420SOL     OW 4825   1.504   3.469   0.044
 1420SOL    HW1 4826   1.412   3.506   0.051
 1420SOL    HW2 4827   1.542   3.489  -0.046
 1421SOL     OW 4828   0.372   3.150   1.490
 1421SOL    HW1 4829   0.359   3.243   1.456
 1421SOL    HW2 4830   0.288   3.098   1.477
 1422SOL     OW 4831   1.614   3.154   1.289
 1422SOL    HW1 4832   1.674   3.157   1.369
 1422SOL    HW2 4833   1.539   3.218   1.302
 1423SOL     OW 4834   1.039   2.960   0.696
 1423SOL    HW1 4835   0.969   2.913   0.750
 1423SOL    HW2 4836   1.098   2.892   0.653
 1424SOL     OW 4837   1.014   2.098   0.971
 1424SOL    HW1 4838   1.006   2.062   0.878
 1424SOL    HW2 4839   1.012   2.022   1.036
 1425SOL     OW 4840   0.590   3.349   0.491
 1425SOL    HW1 4841   0.632   3.291   0.421
 1425SOL    HW2 4842   0.546   3.428   0.447
 1426SOL     OW 4843   1.709   2.247   1.381
 1426SOL    HW1 4844   1.782   2.316   1.385
 1426SOL    HW2 4845   1.737   2.172   1.322
 1427SOL     OW 4846   0.255   3.210   0.290
 1427SOL    HW1 4847   0.159   3.211   0.263
 1427SOL    HW2 4848   0.267   3.263   0.374
 1428SOL     OW 4849   0.105   2.875   1.726
 1428SOL    HW1 4850   0.028   2.842   1.780
 1428SOL    HW2 4851   0.190   2.845   1.768
 1429SOL     OW 4852   0.672   2.065   1.489
 1429SOL    HW1 4853   0.762   2.049   1.449
 1429SOL    HW2 4854   0.680   2.070   1.588
 1430SOL     OW 4855   0.075   2.207   0.033
 1430SOL    HW1 4856  -0.017   2.179   0.004
 1430SOL    HW2 4857   0.106   2.284  -0.023
 1431SOL     OW 4858   1.440   2.718   1.398
 1431SOL    HW1 4859   1.383   2.770   1.335
 1431SOL    HW2 4860   1.536   2.730   1.374
 1432SOL     OW 4861   0.072   2.028   0.318
 1432SOL    HW1 4862   0.055   2.111   0.264
 1432SOL    HW2 4863   0.162   1.991   0.296
 1433SOL     OW 4864   1.183   3.197   0.119
 1433SOL    HW1 4865   1.084   3.186   0.121
 1433SOL    HW2 4866   1.217   3.212   0.212
 1434SOL     OW 4867   0.613   2.704   1.431
 1434SOL    HW1 4868   0.669   2.785   1.414
 1434SOL    HW2 4869   0.672   2.624   1.434
 1435SOL     OW 4870   1.493   3.629   0.959
 1435SOL    HW1 4871   1.526   3.693   0.890
 1435SOL    HW2 4872   1.559   3.623   1.034
 1436SOL     OW 4873   0.716   2.427   1.708
 1436SOL    HW1 4874   0.735   2.492   1.782
 1436SOL    HW2 4875   0.776   2.347   1.717
 1437SOL     OW 4876   1.450   3.082   1.633
 1437SOL    HW1 4877   1.441   3.072   1.732
 1437SOL    HW2 4878   1.546   3.075   1.607
 1438SOL     OW 4879   0.390   3.603   1.560
 1438SOL    HW1 4880   0.299   3.644   1.558
 1438SOL    HW2 4881   0.383   3.509   1.592
 1439SOL     OW 4882   1.674   2.745   1.254
 1439SOL    HW1 4883   1.647   2.656   1.217
 1439SOL    HW2 4884   1.675   2.813   1.181
 1440SOL     OW 4885   1.225   2.187   0.449
 1440SOL    HW1 4886   1.290   2.113   0.438
 1440SOL    HW2 4887   1.245   2.237   0.533
 1441SOL     OW 4888   0.594   2.607   0.652
 1441SOL    HW1 4889   0.644   2.692   0.633
 1441SOL    HW2 4890   0.506   2.609   0.604
 1442SOL     OW 4891   1.777   2.204   1.642
 1442SOL    HW1 4892   1.760   2.235   1.548
 1442SOL    HW2 4893   1.693   2.167   1.680
 1443SOL     OW 4894   1.730   2.796   1.517
 1443SOL    HW1 4895   1.768   2.887   1.532
 1443SOL    HW2 4896   1.722   2.779   1.418
 1444SOL     OW 4897   0.859   3.236   0.016
 1444SOL    HW1 4898   0.813   3.251   0.104
 1444SOL    HW2 4899   0.903   3.321  -0.014
 1445SOL     OW 4900   0.661   3.652   0.953
 1445SOL    HW1 4901   0.615   3.740   0.940
 1445SOL    HW2 4902   0.760   3.664   0.946
 1446SOL     OW 4903   0.859   2.818   0.861
 1446SOL    HW1 4904   0.913   2.749   0.909
 1446SOL    HW2 4905   0.827   2.887   0.927
 1447SOL     OW 4906   1.083   2.846   0.087
 1447SOL    HW1 4907   1.060   2.899   0.005
 1447SOL    HW2 4908   1.164   2.790   0.068
 1448SOL     OW 4909   1.861   3.431   0.851
 1448SOL    HW1 4910   1.790   3.419   0.781
 1448SOL    HW2 4911   1.862   3.352   0.911
 1449SOL     OW 4912   0.221   3.176   1.844
 1449SOL    HW1 4913   0.156   3.103   1.823
 1449SOL    HW2 4914   0.225   3.190   1.942
 1450SOL     OW 4915   0.079   3.102   0.653
 1450SOL    HW1 4916   0.078   3.055   0.741
 1450SOL    HW2 4917   0.161   3.074   0.602
 1451SOL     OW 4918   0.672   3.253   1.624
 1451SOL    HW1 4919   0.594   3.203   1.662
 1451SOL    HW2 4920   0.669   3.348   1.655
 1452SOL     OW 4921   1.824   2.054   1.227
 1452SOL    HW1 4922   1.820   1.964   1.271
 1452SOL    HW2 4923   1.827   2.043   1.128
 1453SOL     OW 4924   0.428   2.286   0.520
 1453SOL    HW1 4925   0.458   2.214   0.458
 1453SOL    HW2 4926   0.389   2.246   0.603
 1454SOL     OW 4927   1.705   3.349   1.104
 1454SOL    HW1 4928   1.612   3.324   1.077
 1454SOL    HW2 4929   1.731   3.299   1.186
 1455SOL     OW 4930   0.317   2.409   1.280
 1455SOL    HW1 4931   0.355   2.350   1.352
 1455SOL    HW2 4932   0.357   2.383   1.192
 1456SOL     OW 4933   0.812   3.448   0.687
 1456SOL    HW1 4934   0.844   3.458   0.593
 1456SOL    HW2 4935   0.733   3.386   0.689
 1457SOL     OW 4936   1.424   2.076   1.112
 1457SOL    HW1 4937   1.476   2.011   1.167
 1457SOL    HW2 4938   1.375   2.139   1.173
 1458SOL     OW 4939   1.001   1.896   1.154
 1458SOL    HW1 4940   0.938   1.824   1.123
 1458SOL    HW2 4941   1.094   1.860   1.154
 1459SOL     OW 4942   0.770   3.192   0.301
 1459SOL    HW1 4943   0.724   3.105   0.318
 1459SOL    HW2 4944   0.861   3.189   0.342
 1460SOL     OW 4945   0.618   3.429   1.284
 1460SOL    HW1 4946   0.613   3.511   1.341
 1460SOL    HW2 4947   0.707   3.426   1.239
 1461SOL     OW 4948   1.352   1.914   0.168
 1461SOL    HW1 4949   1.387   1.873   0.084
 1461SOL    HW2 4950   1.262   1.876   0.188
 1462SOL     OW 4951   1.300   2.315   0.691
 1462SOL    HW1 4952   1.241   2.395   0.695
 1462SOL    HW2 4953   1.315   2.280   0.784
 1463SOL     OW 4954   1.593   2.083   0.882
 1463SOL    HW1 4955   1.509   2.082   0.936
 1463SOL    HW2 4956   1.595   2.166   0.826
 1464SOL     OW 4957   0.039   2.939   0.300
 1464SOL    HW1 4958   0.138   2.928   0.291
 1464SOL    HW2 4959  -0.001   2.853   0.332
 1465SOL     OW 4960   0.875   3.508   0.337
 1465SOL    HW1 4961   0.798   3.473   0.283
 1465SOL    HW2 4962   0.843   3.579   0.399
 1466SOL     OW 4963   0.230   2.490   1.975
 1466SOL    HW1 4964   0.137   2.488   2.012
 1466SOL    HW2 4965   0.231   2.451   1.883
 1467SOL     OW 4966   0.225   2.137   2.858
 1467SOL    HW1 4967   0.260   2.120   2.950
 1467SOL    HW2 4968   0.137   2.092   2.846
 1468SOL     OW 4969   0.019   2.230   2.509
 1468SOL    HW1 4970  -0.063   2.273   2.548
 1468SOL    HW2 4971  -0.009   2.157   2.446
 1469SOL     OW 4972   0.569   3.137   3.027
 1469SOL    HW1 4973   0.476   3.130   2.990
 1469SOL    HW2 4974   0.580   3.226   3.071
 1470SOL     OW 4975   1.555   3.373   2.565
 1470SOL    HW1 4976   1.498   3.357   2.646
 1470SOL    HW2 4977   1.496   3.383   2.485
 1471SOL     OW 4978   1.135   2.565   2.579
 1471SOL    HW1 4979   1.192   2.643   2.554
 1471SOL    HW2 4980   1.075   2.591   2.655
 1472SOL     OW 4981   1.755   2.469   2.093
 1472SOL    HW1 4982   1.743   2.456   1.994
 1472SOL    HW2 4983   1.725   2.388   2.142
 1473SOL     OW 4984   0.768   3.006   2.885
 1473SOL    HW1 4985   0.690   3.023   2.945
 1473SOL    HW2 4986   0.802   3.093   2.849
 1474SOL     OW 4987   0.850   2.660   3.685
 1474SOL    HW1 4988   0.846   2.736   3.750
 1474SOL    HW2 4989   0.872   2.696   3.594
 1475SOL     OW 4990   0.685   2.874   2.527
 1475SOL    HW1 4991   0.754   2.858   2.597
 1475SOL    HW2 4992   0.612   2.931   2.565
 1476SOL     OW 4993   0.686   3.023   3.665
 1476SOL    HW1 4994   0.746   3.102   3.679
 1476SOL    HW2 4995   0.600   3.054   3.624
 1477SOL     OW 4996   0.335   3.297   2.923
 1477SOL    HW1 4997   0.257   3.266   2.870
 1477SOL    HW2 4998   0.393   3.355   2.866
 1478SOL     OW 4999   1.460   3.367   3.201
 1478SOL    HW1 5000   1.484   3.461   3.227
 1478SOL    HW2 5001   1.444   3.313   3.283
 1479SOL     OW 5002   0.438   2.254   3.361
 1479SOL    HW1 5003   0.520   2.198   3.370
 1479SOL    HW2 5004   0.357   2.196   3.365
 1480SOL     OW 5005   1.603   2.309   2.599
 1480SOL    HW1 5006   1.529   2.355   2.549
 1480SOL    HW2 5007   1.654   2.377   2.652
 1481SOL     OW 5008   0.231   3.575   2.345
 1481SOL    HW1 5009   0.265   3.652   2.399
 1481SOL    HW2 5010   0.275   3.575   2.255
 1482SOL     OW 5011   1.127   3.203   3.552
 1482SOL    HW1 5012   1.174   3.203   3.640
 1482SOL    HW2 5013   1.079   3.116   3.541
 1483SOL     OW 5014   0.230   3.296   2.400
 1483SOL    HW1 5015   0.204   3.392   2.400
 1483SOL    HW2 5016   0.159   3.242   2.445
 1484SOL     OW 5017   0.240   2.953   2.748
 1484SOL    HW1 5018   0.254   2.869   2.800
 1484SOL    HW2 5019   0.185   3.017   2.803
 1485SOL     OW 5020   0.620   3.648   3.301
 1485SOL    HW1 5021   0.528   3.631   3.336
 1485SOL    HW2 5022   0.648   3.740   3.327
 1486SOL     OW 5023   0.606   2.826   1.985
 1486SOL    HW1 5024   0.613   2.910   1.931
 1486SOL    HW2 5025   0.652   2.839   2.073
 1487SOL     OW 5026   1.594   1.976   3.342
 1487SOL    HW1 5027   1.576   2.043   3.270
 1487SOL    HW2 5028   1.591   2.022   3.431
 1488SOL     OW 5029   0.122   2.505   2.425
 1488SOL    HW1 5030   0.077   2.417   2.442
 1488SOL    HW2 5031   0.121   2.559   2.509
 1489SOL     OW 5032   1.842   3.629   2.221
 1489SOL    HW1 5033   1.896   3.600   2.301
 1489SOL    HW2 5034   1.872   3.719   2.192
 1490SOL     OW 5035   0.027   3.458   1.979
 1490SOL    HW1 5036   0.008   3.362   2.000
 1490SOL    HW2 5037  -0.006   3.516   2.054
 1491SOL     OW 5038   1.689   2.784   2.474
 1491SOL    HW1 5039   1.784   2.755   2.482
 1491SOL    HW2 5040   1.681   2.849   2.399
 1492SOL     OW 5041   1.641   2.970   2.294
 1492SOL    HW1 5042   1.727   2.972   2.242
 1492SOL    HW2 5043   1.655   3.017   2.382
 1493SOL     OW 5044   0.113   2.599   3.459
 1493SOL    HW1 5045   0.201   2.586   3.504
 1493SOL    HW2 5046   0.100   2.696   3.437
 1494SOL     OW 5047   0.613   3.227   2.588
 1494SOL    HW1 5048   0.564   3.140   2.597
 1494SOL    HW2 5049   0.590   3.270   2.501
 1495SOL     OW 5050   1.293   3.090   3.285
 1495SOL    HW1 5051   1.330   3.017   3.227
 1495SOL    HW2 5052   1.345   3.095   3.370
 1496SOL     OW 5053   0.809   1.866   2.364
 1496SOL    HW1 5054   0.849   1.957   2.355
 1496SOL    HW2 5055   0.709   1.874   2.370
 1497SOL     OW 5056   0.197   2.838   3.126
 1497SOL    HW1 5057   0.286   2.793   3.112
 1497SOL    HW2 5058   0.124   2.773   3.107
 1498SOL     OW 5059   1.525   2.861   2.052
 1498SOL    HW1 5060   1.462   2.785   2.065
 1498SOL    HW2 5061   1.573   2.879   2.138
 1499SOL     OW 5062   1.187   3.654   3.478
 1499SOL    HW1 5063   1.211   3.714   3.402
 1499SOL    HW2 5064   1.194   3.559   3.448
 1500SOL     OW 5065   0.317   2.113   3.663
 1500SOL    HW1 5066   0.388   2.184   3.669
 1500SOL    HW2 5067   0.229   2.152   3.691
 1501SOL     OW 5068   1.466   3.279   2.815
 1501SOL    HW1 5069   1.407   3.285   2.895
 1501SOL    HW2 5070   1.451   3.191   2.769
 1502SOL     OW 5071   1.667   3.576   2.434
 1502SOL    HW1 5072   1.626   3.553   2.346
 1502SOL    HW2 5073   1.649   3.502   2.499
 1503SOL     OW 5074   0.598   2.591   2.132
 1503SOL    HW1 5075   0.622   2.660   2.064
 1503SOL    HW2 5076   0.520   2.624   2.186
 1504SOL     OW 5077   1.281   2.207   2.806
 1504SOL    HW1 5078   1.195   2.157   2.793
 1504SOL    HW2 5079   1.343   2.153   2.862
 1505SOL     OW 5080   1.576   3.524   2.169
 1505SOL    HW1 5081   1.665   3.570   2.172
 1505SOL    HW2 5082   1.555   3.500   2.074
 1506SOL     OW 5083   0.807   2.467   3.327
 1506SOL    HW1 5084   0.760   2.464   3.416
 1506SOL    HW2 5085   0.756   2.412   3.261
 1507SOL     OW 5086   1.394   2.331   3.536
 1507SOL    HW1 5087   1.374   2.374   3.624
 1507SOL    HW2 5088   1.472   2.269   3.545
 1508SOL     OW 5089   0.973   2.752   3.434
 1508SOL    HW1 5090   1.019   2.668   3.405
 1508SOL    HW2 5091   0.917   2.786   3.359
 1509SOL     OW 5092   0.991   2.272   3.104
 1509SOL    HW1 5093   0.914   2.306   3.158
 1509SOL    HW2 5094   0.957   2.221   3.025
 1510SOL     OW 5095   1.041   2.563   2.291
 1510SOL    HW1 5096   1.067   2.559   2.387
 1510SOL    HW2 5097   0.956   2.512   2.277
 1511SOL     OW 5098   0.076   2.673   2.651
 1511SOL    HW1 5099   0.175   2.661   2.660
 1511SOL    HW2 5100   0.052   2.768   2.672
 1512SOL     OW 5101   0.130   3.683   3.433
 1512SOL    HW1 5102   0.120   3.668   3.532
 1512SOL    HW2 5103   0.044   3.719   3.397
 1513SOL     OW 5104   0.865   2.210   2.057
 1513SOL    HW1 5105   0.924   2.273   2.008
 1513SOL    HW2 5106   0.884   2.116   2.028
 1514SOL     OW 5107   1.719   2.447   3.693
 1514SOL    HW1 5108   1.693   2.536   3.657
 1514SOL    HW2 5109   1.717   2.379   3.620
 1515SOL     OW 5110   1.362   3.006   2.407
 1515SOL    HW1 5111   1.445   2.977   2.359
 1515SOL    HW2 5112   1.313   3.073   2.351
 1516SOL     OW 5113   0.550   2.058   2.747
 1516SOL    HW1 5114   0.545   2.053   2.847
 1516SOL    HW2 5115   0.552   2.154   2.718
 1517SOL     OW 5116   1.008   3.318   2.339
 1517SOL    HW1 5117   0.962   3.390   2.287
 1517SOL    HW2 5118   1.004   3.338   2.437
 1518SOL     OW 5119   0.351   3.663   2.715
 1518SOL    HW1 5120   0.401   3.577   2.721
 1518SOL    HW2 5121   0.416   3.740   2.712
 1519SOL     OW 5122   1.795   2.928   2.735
 1519SOL    HW1 5123   1.733   2.913   2.659
 1519SOL    HW2 5124   1.743   2.939   2.820
 1520SOL     OW 5125   1.227   3.412   3.368
 1520SOL    HW1 5126   1.233   3.335   3.432
 1520SOL    HW2 5127   1.175   3.386   3.288
 1521SOL     OW 5128   0.321   2.805   2.104
 1521SOL    HW1 5129   0.403   2.844   2.062
 1521SOL    HW2 5130   0.294   2.723   2.055
 1522SOL     OW 5131   1.458   2.597   2.590
 1522SOL    HW1 5132   1.453   2.532   2.665
 1522SOL    HW2 5133   1.538   2.656   2.603
 1523SOL     OW 5134   0.461   3.128   3.589
 1523SOL    HW1 5135   0.411   3.129   3.503
 1523SOL    HW2 5136   0.398   3.110   3.665
 1524SOL     OW 5137   1.111   3.638   2.099
 1524SOL    HW1 5138   1.051   3.576   2.149
 1524SOL    HW2 5139   1.142   3.594   2.014
 1525SOL     OW 5140   0.202   2.147   3.360
 1525SOL    HW1 5141   0.122   2.207   3.347
 1525SOL    HW2 5142   0.192   2.098   3.446
 1526SOL     OW 5143   1.632   3.239   1.943
 1526SOL    HW1 5144   1.600   3.333   1.933
 1526SOL    HW2 5145   1.556   3.176   1.931
 1527SOL     OW 5146   0.464   3.605   2.185
 1527SOL    HW1 5147   0.497   3.644   2.271
 1527SOL    HW2 5148   0.540   3.598   2.120
 1528SOL     OW 5149   1.400   1.969   2.288
 1528SOL    HW1 5150   1.376   1.932   2.198
 1528SOL    HW2 5151   1.499   1.985   2.292
 1529SOL     OW 5152   0.249   3.647   3.103
 1529SOL    HW1 5153   0.306   3.582   3.153
 1529SOL    HW2 5154   0.233   3.614   3.010
 1530SOL     OW 5155   0.940   3.560   2.766
 1530SOL    HW1 5156   1.020   3.503   2.787
 1530SOL    HW2 5157   0.891   3.520   2.689
 1531SOL     OW 5158   0.382   2.562   2.342
 1531SOL    HW1 5159   0.427   2.472   2.339
 1531SOL    HW2 5160   0.288   2.551   2.375
 1532SOL     OW 5161   1.547   2.084   3.591
 1532SOL    HW1 5162   1.542   2.121   3.683
 1532SOL    HW2 5163   1.475   2.015   3.579
 1533SOL     OW 5164   0.614   1.984   1.979
 1533SOL    HW1 5165   0.712   1.962   1.986
 1533SOL    HW2 5166   0.583   1.967   1.886
 1534SOL     OW 5167   0.781   2.126   3.611
 1534SOL    HW1 5168   0.848   2.065   3.654
 1534SOL    HW2 5169   0.708   2.145   3.676
 1535SOL     OW 5170   0.888   3.376   3.057
 1535SOL    HW1 5171   0.865   3.351   2.963
 1535SOL    HW2 5172   0.949   3.307   3.096
 1536SOL     OW 5173   1.351   2.452   3.295
 1536SOL    HW1 5174   1.379   2.409   3.380
 1536SOL    HW2 5175   1.376   2.548   3.296
 1537SOL     OW 5176   0.803   3.264   2.786
 1537SOL    HW1 5177   0.893   3.278   2.744
 1537SOL    HW2 5178   0.732   3.266   2.715
 1538SOL     OW 5179   0.922   2.365   2.761
 1538SOL    HW1 5180   0.897   2.356   2.665
 1538SOL    HW2 5181   0.970   2.283   2.792
 1539SOL     OW 5182   0.539   1.926   2.374
 1539SOL    HW1 5183   0.458   1.927   2.432
 1539SOL    HW2 5184   0.542   2.009   2.319
 1540SOL     OW 5185   1.434   3.050   1.903
 1540SOL    HW1 5186   1.466   2.974   1.960
 1540SOL    HW2 5187   1.342   3.077   1.933
 1541SOL     OW 5188   0.297   1.897   2.033
 1541SOL    HW1 5189   0.346   1.981   2.012
 1541SOL    HW2 5190   0.359   1.832   2.078
 1542SOL     OW 5191   0.935   2.098   2.342
 1542SOL    HW1 5192   0.887   2.139   2.264
 1542SOL    HW2 5193   1.034   2.096   2.323
 1543SOL     OW 5194   1.076   2.545   3.326
 1543SOL    HW1 5195   0.996   2.484   3.329
 1543SOL    HW2 5196   1.157   2.492   3.302
 1544SOL     OW 5197   1.227   3.432   2.655
 1544SOL    HW1 5198   1.248   3.506   2.590
 1544SOL    HW2 5199   1.295   3.432   2.728
 1545SOL     OW 5200   0.459   3.014   2.603
 1545SOL    HW1 5201   0.388   2.987   2.668
 1545SOL    HW2 5202   0.433   2.986   2.510
 1546SOL     OW 5203   1.271   3.659   2.453
 1546SOL    HW1 5204   1.315   3.723   2.389
 1546SOL    HW2 5205   1.221   3.711   2.523
 1547SOL     OW 5206   1.032   2.411   1.878
 1547SOL    HW1 5207   0.991   2.493   1.839
 1547SOL    HW2 5208   1.096   2.437   1.951
 1548SOL     OW 5209   0.078   2.418   3.248
 1548SOL    HW1 5210   0.170   2.417   3.207
 1548SOL    HW2 5211   0.072   2.492   3.315
 1549SOL     OW 5212   0.561   2.084   3.009
 1549SOL    HW1 5213   0.599   2.000   3.046
 1549SOL    HW2 5214   0.473   2.103   3.053
 1550SOL     OW 5215   0.866   2.316   2.504
 1550SOL    HW1 5216   0.834   2.388   2.442
 1550SOL    HW2 5217   0.890   2.235   2.451
 1551SOL     OW 5218   1.017   1.901   2.615
 1551SOL    HW1 5219   0.945   1.906   2.546
 1551SOL    HW2 5220   0.993   1.832   2.684
 1552SOL     OW 5221   1.429   3.035   2.729
 1552SOL    HW1 5222   1.374   2.951   2.722
 1552SOL    HW2 5223   1.455   3.064   2.637
 1553SOL     OW 5224   1.466   2.452   2.854
 1553SOL    HW1 5225   1.436   2.357   2.861
 1553SOL    HW2 5226   1.539   2.468   2.920
 1554SOL     OW 5227   1.857   2.695   2.239
 1554SOL    HW1 5228   1.899   2.631   2.303
 1554SOL    HW2 5229   1.819   2.644   2.161
 1555SOL     OW 5230   0.488   3.247   2.036
 1555SOL    HW1 5231   0.401   3.232   2.083
 1555SOL    HW2 5232   0.471   3.273   1.941
 1556SOL     OW 5233   1.664   3.142   2.519
 1556SOL    HW1 5234   1.763   3.150   2.533
 1556SOL    HW2 5235   1.619   3.226   2.550
 1557SOL     OW 5236   1.390   2.437   1.940
 1557SOL    HW1 5237   1.336   2.416   2.021
 1557SOL    HW2 5238   1.481   2.396   1.949
 1558SOL     OW 5239   0.527   2.118   2.190
 1558SOL    HW1 5240   0.554   2.059   2.115
 1558SOL    HW2 5241   0.527   2.213   2.159
 1559SOL     OW 5242   1.754   3.085   3.450
 1559SOL    HW1 5243   1.845   3.046   3.437
 1559SOL    HW2 5244   1.762   3.181   3.474
 1560SOL     OW 5245   1.064   3.209   3.202
 1560SOL    HW1 5246   0.984   3.186   3.257
 1560SOL    HW2 5247   1.147   3.183   3.251
 1561SOL     OW 5248   1.592   3.491   3.487
 1561SOL    HW1 5249   1.619   3.525   3.397
 1561SOL    HW2 5250   1.671   3.453   3.533
 1562SOL     OW 5251   1.111   3.057   2.962
 1562SOL    HW1 5252   1.071   3.101   3.043
 1562SOL    HW2 5253   1.070   3.094   2.879
 1563SOL     OW 5254   1.638   2.961   2.941
 1563SOL    HW1 5255   1.643   3.042   3.000
 1563SOL    HW2 5256   1.552   2.963   2.890
 1564SOL     OW 5257   0.915   1.951   3.264
 1564SOL    HW1 5258   0.940   1.931   3.169
 1564SOL    HW2 5259   0.987   2.007   3.306
 1565SOL     OW 5260   0.980   2.978   3.581
 1565SOL    HW1 5261   0.881   2.984   3.591
 1565SOL    HW2 5262   1.003   2.898   3.525
 1566SOL     OW 5263   0.705   2.912   2.230
 1566SOL    HW1 5264   0.691   2.919   2.329
 1566SOL    HW2 5265   0.789   2.861   2.212
 1567SOL     OW 5266   0.410   2.675   3.113
 1567SOL    HW1 5267   0.496   2.687   3.163
 1567SOL    HW2 5268   0.368   2.588   3.140
 1568SOL     OW 5269   1.274   2.248   3.124
 1568SOL    HW1 5270   1.295   2.322   3.188
 1568SOL    HW2 5271   1.185   2.265   3.081
 1569SOL     OW 5272   0.064   3.426   3.193
 1569SOL    HW1 5273   0.018   3.508   3.159
 1569SOL    HW2 5274   0.162   3.445   3.202
 1570SOL     OW 5275   0.367   2.962   2.363
 1570SOL    HW1 5276   0.360   3.045   2.307
 1570SOL    HW2 5277   0.371   2.882   2.303
 1571SOL     OW 5278   0.566   2.399   2.727
 1571SOL    HW1 5279   0.578   2.465   2.653
 1571SOL    HW2 5280   0.612   2.433   2.810
 1572SOL     OW 5281   1.252   3.210   2.250
 1572SOL    HW1 5282   1.302   3.287   2.290
 1572SOL    HW2 5283   1.157   3.212   2.282
 1573SOL     OW 5284   1.272   3.307   3.004
 1573SOL    HW1 5285   1.319   3.320   3.091
 1573SOL    HW2 5286   1.206   3.233   3.013
 1574SOL     OW 5287   1.582   2.501   2.334
 1574SOL    HW1 5288   1.551   2.562   2.407
 1574SOL    HW2 5289   1.632   2.553   2.265
 1575SOL     OW 5290   0.354   3.372   3.191
 1575SOL    HW1 5291   0.333   3.328   3.104
 1575SOL    HW2 5292   0.451   3.398   3.194
 1576SOL     OW 5293   0.402   2.613   3.460
 1576SOL    HW1 5294   0.470   2.668   3.413
 1576SOL    HW2 5295   0.442   2.525   3.487
 1577SOL     OW 5296   1.587   2.641   3.532
 1577SOL    HW1 5297   1.495   2.679   3.527
 1577SOL    HW2 5298   1.647   2.688   3.467
 1578SOL     OW 5299   1.013   1.967   3.632
 1578SOL    HW1 5300   1.019   2.052   3.580
 1578SOL    HW2 5301   1.045   1.891   3.575
 1579SOL     OW 5302   0.504   1.912   3.602
 1579SOL    HW1 5303   0.462   1.855   3.532
 1579SOL    HW2 5304   0.438   1.981   3.634
 1580SOL     OW 5305   0.573   2.732   2.891
 1580SOL    HW1 5306   0.617   2.821   2.882
 1580SOL    HW2 5307   0.510   2.732   2.968
 1581SOL     OW 5308   1.360   2.724   2.907
 1581SOL    HW1 5309   1.285   2.724   2.841
 1581SOL    HW2 5310   1.397   2.632   2.916
 1582SOL     OW 5311   1.209   2.387   2.137
 1582SOL    HW1 5312   1.222   2.303   2.191
 1582SOL    HW2 5313   1.180   2.461   2.197
 1583SOL     OW 5314   0.307   2.075   3.093
 1583SOL    HW1 5315   0.284   2.112   3.183
 1583SOL    HW2 5316   0.277   1.980   3.087
 1584SOL     OW 5317   0.037   3.172   3.144
 1584SOL    HW1 5318   0.090   3.123   3.212
 1584SOL    HW2 5319   0.059   3.270   3.149
 1585SOL     OW 5320   0.732   2.496   2.926
 1585SOL    HW1 5321   0.791   2.470   2.850
 1585SOL    HW2 5322   0.704   2.592   2.915
 1586SOL     OW 5323   1.728   2.797   3.716
 1586SOL    HW1 5324   1.682   2.790   3.627
 1586SOL    HW2 5325   1.666   2.841   3.782
 1587SOL     OW 5326   0.307   1.925   2.480
 1587SOL    HW1 5327   0.296   2.019   2.513
 1587SOL    HW2 5328   0.302   1.862   2.557
 1588SOL     OW 5329   1.622   2.229   2.236
 1588SOL    HW1 5330   1.624   2.153   2.300
 1588SOL    HW2 5331   1.574   2.306   2.276
 1589SOL     OW 5332   1.023   2.628   2.828
 1589SOL    HW1 5333   1.038   2.649   2.924
 1589SOL    HW2 5334   0.993   2.533   2.819
 1590SOL     OW 5335   0.980   3.435   3.562
 1590SOL    HW1 5336   0.960   3.479   3.474
 1590SOL    HW2 5337   1.019   3.344   3.546
 1591SOL     OW 5338   1.859   3.380   3.467
 1591SOL    HW1 5339   1.873   3.407   3.372
 1591SOL    HW2 5340   1.942   3.402   3.520
 1592SOL     OW 5341   0.350   2.760   3.666
 1592SOL    HW1 5342   0.426   2.804   3.714
 1592SOL    HW2 5343   0.385   2.713   3.584
 1593SOL     OW 5344   1.540   2.136   1.987
 1593SOL    HW1 5345   1.479   2.061   2.010
 1593SOL    HW2 5346   1.562   2.188   2.070
 1594SOL     OW 5347   1.303   2.700   1.904
 1594SOL    HW1 5348   1.337   2.607   1.919
 1594SOL    HW2 5349   1.321   2.727   1.809
 1595SOL     OW 5350   1.068   3.195   2.711
 1595SOL    HW1 5351   1.075   3.111   2.656
 1595SOL    HW2 5352   1.130   3.264   2.675
 1596SOL     OW 5353   0.319   2.672   2.811
 1596SOL    HW1 5354   0.412   2.708   2.816
 1596SOL    HW2 5355   0.313   2.587   2.863
 1597SOL     OW 5356   0.339   2.371   2.868
 1597SOL    HW1 5357   0.287   2.288   2.851
 1597SOL    HW2 5358   0.416   2.376   2.804
 1598SOL     OW 5359   1.138   2.242   3.540
 1598SOL    HW1 5360   1.093   2.305   3.604
 1598SOL    HW2 5361   1.231   2.273   3.523
 1599SOL     OW 5362   1.160   2.069   3.339
 1599SOL    HW1 5363   1.160   2.133   3.416
 1599SOL    HW2 5364   1.188   2.117   3.256
 1600SOL     OW 5365   0.008   3.188   2.062
 1600SOL    HW1 5366  -0.085   3.209   2.031
 1600SOL    HW2 5367   0.018   3.089   2.075
 1601SOL     OW 5368   0.088   3.663   2.789
 1601SOL    HW1 5369   0.046   3.577   2.762
 1601SOL    HW2 5370   0.182   3.666   2.755
 1602SOL     OW 5371   0.504   3.430   2.772
 1602SOL    HW1 5372   0.570   3.504   2.781
 1602SOL    HW2 5373   0.548   3.351   2.730
 1603SOL     OW 5374   1.002   2.658   3.100
 1603SOL    HW1 5375   1.043   2.626   3.186
 1603SOL    HW2 5376   0.906   2.631   3.097
 1604SOL     OW 5377   0.040   2.406   2.976
 1604SOL    HW1 5378   0.125   2.373   2.935
 1604SOL    HW2 5379   0.053   2.421   3.074
 1605SOL     OW 5380   0.189   2.382   3.584
 1605SOL    HW1 5381   0.248   2.342   3.514
 1605SOL    HW2 5382   0.131   2.453   3.543
 1606SOL     OW 5383   1.369   2.812   3.522
 1606SOL    HW1 5384   1.408   2.901   3.542
 1606SOL    HW2 5385   1.379   2.792   3.425
 1607SOL     OW 5386   0.815   2.434   2.187
 1607SOL    HW1 5387   0.822   2.345   2.141
 1607SOL    HW2 5388   0.721   2.468   2.179
 1608SOL     OW 5389   1.657   2.466   3.068
 1608SOL    HW1 5390   1.619   2.397   3.130
 1608SOL    HW2 5391   1.739   2.430   3.024
 1609SOL     OW 5392   0.252   3.426   3.606
 1609SOL    HW1 5393   0.222   3.483   3.682
 1609SOL    HW2 5394   0.245   3.329   3.632
 1610SOL     OW 5395   0.671   2.326   3.131
 1610SOL    HW1 5396   0.637   2.237   3.101
 1610SOL    HW2 5397   0.697   2.380   3.051
 1611SOL     OW 5398   0.930   3.540   3.327
 1611SOL    HW1 5399   0.906   3.522   3.232
 1611SOL    HW2 5400   0.960   3.634   3.337
 1612SOL     OW 5401   0.473   2.362   2.053
 1612SOL    HW1 5402   0.534   2.442   2.057
 1612SOL    HW2 5403   0.378   2.393   2.060
 1613SOL     OW 5404   0.159   2.999   3.328
 1613SOL    HW1 5405   0.181   2.938   3.404
 1613SOL    HW2 5406   0.169   2.950   3.242
 1614SOL     OW 5407   1.347   2.921   3.096
 1614SOL    HW1 5408   1.371   2.858   3.022
 1614SOL    HW2 5409   1.257   2.961   3.078
 1615SOL     OW 5410   1.302   2.717   2.171
 1615SOL    HW1 5411   1.216   2.686   2.213
 1615SOL    HW2 5412   1.298   2.703   2.072
 1616SOL     OW 5413   1.759   3.609   3.016
 1616SOL    HW1 5414   1.820   3.639   2.943
 1616SOL    HW2 5415   1.721   3.520   2.994
 1617SOL     OW 5416   1.252   3.593   2.990
 1617SOL    HW1 5417   1.336   3.598   2.936
 1617SOL    HW2 5418   1.229   3.497   3.008
 1618SOL     OW 5419   0.083   3.120   2.884
 1618SOL    HW1 5420   0.078   3.119   2.984
 1618SOL    HW2 5421   0.000   3.079   2.846
 1619SOL     OW 5422   0.688   3.524   3.578
 1619SOL    HW1 5423   0.632   3.605   3.587
 1619SOL    HW2 5424   0.740   3.528   3.492
 1620SOL     OW 5425   1.726   1.997   2.385
 1620SOL    HW1 5426   1.799   1.980   2.318
 1620SOL    HW2 5427   1.695   1.910   2.423
 1621SOL     OW 5428   1.388   3.435   2.339
 1621SOL    HW1 5429   1.455   3.447   2.265
 1621SOL    HW2 5430   1.348   3.524   2.362
 1622SOL     OW 5431   0.130   3.656   3.713
 1622SOL    HW1 5432   0.089   3.582   3.766
 1622SOL    HW2 5433   0.194   3.707   3.771
 1623SOL     OW 5434   1.280   2.789   2.534
 1623SOL    HW1 5435   1.340   2.708   2.536
 1623SOL    HW2 5436   1.320   2.858   2.474
 1624SOL     OW 5437   0.830   3.135   3.284
 1624SOL    HW1 5438   0.825   3.168   3.379
 1624SOL    HW2 5439   0.744   3.154   3.238
 1625SOL     OW 5440   0.672   3.478   2.016
 1625SOL    HW1 5441   0.681   3.488   1.917
 1625SOL    HW2 5442   0.632   3.389   2.037
 1626SOL     OW 5443   1.650   3.582   3.256
 1626SOL    HW1 5444   1.703   3.592   3.172
 1626SOL    HW2 5445   1.623   3.672   3.290
 1627SOL     OW 5446   1.841   2.037   2.825
 1627SOL    HW1 5447   1.880   1.952   2.789
 1627SOL    HW2 5448   1.743   2.039   2.806
 1628SOL     OW 5449   0.263   2.188   2.582
 1628SOL    HW1 5450   0.184   2.239   2.548
 1628SOL    HW2 5451   0.254   2.173   2.680
 1629SOL     OW 5452   1.194   3.474   1.893
 1629SOL    HW1 5453   1.200   3.381   1.930
 1629SOL    HW2 5454   1.135   3.474   1.813
 1630SOL     OW 5455   0.822   2.864   3.234
 1630SOL    HW1 5456   0.862   2.863   3.142
 1630SOL    HW2 5457   0.832   2.956   3.274
 1631SOL     OW 5458   0.916   2.772   2.153
 1631SOL    HW1 5459   0.979   2.810   2.085
 1631SOL    HW2 5460   0.956   2.689   2.192
 1632SOL     OW 5461   1.504   3.469   1.906
 1632SOL    HW1 5462   1.412   3.506   1.913
 1632SOL    HW2 5463   1.542   3.489   1.816
 1633SOL     OW 5464   0.372   3.150   3.352
 1633SOL    HW1 5465   0.359   3.243   3.318
 1633SOL    HW2 5466   0.288   3.098   3.339
 1634SOL     OW 5467   1.614   3.154   3.151
 1634SOL    HW1 5468   1.674   3.157   3.231
 1634SOL    HW2 5469   1.539   3.218   3.164
 1635SOL     OW 5470   1.039   2.960   2.558
 1635SOL    HW1 5471   0.969   2.913   2.612
 1635SOL    HW2 5472   1.098   2.892   2.515
 1636SOL     OW 5473   1.014   2.098   2.833
 1636SOL    HW1 5474   1.006   2.062   2.740
 1636SOL    HW2 5475   1.012   2.022   2.898
 1637SOL     OW 5476   0.590   3.349   2.353
 1637SOL    HW1 5477   0.632   3.291   2.283
 1637SOL    HW2 5478   0.546   3.428   2.309
 1638SOL     OW 5479   1.709   2.247   3.243
 1638SOL    HW1 5480   1.782   2.316   3.247
 1638SOL    HW2 5481   1.737   2.172   3.184
 1639SOL     OW 5482   0.255   3.210   2.152
 1639SOL    HW1 5483   0.159   3.211   2.125
 1639SOL    HW2 5484   0.267   3.263   2.236
 1640SOL     OW 5485   0.105   2.875   3.588
 1640SOL    HW1 5486   0.028   2.842   3.642
 1640SOL    HW2 5487   0.190   2.845   3.630
 1641SOL     OW 5488   0.672   2.065   3.351
 1641SOL    HW1 5489   0.762   2.049   3.311
 1641SOL    HW2 5490   0.680   2.070   3.450
 1642SOL     OW 5491   0.075   2.207   1.895
 1642SOL    HW1 5492  -0.017   2.179   1.866
 1642SOL    HW2 5493   0.106   2.284   1.839
 1643SOL     OW 5494   1.440   2.718   3.260
 1643SOL    HW1 5495   1.383   2.770   3.197
 1643SOL    HW2 5496   1.536   2.730   3.236
 1644SOL     OW 5497   0.072   2.028   2.180
 1644SOL    HW1 5498   0.055   2.111   2.126
 1644SOL    HW2 5499   0.162   1.991   2.158
 1645SOL     OW 5500   1.183   3.197   1.981
 1645SOL    HW1 5501   1.084   3.186   1.983
 1645SOL    HW2 5502   1.217   3.212   2.074
 1646SOL     OW 5503   0.613   2.704   3.293
 1646SOL    HW1 5504   0.669   2.785   3.276
 1646SOL    HW2 5505   0.672   2.624   3.296
 1647SOL     OW 5506   1.493   3.629   2.821
 1647SOL    HW1 5507   1.526   3.693   2.752
 1647SOL    HW2 5508   1.559   3.623   2.896
 1648SOL     OW 5509   0.716   2.427   3.570
 1648SOL    HW1 5510   0.735   2.492   3.644
 1648SOL    HW2 5511   0.776   2.347   3.579
 1649SOL     OW 5512   1.450   3.082   3.495
 1649SOL    HW1 5513   1.441   3.072   3.594
 1649SOL    HW2 5514   1.546   3.075   3.469
 1650SOL     OW 5515   0.390   3.603   3.422
 1650SOL    HW1 5516   0.299   3.644   3.420
 1650SOL    HW2 5517   0.383   3.509   3.454
 1651SOL     OW 5518   1.674   2.745   3.116
 1651SOL    HW1 5519   1.647   2.656   3.079
 1651SOL    HW2 5520   1.675   2.813   3.043
 1652SOL     OW 5521   1.225   2.187   2.311
 1652SOL    HW1 5522   1.290   2.113   2.300
 1652SOL    HW2 5523   1.245   2.237   2.395
 1653SOL     OW 5524   0.594   2.607   2.514
 1653SOL    HW1 5525   0.644   2.692   2.495
 1653SOL    HW2 5526   0.506   2.609   2.466
 1654SOL     OW 5527   1.777   2.204   3.504
 1654SOL    HW1 5528   1.760   2.235   3.410
 1654SOL    HW2 5529   1.693   2.167   3.542
 1655SOL     OW 5530   1.730   2.796   3.379
 1655SOL    HW1 5531   1.768   2.887   3.394
 1655SOL    HW2 5532   1.722   2.779   3.280
 1656SOL     OW 5533   0.859   3.236   1.878
 1656SOL    HW1 5534   0.813   3.251   1.966
 1656SOL    HW2 5535   0.903   3.321   1.848
 1657SOL     OW 5536   0.661   3.652   2.815
 1657SOL    HW1 5537   0.615   3.740   2.802
 1657SOL    HW2 5538   0.760   3.664   2.808
 1658SOL     OW 5539   0.859   2.818   2.723
 1658SOL    HW1 5540   0.913   2.749   2.771
 1658SOL    HW2 5541   0.827   2.887   2.789
 1659SOL     OW 5542   1.083   2.846   1.949
 1659SOL    HW1 5543   1.060   2.899   1.867
 1659SOL    HW2 5544   1.164   2.790   1.930
 1660SOL     OW 5545   1.861   3.431   2.713
 1660SOL    HW1 5546   1.790   3.419   2.643
 1660SOL    HW2 5547   1.862   3.352   2.773
 1661SOL     OW 5548   0.221   3.176   3.706
 1661SOL    HW1 5549   0.156   3.103   3.685
 1661SOL    HW2 5550   0.225   3.190   3.804
 1662SOL     OW 5551   0.079   3.102   2.515
 1662SOL    HW1 5552   0.078   3.055   2.603
 1662SOL    HW2 5553   0.161   3.074   2.464
 1663SOL     OW 5554   0.672   3.253   3.486
 1663SOL    HW1 5555   0.594   3.203   3.524
 1663SOL    HW2 5556   0.669   3.348   3.517
 1664SOL     OW 5557   1.824   2.054   3.089
 1664SOL    HW1 5558   1.820   1.964   3.133
 1664SOL    HW2 5559   1.827   2.043   2.990
 1665SOL     OW 5560   0.428   2.286   2.382
 1665SOL    HW1 5561   0.458   2.214   2.320
 1665SOL    HW2 5562   0.389   2.246   2.465
 1666SOL     OW 5563   1.705   3.349   2.966
 1666SOL    HW1 5564   1.612   3.324   2.939
 1666SOL    HW2 5565   1.731   3.299   3.048
 1667SOL     OW 5566   0.317   2.409   3.142
 1667SOL    HW1 5567   0.355   2.350   3.214
 1667SOL    HW2 5568   0.357   2.383   3.054
 1668SOL     OW 5569   0.812   3.448   2.549
 1668SOL    HW1 5570   0.844   3.458   2.455
 1668SOL    HW2 5571   0.733   3.386   2.551
 1669SOL     OW 5572   1.424   2.076   2.974
 1669SOL    HW1 5573   1.476   2.011   3.029
 1669SOL    HW2 5574   1.375   2.139   3.035
 1670SOL     OW 5575   1.001   1.896   3.016
 1670SOL    HW1 5576   0.938   1.824   2.985
 1670SOL    HW2 5577   1.094   1.860   3.016
 1671SOL     OW 5578   0.770   3.192   2.163
 1671SOL    HW1 5579   0.724   3.105   2.180
 1671SOL    HW2 5580   0.861   3.189   2.204
 1672SOL     OW 5581   0.618   3.429   3.146
 1672SOL    HW1 5582   0.613   3.511   3.203
 1672SOL    HW2 5583   0.707   3.426   3.101
 1673SOL     OW 5584   1.352   1.914   2.030
 1673SOL    HW1 5585   1.387   1.873   1.946
 1673SOL    HW2 5586   1.262   1.876   2.050
 1674SOL     OW 5587   1.300   2.315   2.553
 1674SOL    HW1 5588   1.241   2.395   2.557
 1674SOL    HW2 5589   1.315   2.280   2.646
 1675SOL     OW 5590   1.593   2.083   2.744
 1675SOL    HW1 5591   1.509   2.082   2.798
 1675SOL    HW2 5592   1.595   2.166   2.688
 1676SOL     OW 5593   0.039   2.939   2.162
 1676SOL    HW1 5594   0.138   2.928   2.153
 1676SOL    HW2 5595  -0.001   2.853   2.194
 1677SOL     OW 5596   0.875   3.508   2.199
 1677SOL    HW1 5597   0.798   3.473   2.145
 1677SOL    HW2 5598   0.843   3.579   2.261
 1678SOL     OW 5599   0.230   2.490   3.837
 1678SOL    HW1 5600   0.137   2.488   3.874
 1678SOL    HW2 5601   0.231   2.451   3.745
 1679SOL     OW 5602   0.225   2.137   4.720
 1679SOL    HW1 5603   0.260   2.120   4.812
 1679SOL    HW2 5604   0.137   2.092   4.708
 1680SOL     OW 5605   0.019   2.230   4.371
 1680SOL    HW1 5606  -0.063   2.273   4.410
 1680SOL    HW2 5607  -0.009   2.157   4.308
 1681SOL     OW 5608   0.569   3.137   4.889
 1681SOL    HW1 5609   0.476   3.130   4.852
 1681SOL    HW2 5610   0.580   3.226   4.933
 1682SOL     OW 5611   1.555   3.373   4.427
 1682SOL    HW1 5612   1.498   3.357   4.508
 1682SOL    HW2 5613   1.496   3.383   4.347
 1683SOL     OW 5614   1.135   2.565   4.441
 1683SOL    HW1 5615   1.192   2.643   4.416
 1683SOL    HW2 5616   1.075   2.591   4.517
 1684SOL     OW 5617   1.755   2.469   3.955
 1684SOL    HW1 5618   1.743   2.456   3.856
 1684SOL    HW2 5619   1.725   2.388   4.004
 1685SOL     OW 5620   0.768   3.006   4.747
 1685SOL    HW1 5621   0.690   3.023   4.807
 1685SOL    HW2 5622   0.802   3.093   4.711
 1686SOL     OW 5623   0.850   2.660   5.547
 1686SOL    HW1 5624   0.846   2.736   5.612
 1686SOL    HW2 5625   0.872   2.696   5.456
 1687SOL     OW 5626   0.685   2.874   4.389
 1687SOL    HW1 5627   0.754   2.858   4.459
 1687SOL    HW2 5628   0.612   2.931   4.427
 1688SOL     OW 5629   0.686   3.023   5.527
 1688SOL    HW1 5630   0.746   3.102   5.541
 1688SOL    HW2 5631   0.600   3.054   5.486
 1689SOL     OW 5632   0.335   3.297   4.785
 1689SOL    HW1 5633   0.257   3.266   4.732
 1689SOL    HW2 5634   0.393   3.355   4.728
 1690SOL     OW 5635   1.460   3.367   5.063
 1690SOL    HW1 5636   1.484   3.461   5.089
 1690SOL    HW2 5637   1.444   3.313   5.145
 1691SOL     OW 5638   0.438   2.254   5.223
 1691SOL    HW1 5639   0.520   2.198   5.232
 1691SOL    HW2 5640   0.357   2.196   5.227
 1692SOL     OW 5641   1.603   2.309   4.461
 1692SOL    HW1 5642   1.529   2.355   4.411
 1692SOL    HW2 5643   1.654   2.377   4.514
 1693SOL     OW 5644   0.231   3.575   4.207
 1693SOL    HW1 5645   0.265   3.652   4.261
 1693SOL    HW2 5646   0.275   3.575   4.117
 1694SOL     OW 5647   1.127   3.203   5.414
 1694SOL    HW1 5648   1.174   3.203   5.502
 1694SOL    HW2 5649   1.079   3.116   5.403
 1695SOL     OW 5650   0.230   3.296   4.262
 1695SOL    HW1 5651   0.204   3.392   4.262
 1695SOL    HW2 5652   0.159   3.242   4.307
 1696SOL     OW 5653   0.240   2.953   4.610
 1696SOL    HW1 5654   0.254   2.869   4.662
 1696SOL    HW2 5655   0.185   3.017   4.665
 1697SOL     OW 5656   0.620   3.648   5.163
 1697SOL    HW1 5657   0.528   3.631   5.198
 1697SOL    HW2 5658   0.648   3.740   5.189
 1698SOL     OW 5659   0.606   2.826   3.847
 1698SOL    HW1 5660   0.613   2.910   3.793
 1698SOL    HW2 5661   0.652   2.839   3.935
 1699SOL     OW 5662   0.122   2.505   4.287
 1699SOL    HW1 5663   0.077   2.417   4.304
 1699SOL    HW2 5664   0.121   2.559   4.371
 1700SOL     OW 5665   1.842   3.629   4.083
 1700SOL    HW1 5666   1.896   3.600   4.163
 1700SOL    HW2 5667   1.872   3.719   4.054
 1701SOL     OW 5668   0.027   3.458   3.841
 1701SOL    HW1 5669   0.008   3.362   3.862
 1701SOL    HW2 5670  -0.006   3.516   3.916
 1702SOL     OW 5671   1.689   2.784   4.336
 1702SOL    HW1 5672   1.784   2.755   4.344
 1702SOL    HW2 5673   1.681   2.849   4.261
 1703SOL     OW 5674   1.641   2.970   4.156
 1703SOL    HW1 5675   1.727   2.972   4.104
 1703SOL    HW2 5676   1.655   3.017   4.244
 1704SOL     OW 5677   0.113   2.599   5.321
 1704SOL    HW1 5678   0.201   2.586   5.366
 1704SOL    HW2 5679   0.100   2.696   5.299
 1705SOL     OW 5680   0.613   3.227   4.450
 1705SOL    HW1 5681   0.564   3.140   4.459
 1705SOL    HW2 5682   0.590   3.270   4.363
 1706SOL     OW 5683   1.293   3.090   5.147
 1706SOL    HW1 5684   1.330   3.017   5.089
 1706SOL    HW2 5685   1.345   3.095   5.232
 1707SOL     OW 5686   0.809   1.866   4.226
 1707SOL    HW1 5687   0.849   1.957   4.217
 1707SOL    HW2 5688   0.709   1.874   4.232
 1708SOL     OW 5689   0.197   2.838   4.988
 1708SOL    HW1 5690   0.286   2.793   4.974
 1708SOL    HW2 5691   0.124   2.773   4.969
 1709SOL     OW 5692   1.525   2.861   3.914
 1709SOL    HW1 5693   1.462   2.785   3.927
 1709SOL    HW2 5694   1.573   2.879   4.000
 1710SOL     OW 5695   1.187   3.654   5.340
 1710SOL    HW1 5696   1.211   3.714   5.264
 1710SOL    HW2 5697   1.194   3.559   5.310
 1711SOL     OW 5698   0.317   2.113   5.525
 1711SOL    HW1 5699   0.388   2.184   5.531
 1711SOL    HW2 5700   0.229   2.152   5.553
 1712SOL     OW 5701   1.466   3.279   4.677
 1712SOL    HW1 5702   1.407   3.285   4.757
 1712SOL    HW2 5703   1.451   3.191   4.631
 1713SOL     OW 5704   1.667   3.576   4.296
 1713SOL    HW1 5705   1.626   3.553   4.208
 1713SOL    HW2 5706   1.649   3.502   4.361
 1714SOL     OW 5707   0.598   2.591   3.994
 1714SOL    HW1 5708   0.622   2.660   3.926
 1714SOL    HW2 5709   0.520   2.624   4.048
 1715SOL     OW 5710   1.281   2.207   4.668
 1715SOL    HW1 5711   1.195   2.157   4.655
 1715SOL    HW2 5712   1.343   2.153   4.724
 1716SOL     OW 5713   1.576   3.524   4.031
 1716SOL    HW1 5714   1.665   3.570   4.034
 1716SOL    HW2 5715   1.555   3.500   3.936
 1717SOL     OW 5716   0.807   2.467   5.189
 1717SOL    HW1 5717   0.760   2.464   5.278
 1717SOL    HW2 5718   0.756   2.412   5.123
 1718SOL     OW 5719   1.394   2.331   5.398
 1718SOL    HW1 5720   1.374   2.374   5.486
 1718SOL    HW2 5721   1.472   2.269   5.407
 1719SOL     OW 5722   0.973   2.752   5.296
 1719SOL    HW1 5723   1.019   2.668   5.267
 1719SOL    HW2 5724   0.917   2.786   5.221
 1720SOL     OW 5725   0.991   2.272   4.966
 1720SOL    HW1 5726   0.914   2.306   5.020
 1720SOL    HW2 5727   0.957   2.221   4.887
 1721SOL     OW 5728   1.041   2.563   4.153
 1721SOL    HW1 5729   1.067   2.559   4.249
 1721SOL    HW2 5730   0.956   2.512   4.139
 1722SOL     OW 5731   0.076   2.673   4.513
 1722SOL    HW1 5732   0.175   2.661   4.522
 1722SOL    HW2 5733   0.052   2.768   4.534
 1723SOL     OW 5734   0.130   3.683   5.295
 1723SOL    HW1 5735   0.120   3.668   5.394
 1723SOL    HW2 5736   0.044   3.719   5.259
 1724SOL     OW 5737   0.865   2.210   3.919
 1724SOL    HW1 5738   0.924   2.273   3.870
 1724SOL    HW2 5739   0.884   2.116   3.890
 1725SOL     OW 5740   1.362   3.006   4.269
 1725SOL    HW1 5741   1.445   2.977   4.221
 1725SOL    HW2 5742   1.313   3.073   4.213
 1726SOL     OW 5743   0.550   2.058   4.609
 1726SOL    HW1 5744   0.545   2.053   4.709
 1726SOL    HW2 5745   0.552   2.154   4.580
 1727SOL     OW 5746   1.008   3.318   4.201
 1727SOL    HW1 5747   0.962   3.390   4.149
 1727SOL    HW2 5748   1.004   3.338   4.299
 1728SOL     OW 5749   0.351   3.663   4.577
 1728SOL    HW1 5750   0.401   3.577   4.583
 1728SOL    HW2 5751   0.416   3.740   4.574
 1729SOL     OW 5752   1.795   2.928   4.597
 1729SOL    HW1 5753   1.733   2.913   4.521
 1729SOL    HW2 5754   1.743   2.939   4.682
 1730SOL     OW 5755   1.227   3.412   5.230
 1730SOL    HW1 5756   1.233   3.335   5.294
 1730SOL    HW2 5757   1.175   3.386   5.150
 1731SOL     OW 5758   0.321   2.805   3.966
 1731SOL    HW1 5759   0.403   2.844   3.924
 1731SOL    HW2 5760   0.294   2.723   3.917
 1732SOL     OW 5761   1.458   2.597   4.452
 1732SOL    HW1 5762   1.453   2.532   4.527
 1732SOL    HW2 5763   1.538   2.656   4.465
 1733SOL     OW 5764   0.461   3.128   5.451
 1733SOL    HW1 5765   0.411   3.129   5.365
 1733SOL    HW2 5766   0.398   3.110   5.527
 1734SOL     OW 5767   1.111   3.638   3.961
 1734SOL    HW1 5768   1.051   3.576   4.011
 1734SOL    HW2 5769   1.142   3.594   3.876
 1735SOL     OW 5770   0.202   2.147   5.222
 1735SOL    HW1 5771   0.122   2.207   5.209
 1735SOL    HW2 5772   0.192   2.098   5.308
 1736SOL     OW 5773   1.632   3.239   3.805
 1736SOL    HW1 5774   1.600   3.333   3.795
 1736SOL    HW2 5775   1.556   3.176   3.793
 1737SOL     OW 5776   0.464   3.605   4.047
 1737SOL    HW1 5777   0.497   3.644   4.133
 1737SOL    HW2 5778   0.540   3.598   3.982
 1738SOL     OW 5779   1.400   1.969   4.150
 1738SOL    HW1 5780   1.376   1.932   4.060
 1738SOL    HW2 5781   1.499   1.985   4.154
 1739SOL     OW 5782   0.249   3.647   4.965
 1739SOL    HW1 5783   0.306   3.582   5.015
 1739SOL    HW2 5784   0.233   3.614   4.872
 1740SOL     OW 5785   0.940   3.560   4.628
 1740SOL    HW1 5786   1.020   3.503   4.649
 1740SOL    HW2 5787   0.891   3.520   4.551
 1741SOL     OW 5788   0.382   2.562   4.204
 1741SOL    HW1 5789   0.427   2.472   4.201
 1741SOL    HW2 5790   0.288   2.551   4.237
 1742SOL     OW 5791   1.547   2.084   5.453
 1742SOL    HW1 5792   1.542   2.121   5.545
 1742SOL    HW2 5793   1.475   2.015   5.441
 1743SOL     OW 5794   0.614   1.984   3.841
 1743SOL    HW1 5795   0.712   1.962   3.848
 1743SOL    HW2 5796   0.583   1.967   3.748
 1744SOL     OW 5797   0.781   2.126   5.473
 1744SOL    HW1 5798   0.848   2.065   5.516
 1744SOL    HW2 5799   0.708   2.145   5.538
 1745SOL     OW 5800   0.888   3.376   4.919
 1745SOL    HW1 5801   0.865   3.351   4.825
 1745SOL    HW2 5802   0.949   3.307   4.958
 1746SOL     OW 5803   1.351   2.452   5.157
 1746SOL    HW1 5804   1.379   2.409   5.242
 1746SOL    HW2 5805   1.376   2.548   5.158
 1747SOL     OW 5806   0.803   3.264   4.648
 1747SOL    HW1 5807   0.893   3.278   4.606
 1747SOL    HW2 5808   0.732   3.266   4.577
 1748SOL     OW 5809   0.922   2.365   4.623
 1748SOL    HW1 5810   0.897   2.356   4.527
 1748SOL    HW2 5811   0.970   2.283   4.654
 1749SOL     OW 5812   0.539   1.926   4.236
 1749SOL    HW1 5813   0.458   1.927   4.294
 1749SOL    HW2 5814   0.542   2.009   4.181
 1750SOL     OW 5815   1.434   3.050   3.765
 1750SOL    HW1 5816   1.466   2.974   3.822
 1750SOL    HW2 5817   1.342   3.077   3.795
 1751SOL     OW 5818   0.297   1.897   3.895
 1751SOL    HW1 5819   0.346   1.981   3.874
 1751SOL    HW2 5820   0.359   1.832   3.940
 1752SOL     OW 5821   0.935   2.098   4.204
 1752SOL    HW1 5822   0.887   2.139   4.126
 1752SOL    HW2 5823   1.034   2.096   4.185
 1753SOL     OW 5824   1.076   2.545   5.188
 1753SOL    HW1 5825   0.996   2.484   5.191
 1753SOL    HW2 5826   1.157   2.492   5.164
 1754SOL     OW 5827   1.227   3.432   4.517
 1754SOL    HW1 5828   1.248   3.506   4.452
 1754SOL    HW2 5829   1.295   3.432   4.590
 1755SOL     OW 5830   0.459   3.014   4.465
 1755SOL    HW1 5831   0.388   2.987   4.530
 1755SOL    HW2 5832   0.433   2.986   4.372
 1756SOL     OW 5833   1.271   3.659   4.315
 1756SOL    HW1 5834   1.315   3.723   4.251
 1756SOL    HW2 5835   1.221   3.711   4.385
 1757SOL     OW 5836   1.032   2.411   3.740
 1757SOL    HW1 5837   0.991   2.493   3.701
 1757SOL    HW2 5838   1.096   2.437   3.813
 1758SOL     OW 5839   0.078   2.418   5.110
 1758SOL    HW1 5840   0.170   2.417   5.069
 1758SOL    HW2 5841   0.072   2.492   5.177
 1759SOL     OW 5842   0.561   2.084   4.871
 1759SOL    HW1 5843   0.599   2.000   4.908
 1759SOL    HW2 5844   0.473   2.103   4.915
 1760SOL     OW 5845   0.866   2.316   4.366
 1760SOL    HW1 5846   0.834   2.388   4.304
 1760SOL    HW2 5847   0.890   2.235   4.313
 1761SOL     OW 5848   1.017   1.901   4.477
 1761SOL    HW1 5849   0.945   1.906   4.408
 1761SOL    HW2 5850   0.993   1.832   4.546
 1762SOL     OW 5851   1.429   3.035   4.591
 1762SOL    HW1 5852   1.374   2.951   4.584
 1762SOL    HW2 5853   1.455   3.064   4.499
 1763SOL     OW 5854   1.857   2.695   4.101
 1763SOL    HW1 5855   1.899   2.631   4.165
 1763SOL    HW2 5856   1.819   2.644   4.023
 1764SOL     OW 5857   0.488   3.247   3.898
 1764SOL    HW1 5858   0.401   3.232   3.945
 1764SOL    HW2 5859   0.471   3.273   3.803
 1765SOL     OW 5860   1.664   3.142   4.381
 1765SOL    HW1 5861   1.763   3.150   4.395
 1765SOL    HW2 5862   1.619   3.226   4.412
 1766SOL     OW 5863   1.390   2.437   3.802
 1766SOL    HW1 5864   1.336   2.416   3.883
 1766SOL    HW2 5865   1.481   2.396   3.811
 1767SOL     OW 5866   0.527   2.118   4.052
 1767SOL    HW1 5867   0.554   2.059   3.977
 1767SOL    HW2 5868   0.527   2.213   4.021
 1768SOL     OW 5869   1.754   3.085   5.312
 1768SOL    HW1 5870   1.845   3.046   5.299
 1768SOL    HW2 5871   1.762   3.181   5.336
 1769SOL     OW 5872   1.064   3.209   5.064
 1769SOL    HW1 5873   0.984   3.186   5.119
 1769SOL    HW2 5874   1.147   3.183   5.113
 1770SOL     OW 5875   1.592   3.491   5.349
 1770SOL    HW1 5876   1.619   3.525   5.259
 1770SOL    HW2 5877   1.671   3.453   5.395
 1771SOL     OW 5878   1.111   3.057   4.824
 1771SOL    HW1 5879   1.071   3.101   4.905
 1771SOL    HW2 5880   1.070   3.094   4.741
 1772SOL     OW 5881   1.638   2.961   4.803
 1772SOL    HW1 5882   1.643   3.042   4.862
 1772SOL    HW2 5883   1.552   2.963   4.752
 1773SOL     OW 5884   0.915   1.951   5.126
 1773SOL    HW1 5885   0.940   1.931   5.031
 1773SOL    HW2 5886   0.987   2.007   5.168
 1774SOL     OW 5887   0.980   2.978   5.443
 1774SOL    HW1 5888   0.881   2.984   5.453
 1774SOL    HW2 5889   1.003   2.898   5.387
 1775SOL     OW 5890   0.705   2.912   4.092
 1775SOL    HW1 5891   0.691   2.919   4.191
 1775SOL    HW2 5892   0.789   2.861   4.074
 1776SOL     OW 5893   0.410   2.675   4.975
 1776SOL    HW1 5894   0.496   2.687   5.025
 1776SOL    HW2 5895   0.368   2.588   5.002
 1777SOL     OW 5896   1.274   2.248   4.986
 1777SOL    HW1 5897   1.295   2.322   5.050
 1777SOL    HW2 5898   1.185   2.265   4.943
 1778SOL     OW 5899   0.064   3.426   5.055
 1778SOL    HW1 5900   0.018   3.508   5.021
 1778SOL    HW2 5901   0.162   3.445   5.064
 1779SOL     OW 5902   0.367   2.962   4.225
 1779SOL    HW1 5903   0.360   3.045   4.169
 1779SOL    HW2 5904   0.371   2.882   4.165
 1780SOL     OW 5905   0.566   2.399   4.589
 1780SOL    HW1 5906   0.578   2.465   4.515
 1780SOL    HW2 5907   0.612   2.433   4.672
 1781SOL     OW 5908   1.252   3.210   4.112
 1781SOL    HW1 5909   1.302   3.287   4.152
 1781SOL    HW2 5910   1.157   3.212   4.144
 1782SOL     OW 5911   1.272   3.307   4.866
 1782SOL    HW1 5912   1.319   3.320   4.953
 1782SOL    HW2 5913   1.206   3.233   4.875
 1783SOL     OW 5914   1.582   2.501   4.196
 1783SOL    HW1 5915   1.551   2.562   4.269
 1783SOL    HW2 5916   1.632   2.553   4.127
 1784SOL     OW 5917   0.354   3.372   5.053
 1784SOL    HW1 5918   0.333   3.328   4.966
 1784SOL    HW2 5919   0.451   3.398   5.056
 1785SOL     OW 5920   0.402   2.613   5.322
 1785SOL    HW1 5921   0.470   2.668   5.275
 1785SOL    HW2 5922   0.442   2.525   5.349
 1786SOL     OW 5923   1.587   2.641   5.394
 1786SOL    HW1 5924   1.495   2.679   5.389
 1786SOL    HW2 5925   1.647   2.688   5.329
 1787SOL     OW 5926   1.013   1.967   5.494
 1787SOL    HW1 5927   1.019   2.052   5.442
 1787SOL    HW2 5928   1.045   1.891   5.437
 1788SOL     OW 5929   0.504   1.912   5.464
 1788SOL    HW1 5930   0.462   1.855   5.394
 1788SOL    HW2 5931   0.438   1.981   5.496
 1789SOL     OW 5932   0.573   2.732   4.753
 1789SOL    HW1 5933   0.617   2.821   4.744
 1789SOL    HW2 5934   0.510   2.732   4.830
 1790SOL     OW 5935   1.360   2.724   4.769
 1790SOL    HW1 5936   1.285   2.724   4.703
 1790SOL    HW2 5937   1.397   2.632   4.778
 1791SOL     OW 5938   1.209   2.387   3.999
 1791SOL    HW1 5939   1.222   2.303   4.053
 1791SOL    HW2 5940   1.180   2.461   4.059
 1792SOL     OW 5941   0.307   2.075   4.955
 1792SOL    HW1 5942   0.284   2.112   5.045
 1792SOL    HW2 5943   0.277   1.980   4.949
 1793SOL     OW 5944   0.037   3.172   5.006
 1793SOL    HW1 5945   0.090   3.123   5.074
 1793SOL    HW2 5946   0.059   3.270   5.011
 1794SOL     OW 5947   0.732   2.496   4.788
 1794SOL    HW1 5948   0.791   2.470   4.712
 1794SOL    HW2 5949   0.704   2.592   4.777
 1795SOL     OW 5950   1.728   2.797   5.578
 1795SOL    HW1 5951   1.682   2.790   5.489
 1795SOL    HW2 5952   1.666   2.841   5.644
 1796SOL     OW 5953   0.307   1.925   4.342
 1796SOL    HW1 5954   0.296   2.019   4.375
 1796SOL    HW2 5955   0.302   1.862   4.419
 1797SOL     OW 5956   1.622   2.229   4.098
 1797SOL    HW1 5957   1.624   2.153   4.162
 1797SOL    HW2 5958   1.574   2.306   4.138
 1798SOL     OW 5959   1.023   2.628   4.690
 1798SOL    HW1 5960   1.038   2.649   4.786
 1798SOL    HW2 5961   0.993   2.533   4.681
 1799SOL     OW 5962   0.980   3.435   5.424
 1799SOL    HW1 5963   0.960   3.479   5.336
 1799SOL    HW2 5964   1.019   3.344   5.408
 1800SOL     OW 5965   1.859   3.380   5.329
 1800SOL    HW1 5966   1.873   3.407   5.234
 1800SOL    HW2 5967   1.942   3.402   5.382
 1801SOL     OW 5968   0.350   2.760   5.528
 1801SOL    HW1 5969   0.426   2.804   5.576
 1801SOL    HW2 5970   0.385   2.713   5.446
 1802SOL     OW 5971   1.540   2.136   3.849
 1802SOL    HW1 5972   1.479   2.061   3.872
 1802SOL    HW2 5973   1.562   2.188   3.932
 1803SOL     OW 5974   1.303   2.700   3.766
 1803SOL    HW1 5975   1.337   2.607   3.781
 1803SOL    HW2 5976   1.321   2.727   3.671
 1804SOL     OW 5977   1.068   3.195   4.573
 1804SOL    HW1 5978   1.075   3.111   4.518
 1804SOL    HW2 5979   1.130   3.264   4.537
 1805SOL     OW 5980   0.319   2.672   4.673
 1805SOL    HW1 5981   0.412   2.708   4.678
 1805SOL    HW2 5982   0.313   2.587   4.725
 1806SOL     OW 5983   0.339   2.371   4.730
 1806SOL    HW1 5984   0.287   2.288   4.713
 1806SOL    HW2 5985   0.416   2.376   4.666
 1807SOL     OW 5986   1.138   2.242   5.402
 1807SOL    HW1 5987   1.093   2.305   5.466
 1807SOL    HW2 5988   1.231   2.273   5.385
 1808SOL     OW 5989   1.160   2.069   5.201
 1808SOL    HW1 5990   1.160   2.133   5.278
 1808SOL    HW2 5991   1.188   2.117   5.118
 1809SOL     OW 5992   0.008   3.188   3.924
 1809SOL    HW1 5993  -0.085   3.209   3.893
 1809SOL    HW2 5994   0.018   3.089   3.937
 1810SOL     OW 5995   0.088   3.663   4.651
 1810SOL    HW1 5996   0.046   3.577   4.624
 1810SOL    HW2 5997   0.182   3.666   4.617
 1811SOL     OW 5998   0.504   3.430   4.634
 1811SOL    HW1 5999   0.570   3.504   4.643
 1811SOL    HW2 6000   0.548   3.351   4.592
 1812SOL     OW 6001   1.002   2.658   4.962
 1812SOL    HW1 6002   1.043   2.626   5.048
 1812SOL    HW2 6003   0.906   2.631   4.959
 1813SOL     OW 6004   0.040   2.406   4.838
 1813SOL    HW1 6005   0.125   2.373   4.797
 1813SOL    HW2 6006   0.053   2.421   4.936
 1814SOL     OW 6007   0.189   2.382   5.446
 1814SOL    HW1 6008   0.248   2.342   5.376
 1814SOL    HW2 6009   0.131   2.453   5.405
 1815SOL     OW 6010   1.369   2.812   5.384
 1815SOL    HW1 6011   1.408   2.901   5.404
 1815SOL    HW2 6012   1.379   2.792   5.287
 1816SOL     OW 6013   0.815   2.434   4.049
 1816SOL    HW1 6014   0.822   2.345   4.003
 1816SOL    HW2 6015   0.721   2.468   4.041
 1817SOL     OW 6016   0.252   3.426   5.468
 1817SOL    HW1 6017   0.222   3.483   5.544
 1817SOL    HW2 6018   0.245   3.329   5.494
 1818SOL     OW 6019   0.671   2.326   4.993
 1818SOL    HW1 6020   0.637   2.237   4.963
 1818SOL    HW2 6021   0.697   2.380   4.913
 1819SOL     OW 6022   0.930   3.540   5.189
 1819SOL    HW1 6023   0.906   3.522   5.094
 1819SOL    HW2 6024   0.960   3.634   5.199
 1820SOL     OW 6025   0.473   2.362   3.915
 1820SOL    HW1 6026   0.534   2.442   3.919
 1820SOL    HW2 6027   0.378   2.393   3.922
 1821SOL     OW 6028   0.159   2.999   5.190
 1821SOL    HW1 6029   0.181   2.938   5.266
 1821SOL    HW2 6030   0.169   2.950   5.104
 1822SOL     OW 6031   1.347   2.921   4.958
 1822SOL    HW1 6032   1.371   2.858   4.884
 1822SOL    HW2 6033   1.257   2.961   4.940
 1823SOL     OW 6034   1.302   2.717   4.033
 1823SOL    HW1 6035   1.216   2.686   4.075
 1823SOL    HW2 6036   1.298   2.703   3.934
 1824SOL     OW 6037   1.759   3.609   4.878
 1824SOL    HW1 6038   1.820   3.639   4.805
 1824SOL    HW2 6039   1.721   3.520   4.856
 1825SOL     OW 6040   1.252   3.593   4.852
 1825SOL    HW1 6041   1.336   3.598   4.798
 1825SOL    HW2 6042   1.229   3.497   4.870
 1826SOL     OW 6043   0.083   3.120   4.746
 1826SOL    HW1 6044   0.078   3.119   4.846
 1826SOL    HW2 6045   0.000   3.079   4.708
 1827SOL     OW 6046   0.688   3.524   5.440
 1827SOL    HW1 6047   0.632   3.605   5.449
 1827SOL    HW2 6048   0.740   3.528   5.354
 1828SOL     OW 6049   1.726   1.997   4.247
 1828SOL    HW1 6050   1.799   1.980   4.180
 1828SOL    HW2 6051   1.695   1.910   4.285
 1829SOL     OW 6052   1.388   3.435   4.201
 1829SOL    HW1 6053   1.455   3.447   4.127
 1829SOL    HW2 6054   1.348   3.524   4.224
 1830SOL     OW 6055   0.130   3.656   5.575
 1830SOL    HW1 6056   0.089   3.582   5.628
 1830SOL    HW2 6057   0.194   3.707   5.633
 1831SOL     OW 6058   1.280   2.789   4.396
 1831SOL    HW1 6059   1.340   2.708   4.398
 1831SOL    HW2 6060   1.320   2.858   4.336
 1832SOL     OW 6061   0.830   3.135   5.146
 1832SOL    HW1 6062   0.825   3.168   5.241
 1832SOL    HW2 6063   0.744   3.154   5.100
 1833SOL     OW 6064   0.672   3.478   3.878
 1833SOL    HW1 6065   0.681   3.488   3.779
 1833SOL    HW2 6066   0.632   3.389   3.899
 1834SOL     OW 6067   1.650   3.582   5.118
 1834SOL    HW1 6068   1.703   3.592   5.034
 1834SOL    HW2 6069   1.623   3.672   5.152
 1835SOL     OW 6070   0.263   2.188   4.444
 1835SOL    HW1 6071   0.184   2.239   4.410
 1835SOL    HW2 6072   0.254   2.173   4.542
 1836SOL     OW 6073   1.194   3.474   3.755
 1836SOL    HW1 6074   1.200   3.381   3.792
 1836SOL    HW2 6075   1.135   3.474   3.675
 1837SOL     OW 6076   0.822   2.864   5.096
 1837SOL    HW1 6077   0.862   2.863   5.004
 1837SOL    HW2 6078   0.832   2.956   5.136
 1838SOL     OW 6079   0.916   2.772   4.015
 1838SOL    HW1 6080   0.979   2.810   3.947
 1838SOL    HW2 6081   0.956   2.689   4.054
 1839SOL     OW 6082   1.504   3.469   3.768
 1839SOL    HW1 6083   1.412   3.506   3.775
 1839SOL    HW2 6084   1.542   3.489   3.678
 1840SOL     OW 6085   0.372   3.150   5.214
 1840SOL    HW1 6086   0.359   3.243   5.180
 1840SOL    HW2 6087   0.288   3.098   5.201
 1841SOL     OW 6088   1.614   3.154   5.013
 1841SOL    HW1 6089   1.674   3.157   5.093
 1841SOL    HW2 6090   1.539   3.218   5.026
 1842SOL     OW 6091   1.039   2.960   4.420
 1842SOL    HW1 6092   0.969   2.913   4.474
 1842SOL    HW2 6093   1.098   2.892   4.377
 1843SOL     OW 6094   1.014   2.098   4.695
 1843SOL    HW1 6095   1.006   2.062   4.602
 1843SOL    HW2 6096   1.012   2.022   4.760
 1844SOL     OW 6097   0.590   3.349   4.215
 1844SOL    HW1 6098   0.632   3.291   4.145
 1844SOL    HW2 6099   0.546   3.428   4.171
 1845SOL     OW 6100   0.255   3.210   4.014
 1845SOL    HW1 6101   0.159   3.211   3.987
 1845SOL    HW2 6102   0.267   3.263   4.098
 1846SOL     OW 6103   0.105   2.875   5.450
 1846SOL    HW1 6104   0.028   2.842   5.504
 1846SOL    HW2 6105   0.190   2.845   5.492
 1847SOL     OW 6106   0.672   2.065   5.213
 1847SOL    HW1 6107   0.762   2.049   5.173
 1847SOL    HW2 6108   0.680   2.070   5.312
 1848SOL     OW 6109   0.075   2.207   3.757
 1848SOL    HW1 6110  -0.017   2.179   3.728
 1848SOL    HW2 6111   0.106   2.284   3.701
 1849SOL     OW 6112   1.440   2.718   5.122
 1849SOL    HW1 6113   1.383   2.770   5.059
 1849SOL    HW2 6114   1.536   2.730   5.098
 1850SOL     OW 6115   0.072   2.028   4.042
 1850SOL    HW1 6116   0.055   2.111   3.988
 1850SOL    HW2 6117   0.162   1.991   4.020
 1851SOL     OW 6118   1.183   3.197   3.843
 1851SOL    HW1 6119   1.084   3.186   3.845
 1851SOL    HW2 6120   1.217   3.212   3.936
 1852SOL     OW 6121   0.613   2.704   5.155
 1852SOL    HW1 6122   0.669   2.785   5.138
 1852SOL    HW2 6123   0.672   2.624   5.158
 1853SOL     OW 6124   1.493   3.629   4.683
 1853SOL    HW1 6125   1.526   3.693   4.614
 1853SOL    HW2 6126   1.559   3.623   4.758
 1854SOL     OW 6127   0.716   2.427   5.432
 1854SOL    HW1 6128   0.735   2.492   5.506
 1854SOL    HW2 6129   0.776   2.347   5.441
 1855SOL     OW 6130   1.450   3.082   5.357
 1855SOL    HW1 6131   1.441   3.072   5.456
 1855SOL    HW2 6132   1.546   3.075   5.331
 1856SOL     OW 6133   0.390   3.603   5.284
 1856SOL    HW1 6134   0.299   3.644   5.282
 1856SOL    HW2 6135   0.383   3.509   5.316
 1857SOL     OW 6136   1.674   2.745   4.978
 1857SOL    HW1 6137   1.647   2.656   4.941
 1857SOL    HW2 6138   1.675   2.813   4.905
 1858SOL     OW 6139   1.225   2.187   4.173
 1858SOL    HW1 6140   1.290   2.113   4.162
 1858SOL    HW2 6141   1.245   2.237   4.257
 1859SOL     OW 6142   0.594   2.607   4.376
 1859SOL    HW1 6143   0.644   2.692   4.357
 1859SOL    HW2 6144   0.506   2.609   4.328
 1860SOL     OW 6145   1.730   2.796   5.241
 1860SOL    HW1 6146   1.768   2.887   5.256
 1860SOL    HW2 6147   1.722   2.779   5.142
 1861SOL     OW 6148   0.859   3.236   3.740
 1861SOL    HW1 6149   0.813   3.251   3.828
 1861SOL    HW2 6150   0.903   3.321   3.710
 1862SOL     OW 6151   0.661   3.652   4.677
 1862SOL    HW1 6152   0.615   3.740   4.664
 1862SOL    HW2 6153   0.760   3.664   4.670
 1863SOL     OW 6154   0.859   2.818   4.585
 1863SOL    HW1 6155   0.913   2.749   4.633
 1863SOL    HW2 6156   0.827   2.887   4.651
 1864SOL     OW 6157   1.083   2.846   3.811
 1864SOL    HW1 6158   1.060   2.899   3.729
 1864SOL    HW2 6159   1.164   2.790   3.792
 1865SOL     OW 6160   1.861   3.431   4.575
 1865SOL    HW1 6161   1.790   3.419   4.505
 1865SOL    HW2 6162   1.862   3.352   4.635
 1866SOL     OW 6163   0.221   3.176   5.568
 1866SOL    HW1 6164   0.156   3.103   5.547
 1866SOL    HW2 6165   0.225   3.190   5.666
 1867SOL     OW 6166   0.079   3.102   4.377
 1867SOL    HW1 6167   0.078   3.055   4.465
 1867SOL    HW2 6168   0.161   3.074   4.326
 1868SOL     OW 6169   0.672   3.253   5.348
 1868SOL    HW1 6170   0.594   3.203   5.386
 1868SOL    HW2 6171   0.669   3.348   5.379
 1869SOL     OW 6172   0.428   2.286   4.244
 1869SOL    HW1 6173   0.458   2.214   4.182
 1869SOL    HW2 6174   0.389   2.246   4.327
 1870SOL     OW 6175   1.705   3.349   4.828
 1870SOL    HW1 6176   1.612   3.324   4.801
 1870SOL    HW2 6177   1.731   3.299   4.910
 1871SOL     OW 6178   0.317   2.409   5.004
 1871SOL    HW1 6179   0.355   2.350   5.076
 1871SOL    HW2 6180   0.357   2.383   4.916
 1872SOL     OW 6181   0.812   3.448   4.411
 1872SOL    HW1 6182   0.844   3.458   4.317
 1872SOL    HW2 6183   0.733   3.386   4.413
 1873SOL     OW 6184   1.424   2.076   4.836
 1873SOL    HW1 6185   1.476   2.011   4.891
 1873SOL    HW2 6186   1.375   2.139   4.897
 1874SOL     OW 6187   1.001   1.896   4.878
 1874SOL    HW1 6188   0.938   1.824   4.847
 1874SOL    HW2 6189   1.094   1.860   4.878
 1875SOL     OW 6190   0.770   3.192   4.025
 1875SOL    HW1 6191   0.724   3.105   4.042
 1875SOL    HW2 6192   0.861   3.189   4.066
 1876SOL     OW 6193   0.618   3.429   5.008
 1876SOL    HW1 6194   0.613   3.511   5.065
 1876SOL    HW2 6195   0.707   3.426   4.963
 1877SOL     OW 6196   1.352   1.914   3.892
 1877SOL    HW1 6197   1.387   1.873   3.808
 1877SOL    HW2 6198   1.262   1.876   3.912
 1878SOL     OW 6199   1.300   2.315   4.415
 1878SOL    HW1 6200   1.241   2.395   4.419
 1878SOL    HW2 6201   1.315   2.280   4.508
 1879SOL     OW 6202   0.039   2.939   4.024
 1879SOL    HW1 6203   0.138   2.928   4.015
 1879SOL    HW2 6204  -0.001   2.853   4.056
 1880SOL     OW 6205   0.875   3.508   4.061
 1880SOL    HW1 6206   0.798   3.473   4.007
 1880SOL    HW2 6207   0.843   3.579   4.123
 1881SOL     OW 6208   0.230   2.490   5.699
 1881SOL    HW1 6209   0.137   2.488   5.736
 1881SOL    HW2 6210   0.231   2.451   5.607
 1882SOL     OW 6211   0.225   2.137   6.582
 1882SOL    HW1 6212   0.260   2.120   6.674
 1882SOL    HW2 6213   0.137   2.092   6.570
 1883SOL     OW 6214   0.019   2.230   6.233
 1883SOL    HW1 6215  -0.063   2.273   6.272
 1883SOL    HW2 6216  -0.009   2.157   6.170
 1884SOL     OW 6217   0.569   3.137   6.751
 1884SOL    HW1 6218   0.476   3.130   6.714
 1884SOL    HW2 6219   0.580   3.226   6.795
 1885SOL     OW 6220   1.555   3.373   6.289
 1885SOL    HW1 6221   1.498   3.357   6.370
 1885SOL    HW2 6222   1.496   3.383   6.209
 1886SOL     OW 6223   1.135   2.565   6.303
 1886SOL    HW1 6224   1.192   2.643   6.278
 1886SOL    HW2 6225   1.075   2.591   6.379
 1887SOL     OW 6226   0.768   3.006   6.609
 1887SOL    HW1 6227   0.690   3.023   6.669
 1887SOL    HW2 6228   0.802   3.093   6.573
 1888SOL     OW 6229   0.850   2.660   7.409
 1888SOL    HW1 6230   0.846   2.736   7.474
 1888SOL    HW2 6231   0.872   2.696   7.318
 1889SOL     OW 6232   0.685   2.874   6.251
 1889SOL    HW1 6233   0.754   2.858   6.321
 1889SOL    HW2 6234   0.612   2.931   6.289
 1890SOL     OW 6235   0.686   3.023   7.389
 1890SOL    HW1 6236   0.746   3.102   7.403
 1890SOL    HW2 6237   0.600   3.054   7.348
 1891SOL     OW 6238   0.335   3.297   6.647
 1891SOL    HW1 6239   0.257   3.266   6.594
 1891SOL    HW2 6240   0.393   3.355   6.590
 1892SOL     OW 6241   1.460   3.367   6.925
 1892SOL    HW1 6242   1.484   3.461   6.951
 1892SOL    HW2 6243   1.444   3.313   7.007
 1893SOL     OW 6244   0.438   2.254   7.085
 1893SOL    HW1 6245   0.520   2.198   7.094
 1893SOL    HW2 6246   0.357   2.196   7.089
 1894SOL     OW 6247   0.231   3.575   6.069
 1894SOL    HW1 6248   0.265   3.652   6.123
 1894SOL    HW2 6249   0.275   3.575   5.979
 1895SOL     OW 6250   1.127   3.203   7.276
 1895SOL    HW1 6251   1.174   3.203   7.364
 1895SOL    HW2 6252   1.079   3.116   7.265
 1896SOL     OW 6253   0.230   3.296   6.124
 1896SOL    HW1 6254   0.204   3.392   6.124
 1896SOL    HW2 6255   0.159   3.242   6.169
 1897SOL     OW 6256   0.240   2.953   6.472
 1897SOL    HW1 6257   0.254   2.869   6.524
 1897SOL    HW2 6258   0.185   3.017   6.527
 1898SOL     OW 6259   0.620   3.648   7.025
 1898SOL    HW1 6260   0.528   3.631   7.060
 1898SOL    HW2 6261   0.648   3.740   7.051
 1899SOL     OW 6262   0.606   2.826   5.709
 1899SOL    HW1 6263   0.613   2.910   5.655
 1899SOL    HW2 6264   0.652   2.839   5.797
 1900SOL     OW 6265   1.594   1.976   7.066
 1900SOL    HW1 6266   1.576   2.043   6.994
 1900SOL    HW2 6267   1.591   2.022   7.155
 1901SOL     OW 6268   0.122   2.505   6.149
 1901SOL    HW1 6269   0.077   2.417   6.166
 1901SOL    HW2 6270   0.121   2.559   6.233
 1902SOL     OW 6271   1.842   3.629   5.945
 1902SOL    HW1 6272   1.896   3.600   6.025
 1902SOL    HW2 6273   1.872   3.719   5.916
 1903SOL     OW 6274   0.027   3.458   5.703
 1903SOL    HW1 6275   0.008   3.362   5.724
 1903SOL    HW2 6276  -0.006   3.516   5.778
 1904SOL     OW 6277   1.641   2.970   6.018
 1904SOL    HW1 6278   1.727   2.972   5.966
 1904SOL    HW2 6279   1.655   3.017   6.106
 1905SOL     OW 6280   0.113   2.599   7.183
 1905SOL    HW1 6281   0.201   2.586   7.228
 1905SOL    HW2 6282   0.100   2.696   7.161
 1906SOL     OW 6283   0.613   3.227   6.312
 1906SOL    HW1 6284   0.564   3.140   6.321
 1906SOL    HW2 6285   0.590   3.270   6.225
 1907SOL     OW 6286   1.293   3.090   7.009
 1907SOL    HW1 6287   1.330   3.017   6.951
 1907SOL    HW2 6288   1.345   3.095   7.094
 1908SOL     OW 6289   0.809   1.866   6.088
 1908SOL    HW1 6290   0.849   1.957   6.079
 1908SOL    HW2 6291   0.709   1.874   6.094
 1909SOL     OW 6292   0.197   2.838   6.850
 1909SOL    HW1 6293   0.286   2.793   6.836
 1909SOL    HW2 6294   0.124   2.773   6.831
 1910SOL     OW 6295   1.525   2.861   5.776
 1910SOL    HW1 6296   1.462   2.785   5.789
 1910SOL    HW2 6297   1.573   2.879   5.862
 1911SOL     OW 6298   1.187   3.654   7.202
 1911SOL    HW1 6299   1.211   3.714   7.126
 1911SOL    HW2 6300   1.194   3.559   7.172
 1912SOL     OW 6301   0.317   2.113   7.387
 1912SOL    HW1 6302   0.388   2.184   7.393
 1912SOL    HW2 6303   0.229   2.152   7.415
 1913SOL     OW 6304   1.466   3.279   6.539
 1913SOL    HW1 6305   1.407   3.285   6.619
 1913SOL    HW2 6306   1.451   3.191   6.493
 1914SOL     OW 6307   1.667   3.576   6.158
 1914SOL    HW1 6308   1.626   3.553   6.070
 1914SOL    HW2 6309   1.649   3.502   6.223
 1915SOL     OW 6310   0.598   2.591   5.856
 1915SOL    HW1 6311   0.622   2.660   5.788
 1915SOL    HW2 6312   0.520   2.624   5.910
 1916SOL     OW 6313   1.281   2.207   6.530
 1916SOL    HW1 6314   1.195   2.157   6.517
 1916SOL    HW2 6315   1.343   2.153   6.586
 1917SOL     OW 6316   1.576   3.524   5.893
 1917SOL    HW1 6317   1.665   3.570   5.896
 1917SOL    HW2 6318   1.555   3.500   5.798
 1918SOL     OW 6319   0.807   2.467   7.051
 1918SOL    HW1 6320   0.760   2.464   7.140
 1918SOL    HW2 6321   0.756   2.412   6.985
 1919SOL     OW 6322   1.394   2.331   7.260
 1919SOL    HW1 6323   1.374   2.374   7.348
 1919SOL    HW2 6324   1.472   2.269   7.269
 1920SOL     OW 6325   0.973   2.752   7.158
 1920SOL    HW1 6326   1.019   2.668   7.129
 1920SOL    HW2 6327   0.917   2.786   7.083
 1921SOL     OW 6328   0.991   2.272   6.828
 1921SOL    HW1 6329   0.914   2.306   6.882
 1921SOL    HW2 6330   0.957   2.221   6.749
 1922SOL     OW 6331   1.041   2.563   6.015
 1922SOL    HW1 6332   1.067   2.559   6.111
 1922SOL    HW2 6333   0.956   2.512   6.001
 1923SOL     OW 6334   0.076   2.673   6.375
 1923SOL    HW1 6335   0.175   2.661   6.384
 1923SOL    HW2 6336   0.052   2.768   6.396
 1924SOL     OW 6337   0.130   3.683   7.157
 1924SOL    HW1 6338   0.120   3.668   7.256
 1924SOL    HW2 6339   0.044   3.719   7.121
 1925SOL     OW 6340   0.865   2.210   5.781
 1925SOL    HW1 6341   0.924   2.273   5.732
 1925SOL    HW2 6342   0.884   2.116   5.752
 1926SOL     OW 6343   1.719   2.447   7.417
 1926SOL    HW1 6344   1.693   2.536   7.381
 1926SOL    HW2 6345   1.717   2.379   7.344
 1927SOL     OW 6346   1.362   3.006   6.131
 1927SOL    HW1 6347   1.445   2.977   6.083
 1927SOL    HW2 6348   1.313   3.073   6.075
 1928SOL     OW 6349   0.550   2.058   6.471
 1928SOL    HW1 6350   0.545   2.053   6.571
 1928SOL    HW2 6351   0.552   2.154   6.442
 1929SOL     OW 6352   1.008   3.318   6.063
 1929SOL    HW1 6353   0.962   3.390   6.011
 1929SOL    HW2 6354   1.004   3.338   6.161
 1930SOL     OW 6355   0.351   3.663   6.439
 1930SOL    HW1 6356   0.401   3.577   6.445
 1930SOL    HW2 6357   0.416   3.740   6.436
 1931SOL     OW 6358   1.227   3.412   7.092
 1931SOL    HW1 6359   1.233   3.335   7.156
 1931SOL    HW2 6360   1.175   3.386   7.012
 1932SOL     OW 6361   0.321   2.805   5.828
 1932SOL    HW1 6362   0.403   2.844   5.786
 1932SOL    HW2 6363   0.294   2.723   5.779
 1933SOL     OW 6364   1.458   2.597   6.314
 1933SOL    HW1 6365   1.453   2.532   6.389
 1933SOL    HW2 6366   1.538   2.656   6.327
 1934SOL     OW 6367   0.461   3.128   7.313
 1934SOL    HW1 6368   0.411   3.129   7.227
 1934SOL    HW2 6369   0.398   3.110   7.389
 1935SOL     OW 6370   1.111   3.638   5.823
 1935SOL    HW1 6371   1.051   3.576   5.873
 1935SOL    HW2 6372   1.142   3.594   5.738
 1936SOL     OW 6373   0.202   2.147   7.084
 1936SOL    HW1 6374   0.122   2.207   7.071
 1936SOL    HW2 6375   0.192   2.098   7.170
 1937SOL     OW 6376   1.632   3.239   5.667
 1937SOL    HW1 6377   1.600   3.333   5.657
 1937SOL    HW2 6378   1.556   3.176   5.655
 1938SOL     OW 6379   0.464   3.605   5.909
 1938SOL    HW1 6380   0.497   3.644   5.995
 1938SOL    HW2 6381   0.540   3.598   5.844
 1939SOL     OW 6382   1.400   1.969   6.012
 1939SOL    HW1 6383   1.376   1.932   5.922
 1939SOL    HW2 6384   1.499   1.985   6.016
 1940SOL     OW 6385   0.249   3.647   6.827
 1940SOL    HW1 6386   0.306   3.582   6.877
 1940SOL    HW2 6387   0.233   3.614   6.734
 1941SOL     OW 6388   0.940   3.560   6.490
 1941SOL    HW1 6389   1.020   3.503   6.511
 1941SOL    HW2 6390   0.891   3.520   6.413
 1942SOL     OW 6391   0.382   2.562   6.066
 1942SOL    HW1 6392   0.427   2.472   6.063
 1942SOL    HW2 6393   0.288   2.551   6.099
 1943SOL     OW 6394   1.547   2.084   7.315
 1943SOL    HW1 6395   1.542   2.121   7.407
 1943SOL    HW2 6396   1.475   2.015   7.303
 1944SOL     OW 6397   0.614   1.984   5.703
 1944SOL    HW1 6398   0.712   1.962   5.710
 1944SOL    HW2 6399   0.583   1.967   5.610
 1945SOL     OW 6400   0.781   2.126   7.335
 1945SOL    HW1 6401   0.848   2.065   7.378
 1945SOL    HW2 6402   0.708   2.145   7.400
 1946SOL     OW 6403   0.888   3.376   6.781
 1946SOL    HW1 6404   0.865   3.351   6.687
 1946SOL    HW2 6405   0.949   3.307   6.820
 1947SOL     OW 6406   1.351   2.452   7.019
 1947SOL    HW1 6407   1.379   2.409   7.104
 1947SOL    HW2 6408   1.376   2.548   7.020
 1948SOL     OW 6409   0.803   3.264   6.510
 1948SOL    HW1 6410   0.893   3.278   6.468
 1948SOL    HW2 6411   0.732   3.266   6.439
 1949SOL     OW 6412   0.922   2.365   6.485
 1949SOL    HW1 6413   0.897   2.356   6.389
 1949SOL    HW2 6414   0.970   2.283   6.516
 1950SOL     OW 6415   0.539   1.926   6.098
 1950SOL    HW1 6416   0.458   1.927   6.156
 1950SOL    HW2 6417   0.542   2.009   6.043
 1951SOL     OW 6418   1.434   3.050   5.627
 1951SOL    HW1 6419   1.466   2.974   5.684
 1951SOL    HW2 6420   1.342   3.077   5.657
 1952SOL     OW 6421   0.297   1.897   5.757
 1952SOL    HW1 6422   0.346   1.981   5.736
 1952SOL    HW2 6423   0.359   1.832   5.802
 1953SOL     OW 6424   0.935   2.098   6.066
 1953SOL    HW1 6425   0.887   2.139   5.988
 1953SOL    HW2 6426   1.034   2.096   6.047
 1954SOL     OW 6427   1.076   2.545   7.050
 1954SOL    HW1 6428   0.996   2.484   7.053
 1954SOL    HW2 6429   1.157   2.492   7.026
 1955SOL     OW 6430   1.227   3.432   6.379
 1955SOL    HW1 6431   1.248   3.506   6.314
 1955SOL    HW2 6432   1.295   3.432   6.452
 1956SOL     OW 6433   0.459   3.014   6.327
 1956SOL    HW1 6434   0.388   2.987   6.392
 1956SOL    HW2 6435   0.433   2.986   6.234
 1957SOL     OW 6436   1.271   3.659   6.177
 1957SOL    HW1 6437   1.315   3.723   6.113
 1957SOL    HW2 6438   1.221   3.711   6.247
 1958SOL     OW 6439   1.032   2.411   5.602
 1958SOL    HW1 6440   0.991   2.493   5.563
 1958SOL    HW2 6441   1.096   2.437   5.675
 1959SOL     OW 6442   0.078   2.418   6.972
 1959SOL    HW1 6443   0.170   2.417   6.931
 1959SOL    HW2 6444   0.072   2.492   7.039
 1960SOL     OW 6445   0.561   2.084   6.733
 1960SOL    HW1 6446   0.599   2.000   6.770
 1960SOL    HW2 6447   0.473   2.103   6.777
 1961SOL     OW 6448   0.866   2.316   6.228
 1961SOL    HW1 6449   0.834   2.388   6.166
 1961SOL    HW2 6450   0.890   2.235   6.175
 1962SOL     OW 6451   1.017   1.901   6.339
 1962SOL    HW1 6452   0.945   1.906   6.270
 1962SOL    HW2 6453   0.993   1.832   6.408
 1963SOL     OW 6454   1.429   3.035   6.453
 1963SOL    HW1 6455   1.374   2.951   6.446
 1963SOL    HW2 6456   1.455   3.064   6.361
 1964SOL     OW 6457   1.466   2.452   6.578
 1964SOL    HW1 6458   1.436   2.357   6.585
 1964SOL    HW2 6459   1.539   2.468   6.644
 1965SOL     OW 6460   0.488   3.247   5.760
 1965SOL    HW1 6461   0.401   3.232   5.807
 1965SOL    HW2 6462   0.471   3.273   5.665
 1966SOL     OW 6463   1.664   3.142   6.243
 1966SOL    HW1 6464   1.763   3.150   6.257
 1966SOL    HW2 6465   1.619   3.226   6.274
 1967SOL     OW 6466   0.527   2.118   5.914
 1967SOL    HW1 6467   0.554   2.059   5.839
 1967SOL    HW2 6468   0.527   2.213   5.883
 1968SOL     OW 6469   1.754   3.085   7.174
 1968SOL    HW1 6470   1.845   3.046   7.161
 1968SOL    HW2 6471   1.762   3.181   7.198
 1969SOL     OW 6472   1.064   3.209   6.926
 1969SOL    HW1 6473   0.984   3.186   6.981
 1969SOL    HW2 6474   1.147   3.183   6.975
 1970SOL     OW 6475   1.592   3.491   7.211
 1970SOL    HW1 6476   1.619   3.525   7.121
 1970SOL    HW2 6477   1.671   3.453   7.257
 1971SOL     OW 6478   1.111   3.057   6.686
 1971SOL    HW1 6479   1.071   3.101   6.767
 1971SOL    HW2 6480   1.070   3.094   6.603
 1972SOL     OW 6481   1.638   2.961   6.665
 1972SOL    HW1 6482   1.643   3.042   6.724
 1972SOL    HW2 6483   1.552   2.963   6.614
 1973SOL     OW 6484   0.915   1.951   6.988
 1973SOL    HW1 6485   0.940   1.931   6.893
 1973SOL    HW2 6486   0.987   2.007   7.030
 1974SOL     OW 6487   0.980   2.978   7.305
 1974SOL    HW1 6488   0.881   2.984   7.315
 1974SOL    HW2 6489   1.003   2.898   7.249
 1975SOL     OW 6490   0.705   2.912   5.954
 1975SOL    HW1 6491   0.691   2.919   6.053
 1975SOL    HW2 6492   0.789   2.861   5.936
 1976SOL     OW 6493   0.410   2.675   6.837
 1976SOL    HW1 6494   0.496   2.687   6.887
 1976SOL    HW2 6495   0.368   2.588   6.864
 1977SOL     OW 6496   1.274   2.248   6.848
 1977SOL    HW1 6497   1.295   2.322   6.912
 1977SOL    HW2 6498   1.185   2.265   6.805
 1978SOL     OW 6499   0.064   3.426   6.917
 1978SOL    HW1 6500   0.018   3.508   6.883
 1978SOL    HW2 6501   0.162   3.445   6.926
 1979SOL     OW 6502   0.367   2.962   6.087
 1979SOL    HW1 6503   0.360   3.045   6.031
 1979SOL    HW2 6504   0.371   2.882   6.027
 1980SOL     OW 6505   0.566   2.399   6.451
 1980SOL    HW1 6506   0.578   2.465   6.377
 1980SOL    HW2 6507   0.612   2.433   6.534
 1981SOL     OW 6508   1.252   3.210   5.974
 1981SOL    HW1 6509   1.302   3.287   6.014
 1981SOL    HW2 6510   1.157   3.212   6.006
 1982SOL     OW 6511   1.272   3.307   6.728
 1982SOL    HW1 6512   1.319   3.320   6.815
 1982SOL    HW2 6513   1.206   3.233   6.737
 1983SOL     OW 6514   0.354   3.372   6.915
 1983SOL    HW1 6515   0.333   3.328   6.828
 1983SOL    HW2 6516   0.451   3.398   6.918
 1984SOL     OW 6517   0.402   2.613   7.184
 1984SOL    HW1 6518   0.470   2.668   7.137
 1984SOL    HW2 6519   0.442   2.525   7.211
 1985SOL     OW 6520   1.587   2.641   7.256
 1985SOL    HW1 6521   1.495   2.679   7.251
 1985SOL    HW2 6522   1.647   2.688   7.191
 1986SOL     OW 6523   1.013   1.967   7.356
 1986SOL    HW1 6524   1.019   2.052   7.304
 1986SOL    HW2 6525   1.045   1.891   7.299
 1987SOL     OW 6526   0.504   1.912   7.326
 1987SOL    HW1 6527   0.462   1.855   7.256
 1987SOL    HW2 6528   0.438   1.981   7.358
 1988SOL     OW 6529   0.573   2.732   6.615
 1988SOL    HW1 6530   0.617   2.821   6.606
 1988SOL    HW2 6531   0.510   2.732   6.692
 1989SOL     OW 6532   1.360   2.724   6.631
 1989SOL    HW1 6533   1.285   2.724   6.565
 1989SOL    HW2 6534   1.397   2.632   6.640
 1990SOL     OW 6535   1.209   2.387   5.861
 1990SOL    HW1 6536   1.222   2.303   5.915
 1990SOL    HW2 6537   1.180   2.461   5.921
 1991SOL     OW 6538   0.307   2.075   6.817
 1991SOL    HW1 6539   0.284   2.112   6.907
 1991SOL    HW2 6540   0.277   1.980   6.811
 1992SOL     OW 6541   0.037   3.172   6.868
 1992SOL    HW1 6542   0.090   3.123   6.936
 1992SOL    HW2 6543   0.059   3.270   6.873
 1993SOL     OW 6544   0.732   2.496   6.650
 1993SOL    HW1 6545   0.791   2.470   6.574
 1993SOL    HW2 6546   0.704   2.592   6.639
 1994SOL     OW 6547   1.728   2.797   7.440
 1994SOL    HW1 6548   1.682   2.790   7.351
 1994SOL    HW2 6549   1.666   2.841   7.506
 1995SOL     OW 6550   0.307   1.925   6.204
 1995SOL    HW1 6551   0.296   2.019   6.237
 1995SOL    HW2 6552   0.302   1.862   6.281
 1996SOL     OW 6553   1.023   2.628   6.552
 1996SOL    HW1 6554   1.038   2.649   6.648
 1996SOL    HW2 6555   0.993   2.533   6.543
 1997SOL     OW 6556   0.980   3.435   7.286
 1997SOL    HW1 6557   0.960   3.479   7.198
 1997SOL    HW2 6558   1.019   3.344   7.270
 1998SOL     OW 6559   1.859   3.380   7.191
 1998SOL    HW1 6560   1.873   3.407   7.096
 1998SOL    HW2 6561   1.942   3.402   7.244
 1999SOL     OW 6562   0.350   2.760   7.390
 1999SOL    HW1 6563   0.426   2.804   7.438
 1999SOL    HW2 6564   0.385   2.713   7.308
 2000SOL     OW 6565   1.540   2.136   5.711
 2000SOL    HW1 6566   1.479   2.061   5.734
 2000SOL    HW2 6567   1.562   2.188   5.794
 2001SOL     OW 6568   1.303   2.700   5.628
 2001SOL    HW1 6569   1.337   2.607   5.643
 2001SOL    HW2 6570   1.321   2.727   5.533
 2002SOL     OW 6571   1.068   3.195   6.435
 2002SOL    HW1 6572   1.075   3.111   6.380
 2002SOL    HW2 6573   1.130   3.264   6.399
 2003SOL     OW 6574   0.319   2.672   6.535
 2003SOL    HW1 6575   0.412   2.708   6.540
 2003SOL    HW2 6576   0.313   2.587   6.587
 2004SOL     OW 6577   0.339   2.371   6.592
 2004SOL    HW1 6578   0.287   2.288   6.575
 2004SOL    HW2 6579   0.416   2.376   6.528
 2005SOL     OW 6580   1.138   2.242   7.264
 2005SOL    HW1 6581   1.093   2.305   7.328
 2005SOL    HW2 6582   1.231   2.273   7.247
 2006SOL     OW 6583   1.160   2.069   7.063
 2006SOL    HW1 6584   1.160   2.133   7.140
 2006SOL    HW2 6585   1.188   2.117   6.980
 2007SOL     OW 6586   0.008   3.188   5.786
 2007SOL    HW1 6587  -0.085   3.209   5.755
 2007SOL    HW2 6588   0.018   3.089   5.799
 2008SOL     OW 6589   0.088   3.663   6.513
 2008SOL    HW1 6590   0.046   3.577   6.486
 2008SOL    HW2 6591   0.182   3.666   6.479
 2009SOL     OW 6592   0.504   3.430   6.496
 2009SOL    HW1 6593   0.570   3.504   6.505
 2009SOL    HW2 6594   0.548   3.351   6.454
 2010SOL     OW 6595   1.002   2.658   6.824
 2010SOL    HW1 6596   1.043   2.626   6.910
 2010SOL    HW2 6597   0.906   2.631   6.821
 2011SOL     OW 6598   0.040   2.406   6.700
 2011SOL    HW1 6599   0.125   2.373   6.659
 2011SOL    HW2 6600   0.053   2.421   6.798
 2012SOL     OW 6601   0.189   2.382   7.308
 2012SOL    HW1 6602   0.248   2.342   7.238
 2012SOL    HW2 6603   0.131   2.453   7.267
 2013SOL     OW 6604   1.369   2.812   7.246
 2013SOL    HW1 6605   1.408   2.901   7.266
 2013SOL    HW2 6606   1.379   2.792   7.149
 2014SOL     OW 6607   0.815   2.434   5.911
 2014SOL    HW1 6608   0.822   2.345   5.865
 2014SOL    HW2 6609   0.721   2.468   5.903
 2015SOL     OW 6610   1.657   2.466   6.792
 2015SOL    HW1 6611   1.619   2.397   6.854
 2015SOL    HW2 6612   1.739   2.430   6.748
 2016SOL     OW 6613   0.252   3.426   7.330
 2016SOL    HW1 6614   0.222   3.483   7.406
 2016SOL    HW2 6615   0.245   3.329   7.356
 2017SOL     OW 6616   0.671   2.326   6.855
 2017SOL    HW1 6617   0.637   2.237   6.825
 2017SOL    HW2 6618   0.697   2.380   6.775
 2018SOL     OW 6619   0.930   3.540   7.051
 2018SOL    HW1 6620   0.906   3.522   6.956
 2018SOL    HW2 6621   0.960   3.634   7.061
 2019SOL     OW 6622   0.473   2.362   5.777
 2019SOL    HW1 6623   0.534   2.442   5.781
 2019SOL    HW2 6624   0.378   2.393   5.784
 2020SOL     OW 6625   0.159   2.999   7.052
 2020SOL    HW1 6626   0.181   2.938   7.128
 2020SOL    HW2 6627   0.169   2.950   6.966
 2021SOL     OW 6628   1.347   2.921   6.820
 2021SOL    HW1 6629   1.371   2.858   6.746
 2021SOL    HW2 6630   1.257   2.961   6.802
 2022SOL     OW 6631   1.302   2.717   5.895
 2022SOL    HW1 6632   1.216   2.686   5.937
 2022SOL    HW2 6633   1.298   2.703   5.796
 2023SOL     OW 6634   1.759   3.609   6.740
 2023SOL    HW1 6635   1.820   3.639   6.667
 2023SOL    HW2 6636   1.721   3.520   6.718
 2024SOL     OW 6637   1.252   3.593   6.714
 2024SOL    HW1 6638   1.336   3.598   6.660
 2024SOL    HW2 6639   1.229   3.497   6.732
 2025SOL     OW 6640   0.083   3.120   6.608
 2025SOL    HW1 6641   0.078   3.119   6.708
 2025SOL    HW2 6642   0.000   3.079   6.570
 2026SOL     OW 6643   0.688   3.524   7.302
 2026SOL    HW1 6644   0.632   3.605   7.311
 2026SOL    HW2 6645   0.740   3.528   7.216
 2027SOL     OW 6646   1.388   3.435   6.063
 2027SOL    HW1 6647   1.455   3.447   5.989
 2027SOL    HW2 6648   1.348   3.524   6.086
 2028SOL     OW 6649   0.130   3.656   7.437
 2028SOL    HW1 6650   0.089   3.582   7.490
 2028SOL    HW2 6651   0.194   3.707   7.495
 2029SOL     OW 6652   1.280   2.789   6.258
 2029SOL    HW1 6653   1.340   2.708   6.260
 2029SOL    HW2 6654   1.320   2.858   6.198
 2030SOL     OW 6655   0.830   3.135   7.008
 2030SOL    HW1 6656   0.825   3.168   7.103
 2030SOL    HW2 6657   0.744   3.154   6.962
 2031SOL     OW 6658   0.672   3.478   5.740
 2031SOL    HW1 6659   0.681   3.488   5.641
 2031SOL    HW2 6660   0.632   3.389   5.761
 2032SOL     OW 6661   1.650   3.582   6.980
 2032SOL    HW1 6662   1.703   3.592   6.896
 2032SOL    HW2 6663   1.623   3.672   7.014
 2033SOL     OW 6664   0.263   2.188   6.306
 2033SOL    HW1 6665   0.184   2.239   6.272
 2033SOL    HW2 6666   0.254   2.173   6.404
 2034SOL     OW 6667   1.194   3.474   5.617
 2034SOL    HW1 6668   1.200   3.381   5.654
 2034SOL    HW2 6669   1.135   3.474   5.537
 2035SOL     OW 6670   0.822   2.864   6.958
 2035SOL    HW1 6671   0.862   2.863   6.866
 2035SOL    HW2 6672   0.832   2.956   6.998
 2036SOL     OW 6673   0.916   2.772   5.877
 2036SOL    HW1 6674   0.979   2.810   5.809
 2036SOL    HW2 6675   0.956   2.689   5.916
 2037SOL     OW 6676   1.504   3.469   5.630
 2037SOL    HW1 6677   1.412   3.506   5.637
 2037SOL    HW2 6678   1.542   3.489   5.540
 2038SOL     OW 6679   0.372   3.150   7.076
 2038SOL    HW1 6680   0.359   3.243   7.042
 2038SOL    HW2 6681   0.288   3.098   7.063
 2039SOL     OW 6682   1.614   3.154   6.875
 2039SOL    HW1 6683   1.674   3.157   6.955
 2039SOL    HW2 6684   1.539   3.218   6.888
 2040SOL     OW 6685   1.039   2.960   6.282
 2040SOL    HW1 6686   0.969   2.913   6.336
 2040SOL    HW2 6687   1.098   2.892   6.239
 2041SOL     OW 6688   1.014   2.098   6.557
 2041SOL    HW1 6689   1.006   2.062   6.464
 2041SOL    HW2 6690   1.012   2.022   6.622
 2042SOL     OW 6691   0.590   3.349   6.077
 2042SOL    HW1 6692   0.632   3.291   6.007
 2042SOL    HW2 6693   0.546   3.428   6.033
 2043SOL     OW 6694   1.709   2.247   6.967
 2043SOL    HW1 6695   1.782   2.316   6.971
 2043SOL    HW2 6696   1.737   2.172   6.908
 2044SOL     OW 6697   0.255   3.210   5.876
 2044SOL    HW1 6698   0.159   3.211   5.849
 2044SOL    HW2 6699   0.267   3.263   5.960
 2045SOL     OW 6700   0.105   2.875   7.312
 2045SOL    HW1 6701   0.028   2.842   7.366
 2045SOL    HW2 6702   0.190   2.845   7.354
 2046SOL     OW 6703   0.672   2.065   7.075
 2046SOL    HW1 6704   0.762   2.049   7.035
 2046SOL    HW2 6705   0.680   2.070   7.174
 2047SOL     OW 6706   0.075   2.207   5.619
 2047SOL    HW1 6707  -0.017   2.179   5.590
 2047SOL    HW2 6708   0.106   2.284   5.563
 2048SOL     OW 6709   1.440   2.718   6.984
 2048SOL    HW1 6710   1.383   2.770   6.921
 2048SOL    HW2 6711   1.536   2.730   6.960
 2049SOL     OW 6712   0.072   2.028   5.904
 2049SOL    HW1 6713   0.055   2.111   5.850
 2049SOL    HW2 6714   0.162   1.991   5.882
 2050SOL     OW 6715   1.183   3.197   5.705
 2050SOL    HW1 6716   1.084   3.186   5.707
 2050SOL    HW2 6717   1.217   3.212   5.798
 2051SOL     OW 6718   0.613   2.704   7.017
 2051SOL    HW1 6719   0.669   2.785   7.000
 2051SOL    HW2 6720   0.672   2.624   7.020
 2052SOL     OW 6721   1.493   3.629   6.545
 2052SOL    HW1 6722   1.526   3.693   6.476
 2052SOL    HW2 6723   1.559   3.623   6.620
 2053SOL     OW 6724   0.716   2.427   7.294
 2053SOL    HW1 6725   0.735   2.492   7.368
 2053SOL    HW2 6726   0.776   2.347   7.303
 2054SOL     OW 6727   1.450   3.082   7.219
 2054SOL    HW1 6728   1.441   3.072   7.318
 2054SOL    HW2 6729   1.546   3.075   7.193
 2055SOL     OW 6730   0.390   3.603   7.146
 2055SOL    HW1 6731   0.299   3.644   7.144
 2055SOL    HW2 6732   0.383   3.509   7.178
 2056SOL     OW 6733   1.674   2.745   6.840
 2056SOL    HW1 6734   1.647   2.656   6.803
 2056SOL    HW2 6735   1.675   2.813   6.767
 2057SOL     OW 6736   1.225   2.187   6.035
 2057SOL    HW1 6737   1.290   2.113   6.024
 2057SOL    HW2 6738   1.245   2.237   6.119
 2058SOL     OW 6739   0.594   2.607   6.238
 2058SOL    HW1 6740   0.644   2.692   6.219
 2058SOL    HW2 6741   0.506   2.609   6.190
 2059SOL     OW 6742   1.777   2.204   7.228
 2059SOL    HW1 6743   1.760   2.235   7.134
 2059SOL    HW2 6744   1.693   2.167   7.266
 2060SOL     OW 6745   1.730   2.796   7.103
 2060SOL    HW1 6746   1.768   2.887   7.118
 2060SOL    HW2 6747   1.722   2.779   7.004
 2061SOL     OW 6748   0.859   3.236   5.602
 2061SOL    HW1 6749   0.813   3.251   5.690
 2061SOL    HW2 6750   0.903   3.321   5.572
 2062SOL     OW 6751   0.661   3.652   6.539
 2062SOL    HW1 6752   0.615   3.740   6.526
 2062SOL    HW2 6753   0.760   3.664   6.532
 2063SOL     OW 6754   0.859   2.818   6.447
 2063SOL    HW1 6755   0.913   2.749   6.495
 2063SOL    HW2 6756   0.827   2.887   6.513
 2064SOL     OW 6757   1.083   2.846   5.673
 2064SOL    HW1 6758   1.060   2.899   5.591
 2064SOL    HW2 6759   1.164   2.790   5.654
 2065SOL     OW 6760   1.861   3.431   6.437
 2065SOL    HW1 6761   1.790   3.419   6.367
 2065SOL    HW2 6762   1.862   3.352   6.497
 2066SOL     OW 6763   0.221   3.176   7.430
 2066SOL    HW1 6764   0.156   3.103   7.409
 2066SOL    HW2 6765   0.225   3.190   7.528
 2067SOL     OW 6766   0.079   3.102   6.239
 2067SOL    HW1 6767   0.078   3.055   6.327
 2067SOL    HW2 6768   0.161   3.074   6.188
 2068SOL     OW 6769   0.672   3.253   7.210
 2068SOL    HW1 6770   0.594   3.203   7.248
 2068SOL    HW2 6771   0.669   3.348   7.241
 2069SOL     OW 6772   1.824   2.054   6.813
 2069SOL    HW1 6773   1.820   1.964   6.857
 2069SOL    HW2 6774   1.827   2.043   6.714
 2070SOL     OW 6775   0.428   2.286   6.106
 2070SOL    HW1 6776   0.458   2.214   6.044
 2070SOL    HW2 6777   0.389   2.246   6.189
 2071SOL     OW 6778   1.705   3.349   6.690
 2071SOL    HW1 6779   1.612   3.324   6.663
 2071SOL    HW2 6780   1.731   3.299   6.772
 2072SOL     OW 6781   0.317   2.409   6.866
 2072SOL    HW1 6782   0.355   2.350   6.938
 2072SOL    HW2 6783   0.357   2.383   6.778
 2073SOL     OW 6784   0.812   3.448   6.273
 2073SOL    HW1 6785   0.844   3.458   6.179
 2073SOL    HW2 6786   0.733   3.386   6.275
 2074SOL     OW 6787   1.424   2.076   6.698
 2074SOL    HW1 6788   1.476   2.011   6.753
 2074SOL    HW2 6789   1.375   2.139   6.759
 2075SOL     OW 6790   1.001   1.896   6.740
 2075SOL    HW1 6791   0.938   1.824   6.709
 2075SOL    HW2 6792   1.094   1.860   6.740
 2076SOL     OW 6793   0.770   3.192   5.887
 2076SOL    HW1 6794   0.724   3.105   5.904
 2076SOL    HW2 6795   0.861   3.189   5.928
 2077SOL     OW 6796   0.618   3.429   6.870
 2077SOL    HW1 6797   0.613   3.511   6.927
 2077SOL    HW2 6798   0.707   3.426   6.825
 2078SOL     OW 6799   1.352   1.914   5.754
 2078SOL    HW1 6800   1.387   1.873   5.670
 2078SOL    HW2 6801   1.262   1.876   5.774
 2079SOL     OW 6802   1.300   2.315   6.277
 2079SOL    HW1 6803   1.241   2.395   6.281
 2079SOL    HW2 6804   1.315   2.280   6.370
 2080SOL     OW 6805   0.039   2.939   5.886
 2080SOL    HW1 6806   0.138   2.928   5.877
 2080SOL    HW2 6807  -0.001   2.853   5.918
 2081SOL     OW 6808   0.875   3.508   5.923
 2081SOL    HW1 6809   0.798   3.473   5.869
 2081SOL    HW2 6810   0.843   3.579   5.985
 2082SOL     OW 6811   0.230   2.490   7.561
 2082SOL    HW1 6812   0.137   2.488   7.598
 2082SOL    HW2 6813   0.231   2.451   7.469
 2083SOL     OW 6814   0.225   2.137   8.444
 2083SOL    HW1 6815   0.260   2.120   8.536
 2083SOL    HW2 6816   0.137   2.092   8.432
 2084SOL     OW 6817   0.019   2.230   8.095
 2084SOL    HW1 6818  -0.063   2.273   8.134
 2084SOL    HW2 6819  -0.009   2.157   8.032
 2085SOL     OW 6820   0.569   3.137   8.613
 2085SOL    HW1 6821   0.476   3.130   8.576
 2085SOL    HW2 6822   0.580   3.226   8.657
 2086SOL     OW 6823   1.555   3.373   8.151
 2086SOL    HW1 6824   1.498   3.357   8.232
 2086SOL    HW2 6825   1.496   3.383   8.071
 2087SOL     OW 6826   1.135   2.565   8.165
 2087SOL    HW1 6827   1.192   2.643   8.140
 2087SOL    HW2 6828   1.075   2.591   8.241
 2088SOL     OW 6829   1.755   2.469   7.679
 2088SOL    HW1 6830   1.743   2.456   7.580
 2088SOL    HW2 6831   1.725   2.388   7.728
 2089SOL     OW 6832   0.768   3.006   8.471
 2089SOL    HW1 6833   0.690   3.023   8.531
 2089SOL    HW2 6834   0.802   3.093   8.435
 2090SOL     OW 6835   0.850   2.660   9.271
 2090SOL    HW1 6836   0.846   2.736   9.336
 2090SOL    HW2 6837   0.872   2.696   9.180
 2091SOL     OW 6838   0.685   2.874   8.113
 2091SOL    HW1 6839   0.754   2.858   8.183
 2091SOL    HW2 6840   0.612   2.931   8.151
 2092SOL     OW 6841   0.686   3.023   9.251
 2092SOL    HW1 6842   0.746   3.102   9.265
 2092SOL    HW2 6843   0.600   3.054   9.210
 2093SOL     OW 6844   0.335   3.297   8.509
 2093SOL    HW1 6845   0.257   3.266   8.456
 2093SOL    HW2 6846   0.393   3.355   8.452
 2094SOL     OW 6847   1.460   3.367   8.787
 2094SOL    HW1 6848   1.484   3.461   8.813
 2094SOL    HW2 6849   1.444   3.313   8.869
 2095SOL     OW 6850   0.438   2.254   8.947
 2095SOL    HW1 6851   0.520   2.198   8.956
 2095SOL    HW2 6852   0.357   2.196   8.951
 2096SOL     OW 6853   1.603   2.309   8.185
 2096SOL    HW1 6854   1.529   2.355   8.135
 2096SOL    HW2 6855   1.654   2.377   8.238
 2097SOL     OW 6856   0.231   3.575   7.931
 2097SOL    HW1 6857   0.265   3.652   7.985
 2097SOL    HW2 6858   0.275   3.575   7.841
 2098SOL     OW 6859   1.127   3.203   9.138
 2098SOL    HW1 6860   1.174   3.203   9.226
 2098SOL    HW2 6861   1.079   3.116   9.127
 2099SOL     OW 6862   0.230   3.296   7.986
 2099SOL    HW1 6863   0.204   3.392   7.986
 2099SOL    HW2 6864   0.159   3.242   8.031
 2100SOL     OW 6865   0.240   2.953   8.334
 2100SOL    HW1 6866   0.254   2.869   8.386
 2100SOL    HW2 6867   0.185   3.017   8.389
 2101SOL     OW 6868   0.620   3.648   8.887
 2101SOL    HW1 6869   0.528   3.631   8.922
 2101SOL    HW2 6870   0.648   3.740   8.913
 2102SOL     OW 6871   0.606   2.826   7.571
 2102SOL    HW1 6872   0.613   2.910   7.517
 2102SOL    HW2 6873   0.652   2.839   7.659
 2103SOL     OW 6874   1.594   1.976   8.928
 2103SOL    HW1 6875   1.576   2.043   8.856
 2103SOL    HW2 6876   1.591   2.022   9.017
 2104SOL     OW 6877   0.122   2.505   8.011
 2104SOL    HW1 6878   0.077   2.417   8.028
 2104SOL    HW2 6879   0.121   2.559   8.095
 2105SOL     OW 6880   1.842   3.629   7.807
 2105SOL    HW1 6881   1.896   3.600   7.887
 2105SOL    HW2 6882   1.872   3.719   7.778
 2106SOL     OW 6883   0.027   3.458   7.565
 2106SOL    HW1 6884   0.008   3.362   7.586
 2106SOL    HW2 6885  -0.006   3.516   7.640
 2107SOL     OW 6886   1.689   2.784   8.060
 2107SOL    HW1 6887   1.784   2.755   8.068
 2107SOL    HW2 6888   1.681   2.849   7.985
 2108SOL     OW 6889   1.641   2.970   7.880
 2108SOL    HW1 6890   1.727   2.972   7.828
 2108SOL    HW2 6891   1.655   3.017   7.968
 2109SOL     OW 6892   0.113   2.599   9.045
 2109SOL    HW1 6893   0.201   2.586   9.090
 2109SOL    HW2 6894   0.100   2.696   9.023
 2110SOL     OW 6895   0.613   3.227   8.174
 2110SOL    HW1 6896   0.564   3.140   8.183
 2110SOL    HW2 6897   0.590   3.270   8.087
 2111SOL     OW 6898   1.293   3.090   8.871
 2111SOL    HW1 6899   1.330   3.017   8.813
 2111SOL    HW2 6900   1.345   3.095   8.956
 2112SOL     OW 6901   0.809   1.866   7.950
 2112SOL    HW1 6902   0.849   1.957   7.941
 2112SOL    HW2 6903   0.709   1.874   7.956
 2113SOL     OW 6904   0.197   2.838   8.712
 2113SOL    HW1 6905   0.286   2.793   8.698
 2113SOL    HW2 6906   0.124   2.773   8.693
 2114SOL     OW 6907   1.525   2.861   7.638
 2114SOL    HW1 6908   1.462   2.785   7.651
 2114SOL    HW2 6909   1.573   2.879   7.724
 2115SOL     OW 6910   1.187   3.654   9.064
 2115SOL    HW1 6911   1.211   3.714   8.988
 2115SOL    HW2 6912   1.194   3.559   9.034
 2116SOL     OW 6913   0.317   2.113   9.249
 2116SOL    HW1 6914   0.388   2.184   9.255
 2116SOL    HW2 6915   0.229   2.152   9.277
 2117SOL     OW 6916   1.466   3.279   8.401
 2117SOL    HW1 6917   1.407   3.285   8.481
 2117SOL    HW2 6918   1.451   3.191   8.355
 2118SOL     OW 6919   1.667   3.576   8.020
 2118SOL    HW1 6920   1.626   3.553   7.932
 2118SOL    HW2 6921   1.649   3.502   8.085
 2119SOL     OW 6922   0.598   2.591   7.718
 2119SOL    HW1 6923   0.622   2.660   7.650
 2119SOL    HW2 6924   0.520   2.624   7.772
 2120SOL     OW 6925   1.281   2.207   8.392
 2120SOL    HW1 6926   1.195   2.157   8.379
 2120SOL    HW2 6927   1.343   2.153   8.448
 2121SOL     OW 6928   1.576   3.524   7.755
 2121SOL    HW1 6929   1.665   3.570   7.758
 2121SOL    HW2 6930   1.555   3.500   7.660
 2122SOL     OW 6931   0.807   2.467   8.913
 2122SOL    HW1 6932   0.760   2.464   9.002
 2122SOL    HW2 6933   0.756   2.412   8.847
 2123SOL     OW 6934   1.394   2.331   9.122
 2123SOL    HW1 6935   1.374   2.374   9.210
 2123SOL    HW2 6936   1.472   2.269   9.131
 2124SOL     OW 6937   0.973   2.752   9.020
 2124SOL    HW1 6938   1.019   2.668   8.991
 2124SOL    HW2 6939   0.917   2.786   8.945
 2125SOL     OW 6940   0.991   2.272   8.690
 2125SOL    HW1 6941   0.914   2.306   8.744
 2125SOL    HW2 6942   0.957   2.221   8.611
 2126SOL     OW 6943   1.041   2.563   7.877
 2126SOL    HW1 6944   1.067   2.559   7.973
 2126SOL    HW2 6945   0.956   2.512   7.863
 2127SOL     OW 6946   0.076   2.673   8.237
 2127SOL    HW1 6947   0.175   2.661   8.246
 2127SOL    HW2 6948   0.052   2.768   8.258
 2128SOL     OW 6949   0.130   3.683   9.019
 2128SOL    HW1 6950   0.120   3.668   9.118
 2128SOL    HW2 6951   0.044   3.719   8.983
 2129SOL     OW 6952   0.865   2.210   7.643
 2129SOL    HW1 6953   0.924   2.273   7.594
 2129SOL    HW2 6954   0.884   2.116   7.614
 2130SOL     OW 6955   1.719   2.447   9.279
 2130SOL    HW1 6956   1.693   2.536   9.243
 2130SOL    HW2 6957   1.717   2.379   9.206
 2131SOL     OW 6958   1.362   3.006   7.993
 2131SOL    HW1 6959   1.445   2.977   7.945
 2131SOL    HW2 6960   1.313   3.073   7.937
 2132SOL     OW 6961   0.550   2.058   8.333
 2132SOL    HW1 6962   0.545   2.053   8.433
 2132SOL    HW2 6963   0.552   2.154   8.304
 2133SOL     OW 6964   1.008   3.318   7.925
 2133SOL    HW1 6965   0.962   3.390   7.873
 2133SOL    HW2 6966   1.004   3.338   8.023
 2134SOL     OW 6967   0.351   3.663   8.301
 2134SOL    HW1 6968   0.401   3.577   8.307
 2134SOL    HW2 6969   0.416   3.740   8.298
 2135SOL     OW 6970   1.795   2.928   8.321
 2135SOL    HW1 6971   1.733   2.913   8.245
 2135SOL    HW2 6972   1.743   2.939   8.406
 2136SOL     OW 6973   1.227   3.412   8.954
 2136SOL    HW1 6974   1.233   3.335   9.018
 2136SOL    HW2 6975   1.175   3.386   8.874
 2137SOL     OW 6976   0.321   2.805   7.690
 2137SOL    HW1 6977   0.403   2.844   7.648
 2137SOL    HW2 6978   0.294   2.723   7.641
 2138SOL     OW 6979   1.458   2.597   8.176
 2138SOL    HW1 6980   1.453   2.532   8.251
 2138SOL    HW2 6981   1.538   2.656   8.189
 2139SOL     OW 6982   0.461   3.128   9.175
 2139SOL    HW1 6983   0.411   3.129   9.089
 2139SOL    HW2 6984   0.398   3.110   9.251
 2140SOL     OW 6985   1.111   3.638   7.685
 2140SOL    HW1 6986   1.051   3.576   7.735
 2140SOL    HW2 6987   1.142   3.594   7.600
 2141SOL     OW 6988   0.202   2.147   8.946
 2141SOL    HW1 6989   0.122   2.207   8.933
 2141SOL    HW2 6990   0.192   2.098   9.032
 2142SOL     OW 6991   1.632   3.239   7.529
 2142SOL    HW1 6992   1.600   3.333   7.519
 2142SOL    HW2 6993   1.556   3.176   7.517
 2143SOL     OW 6994   0.464   3.605   7.771
 2143SOL    HW1 6995   0.497   3.644   7.857
 2143SOL    HW2 6996   0.540   3.598   7.706
 2144SOL     OW 6997   1.400   1.969   7.874
 2144SOL    HW1 6998   1.376   1.932   7.784
 2144SOL    HW2 6999   1.499   1.985   7.878
 2145SOL     OW 7000   0.249   3.647   8.689
 2145SOL    HW1 7001   0.306   3.582   8.739
 2145SOL    HW2 7002   0.233   3.614   8.596
 2146SOL     OW 7003   0.940   3.560   8.352
 2146SOL    HW1 7004   1.020   3.503   8.373
 2146SOL    HW2 7005   0.891   3.520   8.275
 2147SOL     OW 7006   0.382   2.562   7.928
 2147SOL    HW1 7007   0.427   2.472   7.925
 2147SOL    HW2 7008   0.288   2.551   7.961
 2148SOL     OW 7009   1.547   2.084   9.177
 2148SOL    HW1 7010   1.542   2.121   9.269
 2148SOL    HW2 7011   1.475   2.015   9.165
 2149SOL     OW 7012   0.614   1.984   7.565
 2149SOL    HW1 7013   0.712   1.962   7.572
 2149SOL    HW2 7014   0.583   1.967   7.472
 2150SOL     OW 7015   0.781   2.126   9.197
 2150SOL    HW1 7016   0.848   2.065   9.240
 2150SOL    HW2 7017   0.708   2.145   9.262
 2151SOL     OW 7018   0.888   3.376   8.643
 2151SOL    HW1 7019   0.865   3.351   8.549
 2151SOL    HW2 7020   0.949   3.307   8.682
 2152SOL     OW 7021   1.351   2.452   8.881
 2152SOL    HW1 7022   1.379   2.409   8.966
 2152SOL    HW2 7023   1.376   2.548   8.882
 2153SOL     OW 7024   0.803   3.264   8.372
 2153SOL    HW1 7025   0.893   3.278   8.330
 2153SOL    HW2 7026   0.732   3.266   8.301
 2154SOL     OW 7027   0.922   2.365   8.347
 2154SOL    HW1 7028   0.897   2.356   8.251
 2154SOL    HW2 7029   0.970   2.283   8.378
 2155SOL     OW 7030   0.539   1.926   7.960
 2155SOL    HW1 7031   0.458   1.927   8.018
 2155SOL    HW2 7032   0.542   2.009   7.905
 2156SOL     OW 7033   1.434   3.050   7.489
 2156SOL    HW1 7034   1.466   2.974   7.546
 2156SOL    HW2 7035   1.342   3.077   7.519
 2157SOL     OW 7036   0.297   1.897   7.619
 2157SOL    HW1 7037   0.346   1.981   7.598
 2157SOL    HW2 7038   0.359   1.832   7.664
 2158SOL     OW 7039   0.935   2.098   7.928
 2158SOL    HW1 7040   0.887   2.139   7.850
 2158SOL    HW2 7041   1.034   2.096   7.909
 2159SOL     OW 7042   1.076   2.545   8.912
 2159SOL    HW1 7043   0.996   2.484   8.915
 2159SOL    HW2 7044   1.157   2.492   8.888
 2160SOL     OW 7045   1.227   3.432   8.241
 2160SOL    HW1 7046   1.248   3.506   8.176
 2160SOL    HW2 7047   1.295   3.432   8.314
 2161SOL     OW 7048   0.459   3.014   8.189
 2161SOL    HW1 7049   0.388   2.987   8.254
 2161SOL    HW2 7050   0.433   2.986   8.096
 2162SOL     OW 7051   1.271   3.659   8.039
 2162SOL    HW1 7052   1.315   3.723   7.975
 2162SOL    HW2 7053   1.221   3.711   8.109
 2163SOL     OW 7054   1.032   2.411   7.464
 2163SOL    HW1 7055   0.991   2.493   7.425
 2163SOL    HW2 7056   1.096   2.437   7.537
 2164SOL     OW 7057   0.078   2.418   8.834
 2164SOL    HW1 7058   0.170   2.417   8.793
 2164SOL    HW2 7059   0.072   2.492   8.901
 2165SOL     OW 7060   0.561   2.084   8.595
 2165SOL    HW1 7061   0.599   2.000   8.632
 2165SOL    HW2 7062   0.473   2.103   8.639
 2166SOL     OW 7063   0.866   2.316   8.090
 2166SOL    HW1 7064   0.834   2.388   8.028
 2166SOL    HW2 7065   0.890   2.235   8.037
 2167SOL     OW 7066   1.017   1.901   8.201
 2167SOL    HW1 7067   0.945   1.906   8.132
 2167SOL    HW2 7068   0.993   1.832   8.270
 2168SOL     OW 7069   1.429   3.035   8.315
 2168SOL    HW1 7070   1.374   2.951   8.308
 2168SOL    HW2 7071   1.455   3.064   8.223
 2169SOL     OW 7072   1.466   2.452   8.440
 2169SOL    HW1 7073   1.436   2.357   8.447
 2169SOL    HW2 7074   1.539   2.468   8.506
 2170SOL     OW 7075   1.857   2.695   7.825
 2170SOL    HW1 7076   1.899   2.631   7.889
 2170SOL    HW2 7077   1.819   2.644   7.747
 2171SOL     OW 7078   0.488   3.247   7.622
 2171SOL    HW1 7079   0.401   3.232   7.669
 2171SOL    HW2 7080   0.471   3.273   7.527
 2172SOL     OW 7081   1.664   3.142   8.105
 2172SOL    HW1 7082   1.763   3.150   8.119
 2172SOL    HW2 7083   1.619   3.226   8.136
 2173SOL     OW 7084   1.390   2.437   7.526
 2173SOL    HW1 7085   1.336   2.416   7.607
 2173SOL    HW2 7086   1.481   2.396   7.535
 2174SOL     OW 7087   0.527   2.118   7.776
 2174SOL    HW1 7088   0.554   2.059   7.701
 2174SOL    HW2 7089   0.527   2.213   7.745
 2175SOL     OW 7090   1.754   3.085   9.036
 2175SOL    HW1 7091   1.845   3.046   9.023
 2175SOL    HW2 7092   1.762   3.181   9.060
 2176SOL     OW 7093   1.064   3.209   8.788
 2176SOL    HW1 7094   0.984   3.186   8.843
 2176SOL    HW2 7095   1.147   3.183   8.837
 2177SOL     OW 7096   1.592   3.491   9.073
 2177SOL    HW1 7097   1.619   3.525   8.983
 2177SOL    HW2 7098   1.671   3.453   9.119
 2178SOL     OW 7099   1.111   3.057   8.548
 2178SOL    HW1 7100   1.071   3.101   8.629
 2178SOL    HW2 7101   1.070   3.094   8.465
 2179SOL     OW 7102   1.638   2.961   8.527
 2179SOL    HW1 7103   1.643   3.042   8.586
 2179SOL    HW2 7104   1.552   2.963   8.476
 2180SOL     OW 7105   0.915   1.951   8.850
 2180SOL    HW1 7106   0.940   1.931   8.755
 2180SOL    HW2 7107   0.987   2.007   8.892
 2181SOL     OW 7108   0.980   2.978   9.167
 2181SOL    HW1 7109   0.881   2.984   9.177
 2181SOL    HW2 7110   1.003   2.898   9.111
 2182SOL     OW 7111   0.705   2.912   7.816
 2182SOL    HW1 7112   0.691   2.919   7.915
 2182SOL    HW2 7113   0.789   2.861   7.798
 2183SOL     OW 7114   0.410   2.675   8.699
 2183SOL    HW1 7115   0.496   2.687   8.749
 2183SOL    HW2 7116   0.368   2.588   8.726
 2184SOL     OW 7117   1.274   2.248   8.710
 2184SOL    HW1 7118   1.295   2.322   8.774
 2184SOL    HW2 7119   1.185   2.265   8.667
 2185SOL     OW 7120   0.064   3.426   8.779
 2185SOL    HW1 7121   0.018   3.508   8.745
 2185SOL    HW2 7122   0.162   3.445   8.788
 2186SOL     OW 7123   0.367   2.962   7.949
 2186SOL    HW1 7124   0.360   3.045   7.893
 2186SOL    HW2 7125   0.371   2.882   7.889
 2187SOL     OW 7126   0.566   2.399   8.313
 2187SOL    HW1 7127   0.578   2.465   8.239
 2187SOL    HW2 7128   0.612   2.433   8.396
 2188SOL     OW 7129   1.252   3.210   7.836
 2188SOL    HW1 7130   1.302   3.287   7.876
 2188SOL    HW2 7131   1.157   3.212   7.868
 2189SOL     OW 7132   1.272   3.307   8.590
 2189SOL    HW1 7133   1.319   3.320   8.677
 2189SOL    HW2 7134   1.206   3.233   8.599
 2190SOL     OW 7135   1.582   2.501   7.920
 2190SOL    HW1 7136   1.551   2.562   7.993
 2190SOL    HW2 7137   1.632   2.553   7.851
 2191SOL     OW 7138   0.354   3.372   8.777
 2191SOL    HW1 7139   0.333   3.328   8.690
 2191SOL    HW2 7140   0.451   3.398   8.780
 2192SOL     OW 7141   0.402   2.613   9.046
 2192SOL    HW1 7142   0.470   2.668   8.999
 2192SOL    HW2 7143   0.442   2.525   9.073
 2193SOL     OW 7144   1.587   2.641   9.118
 2193SOL    HW1 7145   1.495   2.679   9.113
 2193SOL    HW2 7146   1.647   2.688   9.053
 2194SOL     OW 7147   1.013   1.967   9.218
 2194SOL    HW1 7148   1.019   2.052   9.166
 2194SOL    HW2 7149   1.045   1.891   9.161
 2195SOL     OW 7150   0.504   1.912   9.188
 2195SOL    HW1 7151   0.462   1.855   9.118
 2195SOL    HW2 7152   0.438   1.981   9.220
 2196SOL     OW 7153   0.573   2.732   8.477
 2196SOL    HW1 7154   0.617   2.821   8.468
 2196SOL    HW2 7155   0.510   2.732   8.554
 2197SOL     OW 7156   1.360   2.724   8.493
 2197SOL    HW1 7157   1.285   2.724   8.427
 2197SOL    HW2 7158   1.397   2.632   8.502
 2198SOL     OW 7159   1.209   2.387   7.723
 2198SOL    HW1 7160   1.222   2.303   7.777
 2198SOL    HW2 7161   1.180   2.461   7.783
 2199SOL     OW 7162   0.307   2.075   8.679
 2199SOL    HW1 7163   0.284   2.112   8.769
 2199SOL    HW2 7164   0.277   1.980   8.673
 2200SOL     OW 7165   0.037   3.172   8.730
 2200SOL    HW1 7166   0.090   3.123   8.798
 2200SOL    HW2 7167   0.059   3.270   8.735
 2201SOL     OW 7168   0.732   2.496   8.512
 2201SOL    HW1 7169   0.791   2.470   8.436
 2201SOL    HW2 7170   0.704   2.592   8.501
 2202SOL     OW 7171   1.728   2.797   9.302
 2202SOL    HW1 7172   1.682   2.790   9.213
 2202SOL    HW2 7173   1.666   2.841   9.368
 2203SOL     OW 7174   0.307   1.925   8.066
 2203SOL    HW1 7175   0.296   2.019   8.099
 2203SOL    HW2 7176   0.302   1.862   8.143
 2204SOL     OW 7177   1.622   2.229   7.822
 2204SOL    HW1 7178   1.624   2.153   7.886
 2204SOL    HW2 7179   1.574   2.306   7.862
 2205SOL     OW 7180   1.023   2.628   8.414
 2205SOL    HW1 7181   1.038   2.649   8.510
 2205SOL    HW2 7182   0.993   2.533   8.405
 2206SOL     OW 7183   0.980   3.435   9.148
 2206SOL    HW1 7184   0.960   3.479   9.060
 2206SOL    HW2 7185   1.019   3.344   9.132
 2207SOL     OW 7186   1.859   3.380   9.053
 2207SOL    HW1 7187   1.873   3.407   8.958
 2207SOL    HW2 7188   1.942   3.402   9.106
 2208SOL     OW 7189   0.350   2.760   9.252
 2208SOL    HW1 7190   0.426   2.804   9.300
 2208SOL    HW2 7191   0.385   2.713   9.170
 2209SOL     OW 7192   1.540   2.136   7.573
 2209SOL    HW1 7193   1.479   2.061   7.596
 2209SOL    HW2 7194   1.562   2.188   7.656
 2210SOL     OW 7195   1.303   2.700   7.490
 2210SOL    HW1 7196   1.337   2.607   7.505
 2210SOL    HW2 7197   1.321   2.727   7.395
 2211SOL     OW 7198   1.068   3.195   8.297
 2211SOL    HW1 7199   1.075   3.111   8.242
 2211SOL    HW2 7200   1.130   3.264   8.261
 2212SOL     OW 7201   0.319   2.672   8.397
 2212SOL    HW1 7202   0.412   2.708   8.402
 2212SOL    HW2 7203   0.313   2.587   8.449
 2213SOL     OW 7204   0.339   2.371   8.454
 2213SOL    HW1 7205   0.287   2.288   8.437
 2213SOL    HW2 7206   0.416   2.376   8.390
 2214SOL     OW 7207   1.138   2.242   9.126
 2214SOL    HW1 7208   1.093   2.305   9.190
 2214SOL    HW2 7209   1.231   2.273   9.109
 2215SOL     OW 7210   1.160   2.069   8.925
 2215SOL    HW1 7211   1.160   2.133   9.002
 2215SOL    HW2 7212   1.188   2.117   8.842
 2216SOL     OW 7213   0.008   3.188   7.648
 2216SOL    HW1 7214  -0.085   3.209   7.617
 2216SOL    HW2 7215   0.018   3.089   7.661
 2217SOL     OW 7216   0.088   3.663   8.375
 2217SOL    HW1 7217   0.046   3.577   8.348
 2217SOL    HW2 7218   0.182   3.666   8.341
 2218SOL     OW 7219   0.504   3.430   8.358
 2218SOL    HW1 7220   0.570   3.504   8.367
 2218SOL    HW2 7221   0.548   3.351   8.316
 2219SOL     OW 7222   1.002   2.658   8.686
 2219SOL    HW1 7223   1.043   2.626   8.772
 2219SOL    HW2 7224   0.906   2.631   8.683
 2220SOL     OW 7225   0.040   2.406   8.562
 2220SOL    HW1 7226   0.125   2.373   8.521
 2220SOL    HW2 7227   0.053   2.421   8.660
 2221SOL     OW 7228   0.189   2.382   9.170
 2221SOL    HW1 7229   0.248   2.342   9.100
 2221SOL    HW2 7230   0.131   2.453   9.129
 2222SOL     OW 7231   1.369   2.812   9.108
 2222SOL    HW1 7232   1.408   2.901   9.128
 2222SOL    HW2 7233   1.379   2.792   9.011
 2223SOL     OW 7234   0.815   2.434   7.773
 2223SOL    HW1 7235   0.822   2.345   7.727
 2223SOL    HW2 7236   0.721   2.468   7.765
 2224SOL     OW 7237   1.657   2.466   8.654
 2224SOL    HW1 7238   1.619   2.397   8.716
 2224SOL    HW2 7239   1.739   2.430   8.610
 2225SOL     OW 7240   0.252   3.426   9.192
 2225SOL    HW1 7241   0.222   3.483   9.268
 2225SOL    HW2 7242   0.245   3.329   9.218
 2226SOL     OW 7243   0.671   2.326   8.717
 2226SOL    HW1 7244   0.637   2.237   8.687
 2226SOL    HW2 7245   0.697   2.380   8.637
 2227SOL     OW 7246   0.930   3.540   8.913
 2227SOL    HW1 7247   0.906   3.522   8.818
 2227SOL    HW2 7248   0.960   3.634   8.923
 2228SOL     OW 7249   0.473   2.362   7.639
 2228SOL    HW1 7250   0.534   2.442   7.643
 2228SOL    HW2 7251   0.378   2.393   7.646
 2229SOL     OW 7252   0.159   2.999   8.914
 2229SOL    HW1 7253   0.181   2.938   8.990
 2229SOL    HW2 7254   0.169   2.950   8.828
 2230SOL     OW 7255   1.347   2.921   8.682
 2230SOL    HW1 7256   1.371   2.858   8.608
 2230SOL    HW2 7257   1.257   2.961   8.664
 2231SOL     OW 7258   1.302   2.717   7.757
 2231SOL    HW1 7259   1.216   2.686   7.799
 2231SOL    HW2 7260   1.298   2.703   7.658
 2232SOL     OW 7261   1.759   3.609   8.602
 2232SOL    HW1 7262   1.820   3.639   8.529
 2232SOL    HW2 7263   1.721   3.520   8.580
 2233SOL     OW 7264   1.252   3.593   8.576
 2233SOL    HW1 7265   1.336   3.598   8.522
 2233SOL    HW2 7266   1.229   3.497   8.594
 2234SOL     OW 7267   0.083   3.120   8.470
 2234SOL    HW1 7268   0.078   3.119   8.570
 2234SOL    HW2 7269   0.000   3.079   8.432
 2235SOL     OW 7270   0.688   3.524   9.164
 2235SOL    HW1 7271   0.632   3.605   9.173
 2235SOL    HW2 7272   0.740   3.528   9.078
 2236SOL     OW 7273   1.726   1.997   7.971
 2236SOL    HW1 7274   1.799   1.980   7.904
 2236SOL    HW2 7275   1.695   1.910   8.009
 2237SOL     OW 7276   1.388   3.435   7.925
 2237SOL    HW1 7277   1.455   3.447   7.851
 2237SOL    HW2 7278   1.348   3.524   7.948
 2238SOL     OW 7279   0.130   3.656   9.299
 2238SOL    HW1 7280   0.089   3.582   9.352
 2238SOL    HW2 7281   0.194   3.707   9.357
 2239SOL     OW 7282   1.280   2.789   8.120
 2239SOL    HW1 7283   1.340   2.708   8.122
 2239SOL    HW2 7284   1.320   2.858   8.060
 2240SOL     OW 7285   0.830   3.135   8.870
 2240SOL    HW1 7286   0.825   3.168   8.965
 2240SOL    HW2 7287   0.744   3.154   8.824
 2241SOL     OW 7288   0.672   3.478   7.602
 2241SOL    HW1 7289   0.681   3.488   7.503
 2241SOL    HW2 7290   0.632   3.389   7.623
 2242SOL     OW 7291   1.650   3.582   8.842
 2242SOL    HW1 7292   1.703   3.592   8.758
 2242SOL    HW2 7293   1.623   3.672   8.876
 2243SOL     OW 7294   1.841   2.037   8.411
 2243SOL    HW1 7295   1.880   1.952   8.375
 2243SOL    HW2 7296   1.743   2.039   8.392
 2244SOL     OW 7297   0.263   2.188   8.168
 2244SOL    HW1 7298   0.184   2.239   8.134
 2244SOL    HW2 7299   0.254   2.173   8.266
 2245SOL     OW 7300   1.194   3.474   7.479
 2245SOL    HW1 7301   1.200   3.381   7.516
 2245SOL    HW2 7302   1.135   3.474   7.399
 2246SOL     OW 7303   0.822   2.864   8.820
 2246SOL    HW1 7304   0.862   2.863   8.728
 2246SOL    HW2 7305   0.832   2.956   8.860
 2247SOL     OW 7306   0.916   2.772   7.739
 2247SOL    HW1 7307   0.979   2.810   7.671
 2247SOL    HW2 7308   0.956   2.689   7.778
 2248SOL     OW 7309   1.504   3.469   7.492
 2248SOL    HW1 7310   1.412   3.506   7.499
 2248SOL    HW2 7311   1.542   3.489   7.402
 2249SOL     OW 7312   0.372   3.150   8.938
 2249SOL    HW1 7313   0.359   3.243   8.904
 2249SOL    HW2 7314   0.288   3.098   8.925
 2250SOL     OW 7315   1.614   3.154   8.737
 2250SOL    HW1 7316   1.674   3.157   8.817
 2250SOL    HW2 7317   1.539   3.218   8.750
 2251SOL     OW 7318   1.039   2.960   8.144
 2251SOL    HW1 7319   0.969   2.913   8.198
 2251SOL    HW2 7320   1.098   2.892   8.101
 2252SOL     OW 7321   1.014   2.098   8.419
 2252SOL    HW1 7322   1.006   2.062   8.326
 2252SOL    HW2 7323   1.012   2.022   8.484
 2253SOL     OW 7324   0.590   3.349   7.939
 2253SOL    HW1 7325   0.632   3.291   7.869
 2253SOL    HW2 7326   0.546   3.428   7.895
 2254SOL     OW 7327   1.709   2.247   8.829
 2254SOL    HW1 7328   1.782   2.316   8.833
 2254SOL    HW2 7329   1.737   2.172   8.770
 2255SOL     OW 7330   0.255   3.210   7.738
 2255SOL    HW1 7331   0.159   3.211   7.711
 2255SOL    HW2 7332   0.267   3.263   7.822
 2256SOL     OW 7333   0.105   2.875   9.174
 2256SOL    HW1 7334   0.028   2.842   9.228
 2256SOL    HW2 7335   0.190   2.845   9.216
 2257SOL     OW 7336   0.672   2.065   8.937
 2257SOL    HW1 7337   0.762   2.049   8.897
 2257SOL    HW2 7338   0.680   2.070   9.036
 2258SOL     OW 7339   0.075   2.207   7.481
 2258SOL    HW1 7340  -0.017   2.179   7.452
 2258SOL    HW2 7341   0.106   2.284   7.425
 2259SOL     OW 7342   1.440   2.718   8.846
 2259SOL    HW1 7343   1.383   2.770   8.783
 2259SOL    HW2 7344   1.536   2.730   8.822
 2260SOL     OW 7345   0.072   2.028   7.766
 2260SOL    HW1 7346   0.055   2.111   7.712
 2260SOL    HW2 7347   0.162   1.991   7.744
 2261SOL     OW 7348   1.183   3.197   7.567
 2261SOL    HW1 7349   1.084   3.186   7.569
 2261SOL    HW2 7350   1.217   3.212   7.660
 2262SOL     OW 7351   0.613   2.704   8.879
 2262SOL    HW1 7352   0.669   2.785   8.862
 2262SOL    HW2 7353   0.672   2.624   8.882
 2263SOL     OW 7354   1.493   3.629   8.407
 2263SOL    HW1 7355   1.526   3.693   8.338
 2263SOL    HW2 7356   1.559   3.623   8.482
 2264SOL     OW 7357   0.716   2.427   9.156
 2264SOL    HW1 7358   0.735   2.492   9.230
 2264SOL    HW2 7359   0.776   2.347   9.165
 2265SOL     OW 7360   1.450   3.082   9.081
 2265SOL    HW1 7361   1.441   3.072   9.180
 2265SOL    HW2 7362   1.546   3.075   9.055
 2266SOL     OW 7363   0.390   3.603   9.008
 2266SOL    HW1 7364   0.299   3.644   9.006
 2266SOL    HW2 7365   0.383   3.509   9.040
 2267SOL     OW 7366   1.674   2.745   8.702
 2267SOL    HW1 7367   1.647   2.656   8.665
 2267SOL    HW2 7368   1.675   2.813   8.629
 2268SOL     OW 7369   1.225   2.187   7.897
 2268SOL    HW1 7370   1.290   2.113   7.886
 2268SOL    HW2 7371   1.245   2.237   7.981
 2269SOL     OW 7372   0.594   2.607   8.100
 2269SOL    HW1 7373   0.644   2.692   8.081
 2269SOL    HW2 7374   0.506   2.609   8.052
 2270SOL     OW 7375   1.777   2.204   9.090
 2270SOL    HW1 7376   1.760   2.235   8.996
 2270SOL    HW2 7377   1.693   2.167   9.128
 2271SOL     OW 7378   1.730   2.796   8.965
 2271SOL    HW1 7379   1.768   2.887   8.980
 2271SOL    HW2 7380   1.722   2.779   8.866
 2272SOL     OW 7381   0.859   3.236   7.464
 2272SOL    HW1 7382   0.813   3.251   7.552
 2272SOL    HW2 7383   0.903   3.321   7.434
 2273SOL     OW 7384   0.661   3.652   8.401
 2273SOL    HW1 7385   0.615   3.740   8.388
 2273SOL    HW2 7386   0.760   3.664   8.394
 2274SOL     OW 7387   0.859   2.818   8.309
 2274SOL    HW1 7388   0.913   2.749   8.357
 2274SOL    HW2 7389   0.827   2.887   8.375
 2275SOL     OW 7390   1.083   2.846   7.535
 2275SOL    HW1 7391   1.060   2.899   7.453
 2275SOL    HW2 7392   1.164   2.790   7.516
 2276SOL     OW 7393   1.861   3.431   8.299
 2276SOL    HW1 7394   1.790   3.419   8.229
 2276SOL    HW2 7395   1.862   3.352   8.359
 2277SOL     OW 7396   0.221   3.176   9.292
 2277SOL    HW1 7397   0.156   3.103   9.271
 2277SOL    HW2 7398   0.225   3.190   9.390
 2278SOL     OW 7399   0.079   3.102   8.101
 2278SOL    HW1 7400   0.078   3.055   8.189
 2278SOL    HW2 7401   0.161   3.074   8.050
 2279SOL     OW 7402   0.672   3.253   9.072
 2279SOL    HW1 7403   0.594   3.203   9.110
 2279SOL    HW2 7404   0.669   3.348   9.103
 2280SOL     OW 7405   1.824   2.054   8.675
 2280SOL    HW1 7406   1.820   1.964   8.719
 2280SOL    HW2 7407   1.827   2.043   8.576
 2281SOL     OW 7408   0.428   2.286   7.968
 2281SOL    HW1 7409   0.458   2.214   7.906
 2281SOL    HW2 7410   0.389   2.246   8.051
 2282SOL     OW 7411   1.705   3.349   8.552
 2282SOL    HW1 7412   1.612   3.324   8.525
 2282SOL    HW2 7413   1.731   3.299   8.634
 2283SOL     OW 7414   0.317   2.409   8.728
 2283SOL    HW1 7415   0.355   2.350   8.800
 2283SOL    HW2 7416   0.357   2.383   8.640
 2284SOL     OW 7417   0.812   3.448   8.135
 2284SOL    HW1 7418   0.844   3.458   8.041
 2284SOL    HW2 7419   0.733   3.386   8.137
 2285SOL     OW 7420   1.424   2.076   8.560
 2285SOL    HW1 7421   1.476   2.011   8.615
 2285SOL    HW2 7422   1.375   2.139   8.621
 2286SOL     OW 7423   1.001   1.896   8.602
 2286SOL    HW1 7424   0.938   1.824   8.571
 2286SOL    HW2 7425   1.094   1.860   8.602
 2287SOL     OW 7426   0.770   3.192   7.749
 2287SOL    HW1 7427   0.724   3.105   7.766
 2287SOL    HW2 7428   0.861   3.189   7.790
 2288SOL     OW 7429   0.618   3.429   8.732
 2288SOL    HW1 7430   0.613   3.511   8.789
 2288SOL    HW2 7431   0.707   3.426   8.687
 2289SOL     OW 7432   1.352   1.914   7.616
 2289SOL    HW1 7433   1.387   1.873   7.532
 2289SOL    HW2 7434   1.262   1.876   7.636
 2290SOL     OW 7435   1.300   2.315   8.139
 2290SOL    HW1 7436   1.241   2.395   8.143
 2290SOL    HW2 7437   1.315   2.280   8.232
 2291SOL     OW 7438   1.593   2.083   8.330
 2291SOL    HW1 7439   1.509   2.082   8.384
 2291SOL    HW2 7440   1.595   2.166   8.274
 2292SOL     OW 7441   0.039   2.939   7.748
 2292SOL    HW1 7442   0.138   2.928   7.739
 2292SOL    HW2 7443  -0.001   2.853   7.780
 2293SOL     OW 7444   0.875   3.508   7.785
 2293SOL    HW1 7445   0.798   3.473   7.731
 2293SOL    HW2 7446   0.843   3.579   7.847
 2294SOL     OW 7447   0.230   2.490   9.423
 2294SOL    HW1 7448   0.137   2.488   9.460
 2294SOL    HW2 7449   0.231   2.451   9.331
 2295SOL     OW 7450   0.225   2.137  10.306
 2295SOL    HW1 7451   0.260   2.120  10.398
 2295SOL    HW2 7452   0.137   2.092  10.294
 2296SOL     OW 7453   0.019   2.230   9.957
 2296SOL    HW1 7454  -0.063   2.273   9.996
 2296SOL    HW2 7455  -0.009   2.157   9.894
 2297SOL     OW 7456   0.569   3.137  10.475
 2297SOL    HW1 7457   0.476   3.130  10.438
 2297SOL    HW2 7458   0.580   3.226  10.519
 2298SOL     OW 7459   1.555   3.373  10.013
 2298SOL    HW1 7460   1.498   3.357  10.094
 2298SOL    HW2 7461   1.496   3.383   9.933
 2299SOL     OW 7462   1.135   2.565  10.027
 2299SOL    HW1 7463   1.192   2.643  10.002
 2299SOL    HW2 7464   1.075   2.591  10.103
 2300SOL     OW 7465   1.755   2.469   9.541
 2300SOL    HW1 7466   1.743   2.456   9.442
 2300SOL    HW2 7467   1.725   2.388   9.590
 2301SOL     OW 7468   0.768   3.006  10.333
 2301SOL    HW1 7469   0.690   3.023  10.393
 2301SOL    HW2 7470   0.802   3.093  10.297
 2302SOL     OW 7471   0.850   2.660  11.133
 2302SOL    HW1 7472   0.846   2.736  11.198
 2302SOL    HW2 7473   0.872   2.696  11.042
 2303SOL     OW 7474   0.685   2.874   9.975
 2303SOL    HW1 7475   0.754   2.858  10.045
 2303SOL    HW2 7476   0.612   2.931  10.013
 2304SOL     OW 7477   0.335   3.297  10.371
 2304SOL    HW1 7478   0.257   3.266  10.318
 2304SOL    HW2 7479   0.393   3.355  10.314
 2305SOL     OW 7480   1.460   3.367  10.649
 2305SOL    HW1 7481   1.484   3.461  10.675
 2305SOL    HW2 7482   1.444   3.313  10.731
 2306SOL     OW 7483   0.438   2.254  10.809
 2306SOL    HW1 7484   0.520   2.198  10.818
 2306SOL    HW2 7485   0.357   2.196  10.813
 2307SOL     OW 7486   1.603   2.309  10.047
 2307SOL    HW1 7487   1.529   2.355   9.997
 2307SOL    HW2 7488   1.654   2.377  10.100
 2308SOL     OW 7489   0.231   3.575   9.793
 2308SOL    HW1 7490   0.265   3.652   9.847
 2308SOL    HW2 7491   0.275   3.575   9.703
 2309SOL     OW 7492   0.230   3.296   9.848
 2309SOL    HW1 7493   0.204   3.392   9.848
 2309SOL    HW2 7494   0.159   3.242   9.893
 2310SOL     OW 7495   0.240   2.953  10.196
 2310SOL    HW1 7496   0.254   2.869  10.248
 2310SOL    HW2 7497   0.185   3.017  10.251
 2311SOL     OW 7498   0.620   3.648  10.749
 2311SOL    HW1 7499   0.528   3.631  10.784
 2311SOL    HW2 7500   0.648   3.740  10.775
 2312SOL     OW 7501   0.606   2.826   9.433
 2312SOL    HW1 7502   0.613   2.910   9.379
 2312SOL    HW2 7503   0.652   2.839   9.521
 2313SOL     OW 7504   1.594   1.976  10.790
 2313SOL    HW1 7505   1.576   2.043  10.718
 2313SOL    HW2 7506   1.591   2.022  10.879
 2314SOL     OW 7507   0.122   2.505   9.873
 2314SOL    HW1 7508   0.077   2.417   9.890
 2314SOL    HW2 7509   0.121   2.559   9.957
 2315SOL     OW 7510   1.842   3.629   9.669
 2315SOL    HW1 7511   1.896   3.600   9.749
 2315SOL    HW2 7512   1.872   3.719   9.640
 2316SOL     OW 7513   0.027   3.458   9.427
 2316SOL    HW1 7514   0.008   3.362   9.448
 2316SOL    HW2 7515  -0.006   3.516   9.502
 2317SOL     OW 7516   1.689   2.784   9.922
 2317SOL    HW1 7517   1.784   2.755   9.930
 2317SOL    HW2 7518   1.681   2.849   9.847
 2318SOL     OW 7519   1.641   2.970   9.742
 2318SOL    HW1 7520   1.727   2.972   9.690
 2318SOL    HW2 7521   1.655   3.017   9.830
 2319SOL     OW 7522   0.113   2.599  10.907
 2319SOL    HW1 7523   0.201   2.586  10.952
 2319SOL    HW2 7524   0.100   2.696  10.885
 2320SOL     OW 7525   0.613   3.227  10.036
 2320SOL    HW1 7526   0.564   3.140  10.045
 2320SOL    HW2 7527   0.590   3.270   9.949
 2321SOL     OW 7528   1.293   3.090  10.733
 2321SOL    HW1 7529   1.330   3.017  10.675
 2321SOL    HW2 7530   1.345   3.095  10.818
 2322SOL     OW 7531   0.809   1.866   9.812
 2322SOL    HW1 7532   0.849   1.957   9.803
 2322SOL    HW2 7533   0.709   1.874   9.818
 2323SOL     OW 7534   0.197   2.838  10.574
 2323SOL    HW1 7535   0.286   2.793  10.560
 2323SOL    HW2 7536   0.124   2.773  10.555
 2324SOL     OW 7537   1.525   2.861   9.500
 2324SOL    HW1 7538   1.462   2.785   9.513
 2324SOL    HW2 7539   1.573   2.879   9.586
 2325SOL     OW 7540   1.187   3.654  10.926
 2325SOL    HW1 7541   1.211   3.714  10.850
 2325SOL    HW2 7542   1.194   3.559  10.896
 2326SOL     OW 7543   0.317   2.113  11.111
 2326SOL    HW1 7544   0.388   2.184  11.117
 2326SOL    HW2 7545   0.229   2.152  11.139
 2327SOL     OW 7546   1.466   3.279  10.263
 2327SOL    HW1 7547   1.407   3.285  10.343
 2327SOL    HW2 7548   1.451   3.191  10.217
 2328SOL     OW 7549   1.667   3.576   9.882
 2328SOL    HW1 7550   1.626   3.553   9.794
 2328SOL    HW2 7551   1.649   3.502   9.947
 2329SOL     OW 7552   0.598   2.591   9.580
 2329SOL    HW1 7553   0.622   2.660   9.512
 2329SOL    HW2 7554   0.520   2.624   9.634
 2330SOL     OW 7555   1.281   2.207  10.254
 2330SOL    HW1 7556   1.195   2.157  10.241
 2330SOL    HW2 7557   1.343   2.153  10.310
 2331SOL     OW 7558   1.576   3.524   9.617
 2331SOL    HW1 7559   1.665   3.570   9.620
 2331SOL    HW2 7560   1.555   3.500   9.522
 2332SOL     OW 7561   0.807   2.467  10.775
 2332SOL    HW1 7562   0.760   2.464  10.864
 2332SOL    HW2 7563   0.756   2.412  10.709
 2333SOL     OW 7564   0.973   2.752  10.882
 2333SOL    HW1 7565   1.019   2.668  10.853
 2333SOL    HW2 7566   0.917   2.786  10.807
 2334SOL     OW 7567   0.991   2.272  10.552
 2334SOL    HW1 7568   0.914   2.306  10.606
 2334SOL    HW2 7569   0.957   2.221  10.473
 2335SOL     OW 7570   1.041   2.563   9.739
 2335SOL    HW1 7571   1.067   2.559   9.835
 2335SOL    HW2 7572   0.956   2.512   9.725
 2336SOL     OW 7573   0.076   2.673  10.099
 2336SOL    HW1 7574   0.175   2.661  10.108
 2336SOL    HW2 7575   0.052   2.768  10.120
 2337SOL     OW 7576   0.130   3.683  10.881
 2337SOL    HW1 7577   0.120   3.668  10.980
 2337SOL    HW2 7578   0.044   3.719  10.845
 2338SOL     OW 7579   0.865   2.210   9.505
 2338SOL    HW1 7580   0.924   2.273   9.456
 2338SOL    HW2 7581   0.884   2.116   9.476
 2339SOL     OW 7582   1.362   3.006   9.855
 2339SOL    HW1 7583   1.445   2.977   9.807
 2339SOL    HW2 7584   1.313   3.073   9.799
 2340SOL     OW 7585   0.550   2.058  10.195
 2340SOL    HW1 7586   0.545   2.053  10.295
 2340SOL    HW2 7587   0.552   2.154  10.166
 2341SOL     OW 7588   1.008   3.318   9.787
 2341SOL    HW1 7589   0.962   3.390   9.735
 2341SOL    HW2 7590   1.004   3.338   9.885
 2342SOL     OW 7591   0.351   3.663  10.163
 2342SOL    HW1 7592   0.401   3.577  10.169
 2342SOL    HW2 7593   0.416   3.740  10.160
 2343SOL     OW 7594   1.795   2.928  10.183
 2343SOL    HW1 7595   1.733   2.913  10.107
 2343SOL    HW2 7596   1.743   2.939  10.268
 2344SOL     OW 7597   1.227   3.412  10.816
 2344SOL    HW1 7598   1.233   3.335  10.880
 2344SOL    HW2 7599   1.175   3.386  10.736
 2345SOL     OW 7600   0.321   2.805   9.552
 2345SOL    HW1 7601   0.403   2.844   9.510
 2345SOL    HW2 7602   0.294   2.723   9.503
 2346SOL     OW 7603   1.458   2.597  10.038
 2346SOL    HW1 7604   1.453   2.532  10.113
 2346SOL    HW2 7605   1.538   2.656  10.051
 2347SOL     OW 7606   0.461   3.128  11.037
 2347SOL    HW1 7607   0.411   3.129  10.951
 2347SOL    HW2 7608   0.398   3.110  11.113
 2348SOL     OW 7609   1.111   3.638   9.547
 2348SOL    HW1 7610   1.051   3.576   9.597
 2348SOL    HW2 7611   1.142   3.594   9.462
 2349SOL     OW 7612   0.202   2.147  10.808
 2349SOL    HW1 7613   0.122   2.207  10.795
 2349SOL    HW2 7614   0.192   2.098  10.894
 2350SOL     OW 7615   1.632   3.239   9.391
 2350SOL    HW1 7616   1.600   3.333   9.381
 2350SOL    HW2 7617   1.556   3.176   9.379
 2351SOL     OW 7618   0.464   3.605   9.633
 2351SOL    HW1 7619   0.497   3.644   9.719
 2351SOL    HW2 7620   0.540   3.598   9.568
 2352SOL     OW 7621   1.400   1.969   9.736
 2352SOL    HW1 7622   1.376   1.932   9.646
 2352SOL    HW2 7623   1.499   1.985   9.740
 2353SOL     OW 7624   0.249   3.647  10.551
 2353SOL    HW1 7625   0.306   3.582  10.601
 2353SOL    HW2 7626   0.233   3.614  10.458
 2354SOL     OW 7627   0.940   3.560  10.214
 2354SOL    HW1 7628   1.020   3.503  10.235
 2354SOL    HW2 7629   0.891   3.520  10.137
 2355SOL     OW 7630   0.382   2.562   9.790
 2355SOL    HW1 7631   0.427   2.472   9.787
 2355SOL    HW2 7632   0.288   2.551   9.823
 2356SOL     OW 7633   0.614   1.984   9.427
 2356SOL    HW1 7634   0.712   1.962   9.434
 2356SOL    HW2 7635   0.583   1.967   9.334
 2357SOL     OW 7636   0.781   2.126  11.059
 2357SOL    HW1 7637   0.848   2.065  11.102
 2357SOL    HW2 7638   0.708   2.145  11.124
 2358SOL     OW 7639   0.888   3.376  10.505
 2358SOL    HW1 7640   0.865   3.351  10.411
 2358SOL    HW2 7641   0.949   3.307  10.544
 2359SOL     OW 7642   1.351   2.452  10.743
 2359SOL    HW1 7643   1.379   2.409  10.828
 2359SOL    HW2 7644   1.376   2.548  10.744
 2360SOL     OW 7645   0.803   3.264  10.234
 2360SOL    HW1 7646   0.893   3.278  10.192
 2360SOL    HW2 7647   0.732   3.266  10.163
 2361SOL     OW 7648   0.922   2.365  10.209
 2361SOL    HW1 7649   0.897   2.356  10.113
 2361SOL    HW2 7650   0.970   2.283  10.240
 2362SOL     OW 7651   0.539   1.926   9.822
 2362SOL    HW1 7652   0.458   1.927   9.880
 2362SOL    HW2 7653   0.542   2.009   9.767
 2363SOL     OW 7654   1.434   3.050   9.351
 2363SOL    HW1 7655   1.466   2.974   9.408
 2363SOL    HW2 7656   1.342   3.077   9.381
 2364SOL     OW 7657   0.297   1.897   9.481
 2364SOL    HW1 7658   0.346   1.981   9.460
 2364SOL    HW2 7659   0.359   1.832   9.526
 2365SOL     OW 7660   0.935   2.098   9.790
 2365SOL    HW1 7661   0.887   2.139   9.712
 2365SOL    HW2 7662   1.034   2.096   9.771
 2366SOL     OW 7663   1.076   2.545  10.774
 2366SOL    HW1 7664   0.996   2.484  10.777
 2366SOL    HW2 7665   1.157   2.492  10.750
 2367SOL     OW 7666   1.227   3.432  10.103
 2367SOL    HW1 7667   1.248   3.506  10.038
 2367SOL    HW2 7668   1.295   3.432  10.176
 2368SOL     OW 7669   0.459   3.014  10.051
 2368SOL    HW1 7670   0.388   2.987  10.116
 2368SOL    HW2 7671   0.433   2.986   9.958
 2369SOL     OW 7672   1.271   3.659   9.901
 2369SOL    HW1 7673   1.315   3.723   9.837
 2369SOL    HW2 7674   1.221   3.711   9.971
 2370SOL     OW 7675   1.032   2.411   9.326
 2370SOL    HW1 7676   0.991   2.493   9.287
 2370SOL    HW2 7677   1.096   2.437   9.399
 2371SOL     OW 7678   0.078   2.418  10.696
 2371SOL    HW1 7679   0.170   2.417  10.655
 2371SOL    HW2 7680   0.072   2.492  10.763
 2372SOL     OW 7681   0.561   2.084  10.457
 2372SOL    HW1 7682   0.599   2.000  10.494
 2372SOL    HW2 7683   0.473   2.103  10.501
 2373SOL     OW 7684   0.866   2.316   9.952
 2373SOL    HW1 7685   0.834   2.388   9.890
 2373SOL    HW2 7686   0.890   2.235   9.899
 2374SOL     OW 7687   1.017   1.901  10.063
 2374SOL    HW1 7688   0.945   1.906   9.994
 2374SOL    HW2 7689   0.993   1.832  10.132
 2375SOL     OW 7690   1.429   3.035  10.177
 2375SOL    HW1 7691   1.374   2.951  10.170
 2375SOL    HW2 7692   1.455   3.064  10.085
 2376SOL     OW 7693   1.466   2.452  10.302
 2376SOL    HW1 7694   1.436   2.357  10.309
 2376SOL    HW2 7695   1.539   2.468  10.368
 2377SOL     OW 7696   1.857   2.695   9.687
 2377SOL    HW1 7697   1.899   2.631   9.751
 2377SOL    HW2 7698   1.819   2.644   9.609
 2378SOL     OW 7699   0.488   3.247   9.484
 2378SOL    HW1 7700   0.401   3.232   9.531
 2378SOL    HW2 7701   0.471   3.273   9.389
 2379SOL     OW 7702   1.664   3.142   9.967
 2379SOL    HW1 7703   1.763   3.150   9.981
 2379SOL    HW2 7704   1.619   3.226   9.998
 2380SOL     OW 7705   1.390   2.437   9.388
 2380SOL    HW1 7706   1.336   2.416   9.469
 2380SOL    HW2 7707   1.481   2.396   9.397
 2381SOL     OW 7708   0.527   2.118   9.638
 2381SOL    HW1 7709   0.554   2.059   9.563
 2381SOL    HW2 7710   0.527   2.213   9.607
 2382SOL     OW 7711   1.754   3.085  10.898
 2382SOL    HW1 7712   1.845   3.046  10.885
 2382SOL    HW2 7713   1.762   3.181  10.922
 2383SOL     OW 7714   1.064   3.209  10.650
 2383SOL    HW1 7715   0.984   3.186  10.705
 2383SOL    HW2 7716   1.147   3.183  10.699
 2384SOL     OW 7717   1.111   3.057  10.410
 2384SOL    HW1 7718   1.071   3.101  10.491
 2384SOL    HW2 7719   1.070   3.094  10.327
 2385SOL     OW 7720   1.638   2.961  10.389
 2385SOL    HW1 7721   1.643   3.042  10.448
 2385SOL    HW2 7722   1.552   2.963  10.338
 2386SOL     OW 7723   0.915   1.951  10.712
 2386SOL    HW1 7724   0.940   1.931  10.617
 2386SOL    HW2 7725   0.987   2.007  10.754
 2387SOL     OW 7726   0.705   2.912   9.678
 2387SOL    HW1 7727   0.691   2.919   9.777
 2387SOL    HW2 7728   0.789   2.861   9.660
 2388SOL     OW 7729   0.410   2.675  10.561
 2388SOL    HW1 7730   0.496   2.687  10.611
 2388SOL    HW2 7731   0.368   2.588  10.588
 2389SOL     OW 7732   1.274   2.248  10.572
 2389SOL    HW1 7733   1.295   2.322  10.636
 2389SOL    HW2 7734   1.185   2.265  10.529
 2390SOL     OW 7735   0.064   3.426  10.641
 2390SOL    HW1 7736   0.018   3.508  10.607
 2390SOL    HW2 7737   0.162   3.445  10.650
 2391SOL     OW 7738   0.367   2.962   9.811
 2391SOL    HW1 7739   0.360   3.045   9.755
 2391SOL    HW2 7740   0.371   2.882   9.751
 2392SOL     OW 7741   0.566   2.399  10.175
 2392SOL    HW1 7742   0.578   2.465  10.101
 2392SOL    HW2 7743   0.612   2.433  10.258
 2393SOL     OW 7744   1.252   3.210   9.698
 2393SOL    HW1 7745   1.302   3.287   9.738
 2393SOL    HW2 7746   1.157   3.212   9.730
 2394SOL     OW 7747   1.272   3.307  10.452
 2394SOL    HW1 7748   1.319   3.320  10.539
 2394SOL    HW2 7749   1.206   3.233  10.461
 2395SOL     OW 7750   1.582   2.501   9.782
 2395SOL    HW1 7751   1.551   2.562   9.855
 2395SOL    HW2 7752   1.632   2.553   9.713
 2396SOL     OW 7753   0.354   3.372  10.639
 2396SOL    HW1 7754   0.333   3.328  10.552
 2396SOL    HW2 7755   0.451   3.398  10.642
 2397SOL     OW 7756   0.402   2.613  10.908
 2397SOL    HW1 7757   0.470   2.668  10.861
 2397SOL    HW2 7758   0.442   2.525  10.935
 2398SOL     OW 7759   1.587   2.641  10.980
 2398SOL    HW1 7760   1.495   2.679  10.975
 2398SOL    HW2 7761   1.647   2.688  10.915
 2399SOL     OW 7762   0.573   2.732  10.339
 2399SOL    HW1 7763   0.617   2.821  10.330
 2399SOL    HW2 7764   0.510   2.732  10.416
 2400SOL     OW 7765   1.360   2.724  10.355
 2400SOL    HW1 7766   1.285   2.724  10.289
 2400SOL    HW2 7767   1.397   2.632  10.364
 2401SOL     OW 7768   1.209   2.387   9.585
 2401SOL    HW1 7769   1.222   2.303   9.639
 2401SOL    HW2 7770   1.180   2.461   9.645
 2402SOL     OW 7771   0.307   2.075  10.541
 2402SOL    HW1 7772   0.284   2.112  10.631
 2402SOL    HW2 7773   0.277   1.980  10.535
 2403SOL     OW 7774   0.037   3.172  10.592
 2403SOL    HW1 7775   0.090   3.123  10.660
 2403SOL    HW2 7776   0.059   3.270  10.597
 2404SOL     OW 7777   0.732   2.496  10.374
 2404SOL    HW1 7778   0.791   2.470  10.298
 2404SOL    HW2 7779   0.704   2.592  10.363
 2405SOL     OW 7780   0.307   1.925   9.928
 2405SOL    HW1 7781   0.296   2.019   9.961
 2405SOL    HW2 7782   0.302   1.862  10.005
 2406SOL     OW 7783   1.622   2.229   9.684
 2406SOL    HW1 7784   1.624   2.153   9.748
 2406SOL    HW2 7785   1.574   2.306   9.724
 2407SOL     OW 7786   1.023   2.628  10.276
 2407SOL    HW1 7787   1.038   2.649  10.372
 2407SOL    HW2 7788   0.993   2.533  10.267
 2408SOL     OW 7789   0.980   3.435  11.010
 2408SOL    HW1 7790   0.960   3.479  10.922
 2408SOL    HW2 7791   1.019   3.344  10.994
 2409SOL     OW 7792   1.859   3.380  10.915
 2409SOL    HW1 7793   1.873   3.407  10.820
 2409SOL    HW2 7794   1.942   3.402  10.968
 2410SOL     OW 7795   0.350   2.760  11.114
 2410SOL    HW1 7796   0.426   2.804  11.162
 2410SOL    HW2 7797   0.385   2.713  11.032
 2411SOL     OW 7798   1.540   2.136   9.435
 2411SOL    HW1 7799   1.479   2.061   9.458
 2411SOL    HW2 7800   1.562   2.188   9.518
 2412SOL     OW 7801   1.303   2.700   9.352
 2412SOL    HW1 7802   1.337   2.607   9.367
 2412SOL    HW2 7803   1.321   2.727   9.257
 2413SOL     OW 7804   1.068   3.195  10.159
 2413SOL    HW1 7805   1.075   3.111  10.104
 2413SOL    HW2 7806   1.130   3.264  10.123
 2414SOL     OW 7807   0.319   2.672  10.259
 2414SOL    HW1 7808   0.412   2.708  10.264
 2414SOL    HW2 7809   0.313   2.587  10.311
 2415SOL     OW 7810   0.339   2.371  10.316
 2415SOL    HW1 7811   0.287   2.288  10.299
 2415SOL    HW2 7812   0.416   2.376  10.252
 2416SOL     OW 7813   1.160   2.069  10.787
 2416SOL    HW1 7814   1.160   2.133  10.864
 2416SOL    HW2 7815   1.188   2.117  10.704
 2417SOL     OW 7816   0.008   3.188   9.510
 2417SOL    HW1 7817  -0.085   3.209   9.479
 2417SOL    HW2 7818   0.018   3.089   9.523
 2418SOL     OW 7819   0.088   3.663  10.237
 2418SOL    HW1 7820   0.046   3.577  10.210
 2418SOL    HW2 7821   0.182   3.666  10.203
 2419SOL     OW 7822   0.504   3.430  10.220
 2419SOL    HW1 7823   0.570   3.504  10.229
 2419SOL    HW2 7824   0.548   3.351  10.178
 2420SOL     OW 7825   1.002   2.658  10.548
 2420SOL    HW1 7826   1.043   2.626  10.634
 2420SOL    HW2 7827   0.906   2.631  10.545
 2421SOL     OW 7828   0.040   2.406  10.424
 2421SOL    HW1 7829   0.125   2.373  10.383
 2421SOL    HW2 7830   0.053   2.421  10.522
 2422SOL     OW 7831   0.815   2.434   9.635
 2422SOL    HW1 7832   0.822   2.345   9.589
 2422SOL    HW2 7833   0.721   2.468   9.627
 2423SOL     OW 7834   1.657   2.466  10.516
 2423SOL    HW1 7835   1.619   2.397  10.578
 2423SOL    HW2 7836   1.739   2.430  10.472
 2424SOL     OW 7837   0.252   3.426  11.054
 2424SOL    HW1 7838   0.222   3.483  11.130
 2424SOL    HW2 7839   0.245   3.329  11.080
 2425SOL     OW 7840   0.671   2.326  10.579
 2425SOL    HW1 7841   0.637   2.237  10.549
 2425SOL    HW2 7842   0.697   2.380  10.499
 2426SOL     OW 7843   0.930   3.540  10.775
 2426SOL    HW1 7844   0.906   3.522  10.680
 2426SOL    HW2 7845   0.960   3.634  10.785
 2427SOL     OW 7846   0.473   2.362   9.501
 2427SOL    HW1 7847   0.534   2.442   9.505
 2427SOL    HW2 7848   0.378   2.393   9.508
 2428SOL     OW 7849   0.159   2.999  10.776
 2428SOL    HW1 7850   0.181   2.938  10.852
 2428SOL    HW2 7851   0.169   2.950  10.690
 2429SOL     OW 7852   1.347   2.921  10.544
 2429SOL    HW1 7853   1.371   2.858  10.470
 2429SOL    HW2 7854   1.257   2.961  10.526
 2430SOL     OW 7855   1.302   2.717   9.619
 2430SOL    HW1 7856   1.216   2.686   9.661
 2430SOL    HW2 7857   1.298   2.703   9.520
 2431SOL     OW 7858   1.759   3.609  10.464
 2431SOL    HW1 7859   1.820   3.639  10.391
 2431SOL    HW2 7860   1.721   3.520  10.442
 2432SOL     OW 7861   1.252   3.593  10.438
 2432SOL    HW1 7862   1.336   3.598  10.384
 2432SOL    HW2 7863   1.229   3.497  10.456
 2433SOL     OW 7864   0.083   3.120  10.332
 2433SOL    HW1 7865   0.078   3.119  10.432
 2433SOL    HW2 7866   0.000   3.079  10.294
 2434SOL     OW 7867   1.726   1.997   9.833
 2434SOL    HW1 7868   1.799   1.980   9.766
 2434SOL    HW2 7869   1.695   1.910   9.871
 2435SOL     OW 7870   1.388   3.435   9.787
 2435SOL    HW1 7871   1.455   3.447   9.713
 2435SOL    HW2 7872   1.348   3.524   9.810
 2436SOL     OW 7873   1.280   2.789   9.982
 2436SOL    HW1 7874   1.340   2.708   9.984
 2436SOL    HW2 7875   1.320   2.858   9.922
 2437SOL     OW 7876   0.830   3.135  10.732
 2437SOL    HW1 7877   0.825   3.168  10.827
 2437SOL    HW2 7878   0.744   3.154  10.686
 2438SOL     OW 7879   0.672   3.478   9.464
 2438SOL    HW1 7880   0.681   3.488   9.365
 2438SOL    HW2 7881   0.632   3.389   9.485
 2439SOL     OW 7882   1.650   3.582  10.704
 2439SOL    HW1 7883   1.703   3.592  10.620
 2439SOL    HW2 7884   1.623   3.672  10.738
 2440SOL     OW 7885   1.841   2.037  10.273
 2440SOL    HW1 7886   1.880   1.952  10.237
 2440SOL    HW2 7887   1.743   2.039  10.254
 2441SOL     OW 7888   0.263   2.188  10.030
 2441SOL    HW1 7889   0.184   2.239   9.996
 2441SOL    HW2 7890   0.254   2.173  10.128
 2442SOL     OW 7891   1.194   3.474   9.341
 2442SOL    HW1 7892   1.200   3.381   9.378
 2442SOL    HW2 7893   1.135   3.474   9.261
 2443SOL     OW 7894   0.822   2.864  10.682
 2443SOL    HW1 7895   0.862   2.863  10.590
 2443SOL    HW2 7896   0.832   2.956  10.722
 2444SOL     OW 7897   0.916   2.772   9.601
 2444SOL    HW1 7898   0.979   2.810   9.533
 2444SOL    HW2 7899   0.956   2.689   9.640
 2445SOL     OW 7900   1.504   3.469   9.354
 2445SOL    HW1 7901   1.412   3.506   9.361
 2445SOL    HW2 7902   1.542   3.489   9.264
 2446SOL     OW 7903   0.372   3.150  10.800
 2446SOL    HW1 7904   0.359   3.243  10.766
 2446SOL    HW2 7905   0.288   3.098  10.787
 2447SOL     OW 7906   1.614   3.154  10.599
 2447SOL    HW1 7907   1.674   3.157  10.679
 2447SOL    HW2 7908   1.539   3.218  10.612
 2448SOL     OW 7909   1.039   2.960  10.006
 2448SOL    HW1 7910   0.969   2.913  10.060
 2448SOL    HW2 7911   1.098   2.892   9.963
 2449SOL     OW 7912   1.014   2.098  10.281
 2449SOL    HW1 7913   1.006   2.062  10.188
 2449SOL    HW2 7914   1.012   2.022  10.346
 2450SOL     OW 7915   0.590   3.349   9.801
 2450SOL    HW1 7916   0.632   3.291   9.731
 2450SOL    HW2 7917   0.546   3.428   9.757
 2451SOL     OW 7918   1.709   2.247  10.691
 2451SOL    HW1 7919   1.782   2.316  10.695
 2451SOL    HW2 7920   1.737   2.172  10.632
 2452SOL     OW 7921   0.255   3.210   9.600
 2452SOL    HW1 7922   0.159   3.211   9.573
 2452SOL    HW2 7923   0.267   3.263   9.684
 2453SOL     OW 7924   0.105   2.875  11.036
 2453SOL    HW1 7925   0.028   2.842  11.090
 2453SOL    HW2 7926   0.190   2.845  11.078
 2454SOL     OW 7927   0.672   2.065  10.799
 2454SOL    HW1 7928   0.762   2.049  10.759
 2454SOL    HW2 7929   0.680   2.070  10.898
 2455SOL     OW 7930   0.075   2.207   9.343
 2455SOL    HW1 7931  -0.017   2.179   9.314
 2455SOL    HW2 7932   0.106   2.284   9.287
 2456SOL     OW 7933   1.440   2.718  10.708
 2456SOL    HW1 7934   1.383   2.770  10.645
 2456SOL    HW2 7935   1.536   2.730  10.684
 2457SOL     OW 7936   0.072   2.028   9.628
 2457SOL    HW1 7937   0.055   2.111   9.574
 2457SOL    HW2 7938   0.162   1.991   9.606
 2458SOL     OW 7939   1.183   3.197   9.429
 2458SOL    HW1 7940   1.084   3.186   9.431
 2458SOL    HW2 7941   1.217   3.212   9.522
 2459SOL     OW 7942   0.613   2.704  10.741
 2459SOL    HW1 7943   0.669   2.785  10.724
 2459SOL    HW2 7944   0.672   2.624  10.744
 2460SOL     OW 7945   1.493   3.629  10.269
 2460SOL    HW1 7946   1.526   3.693  10.200
 2460SOL    HW2 7947   1.559   3.623  10.344
 2461SOL     OW 7948   0.716   2.427  11.018
 2461SOL    HW1 7949   0.735   2.492  11.092
 2461SOL    HW2 7950   0.776   2.347  11.027
 2462SOL     OW 7951   0.390   3.603  10.870
 2462SOL    HW1 7952   0.299   3.644  10.868
 2462SOL    HW2 7953   0.383   3.509  10.902
 2463SOL     OW 7954   1.674   2.745  10.564
 2463SOL    HW1 7955   1.647   2.656  10.527
 2463SOL    HW2 7956   1.675   2.813  10.491
 2464SOL     OW 7957   1.225   2.187   9.759
 2464SOL    HW1 7958   1.290   2.113   9.748
 2464SOL    HW2 7959   1.245   2.237   9.843
 2465SOL     OW 7960   0.594   2.607   9.962
 2465SOL    HW1 7961   0.644   2.692   9.943
 2465SOL    HW2 7962   0.506   2.609   9.914
 2466SOL     OW 7963   1.777   2.204  10.952
 2466SOL    HW1 7964   1.760   2.235  10.858
 2466SOL    HW2 7965   1.693   2.167  10.990
 2467SOL     OW 7966   1.730   2.796  10.827
 2467SOL    HW1 7967   1.768   2.887  10.842
 2467SOL    HW2 7968   1.722   2.779  10.728
 2468SOL     OW 7969   0.859   3.236   9.326
 2468SOL    HW1 7970   0.813   3.251   9.414
 2468SOL    HW2 7971   0.903   3.321   9.296
 2469SOL     OW 7972   0.661   3.652  10.263
 2469SOL    HW1 7973   0.615   3.740  10.250
 2469SOL    HW2 7974   0.760   3.664  10.256
 2470SOL     OW 7975   0.859   2.818  10.171
 2470SOL    HW1 7976   0.913   2.749  10.219
 2470SOL    HW2 7977   0.827   2.887  10.237
 2471SOL     OW 7978   1.083   2.846   9.397
 2471SOL    HW1 7979   1.060   2.899   9.315
 2471SOL    HW2 7980   1.164   2.790   9.378
 2472SOL     OW 7981   1.861   3.431  10.161
 2472SOL    HW1 7982   1.790   3.419  10.091
 2472SOL    HW2 7983   1.862   3.352  10.221
 2473SOL     OW 7984   0.079   3.102   9.963
 2473SOL    HW1 7985   0.078   3.055  10.051
 2473SOL    HW2 7986   0.161   3.074   9.912
 2474SOL     OW 7987   0.672   3.253  10.934
 2474SOL    HW1 7988   0.594   3.203  10.972
 2474SOL    HW2 7989   0.669   3.348  10.965
 2475SOL     OW 7990   1.824   2.054  10.537
 2475SOL    HW1 7991   1.820   1.964  10.581
 2475SOL    HW2 7992   1.827   2.043  10.438
 2476SOL     OW 7993   0.428   2.286   9.830
 2476SOL    HW1 7994   0.458   2.214   9.768
 2476SOL    HW2 7995   0.389   2.246   9.913
 2477SOL     OW 7996   1.705   3.349  10.414
 2477SOL    HW1 7997   1.612   3.324  10.387
 2477SOL    HW2 7998   1.731   3.299  10.496
 2478SOL     OW 7999   0.317   2.409  10.590
 2478SOL    HW1 8000   0.355   2.350  10.662
 2478SOL    HW2 8001   0.357   2.383  10.502
 2479SOL     OW 8002   0.812   3.448   9.997
 2479SOL    HW1 8003   0.844   3.458   9.903
 2479SOL    HW2 8004   0.733   3.386   9.999
 2480SOL     OW 8005   1.424   2.076  10.422
 2480SOL    HW1 8006   1.476   2.011  10.477
 2480SOL    HW2 8007   1.375   2.139  10.483
 2481SOL     OW 8008   1.001   1.896  10.464
 2481SOL    HW1 8009   0.938   1.824  10.433
 2481SOL    HW2 8010   1.094   1.860  10.464
 2482SOL     OW 8011   0.770   3.192   9.611
 2482SOL    HW1 8012   0.724   3.105   9.628
 2482SOL    HW2 8013   0.861   3.189   9.652
 2483SOL     OW 8014   0.618   3.429  10.594
 2483SOL    HW1 8015   0.613   3.511  10.651
 2483SOL    HW2 8016   0.707   3.426  10.549
 2484SOL     OW 8017   1.352   1.914   9.478
 2484SOL    HW1 8018   1.387   1.873   9.394
 2484SOL    HW2 8019   1.262   1.876   9.498
 2485SOL     OW 8020   1.300   2.315  10.001
 2485SOL    HW1 8021   1.241   2.395  10.005
 2485SOL    HW2 8022   1.315   2.280  10.094
 2486SOL     OW 8023   1.593   2.083  10.192
 2486SOL    HW1 8024   1.509   2.082  10.246
 2486SOL    HW2 8025   1.595   2.166  10.136
 2487SOL     OW 8026   0.039   2.939   9.610
 2487SOL    HW1 8027   0.138   2.928   9.601
 2487SOL    HW2 8028  -0.001   2.853   9.642
 2488SOL     OW 8029   0.875   3.508   9.647
 2488SOL    HW1 8030   0.798   3.473   9.593
 2488SOL    HW2 8031   0.843   3.579   9.709
 2489SOL     OW 8032   0.230   4.352   0.113
 2489SOL    HW1 8033   0.137   4.350   0.150
 2489SOL    HW2 8034   0.231   4.313   0.021
 2490SOL     OW 8035   0.225   3.999   0.996
 2490SOL    HW1 8036   0.260   3.982   1.088
 2490SOL    HW2 8037   0.137   3.954   0.984
 2491SOL     OW 8038   0.019   4.092   0.647
 2491SOL    HW1 8039  -0.063   4.135   0.686
 2491SOL    HW2 8040  -0.009   4.019   0.584
 2492SOL     OW 8041   1.755   4.331   0.231
 2492SOL    HW1 8042   1.743   4.318   0.132
 2492SOL    HW2 8043   1.725   4.250   0.280
 2493SOL     OW 8044   0.685   4.736   0.665
 2493SOL    HW1 8045   0.754   4.720   0.735
 2493SOL    HW2 8046   0.612   4.793   0.703
 2494SOL     OW 8047   0.438   4.116   1.499
 2494SOL    HW1 8048   0.520   4.060   1.508
 2494SOL    HW2 8049   0.357   4.058   1.503
 2495SOL     OW 8050   1.603   4.171   0.737
 2495SOL    HW1 8051   1.529   4.217   0.687
 2495SOL    HW2 8052   1.654   4.239   0.790
 2496SOL     OW 8053   1.594   3.838   1.480
 2496SOL    HW1 8054   1.576   3.905   1.408
 2496SOL    HW2 8055   1.591   3.884   1.569
 2497SOL     OW 8056   0.122   4.367   0.563
 2497SOL    HW1 8057   0.077   4.279   0.580
 2497SOL    HW2 8058   0.121   4.421   0.647
 2498SOL     OW 8059   0.113   4.461   1.597
 2498SOL    HW1 8060   0.201   4.448   1.642
 2498SOL    HW2 8061   0.100   4.558   1.575
 2499SOL     OW 8062   0.809   3.728   0.502
 2499SOL    HW1 8063   0.849   3.819   0.493
 2499SOL    HW2 8064   0.709   3.736   0.508
 2500SOL     OW 8065   0.317   3.975   1.801
 2500SOL    HW1 8066   0.388   4.046   1.807
 2500SOL    HW2 8067   0.229   4.014   1.829
 2501SOL     OW 8068   1.281   4.069   0.944
 2501SOL    HW1 8069   1.195   4.019   0.931
 2501SOL    HW2 8070   1.343   4.015   1.000
 2502SOL     OW 8071   0.807   4.329   1.465
 2502SOL    HW1 8072   0.760   4.326   1.554
 2502SOL    HW2 8073   0.756   4.274   1.399
 2503SOL     OW 8074   1.394   4.193   1.674
 2503SOL    HW1 8075   1.374   4.236   1.762
 2503SOL    HW2 8076   1.472   4.131   1.683
 2504SOL     OW 8077   0.991   4.134   1.242
 2504SOL    HW1 8078   0.914   4.168   1.296
 2504SOL    HW2 8079   0.957   4.083   1.163
 2505SOL     OW 8080   1.041   4.425   0.429
 2505SOL    HW1 8081   1.067   4.421   0.525
 2505SOL    HW2 8082   0.956   4.374   0.415
 2506SOL     OW 8083   0.076   4.535   0.789
 2506SOL    HW1 8084   0.175   4.523   0.798
 2506SOL    HW2 8085   0.052   4.630   0.810
 2507SOL     OW 8086   0.865   4.072   0.195
 2507SOL    HW1 8087   0.924   4.135   0.146
 2507SOL    HW2 8088   0.884   3.978   0.166
 2508SOL     OW 8089   1.719   4.309   1.831
 2508SOL    HW1 8090   1.693   4.398   1.795
 2508SOL    HW2 8091   1.717   4.241   1.758
 2509SOL     OW 8092   0.550   3.920   0.885
 2509SOL    HW1 8093   0.545   3.915   0.985
 2509SOL    HW2 8094   0.552   4.016   0.856
 2510SOL     OW 8095   1.458   4.459   0.728
 2510SOL    HW1 8096   1.453   4.394   0.803
 2510SOL    HW2 8097   1.538   4.518   0.741
 2511SOL     OW 8098   0.202   4.009   1.498
 2511SOL    HW1 8099   0.122   4.069   1.485
 2511SOL    HW2 8100   0.192   3.960   1.584
 2512SOL     OW 8101   1.400   3.831   0.426
 2512SOL    HW1 8102   1.376   3.794   0.336
 2512SOL    HW2 8103   1.499   3.847   0.430
 2513SOL     OW 8104   0.382   4.424   0.480
 2513SOL    HW1 8105   0.427   4.334   0.477
 2513SOL    HW2 8106   0.288   4.413   0.513
 2514SOL     OW 8107   1.547   3.946   1.729
 2514SOL    HW1 8108   1.542   3.983   1.821
 2514SOL    HW2 8109   1.475   3.877   1.717
 2515SOL     OW 8110   0.614   3.846   0.117
 2515SOL    HW1 8111   0.712   3.824   0.124
 2515SOL    HW2 8112   0.583   3.829   0.024
 2516SOL     OW 8113   0.781   3.988   1.749
 2516SOL    HW1 8114   0.848   3.927   1.792
 2516SOL    HW2 8115   0.708   4.007   1.814
 2517SOL     OW 8116   1.351   4.314   1.433
 2517SOL    HW1 8117   1.379   4.271   1.518
 2517SOL    HW2 8118   1.376   4.410   1.434
 2518SOL     OW 8119   0.922   4.227   0.899
 2518SOL    HW1 8120   0.897   4.218   0.803
 2518SOL    HW2 8121   0.970   4.145   0.930
 2519SOL     OW 8122   0.539   3.788   0.512
 2519SOL    HW1 8123   0.458   3.789   0.570
 2519SOL    HW2 8124   0.542   3.871   0.457
 2520SOL     OW 8125   0.297   3.759   0.171
 2520SOL    HW1 8126   0.346   3.843   0.150
 2520SOL    HW2 8127   0.359   3.694   0.216
 2521SOL     OW 8128   0.935   3.960   0.480
 2521SOL    HW1 8129   0.887   4.001   0.402
 2521SOL    HW2 8130   1.034   3.958   0.461
 2522SOL     OW 8131   1.076   4.407   1.464
 2522SOL    HW1 8132   0.996   4.346   1.467
 2522SOL    HW2 8133   1.157   4.354   1.440
 2523SOL     OW 8134   1.032   4.273   0.016
 2523SOL    HW1 8135   0.991   4.355  -0.023
 2523SOL    HW2 8136   1.096   4.299   0.089
 2524SOL     OW 8137   0.078   4.280   1.386
 2524SOL    HW1 8138   0.170   4.279   1.345
 2524SOL    HW2 8139   0.072   4.354   1.453
 2525SOL     OW 8140   0.561   3.946   1.147
 2525SOL    HW1 8141   0.599   3.862   1.184
 2525SOL    HW2 8142   0.473   3.965   1.191
 2526SOL     OW 8143   0.866   4.178   0.642
 2526SOL    HW1 8144   0.834   4.250   0.580
 2526SOL    HW2 8145   0.890   4.097   0.589
 2527SOL     OW 8146   1.017   3.763   0.753
 2527SOL    HW1 8147   0.945   3.768   0.684
 2527SOL    HW2 8148   0.993   3.694   0.822
 2528SOL     OW 8149   1.466   4.314   0.992
 2528SOL    HW1 8150   1.436   4.219   0.999
 2528SOL    HW2 8151   1.539   4.330   1.058
 2529SOL     OW 8152   1.390   4.299   0.078
 2529SOL    HW1 8153   1.336   4.278   0.159
 2529SOL    HW2 8154   1.481   4.258   0.087
 2530SOL     OW 8155   0.527   3.980   0.328
 2530SOL    HW1 8156   0.554   3.921   0.253
 2530SOL    HW2 8157   0.527   4.075   0.297
 2531SOL     OW 8158   0.915   3.813   1.402
 2531SOL    HW1 8159   0.940   3.793   1.307
 2531SOL    HW2 8160   0.987   3.869   1.444
 2532SOL     OW 8161   0.410   4.537   1.251
 2532SOL    HW1 8162   0.496   4.549   1.301
 2532SOL    HW2 8163   0.368   4.450   1.278
 2533SOL     OW 8164   1.274   4.110   1.262
 2533SOL    HW1 8165   1.295   4.184   1.326
 2533SOL    HW2 8166   1.185   4.127   1.219
 2534SOL     OW 8167   0.566   4.261   0.865
 2534SOL    HW1 8168   0.578   4.327   0.791
 2534SOL    HW2 8169   0.612   4.295   0.948
 2535SOL     OW 8170   1.582   4.363   0.472
 2535SOL    HW1 8171   1.551   4.424   0.545
 2535SOL    HW2 8172   1.632   4.415   0.403
 2536SOL     OW 8173   1.013   3.829   1.770
 2536SOL    HW1 8174   1.019   3.914   1.718
 2536SOL    HW2 8175   1.045   3.753   1.713
 2537SOL     OW 8176   0.504   3.774   1.740
 2537SOL    HW1 8177   0.462   3.717   1.670
 2537SOL    HW2 8178   0.438   3.843   1.772
 2538SOL     OW 8179   1.209   4.249   0.275
 2538SOL    HW1 8180   1.222   4.165   0.329
 2538SOL    HW2 8181   1.180   4.323   0.335
 2539SOL     OW 8182   0.307   3.937   1.231
 2539SOL    HW1 8183   0.284   3.974   1.321
 2539SOL    HW2 8184   0.277   3.842   1.225
 2540SOL     OW 8185   0.732   4.358   1.064
 2540SOL    HW1 8186   0.791   4.332   0.988
 2540SOL    HW2 8187   0.704   4.454   1.053
 2541SOL     OW 8188   1.728   4.659   1.854
 2541SOL    HW1 8189   1.682   4.652   1.765
 2541SOL    HW2 8190   1.666   4.703   1.920
 2542SOL     OW 8191   0.307   3.787   0.618
 2542SOL    HW1 8192   0.296   3.881   0.651
 2542SOL    HW2 8193   0.302   3.724   0.695
 2543SOL     OW 8194   1.622   4.091   0.374
 2543SOL    HW1 8195   1.624   4.015   0.438
 2543SOL    HW2 8196   1.574   4.168   0.414
 2544SOL     OW 8197   1.540   3.998   0.125
 2544SOL    HW1 8198   1.479   3.923   0.148
 2544SOL    HW2 8199   1.562   4.050   0.208
 2545SOL     OW 8200   0.319   4.534   0.949
 2545SOL    HW1 8201   0.412   4.570   0.954
 2545SOL    HW2 8202   0.313   4.449   1.001
 2546SOL     OW 8203   0.339   4.233   1.006
 2546SOL    HW1 8204   0.287   4.150   0.989
 2546SOL    HW2 8205   0.416   4.238   0.942
 2547SOL     OW 8206   1.138   4.104   1.678
 2547SOL    HW1 8207   1.093   4.167   1.742
 2547SOL    HW2 8208   1.231   4.135   1.661
 2548SOL     OW 8209   1.160   3.931   1.477
 2548SOL    HW1 8210   1.160   3.995   1.554
 2548SOL    HW2 8211   1.188   3.979   1.394
 2549SOL     OW 8212   0.040   4.268   1.114
 2549SOL    HW1 8213   0.125   4.235   1.073
 2549SOL    HW2 8214   0.053   4.283   1.212
 2550SOL     OW 8215   0.189   4.244   1.722
 2550SOL    HW1 8216   0.248   4.204   1.652
 2550SOL    HW2 8217   0.131   4.315   1.681
 2551SOL     OW 8218   0.815   4.296   0.325
 2551SOL    HW1 8219   0.822   4.207   0.279
 2551SOL    HW2 8220   0.721   4.330   0.317
 2552SOL     OW 8221   1.657   4.328   1.206
 2552SOL    HW1 8222   1.619   4.259   1.268
 2552SOL    HW2 8223   1.739   4.292   1.162
 2553SOL     OW 8224   0.671   4.188   1.269
 2553SOL    HW1 8225   0.637   4.099   1.239
 2553SOL    HW2 8226   0.697   4.242   1.189
 2554SOL     OW 8227   0.473   4.224   0.191
 2554SOL    HW1 8228   0.534   4.304   0.195
 2554SOL    HW2 8229   0.378   4.255   0.198
 2555SOL     OW 8230   0.903   3.810   0.133
 2555SOL    HW1 8231   0.954   3.811   0.047
 2555SOL    HW2 8232   0.959   3.768   0.204
 2556SOL     OW 8233   1.726   3.859   0.523
 2556SOL    HW1 8234   1.799   3.842   0.456
 2556SOL    HW2 8235   1.695   3.772   0.561
 2557SOL     OW 8236   1.280   4.651   0.672
 2557SOL    HW1 8237   1.340   4.570   0.674
 2557SOL    HW2 8238   1.320   4.720   0.612
 2558SOL     OW 8239   1.841   3.899   0.963
 2558SOL    HW1 8240   1.880   3.814   0.927
 2558SOL    HW2 8241   1.743   3.901   0.944
 2559SOL     OW 8242   0.263   4.050   0.720
 2559SOL    HW1 8243   0.184   4.101   0.686
 2559SOL    HW2 8244   0.254   4.035   0.818
 2560SOL     OW 8245   1.039   4.822   0.696
 2560SOL    HW1 8246   0.969   4.775   0.750
 2560SOL    HW2 8247   1.098   4.754   0.653
 2561SOL     OW 8248   1.014   3.960   0.971
 2561SOL    HW1 8249   1.006   3.924   0.878
 2561SOL    HW2 8250   1.012   3.884   1.036
 2562SOL     OW 8251   1.709   4.109   1.381
 2562SOL    HW1 8252   1.782   4.178   1.385
 2562SOL    HW2 8253   1.737   4.034   1.322
 2563SOL     OW 8254   0.672   3.927   1.489
 2563SOL    HW1 8255   0.762   3.911   1.449
 2563SOL    HW2 8256   0.680   3.932   1.588
 2564SOL     OW 8257   0.075   4.069   0.033
 2564SOL    HW1 8258  -0.017   4.041   0.004
 2564SOL    HW2 8259   0.106   4.146  -0.023
 2565SOL     OW 8260   0.072   3.890   0.318
 2565SOL    HW1 8261   0.055   3.973   0.264
 2565SOL    HW2 8262   0.162   3.853   0.296
 2566SOL     OW 8263   0.716   4.289   1.708
 2566SOL    HW1 8264   0.735   4.354   1.782
 2566SOL    HW2 8265   0.776   4.209   1.717
 2567SOL     OW 8266   1.225   4.049   0.449
 2567SOL    HW1 8267   1.290   3.975   0.438
 2567SOL    HW2 8268   1.245   4.099   0.533
 2568SOL     OW 8269   1.777   4.066   1.642
 2568SOL    HW1 8270   1.760   4.097   1.548
 2568SOL    HW2 8271   1.693   4.029   1.680
 2569SOL     OW 8272   1.083   4.708   0.087
 2569SOL    HW1 8273   1.060   4.761   0.005
 2569SOL    HW2 8274   1.164   4.652   0.068
 2570SOL     OW 8275   1.824   3.916   1.227
 2570SOL    HW1 8276   1.820   3.826   1.271
 2570SOL    HW2 8277   1.827   3.905   1.128
 2571SOL     OW 8278   0.428   4.148   0.520
 2571SOL    HW1 8279   0.458   4.076   0.458
 2571SOL    HW2 8280   0.389   4.108   0.603
 2572SOL     OW 8281   0.317   4.271   1.280
 2572SOL    HW1 8282   0.355   4.212   1.352
 2572SOL    HW2 8283   0.357   4.245   1.192
 2573SOL     OW 8284   1.424   3.938   1.112
 2573SOL    HW1 8285   1.476   3.873   1.167
 2573SOL    HW2 8286   1.375   4.001   1.173
 2574SOL     OW 8287   1.001   3.758   1.154
 2574SOL    HW1 8288   0.938   3.686   1.123
 2574SOL    HW2 8289   1.094   3.722   1.154
 2575SOL     OW 8290   1.352   3.776   0.168
 2575SOL    HW1 8291   1.387   3.735   0.084
 2575SOL    HW2 8292   1.262   3.738   0.188
 2576SOL     OW 8293   1.300   4.177   0.691
 2576SOL    HW1 8294   1.241   4.257   0.695
 2576SOL    HW2 8295   1.315   4.142   0.784
 2577SOL     OW 8296   1.593   3.945   0.882
 2577SOL    HW1 8297   1.509   3.944   0.936
 2577SOL    HW2 8298   1.595   4.028   0.826
 2578SOL     OW 8299   0.230   4.352   1.975
 2578SOL    HW1 8300   0.137   4.350   2.012
 2578SOL    HW2 8301   0.231   4.313   1.883
 2579SOL     OW 8302   0.225   3.999   2.858
 2579SOL    HW1 8303   0.260   3.982   2.950
 2579SOL    HW2 8304   0.137   3.954   2.846
 2580SOL     OW 8305   0.019   4.092   2.509
 2580SOL    HW1 8306  -0.063   4.135   2.548
 2580SOL    HW2 8307  -0.009   4.019   2.446
 2581SOL     OW 8308   1.755   4.331   2.093
 2581SOL    HW1 8309   1.743   4.318   1.994
 2581SOL    HW2 8310   1.725   4.250   2.142
 2582SOL     OW 8311   0.685   4.736   2.527
 2582SOL    HW1 8312   0.754   4.720   2.597
 2582SOL    HW2 8313   0.612   4.793   2.565
 2583SOL     OW 8314   0.438   4.116   3.361
 2583SOL    HW1 8315   0.520   4.060   3.370
 2583SOL    HW2 8316   0.357   4.058   3.365
 2584SOL     OW 8317   1.603   4.171   2.599
 2584SOL    HW1 8318   1.529   4.217   2.549
 2584SOL    HW2 8319   1.654   4.239   2.652
 2585SOL     OW 8320   1.594   3.838   3.342
 2585SOL    HW1 8321   1.576   3.905   3.270
 2585SOL    HW2 8322   1.591   3.884   3.431
 2586SOL     OW 8323   0.122   4.367   2.425
 2586SOL    HW1 8324   0.077   4.279   2.442
 2586SOL    HW2 8325   0.121   4.421   2.509
 2587SOL     OW 8326   0.113   4.461   3.459
 2587SOL    HW1 8327   0.201   4.448   3.504
 2587SOL    HW2 8328   0.100   4.558   3.437
 2588SOL     OW 8329   0.809   3.728   2.364
 2588SOL    HW1 8330   0.849   3.819   2.355
 2588SOL    HW2 8331   0.709   3.736   2.370
 2589SOL     OW 8332   0.317   3.975   3.663
 2589SOL    HW1 8333   0.388   4.046   3.669
 2589SOL    HW2 8334   0.229   4.014   3.691
 2590SOL     OW 8335   1.281   4.069   2.806
 2590SOL    HW1 8336   1.195   4.019   2.793
 2590SOL    HW2 8337   1.343   4.015   2.862
 2591SOL     OW 8338   0.807   4.329   3.327
 2591SOL    HW1 8339   0.760   4.326   3.416
 2591SOL    HW2 8340   0.756   4.274   3.261
 2592SOL     OW 8341   1.394   4.193   3.536
 2592SOL    HW1 8342   1.374   4.236   3.624
 2592SOL    HW2 8343   1.472   4.131   3.545
 2593SOL     OW 8344   0.991   4.134   3.104
 2593SOL    HW1 8345   0.914   4.168   3.158
 2593SOL    HW2 8346   0.957   4.083   3.025
 2594SOL     OW 8347   1.041   4.425   2.291
 2594SOL    HW1 8348   1.067   4.421   2.387
 2594SOL    HW2 8349   0.956   4.374   2.277
 2595SOL     OW 8350   0.076   4.535   2.651
 2595SOL    HW1 8351   0.175   4.523   2.660
 2595SOL    HW2 8352   0.052   4.630   2.672
 2596SOL     OW 8353   0.865   4.072   2.057
 2596SOL    HW1 8354   0.924   4.135   2.008
 2596SOL    HW2 8355   0.884   3.978   2.028
 2597SOL     OW 8356   1.719   4.309   3.693
 2597SOL    HW1 8357   1.693   4.398   3.657
 2597SOL    HW2 8358   1.717   4.241   3.620
 2598SOL     OW 8359   0.550   3.920   2.747
 2598SOL    HW1 8360   0.545   3.915   2.847
 2598SOL    HW2 8361   0.552   4.016   2.718
 2599SOL     OW 8362   1.458   4.459   2.590
 2599SOL    HW1 8363   1.453   4.394   2.665
 2599SOL    HW2 8364   1.538   4.518   2.603
 2600SOL     OW 8365   0.202   4.009   3.360
 2600SOL    HW1 8366   0.122   4.069   3.347
 2600SOL    HW2 8367   0.192   3.960   3.446
 2601SOL     OW 8368   1.400   3.831   2.288
 2601SOL    HW1 8369   1.376   3.794   2.198
 2601SOL    HW2 8370   1.499   3.847   2.292
 2602SOL     OW 8371   0.382   4.424   2.342
 2602SOL    HW1 8372   0.427   4.334   2.339
 2602SOL    HW2 8373   0.288   4.413   2.375
 2603SOL     OW 8374   1.547   3.946   3.591
 2603SOL    HW1 8375   1.542   3.983   3.683
 2603SOL    HW2 8376   1.475   3.877   3.579
 2604SOL     OW 8377   0.614   3.846   1.979
 2604SOL    HW1 8378   0.712   3.824   1.986
 2604SOL    HW2 8379   0.583   3.829   1.886
 2605SOL     OW 8380   0.781   3.988   3.611
 2605SOL    HW1 8381   0.848   3.927   3.654
 2605SOL    HW2 8382   0.708   4.007   3.676
 2606SOL     OW 8383   1.351   4.314   3.295
 2606SOL    HW1 8384   1.379   4.271   3.380
 2606SOL    HW2 8385   1.376   4.410   3.296
 2607SOL     OW 8386   0.922   4.227   2.761
 2607SOL    HW1 8387   0.897   4.218   2.665
 2607SOL    HW2 8388   0.970   4.145   2.792
 2608SOL     OW 8389   0.539   3.788   2.374
 2608SOL    HW1 8390   0.458   3.789   2.432
 2608SOL    HW2 8391   0.542   3.871   2.319
 2609SOL     OW 8392   0.297   3.759   2.033
 2609SOL    HW1 8393   0.346   3.843   2.012
 2609SOL    HW2 8394   0.359   3.694   2.078
 2610SOL     OW 8395   0.935   3.960   2.342
 2610SOL    HW1 8396   0.887   4.001   2.264
 2610SOL    HW2 8397   1.034   3.958   2.323
 2611SOL     OW 8398   1.076   4.407   3.326
 2611SOL    HW1 8399   0.996   4.346   3.329
 2611SOL    HW2 8400   1.157   4.354   3.302
 2612SOL     OW 8401   1.032   4.273   1.878
 2612SOL    HW1 8402   0.991   4.355   1.839
 2612SOL    HW2 8403   1.096   4.299   1.951
 2613SOL     OW 8404   0.078   4.280   3.248
 2613SOL    HW1 8405   0.170   4.279   3.207
 2613SOL    HW2 8406   0.072   4.354   3.315
 2614SOL     OW 8407   0.561   3.946   3.009
 2614SOL    HW1 8408   0.599   3.862   3.046
 2614SOL    HW2 8409   0.473   3.965   3.053
 2615SOL     OW 8410   0.866   4.178   2.504
 2615SOL    HW1 8411   0.834   4.250   2.442
 2615SOL    HW2 8412   0.890   4.097   2.451
 2616SOL     OW 8413   1.017   3.763   2.615
 2616SOL    HW1 8414   0.945   3.768   2.546
 2616SOL    HW2 8415   0.993   3.694   2.684
 2617SOL     OW 8416   1.466   4.314   2.854
 2617SOL    HW1 8417   1.436   4.219   2.861
 2617SOL    HW2 8418   1.539   4.330   2.920
 2618SOL     OW 8419   1.390   4.299   1.940
 2618SOL    HW1 8420   1.336   4.278   2.021
 2618SOL    HW2 8421   1.481   4.258   1.949
 2619SOL     OW 8422   0.527   3.980   2.190
 2619SOL    HW1 8423   0.554   3.921   2.115
 2619SOL    HW2 8424   0.527   4.075   2.159
 2620SOL     OW 8425   0.915   3.813   3.264
 2620SOL    HW1 8426   0.940   3.793   3.169
 2620SOL    HW2 8427   0.987   3.869   3.306
 2621SOL     OW 8428   0.410   4.537   3.113
 2621SOL    HW1 8429   0.496   4.549   3.163
 2621SOL    HW2 8430   0.368   4.450   3.140
 2622SOL     OW 8431   1.274   4.110   3.124
 2622SOL    HW1 8432   1.295   4.184   3.188
 2622SOL    HW2 8433   1.185   4.127   3.081
 2623SOL     OW 8434   0.566   4.261   2.727
 2623SOL    HW1 8435   0.578   4.327   2.653
 2623SOL    HW2 8436   0.612   4.295   2.810
 2624SOL     OW 8437   1.582   4.363   2.334
 2624SOL    HW1 8438   1.551   4.424   2.407
 2624SOL    HW2 8439   1.632   4.415   2.265
 2625SOL     OW 8440   1.013   3.829   3.632
 2625SOL    HW1 8441   1.019   3.914   3.580
 2625SOL    HW2 8442   1.045   3.753   3.575
 2626SOL     OW 8443   0.504   3.774   3.602
 2626SOL    HW1 8444   0.462   3.717   3.532
 2626SOL    HW2 8445   0.438   3.843   3.634
 2627SOL     OW 8446   1.209   4.249   2.137
 2627SOL    HW1 8447   1.222   4.165   2.191
 2627SOL    HW2 8448   1.180   4.323   2.197
 2628SOL     OW 8449   0.307   3.937   3.093
 2628SOL    HW1 8450   0.284   3.974   3.183
 2628SOL    HW2 8451   0.277   3.842   3.087
 2629SOL     OW 8452   0.732   4.358   2.926
 2629SOL    HW1 8453   0.791   4.332   2.850
 2629SOL    HW2 8454   0.704   4.454   2.915
 2630SOL     OW 8455   1.728   4.659   3.716
 2630SOL    HW1 8456   1.682   4.652   3.627
 2630SOL    HW2 8457   1.666   4.703   3.782
 2631SOL     OW 8458   0.307   3.787   2.480
 2631SOL    HW1 8459   0.296   3.881   2.513
 2631SOL    HW2 8460   0.302   3.724   2.557
 2632SOL     OW 8461   1.622   4.091   2.236
 2632SOL    HW1 8462   1.624   4.015   2.300
 2632SOL    HW2 8463   1.574   4.168   2.276
 2633SOL     OW 8464   1.540   3.998   1.987
 2633SOL    HW1 8465   1.479   3.923   2.010
 2633SOL    HW2 8466   1.562   4.050   2.070
 2634SOL     OW 8467   0.319   4.534   2.811
 2634SOL    HW1 8468   0.412   4.570   2.816
 2634SOL    HW2 8469   0.313   4.449   2.863
 2635SOL     OW 8470   0.339   4.233   2.868
 2635SOL    HW1 8471   0.287   4.150   2.851
 2635SOL    HW2 8472   0.416   4.238   2.804
 2636SOL     OW 8473   1.138   4.104   3.540
 2636SOL    HW1 8474   1.093   4.167   3.604
 2636SOL    HW2 8475   1.231   4.135   3.523
 2637SOL     OW 8476   1.160   3.931   3.339
 2637SOL    HW1 8477   1.160   3.995   3.416
 2637SOL    HW2 8478   1.188   3.979   3.256
 2638SOL     OW 8479   0.040   4.268   2.976
 2638SOL    HW1 8480   0.125   4.235   2.935
 2638SOL    HW2 8481   0.053   4.283   3.074
 2639SOL     OW 8482   0.189   4.244   3.584
 2639SOL    HW1 8483   0.248   4.204   3.514
 2639SOL    HW2 8484   0.131   4.315   3.543
 2640SOL     OW 8485   0.815   4.296   2.187
 2640SOL    HW1 8486   0.822   4.207   2.141
 2640SOL    HW2 8487   0.721   4.330   2.179
 2641SOL     OW 8488   1.657   4.328   3.068
 2641SOL    HW1 8489   1.619   4.259   3.130
 2641SOL    HW2 8490   1.739   4.292   3.024
 2642SOL     OW 8491   0.671   4.188   3.131
 2642SOL    HW1 8492   0.637   4.099   3.101
 2642SOL    HW2 8493   0.697   4.242   3.051
 2643SOL     OW 8494   0.473   4.224   2.053
 2643SOL    HW1 8495   0.534   4.304   2.057
 2643SOL    HW2 8496   0.378   4.255   2.060
 2644SOL     OW 8497   1.726   3.859   2.385
 2644SOL    HW1 8498   1.799   3.842   2.318
 2644SOL    HW2 8499   1.695   3.772   2.423
 2645SOL     OW 8500   1.280   4.651   2.534
 2645SOL    HW1 8501   1.340   4.570   2.536
 2645SOL    HW2 8502   1.320   4.720   2.474
 2646SOL     OW 8503   1.841   3.899   2.825
 2646SOL    HW1 8504   1.880   3.814   2.789
 2646SOL    HW2 8505   1.743   3.901   2.806
 2647SOL     OW 8506   0.263   4.050   2.582
 2647SOL    HW1 8507   0.184   4.101   2.548
 2647SOL    HW2 8508   0.254   4.035   2.680
 2648SOL     OW 8509   0.916   4.634   2.153
 2648SOL    HW1 8510   0.979   4.672   2.085
 2648SOL    HW2 8511   0.956   4.551   2.192
 2649SOL     OW 8512   1.039   4.822   2.558
 2649SOL    HW1 8513   0.969   4.775   2.612
 2649SOL    HW2 8514   1.098   4.754   2.515
 2650SOL     OW 8515   1.014   3.960   2.833
 2650SOL    HW1 8516   1.006   3.924   2.740
 2650SOL    HW2 8517   1.012   3.884   2.898
 2651SOL     OW 8518   1.709   4.109   3.243
 2651SOL    HW1 8519   1.782   4.178   3.247
 2651SOL    HW2 8520   1.737   4.034   3.184
 2652SOL     OW 8521   0.672   3.927   3.351
 2652SOL    HW1 8522   0.762   3.911   3.311
 2652SOL    HW2 8523   0.680   3.932   3.450
 2653SOL     OW 8524   0.075   4.069   1.895
 2653SOL    HW1 8525  -0.017   4.041   1.866
 2653SOL    HW2 8526   0.106   4.146   1.839
 2654SOL     OW 8527   0.072   3.890   2.180
 2654SOL    HW1 8528   0.055   3.973   2.126
 2654SOL    HW2 8529   0.162   3.853   2.158
 2655SOL     OW 8530   0.716   4.289   3.570
 2655SOL    HW1 8531   0.735   4.354   3.644
 2655SOL    HW2 8532   0.776   4.209   3.579
 2656SOL     OW 8533   1.225   4.049   2.311
 2656SOL    HW1 8534   1.290   3.975   2.300
 2656SOL    HW2 8535   1.245   4.099   2.395
 2657SOL     OW 8536   1.777   4.066   3.504
 2657SOL    HW1 8537   1.760   4.097   3.410
 2657SOL    HW2 8538   1.693   4.029   3.542
 2658SOL     OW 8539   1.083   4.708   1.949
 2658SOL    HW1 8540   1.060   4.761   1.867
 2658SOL    HW2 8541   1.164   4.652   1.930
 2659SOL     OW 8542   1.824   3.916   3.089
 2659SOL    HW1 8543   1.820   3.826   3.133
 2659SOL    HW2 8544   1.827   3.905   2.990
 2660SOL     OW 8545   0.428   4.148   2.382
 2660SOL    HW1 8546   0.458   4.076   2.320
 2660SOL    HW2 8547   0.389   4.108   2.465
 2661SOL     OW 8548   0.317   4.271   3.142
 2661SOL    HW1 8549   0.355   4.212   3.214
 2661SOL    HW2 8550   0.357   4.245   3.054
 2662SOL     OW 8551   1.424   3.938   2.974
 2662SOL    HW1 8552   1.476   3.873   3.029
 2662SOL    HW2 8553   1.375   4.001   3.035
 2663SOL     OW 8554   1.001   3.758   3.016
 2663SOL    HW1 8555   0.938   3.686   2.985
 2663SOL    HW2 8556   1.094   3.722   3.016
 2664SOL     OW 8557   1.352   3.776   2.030
 2664SOL    HW1 8558   1.387   3.735   1.946
 2664SOL    HW2 8559   1.262   3.738   2.050
 2665SOL     OW 8560   1.300   4.177   2.553
 2665SOL    HW1 8561   1.241   4.257   2.557
 2665SOL    HW2 8562   1.315   4.142   2.646
 2666SOL     OW 8563   1.593   3.945   2.744
 2666SOL    HW1 8564   1.509   3.944   2.798
 2666SOL    HW2 8565   1.595   4.028   2.688
 2667SOL     OW 8566   0.230   4.352   3.837
 2667SOL    HW1 8567   0.137   4.350   3.874
 2667SOL    HW2 8568   0.231   4.313   3.745
 2668SOL     OW 8569   0.225   3.999   4.720
 2668SOL    HW1 8570   0.260   3.982   4.812
 2668SOL    HW2 8571   0.137   3.954   4.708
 2669SOL     OW 8572   0.019   4.092   4.371
 2669SOL    HW1 8573  -0.063   4.135   4.410
 2669SOL    HW2 8574  -0.009   4.019   4.308
 2670SOL     OW 8575   1.755   4.331   3.955
 2670SOL    HW1 8576   1.743   4.318   3.856
 2670SOL    HW2 8577   1.725   4.250   4.004
 2671SOL     OW 8578   0.685   4.736   4.389
 2671SOL    HW1 8579   0.754   4.720   4.459
 2671SOL    HW2 8580   0.612   4.793   4.427
 2672SOL     OW 8581   0.438   4.116   5.223
 2672SOL    HW1 8582   0.520   4.060   5.232
 2672SOL    HW2 8583   0.357   4.058   5.227
 2673SOL     OW 8584   1.603   4.171   4.461
 2673SOL    HW1 8585   1.529   4.217   4.411
 2673SOL    HW2 8586   1.654   4.239   4.514
 2674SOL     OW 8587   1.594   3.838   5.204
 2674SOL    HW1 8588   1.576   3.905   5.132
 2674SOL    HW2 8589   1.591   3.884   5.293
 2675SOL     OW 8590   0.122   4.367   4.287
 2675SOL    HW1 8591   0.077   4.279   4.304
 2675SOL    HW2 8592   0.121   4.421   4.371
 2676SOL     OW 8593   0.113   4.461   5.321
 2676SOL    HW1 8594   0.201   4.448   5.366
 2676SOL    HW2 8595   0.100   4.558   5.299
 2677SOL     OW 8596   0.809   3.728   4.226
 2677SOL    HW1 8597   0.849   3.819   4.217
 2677SOL    HW2 8598   0.709   3.736   4.232
 2678SOL     OW 8599   0.317   3.975   5.525
 2678SOL    HW1 8600   0.388   4.046   5.531
 2678SOL    HW2 8601   0.229   4.014   5.553
 2679SOL     OW 8602   1.281   4.069   4.668
 2679SOL    HW1 8603   1.195   4.019   4.655
 2679SOL    HW2 8604   1.343   4.015   4.724
 2680SOL     OW 8605   0.807   4.329   5.189
 2680SOL    HW1 8606   0.760   4.326   5.278
 2680SOL    HW2 8607   0.756   4.274   5.123
 2681SOL     OW 8608   1.394   4.193   5.398
 2681SOL    HW1 8609   1.374   4.236   5.486
 2681SOL    HW2 8610   1.472   4.131   5.407
 2682SOL     OW 8611   0.991   4.134   4.966
 2682SOL    HW1 8612   0.914   4.168   5.020
 2682SOL    HW2 8613   0.957   4.083   4.887
 2683SOL     OW 8614   1.041   4.425   4.153
 2683SOL    HW1 8615   1.067   4.421   4.249
 2683SOL    HW2 8616   0.956   4.374   4.139
 2684SOL     OW 8617   0.076   4.535   4.513
 2684SOL    HW1 8618   0.175   4.523   4.522
 2684SOL    HW2 8619   0.052   4.630   4.534
 2685SOL     OW 8620   0.865   4.072   3.919
 2685SOL    HW1 8621   0.924   4.135   3.870
 2685SOL    HW2 8622   0.884   3.978   3.890
 2686SOL     OW 8623   1.719   4.309   5.555
 2686SOL    HW1 8624   1.693   4.398   5.519
 2686SOL    HW2 8625   1.717   4.241   5.482
 2687SOL     OW 8626   0.550   3.920   4.609
 2687SOL    HW1 8627   0.545   3.915   4.709
 2687SOL    HW2 8628   0.552   4.016   4.580
 2688SOL     OW 8629   1.458   4.459   4.452
 2688SOL    HW1 8630   1.453   4.394   4.527
 2688SOL    HW2 8631   1.538   4.518   4.465
 2689SOL     OW 8632   0.202   4.009   5.222
 2689SOL    HW1 8633   0.122   4.069   5.209
 2689SOL    HW2 8634   0.192   3.960   5.308
 2690SOL     OW 8635   1.400   3.831   4.150
 2690SOL    HW1 8636   1.376   3.794   4.060
 2690SOL    HW2 8637   1.499   3.847   4.154
 2691SOL     OW 8638   0.382   4.424   4.204
 2691SOL    HW1 8639   0.427   4.334   4.201
 2691SOL    HW2 8640   0.288   4.413   4.237
 2692SOL     OW 8641   1.547   3.946   5.453
 2692SOL    HW1 8642   1.542   3.983   5.545
 2692SOL    HW2 8643   1.475   3.877   5.441
 2693SOL     OW 8644   0.614   3.846   3.841
 2693SOL    HW1 8645   0.712   3.824   3.848
 2693SOL    HW2 8646   0.583   3.829   3.748
 2694SOL     OW 8647   0.781   3.988   5.473
 2694SOL    HW1 8648   0.848   3.927   5.516
 2694SOL    HW2 8649   0.708   4.007   5.538
 2695SOL     OW 8650   1.351   4.314   5.157
 2695SOL    HW1 8651   1.379   4.271   5.242
 2695SOL    HW2 8652   1.376   4.410   5.158
 2696SOL     OW 8653   0.922   4.227   4.623
 2696SOL    HW1 8654   0.897   4.218   4.527
 2696SOL    HW2 8655   0.970   4.145   4.654
 2697SOL     OW 8656   0.539   3.788   4.236
 2697SOL    HW1 8657   0.458   3.789   4.294
 2697SOL    HW2 8658   0.542   3.871   4.181
 2698SOL     OW 8659   0.297   3.759   3.895
 2698SOL    HW1 8660   0.346   3.843   3.874
 2698SOL    HW2 8661   0.359   3.694   3.940
 2699SOL     OW 8662   0.935   3.960   4.204
 2699SOL    HW1 8663   0.887   4.001   4.126
 2699SOL    HW2 8664   1.034   3.958   4.185
 2700SOL     OW 8665   1.076   4.407   5.188
 2700SOL    HW1 8666   0.996   4.346   5.191
 2700SOL    HW2 8667   1.157   4.354   5.164
 2701SOL     OW 8668   1.032   4.273   3.740
 2701SOL    HW1 8669   0.991   4.355   3.701
 2701SOL    HW2 8670   1.096   4.299   3.813
 2702SOL     OW 8671   0.078   4.280   5.110
 2702SOL    HW1 8672   0.170   4.279   5.069
 2702SOL    HW2 8673   0.072   4.354   5.177
 2703SOL     OW 8674   0.561   3.946   4.871
 2703SOL    HW1 8675   0.599   3.862   4.908
 2703SOL    HW2 8676   0.473   3.965   4.915
 2704SOL     OW 8677   0.866   4.178   4.366
 2704SOL    HW1 8678   0.834   4.250   4.304
 2704SOL    HW2 8679   0.890   4.097   4.313
 2705SOL     OW 8680   1.017   3.763   4.477
 2705SOL    HW1 8681   0.945   3.768   4.408
 2705SOL    HW2 8682   0.993   3.694   4.546
 2706SOL     OW 8683   1.466   4.314   4.716
 2706SOL    HW1 8684   1.436   4.219   4.723
 2706SOL    HW2 8685   1.539   4.330   4.782
 2707SOL     OW 8686   1.390   4.299   3.802
 2707SOL    HW1 8687   1.336   4.278   3.883
 2707SOL    HW2 8688   1.481   4.258   3.811
 2708SOL     OW 8689   0.527   3.980   4.052
 2708SOL    HW1 8690   0.554   3.921   3.977
 2708SOL    HW2 8691   0.527   4.075   4.021
 2709SOL     OW 8692   0.915   3.813   5.126
 2709SOL    HW1 8693   0.940   3.793   5.031
 2709SOL    HW2 8694   0.987   3.869   5.168
 2710SOL     OW 8695   0.410   4.537   4.975
 2710SOL    HW1 8696   0.496   4.549   5.025
 2710SOL    HW2 8697   0.368   4.450   5.002
 2711SOL     OW 8698   1.274   4.110   4.986
 2711SOL    HW1 8699   1.295   4.184   5.050
 2711SOL    HW2 8700   1.185   4.127   4.943
 2712SOL     OW 8701   0.566   4.261   4.589
 2712SOL    HW1 8702   0.578   4.327   4.515
 2712SOL    HW2 8703   0.612   4.295   4.672
 2713SOL     OW 8704   1.582   4.363   4.196
 2713SOL    HW1 8705   1.551   4.424   4.269
 2713SOL    HW2 8706   1.632   4.415   4.127
 2714SOL     OW 8707   1.013   3.829   5.494
 2714SOL    HW1 8708   1.019   3.914   5.442
 2714SOL    HW2 8709   1.045   3.753   5.437
 2715SOL     OW 8710   0.504   3.774   5.464
 2715SOL    HW1 8711   0.462   3.717   5.394
 2715SOL    HW2 8712   0.438   3.843   5.496
 2716SOL     OW 8713   1.209   4.249   3.999
 2716SOL    HW1 8714   1.222   4.165   4.053
 2716SOL    HW2 8715   1.180   4.323   4.059
 2717SOL     OW 8716   0.307   3.937   4.955
 2717SOL    HW1 8717   0.284   3.974   5.045
 2717SOL    HW2 8718   0.277   3.842   4.949
 2718SOL     OW 8719   0.732   4.358   4.788
 2718SOL    HW1 8720   0.791   4.332   4.712
 2718SOL    HW2 8721   0.704   4.454   4.777
 2719SOL     OW 8722   1.728   4.659   5.578
 2719SOL    HW1 8723   1.682   4.652   5.489
 2719SOL    HW2 8724   1.666   4.703   5.644
 2720SOL     OW 8725   0.307   3.787   4.342
 2720SOL    HW1 8726   0.296   3.881   4.375
 2720SOL    HW2 8727   0.302   3.724   4.419
 2721SOL     OW 8728   1.622   4.091   4.098
 2721SOL    HW1 8729   1.624   4.015   4.162
 2721SOL    HW2 8730   1.574   4.168   4.138
 2722SOL     OW 8731   1.540   3.998   3.849
 2722SOL    HW1 8732   1.479   3.923   3.872
 2722SOL    HW2 8733   1.562   4.050   3.932
 2723SOL     OW 8734   0.319   4.534   4.673
 2723SOL    HW1 8735   0.412   4.570   4.678
 2723SOL    HW2 8736   0.313   4.449   4.725
 2724SOL     OW 8737   0.339   4.233   4.730
 2724SOL    HW1 8738   0.287   4.150   4.713
 2724SOL    HW2 8739   0.416   4.238   4.666
 2725SOL     OW 8740   1.138   4.104   5.402
 2725SOL    HW1 8741   1.093   4.167   5.466
 2725SOL    HW2 8742   1.231   4.135   5.385
 2726SOL     OW 8743   1.160   3.931   5.201
 2726SOL    HW1 8744   1.160   3.995   5.278
 2726SOL    HW2 8745   1.188   3.979   5.118
 2727SOL     OW 8746   0.040   4.268   4.838
 2727SOL    HW1 8747   0.125   4.235   4.797
 2727SOL    HW2 8748   0.053   4.283   4.936
 2728SOL     OW 8749   0.189   4.244   5.446
 2728SOL    HW1 8750   0.248   4.204   5.376
 2728SOL    HW2 8751   0.131   4.315   5.405
 2729SOL     OW 8752   0.815   4.296   4.049
 2729SOL    HW1 8753   0.822   4.207   4.003
 2729SOL    HW2 8754   0.721   4.330   4.041
 2730SOL     OW 8755   1.657   4.328   4.930
 2730SOL    HW1 8756   1.619   4.259   4.992
 2730SOL    HW2 8757   1.739   4.292   4.886
 2731SOL     OW 8758   0.671   4.188   4.993
 2731SOL    HW1 8759   0.637   4.099   4.963
 2731SOL    HW2 8760   0.697   4.242   4.913
 2732SOL     OW 8761   0.473   4.224   3.915
 2732SOL    HW1 8762   0.534   4.304   3.919
 2732SOL    HW2 8763   0.378   4.255   3.922
 2733SOL     OW 8764   1.726   3.859   4.247
 2733SOL    HW1 8765   1.799   3.842   4.180
 2733SOL    HW2 8766   1.695   3.772   4.285
 2734SOL     OW 8767   1.280   4.651   4.396
 2734SOL    HW1 8768   1.340   4.570   4.398
 2734SOL    HW2 8769   1.320   4.720   4.336
 2735SOL     OW 8770   1.841   3.899   4.687
 2735SOL    HW1 8771   1.880   3.814   4.651
 2735SOL    HW2 8772   1.743   3.901   4.668
 2736SOL     OW 8773   0.263   4.050   4.444
 2736SOL    HW1 8774   0.184   4.101   4.410
 2736SOL    HW2 8775   0.254   4.035   4.542
 2737SOL     OW 8776   0.916   4.634   4.015
 2737SOL    HW1 8777   0.979   4.672   3.947
 2737SOL    HW2 8778   0.956   4.551   4.054
 2738SOL     OW 8779   1.039   4.822   4.420
 2738SOL    HW1 8780   0.969   4.775   4.474
 2738SOL    HW2 8781   1.098   4.754   4.377
 2739SOL     OW 8782   1.014   3.960   4.695
 2739SOL    HW1 8783   1.006   3.924   4.602
 2739SOL    HW2 8784   1.012   3.884   4.760
 2740SOL     OW 8785   1.709   4.109   5.105
 2740SOL    HW1 8786   1.782   4.178   5.109
 2740SOL    HW2 8787   1.737   4.034   5.046
 2741SOL     OW 8788   0.672   3.927   5.213
 2741SOL    HW1 8789   0.762   3.911   5.173
 2741SOL    HW2 8790   0.680   3.932   5.312
 2742SOL     OW 8791   0.075   4.069   3.757
 2742SOL    HW1 8792  -0.017   4.041   3.728
 2742SOL    HW2 8793   0.106   4.146   3.701
 2743SOL     OW 8794   0.072   3.890   4.042
 2743SOL    HW1 8795   0.055   3.973   3.988
 2743SOL    HW2 8796   0.162   3.853   4.020
 2744SOL     OW 8797   0.716   4.289   5.432
 2744SOL    HW1 8798   0.735   4.354   5.506
 2744SOL    HW2 8799   0.776   4.209   5.441
 2745SOL     OW 8800   1.225   4.049   4.173
 2745SOL    HW1 8801   1.290   3.975   4.162
 2745SOL    HW2 8802   1.245   4.099   4.257
 2746SOL     OW 8803   1.777   4.066   5.366
 2746SOL    HW1 8804   1.760   4.097   5.272
 2746SOL    HW2 8805   1.693   4.029   5.404
 2747SOL     OW 8806   1.083   4.708   3.811
 2747SOL    HW1 8807   1.060   4.761   3.729
 2747SOL    HW2 8808   1.164   4.652   3.792
 2748SOL     OW 8809   1.824   3.916   4.951
 2748SOL    HW1 8810   1.820   3.826   4.995
 2748SOL    HW2 8811   1.827   3.905   4.852
 2749SOL     OW 8812   0.428   4.148   4.244
 2749SOL    HW1 8813   0.458   4.076   4.182
 2749SOL    HW2 8814   0.389   4.108   4.327
 2750SOL     OW 8815   0.317   4.271   5.004
 2750SOL    HW1 8816   0.355   4.212   5.076
 2750SOL    HW2 8817   0.357   4.245   4.916
 2751SOL     OW 8818   1.424   3.938   4.836
 2751SOL    HW1 8819   1.476   3.873   4.891
 2751SOL    HW2 8820   1.375   4.001   4.897
 2752SOL     OW 8821   1.001   3.758   4.878
 2752SOL    HW1 8822   0.938   3.686   4.847
 2752SOL    HW2 8823   1.094   3.722   4.878
 2753SOL     OW 8824   1.352   3.776   3.892
 2753SOL    HW1 8825   1.387   3.735   3.808
 2753SOL    HW2 8826   1.262   3.738   3.912
 2754SOL     OW 8827   1.300   4.177   4.415
 2754SOL    HW1 8828   1.241   4.257   4.419
 2754SOL    HW2 8829   1.315   4.142   4.508
 2755SOL     OW 8830   1.593   3.945   4.606
 2755SOL    HW1 8831   1.509   3.944   4.660
 2755SOL    HW2 8832   1.595   4.028   4.550
 2756SOL     OW 8833   0.230   4.352   5.699
 2756SOL    HW1 8834   0.137   4.350   5.736
 2756SOL    HW2 8835   0.231   4.313   5.607
 2757SOL     OW 8836   0.225   3.999   6.582
 2757SOL    HW1 8837   0.260   3.982   6.674
 2757SOL    HW2 8838   0.137   3.954   6.570
 2758SOL     OW 8839   0.019   4.092   6.233
 2758SOL    HW1 8840  -0.063   4.135   6.272
 2758SOL    HW2 8841  -0.009   4.019   6.170
 2759SOL     OW 8842   1.755   4.331   5.817
 2759SOL    HW1 8843   1.743   4.318   5.718
 2759SOL    HW2 8844   1.725   4.250   5.866
 2760SOL     OW 8845   0.685   4.736   6.251
 2760SOL    HW1 8846   0.754   4.720   6.321
 2760SOL    HW2 8847   0.612   4.793   6.289
 2761SOL     OW 8848   0.438   4.116   7.085
 2761SOL    HW1 8849   0.520   4.060   7.094
 2761SOL    HW2 8850   0.357   4.058   7.089
 2762SOL     OW 8851   1.603   4.171   6.323
 2762SOL    HW1 8852   1.529   4.217   6.273
 2762SOL    HW2 8853   1.654   4.239   6.376
 2763SOL     OW 8854   1.594   3.838   7.066
 2763SOL    HW1 8855   1.576   3.905   6.994
 2763SOL    HW2 8856   1.591   3.884   7.155
 2764SOL     OW 8857   0.122   4.367   6.149
 2764SOL    HW1 8858   0.077   4.279   6.166
 2764SOL    HW2 8859   0.121   4.421   6.233
 2765SOL     OW 8860   0.113   4.461   7.183
 2765SOL    HW1 8861   0.201   4.448   7.228
 2765SOL    HW2 8862   0.100   4.558   7.161
 2766SOL     OW 8863   0.809   3.728   6.088
 2766SOL    HW1 8864   0.849   3.819   6.079
 2766SOL    HW2 8865   0.709   3.736   6.094
 2767SOL     OW 8866   0.317   3.975   7.387
 2767SOL    HW1 8867   0.388   4.046   7.393
 2767SOL    HW2 8868   0.229   4.014   7.415
 2768SOL     OW 8869   1.281   4.069   6.530
 2768SOL    HW1 8870   1.195   4.019   6.517
 2768SOL    HW2 8871   1.343   4.015   6.586
 2769SOL     OW 8872   0.807   4.329   7.051
 2769SOL    HW1 8873   0.760   4.326   7.140
 2769SOL    HW2 8874   0.756   4.274   6.985
 2770SOL     OW 8875   1.394   4.193   7.260
 2770SOL    HW1 8876   1.374   4.236   7.348
 2770SOL    HW2 8877   1.472   4.131   7.269
 2771SOL     OW 8878   0.991   4.134   6.828
 2771SOL    HW1 8879   0.914   4.168   6.882
 2771SOL    HW2 8880   0.957   4.083   6.749
 2772SOL     OW 8881   1.041   4.425   6.015
 2772SOL    HW1 8882   1.067   4.421   6.111
 2772SOL    HW2 8883   0.956   4.374   6.001
 2773SOL     OW 8884   0.076   4.535   6.375
 2773SOL    HW1 8885   0.175   4.523   6.384
 2773SOL    HW2 8886   0.052   4.630   6.396
 2774SOL     OW 8887   0.865   4.072   5.781
 2774SOL    HW1 8888   0.924   4.135   5.732
 2774SOL    HW2 8889   0.884   3.978   5.752
 2775SOL     OW 8890   1.719   4.309   7.417
 2775SOL    HW1 8891   1.693   4.398   7.381
 2775SOL    HW2 8892   1.717   4.241   7.344
 2776SOL     OW 8893   0.550   3.920   6.471
 2776SOL    HW1 8894   0.545   3.915   6.571
 2776SOL    HW2 8895   0.552   4.016   6.442
 2777SOL     OW 8896   1.458   4.459   6.314
 2777SOL    HW1 8897   1.453   4.394   6.389
 2777SOL    HW2 8898   1.538   4.518   6.327
 2778SOL     OW 8899   0.202   4.009   7.084
 2778SOL    HW1 8900   0.122   4.069   7.071
 2778SOL    HW2 8901   0.192   3.960   7.170
 2779SOL     OW 8902   1.400   3.831   6.012
 2779SOL    HW1 8903   1.376   3.794   5.922
 2779SOL    HW2 8904   1.499   3.847   6.016
 2780SOL     OW 8905   0.382   4.424   6.066
 2780SOL    HW1 8906   0.427   4.334   6.063
 2780SOL    HW2 8907   0.288   4.413   6.099
 2781SOL     OW 8908   1.547   3.946   7.315
 2781SOL    HW1 8909   1.542   3.983   7.407
 2781SOL    HW2 8910   1.475   3.877   7.303
 2782SOL     OW 8911   0.614   3.846   5.703
 2782SOL    HW1 8912   0.712   3.824   5.710
 2782SOL    HW2 8913   0.583   3.829   5.610
 2783SOL     OW 8914   0.781   3.988   7.335
 2783SOL    HW1 8915   0.848   3.927   7.378
 2783SOL    HW2 8916   0.708   4.007   7.400
 2784SOL     OW 8917   1.351   4.314   7.019
 2784SOL    HW1 8918   1.379   4.271   7.104
 2784SOL    HW2 8919   1.376   4.410   7.020
 2785SOL     OW 8920   0.922   4.227   6.485
 2785SOL    HW1 8921   0.897   4.218   6.389
 2785SOL    HW2 8922   0.970   4.145   6.516
 2786SOL     OW 8923   0.539   3.788   6.098
 2786SOL    HW1 8924   0.458   3.789   6.156
 2786SOL    HW2 8925   0.542   3.871   6.043
 2787SOL     OW 8926   0.297   3.759   5.757
 2787SOL    HW1 8927   0.346   3.843   5.736
 2787SOL    HW2 8928   0.359   3.694   5.802
 2788SOL     OW 8929   0.935   3.960   6.066
 2788SOL    HW1 8930   0.887   4.001   5.988
 2788SOL    HW2 8931   1.034   3.958   6.047
 2789SOL     OW 8932   1.076   4.407   7.050
 2789SOL    HW1 8933   0.996   4.346   7.053
 2789SOL    HW2 8934   1.157   4.354   7.026
 2790SOL     OW 8935   1.032   4.273   5.602
 2790SOL    HW1 8936   0.991   4.355   5.563
 2790SOL    HW2 8937   1.096   4.299   5.675
 2791SOL     OW 8938   0.078   4.280   6.972
 2791SOL    HW1 8939   0.170   4.279   6.931
 2791SOL    HW2 8940   0.072   4.354   7.039
 2792SOL     OW 8941   0.561   3.946   6.733
 2792SOL    HW1 8942   0.599   3.862   6.770
 2792SOL    HW2 8943   0.473   3.965   6.777
 2793SOL     OW 8944   0.866   4.178   6.228
 2793SOL    HW1 8945   0.834   4.250   6.166
 2793SOL    HW2 8946   0.890   4.097   6.175
 2794SOL     OW 8947   1.017   3.763   6.339
 2794SOL    HW1 8948   0.945   3.768   6.270
 2794SOL    HW2 8949   0.993   3.694   6.408
 2795SOL     OW 8950   1.466   4.314   6.578
 2795SOL    HW1 8951   1.436   4.219   6.585
 2795SOL    HW2 8952   1.539   4.330   6.644
 2796SOL     OW 8953   1.390   4.299   5.664
 2796SOL    HW1 8954   1.336   4.278   5.745
 2796SOL    HW2 8955   1.481   4.258   5.673
 2797SOL     OW 8956   0.527   3.980   5.914
 2797SOL    HW1 8957   0.554   3.921   5.839
 2797SOL    HW2 8958   0.527   4.075   5.883
 2798SOL     OW 8959   0.915   3.813   6.988
 2798SOL    HW1 8960   0.940   3.793   6.893
 2798SOL    HW2 8961   0.987   3.869   7.030
 2799SOL     OW 8962   0.410   4.537   6.837
 2799SOL    HW1 8963   0.496   4.549   6.887
 2799SOL    HW2 8964   0.368   4.450   6.864
 2800SOL     OW 8965   1.274   4.110   6.848
 2800SOL    HW1 8966   1.295   4.184   6.912
 2800SOL    HW2 8967   1.185   4.127   6.805
 2801SOL     OW 8968   0.566   4.261   6.451
 2801SOL    HW1 8969   0.578   4.327   6.377
 2801SOL    HW2 8970   0.612   4.295   6.534
 2802SOL     OW 8971   1.582   4.363   6.058
 2802SOL    HW1 8972   1.551   4.424   6.131
 2802SOL    HW2 8973   1.632   4.415   5.989
 2803SOL     OW 8974   1.013   3.829   7.356
 2803SOL    HW1 8975   1.019   3.914   7.304
 2803SOL    HW2 8976   1.045   3.753   7.299
 2804SOL     OW 8977   0.504   3.774   7.326
 2804SOL    HW1 8978   0.462   3.717   7.256
 2804SOL    HW2 8979   0.438   3.843   7.358
 2805SOL     OW 8980   1.209   4.249   5.861
 2805SOL    HW1 8981   1.222   4.165   5.915
 2805SOL    HW2 8982   1.180   4.323   5.921
 2806SOL     OW 8983   0.307   3.937   6.817
 2806SOL    HW1 8984   0.284   3.974   6.907
 2806SOL    HW2 8985   0.277   3.842   6.811
 2807SOL     OW 8986   0.732   4.358   6.650
 2807SOL    HW1 8987   0.791   4.332   6.574
 2807SOL    HW2 8988   0.704   4.454   6.639
 2808SOL     OW 8989   1.728   4.659   7.440
 2808SOL    HW1 8990   1.682   4.652   7.351
 2808SOL    HW2 8991   1.666   4.703   7.506
 2809SOL     OW 8992   0.307   3.787   6.204
 2809SOL    HW1 8993   0.296   3.881   6.237
 2809SOL    HW2 8994   0.302   3.724   6.281
 2810SOL     OW 8995   1.622   4.091   5.960
 2810SOL    HW1 8996   1.624   4.015   6.024
 2810SOL    HW2 8997   1.574   4.168   6.000
 2811SOL     OW 8998   1.540   3.998   5.711
 2811SOL    HW1 8999   1.479   3.923   5.734
 2811SOL    HW2 9000   1.562   4.050   5.794
 2812SOL     OW 9001   0.319   4.534   6.535
 2812SOL    HW1 9002   0.412   4.570   6.540
 2812SOL    HW2 9003   0.313   4.449   6.587
 2813SOL     OW 9004   0.339   4.233   6.592
 2813SOL    HW1 9005   0.287   4.150   6.575
 2813SOL    HW2 9006   0.416   4.238   6.528
 2814SOL     OW 9007   1.138   4.104   7.264
 2814SOL    HW1 9008   1.093   4.167   7.328
 2814SOL    HW2 9009   1.231   4.135   7.247
 2815SOL     OW 9010   1.160   3.931   7.063
 2815SOL    HW1 9011   1.160   3.995   7.140
 2815SOL    HW2 9012   1.188   3.979   6.980
 2816SOL     OW 9013   0.040   4.268   6.700
 2816SOL    HW1 9014   0.125   4.235   6.659
 2816SOL    HW2 9015   0.053   4.283   6.798
 2817SOL     OW 9016   0.189   4.244   7.308
 2817SOL    HW1 9017   0.248   4.204   7.238
 2817SOL    HW2 9018   0.131   4.315   7.267
 2818SOL     OW 9019   0.815   4.296   5.911
 2818SOL    HW1 9020   0.822   4.207   5.865
 2818SOL    HW2 9021   0.721   4.330   5.903
 2819SOL     OW 9022   1.657   4.328   6.792
 2819SOL    HW1 9023   1.619   4.259   6.854
 2819SOL    HW2 9024   1.739   4.292   6.748
 2820SOL     OW 9025   0.671   4.188   6.855
 2820SOL    HW1 9026   0.637   4.099   6.825
 2820SOL    HW2 9027   0.697   4.242   6.775
 2821SOL     OW 9028   0.473   4.224   5.777
 2821SOL    HW1 9029   0.534   4.304   5.781
 2821SOL    HW2 9030   0.378   4.255   5.784
 2822SOL     OW 9031   1.726   3.859   6.109
 2822SOL    HW1 9032   1.799   3.842   6.042
 2822SOL    HW2 9033   1.695   3.772   6.147
 2823SOL     OW 9034   1.280   4.651   6.258
 2823SOL    HW1 9035   1.340   4.570   6.260
 2823SOL    HW2 9036   1.320   4.720   6.198
 2824SOL     OW 9037   1.841   3.899   6.549
 2824SOL    HW1 9038   1.880   3.814   6.513
 2824SOL    HW2 9039   1.743   3.901   6.530
 2825SOL     OW 9040   0.263   4.050   6.306
 2825SOL    HW1 9041   0.184   4.101   6.272
 2825SOL    HW2 9042   0.254   4.035   6.404
 2826SOL     OW 9043   0.916   4.634   5.877
 2826SOL    HW1 9044   0.979   4.672   5.809
 2826SOL    HW2 9045   0.956   4.551   5.916
 2827SOL     OW 9046   1.039   4.822   6.282
 2827SOL    HW1 9047   0.969   4.775   6.336
 2827SOL    HW2 9048   1.098   4.754   6.239
 2828SOL     OW 9049   1.014   3.960   6.557
 2828SOL    HW1 9050   1.006   3.924   6.464
 2828SOL    HW2 9051   1.012   3.884   6.622
 2829SOL     OW 9052   1.709   4.109   6.967
 2829SOL    HW1 9053   1.782   4.178   6.971
 2829SOL    HW2 9054   1.737   4.034   6.908
 2830SOL     OW 9055   0.672   3.927   7.075
 2830SOL    HW1 9056   0.762   3.911   7.035
 2830SOL    HW2 9057   0.680   3.932   7.174
 2831SOL     OW 9058   0.075   4.069   5.619
 2831SOL    HW1 9059  -0.017   4.041   5.590
 2831SOL    HW2 9060   0.106   4.146   5.563
 2832SOL     OW 9061   0.072   3.890   5.904
 2832SOL    HW1 9062   0.055   3.973   5.850
 2832SOL    HW2 9063   0.162   3.853   5.882
 2833SOL     OW 9064   0.716   4.289   7.294
 2833SOL    HW1 9065   0.735   4.354   7.368
 2833SOL    HW2 9066   0.776   4.209   7.303
 2834SOL     OW 9067   1.225   4.049   6.035
 2834SOL    HW1 9068   1.290   3.975   6.024
 2834SOL    HW2 9069   1.245   4.099   6.119
 2835SOL     OW 9070   1.777   4.066   7.228
 2835SOL    HW1 9071   1.760   4.097   7.134
 2835SOL    HW2 9072   1.693   4.029   7.266
 2836SOL     OW 9073   1.083   4.708   5.673
 2836SOL    HW1 9074   1.060   4.761   5.591
 2836SOL    HW2 9075   1.164   4.652   5.654
 2837SOL     OW 9076   1.824   3.916   6.813
 2837SOL    HW1 9077   1.820   3.826   6.857
 2837SOL    HW2 9078   1.827   3.905   6.714
 2838SOL     OW 9079   0.428   4.148   6.106
 2838SOL    HW1 9080   0.458   4.076   6.044
 2838SOL    HW2 9081   0.389   4.108   6.189
 2839SOL     OW 9082   0.317   4.271   6.866
 2839SOL    HW1 9083   0.355   4.212   6.938
 2839SOL    HW2 9084   0.357   4.245   6.778
 2840SOL     OW 9085   1.424   3.938   6.698
 2840SOL    HW1 9086   1.476   3.873   6.753
 2840SOL    HW2 9087   1.375   4.001   6.759
 2841SOL     OW 9088   1.001   3.758   6.740
 2841SOL    HW1 9089   0.938   3.686   6.709
 2841SOL    HW2 9090   1.094   3.722   6.740
 2842SOL     OW 9091   1.352   3.776   5.754
 2842SOL    HW1 9092   1.387   3.735   5.670
 2842SOL    HW2 9093   1.262   3.738   5.774
 2843SOL     OW 9094   1.300   4.177   6.277
 2843SOL    HW1 9095   1.241   4.257   6.281
 2843SOL    HW2 9096   1.315   4.142   6.370
 2844SOL     OW 9097   1.593   3.945   6.468
 2844SOL    HW1 9098   1.509   3.944   6.522
 2844SOL    HW2 9099   1.595   4.028   6.412
 2845SOL     OW 9100   0.230   4.352   7.561
 2845SOL    HW1 9101   0.137   4.350   7.598
 2845SOL    HW2 9102   0.231   4.313   7.469
 2846SOL     OW 9103   0.225   3.999   8.444
 2846SOL    HW1 9104   0.260   3.982   8.536
 2846SOL    HW2 9105   0.137   3.954   8.432
 2847SOL     OW 9106   0.019   4.092   8.095
 2847SOL    HW1 9107  -0.063   4.135   8.134
 2847SOL    HW2 9108  -0.009   4.019   8.032
 2848SOL     OW 9109   1.755   4.331   7.679
 2848SOL    HW1 9110   1.743   4.318   7.580
 2848SOL    HW2 9111   1.725   4.250   7.728
 2849SOL     OW 9112   0.685   4.736   8.113
 2849SOL    HW1 9113   0.754   4.720   8.183
 2849SOL    HW2 9114   0.612   4.793   8.151
 2850SOL     OW 9115   0.438   4.116   8.947
 2850SOL    HW1 9116   0.520   4.060   8.956
 2850SOL    HW2 9117   0.357   4.058   8.951
 2851SOL     OW 9118   1.603   4.171   8.185
 2851SOL    HW1 9119   1.529   4.217   8.135
 2851SOL    HW2 9120   1.654   4.239   8.238
 2852SOL     OW 9121   1.594   3.838   8.928
 2852SOL    HW1 9122   1.576   3.905   8.856
 2852SOL    HW2 9123   1.591   3.884   9.017
 2853SOL     OW 9124   0.122   4.367   8.011
 2853SOL    HW1 9125   0.077   4.279   8.028
 2853SOL    HW2 9126   0.121   4.421   8.095
 2854SOL     OW 9127   0.113   4.461   9.045
 2854SOL    HW1 9128   0.201   4.448   9.090
 2854SOL    HW2 9129   0.100   4.558   9.023
 2855SOL     OW 9130   0.809   3.728   7.950
 2855SOL    HW1 9131   0.849   3.819   7.941
 2855SOL    HW2 9132   0.709   3.736   7.956
 2856SOL     OW 9133   0.317   3.975   9.249
 2856SOL    HW1 9134   0.388   4.046   9.255
 2856SOL    HW2 9135   0.229   4.014   9.277
 2857SOL     OW 9136   1.281   4.069   8.392
 2857SOL    HW1 9137   1.195   4.019   8.379
 2857SOL    HW2 9138   1.343   4.015   8.448
 2858SOL     OW 9139   0.807   4.329   8.913
 2858SOL    HW1 9140   0.760   4.326   9.002
 2858SOL    HW2 9141   0.756   4.274   8.847
 2859SOL     OW 9142   1.394   4.193   9.122
 2859SOL    HW1 9143   1.374   4.236   9.210
 2859SOL    HW2 9144   1.472   4.131   9.131
 2860SOL     OW 9145   0.991   4.134   8.690
 2860SOL    HW1 9146   0.914   4.168   8.744
 2860SOL    HW2 9147   0.957   4.083   8.611
 2861SOL     OW 9148   1.041   4.425   7.877
 2861SOL    HW1 9149   1.067   4.421   7.973
 2861SOL    HW2 9150   0.956   4.374   7.863
 2862SOL     OW 9151   0.076   4.535   8.237
 2862SOL    HW1 9152   0.175   4.523   8.246
 2862SOL    HW2 9153   0.052   4.630   8.258
 2863SOL     OW 9154   0.865   4.072   7.643
 2863SOL    HW1 9155   0.924   4.135   7.594
 2863SOL    HW2 9156   0.884   3.978   7.614
 2864SOL     OW 9157   1.719   4.309   9.279
 2864SOL    HW1 9158   1.693   4.398   9.243
 2864SOL    HW2 9159   1.717   4.241   9.206
 2865SOL     OW 9160   0.550   3.920   8.333
 2865SOL    HW1 9161   0.545   3.915   8.433
 2865SOL    HW2 9162   0.552   4.016   8.304
 2866SOL     OW 9163   1.458   4.459   8.176
 2866SOL    HW1 9164   1.453   4.394   8.251
 2866SOL    HW2 9165   1.538   4.518   8.189
 2867SOL     OW 9166   0.202   4.009   8.946
 2867SOL    HW1 9167   0.122   4.069   8.933
 2867SOL    HW2 9168   0.192   3.960   9.032
 2868SOL     OW 9169   1.400   3.831   7.874
 2868SOL    HW1 9170   1.376   3.794   7.784
 2868SOL    HW2 9171   1.499   3.847   7.878
 2869SOL     OW 9172   0.382   4.424   7.928
 2869SOL    HW1 9173   0.427   4.334   7.925
 2869SOL    HW2 9174   0.288   4.413   7.961
 2870SOL     OW 9175   1.547   3.946   9.177
 2870SOL    HW1 9176   1.542   3.983   9.269
 2870SOL    HW2 9177   1.475   3.877   9.165
 2871SOL     OW 9178   0.614   3.846   7.565
 2871SOL    HW1 9179   0.712   3.824   7.572
 2871SOL    HW2 9180   0.583   3.829   7.472
 2872SOL     OW 9181   0.781   3.988   9.197
 2872SOL    HW1 9182   0.848   3.927   9.240
 2872SOL    HW2 9183   0.708   4.007   9.262
 2873SOL     OW 9184   1.351   4.314   8.881
 2873SOL    HW1 9185   1.379   4.271   8.966
 2873SOL    HW2 9186   1.376   4.410   8.882
 2874SOL     OW 9187   0.922   4.227   8.347
 2874SOL    HW1 9188   0.897   4.218   8.251
 2874SOL    HW2 9189   0.970   4.145   8.378
 2875SOL     OW 9190   0.539   3.788   7.960
 2875SOL    HW1 9191   0.458   3.789   8.018
 2875SOL    HW2 9192   0.542   3.871   7.905
 2876SOL     OW 9193   0.297   3.759   7.619
 2876SOL    HW1 9194   0.346   3.843   7.598
 2876SOL    HW2 9195   0.359   3.694   7.664
 2877SOL     OW 9196   0.935   3.960   7.928
 2877SOL    HW1 9197   0.887   4.001   7.850
 2877SOL    HW2 9198   1.034   3.958   7.909
 2878SOL     OW 9199   1.076   4.407   8.912
 2878SOL    HW1 9200   0.996   4.346   8.915
 2878SOL    HW2 9201   1.157   4.354   8.888
 2879SOL     OW 9202   1.032   4.273   7.464
 2879SOL    HW1 9203   0.991   4.355   7.425
 2879SOL    HW2 9204   1.096   4.299   7.537
 2880SOL     OW 9205   0.078   4.280   8.834
 2880SOL    HW1 9206   0.170   4.279   8.793
 2880SOL    HW2 9207   0.072   4.354   8.901
 2881SOL     OW 9208   0.561   3.946   8.595
 2881SOL    HW1 9209   0.599   3.862   8.632
 2881SOL    HW2 9210   0.473   3.965   8.639
 2882SOL     OW 9211   0.866   4.178   8.090
 2882SOL    HW1 9212   0.834   4.250   8.028
 2882SOL    HW2 9213   0.890   4.097   8.037
 2883SOL     OW 9214   1.017   3.763   8.201
 2883SOL    HW1 9215   0.945   3.768   8.132
 2883SOL    HW2 9216   0.993   3.694   8.270
 2884SOL     OW 9217   1.466   4.314   8.440
 2884SOL    HW1 9218   1.436   4.219   8.447
 2884SOL    HW2 9219   1.539   4.330   8.506
 2885SOL     OW 9220   1.390   4.299   7.526
 2885SOL    HW1 9221   1.336   4.278   7.607
 2885SOL    HW2 9222   1.481   4.258   7.535
 2886SOL     OW 9223   0.527   3.980   7.776
 2886SOL    HW1 9224   0.554   3.921   7.701
 2886SOL    HW2 9225   0.527   4.075   7.745
 2887SOL     OW 9226   0.915   3.813   8.850
 2887SOL    HW1 9227   0.940   3.793   8.755
 2887SOL    HW2 9228   0.987   3.869   8.892
 2888SOL     OW 9229   0.410   4.537   8.699
 2888SOL    HW1 9230   0.496   4.549   8.749
 2888SOL    HW2 9231   0.368   4.450   8.726
 2889SOL     OW 9232   1.274   4.110   8.710
 2889SOL    HW1 9233   1.295   4.184   8.774
 2889SOL    HW2 9234   1.185   4.127   8.667
 2890SOL     OW 9235   0.566   4.261   8.313
 2890SOL    HW1 9236   0.578   4.327   8.239
 2890SOL    HW2 9237   0.612   4.295   8.396
 2891SOL     OW 9238   1.582   4.363   7.920
 2891SOL    HW1 9239   1.551   4.424   7.993
 2891SOL    HW2 9240   1.632   4.415   7.851
 2892SOL     OW 9241   1.013   3.829   9.218
 2892SOL    HW1 9242   1.019   3.914   9.166
 2892SOL    HW2 9243   1.045   3.753   9.161
 2893SOL     OW 9244   0.504   3.774   9.188
 2893SOL    HW1 9245   0.462   3.717   9.118
 2893SOL    HW2 9246   0.438   3.843   9.220
 2894SOL     OW 9247   1.209   4.249   7.723
 2894SOL    HW1 9248   1.222   4.165   7.777
 2894SOL    HW2 9249   1.180   4.323   7.783
 2895SOL     OW 9250   0.307   3.937   8.679
 2895SOL    HW1 9251   0.284   3.974   8.769
 2895SOL    HW2 9252   0.277   3.842   8.673
 2896SOL     OW 9253   0.732   4.358   8.512
 2896SOL    HW1 9254   0.791   4.332   8.436
 2896SOL    HW2 9255   0.704   4.454   8.501
 2897SOL     OW 9256   1.728   4.659   9.302
 2897SOL    HW1 9257   1.682   4.652   9.213
 2897SOL    HW2 9258   1.666   4.703   9.368
 2898SOL     OW 9259   0.307   3.787   8.066
 2898SOL    HW1 9260   0.296   3.881   8.099
 2898SOL    HW2 9261   0.302   3.724   8.143
 2899SOL     OW 9262   1.622   4.091   7.822
 2899SOL    HW1 9263   1.624   4.015   7.886
 2899SOL    HW2 9264   1.574   4.168   7.862
 2900SOL     OW 9265   1.540   3.998   7.573
 2900SOL    HW1 9266   1.479   3.923   7.596
 2900SOL    HW2 9267   1.562   4.050   7.656
 2901SOL     OW 9268   0.319   4.534   8.397
 2901SOL    HW1 9269   0.412   4.570   8.402
 2901SOL    HW2 9270   0.313   4.449   8.449
 2902SOL     OW 9271   0.339   4.233   8.454
 2902SOL    HW1 9272   0.287   4.150   8.437
 2902SOL    HW2 9273   0.416   4.238   8.390
 2903SOL     OW 9274   1.138   4.104   9.126
 2903SOL    HW1 9275   1.093   4.167   9.190
 2903SOL    HW2 9276   1.231   4.135   9.109
 2904SOL     OW 9277   1.160   3.931   8.925
 2904SOL    HW1 9278   1.160   3.995   9.002
 2904SOL    HW2 9279   1.188   3.979   8.842
 2905SOL     OW 9280   0.040   4.268   8.562
 2905SOL    HW1 9281   0.125   4.235   8.521
 2905SOL    HW2 9282   0.053   4.283   8.660
 2906SOL     OW 9283   0.189   4.244   9.170
 2906SOL    HW1 9284   0.248   4.204   9.100
 2906SOL    HW2 9285   0.131   4.315   9.129
 2907SOL     OW 9286   0.815   4.296   7.773
 2907SOL    HW1 9287   0.822   4.207   7.727
 2907SOL    HW2 9288   0.721   4.330   7.765
 2908SOL     OW 9289   1.657   4.328   8.654
 2908SOL    HW1 9290   1.619   4.259   8.716
 2908SOL    HW2 9291   1.739   4.292   8.610
 2909SOL     OW 9292   0.671   4.188   8.717
 2909SOL    HW1 9293   0.637   4.099   8.687
 2909SOL    HW2 9294   0.697   4.242   8.637
 2910SOL     OW 9295   0.473   4.224   7.639
 2910SOL    HW1 9296   0.534   4.304   7.643
 2910SOL    HW2 9297   0.378   4.255   7.646
 2911SOL     OW 9298   1.726   3.859   7.971
 2911SOL    HW1 9299   1.799   3.842   7.904
 2911SOL    HW2 9300   1.695   3.772   8.009
 2912SOL     OW 9301   1.280   4.651   8.120
 2912SOL    HW1 9302   1.340   4.570   8.122
 2912SOL    HW2 9303   1.320   4.720   8.060
 2913SOL     OW 9304   1.841   3.899   8.411
 2913SOL    HW1 9305   1.880   3.814   8.375
 2913SOL    HW2 9306   1.743   3.901   8.392
 2914SOL     OW 9307   0.263   4.050   8.168
 2914SOL    HW1 9308   0.184   4.101   8.134
 2914SOL    HW2 9309   0.254   4.035   8.266
 2915SOL     OW 9310   0.916   4.634   7.739
 2915SOL    HW1 9311   0.979   4.672   7.671
 2915SOL    HW2 9312   0.956   4.551   7.778
 2916SOL     OW 9313   1.039   4.822   8.144
 2916SOL    HW1 9314   0.969   4.775   8.198
 2916SOL    HW2 9315   1.098   4.754   8.101
 2917SOL     OW 9316   1.014   3.960   8.419
 2917SOL    HW1 9317   1.006   3.924   8.326
 2917SOL    HW2 9318   1.012   3.884   8.484
 2918SOL     OW 9319   1.709   4.109   8.829
 2918SOL    HW1 9320   1.782   4.178   8.833
 2918SOL    HW2 9321   1.737   4.034   8.770
 2919SOL     OW 9322   0.672   3.927   8.937
 2919SOL    HW1 9323   0.762   3.911   8.897
 2919SOL    HW2 9324   0.680   3.932   9.036
 2920SOL     OW 9325   0.075   4.069   7.481
 2920SOL    HW1 9326  -0.017   4.041   7.452
 2920SOL    HW2 9327   0.106   4.146   7.425
 2921SOL     OW 9328   0.072   3.890   7.766
 2921SOL    HW1 9329   0.055   3.973   7.712
 2921SOL    HW2 9330   0.162   3.853   7.744
 2922SOL     OW 9331   0.716   4.289   9.156
 2922SOL    HW1 9332   0.735   4.354   9.230
 2922SOL    HW2 9333   0.776   4.209   9.165
 2923SOL     OW 9334   1.225   4.049   7.897
 2923SOL    HW1 9335   1.290   3.975   7.886
 2923SOL    HW2 9336   1.245   4.099   7.981
 2924SOL     OW 9337   1.777   4.066   9.090
 2924SOL    HW1 9338   1.760   4.097   8.996
 2924SOL    HW2 9339   1.693   4.029   9.128
 2925SOL     OW 9340   1.083   4.708   7.535
 2925SOL    HW1 9341   1.060   4.761   7.453
 2925SOL    HW2 9342   1.164   4.652   7.516
 2926SOL     OW 9343   1.824   3.916   8.675
 2926SOL    HW1 9344   1.820   3.826   8.719
 2926SOL    HW2 9345   1.827   3.905   8.576
 2927SOL     OW 9346   0.428   4.148   7.968
 2927SOL    HW1 9347   0.458   4.076   7.906
 2927SOL    HW2 9348   0.389   4.108   8.051
 2928SOL     OW 9349   0.317   4.271   8.728
 2928SOL    HW1 9350   0.355   4.212   8.800
 2928SOL    HW2 9351   0.357   4.245   8.640
 2929SOL     OW 9352   1.424   3.938   8.560
 2929SOL    HW1 9353   1.476   3.873   8.615
 2929SOL    HW2 9354   1.375   4.001   8.621
 2930SOL     OW 9355   1.001   3.758   8.602
 2930SOL    HW1 9356   0.938   3.686   8.571
 2930SOL    HW2 9357   1.094   3.722   8.602
 2931SOL     OW 9358   1.352   3.776   7.616
 2931SOL    HW1 9359   1.387   3.735   7.532
 2931SOL    HW2 9360   1.262   3.738   7.636
 2932SOL     OW 9361   1.300   4.177   8.139
 2932SOL    HW1 9362   1.241   4.257   8.143
 2932SOL    HW2 9363   1.315   4.142   8.232
 2933SOL     OW 9364   1.593   3.945   8.330
 2933SOL    HW1 9365   1.509   3.944   8.384
 2933SOL    HW2 9366   1.595   4.028   8.274
 2934SOL     OW 9367   0.230   4.352   9.423
 2934SOL    HW1 9368   0.137   4.350   9.460
 2934SOL    HW2 9369   0.231   4.313   9.331
 2935SOL     OW 9370   0.225   3.999  10.306
 2935SOL    HW1 9371   0.260   3.982  10.398
 2935SOL    HW2 9372   0.137   3.954  10.294
 2936SOL     OW 9373   0.019   4.092   9.957
 2936SOL    HW1 9374  -0.063   4.135   9.996
 2936SOL    HW2 9375  -0.009   4.019   9.894
 2937SOL     OW 9376   1.755   4.331   9.541
 2937SOL    HW1 9377   1.743   4.318   9.442
 2937SOL    HW2 9378   1.725   4.250   9.590
 2938SOL     OW 9379   0.685   4.736   9.975
 2938SOL    HW1 9380   0.754   4.720  10.045
 2938SOL    HW2 9381   0.612   4.793  10.013
 2939SOL     OW 9382   0.438   4.116  10.809
 2939SOL    HW1 9383   0.520   4.060  10.818
 2939SOL    HW2 9384   0.357   4.058  10.813
 2940SOL     OW 9385   1.603   4.171  10.047
 2940SOL    HW1 9386   1.529   4.217   9.997
 2940SOL    HW2 9387   1.654   4.239  10.100
 2941SOL     OW 9388   1.594   3.838  10.790
 2941SOL    HW1 9389   1.576   3.905  10.718
 2941SOL    HW2 9390   1.591   3.884  10.879
 2942SOL     OW 9391   0.122   4.367   9.873
 2942SOL    HW1 9392   0.077   4.279   9.890
 2942SOL    HW2 9393   0.121   4.421   9.957
 2943SOL     OW 9394   0.113   4.461  10.907
 2943SOL    HW1 9395   0.201   4.448  10.952
 2943SOL    HW2 9396   0.100   4.558  10.885
 2944SOL     OW 9397   0.809   3.728   9.812
 2944SOL    HW1 9398   0.849   3.819   9.803
 2944SOL    HW2 9399   0.709   3.736   9.818
 2945SOL     OW 9400   0.317   3.975  11.111
 2945SOL    HW1 9401   0.388   4.046  11.117
 2945SOL    HW2 9402   0.229   4.014  11.139
 2946SOL     OW 9403   1.281   4.069  10.254
 2946SOL    HW1 9404   1.195   4.019  10.241
 2946SOL    HW2 9405   1.343   4.015  10.310
 2947SOL     OW 9406   0.807   4.329  10.775
 2947SOL    HW1 9407   0.760   4.326  10.864
 2947SOL    HW2 9408   0.756   4.274  10.709
 2948SOL     OW 9409   0.991   4.134  10.552
 2948SOL    HW1 9410   0.914   4.168  10.606
 2948SOL    HW2 9411   0.957   4.083  10.473
 2949SOL     OW 9412   1.041   4.425   9.739
 2949SOL    HW1 9413   1.067   4.421   9.835
 2949SOL    HW2 9414   0.956   4.374   9.725
 2950SOL     OW 9415   0.076   4.535  10.099
 2950SOL    HW1 9416   0.175   4.523  10.108
 2950SOL    HW2 9417   0.052   4.630  10.120
 2951SOL     OW 9418   0.865   4.072   9.505
 2951SOL    HW1 9419   0.924   4.135   9.456
 2951SOL    HW2 9420   0.884   3.978   9.476
 2952SOL     OW 9421   0.550   3.920  10.195
 2952SOL    HW1 9422   0.545   3.915  10.295
 2952SOL    HW2 9423   0.552   4.016  10.166
 2953SOL     OW 9424   1.458   4.459  10.038
 2953SOL    HW1 9425   1.453   4.394  10.113
 2953SOL    HW2 9426   1.538   4.518  10.051
 2954SOL     OW 9427   0.202   4.009  10.808
 2954SOL    HW1 9428   0.122   4.069  10.795
 2954SOL    HW2 9429   0.192   3.960  10.894
 2955SOL     OW 9430   1.400   3.831   9.736
 2955SOL    HW1 9431   1.376   3.794   9.646
 2955SOL    HW2 9432   1.499   3.847   9.740
 2956SOL     OW 9433   0.382   4.424   9.790
 2956SOL    HW1 9434   0.427   4.334   9.787
 2956SOL    HW2 9435   0.288   4.413   9.823
 2957SOL     OW 9436   0.614   3.846   9.427
 2957SOL    HW1 9437   0.712   3.824   9.434
 2957SOL    HW2 9438   0.583   3.829   9.334
 2958SOL     OW 9439   0.781   3.988  11.059
 2958SOL    HW1 9440   0.848   3.927  11.102
 2958SOL    HW2 9441   0.708   4.007  11.124
 2959SOL     OW 9442   1.351   4.314  10.743
 2959SOL    HW1 9443   1.379   4.271  10.828
 2959SOL    HW2 9444   1.376   4.410  10.744
 2960SOL     OW 9445   0.922   4.227  10.209
 2960SOL    HW1 9446   0.897   4.218  10.113
 2960SOL    HW2 9447   0.970   4.145  10.240
 2961SOL     OW 9448   0.539   3.788   9.822
 2961SOL    HW1 9449   0.458   3.789   9.880
 2961SOL    HW2 9450   0.542   3.871   9.767
 2962SOL     OW 9451   0.297   3.759   9.481
 2962SOL    HW1 9452   0.346   3.843   9.460
 2962SOL    HW2 9453   0.359   3.694   9.526
 2963SOL     OW 9454   0.935   3.960   9.790
 2963SOL    HW1 9455   0.887   4.001   9.712
 2963SOL    HW2 9456   1.034   3.958   9.771
 2964SOL     OW 9457   1.076   4.407  10.774
 2964SOL    HW1 9458   0.996   4.346  10.777
 2964SOL    HW2 9459   1.157   4.354  10.750
 2965SOL     OW 9460   1.032   4.273   9.326
 2965SOL    HW1 9461   0.991   4.355   9.287
 2965SOL    HW2 9462   1.096   4.299   9.399
 2966SOL     OW 9463   0.078   4.280  10.696
 2966SOL    HW1 9464   0.170   4.279  10.655
 2966SOL    HW2 9465   0.072   4.354  10.763
 2967SOL     OW 9466   0.561   3.946  10.457
 2967SOL    HW1 9467   0.599   3.862  10.494
 2967SOL    HW2 9468   0.473   3.965  10.501
 2968SOL     OW 9469   0.866   4.178   9.952
 2968SOL    HW1 9470   0.834   4.250   9.890
 2968SOL    HW2 9471   0.890   4.097   9.899
 2969SOL     OW 9472   1.017   3.763  10.063
 2969SOL    HW1 9473   0.945   3.768   9.994
 2969SOL    HW2 9474   0.993   3.694  10.132
 2970SOL     OW 9475   1.466   4.314  10.302
 2970SOL    HW1 9476   1.436   4.219  10.309
 2970SOL    HW2 9477   1.539   4.330  10.368
 2971SOL     OW 9478   1.390   4.299   9.388
 2971SOL    HW1 9479   1.336   4.278   9.469
 2971SOL    HW2 9480   1.481   4.258   9.397
 2972SOL     OW 9481   0.527   3.980   9.638
 2972SOL    HW1 9482   0.554   3.921   9.563
 2972SOL    HW2 9483   0.527   4.075   9.607
 2973SOL     OW 9484   0.915   3.813  10.712
 2973SOL    HW1 9485   0.940   3.793  10.617
 2973SOL    HW2 9486   0.987   3.869  10.754
 2974SOL     OW 9487   0.410   4.537  10.561
 2974SOL    HW1 9488   0.496   4.549  10.611
 2974SOL    HW2 9489   0.368   4.450  10.588
 2975SOL     OW 9490   1.274   4.110  10.572
 2975SOL    HW1 9491   1.295   4.184  10.636
 2975SOL    HW2 9492   1.185   4.127  10.529
 2976SOL     OW 9493   0.566   4.261  10.175
 2976SOL    HW1 9494   0.578   4.327  10.101
 2976SOL    HW2 9495   0.612   4.295  10.258
 2977SOL     OW 9496   1.582   4.363   9.782
 2977SOL    HW1 9497   1.551   4.424   9.855
 2977SOL    HW2 9498   1.632   4.415   9.713
 2978SOL     OW 9499   0.402   4.475  10.908
 2978SOL    HW1 9500   0.470   4.530  10.861
 2978SOL    HW2 9501   0.442   4.387  10.935
 2979SOL     OW 9502   1.209   4.249   9.585
 2979SOL    HW1 9503   1.222   4.165   9.639
 2979SOL    HW2 9504   1.180   4.323   9.645
 2980SOL     OW 9505   0.307   3.937  10.541
 2980SOL    HW1 9506   0.284   3.974  10.631
 2980SOL    HW2 9507   0.277   3.842  10.535
 2981SOL     OW 9508   0.732   4.358  10.374
 2981SOL    HW1 9509   0.791   4.332  10.298
 2981SOL    HW2 9510   0.704   4.454  10.363
 2982SOL     OW 9511   0.307   3.787   9.928
 2982SOL    HW1 9512   0.296   3.881   9.961
 2982SOL    HW2 9513   0.302   3.724  10.005
 2983SOL     OW 9514   1.622   4.091   9.684
 2983SOL    HW1 9515   1.624   4.015   9.748
 2983SOL    HW2 9516   1.574   4.168   9.724
 2984SOL     OW 9517   1.540   3.998   9.435
 2984SOL    HW1 9518   1.479   3.923   9.458
 2984SOL    HW2 9519   1.562   4.050   9.518
 2985SOL     OW 9520   0.319   4.534  10.259
 2985SOL    HW1 9521   0.412   4.570  10.264
 2985SOL    HW2 9522   0.313   4.449  10.311
 2986SOL     OW 9523   0.339   4.233  10.316
 2986SOL    HW1 9524   0.287   4.150  10.299
 2986SOL    HW2 9525   0.416   4.238  10.252
 2987SOL     OW 9526   1.160   3.931  10.787
 2987SOL    HW1 9527   1.160   3.995  10.864
 2987SOL    HW2 9528   1.188   3.979  10.704
 2988SOL     OW 9529   0.040   4.268  10.424
 2988SOL    HW1 9530   0.125   4.235  10.383
 2988SOL    HW2 9531   0.053   4.283  10.522
 2989SOL     OW 9532   1.369   4.674  10.970
 2989SOL    HW1 9533   1.408   4.763  10.990
 2989SOL    HW2 9534   1.379   4.654  10.873
 2990SOL     OW 9535   0.815   4.296   9.635
 2990SOL    HW1 9536   0.822   4.207   9.589
 2990SOL    HW2 9537   0.721   4.330   9.627
 2991SOL     OW 9538   1.657   4.328  10.516
 2991SOL    HW1 9539   1.619   4.259  10.578
 2991SOL    HW2 9540   1.739   4.292  10.472
 2992SOL     OW 9541   0.671   4.188  10.579
 2992SOL    HW1 9542   0.637   4.099  10.549
 2992SOL    HW2 9543   0.697   4.242  10.499
 2993SOL     OW 9544   0.473   4.224   9.501
 2993SOL    HW1 9545   0.534   4.304   9.505
 2993SOL    HW2 9546   0.378   4.255   9.508
 2994SOL     OW 9547   1.726   3.859   9.833
 2994SOL    HW1 9548   1.799   3.842   9.766
 2994SOL    HW2 9549   1.695   3.772   9.871
 2995SOL     OW 9550   1.280   4.651   9.982
 2995SOL    HW1 9551   1.340   4.570   9.984
 2995SOL    HW2 9552   1.320   4.720   9.922
 2996SOL     OW 9553   1.841   3.899  10.273
 2996SOL    HW1 9554   1.880   3.814  10.237
 2996SOL    HW2 9555   1.743   3.901  10.254
 2997SOL     OW 9556   0.263   4.050  10.030
 2997SOL    HW1 9557   0.184   4.101   9.996
 2997SOL    HW2 9558   0.254   4.035  10.128
 2998SOL     OW 9559   0.916   4.634   9.601
 2998SOL    HW1 9560   0.979   4.672   9.533
 2998SOL    HW2 9561   0.956   4.551   9.640
 2999SOL     OW 9562   1.039   4.822  10.006
 2999SOL    HW1 9563   0.969   4.775  10.060
 2999SOL    HW2 9564   1.098   4.754   9.963
 3000SOL     OW 9565   1.014   3.960  10.281
 3000SOL    HW1 9566   1.006   3.924  10.188
 3000SOL    HW2 9567   1.012   3.884  10.346
 3001SOL     OW 9568   1.709   4.109  10.691
 3001SOL    HW1 9569   1.782   4.178  10.695
 3001SOL    HW2 9570   1.737   4.034  10.632
 3002SOL     OW 9571   0.672   3.927  10.799
 3002SOL    HW1 9572   0.762   3.911  10.759
 3002SOL    HW2 9573   0.680   3.932  10.898
 3003SOL     OW 9574   0.075   4.069   9.343
 3003SOL    HW1 9575  -0.017   4.041   9.314
 3003SOL    HW2 9576   0.106   4.146   9.287
 3004SOL     OW 9577   0.072   3.890   9.628
 3004SOL    HW1 9578   0.055   3.973   9.574
 3004SOL    HW2 9579   0.162   3.853   9.606
 3005SOL     OW 9580   0.716   4.289  11.018
 3005SOL    HW1 9581   0.735   4.354  11.092
 3005SOL    HW2 9582   0.776   4.209  11.027
 3006SOL     OW 9583   1.225   4.049   9.759
 3006SOL    HW1 9584   1.290   3.975   9.748
 3006SOL    HW2 9585   1.245   4.099   9.843
 3007SOL     OW 9586   1.777   4.066  10.952
 3007SOL    HW1 9587   1.760   4.097  10.858
 3007SOL    HW2 9588   1.693   4.029  10.990
 3008SOL     OW 9589   1.083   4.708   9.397
 3008SOL    HW1 9590   1.060   4.761   9.315
 3008SOL    HW2 9591   1.164   4.652   9.378
 3009SOL     OW 9592   1.824   3.916  10.537
 3009SOL    HW1 9593   1.820   3.826  10.581
 3009SOL    HW2 9594   1.827   3.905  10.438
 3010SOL     OW 9595   0.428   4.148   9.830
 3010SOL    HW1 9596   0.458   4.076   9.768
 3010SOL    HW2 9597   0.389   4.108   9.913
 3011SOL     OW 9598   0.317   4.271  10.590
 3011SOL    HW1 9599   0.355   4.212  10.662
 3011SOL    HW2 9600   0.357   4.245  10.502
 3012SOL     OW 9601   1.424   3.938  10.422
 3012SOL    HW1 9602   1.476   3.873  10.477
 3012SOL    HW2 9603   1.375   4.001  10.483
 3013SOL     OW 9604   1.001   3.758  10.464
 3013SOL    HW1 9605   0.938   3.686  10.433
 3013SOL    HW2 9606   1.094   3.722  10.464
 3014SOL     OW 9607   1.352   3.776   9.478
 3014SOL    HW1 9608   1.387   3.735   9.394
 3014SOL    HW2 9609   1.262   3.738   9.498
 3015SOL     OW 9610   1.300   4.177  10.001
 3015SOL    HW1 9611   1.241   4.257  10.005
 3015SOL    HW2 9612   1.315   4.142  10.094
 3016SOL     OW 9613   1.593   3.945  10.192
 3016SOL    HW1 9614   1.509   3.944  10.246
 3016SOL    HW2 9615   1.595   4.028  10.136
 3017SOL     OW 9616   2.092   0.628   0.113
 3017SOL    HW1 9617   1.999   0.626   0.150
 3017SOL    HW2 9618   2.093   0.589   0.021
 3018SOL     OW 9619   2.087   0.275   0.996
 3018SOL    HW1 9620   2.122   0.258   1.088
 3018SOL    HW2 9621   1.999   0.230   0.984
 3019SOL     OW 9622   1.881   0.368   0.647
 3019SOL    HW1 9623   1.799   0.411   0.686
 3019SOL    HW2 9624   1.853   0.295   0.584
 3020SOL     OW 9625   2.431   1.275   1.165
 3020SOL    HW1 9626   2.338   1.268   1.128
 3020SOL    HW2 9627   2.442   1.364   1.209
 3021SOL     OW 9628   3.417   1.511   0.703
 3021SOL    HW1 9629   3.360   1.495   0.784
 3021SOL    HW2 9630   3.358   1.521   0.623
 3022SOL     OW 9631   2.997   0.703   0.717
 3022SOL    HW1 9632   3.054   0.781   0.692
 3022SOL    HW2 9633   2.937   0.729   0.793
 3023SOL     OW 9634   3.617   0.607   0.231
 3023SOL    HW1 9635   3.605   0.594   0.132
 3023SOL    HW2 9636   3.587   0.526   0.280
 3024SOL     OW 9637   2.630   1.144   1.023
 3024SOL    HW1 9638   2.552   1.161   1.083
 3024SOL    HW2 9639   2.664   1.231   0.987
 3025SOL     OW 9640   2.712   0.798   1.823
 3025SOL    HW1 9641   2.708   0.874   1.888
 3025SOL    HW2 9642   2.734   0.834   1.732
 3026SOL     OW 9643   2.547   1.012   0.665
 3026SOL    HW1 9644   2.616   0.996   0.735
 3026SOL    HW2 9645   2.474   1.069   0.703
 3027SOL     OW 9646   2.548   1.161   1.803
 3027SOL    HW1 9647   2.608   1.240   1.817
 3027SOL    HW2 9648   2.462   1.192   1.762
 3028SOL     OW 9649   2.197   1.435   1.061
 3028SOL    HW1 9650   2.119   1.404   1.008
 3028SOL    HW2 9651   2.255   1.493   1.004
 3029SOL     OW 9652   3.322   1.505   1.339
 3029SOL    HW1 9653   3.346   1.599   1.365
 3029SOL    HW2 9654   3.306   1.451   1.421
 3030SOL     OW 9655   2.300   0.392   1.499
 3030SOL    HW1 9656   2.382   0.336   1.508
 3030SOL    HW2 9657   2.219   0.334   1.503
 3031SOL     OW 9658   3.465   0.447   0.737
 3031SOL    HW1 9659   3.391   0.493   0.687
 3031SOL    HW2 9660   3.516   0.515   0.790
 3032SOL     OW 9661   2.093   1.713   0.483
 3032SOL    HW1 9662   2.127   1.790   0.537
 3032SOL    HW2 9663   2.137   1.713   0.393
 3033SOL     OW 9664   2.989   1.341   1.690
 3033SOL    HW1 9665   3.036   1.341   1.778
 3033SOL    HW2 9666   2.941   1.254   1.679
 3034SOL     OW 9667   2.092   1.434   0.538
 3034SOL    HW1 9668   2.066   1.530   0.538
 3034SOL    HW2 9669   2.021   1.380   0.583
 3035SOL     OW 9670   2.102   1.091   0.886
 3035SOL    HW1 9671   2.116   1.007   0.938
 3035SOL    HW2 9672   2.047   1.155   0.941
 3036SOL     OW 9673   2.482   1.786   1.439
 3036SOL    HW1 9674   2.390   1.769   1.474
 3036SOL    HW2 9675   2.510   1.878   1.465
 3037SOL     OW 9676   2.468   0.964   0.123
 3037SOL    HW1 9677   2.475   1.048   0.069
 3037SOL    HW2 9678   2.514   0.977   0.211
 3038SOL     OW 9679   3.456   0.114   1.480
 3038SOL    HW1 9680   3.438   0.181   1.408
 3038SOL    HW2 9681   3.453   0.160   1.569
 3039SOL     OW 9682   1.984   0.643   0.563
 3039SOL    HW1 9683   1.939   0.555   0.580
 3039SOL    HW2 9684   1.983   0.697   0.647
 3040SOL     OW 9685   3.704   1.767   0.359
 3040SOL    HW1 9686   3.758   1.738   0.439
 3040SOL    HW2 9687   3.734   1.857   0.330
 3041SOL     OW 9688   1.889   1.596   0.117
 3041SOL    HW1 9689   1.870   1.500   0.138
 3041SOL    HW2 9690   1.856   1.654   0.192
 3042SOL     OW 9691   3.551   0.922   0.612
 3042SOL    HW1 9692   3.646   0.893   0.620
 3042SOL    HW2 9693   3.543   0.987   0.537
 3043SOL     OW 9694   3.503   1.108   0.432
 3043SOL    HW1 9695   3.589   1.110   0.380
 3043SOL    HW2 9696   3.517   1.155   0.520
 3044SOL     OW 9697   1.975   0.737   1.597
 3044SOL    HW1 9698   2.063   0.724   1.642
 3044SOL    HW2 9699   1.962   0.834   1.575
 3045SOL     OW 9700   2.475   1.365   0.726
 3045SOL    HW1 9701   2.426   1.278   0.735
 3045SOL    HW2 9702   2.452   1.408   0.639
 3046SOL     OW 9703   3.155   1.228   1.423
 3046SOL    HW1 9704   3.192   1.155   1.365
 3046SOL    HW2 9705   3.207   1.233   1.508
 3047SOL     OW 9706   2.671   0.004   0.502
 3047SOL    HW1 9707   2.711   0.095   0.493
 3047SOL    HW2 9708   2.571   0.012   0.508
 3048SOL     OW 9709   2.059   0.976   1.264
 3048SOL    HW1 9710   2.148   0.931   1.250
 3048SOL    HW2 9711   1.986   0.911   1.245
 3049SOL     OW 9712   3.387   0.999   0.190
 3049SOL    HW1 9713   3.324   0.923   0.203
 3049SOL    HW2 9714   3.435   1.017   0.276
 3050SOL     OW 9715   3.049   1.792   1.616
 3050SOL    HW1 9716   3.073   1.852   1.540
 3050SOL    HW2 9717   3.056   1.697   1.586
 3051SOL     OW 9718   2.179   0.251   1.801
 3051SOL    HW1 9719   2.250   0.322   1.807
 3051SOL    HW2 9720   2.091   0.290   1.829
 3052SOL     OW 9721   3.328   1.417   0.953
 3052SOL    HW1 9722   3.269   1.423   1.033
 3052SOL    HW2 9723   3.313   1.329   0.907
 3053SOL     OW 9724   3.529   1.714   0.572
 3053SOL    HW1 9725   3.488   1.691   0.484
 3053SOL    HW2 9726   3.511   1.640   0.637
 3054SOL     OW 9727   2.460   0.729   0.270
 3054SOL    HW1 9728   2.484   0.798   0.202
 3054SOL    HW2 9729   2.382   0.762   0.324
 3055SOL     OW 9730   3.143   0.345   0.944
 3055SOL    HW1 9731   3.057   0.295   0.931
 3055SOL    HW2 9732   3.205   0.291   1.000
 3056SOL     OW 9733   3.438   1.662   0.307
 3056SOL    HW1 9734   3.527   1.708   0.310
 3056SOL    HW2 9735   3.417   1.638   0.212
 3057SOL     OW 9736   2.669   0.605   1.465
 3057SOL    HW1 9737   2.622   0.602   1.554
 3057SOL    HW2 9738   2.618   0.550   1.399
 3058SOL     OW 9739   3.256   0.469   1.674
 3058SOL    HW1 9740   3.236   0.512   1.762
 3058SOL    HW2 9741   3.334   0.407   1.683
 3059SOL     OW 9742   2.835   0.890   1.572
 3059SOL    HW1 9743   2.881   0.806   1.543
 3059SOL    HW2 9744   2.779   0.924   1.497
 3060SOL     OW 9745   2.853   0.410   1.242
 3060SOL    HW1 9746   2.776   0.444   1.296
 3060SOL    HW2 9747   2.819   0.359   1.163
 3061SOL     OW 9748   2.903   0.701   0.429
 3061SOL    HW1 9749   2.929   0.697   0.525
 3061SOL    HW2 9750   2.818   0.650   0.415
 3062SOL     OW 9751   1.938   0.811   0.789
 3062SOL    HW1 9752   2.037   0.799   0.798
 3062SOL    HW2 9753   1.914   0.906   0.810
 3063SOL     OW 9754   1.992   1.821   1.571
 3063SOL    HW1 9755   1.982   1.806   1.670
 3063SOL    HW2 9756   1.906   1.857   1.535
 3064SOL     OW 9757   2.727   0.348   0.195
 3064SOL    HW1 9758   2.786   0.411   0.146
 3064SOL    HW2 9759   2.746   0.254   0.166
 3065SOL     OW 9760   3.581   0.585   1.831
 3065SOL    HW1 9761   3.555   0.674   1.795
 3065SOL    HW2 9762   3.579   0.517   1.758
 3066SOL     OW 9763   3.224   1.144   0.545
 3066SOL    HW1 9764   3.307   1.115   0.497
 3066SOL    HW2 9765   3.175   1.211   0.489
 3067SOL     OW 9766   2.412   0.196   0.885
 3067SOL    HW1 9767   2.407   0.191   0.985
 3067SOL    HW2 9768   2.414   0.292   0.856
 3068SOL     OW 9769   2.870   1.456   0.477
 3068SOL    HW1 9770   2.824   1.528   0.425
 3068SOL    HW2 9771   2.866   1.476   0.575
 3069SOL     OW 9772   2.213   1.801   0.853
 3069SOL    HW1 9773   2.263   1.715   0.859
 3069SOL    HW2 9774   2.278   1.878   0.850
 3070SOL     OW 9775   3.657   1.066   0.873
 3070SOL    HW1 9776   3.595   1.051   0.797
 3070SOL    HW2 9777   3.605   1.077   0.958
 3071SOL     OW 9778   3.089   1.550   1.506
 3071SOL    HW1 9779   3.095   1.473   1.570
 3071SOL    HW2 9780   3.037   1.524   1.426
 3072SOL     OW 9781   2.183   0.943   0.242
 3072SOL    HW1 9782   2.265   0.982   0.200
 3072SOL    HW2 9783   2.156   0.861   0.193
 3073SOL     OW 9784   3.320   0.735   0.728
 3073SOL    HW1 9785   3.315   0.670   0.803
 3073SOL    HW2 9786   3.400   0.794   0.741
 3074SOL     OW 9787   2.323   1.266   1.727
 3074SOL    HW1 9788   2.273   1.267   1.641
 3074SOL    HW2 9789   2.260   1.248   1.803
 3075SOL     OW 9790   2.973   1.776   0.237
 3075SOL    HW1 9791   2.913   1.714   0.287
 3075SOL    HW2 9792   3.004   1.732   0.152
 3076SOL     OW 9793   2.064   0.285   1.498
 3076SOL    HW1 9794   1.984   0.345   1.485
 3076SOL    HW2 9795   2.054   0.236   1.584
 3077SOL     OW 9796   3.494   1.377   0.081
 3077SOL    HW1 9797   3.462   1.471   0.071
 3077SOL    HW2 9798   3.418   1.314   0.069
 3078SOL     OW 9799   2.326   1.743   0.323
 3078SOL    HW1 9800   2.359   1.782   0.409
 3078SOL    HW2 9801   2.402   1.736   0.258
 3079SOL     OW 9802   3.262   0.107   0.426
 3079SOL    HW1 9803   3.238   0.070   0.336
 3079SOL    HW2 9804   3.361   0.123   0.430
 3080SOL     OW 9805   2.111   1.785   1.241
 3080SOL    HW1 9806   2.168   1.720   1.291
 3080SOL    HW2 9807   2.095   1.752   1.148
 3081SOL     OW 9808   2.802   1.698   0.904
 3081SOL    HW1 9809   2.882   1.641   0.925
 3081SOL    HW2 9810   2.753   1.658   0.827
 3082SOL     OW 9811   2.244   0.700   0.480
 3082SOL    HW1 9812   2.289   0.610   0.477
 3082SOL    HW2 9813   2.150   0.689   0.513
 3083SOL     OW 9814   3.409   0.222   1.729
 3083SOL    HW1 9815   3.404   0.259   1.821
 3083SOL    HW2 9816   3.337   0.153   1.717
 3084SOL     OW 9817   2.476   0.122   0.117
 3084SOL    HW1 9818   2.574   0.100   0.124
 3084SOL    HW2 9819   2.445   0.105   0.024
 3085SOL     OW 9820   2.643   0.264   1.749
 3085SOL    HW1 9821   2.710   0.203   1.792
 3085SOL    HW2 9822   2.570   0.283   1.814
 3086SOL     OW 9823   2.750   1.514   1.195
 3086SOL    HW1 9824   2.727   1.489   1.101
 3086SOL    HW2 9825   2.811   1.445   1.234
 3087SOL     OW 9826   3.213   0.590   1.433
 3087SOL    HW1 9827   3.241   0.547   1.518
 3087SOL    HW2 9828   3.238   0.686   1.434
 3088SOL     OW 9829   2.665   1.402   0.924
 3088SOL    HW1 9830   2.755   1.416   0.882
 3088SOL    HW2 9831   2.594   1.404   0.853
 3089SOL     OW 9832   2.784   0.503   0.899
 3089SOL    HW1 9833   2.759   0.494   0.803
 3089SOL    HW2 9834   2.832   0.421   0.930
 3090SOL     OW 9835   2.401   0.064   0.512
 3090SOL    HW1 9836   2.320   0.065   0.570
 3090SOL    HW2 9837   2.404   0.147   0.457
 3091SOL     OW 9838   3.296   1.188   0.041
 3091SOL    HW1 9839   3.328   1.112   0.098
 3091SOL    HW2 9840   3.204   1.215   0.071
 3092SOL     OW 9841   2.159   0.035   0.171
 3092SOL    HW1 9842   2.208   0.119   0.150
 3092SOL    HW2 9843   2.221  -0.030   0.216
 3093SOL     OW 9844   2.797   0.236   0.480
 3093SOL    HW1 9845   2.749   0.277   0.402
 3093SOL    HW2 9846   2.896   0.234   0.461
 3094SOL     OW 9847   2.938   0.683   1.464
 3094SOL    HW1 9848   2.858   0.622   1.467
 3094SOL    HW2 9849   3.019   0.630   1.440
 3095SOL     OW 9850   3.089   1.570   0.793
 3095SOL    HW1 9851   3.110   1.644   0.728
 3095SOL    HW2 9852   3.157   1.570   0.866
 3096SOL     OW 9853   2.321   1.152   0.741
 3096SOL    HW1 9854   2.250   1.125   0.806
 3096SOL    HW2 9855   2.295   1.124   0.648
 3097SOL     OW 9856   3.133   1.797   0.591
 3097SOL    HW1 9857   3.177   1.861   0.527
 3097SOL    HW2 9858   3.083   1.849   0.661
 3098SOL     OW 9859   2.894   0.549   0.016
 3098SOL    HW1 9860   2.853   0.631  -0.023
 3098SOL    HW2 9861   2.958   0.575   0.089
 3099SOL     OW 9862   1.940   0.556   1.386
 3099SOL    HW1 9863   2.032   0.555   1.345
 3099SOL    HW2 9864   1.934   0.630   1.453
 3100SOL     OW 9865   2.423   0.222   1.147
 3100SOL    HW1 9866   2.461   0.138   1.184
 3100SOL    HW2 9867   2.335   0.241   1.191
 3101SOL     OW 9868   2.728   0.454   0.642
 3101SOL    HW1 9869   2.696   0.526   0.580
 3101SOL    HW2 9870   2.752   0.373   0.589
 3102SOL     OW 9871   2.879   0.039   0.753
 3102SOL    HW1 9872   2.807   0.044   0.684
 3102SOL    HW2 9873   2.855  -0.030   0.822
 3103SOL     OW 9874   3.291   1.173   0.867
 3103SOL    HW1 9875   3.236   1.089   0.860
 3103SOL    HW2 9876   3.317   1.202   0.775
 3104SOL     OW 9877   3.328   0.590   0.992
 3104SOL    HW1 9878   3.298   0.495   0.999
 3104SOL    HW2 9879   3.401   0.606   1.058
 3105SOL     OW 9880   3.719   0.833   0.377
 3105SOL    HW1 9881   3.761   0.769   0.441
 3105SOL    HW2 9882   3.681   0.782   0.299
 3106SOL     OW 9883   2.350   1.385   0.174
 3106SOL    HW1 9884   2.263   1.370   0.221
 3106SOL    HW2 9885   2.333   1.411   0.079
 3107SOL     OW 9886   3.526   1.280   0.657
 3107SOL    HW1 9887   3.625   1.288   0.671
 3107SOL    HW2 9888   3.481   1.364   0.688
 3108SOL     OW 9889   3.252   0.575   0.078
 3108SOL    HW1 9890   3.198   0.554   0.159
 3108SOL    HW2 9891   3.343   0.534   0.087
 3109SOL     OW 9892   2.389   0.256   0.328
 3109SOL    HW1 9893   2.416   0.197   0.253
 3109SOL    HW2 9894   2.389   0.351   0.297
 3110SOL     OW 9895   3.616   1.223   1.588
 3110SOL    HW1 9896   3.707   1.184   1.575
 3110SOL    HW2 9897   3.624   1.319   1.612
 3111SOL     OW 9898   2.926   1.347   1.340
 3111SOL    HW1 9899   2.846   1.324   1.395
 3111SOL    HW2 9900   3.009   1.321   1.389
 3112SOL     OW 9901   3.454   1.629   1.625
 3112SOL    HW1 9902   3.481   1.663   1.535
 3112SOL    HW2 9903   3.533   1.591   1.671
 3113SOL     OW 9904   2.973   1.195   1.100
 3113SOL    HW1 9905   2.933   1.239   1.181
 3113SOL    HW2 9906   2.932   1.232   1.017
 3114SOL     OW 9907   3.500   1.099   1.079
 3114SOL    HW1 9908   3.505   1.180   1.138
 3114SOL    HW2 9909   3.414   1.101   1.028
 3115SOL     OW 9910   2.777   0.089   1.402
 3115SOL    HW1 9911   2.802   0.069   1.307
 3115SOL    HW2 9912   2.849   0.145   1.444
 3116SOL     OW 9913   2.842   1.116   1.719
 3116SOL    HW1 9914   2.743   1.122   1.729
 3116SOL    HW2 9915   2.865   1.036   1.663
 3117SOL     OW 9916   2.567   1.050   0.368
 3117SOL    HW1 9917   2.553   1.057   0.467
 3117SOL    HW2 9918   2.651   0.999   0.350
 3118SOL     OW 9919   2.272   0.813   1.251
 3118SOL    HW1 9920   2.358   0.825   1.301
 3118SOL    HW2 9921   2.230   0.726   1.278
 3119SOL     OW 9922   3.136   0.386   1.262
 3119SOL    HW1 9923   3.157   0.460   1.326
 3119SOL    HW2 9924   3.047   0.403   1.219
 3120SOL     OW 9925   1.926   1.564   1.331
 3120SOL    HW1 9926   1.880   1.646   1.297
 3120SOL    HW2 9927   2.024   1.583   1.340
 3121SOL     OW 9928   2.229   1.100   0.501
 3121SOL    HW1 9929   2.222   1.183   0.445
 3121SOL    HW2 9930   2.233   1.020   0.441
 3122SOL     OW 9931   2.428   0.537   0.865
 3122SOL    HW1 9932   2.440   0.603   0.791
 3122SOL    HW2 9933   2.474   0.571   0.948
 3123SOL     OW 9934   3.114   1.348   0.388
 3123SOL    HW1 9935   3.164   1.425   0.428
 3123SOL    HW2 9936   3.019   1.350   0.420
 3124SOL     OW 9937   3.134   1.445   1.142
 3124SOL    HW1 9938   3.181   1.458   1.229
 3124SOL    HW2 9939   3.068   1.371   1.151
 3125SOL     OW 9940   3.444   0.639   0.472
 3125SOL    HW1 9941   3.413   0.700   0.545
 3125SOL    HW2 9942   3.494   0.691   0.403
 3126SOL     OW 9943   2.216   1.510   1.329
 3126SOL    HW1 9944   2.195   1.466   1.242
 3126SOL    HW2 9945   2.313   1.536   1.332
 3127SOL     OW 9946   2.264   0.751   1.598
 3127SOL    HW1 9947   2.332   0.806   1.551
 3127SOL    HW2 9948   2.304   0.663   1.625
 3128SOL     OW 9949   3.449   0.779   1.670
 3128SOL    HW1 9950   3.357   0.817   1.665
 3128SOL    HW2 9951   3.509   0.826   1.605
 3129SOL     OW 9952   2.875   0.105   1.770
 3129SOL    HW1 9953   2.881   0.190   1.718
 3129SOL    HW2 9954   2.907   0.029   1.713
 3130SOL     OW 9955   2.366   0.050   1.740
 3130SOL    HW1 9956   2.324  -0.007   1.670
 3130SOL    HW2 9957   2.300   0.119   1.772
 3131SOL     OW 9958   2.435   0.870   1.029
 3131SOL    HW1 9959   2.479   0.959   1.020
 3131SOL    HW2 9960   2.372   0.870   1.106
 3132SOL     OW 9961   3.222   0.862   1.045
 3132SOL    HW1 9962   3.147   0.862   0.979
 3132SOL    HW2 9963   3.259   0.770   1.054
 3133SOL     OW 9964   3.071   0.525   0.275
 3133SOL    HW1 9965   3.084   0.441   0.329
 3133SOL    HW2 9966   3.042   0.599   0.335
 3134SOL     OW 9967   2.169   0.213   1.231
 3134SOL    HW1 9968   2.146   0.250   1.321
 3134SOL    HW2 9969   2.139   0.118   1.225
 3135SOL     OW 9970   1.899   1.310   1.282
 3135SOL    HW1 9971   1.952   1.261   1.350
 3135SOL    HW2 9972   1.921   1.408   1.287
 3136SOL     OW 9973   2.594   0.634   1.064
 3136SOL    HW1 9974   2.653   0.608   0.988
 3136SOL    HW2 9975   2.566   0.730   1.053
 3137SOL     OW 9976   3.590   0.935   1.854
 3137SOL    HW1 9977   3.544   0.928   1.765
 3137SOL    HW2 9978   3.528   0.979   1.920
 3138SOL     OW 9979   2.169   0.063   0.618
 3138SOL    HW1 9980   2.158   0.157   0.651
 3138SOL    HW2 9981   2.164   0.000   0.695
 3139SOL     OW 9982   3.484   0.367   0.374
 3139SOL    HW1 9983   3.486   0.291   0.438
 3139SOL    HW2 9984   3.436   0.444   0.414
 3140SOL     OW 9985   2.885   0.766   0.966
 3140SOL    HW1 9986   2.900   0.787   1.062
 3140SOL    HW2 9987   2.855   0.671   0.957
 3141SOL     OW 9988   2.842   1.573   1.700
 3141SOL    HW1 9989   2.822   1.617   1.612
 3141SOL    HW2 9990   2.881   1.482   1.684
 3142SOL     OW 9991   3.721   1.518   1.605
 3142SOL    HW1 9992   3.735   1.545   1.510
 3142SOL    HW2 9993   3.804   1.540   1.658
 3143SOL     OW 9994   2.212   0.898   1.804
 3143SOL    HW1 9995   2.288   0.942   1.852
 3143SOL    HW2 9996   2.247   0.851   1.722
 3144SOL     OW 9997   3.402   0.274   0.125
 3144SOL    HW1 9998   3.341   0.199   0.148
 3144SOL    HW2 9999   3.424   0.326   0.208
 3145SOL     OW10000   3.165   0.838   0.042
 3145SOL    HW110001   3.199   0.745   0.057
 3145SOL    HW210002   3.183   0.865  -0.053
 3146SOL     OW10003   2.930   1.333   0.849
 3146SOL    HW110004   2.937   1.249   0.794
 3146SOL    HW210005   2.992   1.402   0.813
 3147SOL     OW10006   2.181   0.810   0.949
 3147SOL    HW110007   2.274   0.846   0.954
 3147SOL    HW210008   2.175   0.725   1.001
 3148SOL     OW10009   2.201   0.509   1.006
 3148SOL    HW110010   2.149   0.426   0.989
 3148SOL    HW210011   2.278   0.514   0.942
 3149SOL     OW10012   3.000   0.380   1.678
 3149SOL    HW110013   2.955   0.443   1.742
 3149SOL    HW210014   3.093   0.411   1.661
 3150SOL     OW10015   3.022   0.207   1.477
 3150SOL    HW110016   3.022   0.271   1.554
 3150SOL    HW210017   3.050   0.255   1.394
 3151SOL     OW10018   1.870   1.326   0.200
 3151SOL    HW110019   1.777   1.347   0.169
 3151SOL    HW210020   1.880   1.227   0.213
 3152SOL     OW10021   1.950   1.801   0.927
 3152SOL    HW110022   1.908   1.715   0.900
 3152SOL    HW210023   2.044   1.804   0.893
 3153SOL     OW10024   2.366   1.568   0.910
 3153SOL    HW110025   2.432   1.642   0.919
 3153SOL    HW210026   2.410   1.489   0.868
 3154SOL     OW10027   2.864   0.796   1.238
 3154SOL    HW110028   2.905   0.764   1.324
 3154SOL    HW210029   2.768   0.769   1.235
 3155SOL     OW10030   1.902   0.544   1.114
 3155SOL    HW110031   1.987   0.511   1.073
 3155SOL    HW210032   1.915   0.559   1.212
 3156SOL     OW10033   2.051   0.520   1.722
 3156SOL    HW110034   2.110   0.480   1.652
 3156SOL    HW210035   1.993   0.591   1.681
 3157SOL     OW10036   3.231   0.950   1.660
 3157SOL    HW110037   3.270   1.039   1.680
 3157SOL    HW210038   3.241   0.930   1.563
 3158SOL     OW10039   2.677   0.572   0.325
 3158SOL    HW110040   2.684   0.483   0.279
 3158SOL    HW210041   2.583   0.606   0.317
 3159SOL     OW10042   3.519   0.604   1.206
 3159SOL    HW110043   3.481   0.535   1.268
 3159SOL    HW210044   3.601   0.568   1.162
 3160SOL     OW10045   2.114   1.564   1.744
 3160SOL    HW110046   2.084   1.621   1.820
 3160SOL    HW210047   2.107   1.467   1.770
 3161SOL     OW10048   2.533   0.464   1.269
 3161SOL    HW110049   2.499   0.375   1.239
 3161SOL    HW210050   2.559   0.518   1.189
 3162SOL     OW10051   2.792   1.678   1.465
 3162SOL    HW110052   2.768   1.660   1.370
 3162SOL    HW210053   2.822   1.772   1.475
 3163SOL     OW10054   2.335   0.500   0.191
 3163SOL    HW110055   2.396   0.580   0.195
 3163SOL    HW210056   2.240   0.531   0.198
 3164SOL     OW10057   2.021   1.137   1.466
 3164SOL    HW110058   2.043   1.076   1.542
 3164SOL    HW210059   2.031   1.088   1.380
 3165SOL     OW10060   3.209   1.059   1.234
 3165SOL    HW110061   3.233   0.996   1.160
 3165SOL    HW210062   3.119   1.099   1.216
 3166SOL     OW10063   3.164   0.855   0.309
 3166SOL    HW110064   3.078   0.824   0.351
 3166SOL    HW210065   3.160   0.841   0.210
 3167SOL     OW10066   3.621   1.747   1.154
 3167SOL    HW110067   3.682   1.777   1.081
 3167SOL    HW210068   3.583   1.658   1.132
 3168SOL     OW10069   3.114   1.731   1.128
 3168SOL    HW110070   3.198   1.736   1.074
 3168SOL    HW210071   3.091   1.635   1.146
 3169SOL     OW10072   1.945   1.258   1.022
 3169SOL    HW110073   1.940   1.257   1.122
 3169SOL    HW210074   1.862   1.217   0.984
 3170SOL     OW10075   2.550   1.662   1.716
 3170SOL    HW110076   2.494   1.743   1.725
 3170SOL    HW210077   2.602   1.666   1.630
 3171SOL     OW10078   2.765   0.086   0.133
 3171SOL    HW110079   2.816   0.087   0.047
 3171SOL    HW210080   2.821   0.044   0.204
 3172SOL     OW10081   3.588   0.135   0.523
 3172SOL    HW110082   3.661   0.118   0.456
 3172SOL    HW210083   3.557   0.048   0.561
 3173SOL     OW10084   3.250   1.573   0.477
 3173SOL    HW110085   3.317   1.585   0.403
 3173SOL    HW210086   3.210   1.662   0.500
 3174SOL     OW10087   1.992   1.794   1.851
 3174SOL    HW110088   1.951   1.720   1.904
 3174SOL    HW210089   2.056   1.845   1.909
 3175SOL     OW10090   3.142   0.927   0.672
 3175SOL    HW110091   3.202   0.846   0.674
 3175SOL    HW210092   3.182   0.996   0.612
 3176SOL     OW10093   2.692   1.273   1.422
 3176SOL    HW110094   2.687   1.306   1.517
 3176SOL    HW210095   2.606   1.292   1.376
 3177SOL     OW10096   2.534   1.616   0.154
 3177SOL    HW110097   2.543   1.626   0.055
 3177SOL    HW210098   2.494   1.527   0.175
 3178SOL     OW10099   3.512   1.720   1.394
 3178SOL    HW110100   3.565   1.730   1.310
 3178SOL    HW210101   3.485   1.810   1.428
 3179SOL     OW10102   3.703   0.175   0.963
 3179SOL    HW110103   3.742   0.090   0.927
 3179SOL    HW210104   3.605   0.177   0.944
 3180SOL     OW10105   2.125   0.326   0.720
 3180SOL    HW110106   2.046   0.377   0.686
 3180SOL    HW210107   2.116   0.311   0.818
 3181SOL     OW10108   3.056   1.612   0.031
 3181SOL    HW110109   3.062   1.519   0.068
 3181SOL    HW210110   2.997   1.612  -0.049
 3182SOL     OW10111   2.684   1.002   1.372
 3182SOL    HW110112   2.724   1.001   1.280
 3182SOL    HW210113   2.694   1.094   1.412
 3183SOL     OW10114   2.778   0.910   0.291
 3183SOL    HW110115   2.841   0.948   0.223
 3183SOL    HW210116   2.818   0.827   0.330
 3184SOL     OW10117   3.366   1.607   0.044
 3184SOL    HW110118   3.274   1.644   0.051
 3184SOL    HW210119   3.404   1.627  -0.046
 3185SOL     OW10120   2.234   1.288   1.490
 3185SOL    HW110121   2.221   1.381   1.456
 3185SOL    HW210122   2.150   1.236   1.477
 3186SOL     OW10123   3.476   1.292   1.289
 3186SOL    HW110124   3.536   1.295   1.369
 3186SOL    HW210125   3.401   1.356   1.302
 3187SOL     OW10126   2.901   1.098   0.696
 3187SOL    HW110127   2.831   1.051   0.750
 3187SOL    HW210128   2.960   1.030   0.653
 3188SOL     OW10129   2.876   0.236   0.971
 3188SOL    HW110130   2.868   0.200   0.878
 3188SOL    HW210131   2.874   0.160   1.036
 3189SOL     OW10132   2.452   1.487   0.491
 3189SOL    HW110133   2.494   1.429   0.421
 3189SOL    HW210134   2.408   1.566   0.447
 3190SOL     OW10135   3.571   0.385   1.381
 3190SOL    HW110136   3.644   0.454   1.385
 3190SOL    HW210137   3.599   0.310   1.322
 3191SOL     OW10138   2.117   1.348   0.290
 3191SOL    HW110139   2.021   1.349   0.263
 3191SOL    HW210140   2.129   1.401   0.374
 3192SOL     OW10141   1.967   1.013   1.726
 3192SOL    HW110142   1.890   0.980   1.780
 3192SOL    HW210143   2.052   0.983   1.768
 3193SOL     OW10144   2.534   0.203   1.489
 3193SOL    HW110145   2.624   0.187   1.449
 3193SOL    HW210146   2.542   0.208   1.588
 3194SOL     OW10147   1.937   0.345   0.033
 3194SOL    HW110148   1.845   0.317   0.004
 3194SOL    HW210149   1.968   0.422  -0.023
 3195SOL     OW10150   3.302   0.856   1.398
 3195SOL    HW110151   3.245   0.908   1.335
 3195SOL    HW210152   3.398   0.868   1.374
 3196SOL     OW10153   1.934   0.166   0.318
 3196SOL    HW110154   1.917   0.249   0.264
 3196SOL    HW210155   2.024   0.129   0.296
 3197SOL     OW10156   3.045   1.335   0.119
 3197SOL    HW110157   2.946   1.324   0.121
 3197SOL    HW210158   3.079   1.350   0.212
 3198SOL     OW10159   2.475   0.842   1.431
 3198SOL    HW110160   2.531   0.923   1.414
 3198SOL    HW210161   2.534   0.762   1.434
 3199SOL     OW10162   3.355   1.767   0.959
 3199SOL    HW110163   3.388   1.831   0.890
 3199SOL    HW210164   3.421   1.761   1.034
 3200SOL     OW10165   2.578   0.565   1.708
 3200SOL    HW110166   2.597   0.630   1.782
 3200SOL    HW210167   2.638   0.485   1.717
 3201SOL     OW10168   3.312   1.220   1.633
 3201SOL    HW110169   3.303   1.210   1.732
 3201SOL    HW210170   3.408   1.213   1.607
 3202SOL     OW10171   2.252   1.741   1.560
 3202SOL    HW110172   2.161   1.782   1.558
 3202SOL    HW210173   2.245   1.647   1.592
 3203SOL     OW10174   3.536   0.883   1.254
 3203SOL    HW110175   3.509   0.794   1.217
 3203SOL    HW210176   3.537   0.951   1.181
 3204SOL     OW10177   3.087   0.325   0.449
 3204SOL    HW110178   3.152   0.251   0.438
 3204SOL    HW210179   3.107   0.375   0.533
 3205SOL     OW10180   2.456   0.745   0.652
 3205SOL    HW110181   2.506   0.830   0.633
 3205SOL    HW210182   2.368   0.747   0.604
 3206SOL     OW10183   3.639   0.342   1.642
 3206SOL    HW110184   3.622   0.373   1.548
 3206SOL    HW210185   3.555   0.305   1.680
 3207SOL     OW10186   3.592   0.934   1.517
 3207SOL    HW110187   3.630   1.025   1.532
 3207SOL    HW210188   3.584   0.917   1.418
 3208SOL     OW10189   2.721   1.374   0.016
 3208SOL    HW110190   2.675   1.389   0.104
 3208SOL    HW210191   2.765   1.459  -0.014
 3209SOL     OW10192   2.523   1.790   0.953
 3209SOL    HW110193   2.477   1.878   0.940
 3209SOL    HW210194   2.622   1.802   0.946
 3210SOL     OW10195   2.721   0.956   0.861
 3210SOL    HW110196   2.775   0.887   0.909
 3210SOL    HW210197   2.689   1.025   0.927
 3211SOL     OW10198   2.945   0.984   0.087
 3211SOL    HW110199   2.922   1.037   0.005
 3211SOL    HW210200   3.026   0.928   0.068
 3212SOL     OW10201   3.723   1.569   0.851
 3212SOL    HW110202   3.652   1.557   0.781
 3212SOL    HW210203   3.724   1.490   0.911
 3213SOL     OW10204   2.083   1.314   1.844
 3213SOL    HW110205   2.018   1.241   1.823
 3213SOL    HW210206   2.087   1.328   1.942
 3214SOL     OW10207   1.941   1.240   0.653
 3214SOL    HW110208   1.940   1.193   0.741
 3214SOL    HW210209   2.023   1.212   0.602
 3215SOL     OW10210   2.534   1.391   1.624
 3215SOL    HW110211   2.456   1.341   1.662
 3215SOL    HW210212   2.531   1.486   1.655
 3216SOL     OW10213   3.686   0.192   1.227
 3216SOL    HW110214   3.682   0.102   1.271
 3216SOL    HW210215   3.689   0.181   1.128
 3217SOL     OW10216   2.290   0.424   0.520
 3217SOL    HW110217   2.320   0.352   0.458
 3217SOL    HW210218   2.251   0.384   0.603
 3218SOL     OW10219   3.567   1.487   1.104
 3218SOL    HW110220   3.474   1.462   1.077
 3218SOL    HW210221   3.593   1.437   1.186
 3219SOL     OW10222   2.179   0.547   1.280
 3219SOL    HW110223   2.217   0.488   1.352
 3219SOL    HW210224   2.219   0.521   1.192
 3220SOL     OW10225   2.674   1.586   0.687
 3220SOL    HW110226   2.706   1.596   0.593
 3220SOL    HW210227   2.595   1.524   0.689
 3221SOL     OW10228   3.286   0.214   1.112
 3221SOL    HW110229   3.338   0.149   1.167
 3221SOL    HW210230   3.237   0.277   1.173
 3222SOL     OW10231   2.863   0.034   1.154
 3222SOL    HW110232   2.800  -0.038   1.123
 3222SOL    HW210233   2.956  -0.002   1.154
 3223SOL     OW10234   2.632   1.330   0.301
 3223SOL    HW110235   2.586   1.243   0.318
 3223SOL    HW210236   2.723   1.327   0.342
 3224SOL     OW10237   2.480   1.567   1.284
 3224SOL    HW110238   2.475   1.649   1.341
 3224SOL    HW210239   2.569   1.564   1.239
 3225SOL     OW10240   3.214   0.052   0.168
 3225SOL    HW110241   3.249   0.011   0.084
 3225SOL    HW210242   3.124   0.014   0.188
 3226SOL     OW10243   3.162   0.453   0.691
 3226SOL    HW110244   3.103   0.533   0.695
 3226SOL    HW210245   3.177   0.418   0.784
 3227SOL     OW10246   3.455   0.221   0.882
 3227SOL    HW110247   3.371   0.220   0.936
 3227SOL    HW210248   3.457   0.304   0.826
 3228SOL     OW10249   1.901   1.077   0.300
 3228SOL    HW110250   2.000   1.066   0.291
 3228SOL    HW210251   1.861   0.991   0.332
 3229SOL     OW10252   2.737   1.646   0.337
 3229SOL    HW110253   2.660   1.611   0.283
 3229SOL    HW210254   2.705   1.717   0.399
 3230SOL     OW10255   2.092   0.628   1.975
 3230SOL    HW110256   1.999   0.626   2.012
 3230SOL    HW210257   2.093   0.589   1.883
 3231SOL     OW10258   2.087   0.275   2.858
 3231SOL    HW110259   2.122   0.258   2.950
 3231SOL    HW210260   1.999   0.230   2.846
 3232SOL     OW10261   1.881   0.368   2.509
 3232SOL    HW110262   1.799   0.411   2.548
 3232SOL    HW210263   1.853   0.295   2.446
 3233SOL     OW10264   2.431   1.275   3.027
 3233SOL    HW110265   2.338   1.268   2.990
 3233SOL    HW210266   2.442   1.364   3.071
 3234SOL     OW10267   3.417   1.511   2.565
 3234SOL    HW110268   3.360   1.495   2.646
 3234SOL    HW210269   3.358   1.521   2.485
 3235SOL     OW10270   2.997   0.703   2.579
 3235SOL    HW110271   3.054   0.781   2.554
 3235SOL    HW210272   2.937   0.729   2.655
 3236SOL     OW10273   3.617   0.607   2.093
 3236SOL    HW110274   3.605   0.594   1.994
 3236SOL    HW210275   3.587   0.526   2.142
 3237SOL     OW10276   2.630   1.144   2.885
 3237SOL    HW110277   2.552   1.161   2.945
 3237SOL    HW210278   2.664   1.231   2.849
 3238SOL     OW10279   2.712   0.798   3.685
 3238SOL    HW110280   2.708   0.874   3.750
 3238SOL    HW210281   2.734   0.834   3.594
 3239SOL     OW10282   2.547   1.012   2.527
 3239SOL    HW110283   2.616   0.996   2.597
 3239SOL    HW210284   2.474   1.069   2.565
 3240SOL     OW10285   2.548   1.161   3.665
 3240SOL    HW110286   2.608   1.240   3.679
 3240SOL    HW210287   2.462   1.192   3.624
 3241SOL     OW10288   2.197   1.435   2.923
 3241SOL    HW110289   2.119   1.404   2.870
 3241SOL    HW210290   2.255   1.493   2.866
 3242SOL     OW10291   3.322   1.505   3.201
 3242SOL    HW110292   3.346   1.599   3.227
 3242SOL    HW210293   3.306   1.451   3.283
 3243SOL     OW10294   2.300   0.392   3.361
 3243SOL    HW110295   2.382   0.336   3.370
 3243SOL    HW210296   2.219   0.334   3.365
 3244SOL     OW10297   3.465   0.447   2.599
 3244SOL    HW110298   3.391   0.493   2.549
 3244SOL    HW210299   3.516   0.515   2.652
 3245SOL     OW10300   2.093   1.713   2.345
 3245SOL    HW110301   2.127   1.790   2.399
 3245SOL    HW210302   2.137   1.713   2.255
 3246SOL     OW10303   2.989   1.341   3.552
 3246SOL    HW110304   3.036   1.341   3.640
 3246SOL    HW210305   2.941   1.254   3.541
 3247SOL     OW10306   2.092   1.434   2.400
 3247SOL    HW110307   2.066   1.530   2.400
 3247SOL    HW210308   2.021   1.380   2.445
 3248SOL     OW10309   2.102   1.091   2.748
 3248SOL    HW110310   2.116   1.007   2.800
 3248SOL    HW210311   2.047   1.155   2.803
 3249SOL     OW10312   2.482   1.786   3.301
 3249SOL    HW110313   2.390   1.769   3.336
 3249SOL    HW210314   2.510   1.878   3.327
 3250SOL     OW10315   2.468   0.964   1.985
 3250SOL    HW110316   2.475   1.048   1.931
 3250SOL    HW210317   2.514   0.977   2.073
 3251SOL     OW10318   3.456   0.114   3.342
 3251SOL    HW110319   3.438   0.181   3.270
 3251SOL    HW210320   3.453   0.160   3.431
 3252SOL     OW10321   1.984   0.643   2.425
 3252SOL    HW110322   1.939   0.555   2.442
 3252SOL    HW210323   1.983   0.697   2.509
 3253SOL     OW10324   3.704   1.767   2.221
 3253SOL    HW110325   3.758   1.738   2.301
 3253SOL    HW210326   3.734   1.857   2.192
 3254SOL     OW10327   1.889   1.596   1.979
 3254SOL    HW110328   1.870   1.500   2.000
 3254SOL    HW210329   1.856   1.654   2.054
 3255SOL     OW10330   3.551   0.922   2.474
 3255SOL    HW110331   3.646   0.893   2.482
 3255SOL    HW210332   3.543   0.987   2.399
 3256SOL     OW10333   3.503   1.108   2.294
 3256SOL    HW110334   3.589   1.110   2.242
 3256SOL    HW210335   3.517   1.155   2.382
 3257SOL     OW10336   1.975   0.737   3.459
 3257SOL    HW110337   2.063   0.724   3.504
 3257SOL    HW210338   1.962   0.834   3.437
 3258SOL     OW10339   2.475   1.365   2.588
 3258SOL    HW110340   2.426   1.278   2.597
 3258SOL    HW210341   2.452   1.408   2.501
 3259SOL     OW10342   3.155   1.228   3.285
 3259SOL    HW110343   3.192   1.155   3.227
 3259SOL    HW210344   3.207   1.233   3.370
 3260SOL     OW10345   2.671   0.004   2.364
 3260SOL    HW110346   2.711   0.095   2.355
 3260SOL    HW210347   2.571   0.012   2.370
 3261SOL     OW10348   2.059   0.976   3.126
 3261SOL    HW110349   2.148   0.931   3.112
 3261SOL    HW210350   1.986   0.911   3.107
 3262SOL     OW10351   3.387   0.999   2.052
 3262SOL    HW110352   3.324   0.923   2.065
 3262SOL    HW210353   3.435   1.017   2.138
 3263SOL     OW10354   3.049   1.792   3.478
 3263SOL    HW110355   3.073   1.852   3.402
 3263SOL    HW210356   3.056   1.697   3.448
 3264SOL     OW10357   2.179   0.251   3.663
 3264SOL    HW110358   2.250   0.322   3.669
 3264SOL    HW210359   2.091   0.290   3.691
 3265SOL     OW10360   3.328   1.417   2.815
 3265SOL    HW110361   3.269   1.423   2.895
 3265SOL    HW210362   3.313   1.329   2.769
 3266SOL     OW10363   3.529   1.714   2.434
 3266SOL    HW110364   3.488   1.691   2.346
 3266SOL    HW210365   3.511   1.640   2.499
 3267SOL     OW10366   2.460   0.729   2.132
 3267SOL    HW110367   2.484   0.798   2.064
 3267SOL    HW210368   2.382   0.762   2.186
 3268SOL     OW10369   3.143   0.345   2.806
 3268SOL    HW110370   3.057   0.295   2.793
 3268SOL    HW210371   3.205   0.291   2.862
 3269SOL     OW10372   3.438   1.662   2.169
 3269SOL    HW110373   3.527   1.708   2.172
 3269SOL    HW210374   3.417   1.638   2.074
 3270SOL     OW10375   2.669   0.605   3.327
 3270SOL    HW110376   2.622   0.602   3.416
 3270SOL    HW210377   2.618   0.550   3.261
 3271SOL     OW10378   3.256   0.469   3.536
 3271SOL    HW110379   3.236   0.512   3.624
 3271SOL    HW210380   3.334   0.407   3.545
 3272SOL     OW10381   2.835   0.890   3.434
 3272SOL    HW110382   2.881   0.806   3.405
 3272SOL    HW210383   2.779   0.924   3.359
 3273SOL     OW10384   2.853   0.410   3.104
 3273SOL    HW110385   2.776   0.444   3.158
 3273SOL    HW210386   2.819   0.359   3.025
 3274SOL     OW10387   2.903   0.701   2.291
 3274SOL    HW110388   2.929   0.697   2.387
 3274SOL    HW210389   2.818   0.650   2.277
 3275SOL     OW10390   1.938   0.811   2.651
 3275SOL    HW110391   2.037   0.799   2.660
 3275SOL    HW210392   1.914   0.906   2.672
 3276SOL     OW10393   1.992   1.821   3.433
 3276SOL    HW110394   1.982   1.806   3.532
 3276SOL    HW210395   1.906   1.857   3.397
 3277SOL     OW10396   2.727   0.348   2.057
 3277SOL    HW110397   2.786   0.411   2.008
 3277SOL    HW210398   2.746   0.254   2.028
 3278SOL     OW10399   3.581   0.585   3.693
 3278SOL    HW110400   3.555   0.674   3.657
 3278SOL    HW210401   3.579   0.517   3.620
 3279SOL     OW10402   3.224   1.144   2.407
 3279SOL    HW110403   3.307   1.115   2.359
 3279SOL    HW210404   3.175   1.211   2.351
 3280SOL     OW10405   2.412   0.196   2.747
 3280SOL    HW110406   2.407   0.191   2.847
 3280SOL    HW210407   2.414   0.292   2.718
 3281SOL     OW10408   2.870   1.456   2.339
 3281SOL    HW110409   2.824   1.528   2.287
 3281SOL    HW210410   2.866   1.476   2.437
 3282SOL     OW10411   2.213   1.801   2.715
 3282SOL    HW110412   2.263   1.715   2.721
 3282SOL    HW210413   2.278   1.878   2.712
 3283SOL     OW10414   3.657   1.066   2.735
 3283SOL    HW110415   3.595   1.051   2.659
 3283SOL    HW210416   3.605   1.077   2.820
 3284SOL     OW10417   3.089   1.550   3.368
 3284SOL    HW110418   3.095   1.473   3.432
 3284SOL    HW210419   3.037   1.524   3.288
 3285SOL     OW10420   2.183   0.943   2.104
 3285SOL    HW110421   2.265   0.982   2.062
 3285SOL    HW210422   2.156   0.861   2.055
 3286SOL     OW10423   3.320   0.735   2.590
 3286SOL    HW110424   3.315   0.670   2.665
 3286SOL    HW210425   3.400   0.794   2.603
 3287SOL     OW10426   2.323   1.266   3.589
 3287SOL    HW110427   2.273   1.267   3.503
 3287SOL    HW210428   2.260   1.248   3.665
 3288SOL     OW10429   2.973   1.776   2.099
 3288SOL    HW110430   2.913   1.714   2.149
 3288SOL    HW210431   3.004   1.732   2.014
 3289SOL     OW10432   2.064   0.285   3.360
 3289SOL    HW110433   1.984   0.345   3.347
 3289SOL    HW210434   2.054   0.236   3.446
 3290SOL     OW10435   3.494   1.377   1.943
 3290SOL    HW110436   3.462   1.471   1.933
 3290SOL    HW210437   3.418   1.314   1.931
 3291SOL     OW10438   2.326   1.743   2.185
 3291SOL    HW110439   2.359   1.782   2.271
 3291SOL    HW210440   2.402   1.736   2.120
 3292SOL     OW10441   3.262   0.107   2.288
 3292SOL    HW110442   3.238   0.070   2.198
 3292SOL    HW210443   3.361   0.123   2.292
 3293SOL     OW10444   2.111   1.785   3.103
 3293SOL    HW110445   2.168   1.720   3.153
 3293SOL    HW210446   2.095   1.752   3.010
 3294SOL     OW10447   2.802   1.698   2.766
 3294SOL    HW110448   2.882   1.641   2.787
 3294SOL    HW210449   2.753   1.658   2.689
 3295SOL     OW10450   2.244   0.700   2.342
 3295SOL    HW110451   2.289   0.610   2.339
 3295SOL    HW210452   2.150   0.689   2.375
 3296SOL     OW10453   3.409   0.222   3.591
 3296SOL    HW110454   3.404   0.259   3.683
 3296SOL    HW210455   3.337   0.153   3.579
 3297SOL     OW10456   2.476   0.122   1.979
 3297SOL    HW110457   2.574   0.100   1.986
 3297SOL    HW210458   2.445   0.105   1.886
 3298SOL     OW10459   2.643   0.264   3.611
 3298SOL    HW110460   2.710   0.203   3.654
 3298SOL    HW210461   2.570   0.283   3.676
 3299SOL     OW10462   2.750   1.514   3.057
 3299SOL    HW110463   2.727   1.489   2.963
 3299SOL    HW210464   2.811   1.445   3.096
 3300SOL     OW10465   3.213   0.590   3.295
 3300SOL    HW110466   3.241   0.547   3.380
 3300SOL    HW210467   3.238   0.686   3.296
 3301SOL     OW10468   2.665   1.402   2.786
 3301SOL    HW110469   2.755   1.416   2.744
 3301SOL    HW210470   2.594   1.404   2.715
 3302SOL     OW10471   2.784   0.503   2.761
 3302SOL    HW110472   2.759   0.494   2.665
 3302SOL    HW210473   2.832   0.421   2.792
 3303SOL     OW10474   2.401   0.064   2.374
 3303SOL    HW110475   2.320   0.065   2.432
 3303SOL    HW210476   2.404   0.147   2.319
 3304SOL     OW10477   3.296   1.188   1.903
 3304SOL    HW110478   3.328   1.112   1.960
 3304SOL    HW210479   3.204   1.215   1.933
 3305SOL     OW10480   2.159   0.035   2.033
 3305SOL    HW110481   2.208   0.119   2.012
 3305SOL    HW210482   2.221  -0.030   2.078
 3306SOL     OW10483   2.797   0.236   2.342
 3306SOL    HW110484   2.749   0.277   2.264
 3306SOL    HW210485   2.896   0.234   2.323
 3307SOL     OW10486   2.938   0.683   3.326
 3307SOL    HW110487   2.858   0.622   3.329
 3307SOL    HW210488   3.019   0.630   3.302
 3308SOL     OW10489   3.089   1.570   2.655
 3308SOL    HW110490   3.110   1.644   2.590
 3308SOL    HW210491   3.157   1.570   2.728
 3309SOL     OW10492   2.321   1.152   2.603
 3309SOL    HW110493   2.250   1.125   2.668
 3309SOL    HW210494   2.295   1.124   2.510
 3310SOL     OW10495   3.133   1.797   2.453
 3310SOL    HW110496   3.177   1.861   2.389
 3310SOL    HW210497   3.083   1.849   2.523
 3311SOL     OW10498   2.894   0.549   1.878
 3311SOL    HW110499   2.853   0.631   1.839
 3311SOL    HW210500   2.958   0.575   1.951
 3312SOL     OW10501   1.940   0.556   3.248
 3312SOL    HW110502   2.032   0.555   3.207
 3312SOL    HW210503   1.934   0.630   3.315
 3313SOL     OW10504   2.423   0.222   3.009
 3313SOL    HW110505   2.461   0.138   3.046
 3313SOL    HW210506   2.335   0.241   3.053
 3314SOL     OW10507   2.728   0.454   2.504
 3314SOL    HW110508   2.696   0.526   2.442
 3314SOL    HW210509   2.752   0.373   2.451
 3315SOL     OW10510   2.879   0.039   2.615
 3315SOL    HW110511   2.807   0.044   2.546
 3315SOL    HW210512   2.855  -0.030   2.684
 3316SOL     OW10513   3.291   1.173   2.729
 3316SOL    HW110514   3.236   1.089   2.722
 3316SOL    HW210515   3.317   1.202   2.637
 3317SOL     OW10516   3.328   0.590   2.854
 3317SOL    HW110517   3.298   0.495   2.861
 3317SOL    HW210518   3.401   0.606   2.920
 3318SOL     OW10519   3.719   0.833   2.239
 3318SOL    HW110520   3.761   0.769   2.303
 3318SOL    HW210521   3.681   0.782   2.161
 3319SOL     OW10522   2.350   1.385   2.036
 3319SOL    HW110523   2.263   1.370   2.083
 3319SOL    HW210524   2.333   1.411   1.941
 3320SOL     OW10525   3.526   1.280   2.519
 3320SOL    HW110526   3.625   1.288   2.533
 3320SOL    HW210527   3.481   1.364   2.550
 3321SOL     OW10528   3.252   0.575   1.940
 3321SOL    HW110529   3.198   0.554   2.021
 3321SOL    HW210530   3.343   0.534   1.949
 3322SOL     OW10531   2.389   0.256   2.190
 3322SOL    HW110532   2.416   0.197   2.115
 3322SOL    HW210533   2.389   0.351   2.159
 3323SOL     OW10534   3.616   1.223   3.450
 3323SOL    HW110535   3.707   1.184   3.437
 3323SOL    HW210536   3.624   1.319   3.474
 3324SOL     OW10537   2.926   1.347   3.202
 3324SOL    HW110538   2.846   1.324   3.257
 3324SOL    HW210539   3.009   1.321   3.251
 3325SOL     OW10540   3.454   1.629   3.487
 3325SOL    HW110541   3.481   1.663   3.397
 3325SOL    HW210542   3.533   1.591   3.533
 3326SOL     OW10543   2.973   1.195   2.962
 3326SOL    HW110544   2.933   1.239   3.043
 3326SOL    HW210545   2.932   1.232   2.879
 3327SOL     OW10546   3.500   1.099   2.941
 3327SOL    HW110547   3.505   1.180   3.000
 3327SOL    HW210548   3.414   1.101   2.890
 3328SOL     OW10549   2.777   0.089   3.264
 3328SOL    HW110550   2.802   0.069   3.169
 3328SOL    HW210551   2.849   0.145   3.306
 3329SOL     OW10552   2.842   1.116   3.581
 3329SOL    HW110553   2.743   1.122   3.591
 3329SOL    HW210554   2.865   1.036   3.525
 3330SOL     OW10555   2.567   1.050   2.230
 3330SOL    HW110556   2.553   1.057   2.329
 3330SOL    HW210557   2.651   0.999   2.212
 3331SOL     OW10558   2.272   0.813   3.113
 3331SOL    HW110559   2.358   0.825   3.163
 3331SOL    HW210560   2.230   0.726   3.140
 3332SOL     OW10561   3.136   0.386   3.124
 3332SOL    HW110562   3.157   0.460   3.188
 3332SOL    HW210563   3.047   0.403   3.081
 3333SOL     OW10564   1.926   1.564   3.193
 3333SOL    HW110565   1.880   1.646   3.159
 3333SOL    HW210566   2.024   1.583   3.202
 3334SOL     OW10567   2.229   1.100   2.363
 3334SOL    HW110568   2.222   1.183   2.307
 3334SOL    HW210569   2.233   1.020   2.303
 3335SOL     OW10570   2.428   0.537   2.727
 3335SOL    HW110571   2.440   0.603   2.653
 3335SOL    HW210572   2.474   0.571   2.810
 3336SOL     OW10573   3.114   1.348   2.250
 3336SOL    HW110574   3.164   1.425   2.290
 3336SOL    HW210575   3.019   1.350   2.282
 3337SOL     OW10576   3.134   1.445   3.004
 3337SOL    HW110577   3.181   1.458   3.091
 3337SOL    HW210578   3.068   1.371   3.013
 3338SOL     OW10579   3.444   0.639   2.334
 3338SOL    HW110580   3.413   0.700   2.407
 3338SOL    HW210581   3.494   0.691   2.265
 3339SOL     OW10582   2.216   1.510   3.191
 3339SOL    HW110583   2.195   1.466   3.104
 3339SOL    HW210584   2.313   1.536   3.194
 3340SOL     OW10585   2.264   0.751   3.460
 3340SOL    HW110586   2.332   0.806   3.413
 3340SOL    HW210587   2.304   0.663   3.487
 3341SOL     OW10588   3.449   0.779   3.532
 3341SOL    HW110589   3.357   0.817   3.527
 3341SOL    HW210590   3.509   0.826   3.467
 3342SOL     OW10591   2.875   0.105   3.632
 3342SOL    HW110592   2.881   0.190   3.580
 3342SOL    HW210593   2.907   0.029   3.575
 3343SOL     OW10594   2.366   0.050   3.602
 3343SOL    HW110595   2.324  -0.007   3.532
 3343SOL    HW210596   2.300   0.119   3.634
 3344SOL     OW10597   2.435   0.870   2.891
 3344SOL    HW110598   2.479   0.959   2.882
 3344SOL    HW210599   2.372   0.870   2.968
 3345SOL     OW10600   3.222   0.862   2.907
 3345SOL    HW110601   3.147   0.862   2.841
 3345SOL    HW210602   3.259   0.770   2.916
 3346SOL     OW10603   3.071   0.525   2.137
 3346SOL    HW110604   3.084   0.441   2.191
 3346SOL    HW210605   3.042   0.599   2.197
 3347SOL     OW10606   2.169   0.213   3.093
 3347SOL    HW110607   2.146   0.250   3.183
 3347SOL    HW210608   2.139   0.118   3.087
 3348SOL     OW10609   1.899   1.310   3.144
 3348SOL    HW110610   1.952   1.261   3.212
 3348SOL    HW210611   1.921   1.408   3.149
 3349SOL     OW10612   2.594   0.634   2.926
 3349SOL    HW110613   2.653   0.608   2.850
 3349SOL    HW210614   2.566   0.730   2.915
 3350SOL     OW10615   3.590   0.935   3.716
 3350SOL    HW110616   3.544   0.928   3.627
 3350SOL    HW210617   3.528   0.979   3.782
 3351SOL     OW10618   2.169   0.063   2.480
 3351SOL    HW110619   2.158   0.157   2.513
 3351SOL    HW210620   2.164   0.000   2.557
 3352SOL     OW10621   3.484   0.367   2.236
 3352SOL    HW110622   3.486   0.291   2.300
 3352SOL    HW210623   3.436   0.444   2.276
 3353SOL     OW10624   2.885   0.766   2.828
 3353SOL    HW110625   2.900   0.787   2.924
 3353SOL    HW210626   2.855   0.671   2.819
 3354SOL     OW10627   2.842   1.573   3.562
 3354SOL    HW110628   2.822   1.617   3.474
 3354SOL    HW210629   2.881   1.482   3.546
 3355SOL     OW10630   3.721   1.518   3.467
 3355SOL    HW110631   3.735   1.545   3.372
 3355SOL    HW210632   3.804   1.540   3.520
 3356SOL     OW10633   2.212   0.898   3.666
 3356SOL    HW110634   2.288   0.942   3.714
 3356SOL    HW210635   2.247   0.851   3.584
 3357SOL     OW10636   3.402   0.274   1.987
 3357SOL    HW110637   3.341   0.199   2.010
 3357SOL    HW210638   3.424   0.326   2.070
 3358SOL     OW10639   3.165   0.838   1.904
 3358SOL    HW110640   3.199   0.745   1.919
 3358SOL    HW210641   3.183   0.865   1.809
 3359SOL     OW10642   2.930   1.333   2.711
 3359SOL    HW110643   2.937   1.249   2.656
 3359SOL    HW210644   2.992   1.402   2.675
 3360SOL     OW10645   2.181   0.810   2.811
 3360SOL    HW110646   2.274   0.846   2.816
 3360SOL    HW210647   2.175   0.725   2.863
 3361SOL     OW10648   2.201   0.509   2.868
 3361SOL    HW110649   2.149   0.426   2.851
 3361SOL    HW210650   2.278   0.514   2.804
 3362SOL     OW10651   3.000   0.380   3.540
 3362SOL    HW110652   2.955   0.443   3.604
 3362SOL    HW210653   3.093   0.411   3.523
 3363SOL     OW10654   3.022   0.207   3.339
 3363SOL    HW110655   3.022   0.271   3.416
 3363SOL    HW210656   3.050   0.255   3.256
 3364SOL     OW10657   1.870   1.326   2.062
 3364SOL    HW110658   1.777   1.347   2.031
 3364SOL    HW210659   1.880   1.227   2.075
 3365SOL     OW10660   1.950   1.801   2.789
 3365SOL    HW110661   1.908   1.715   2.762
 3365SOL    HW210662   2.044   1.804   2.755
 3366SOL     OW10663   2.366   1.568   2.772
 3366SOL    HW110664   2.432   1.642   2.781
 3366SOL    HW210665   2.410   1.489   2.730
 3367SOL     OW10666   2.864   0.796   3.100
 3367SOL    HW110667   2.905   0.764   3.186
 3367SOL    HW210668   2.768   0.769   3.097
 3368SOL     OW10669   1.902   0.544   2.976
 3368SOL    HW110670   1.987   0.511   2.935
 3368SOL    HW210671   1.915   0.559   3.074
 3369SOL     OW10672   2.051   0.520   3.584
 3369SOL    HW110673   2.110   0.480   3.514
 3369SOL    HW210674   1.993   0.591   3.543
 3370SOL     OW10675   3.231   0.950   3.522
 3370SOL    HW110676   3.270   1.039   3.542
 3370SOL    HW210677   3.241   0.930   3.425
 3371SOL     OW10678   2.677   0.572   2.187
 3371SOL    HW110679   2.684   0.483   2.141
 3371SOL    HW210680   2.583   0.606   2.179
 3372SOL     OW10681   3.519   0.604   3.068
 3372SOL    HW110682   3.481   0.535   3.130
 3372SOL    HW210683   3.601   0.568   3.024
 3373SOL     OW10684   2.114   1.564   3.606
 3373SOL    HW110685   2.084   1.621   3.682
 3373SOL    HW210686   2.107   1.467   3.632
 3374SOL     OW10687   2.533   0.464   3.131
 3374SOL    HW110688   2.499   0.375   3.101
 3374SOL    HW210689   2.559   0.518   3.051
 3375SOL     OW10690   2.792   1.678   3.327
 3375SOL    HW110691   2.768   1.660   3.232
 3375SOL    HW210692   2.822   1.772   3.337
 3376SOL     OW10693   2.335   0.500   2.053
 3376SOL    HW110694   2.396   0.580   2.057
 3376SOL    HW210695   2.240   0.531   2.060
 3377SOL     OW10696   2.021   1.137   3.328
 3377SOL    HW110697   2.043   1.076   3.404
 3377SOL    HW210698   2.031   1.088   3.242
 3378SOL     OW10699   3.209   1.059   3.096
 3378SOL    HW110700   3.233   0.996   3.022
 3378SOL    HW210701   3.119   1.099   3.078
 3379SOL     OW10702   3.164   0.855   2.171
 3379SOL    HW110703   3.078   0.824   2.213
 3379SOL    HW210704   3.160   0.841   2.072
 3380SOL     OW10705   3.621   1.747   3.016
 3380SOL    HW110706   3.682   1.777   2.943
 3380SOL    HW210707   3.583   1.658   2.994
 3381SOL     OW10708   3.114   1.731   2.990
 3381SOL    HW110709   3.198   1.736   2.936
 3381SOL    HW210710   3.091   1.635   3.008
 3382SOL     OW10711   1.945   1.258   2.884
 3382SOL    HW110712   1.940   1.257   2.984
 3382SOL    HW210713   1.862   1.217   2.846
 3383SOL     OW10714   2.550   1.662   3.578
 3383SOL    HW110715   2.494   1.743   3.587
 3383SOL    HW210716   2.602   1.666   3.492
 3384SOL     OW10717   3.588   0.135   2.385
 3384SOL    HW110718   3.661   0.118   2.318
 3384SOL    HW210719   3.557   0.048   2.423
 3385SOL     OW10720   3.250   1.573   2.339
 3385SOL    HW110721   3.317   1.585   2.265
 3385SOL    HW210722   3.210   1.662   2.362
 3386SOL     OW10723   1.992   1.794   3.713
 3386SOL    HW110724   1.951   1.720   3.766
 3386SOL    HW210725   2.056   1.845   3.771
 3387SOL     OW10726   3.142   0.927   2.534
 3387SOL    HW110727   3.202   0.846   2.536
 3387SOL    HW210728   3.182   0.996   2.474
 3388SOL     OW10729   2.692   1.273   3.284
 3388SOL    HW110730   2.687   1.306   3.379
 3388SOL    HW210731   2.606   1.292   3.238
 3389SOL     OW10732   2.534   1.616   2.016
 3389SOL    HW110733   2.543   1.626   1.917
 3389SOL    HW210734   2.494   1.527   2.037
 3390SOL     OW10735   3.512   1.720   3.256
 3390SOL    HW110736   3.565   1.730   3.172
 3390SOL    HW210737   3.485   1.810   3.290
 3391SOL     OW10738   3.703   0.175   2.825
 3391SOL    HW110739   3.742   0.090   2.789
 3391SOL    HW210740   3.605   0.177   2.806
 3392SOL     OW10741   2.125   0.326   2.582
 3392SOL    HW110742   2.046   0.377   2.548
 3392SOL    HW210743   2.116   0.311   2.680
 3393SOL     OW10744   3.056   1.612   1.893
 3393SOL    HW110745   3.062   1.519   1.930
 3393SOL    HW210746   2.997   1.612   1.813
 3394SOL     OW10747   2.684   1.002   3.234
 3394SOL    HW110748   2.724   1.001   3.142
 3394SOL    HW210749   2.694   1.094   3.274
 3395SOL     OW10750   2.778   0.910   2.153
 3395SOL    HW110751   2.841   0.948   2.085
 3395SOL    HW210752   2.818   0.827   2.192
 3396SOL     OW10753   3.366   1.607   1.906
 3396SOL    HW110754   3.274   1.644   1.913
 3396SOL    HW210755   3.404   1.627   1.816
 3397SOL     OW10756   2.234   1.288   3.352
 3397SOL    HW110757   2.221   1.381   3.318
 3397SOL    HW210758   2.150   1.236   3.339
 3398SOL     OW10759   3.476   1.292   3.151
 3398SOL    HW110760   3.536   1.295   3.231
 3398SOL    HW210761   3.401   1.356   3.164
 3399SOL     OW10762   2.901   1.098   2.558
 3399SOL    HW110763   2.831   1.051   2.612
 3399SOL    HW210764   2.960   1.030   2.515
 3400SOL     OW10765   2.876   0.236   2.833
 3400SOL    HW110766   2.868   0.200   2.740
 3400SOL    HW210767   2.874   0.160   2.898
 3401SOL     OW10768   2.452   1.487   2.353
 3401SOL    HW110769   2.494   1.429   2.283
 3401SOL    HW210770   2.408   1.566   2.309
 3402SOL     OW10771   3.571   0.385   3.243
 3402SOL    HW110772   3.644   0.454   3.247
 3402SOL    HW210773   3.599   0.310   3.184
 3403SOL     OW10774   2.117   1.348   2.152
 3403SOL    HW110775   2.021   1.349   2.125
 3403SOL    HW210776   2.129   1.401   2.236
 3404SOL     OW10777   1.967   1.013   3.588
 3404SOL    HW110778   1.890   0.980   3.642
 3404SOL    HW210779   2.052   0.983   3.630
 3405SOL     OW10780   2.534   0.203   3.351
 3405SOL    HW110781   2.624   0.187   3.311
 3405SOL    HW210782   2.542   0.208   3.450
 3406SOL     OW10783   1.937   0.345   1.895
 3406SOL    HW110784   1.845   0.317   1.866
 3406SOL    HW210785   1.968   0.422   1.839
 3407SOL     OW10786   3.302   0.856   3.260
 3407SOL    HW110787   3.245   0.908   3.197
 3407SOL    HW210788   3.398   0.868   3.236
 3408SOL     OW10789   1.934   0.166   2.180
 3408SOL    HW110790   1.917   0.249   2.126
 3408SOL    HW210791   2.024   0.129   2.158
 3409SOL     OW10792   3.045   1.335   1.981
 3409SOL    HW110793   2.946   1.324   1.983
 3409SOL    HW210794   3.079   1.350   2.074
 3410SOL     OW10795   2.475   0.842   3.293
 3410SOL    HW110796   2.531   0.923   3.276
 3410SOL    HW210797   2.534   0.762   3.296
 3411SOL     OW10798   3.355   1.767   2.821
 3411SOL    HW110799   3.388   1.831   2.752
 3411SOL    HW210800   3.421   1.761   2.896
 3412SOL     OW10801   2.578   0.565   3.570
 3412SOL    HW110802   2.597   0.630   3.644
 3412SOL    HW210803   2.638   0.485   3.579
 3413SOL     OW10804   3.312   1.220   3.495
 3413SOL    HW110805   3.303   1.210   3.594
 3413SOL    HW210806   3.408   1.213   3.469
 3414SOL     OW10807   2.252   1.741   3.422
 3414SOL    HW110808   2.161   1.782   3.420
 3414SOL    HW210809   2.245   1.647   3.454
 3415SOL     OW10810   3.536   0.883   3.116
 3415SOL    HW110811   3.509   0.794   3.079
 3415SOL    HW210812   3.537   0.951   3.043
 3416SOL     OW10813   3.087   0.325   2.311
 3416SOL    HW110814   3.152   0.251   2.300
 3416SOL    HW210815   3.107   0.375   2.395
 3417SOL     OW10816   2.456   0.745   2.514
 3417SOL    HW110817   2.506   0.830   2.495
 3417SOL    HW210818   2.368   0.747   2.466
 3418SOL     OW10819   3.639   0.342   3.504
 3418SOL    HW110820   3.622   0.373   3.410
 3418SOL    HW210821   3.555   0.305   3.542
 3419SOL     OW10822   3.592   0.934   3.379
 3419SOL    HW110823   3.630   1.025   3.394
 3419SOL    HW210824   3.584   0.917   3.280
 3420SOL     OW10825   2.721   1.374   1.878
 3420SOL    HW110826   2.675   1.389   1.966
 3420SOL    HW210827   2.765   1.459   1.848
 3421SOL     OW10828   2.523   1.790   2.815
 3421SOL    HW110829   2.477   1.878   2.802
 3421SOL    HW210830   2.622   1.802   2.808
 3422SOL     OW10831   2.721   0.956   2.723
 3422SOL    HW110832   2.775   0.887   2.771
 3422SOL    HW210833   2.689   1.025   2.789
 3423SOL     OW10834   2.945   0.984   1.949
 3423SOL    HW110835   2.922   1.037   1.867
 3423SOL    HW210836   3.026   0.928   1.930
 3424SOL     OW10837   3.723   1.569   2.713
 3424SOL    HW110838   3.652   1.557   2.643
 3424SOL    HW210839   3.724   1.490   2.773
 3425SOL     OW10840   2.083   1.314   3.706
 3425SOL    HW110841   2.018   1.241   3.685
 3425SOL    HW210842   2.087   1.328   3.804
 3426SOL     OW10843   1.941   1.240   2.515
 3426SOL    HW110844   1.940   1.193   2.603
 3426SOL    HW210845   2.023   1.212   2.464
 3427SOL     OW10846   2.534   1.391   3.486
 3427SOL    HW110847   2.456   1.341   3.524
 3427SOL    HW210848   2.531   1.486   3.517
 3428SOL     OW10849   3.686   0.192   3.089
 3428SOL    HW110850   3.682   0.102   3.133
 3428SOL    HW210851   3.689   0.181   2.990
 3429SOL     OW10852   2.290   0.424   2.382
 3429SOL    HW110853   2.320   0.352   2.320
 3429SOL    HW210854   2.251   0.384   2.465
 3430SOL     OW10855   3.567   1.487   2.966
 3430SOL    HW110856   3.474   1.462   2.939
 3430SOL    HW210857   3.593   1.437   3.048
 3431SOL     OW10858   2.179   0.547   3.142
 3431SOL    HW110859   2.217   0.488   3.214
 3431SOL    HW210860   2.219   0.521   3.054
 3432SOL     OW10861   2.674   1.586   2.549
 3432SOL    HW110862   2.706   1.596   2.455
 3432SOL    HW210863   2.595   1.524   2.551
 3433SOL     OW10864   3.286   0.214   2.974
 3433SOL    HW110865   3.338   0.149   3.029
 3433SOL    HW210866   3.237   0.277   3.035
 3434SOL     OW10867   2.863   0.034   3.016
 3434SOL    HW110868   2.800  -0.038   2.985
 3434SOL    HW210869   2.956  -0.002   3.016
 3435SOL     OW10870   2.632   1.330   2.163
 3435SOL    HW110871   2.586   1.243   2.180
 3435SOL    HW210872   2.723   1.327   2.204
 3436SOL     OW10873   2.480   1.567   3.146
 3436SOL    HW110874   2.475   1.649   3.203
 3436SOL    HW210875   2.569   1.564   3.101
 3437SOL     OW10876   3.214   0.052   2.030
 3437SOL    HW110877   3.249   0.011   1.946
 3437SOL    HW210878   3.124   0.014   2.050
 3438SOL     OW10879   3.162   0.453   2.553
 3438SOL    HW110880   3.103   0.533   2.557
 3438SOL    HW210881   3.177   0.418   2.646
 3439SOL     OW10882   3.455   0.221   2.744
 3439SOL    HW110883   3.371   0.220   2.798
 3439SOL    HW210884   3.457   0.304   2.688
 3440SOL     OW10885   1.901   1.077   2.162
 3440SOL    HW110886   2.000   1.066   2.153
 3440SOL    HW210887   1.861   0.991   2.194
 3441SOL     OW10888   2.737   1.646   2.199
 3441SOL    HW110889   2.660   1.611   2.145
 3441SOL    HW210890   2.705   1.717   2.261
 3442SOL     OW10891   2.092   0.628   3.837
 3442SOL    HW110892   1.999   0.626   3.874
 3442SOL    HW210893   2.093   0.589   3.745
 3443SOL     OW10894   2.087   0.275   4.720
 3443SOL    HW110895   2.122   0.258   4.812
 3443SOL    HW210896   1.999   0.230   4.708
 3444SOL     OW10897   1.881   0.368   4.371
 3444SOL    HW110898   1.799   0.411   4.410
 3444SOL    HW210899   1.853   0.295   4.308
 3445SOL     OW10900   2.431   1.275   4.889
 3445SOL    HW110901   2.338   1.268   4.852
 3445SOL    HW210902   2.442   1.364   4.933
 3446SOL     OW10903   3.417   1.511   4.427
 3446SOL    HW110904   3.360   1.495   4.508
 3446SOL    HW210905   3.358   1.521   4.347
 3447SOL     OW10906   2.997   0.703   4.441
 3447SOL    HW110907   3.054   0.781   4.416
 3447SOL    HW210908   2.937   0.729   4.517
 3448SOL     OW10909   3.617   0.607   3.955
 3448SOL    HW110910   3.605   0.594   3.856
 3448SOL    HW210911   3.587   0.526   4.004
 3449SOL     OW10912   2.630   1.144   4.747
 3449SOL    HW110913   2.552   1.161   4.807
 3449SOL    HW210914   2.664   1.231   4.711
 3450SOL     OW10915   2.712   0.798   5.547
 3450SOL    HW110916   2.708   0.874   5.612
 3450SOL    HW210917   2.734   0.834   5.456
 3451SOL     OW10918   2.547   1.012   4.389
 3451SOL    HW110919   2.616   0.996   4.459
 3451SOL    HW210920   2.474   1.069   4.427
 3452SOL     OW10921   2.548   1.161   5.527
 3452SOL    HW110922   2.608   1.240   5.541
 3452SOL    HW210923   2.462   1.192   5.486
 3453SOL     OW10924   2.197   1.435   4.785
 3453SOL    HW110925   2.119   1.404   4.732
 3453SOL    HW210926   2.255   1.493   4.728
 3454SOL     OW10927   3.322   1.505   5.063
 3454SOL    HW110928   3.346   1.599   5.089
 3454SOL    HW210929   3.306   1.451   5.145
 3455SOL     OW10930   2.300   0.392   5.223
 3455SOL    HW110931   2.382   0.336   5.232
 3455SOL    HW210932   2.219   0.334   5.227
 3456SOL     OW10933   3.465   0.447   4.461
 3456SOL    HW110934   3.391   0.493   4.411
 3456SOL    HW210935   3.516   0.515   4.514
 3457SOL     OW10936   2.093   1.713   4.207
 3457SOL    HW110937   2.127   1.790   4.261
 3457SOL    HW210938   2.137   1.713   4.117
 3458SOL     OW10939   2.989   1.341   5.414
 3458SOL    HW110940   3.036   1.341   5.502
 3458SOL    HW210941   2.941   1.254   5.403
 3459SOL     OW10942   2.092   1.434   4.262
 3459SOL    HW110943   2.066   1.530   4.262
 3459SOL    HW210944   2.021   1.380   4.307
 3460SOL     OW10945   2.102   1.091   4.610
 3460SOL    HW110946   2.116   1.007   4.662
 3460SOL    HW210947   2.047   1.155   4.665
 3461SOL     OW10948   2.468   0.964   3.847
 3461SOL    HW110949   2.475   1.048   3.793
 3461SOL    HW210950   2.514   0.977   3.935
 3462SOL     OW10951   3.456   0.114   5.204
 3462SOL    HW110952   3.438   0.181   5.132
 3462SOL    HW210953   3.453   0.160   5.293
 3463SOL     OW10954   1.984   0.643   4.287
 3463SOL    HW110955   1.939   0.555   4.304
 3463SOL    HW210956   1.983   0.697   4.371
 3464SOL     OW10957   3.704   1.767   4.083
 3464SOL    HW110958   3.758   1.738   4.163
 3464SOL    HW210959   3.734   1.857   4.054
 3465SOL     OW10960   1.889   1.596   3.841
 3465SOL    HW110961   1.870   1.500   3.862
 3465SOL    HW210962   1.856   1.654   3.916
 3466SOL     OW10963   3.551   0.922   4.336
 3466SOL    HW110964   3.646   0.893   4.344
 3466SOL    HW210965   3.543   0.987   4.261
 3467SOL     OW10966   3.503   1.108   4.156
 3467SOL    HW110967   3.589   1.110   4.104
 3467SOL    HW210968   3.517   1.155   4.244
 3468SOL     OW10969   1.975   0.737   5.321
 3468SOL    HW110970   2.063   0.724   5.366
 3468SOL    HW210971   1.962   0.834   5.299
 3469SOL     OW10972   2.475   1.365   4.450
 3469SOL    HW110973   2.426   1.278   4.459
 3469SOL    HW210974   2.452   1.408   4.363
 3470SOL     OW10975   3.155   1.228   5.147
 3470SOL    HW110976   3.192   1.155   5.089
 3470SOL    HW210977   3.207   1.233   5.232
 3471SOL     OW10978   2.671   0.004   4.226
 3471SOL    HW110979   2.711   0.095   4.217
 3471SOL    HW210980   2.571   0.012   4.232
 3472SOL     OW10981   2.059   0.976   4.988
 3472SOL    HW110982   2.148   0.931   4.974
 3472SOL    HW210983   1.986   0.911   4.969
 3473SOL     OW10984   3.387   0.999   3.914
 3473SOL    HW110985   3.324   0.923   3.927
 3473SOL    HW210986   3.435   1.017   4.000
 3474SOL     OW10987   3.049   1.792   5.340
 3474SOL    HW110988   3.073   1.852   5.264
 3474SOL    HW210989   3.056   1.697   5.310
 3475SOL     OW10990   2.179   0.251   5.525
 3475SOL    HW110991   2.250   0.322   5.531
 3475SOL    HW210992   2.091   0.290   5.553
 3476SOL     OW10993   3.328   1.417   4.677
 3476SOL    HW110994   3.269   1.423   4.757
 3476SOL    HW210995   3.313   1.329   4.631
 3477SOL     OW10996   3.529   1.714   4.296
 3477SOL    HW110997   3.488   1.691   4.208
 3477SOL    HW210998   3.511   1.640   4.361
 3478SOL     OW10999   2.460   0.729   3.994
 3478SOL    HW111000   2.484   0.798   3.926
 3478SOL    HW211001   2.382   0.762   4.048
 3479SOL     OW11002   3.143   0.345   4.668
 3479SOL    HW111003   3.057   0.295   4.655
 3479SOL    HW211004   3.205   0.291   4.724
 3480SOL     OW11005   3.438   1.662   4.031
 3480SOL    HW111006   3.527   1.708   4.034
 3480SOL    HW211007   3.417   1.638   3.936
 3481SOL     OW11008   2.669   0.605   5.189
 3481SOL    HW111009   2.622   0.602   5.278
 3481SOL    HW211010   2.618   0.550   5.123
 3482SOL     OW11011   3.256   0.469   5.398
 3482SOL    HW111012   3.236   0.512   5.486
 3482SOL    HW211013   3.334   0.407   5.407
 3483SOL     OW11014   2.835   0.890   5.296
 3483SOL    HW111015   2.881   0.806   5.267
 3483SOL    HW211016   2.779   0.924   5.221
 3484SOL     OW11017   2.853   0.410   4.966
 3484SOL    HW111018   2.776   0.444   5.020
 3484SOL    HW211019   2.819   0.359   4.887
 3485SOL     OW11020   2.903   0.701   4.153
 3485SOL    HW111021   2.929   0.697   4.249
 3485SOL    HW211022   2.818   0.650   4.139
 3486SOL     OW11023   1.938   0.811   4.513
 3486SOL    HW111024   2.037   0.799   4.522
 3486SOL    HW211025   1.914   0.906   4.534
 3487SOL     OW11026   2.727   0.348   3.919
 3487SOL    HW111027   2.786   0.411   3.870
 3487SOL    HW211028   2.746   0.254   3.890
 3488SOL     OW11029   3.581   0.585   5.555
 3488SOL    HW111030   3.555   0.674   5.519
 3488SOL    HW211031   3.579   0.517   5.482
 3489SOL     OW11032   3.224   1.144   4.269
 3489SOL    HW111033   3.307   1.115   4.221
 3489SOL    HW211034   3.175   1.211   4.213
 3490SOL     OW11035   2.412   0.196   4.609
 3490SOL    HW111036   2.407   0.191   4.709
 3490SOL    HW211037   2.414   0.292   4.580
 3491SOL     OW11038   2.870   1.456   4.201
 3491SOL    HW111039   2.824   1.528   4.149
 3491SOL    HW211040   2.866   1.476   4.299
 3492SOL     OW11041   3.657   1.066   4.597
 3492SOL    HW111042   3.595   1.051   4.521
 3492SOL    HW211043   3.605   1.077   4.682
 3493SOL     OW11044   3.089   1.550   5.230
 3493SOL    HW111045   3.095   1.473   5.294
 3493SOL    HW211046   3.037   1.524   5.150
 3494SOL     OW11047   2.183   0.943   3.966
 3494SOL    HW111048   2.265   0.982   3.924
 3494SOL    HW211049   2.156   0.861   3.917
 3495SOL     OW11050   3.320   0.735   4.452
 3495SOL    HW111051   3.315   0.670   4.527
 3495SOL    HW211052   3.400   0.794   4.465
 3496SOL     OW11053   2.323   1.266   5.451
 3496SOL    HW111054   2.273   1.267   5.365
 3496SOL    HW211055   2.260   1.248   5.527
 3497SOL     OW11056   2.973   1.776   3.961
 3497SOL    HW111057   2.913   1.714   4.011
 3497SOL    HW211058   3.004   1.732   3.876
 3498SOL     OW11059   2.064   0.285   5.222
 3498SOL    HW111060   1.984   0.345   5.209
 3498SOL    HW211061   2.054   0.236   5.308
 3499SOL     OW11062   3.494   1.377   3.805
 3499SOL    HW111063   3.462   1.471   3.795
 3499SOL    HW211064   3.418   1.314   3.793
 3500SOL     OW11065   2.326   1.743   4.047
 3500SOL    HW111066   2.359   1.782   4.133
 3500SOL    HW211067   2.402   1.736   3.982
 3501SOL     OW11068   3.262   0.107   4.150
 3501SOL    HW111069   3.238   0.070   4.060
 3501SOL    HW211070   3.361   0.123   4.154
 3502SOL     OW11071   2.802   1.698   4.628
 3502SOL    HW111072   2.882   1.641   4.649
 3502SOL    HW211073   2.753   1.658   4.551
 3503SOL     OW11074   2.244   0.700   4.204
 3503SOL    HW111075   2.289   0.610   4.201
 3503SOL    HW211076   2.150   0.689   4.237
 3504SOL     OW11077   3.409   0.222   5.453
 3504SOL    HW111078   3.404   0.259   5.545
 3504SOL    HW211079   3.337   0.153   5.441
 3505SOL     OW11080   2.476   0.122   3.841
 3505SOL    HW111081   2.574   0.100   3.848
 3505SOL    HW211082   2.445   0.105   3.748
 3506SOL     OW11083   2.643   0.264   5.473
 3506SOL    HW111084   2.710   0.203   5.516
 3506SOL    HW211085   2.570   0.283   5.538
 3507SOL     OW11086   2.750   1.514   4.919
 3507SOL    HW111087   2.727   1.489   4.825
 3507SOL    HW211088   2.811   1.445   4.958
 3508SOL     OW11089   3.213   0.590   5.157
 3508SOL    HW111090   3.241   0.547   5.242
 3508SOL    HW211091   3.238   0.686   5.158
 3509SOL     OW11092   2.665   1.402   4.648
 3509SOL    HW111093   2.755   1.416   4.606
 3509SOL    HW211094   2.594   1.404   4.577
 3510SOL     OW11095   2.784   0.503   4.623
 3510SOL    HW111096   2.759   0.494   4.527
 3510SOL    HW211097   2.832   0.421   4.654
 3511SOL     OW11098   2.401   0.064   4.236
 3511SOL    HW111099   2.320   0.065   4.294
 3511SOL    HW211100   2.404   0.147   4.181
 3512SOL     OW11101   3.296   1.188   3.765
 3512SOL    HW111102   3.328   1.112   3.822
 3512SOL    HW211103   3.204   1.215   3.795
 3513SOL     OW11104   2.159   0.035   3.895
 3513SOL    HW111105   2.208   0.119   3.874
 3513SOL    HW211106   2.221  -0.030   3.940
 3514SOL     OW11107   2.797   0.236   4.204
 3514SOL    HW111108   2.749   0.277   4.126
 3514SOL    HW211109   2.896   0.234   4.185
 3515SOL     OW11110   2.938   0.683   5.188
 3515SOL    HW111111   2.858   0.622   5.191
 3515SOL    HW211112   3.019   0.630   5.164
 3516SOL     OW11113   3.089   1.570   4.517
 3516SOL    HW111114   3.110   1.644   4.452
 3516SOL    HW211115   3.157   1.570   4.590
 3517SOL     OW11116   2.321   1.152   4.465
 3517SOL    HW111117   2.250   1.125   4.530
 3517SOL    HW211118   2.295   1.124   4.372
 3518SOL     OW11119   3.133   1.797   4.315
 3518SOL    HW111120   3.177   1.861   4.251
 3518SOL    HW211121   3.083   1.849   4.385
 3519SOL     OW11122   2.894   0.549   3.740
 3519SOL    HW111123   2.853   0.631   3.701
 3519SOL    HW211124   2.958   0.575   3.813
 3520SOL     OW11125   1.940   0.556   5.110
 3520SOL    HW111126   2.032   0.555   5.069
 3520SOL    HW211127   1.934   0.630   5.177
 3521SOL     OW11128   2.423   0.222   4.871
 3521SOL    HW111129   2.461   0.138   4.908
 3521SOL    HW211130   2.335   0.241   4.915
 3522SOL     OW11131   2.728   0.454   4.366
 3522SOL    HW111132   2.696   0.526   4.304
 3522SOL    HW211133   2.752   0.373   4.313
 3523SOL     OW11134   2.879   0.039   4.477
 3523SOL    HW111135   2.807   0.044   4.408
 3523SOL    HW211136   2.855  -0.030   4.546
 3524SOL     OW11137   3.291   1.173   4.591
 3524SOL    HW111138   3.236   1.089   4.584
 3524SOL    HW211139   3.317   1.202   4.499
 3525SOL     OW11140   3.328   0.590   4.716
 3525SOL    HW111141   3.298   0.495   4.723
 3525SOL    HW211142   3.401   0.606   4.782
 3526SOL     OW11143   3.719   0.833   4.101
 3526SOL    HW111144   3.761   0.769   4.165
 3526SOL    HW211145   3.681   0.782   4.023
 3527SOL     OW11146   2.350   1.385   3.898
 3527SOL    HW111147   2.263   1.370   3.945
 3527SOL    HW211148   2.333   1.411   3.803
 3528SOL     OW11149   3.526   1.280   4.381
 3528SOL    HW111150   3.625   1.288   4.395
 3528SOL    HW211151   3.481   1.364   4.412
 3529SOL     OW11152   3.252   0.575   3.802
 3529SOL    HW111153   3.198   0.554   3.883
 3529SOL    HW211154   3.343   0.534   3.811
 3530SOL     OW11155   2.389   0.256   4.052
 3530SOL    HW111156   2.416   0.197   3.977
 3530SOL    HW211157   2.389   0.351   4.021
 3531SOL     OW11158   3.616   1.223   5.312
 3531SOL    HW111159   3.707   1.184   5.299
 3531SOL    HW211160   3.624   1.319   5.336
 3532SOL     OW11161   2.926   1.347   5.064
 3532SOL    HW111162   2.846   1.324   5.119
 3532SOL    HW211163   3.009   1.321   5.113
 3533SOL     OW11164   3.454   1.629   5.349
 3533SOL    HW111165   3.481   1.663   5.259
 3533SOL    HW211166   3.533   1.591   5.395
 3534SOL     OW11167   2.973   1.195   4.824
 3534SOL    HW111168   2.933   1.239   4.905
 3534SOL    HW211169   2.932   1.232   4.741
 3535SOL     OW11170   3.500   1.099   4.803
 3535SOL    HW111171   3.505   1.180   4.862
 3535SOL    HW211172   3.414   1.101   4.752
 3536SOL     OW11173   2.777   0.089   5.126
 3536SOL    HW111174   2.802   0.069   5.031
 3536SOL    HW211175   2.849   0.145   5.168
 3537SOL     OW11176   2.842   1.116   5.443
 3537SOL    HW111177   2.743   1.122   5.453
 3537SOL    HW211178   2.865   1.036   5.387
 3538SOL     OW11179   2.567   1.050   4.092
 3538SOL    HW111180   2.553   1.057   4.191
 3538SOL    HW211181   2.651   0.999   4.074
 3539SOL     OW11182   2.272   0.813   4.975
 3539SOL    HW111183   2.358   0.825   5.025
 3539SOL    HW211184   2.230   0.726   5.002
 3540SOL     OW11185   3.136   0.386   4.986
 3540SOL    HW111186   3.157   0.460   5.050
 3540SOL    HW211187   3.047   0.403   4.943
 3541SOL     OW11188   2.229   1.100   4.225
 3541SOL    HW111189   2.222   1.183   4.169
 3541SOL    HW211190   2.233   1.020   4.165
 3542SOL     OW11191   2.428   0.537   4.589
 3542SOL    HW111192   2.440   0.603   4.515
 3542SOL    HW211193   2.474   0.571   4.672
 3543SOL     OW11194   3.114   1.348   4.112
 3543SOL    HW111195   3.164   1.425   4.152
 3543SOL    HW211196   3.019   1.350   4.144
 3544SOL     OW11197   3.134   1.445   4.866
 3544SOL    HW111198   3.181   1.458   4.953
 3544SOL    HW211199   3.068   1.371   4.875
 3545SOL     OW11200   3.444   0.639   4.196
 3545SOL    HW111201   3.413   0.700   4.269
 3545SOL    HW211202   3.494   0.691   4.127
 3546SOL     OW11203   2.264   0.751   5.322
 3546SOL    HW111204   2.332   0.806   5.275
 3546SOL    HW211205   2.304   0.663   5.349
 3547SOL     OW11206   3.449   0.779   5.394
 3547SOL    HW111207   3.357   0.817   5.389
 3547SOL    HW211208   3.509   0.826   5.329
 3548SOL     OW11209   2.875   0.105   5.494
 3548SOL    HW111210   2.881   0.190   5.442
 3548SOL    HW211211   2.907   0.029   5.437
 3549SOL     OW11212   2.366   0.050   5.464
 3549SOL    HW111213   2.324  -0.007   5.394
 3549SOL    HW211214   2.300   0.119   5.496
 3550SOL     OW11215   2.435   0.870   4.753
 3550SOL    HW111216   2.479   0.959   4.744
 3550SOL    HW211217   2.372   0.870   4.830
 3551SOL     OW11218   3.222   0.862   4.769
 3551SOL    HW111219   3.147   0.862   4.703
 3551SOL    HW211220   3.259   0.770   4.778
 3552SOL     OW11221   3.071   0.525   3.999
 3552SOL    HW111222   3.084   0.441   4.053
 3552SOL    HW211223   3.042   0.599   4.059
 3553SOL     OW11224   2.169   0.213   4.955
 3553SOL    HW111225   2.146   0.250   5.045
 3553SOL    HW211226   2.139   0.118   4.949
 3554SOL     OW11227   1.899   1.310   5.006
 3554SOL    HW111228   1.952   1.261   5.074
 3554SOL    HW211229   1.921   1.408   5.011
 3555SOL     OW11230   2.594   0.634   4.788
 3555SOL    HW111231   2.653   0.608   4.712
 3555SOL    HW211232   2.566   0.730   4.777
 3556SOL     OW11233   3.590   0.935   5.578
 3556SOL    HW111234   3.544   0.928   5.489
 3556SOL    HW211235   3.528   0.979   5.644
 3557SOL     OW11236   2.169   0.063   4.342
 3557SOL    HW111237   2.158   0.157   4.375
 3557SOL    HW211238   2.164   0.000   4.419
 3558SOL     OW11239   3.484   0.367   4.098
 3558SOL    HW111240   3.486   0.291   4.162
 3558SOL    HW211241   3.436   0.444   4.138
 3559SOL     OW11242   2.885   0.766   4.690
 3559SOL    HW111243   2.900   0.787   4.786
 3559SOL    HW211244   2.855   0.671   4.681
 3560SOL     OW11245   2.842   1.573   5.424
 3560SOL    HW111246   2.822   1.617   5.336
 3560SOL    HW211247   2.881   1.482   5.408
 3561SOL     OW11248   3.721   1.518   5.329
 3561SOL    HW111249   3.735   1.545   5.234
 3561SOL    HW211250   3.804   1.540   5.382
 3562SOL     OW11251   2.212   0.898   5.528
 3562SOL    HW111252   2.288   0.942   5.576
 3562SOL    HW211253   2.247   0.851   5.446
 3563SOL     OW11254   3.402   0.274   3.849
 3563SOL    HW111255   3.341   0.199   3.872
 3563SOL    HW211256   3.424   0.326   3.932
 3564SOL     OW11257   3.165   0.838   3.766
 3564SOL    HW111258   3.199   0.745   3.781
 3564SOL    HW211259   3.183   0.865   3.671
 3565SOL     OW11260   2.930   1.333   4.573
 3565SOL    HW111261   2.937   1.249   4.518
 3565SOL    HW211262   2.992   1.402   4.537
 3566SOL     OW11263   2.181   0.810   4.673
 3566SOL    HW111264   2.274   0.846   4.678
 3566SOL    HW211265   2.175   0.725   4.725
 3567SOL     OW11266   2.201   0.509   4.730
 3567SOL    HW111267   2.149   0.426   4.713
 3567SOL    HW211268   2.278   0.514   4.666
 3568SOL     OW11269   3.000   0.380   5.402
 3568SOL    HW111270   2.955   0.443   5.466
 3568SOL    HW211271   3.093   0.411   5.385
 3569SOL     OW11272   3.022   0.207   5.201
 3569SOL    HW111273   3.022   0.271   5.278
 3569SOL    HW211274   3.050   0.255   5.118
 3570SOL     OW11275   1.870   1.326   3.924
 3570SOL    HW111276   1.777   1.347   3.893
 3570SOL    HW211277   1.880   1.227   3.937
 3571SOL     OW11278   2.366   1.568   4.634
 3571SOL    HW111279   2.432   1.642   4.643
 3571SOL    HW211280   2.410   1.489   4.592
 3572SOL     OW11281   2.864   0.796   4.962
 3572SOL    HW111282   2.905   0.764   5.048
 3572SOL    HW211283   2.768   0.769   4.959
 3573SOL     OW11284   1.902   0.544   4.838
 3573SOL    HW111285   1.987   0.511   4.797
 3573SOL    HW211286   1.915   0.559   4.936
 3574SOL     OW11287   2.051   0.520   5.446
 3574SOL    HW111288   2.110   0.480   5.376
 3574SOL    HW211289   1.993   0.591   5.405
 3575SOL     OW11290   3.231   0.950   5.384
 3575SOL    HW111291   3.270   1.039   5.404
 3575SOL    HW211292   3.241   0.930   5.287
 3576SOL     OW11293   2.677   0.572   4.049
 3576SOL    HW111294   2.684   0.483   4.003
 3576SOL    HW211295   2.583   0.606   4.041
 3577SOL     OW11296   3.519   0.604   4.930
 3577SOL    HW111297   3.481   0.535   4.992
 3577SOL    HW211298   3.601   0.568   4.886
 3578SOL     OW11299   2.114   1.564   5.468
 3578SOL    HW111300   2.084   1.621   5.544
 3578SOL    HW211301   2.107   1.467   5.494
 3579SOL     OW11302   2.533   0.464   4.993
 3579SOL    HW111303   2.499   0.375   4.963
 3579SOL    HW211304   2.559   0.518   4.913
 3580SOL     OW11305   2.792   1.678   5.189
 3580SOL    HW111306   2.768   1.660   5.094
 3580SOL    HW211307   2.822   1.772   5.199
 3581SOL     OW11308   2.335   0.500   3.915
 3581SOL    HW111309   2.396   0.580   3.919
 3581SOL    HW211310   2.240   0.531   3.922
 3582SOL     OW11311   2.021   1.137   5.190
 3582SOL    HW111312   2.043   1.076   5.266
 3582SOL    HW211313   2.031   1.088   5.104
 3583SOL     OW11314   3.209   1.059   4.958
 3583SOL    HW111315   3.233   0.996   4.884
 3583SOL    HW211316   3.119   1.099   4.940
 3584SOL     OW11317   3.164   0.855   4.033
 3584SOL    HW111318   3.078   0.824   4.075
 3584SOL    HW211319   3.160   0.841   3.934
 3585SOL     OW11320   3.621   1.747   4.878
 3585SOL    HW111321   3.682   1.777   4.805
 3585SOL    HW211322   3.583   1.658   4.856
 3586SOL     OW11323   3.114   1.731   4.852
 3586SOL    HW111324   3.198   1.736   4.798
 3586SOL    HW211325   3.091   1.635   4.870
 3587SOL     OW11326   1.945   1.258   4.746
 3587SOL    HW111327   1.940   1.257   4.846
 3587SOL    HW211328   1.862   1.217   4.708
 3588SOL     OW11329   3.588   0.135   4.247
 3588SOL    HW111330   3.661   0.118   4.180
 3588SOL    HW211331   3.557   0.048   4.285
 3589SOL     OW11332   3.250   1.573   4.201
 3589SOL    HW111333   3.317   1.585   4.127
 3589SOL    HW211334   3.210   1.662   4.224
 3590SOL     OW11335   3.142   0.927   4.396
 3590SOL    HW111336   3.202   0.846   4.398
 3590SOL    HW211337   3.182   0.996   4.336
 3591SOL     OW11338   2.692   1.273   5.146
 3591SOL    HW111339   2.687   1.306   5.241
 3591SOL    HW211340   2.606   1.292   5.100
 3592SOL     OW11341   2.534   1.616   3.878
 3592SOL    HW111342   2.543   1.626   3.779
 3592SOL    HW211343   2.494   1.527   3.899
 3593SOL     OW11344   3.512   1.720   5.118
 3593SOL    HW111345   3.565   1.730   5.034
 3593SOL    HW211346   3.485   1.810   5.152
 3594SOL     OW11347   3.703   0.175   4.687
 3594SOL    HW111348   3.742   0.090   4.651
 3594SOL    HW211349   3.605   0.177   4.668
 3595SOL     OW11350   2.125   0.326   4.444
 3595SOL    HW111351   2.046   0.377   4.410
 3595SOL    HW211352   2.116   0.311   4.542
 3596SOL     OW11353   3.056   1.612   3.755
 3596SOL    HW111354   3.062   1.519   3.792
 3596SOL    HW211355   2.997   1.612   3.675
 3597SOL     OW11356   2.684   1.002   5.096
 3597SOL    HW111357   2.724   1.001   5.004
 3597SOL    HW211358   2.694   1.094   5.136
 3598SOL     OW11359   2.778   0.910   4.015
 3598SOL    HW111360   2.841   0.948   3.947
 3598SOL    HW211361   2.818   0.827   4.054
 3599SOL     OW11362   3.366   1.607   3.768
 3599SOL    HW111363   3.274   1.644   3.775
 3599SOL    HW211364   3.404   1.627   3.678
 3600SOL     OW11365   2.234   1.288   5.214
 3600SOL    HW111366   2.221   1.381   5.180
 3600SOL    HW211367   2.150   1.236   5.201
 3601SOL     OW11368   3.476   1.292   5.013
 3601SOL    HW111369   3.536   1.295   5.093
 3601SOL    HW211370   3.401   1.356   5.026
 3602SOL     OW11371   2.901   1.098   4.420
 3602SOL    HW111372   2.831   1.051   4.474
 3602SOL    HW211373   2.960   1.030   4.377
 3603SOL     OW11374   2.876   0.236   4.695
 3603SOL    HW111375   2.868   0.200   4.602
 3603SOL    HW211376   2.874   0.160   4.760
 3604SOL     OW11377   2.452   1.487   4.215
 3604SOL    HW111378   2.494   1.429   4.145
 3604SOL    HW211379   2.408   1.566   4.171
 3605SOL     OW11380   3.571   0.385   5.105
 3605SOL    HW111381   3.644   0.454   5.109
 3605SOL    HW211382   3.599   0.310   5.046
 3606SOL     OW11383   2.117   1.348   4.014
 3606SOL    HW111384   2.021   1.349   3.987
 3606SOL    HW211385   2.129   1.401   4.098
 3607SOL     OW11386   1.967   1.013   5.450
 3607SOL    HW111387   1.890   0.980   5.504
 3607SOL    HW211388   2.052   0.983   5.492
 3608SOL     OW11389   2.534   0.203   5.213
 3608SOL    HW111390   2.624   0.187   5.173
 3608SOL    HW211391   2.542   0.208   5.312
 3609SOL     OW11392   1.937   0.345   3.757
 3609SOL    HW111393   1.845   0.317   3.728
 3609SOL    HW211394   1.968   0.422   3.701
 3610SOL     OW11395   3.302   0.856   5.122
 3610SOL    HW111396   3.245   0.908   5.059
 3610SOL    HW211397   3.398   0.868   5.098
 3611SOL     OW11398   1.934   0.166   4.042
 3611SOL    HW111399   1.917   0.249   3.988
 3611SOL    HW211400   2.024   0.129   4.020
 3612SOL     OW11401   3.045   1.335   3.843
 3612SOL    HW111402   2.946   1.324   3.845
 3612SOL    HW211403   3.079   1.350   3.936
 3613SOL     OW11404   2.475   0.842   5.155
 3613SOL    HW111405   2.531   0.923   5.138
 3613SOL    HW211406   2.534   0.762   5.158
 3614SOL     OW11407   3.355   1.767   4.683
 3614SOL    HW111408   3.388   1.831   4.614
 3614SOL    HW211409   3.421   1.761   4.758
 3615SOL     OW11410   2.578   0.565   5.432
 3615SOL    HW111411   2.597   0.630   5.506
 3615SOL    HW211412   2.638   0.485   5.441
 3616SOL     OW11413   3.312   1.220   5.357
 3616SOL    HW111414   3.303   1.210   5.456
 3616SOL    HW211415   3.408   1.213   5.331
 3617SOL     OW11416   3.536   0.883   4.978
 3617SOL    HW111417   3.509   0.794   4.941
 3617SOL    HW211418   3.537   0.951   4.905
 3618SOL     OW11419   3.087   0.325   4.173
 3618SOL    HW111420   3.152   0.251   4.162
 3618SOL    HW211421   3.107   0.375   4.257
 3619SOL     OW11422   2.456   0.745   4.376
 3619SOL    HW111423   2.506   0.830   4.357
 3619SOL    HW211424   2.368   0.747   4.328
 3620SOL     OW11425   3.639   0.342   5.366
 3620SOL    HW111426   3.622   0.373   5.272
 3620SOL    HW211427   3.555   0.305   5.404
 3621SOL     OW11428   3.592   0.934   5.241
 3621SOL    HW111429   3.630   1.025   5.256
 3621SOL    HW211430   3.584   0.917   5.142
 3622SOL     OW11431   2.721   1.374   3.740
 3622SOL    HW111432   2.675   1.389   3.828
 3622SOL    HW211433   2.765   1.459   3.710
 3623SOL     OW11434   2.721   0.956   4.585
 3623SOL    HW111435   2.775   0.887   4.633
 3623SOL    HW211436   2.689   1.025   4.651
 3624SOL     OW11437   2.945   0.984   3.811
 3624SOL    HW111438   2.922   1.037   3.729
 3624SOL    HW211439   3.026   0.928   3.792
 3625SOL     OW11440   3.723   1.569   4.575
 3625SOL    HW111441   3.652   1.557   4.505
 3625SOL    HW211442   3.724   1.490   4.635
 3626SOL     OW11443   2.083   1.314   5.568
 3626SOL    HW111444   2.018   1.241   5.547
 3626SOL    HW211445   2.087   1.328   5.666
 3627SOL     OW11446   1.941   1.240   4.377
 3627SOL    HW111447   1.940   1.193   4.465
 3627SOL    HW211448   2.023   1.212   4.326
 3628SOL     OW11449   2.534   1.391   5.348
 3628SOL    HW111450   2.456   1.341   5.386
 3628SOL    HW211451   2.531   1.486   5.379
 3629SOL     OW11452   3.686   0.192   4.951
 3629SOL    HW111453   3.682   0.102   4.995
 3629SOL    HW211454   3.689   0.181   4.852
 3630SOL     OW11455   2.290   0.424   4.244
 3630SOL    HW111456   2.320   0.352   4.182
 3630SOL    HW211457   2.251   0.384   4.327
 3631SOL     OW11458   3.567   1.487   4.828
 3631SOL    HW111459   3.474   1.462   4.801
 3631SOL    HW211460   3.593   1.437   4.910
 3632SOL     OW11461   2.179   0.547   5.004
 3632SOL    HW111462   2.217   0.488   5.076
 3632SOL    HW211463   2.219   0.521   4.916
 3633SOL     OW11464   2.674   1.586   4.411
 3633SOL    HW111465   2.706   1.596   4.317
 3633SOL    HW211466   2.595   1.524   4.413
 3634SOL     OW11467   3.286   0.214   4.836
 3634SOL    HW111468   3.338   0.149   4.891
 3634SOL    HW211469   3.237   0.277   4.897
 3635SOL     OW11470   2.863   0.034   4.878
 3635SOL    HW111471   2.800  -0.038   4.847
 3635SOL    HW211472   2.956  -0.002   4.878
 3636SOL     OW11473   2.632   1.330   4.025
 3636SOL    HW111474   2.586   1.243   4.042
 3636SOL    HW211475   2.723   1.327   4.066
 3637SOL     OW11476   3.214   0.052   3.892
 3637SOL    HW111477   3.249   0.011   3.808
 3637SOL    HW211478   3.124   0.014   3.912
 3638SOL     OW11479   3.162   0.453   4.415
 3638SOL    HW111480   3.103   0.533   4.419
 3638SOL    HW211481   3.177   0.418   4.508
 3639SOL     OW11482   3.455   0.221   4.606
 3639SOL    HW111483   3.371   0.220   4.660
 3639SOL    HW211484   3.457   0.304   4.550
 3640SOL     OW11485   1.901   1.077   4.024
 3640SOL    HW111486   2.000   1.066   4.015
 3640SOL    HW211487   1.861   0.991   4.056
 3641SOL     OW11488   2.737   1.646   4.061
 3641SOL    HW111489   2.660   1.611   4.007
 3641SOL    HW211490   2.705   1.717   4.123
 3642SOL     OW11491   2.092   0.628   5.699
 3642SOL    HW111492   1.999   0.626   5.736
 3642SOL    HW211493   2.093   0.589   5.607
 3643SOL     OW11494   2.087   0.275   6.582
 3643SOL    HW111495   2.122   0.258   6.674
 3643SOL    HW211496   1.999   0.230   6.570
 3644SOL     OW11497   1.881   0.368   6.233
 3644SOL    HW111498   1.799   0.411   6.272
 3644SOL    HW211499   1.853   0.295   6.170
 3645SOL     OW11500   2.431   1.275   6.751
 3645SOL    HW111501   2.338   1.268   6.714
 3645SOL    HW211502   2.442   1.364   6.795
 3646SOL     OW11503   3.417   1.511   6.289
 3646SOL    HW111504   3.360   1.495   6.370
 3646SOL    HW211505   3.358   1.521   6.209
 3647SOL     OW11506   2.997   0.703   6.303
 3647SOL    HW111507   3.054   0.781   6.278
 3647SOL    HW211508   2.937   0.729   6.379
 3648SOL     OW11509   3.617   0.607   5.817
 3648SOL    HW111510   3.605   0.594   5.718
 3648SOL    HW211511   3.587   0.526   5.866
 3649SOL     OW11512   2.630   1.144   6.609
 3649SOL    HW111513   2.552   1.161   6.669
 3649SOL    HW211514   2.664   1.231   6.573
 3650SOL     OW11515   2.712   0.798   7.409
 3650SOL    HW111516   2.708   0.874   7.474
 3650SOL    HW211517   2.734   0.834   7.318
 3651SOL     OW11518   2.547   1.012   6.251
 3651SOL    HW111519   2.616   0.996   6.321
 3651SOL    HW211520   2.474   1.069   6.289
 3652SOL     OW11521   2.548   1.161   7.389
 3652SOL    HW111522   2.608   1.240   7.403
 3652SOL    HW211523   2.462   1.192   7.348
 3653SOL     OW11524   2.197   1.435   6.647
 3653SOL    HW111525   2.119   1.404   6.594
 3653SOL    HW211526   2.255   1.493   6.590
 3654SOL     OW11527   3.322   1.505   6.925
 3654SOL    HW111528   3.346   1.599   6.951
 3654SOL    HW211529   3.306   1.451   7.007
 3655SOL     OW11530   2.300   0.392   7.085
 3655SOL    HW111531   2.382   0.336   7.094
 3655SOL    HW211532   2.219   0.334   7.089
 3656SOL     OW11533   3.465   0.447   6.323
 3656SOL    HW111534   3.391   0.493   6.273
 3656SOL    HW211535   3.516   0.515   6.376
 3657SOL     OW11536   2.989   1.341   7.276
 3657SOL    HW111537   3.036   1.341   7.364
 3657SOL    HW211538   2.941   1.254   7.265
 3658SOL     OW11539   2.102   1.091   6.472
 3658SOL    HW111540   2.116   1.007   6.524
 3658SOL    HW211541   2.047   1.155   6.527
 3659SOL     OW11542   2.482   1.786   7.025
 3659SOL    HW111543   2.390   1.769   7.060
 3659SOL    HW211544   2.510   1.878   7.051
 3660SOL     OW11545   2.468   0.964   5.709
 3660SOL    HW111546   2.475   1.048   5.655
 3660SOL    HW211547   2.514   0.977   5.797
 3661SOL     OW11548   3.456   0.114   7.066
 3661SOL    HW111549   3.438   0.181   6.994
 3661SOL    HW211550   3.453   0.160   7.155
 3662SOL     OW11551   1.984   0.643   6.149
 3662SOL    HW111552   1.939   0.555   6.166
 3662SOL    HW211553   1.983   0.697   6.233
 3663SOL     OW11554   3.704   1.767   5.945
 3663SOL    HW111555   3.758   1.738   6.025
 3663SOL    HW211556   3.734   1.857   5.916
 3664SOL     OW11557   3.551   0.922   6.198
 3664SOL    HW111558   3.646   0.893   6.206
 3664SOL    HW211559   3.543   0.987   6.123
 3665SOL     OW11560   3.503   1.108   6.018
 3665SOL    HW111561   3.589   1.110   5.966
 3665SOL    HW211562   3.517   1.155   6.106
 3666SOL     OW11563   1.975   0.737   7.183
 3666SOL    HW111564   2.063   0.724   7.228
 3666SOL    HW211565   1.962   0.834   7.161
 3667SOL     OW11566   2.475   1.365   6.312
 3667SOL    HW111567   2.426   1.278   6.321
 3667SOL    HW211568   2.452   1.408   6.225
 3668SOL     OW11569   3.155   1.228   7.009
 3668SOL    HW111570   3.192   1.155   6.951
 3668SOL    HW211571   3.207   1.233   7.094
 3669SOL     OW11572   2.671   0.004   6.088
 3669SOL    HW111573   2.711   0.095   6.079
 3669SOL    HW211574   2.571   0.012   6.094
 3670SOL     OW11575   2.059   0.976   6.850
 3670SOL    HW111576   2.148   0.931   6.836
 3670SOL    HW211577   1.986   0.911   6.831
 3671SOL     OW11578   3.387   0.999   5.776
 3671SOL    HW111579   3.324   0.923   5.789
 3671SOL    HW211580   3.435   1.017   5.862
 3672SOL     OW11581   3.049   1.792   7.202
 3672SOL    HW111582   3.073   1.852   7.126
 3672SOL    HW211583   3.056   1.697   7.172
 3673SOL     OW11584   2.179   0.251   7.387
 3673SOL    HW111585   2.250   0.322   7.393
 3673SOL    HW211586   2.091   0.290   7.415
 3674SOL     OW11587   3.328   1.417   6.539
 3674SOL    HW111588   3.269   1.423   6.619
 3674SOL    HW211589   3.313   1.329   6.493
 3675SOL     OW11590   3.529   1.714   6.158
 3675SOL    HW111591   3.488   1.691   6.070
 3675SOL    HW211592   3.511   1.640   6.223
 3676SOL     OW11593   2.460   0.729   5.856
 3676SOL    HW111594   2.484   0.798   5.788
 3676SOL    HW211595   2.382   0.762   5.910
 3677SOL     OW11596   3.143   0.345   6.530
 3677SOL    HW111597   3.057   0.295   6.517
 3677SOL    HW211598   3.205   0.291   6.586
 3678SOL     OW11599   3.438   1.662   5.893
 3678SOL    HW111600   3.527   1.708   5.896
 3678SOL    HW211601   3.417   1.638   5.798
 3679SOL     OW11602   2.669   0.605   7.051
 3679SOL    HW111603   2.622   0.602   7.140
 3679SOL    HW211604   2.618   0.550   6.985
 3680SOL     OW11605   3.256   0.469   7.260
 3680SOL    HW111606   3.236   0.512   7.348
 3680SOL    HW211607   3.334   0.407   7.269
 3681SOL     OW11608   2.835   0.890   7.158
 3681SOL    HW111609   2.881   0.806   7.129
 3681SOL    HW211610   2.779   0.924   7.083
 3682SOL     OW11611   2.853   0.410   6.828
 3682SOL    HW111612   2.776   0.444   6.882
 3682SOL    HW211613   2.819   0.359   6.749
 3683SOL     OW11614   2.903   0.701   6.015
 3683SOL    HW111615   2.929   0.697   6.111
 3683SOL    HW211616   2.818   0.650   6.001
 3684SOL     OW11617   1.938   0.811   6.375
 3684SOL    HW111618   2.037   0.799   6.384
 3684SOL    HW211619   1.914   0.906   6.396
 3685SOL     OW11620   1.992   1.821   7.157
 3685SOL    HW111621   1.982   1.806   7.256
 3685SOL    HW211622   1.906   1.857   7.121
 3686SOL     OW11623   2.727   0.348   5.781
 3686SOL    HW111624   2.786   0.411   5.732
 3686SOL    HW211625   2.746   0.254   5.752
 3687SOL     OW11626   3.581   0.585   7.417
 3687SOL    HW111627   3.555   0.674   7.381
 3687SOL    HW211628   3.579   0.517   7.344
 3688SOL     OW11629   3.224   1.144   6.131
 3688SOL    HW111630   3.307   1.115   6.083
 3688SOL    HW211631   3.175   1.211   6.075
 3689SOL     OW11632   2.412   0.196   6.471
 3689SOL    HW111633   2.407   0.191   6.571
 3689SOL    HW211634   2.414   0.292   6.442
 3690SOL     OW11635   2.870   1.456   6.063
 3690SOL    HW111636   2.824   1.528   6.011
 3690SOL    HW211637   2.866   1.476   6.161
 3691SOL     OW11638   3.657   1.066   6.459
 3691SOL    HW111639   3.595   1.051   6.383
 3691SOL    HW211640   3.605   1.077   6.544
 3692SOL     OW11641   3.089   1.550   7.092
 3692SOL    HW111642   3.095   1.473   7.156
 3692SOL    HW211643   3.037   1.524   7.012
 3693SOL     OW11644   2.183   0.943   5.828
 3693SOL    HW111645   2.265   0.982   5.786
 3693SOL    HW211646   2.156   0.861   5.779
 3694SOL     OW11647   3.320   0.735   6.314
 3694SOL    HW111648   3.315   0.670   6.389
 3694SOL    HW211649   3.400   0.794   6.327
 3695SOL     OW11650   2.323   1.266   7.313
 3695SOL    HW111651   2.273   1.267   7.227
 3695SOL    HW211652   2.260   1.248   7.389
 3696SOL     OW11653   2.973   1.776   5.823
 3696SOL    HW111654   2.913   1.714   5.873
 3696SOL    HW211655   3.004   1.732   5.738
 3697SOL     OW11656   2.064   0.285   7.084
 3697SOL    HW111657   1.984   0.345   7.071
 3697SOL    HW211658   2.054   0.236   7.170
 3698SOL     OW11659   3.494   1.377   5.667
 3698SOL    HW111660   3.462   1.471   5.657
 3698SOL    HW211661   3.418   1.314   5.655
 3699SOL     OW11662   3.262   0.107   6.012
 3699SOL    HW111663   3.238   0.070   5.922
 3699SOL    HW211664   3.361   0.123   6.016
 3700SOL     OW11665   2.111   1.785   6.827
 3700SOL    HW111666   2.168   1.720   6.877
 3700SOL    HW211667   2.095   1.752   6.734
 3701SOL     OW11668   2.244   0.700   6.066
 3701SOL    HW111669   2.289   0.610   6.063
 3701SOL    HW211670   2.150   0.689   6.099
 3702SOL     OW11671   3.409   0.222   7.315
 3702SOL    HW111672   3.404   0.259   7.407
 3702SOL    HW211673   3.337   0.153   7.303
 3703SOL     OW11674   2.476   0.122   5.703
 3703SOL    HW111675   2.574   0.100   5.710
 3703SOL    HW211676   2.445   0.105   5.610
 3704SOL     OW11677   2.643   0.264   7.335
 3704SOL    HW111678   2.710   0.203   7.378
 3704SOL    HW211679   2.570   0.283   7.400
 3705SOL     OW11680   2.750   1.514   6.781
 3705SOL    HW111681   2.727   1.489   6.687
 3705SOL    HW211682   2.811   1.445   6.820
 3706SOL     OW11683   3.213   0.590   7.019
 3706SOL    HW111684   3.241   0.547   7.104
 3706SOL    HW211685   3.238   0.686   7.020
 3707SOL     OW11686   2.665   1.402   6.510
 3707SOL    HW111687   2.755   1.416   6.468
 3707SOL    HW211688   2.594   1.404   6.439
 3708SOL     OW11689   2.784   0.503   6.485
 3708SOL    HW111690   2.759   0.494   6.389
 3708SOL    HW211691   2.832   0.421   6.516
 3709SOL     OW11692   2.401   0.064   6.098
 3709SOL    HW111693   2.320   0.065   6.156
 3709SOL    HW211694   2.404   0.147   6.043
 3710SOL     OW11695   3.296   1.188   5.627
 3710SOL    HW111696   3.328   1.112   5.684
 3710SOL    HW211697   3.204   1.215   5.657
 3711SOL     OW11698   2.159   0.035   5.757
 3711SOL    HW111699   2.208   0.119   5.736
 3711SOL    HW211700   2.221  -0.030   5.802
 3712SOL     OW11701   2.797   0.236   6.066
 3712SOL    HW111702   2.749   0.277   5.988
 3712SOL    HW211703   2.896   0.234   6.047
 3713SOL     OW11704   2.938   0.683   7.050
 3713SOL    HW111705   2.858   0.622   7.053
 3713SOL    HW211706   3.019   0.630   7.026
 3714SOL     OW11707   3.089   1.570   6.379
 3714SOL    HW111708   3.110   1.644   6.314
 3714SOL    HW211709   3.157   1.570   6.452
 3715SOL     OW11710   2.321   1.152   6.327
 3715SOL    HW111711   2.250   1.125   6.392
 3715SOL    HW211712   2.295   1.124   6.234
 3716SOL     OW11713   3.133   1.797   6.177
 3716SOL    HW111714   3.177   1.861   6.113
 3716SOL    HW211715   3.083   1.849   6.247
 3717SOL     OW11716   2.894   0.549   5.602
 3717SOL    HW111717   2.853   0.631   5.563
 3717SOL    HW211718   2.958   0.575   5.675
 3718SOL     OW11719   1.940   0.556   6.972
 3718SOL    HW111720   2.032   0.555   6.931
 3718SOL    HW211721   1.934   0.630   7.039
 3719SOL     OW11722   2.423   0.222   6.733
 3719SOL    HW111723   2.461   0.138   6.770
 3719SOL    HW211724   2.335   0.241   6.777
 3720SOL     OW11725   2.728   0.454   6.228
 3720SOL    HW111726   2.696   0.526   6.166
 3720SOL    HW211727   2.752   0.373   6.175
 3721SOL     OW11728   2.879   0.039   6.339
 3721SOL    HW111729   2.807   0.044   6.270
 3721SOL    HW211730   2.855  -0.030   6.408
 3722SOL     OW11731   3.291   1.173   6.453
 3722SOL    HW111732   3.236   1.089   6.446
 3722SOL    HW211733   3.317   1.202   6.361
 3723SOL     OW11734   3.328   0.590   6.578
 3723SOL    HW111735   3.298   0.495   6.585
 3723SOL    HW211736   3.401   0.606   6.644
 3724SOL     OW11737   3.719   0.833   5.963
 3724SOL    HW111738   3.761   0.769   6.027
 3724SOL    HW211739   3.681   0.782   5.885
 3725SOL     OW11740   2.350   1.385   5.760
 3725SOL    HW111741   2.263   1.370   5.807
 3725SOL    HW211742   2.333   1.411   5.665
 3726SOL     OW11743   3.526   1.280   6.243
 3726SOL    HW111744   3.625   1.288   6.257
 3726SOL    HW211745   3.481   1.364   6.274
 3727SOL     OW11746   3.252   0.575   5.664
 3727SOL    HW111747   3.198   0.554   5.745
 3727SOL    HW211748   3.343   0.534   5.673
 3728SOL     OW11749   2.389   0.256   5.914
 3728SOL    HW111750   2.416   0.197   5.839
 3728SOL    HW211751   2.389   0.351   5.883
 3729SOL     OW11752   3.616   1.223   7.174
 3729SOL    HW111753   3.707   1.184   7.161
 3729SOL    HW211754   3.624   1.319   7.198
 3730SOL     OW11755   2.926   1.347   6.926
 3730SOL    HW111756   2.846   1.324   6.981
 3730SOL    HW211757   3.009   1.321   6.975
 3731SOL     OW11758   3.454   1.629   7.211
 3731SOL    HW111759   3.481   1.663   7.121
 3731SOL    HW211760   3.533   1.591   7.257
 3732SOL     OW11761   2.973   1.195   6.686
 3732SOL    HW111762   2.933   1.239   6.767
 3732SOL    HW211763   2.932   1.232   6.603
 3733SOL     OW11764   3.500   1.099   6.665
 3733SOL    HW111765   3.505   1.180   6.724
 3733SOL    HW211766   3.414   1.101   6.614
 3734SOL     OW11767   2.777   0.089   6.988
 3734SOL    HW111768   2.802   0.069   6.893
 3734SOL    HW211769   2.849   0.145   7.030
 3735SOL     OW11770   2.842   1.116   7.305
 3735SOL    HW111771   2.743   1.122   7.315
 3735SOL    HW211772   2.865   1.036   7.249
 3736SOL     OW11773   2.567   1.050   5.954
 3736SOL    HW111774   2.553   1.057   6.053
 3736SOL    HW211775   2.651   0.999   5.936
 3737SOL     OW11776   2.272   0.813   6.837
 3737SOL    HW111777   2.358   0.825   6.887
 3737SOL    HW211778   2.230   0.726   6.864
 3738SOL     OW11779   3.136   0.386   6.848
 3738SOL    HW111780   3.157   0.460   6.912
 3738SOL    HW211781   3.047   0.403   6.805
 3739SOL     OW11782   1.926   1.564   6.917
 3739SOL    HW111783   1.880   1.646   6.883
 3739SOL    HW211784   2.024   1.583   6.926
 3740SOL     OW11785   2.229   1.100   6.087
 3740SOL    HW111786   2.222   1.183   6.031
 3740SOL    HW211787   2.233   1.020   6.027
 3741SOL     OW11788   2.428   0.537   6.451
 3741SOL    HW111789   2.440   0.603   6.377
 3741SOL    HW211790   2.474   0.571   6.534
 3742SOL     OW11791   3.114   1.348   5.974
 3742SOL    HW111792   3.164   1.425   6.014
 3742SOL    HW211793   3.019   1.350   6.006
 3743SOL     OW11794   3.134   1.445   6.728
 3743SOL    HW111795   3.181   1.458   6.815
 3743SOL    HW211796   3.068   1.371   6.737
 3744SOL     OW11797   3.444   0.639   6.058
 3744SOL    HW111798   3.413   0.700   6.131
 3744SOL    HW211799   3.494   0.691   5.989
 3745SOL     OW11800   2.216   1.510   6.915
 3745SOL    HW111801   2.195   1.466   6.828
 3745SOL    HW211802   2.313   1.536   6.918
 3746SOL     OW11803   2.264   0.751   7.184
 3746SOL    HW111804   2.332   0.806   7.137
 3746SOL    HW211805   2.304   0.663   7.211
 3747SOL     OW11806   3.449   0.779   7.256
 3747SOL    HW111807   3.357   0.817   7.251
 3747SOL    HW211808   3.509   0.826   7.191
 3748SOL     OW11809   2.875   0.105   7.356
 3748SOL    HW111810   2.881   0.190   7.304
 3748SOL    HW211811   2.907   0.029   7.299
 3749SOL     OW11812   2.366   0.050   7.326
 3749SOL    HW111813   2.324  -0.007   7.256
 3749SOL    HW211814   2.300   0.119   7.358
 3750SOL     OW11815   2.435   0.870   6.615
 3750SOL    HW111816   2.479   0.959   6.606
 3750SOL    HW211817   2.372   0.870   6.692
 3751SOL     OW11818   3.222   0.862   6.631
 3751SOL    HW111819   3.147   0.862   6.565
 3751SOL    HW211820   3.259   0.770   6.640
 3752SOL     OW11821   3.071   0.525   5.861
 3752SOL    HW111822   3.084   0.441   5.915
 3752SOL    HW211823   3.042   0.599   5.921
 3753SOL     OW11824   2.169   0.213   6.817
 3753SOL    HW111825   2.146   0.250   6.907
 3753SOL    HW211826   2.139   0.118   6.811
 3754SOL     OW11827   1.899   1.310   6.868
 3754SOL    HW111828   1.952   1.261   6.936
 3754SOL    HW211829   1.921   1.408   6.873
 3755SOL     OW11830   2.594   0.634   6.650
 3755SOL    HW111831   2.653   0.608   6.574
 3755SOL    HW211832   2.566   0.730   6.639
 3756SOL     OW11833   3.590   0.935   7.440
 3756SOL    HW111834   3.544   0.928   7.351
 3756SOL    HW211835   3.528   0.979   7.506
 3757SOL     OW11836   2.169   0.063   6.204
 3757SOL    HW111837   2.158   0.157   6.237
 3757SOL    HW211838   2.164   0.000   6.281
 3758SOL     OW11839   3.484   0.367   5.960
 3758SOL    HW111840   3.486   0.291   6.024
 3758SOL    HW211841   3.436   0.444   6.000
 3759SOL     OW11842   2.885   0.766   6.552
 3759SOL    HW111843   2.900   0.787   6.648
 3759SOL    HW211844   2.855   0.671   6.543
 3760SOL     OW11845   2.842   1.573   7.286
 3760SOL    HW111846   2.822   1.617   7.198
 3760SOL    HW211847   2.881   1.482   7.270
 3761SOL     OW11848   3.721   1.518   7.191
 3761SOL    HW111849   3.735   1.545   7.096
 3761SOL    HW211850   3.804   1.540   7.244
 3762SOL     OW11851   2.212   0.898   7.390
 3762SOL    HW111852   2.288   0.942   7.438
 3762SOL    HW211853   2.247   0.851   7.308
 3763SOL     OW11854   3.402   0.274   5.711
 3763SOL    HW111855   3.341   0.199   5.734
 3763SOL    HW211856   3.424   0.326   5.794
 3764SOL     OW11857   3.165   0.838   5.628
 3764SOL    HW111858   3.199   0.745   5.643
 3764SOL    HW211859   3.183   0.865   5.533
 3765SOL     OW11860   2.930   1.333   6.435
 3765SOL    HW111861   2.937   1.249   6.380
 3765SOL    HW211862   2.992   1.402   6.399
 3766SOL     OW11863   2.181   0.810   6.535
 3766SOL    HW111864   2.274   0.846   6.540
 3766SOL    HW211865   2.175   0.725   6.587
 3767SOL     OW11866   2.201   0.509   6.592
 3767SOL    HW111867   2.149   0.426   6.575
 3767SOL    HW211868   2.278   0.514   6.528
 3768SOL     OW11869   3.000   0.380   7.264
 3768SOL    HW111870   2.955   0.443   7.328
 3768SOL    HW211871   3.093   0.411   7.247
 3769SOL     OW11872   3.022   0.207   7.063
 3769SOL    HW111873   3.022   0.271   7.140
 3769SOL    HW211874   3.050   0.255   6.980
 3770SOL     OW11875   1.870   1.326   5.786
 3770SOL    HW111876   1.777   1.347   5.755
 3770SOL    HW211877   1.880   1.227   5.799
 3771SOL     OW11878   2.864   0.796   6.824
 3771SOL    HW111879   2.905   0.764   6.910
 3771SOL    HW211880   2.768   0.769   6.821
 3772SOL     OW11881   1.902   0.544   6.700
 3772SOL    HW111882   1.987   0.511   6.659
 3772SOL    HW211883   1.915   0.559   6.798
 3773SOL     OW11884   2.051   0.520   7.308
 3773SOL    HW111885   2.110   0.480   7.238
 3773SOL    HW211886   1.993   0.591   7.267
 3774SOL     OW11887   3.231   0.950   7.246
 3774SOL    HW111888   3.270   1.039   7.266
 3774SOL    HW211889   3.241   0.930   7.149
 3775SOL     OW11890   2.677   0.572   5.911
 3775SOL    HW111891   2.684   0.483   5.865
 3775SOL    HW211892   2.583   0.606   5.903
 3776SOL     OW11893   3.519   0.604   6.792
 3776SOL    HW111894   3.481   0.535   6.854
 3776SOL    HW211895   3.601   0.568   6.748
 3777SOL     OW11896   2.114   1.564   7.330
 3777SOL    HW111897   2.084   1.621   7.406
 3777SOL    HW211898   2.107   1.467   7.356
 3778SOL     OW11899   2.533   0.464   6.855
 3778SOL    HW111900   2.499   0.375   6.825
 3778SOL    HW211901   2.559   0.518   6.775
 3779SOL     OW11902   2.792   1.678   7.051
 3779SOL    HW111903   2.768   1.660   6.956
 3779SOL    HW211904   2.822   1.772   7.061
 3780SOL     OW11905   2.335   0.500   5.777
 3780SOL    HW111906   2.396   0.580   5.781
 3780SOL    HW211907   2.240   0.531   5.784
 3781SOL     OW11908   2.021   1.137   7.052
 3781SOL    HW111909   2.043   1.076   7.128
 3781SOL    HW211910   2.031   1.088   6.966
 3782SOL     OW11911   3.209   1.059   6.820
 3782SOL    HW111912   3.233   0.996   6.746
 3782SOL    HW211913   3.119   1.099   6.802
 3783SOL     OW11914   3.164   0.855   5.895
 3783SOL    HW111915   3.078   0.824   5.937
 3783SOL    HW211916   3.160   0.841   5.796
 3784SOL     OW11917   3.621   1.747   6.740
 3784SOL    HW111918   3.682   1.777   6.667
 3784SOL    HW211919   3.583   1.658   6.718
 3785SOL     OW11920   3.114   1.731   6.714
 3785SOL    HW111921   3.198   1.736   6.660
 3785SOL    HW211922   3.091   1.635   6.732
 3786SOL     OW11923   1.945   1.258   6.608
 3786SOL    HW111924   1.940   1.257   6.708
 3786SOL    HW211925   1.862   1.217   6.570
 3787SOL     OW11926   2.550   1.662   7.302
 3787SOL    HW111927   2.494   1.743   7.311
 3787SOL    HW211928   2.602   1.666   7.216
 3788SOL     OW11929   3.588   0.135   6.109
 3788SOL    HW111930   3.661   0.118   6.042
 3788SOL    HW211931   3.557   0.048   6.147
 3789SOL     OW11932   3.250   1.573   6.063
 3789SOL    HW111933   3.317   1.585   5.989
 3789SOL    HW211934   3.210   1.662   6.086
 3790SOL     OW11935   1.992   1.794   7.437
 3790SOL    HW111936   1.951   1.720   7.490
 3790SOL    HW211937   2.056   1.845   7.495
 3791SOL     OW11938   3.142   0.927   6.258
 3791SOL    HW111939   3.202   0.846   6.260
 3791SOL    HW211940   3.182   0.996   6.198
 3792SOL     OW11941   2.692   1.273   7.008
 3792SOL    HW111942   2.687   1.306   7.103
 3792SOL    HW211943   2.606   1.292   6.962
 3793SOL     OW11944   2.534   1.616   5.740
 3793SOL    HW111945   2.543   1.626   5.641
 3793SOL    HW211946   2.494   1.527   5.761
 3794SOL     OW11947   3.512   1.720   6.980
 3794SOL    HW111948   3.565   1.730   6.896
 3794SOL    HW211949   3.485   1.810   7.014
 3795SOL     OW11950   3.703   0.175   6.549
 3795SOL    HW111951   3.742   0.090   6.513
 3795SOL    HW211952   3.605   0.177   6.530
 3796SOL     OW11953   2.125   0.326   6.306
 3796SOL    HW111954   2.046   0.377   6.272
 3796SOL    HW211955   2.116   0.311   6.404
 3797SOL     OW11956   3.056   1.612   5.617
 3797SOL    HW111957   3.062   1.519   5.654
 3797SOL    HW211958   2.997   1.612   5.537
 3798SOL     OW11959   2.684   1.002   6.958
 3798SOL    HW111960   2.724   1.001   6.866
 3798SOL    HW211961   2.694   1.094   6.998
 3799SOL     OW11962   2.778   0.910   5.877
 3799SOL    HW111963   2.841   0.948   5.809
 3799SOL    HW211964   2.818   0.827   5.916
 3800SOL     OW11965   3.366   1.607   5.630
 3800SOL    HW111966   3.274   1.644   5.637
 3800SOL    HW211967   3.404   1.627   5.540
 3801SOL     OW11968   2.234   1.288   7.076
 3801SOL    HW111969   2.221   1.381   7.042
 3801SOL    HW211970   2.150   1.236   7.063
 3802SOL     OW11971   3.476   1.292   6.875
 3802SOL    HW111972   3.536   1.295   6.955
 3802SOL    HW211973   3.401   1.356   6.888
 3803SOL     OW11974   2.901   1.098   6.282
 3803SOL    HW111975   2.831   1.051   6.336
 3803SOL    HW211976   2.960   1.030   6.239
 3804SOL     OW11977   2.876   0.236   6.557
 3804SOL    HW111978   2.868   0.200   6.464
 3804SOL    HW211979   2.874   0.160   6.622
 3805SOL     OW11980   3.571   0.385   6.967
 3805SOL    HW111981   3.644   0.454   6.971
 3805SOL    HW211982   3.599   0.310   6.908
 3806SOL     OW11983   2.117   1.348   5.876
 3806SOL    HW111984   2.021   1.349   5.849
 3806SOL    HW211985   2.129   1.401   5.960
 3807SOL     OW11986   1.967   1.013   7.312
 3807SOL    HW111987   1.890   0.980   7.366
 3807SOL    HW211988   2.052   0.983   7.354
 3808SOL     OW11989   2.534   0.203   7.075
 3808SOL    HW111990   2.624   0.187   7.035
 3808SOL    HW211991   2.542   0.208   7.174
 3809SOL     OW11992   1.937   0.345   5.619
 3809SOL    HW111993   1.845   0.317   5.590
 3809SOL    HW211994   1.968   0.422   5.563
 3810SOL     OW11995   3.302   0.856   6.984
 3810SOL    HW111996   3.245   0.908   6.921
 3810SOL    HW211997   3.398   0.868   6.960
 3811SOL     OW11998   1.934   0.166   5.904
 3811SOL    HW111999   1.917   0.249   5.850
 3811SOL    HW212000   2.024   0.129   5.882
 3812SOL     OW12001   3.045   1.335   5.705
 3812SOL    HW112002   2.946   1.324   5.707
 3812SOL    HW212003   3.079   1.350   5.798
 3813SOL     OW12004   2.475   0.842   7.017
 3813SOL    HW112005   2.531   0.923   7.000
 3813SOL    HW212006   2.534   0.762   7.020
 3814SOL     OW12007   3.355   1.767   6.545
 3814SOL    HW112008   3.388   1.831   6.476
 3814SOL    HW212009   3.421   1.761   6.620
 3815SOL     OW12010   2.578   0.565   7.294
 3815SOL    HW112011   2.597   0.630   7.368
 3815SOL    HW212012   2.638   0.485   7.303
 3816SOL     OW12013   3.312   1.220   7.219
 3816SOL    HW112014   3.303   1.210   7.318
 3816SOL    HW212015   3.408   1.213   7.193
 3817SOL     OW12016   2.252   1.741   7.146
 3817SOL    HW112017   2.161   1.782   7.144
 3817SOL    HW212018   2.245   1.647   7.178
 3818SOL     OW12019   3.536   0.883   6.840
 3818SOL    HW112020   3.509   0.794   6.803
 3818SOL    HW212021   3.537   0.951   6.767
 3819SOL     OW12022   3.087   0.325   6.035
 3819SOL    HW112023   3.152   0.251   6.024
 3819SOL    HW212024   3.107   0.375   6.119
 3820SOL     OW12025   2.456   0.745   6.238
 3820SOL    HW112026   2.506   0.830   6.219
 3820SOL    HW212027   2.368   0.747   6.190
 3821SOL     OW12028   3.639   0.342   7.228
 3821SOL    HW112029   3.622   0.373   7.134
 3821SOL    HW212030   3.555   0.305   7.266
 3822SOL     OW12031   3.592   0.934   7.103
 3822SOL    HW112032   3.630   1.025   7.118
 3822SOL    HW212033   3.584   0.917   7.004
 3823SOL     OW12034   2.721   1.374   5.602
 3823SOL    HW112035   2.675   1.389   5.690
 3823SOL    HW212036   2.765   1.459   5.572
 3824SOL     OW12037   2.523   1.790   6.539
 3824SOL    HW112038   2.477   1.878   6.526
 3824SOL    HW212039   2.622   1.802   6.532
 3825SOL     OW12040   2.721   0.956   6.447
 3825SOL    HW112041   2.775   0.887   6.495
 3825SOL    HW212042   2.689   1.025   6.513
 3826SOL     OW12043   2.945   0.984   5.673
 3826SOL    HW112044   2.922   1.037   5.591
 3826SOL    HW212045   3.026   0.928   5.654
 3827SOL     OW12046   3.723   1.569   6.437
 3827SOL    HW112047   3.652   1.557   6.367
 3827SOL    HW212048   3.724   1.490   6.497
 3828SOL     OW12049   2.083   1.314   7.430
 3828SOL    HW112050   2.018   1.241   7.409
 3828SOL    HW212051   2.087   1.328   7.528
 3829SOL     OW12052   1.941   1.240   6.239
 3829SOL    HW112053   1.940   1.193   6.327
 3829SOL    HW212054   2.023   1.212   6.188
 3830SOL     OW12055   2.534   1.391   7.210
 3830SOL    HW112056   2.456   1.341   7.248
 3830SOL    HW212057   2.531   1.486   7.241
 3831SOL     OW12058   3.686   0.192   6.813
 3831SOL    HW112059   3.682   0.102   6.857
 3831SOL    HW212060   3.689   0.181   6.714
 3832SOL     OW12061   2.290   0.424   6.106
 3832SOL    HW112062   2.320   0.352   6.044
 3832SOL    HW212063   2.251   0.384   6.189
 3833SOL     OW12064   3.567   1.487   6.690
 3833SOL    HW112065   3.474   1.462   6.663
 3833SOL    HW212066   3.593   1.437   6.772
 3834SOL     OW12067   2.179   0.547   6.866
 3834SOL    HW112068   2.217   0.488   6.938
 3834SOL    HW212069   2.219   0.521   6.778
 3835SOL     OW12070   3.286   0.214   6.698
 3835SOL    HW112071   3.338   0.149   6.753
 3835SOL    HW212072   3.237   0.277   6.759
 3836SOL     OW12073   2.863   0.034   6.740
 3836SOL    HW112074   2.800  -0.038   6.709
 3836SOL    HW212075   2.956  -0.002   6.740
 3837SOL     OW12076   2.632   1.330   5.887
 3837SOL    HW112077   2.586   1.243   5.904
 3837SOL    HW212078   2.723   1.327   5.928
 3838SOL     OW12079   2.480   1.567   6.870
 3838SOL    HW112080   2.475   1.649   6.927
 3838SOL    HW212081   2.569   1.564   6.825
 3839SOL     OW12082   3.214   0.052   5.754
 3839SOL    HW112083   3.249   0.011   5.670
 3839SOL    HW212084   3.124   0.014   5.774
 3840SOL     OW12085   3.162   0.453   6.277
 3840SOL    HW112086   3.103   0.533   6.281
 3840SOL    HW212087   3.177   0.418   6.370
 3841SOL     OW12088   3.455   0.221   6.468
 3841SOL    HW112089   3.371   0.220   6.522
 3841SOL    HW212090   3.457   0.304   6.412
 3842SOL     OW12091   1.901   1.077   5.886
 3842SOL    HW112092   2.000   1.066   5.877
 3842SOL    HW212093   1.861   0.991   5.918
 3843SOL     OW12094   2.092   0.628   7.561
 3843SOL    HW112095   1.999   0.626   7.598
 3843SOL    HW212096   2.093   0.589   7.469
 3844SOL     OW12097   2.087   0.275   8.444
 3844SOL    HW112098   2.122   0.258   8.536
 3844SOL    HW212099   1.999   0.230   8.432
 3845SOL     OW12100   1.881   0.368   8.095
 3845SOL    HW112101   1.799   0.411   8.134
 3845SOL    HW212102   1.853   0.295   8.032
 3846SOL     OW12103   2.431   1.275   8.613
 3846SOL    HW112104   2.338   1.268   8.576
 3846SOL    HW212105   2.442   1.364   8.657
 3847SOL     OW12106   3.417   1.511   8.151
 3847SOL    HW112107   3.360   1.495   8.232
 3847SOL    HW212108   3.358   1.521   8.071
 3848SOL     OW12109   2.997   0.703   8.165
 3848SOL    HW112110   3.054   0.781   8.140
 3848SOL    HW212111   2.937   0.729   8.241
 3849SOL     OW12112   3.617   0.607   7.679
 3849SOL    HW112113   3.605   0.594   7.580
 3849SOL    HW212114   3.587   0.526   7.728
 3850SOL     OW12115   2.630   1.144   8.471
 3850SOL    HW112116   2.552   1.161   8.531
 3850SOL    HW212117   2.664   1.231   8.435
 3851SOL     OW12118   2.712   0.798   9.271
 3851SOL    HW112119   2.708   0.874   9.336
 3851SOL    HW212120   2.734   0.834   9.180
 3852SOL     OW12121   2.547   1.012   8.113
 3852SOL    HW112122   2.616   0.996   8.183
 3852SOL    HW212123   2.474   1.069   8.151
 3853SOL     OW12124   2.548   1.161   9.251
 3853SOL    HW112125   2.608   1.240   9.265
 3853SOL    HW212126   2.462   1.192   9.210
 3854SOL     OW12127   2.197   1.435   8.509
 3854SOL    HW112128   2.119   1.404   8.456
 3854SOL    HW212129   2.255   1.493   8.452
 3855SOL     OW12130   3.322   1.505   8.787
 3855SOL    HW112131   3.346   1.599   8.813
 3855SOL    HW212132   3.306   1.451   8.869
 3856SOL     OW12133   2.300   0.392   8.947
 3856SOL    HW112134   2.382   0.336   8.956
 3856SOL    HW212135   2.219   0.334   8.951
 3857SOL     OW12136   3.465   0.447   8.185
 3857SOL    HW112137   3.391   0.493   8.135
 3857SOL    HW212138   3.516   0.515   8.238
 3858SOL     OW12139   2.093   1.713   7.931
 3858SOL    HW112140   2.127   1.790   7.985
 3858SOL    HW212141   2.137   1.713   7.841
 3859SOL     OW12142   2.989   1.341   9.138
 3859SOL    HW112143   3.036   1.341   9.226
 3859SOL    HW212144   2.941   1.254   9.127
 3860SOL     OW12145   2.092   1.434   7.986
 3860SOL    HW112146   2.066   1.530   7.986
 3860SOL    HW212147   2.021   1.380   8.031
 3861SOL     OW12148   2.102   1.091   8.334
 3861SOL    HW112149   2.116   1.007   8.386
 3861SOL    HW212150   2.047   1.155   8.389
 3862SOL     OW12151   2.482   1.786   8.887
 3862SOL    HW112152   2.390   1.769   8.922
 3862SOL    HW212153   2.510   1.878   8.913
 3863SOL     OW12154   2.468   0.964   7.571
 3863SOL    HW112155   2.475   1.048   7.517
 3863SOL    HW212156   2.514   0.977   7.659
 3864SOL     OW12157   3.456   0.114   8.928
 3864SOL    HW112158   3.438   0.181   8.856
 3864SOL    HW212159   3.453   0.160   9.017
 3865SOL     OW12160   1.984   0.643   8.011
 3865SOL    HW112161   1.939   0.555   8.028
 3865SOL    HW212162   1.983   0.697   8.095
 3866SOL     OW12163   3.704   1.767   7.807
 3866SOL    HW112164   3.758   1.738   7.887
 3866SOL    HW212165   3.734   1.857   7.778
 3867SOL     OW12166   1.889   1.596   7.565
 3867SOL    HW112167   1.870   1.500   7.586
 3867SOL    HW212168   1.856   1.654   7.640
 3868SOL     OW12169   3.551   0.922   8.060
 3868SOL    HW112170   3.646   0.893   8.068
 3868SOL    HW212171   3.543   0.987   7.985
 3869SOL     OW12172   3.503   1.108   7.880
 3869SOL    HW112173   3.589   1.110   7.828
 3869SOL    HW212174   3.517   1.155   7.968
 3870SOL     OW12175   1.975   0.737   9.045
 3870SOL    HW112176   2.063   0.724   9.090
 3870SOL    HW212177   1.962   0.834   9.023
 3871SOL     OW12178   2.475   1.365   8.174
 3871SOL    HW112179   2.426   1.278   8.183
 3871SOL    HW212180   2.452   1.408   8.087
 3872SOL     OW12181   3.155   1.228   8.871
 3872SOL    HW112182   3.192   1.155   8.813
 3872SOL    HW212183   3.207   1.233   8.956
 3873SOL     OW12184   2.671   0.004   7.950
 3873SOL    HW112185   2.711   0.095   7.941
 3873SOL    HW212186   2.571   0.012   7.956
 3874SOL     OW12187   2.059   0.976   8.712
 3874SOL    HW112188   2.148   0.931   8.698
 3874SOL    HW212189   1.986   0.911   8.693
 3875SOL     OW12190   3.387   0.999   7.638
 3875SOL    HW112191   3.324   0.923   7.651
 3875SOL    HW212192   3.435   1.017   7.724
 3876SOL     OW12193   3.049   1.792   9.064
 3876SOL    HW112194   3.073   1.852   8.988
 3876SOL    HW212195   3.056   1.697   9.034
 3877SOL     OW12196   2.179   0.251   9.249
 3877SOL    HW112197   2.250   0.322   9.255
 3877SOL    HW212198   2.091   0.290   9.277
 3878SOL     OW12199   3.328   1.417   8.401
 3878SOL    HW112200   3.269   1.423   8.481
 3878SOL    HW212201   3.313   1.329   8.355
 3879SOL     OW12202   3.529   1.714   8.020
 3879SOL    HW112203   3.488   1.691   7.932
 3879SOL    HW212204   3.511   1.640   8.085
 3880SOL     OW12205   2.460   0.729   7.718
 3880SOL    HW112206   2.484   0.798   7.650
 3880SOL    HW212207   2.382   0.762   7.772
 3881SOL     OW12208   3.143   0.345   8.392
 3881SOL    HW112209   3.057   0.295   8.379
 3881SOL    HW212210   3.205   0.291   8.448
 3882SOL     OW12211   3.438   1.662   7.755
 3882SOL    HW112212   3.527   1.708   7.758
 3882SOL    HW212213   3.417   1.638   7.660
 3883SOL     OW12214   2.669   0.605   8.913
 3883SOL    HW112215   2.622   0.602   9.002
 3883SOL    HW212216   2.618   0.550   8.847
 3884SOL     OW12217   3.256   0.469   9.122
 3884SOL    HW112218   3.236   0.512   9.210
 3884SOL    HW212219   3.334   0.407   9.131
 3885SOL     OW12220   2.835   0.890   9.020
 3885SOL    HW112221   2.881   0.806   8.991
 3885SOL    HW212222   2.779   0.924   8.945
 3886SOL     OW12223   2.853   0.410   8.690
 3886SOL    HW112224   2.776   0.444   8.744
 3886SOL    HW212225   2.819   0.359   8.611
 3887SOL     OW12226   2.903   0.701   7.877
 3887SOL    HW112227   2.929   0.697   7.973
 3887SOL    HW212228   2.818   0.650   7.863
 3888SOL     OW12229   1.938   0.811   8.237
 3888SOL    HW112230   2.037   0.799   8.246
 3888SOL    HW212231   1.914   0.906   8.258
 3889SOL     OW12232   1.992   1.821   9.019
 3889SOL    HW112233   1.982   1.806   9.118
 3889SOL    HW212234   1.906   1.857   8.983
 3890SOL     OW12235   2.727   0.348   7.643
 3890SOL    HW112236   2.786   0.411   7.594
 3890SOL    HW212237   2.746   0.254   7.614
 3891SOL     OW12238   3.581   0.585   9.279
 3891SOL    HW112239   3.555   0.674   9.243
 3891SOL    HW212240   3.579   0.517   9.206
 3892SOL     OW12241   3.224   1.144   7.993
 3892SOL    HW112242   3.307   1.115   7.945
 3892SOL    HW212243   3.175   1.211   7.937
 3893SOL     OW12244   2.412   0.196   8.333
 3893SOL    HW112245   2.407   0.191   8.433
 3893SOL    HW212246   2.414   0.292   8.304
 3894SOL     OW12247   2.870   1.456   7.925
 3894SOL    HW112248   2.824   1.528   7.873
 3894SOL    HW212249   2.866   1.476   8.023
 3895SOL     OW12250   2.213   1.801   8.301
 3895SOL    HW112251   2.263   1.715   8.307
 3895SOL    HW212252   2.278   1.878   8.298
 3896SOL     OW12253   3.657   1.066   8.321
 3896SOL    HW112254   3.595   1.051   8.245
 3896SOL    HW212255   3.605   1.077   8.406
 3897SOL     OW12256   3.089   1.550   8.954
 3897SOL    HW112257   3.095   1.473   9.018
 3897SOL    HW212258   3.037   1.524   8.874
 3898SOL     OW12259   2.183   0.943   7.690
 3898SOL    HW112260   2.265   0.982   7.648
 3898SOL    HW212261   2.156   0.861   7.641
 3899SOL     OW12262   3.320   0.735   8.176
 3899SOL    HW112263   3.315   0.670   8.251
 3899SOL    HW212264   3.400   0.794   8.189
 3900SOL     OW12265   2.323   1.266   9.175
 3900SOL    HW112266   2.273   1.267   9.089
 3900SOL    HW212267   2.260   1.248   9.251
 3901SOL     OW12268   2.973   1.776   7.685
 3901SOL    HW112269   2.913   1.714   7.735
 3901SOL    HW212270   3.004   1.732   7.600
 3902SOL     OW12271   2.064   0.285   8.946
 3902SOL    HW112272   1.984   0.345   8.933
 3902SOL    HW212273   2.054   0.236   9.032
 3903SOL     OW12274   3.494   1.377   7.529
 3903SOL    HW112275   3.462   1.471   7.519
 3903SOL    HW212276   3.418   1.314   7.517
 3904SOL     OW12277   2.326   1.743   7.771
 3904SOL    HW112278   2.359   1.782   7.857
 3904SOL    HW212279   2.402   1.736   7.706
 3905SOL     OW12280   3.262   0.107   7.874
 3905SOL    HW112281   3.238   0.070   7.784
 3905SOL    HW212282   3.361   0.123   7.878
 3906SOL     OW12283   2.111   1.785   8.689
 3906SOL    HW112284   2.168   1.720   8.739
 3906SOL    HW212285   2.095   1.752   8.596
 3907SOL     OW12286   2.802   1.698   8.352
 3907SOL    HW112287   2.882   1.641   8.373
 3907SOL    HW212288   2.753   1.658   8.275
 3908SOL     OW12289   2.244   0.700   7.928
 3908SOL    HW112290   2.289   0.610   7.925
 3908SOL    HW212291   2.150   0.689   7.961
 3909SOL     OW12292   3.409   0.222   9.177
 3909SOL    HW112293   3.404   0.259   9.269
 3909SOL    HW212294   3.337   0.153   9.165
 3910SOL     OW12295   2.476   0.122   7.565
 3910SOL    HW112296   2.574   0.100   7.572
 3910SOL    HW212297   2.445   0.105   7.472
 3911SOL     OW12298   2.643   0.264   9.197
 3911SOL    HW112299   2.710   0.203   9.240
 3911SOL    HW212300   2.570   0.283   9.262
 3912SOL     OW12301   2.750   1.514   8.643
 3912SOL    HW112302   2.727   1.489   8.549
 3912SOL    HW212303   2.811   1.445   8.682
 3913SOL     OW12304   3.213   0.590   8.881
 3913SOL    HW112305   3.241   0.547   8.966
 3913SOL    HW212306   3.238   0.686   8.882
 3914SOL     OW12307   2.665   1.402   8.372
 3914SOL    HW112308   2.755   1.416   8.330
 3914SOL    HW212309   2.594   1.404   8.301
 3915SOL     OW12310   2.784   0.503   8.347
 3915SOL    HW112311   2.759   0.494   8.251
 3915SOL    HW212312   2.832   0.421   8.378
 3916SOL     OW12313   2.401   0.064   7.960
 3916SOL    HW112314   2.320   0.065   8.018
 3916SOL    HW212315   2.404   0.147   7.905
 3917SOL     OW12316   3.296   1.188   7.489
 3917SOL    HW112317   3.328   1.112   7.546
 3917SOL    HW212318   3.204   1.215   7.519
 3918SOL     OW12319   2.159   0.035   7.619
 3918SOL    HW112320   2.208   0.119   7.598
 3918SOL    HW212321   2.221  -0.030   7.664
 3919SOL     OW12322   2.797   0.236   7.928
 3919SOL    HW112323   2.749   0.277   7.850
 3919SOL    HW212324   2.896   0.234   7.909
 3920SOL     OW12325   2.938   0.683   8.912
 3920SOL    HW112326   2.858   0.622   8.915
 3920SOL    HW212327   3.019   0.630   8.888
 3921SOL     OW12328   3.089   1.570   8.241
 3921SOL    HW112329   3.110   1.644   8.176
 3921SOL    HW212330   3.157   1.570   8.314
 3922SOL     OW12331   2.321   1.152   8.189
 3922SOL    HW112332   2.250   1.125   8.254
 3922SOL    HW212333   2.295   1.124   8.096
 3923SOL     OW12334   3.133   1.797   8.039
 3923SOL    HW112335   3.177   1.861   7.975
 3923SOL    HW212336   3.083   1.849   8.109
 3924SOL     OW12337   2.894   0.549   7.464
 3924SOL    HW112338   2.853   0.631   7.425
 3924SOL    HW212339   2.958   0.575   7.537
 3925SOL     OW12340   1.940   0.556   8.834
 3925SOL    HW112341   2.032   0.555   8.793
 3925SOL    HW212342   1.934   0.630   8.901
 3926SOL     OW12343   2.423   0.222   8.595
 3926SOL    HW112344   2.461   0.138   8.632
 3926SOL    HW212345   2.335   0.241   8.639
 3927SOL     OW12346   2.728   0.454   8.090
 3927SOL    HW112347   2.696   0.526   8.028
 3927SOL    HW212348   2.752   0.373   8.037
 3928SOL     OW12349   2.879   0.039   8.201
 3928SOL    HW112350   2.807   0.044   8.132
 3928SOL    HW212351   2.855  -0.030   8.270
 3929SOL     OW12352   3.291   1.173   8.315
 3929SOL    HW112353   3.236   1.089   8.308
 3929SOL    HW212354   3.317   1.202   8.223
 3930SOL     OW12355   3.328   0.590   8.440
 3930SOL    HW112356   3.298   0.495   8.447
 3930SOL    HW212357   3.401   0.606   8.506
 3931SOL     OW12358   3.719   0.833   7.825
 3931SOL    HW112359   3.761   0.769   7.889
 3931SOL    HW212360   3.681   0.782   7.747
 3932SOL     OW12361   2.350   1.385   7.622
 3932SOL    HW112362   2.263   1.370   7.669
 3932SOL    HW212363   2.333   1.411   7.527
 3933SOL     OW12364   3.526   1.280   8.105
 3933SOL    HW112365   3.625   1.288   8.119
 3933SOL    HW212366   3.481   1.364   8.136
 3934SOL     OW12367   3.252   0.575   7.526
 3934SOL    HW112368   3.198   0.554   7.607
 3934SOL    HW212369   3.343   0.534   7.535
 3935SOL     OW12370   2.389   0.256   7.776
 3935SOL    HW112371   2.416   0.197   7.701
 3935SOL    HW212372   2.389   0.351   7.745
 3936SOL     OW12373   3.616   1.223   9.036
 3936SOL    HW112374   3.707   1.184   9.023
 3936SOL    HW212375   3.624   1.319   9.060
 3937SOL     OW12376   2.926   1.347   8.788
 3937SOL    HW112377   2.846   1.324   8.843
 3937SOL    HW212378   3.009   1.321   8.837
 3938SOL     OW12379   3.454   1.629   9.073
 3938SOL    HW112380   3.481   1.663   8.983
 3938SOL    HW212381   3.533   1.591   9.119
 3939SOL     OW12382   2.973   1.195   8.548
 3939SOL    HW112383   2.933   1.239   8.629
 3939SOL    HW212384   2.932   1.232   8.465
 3940SOL     OW12385   3.500   1.099   8.527
 3940SOL    HW112386   3.505   1.180   8.586
 3940SOL    HW212387   3.414   1.101   8.476
 3941SOL     OW12388   2.777   0.089   8.850
 3941SOL    HW112389   2.802   0.069   8.755
 3941SOL    HW212390   2.849   0.145   8.892
 3942SOL     OW12391   2.842   1.116   9.167
 3942SOL    HW112392   2.743   1.122   9.177
 3942SOL    HW212393   2.865   1.036   9.111
 3943SOL     OW12394   2.567   1.050   7.816
 3943SOL    HW112395   2.553   1.057   7.915
 3943SOL    HW212396   2.651   0.999   7.798
 3944SOL     OW12397   2.272   0.813   8.699
 3944SOL    HW112398   2.358   0.825   8.749
 3944SOL    HW212399   2.230   0.726   8.726
 3945SOL     OW12400   3.136   0.386   8.710
 3945SOL    HW112401   3.157   0.460   8.774
 3945SOL    HW212402   3.047   0.403   8.667
 3946SOL     OW12403   1.926   1.564   8.779
 3946SOL    HW112404   1.880   1.646   8.745
 3946SOL    HW212405   2.024   1.583   8.788
 3947SOL     OW12406   2.229   1.100   7.949
 3947SOL    HW112407   2.222   1.183   7.893
 3947SOL    HW212408   2.233   1.020   7.889
 3948SOL     OW12409   2.428   0.537   8.313
 3948SOL    HW112410   2.440   0.603   8.239
 3948SOL    HW212411   2.474   0.571   8.396
 3949SOL     OW12412   3.114   1.348   7.836
 3949SOL    HW112413   3.164   1.425   7.876
 3949SOL    HW212414   3.019   1.350   7.868
 3950SOL     OW12415   3.134   1.445   8.590
 3950SOL    HW112416   3.181   1.458   8.677
 3950SOL    HW212417   3.068   1.371   8.599
 3951SOL     OW12418   3.444   0.639   7.920
 3951SOL    HW112419   3.413   0.700   7.993
 3951SOL    HW212420   3.494   0.691   7.851
 3952SOL     OW12421   2.216   1.510   8.777
 3952SOL    HW112422   2.195   1.466   8.690
 3952SOL    HW212423   2.313   1.536   8.780
 3953SOL     OW12424   2.264   0.751   9.046
 3953SOL    HW112425   2.332   0.806   8.999
 3953SOL    HW212426   2.304   0.663   9.073
 3954SOL     OW12427   3.449   0.779   9.118
 3954SOL    HW112428   3.357   0.817   9.113
 3954SOL    HW212429   3.509   0.826   9.053
 3955SOL     OW12430   2.875   0.105   9.218
 3955SOL    HW112431   2.881   0.190   9.166
 3955SOL    HW212432   2.907   0.029   9.161
 3956SOL     OW12433   2.366   0.050   9.188
 3956SOL    HW112434   2.324  -0.007   9.118
 3956SOL    HW212435   2.300   0.119   9.220
 3957SOL     OW12436   2.435   0.870   8.477
 3957SOL    HW112437   2.479   0.959   8.468
 3957SOL    HW212438   2.372   0.870   8.554
 3958SOL     OW12439   3.222   0.862   8.493
 3958SOL    HW112440   3.147   0.862   8.427
 3958SOL    HW212441   3.259   0.770   8.502
 3959SOL     OW12442   3.071   0.525   7.723
 3959SOL    HW112443   3.084   0.441   7.777
 3959SOL    HW212444   3.042   0.599   7.783
 3960SOL     OW12445   2.169   0.213   8.679
 3960SOL    HW112446   2.146   0.250   8.769
 3960SOL    HW212447   2.139   0.118   8.673
 3961SOL     OW12448   1.899   1.310   8.730
 3961SOL    HW112449   1.952   1.261   8.798
 3961SOL    HW212450   1.921   1.408   8.735
 3962SOL     OW12451   2.594   0.634   8.512
 3962SOL    HW112452   2.653   0.608   8.436
 3962SOL    HW212453   2.566   0.730   8.501
 3963SOL     OW12454   3.590   0.935   9.302
 3963SOL    HW112455   3.544   0.928   9.213
 3963SOL    HW212456   3.528   0.979   9.368
 3964SOL     OW12457   2.169   0.063   8.066
 3964SOL    HW112458   2.158   0.157   8.099
 3964SOL    HW212459   2.164   0.000   8.143
 3965SOL     OW12460   3.484   0.367   7.822
 3965SOL    HW112461   3.486   0.291   7.886
 3965SOL    HW212462   3.436   0.444   7.862
 3966SOL     OW12463   2.885   0.766   8.414
 3966SOL    HW112464   2.900   0.787   8.510
 3966SOL    HW212465   2.855   0.671   8.405
 3967SOL     OW12466   2.842   1.573   9.148
 3967SOL    HW112467   2.822   1.617   9.060
 3967SOL    HW212468   2.881   1.482   9.132
 3968SOL     OW12469   3.721   1.518   9.053
 3968SOL    HW112470   3.735   1.545   8.958
 3968SOL    HW212471   3.804   1.540   9.106
 3969SOL     OW12472   2.212   0.898   9.252
 3969SOL    HW112473   2.288   0.942   9.300
 3969SOL    HW212474   2.247   0.851   9.170
 3970SOL     OW12475   3.402   0.274   7.573
 3970SOL    HW112476   3.341   0.199   7.596
 3970SOL    HW212477   3.424   0.326   7.656
 3971SOL     OW12478   3.165   0.838   7.490
 3971SOL    HW112479   3.199   0.745   7.505
 3971SOL    HW212480   3.183   0.865   7.395
 3972SOL     OW12481   2.930   1.333   8.297
 3972SOL    HW112482   2.937   1.249   8.242
 3972SOL    HW212483   2.992   1.402   8.261
 3973SOL     OW12484   2.181   0.810   8.397
 3973SOL    HW112485   2.274   0.846   8.402
 3973SOL    HW212486   2.175   0.725   8.449
 3974SOL     OW12487   2.201   0.509   8.454
 3974SOL    HW112488   2.149   0.426   8.437
 3974SOL    HW212489   2.278   0.514   8.390
 3975SOL     OW12490   3.000   0.380   9.126
 3975SOL    HW112491   2.955   0.443   9.190
 3975SOL    HW212492   3.093   0.411   9.109
 3976SOL     OW12493   3.022   0.207   8.925
 3976SOL    HW112494   3.022   0.271   9.002
 3976SOL    HW212495   3.050   0.255   8.842
 3977SOL     OW12496   1.870   1.326   7.648
 3977SOL    HW112497   1.777   1.347   7.617
 3977SOL    HW212498   1.880   1.227   7.661
 3978SOL     OW12499   1.950   1.801   8.375
 3978SOL    HW112500   1.908   1.715   8.348
 3978SOL    HW212501   2.044   1.804   8.341
 3979SOL     OW12502   2.366   1.568   8.358
 3979SOL    HW112503   2.432   1.642   8.367
 3979SOL    HW212504   2.410   1.489   8.316
 3980SOL     OW12505   2.864   0.796   8.686
 3980SOL    HW112506   2.905   0.764   8.772
 3980SOL    HW212507   2.768   0.769   8.683
 3981SOL     OW12508   1.902   0.544   8.562
 3981SOL    HW112509   1.987   0.511   8.521
 3981SOL    HW212510   1.915   0.559   8.660
 3982SOL     OW12511   2.051   0.520   9.170
 3982SOL    HW112512   2.110   0.480   9.100
 3982SOL    HW212513   1.993   0.591   9.129
 3983SOL     OW12514   3.231   0.950   9.108
 3983SOL    HW112515   3.270   1.039   9.128
 3983SOL    HW212516   3.241   0.930   9.011
 3984SOL     OW12517   2.677   0.572   7.773
 3984SOL    HW112518   2.684   0.483   7.727
 3984SOL    HW212519   2.583   0.606   7.765
 3985SOL     OW12520   3.519   0.604   8.654
 3985SOL    HW112521   3.481   0.535   8.716
 3985SOL    HW212522   3.601   0.568   8.610
 3986SOL     OW12523   2.114   1.564   9.192
 3986SOL    HW112524   2.084   1.621   9.268
 3986SOL    HW212525   2.107   1.467   9.218
 3987SOL     OW12526   2.533   0.464   8.717
 3987SOL    HW112527   2.499   0.375   8.687
 3987SOL    HW212528   2.559   0.518   8.637
 3988SOL     OW12529   2.792   1.678   8.913
 3988SOL    HW112530   2.768   1.660   8.818
 3988SOL    HW212531   2.822   1.772   8.923
 3989SOL     OW12532   2.335   0.500   7.639
 3989SOL    HW112533   2.396   0.580   7.643
 3989SOL    HW212534   2.240   0.531   7.646
 3990SOL     OW12535   2.021   1.137   8.914
 3990SOL    HW112536   2.043   1.076   8.990
 3990SOL    HW212537   2.031   1.088   8.828
 3991SOL     OW12538   3.209   1.059   8.682
 3991SOL    HW112539   3.233   0.996   8.608
 3991SOL    HW212540   3.119   1.099   8.664
 3992SOL     OW12541   3.164   0.855   7.757
 3992SOL    HW112542   3.078   0.824   7.799
 3992SOL    HW212543   3.160   0.841   7.658
 3993SOL     OW12544   3.621   1.747   8.602
 3993SOL    HW112545   3.682   1.777   8.529
 3993SOL    HW212546   3.583   1.658   8.580
 3994SOL     OW12547   3.114   1.731   8.576
 3994SOL    HW112548   3.198   1.736   8.522
 3994SOL    HW212549   3.091   1.635   8.594
 3995SOL     OW12550   1.945   1.258   8.470
 3995SOL    HW112551   1.940   1.257   8.570
 3995SOL    HW212552   1.862   1.217   8.432
 3996SOL     OW12553   2.550   1.662   9.164
 3996SOL    HW112554   2.494   1.743   9.173
 3996SOL    HW212555   2.602   1.666   9.078
 3997SOL     OW12556   3.588   0.135   7.971
 3997SOL    HW112557   3.661   0.118   7.904
 3997SOL    HW212558   3.557   0.048   8.009
 3998SOL     OW12559   3.250   1.573   7.925
 3998SOL    HW112560   3.317   1.585   7.851
 3998SOL    HW212561   3.210   1.662   7.948
 3999SOL     OW12562   1.992   1.794   9.299
 3999SOL    HW112563   1.951   1.720   9.352
 3999SOL    HW212564   2.056   1.845   9.357
 4000SOL     OW12565   3.142   0.927   8.120
 4000SOL    HW112566   3.202   0.846   8.122
 4000SOL    HW212567   3.182   0.996   8.060
 4001SOL     OW12568   2.692   1.273   8.870
 4001SOL    HW112569   2.687   1.306   8.965
 4001SOL    HW212570   2.606   1.292   8.824
 4002SOL     OW12571   2.534   1.616   7.602
 4002SOL    HW112572   2.543   1.626   7.503
 4002SOL    HW212573   2.494   1.527   7.623
 4003SOL     OW12574   3.512   1.720   8.842
 4003SOL    HW112575   3.565   1.730   8.758
 4003SOL    HW212576   3.485   1.810   8.876
 4004SOL     OW12577   3.703   0.175   8.411
 4004SOL    HW112578   3.742   0.090   8.375
 4004SOL    HW212579   3.605   0.177   8.392
 4005SOL     OW12580   2.125   0.326   8.168
 4005SOL    HW112581   2.046   0.377   8.134
 4005SOL    HW212582   2.116   0.311   8.266
 4006SOL     OW12583   3.056   1.612   7.479
 4006SOL    HW112584   3.062   1.519   7.516
 4006SOL    HW212585   2.997   1.612   7.399
 4007SOL     OW12586   2.684   1.002   8.820
 4007SOL    HW112587   2.724   1.001   8.728
 4007SOL    HW212588   2.694   1.094   8.860
 4008SOL     OW12589   2.778   0.910   7.739
 4008SOL    HW112590   2.841   0.948   7.671
 4008SOL    HW212591   2.818   0.827   7.778
 4009SOL     OW12592   3.366   1.607   7.492
 4009SOL    HW112593   3.274   1.644   7.499
 4009SOL    HW212594   3.404   1.627   7.402
 4010SOL     OW12595   2.234   1.288   8.938
 4010SOL    HW112596   2.221   1.381   8.904
 4010SOL    HW212597   2.150   1.236   8.925
 4011SOL     OW12598   3.476   1.292   8.737
 4011SOL    HW112599   3.536   1.295   8.817
 4011SOL    HW212600   3.401   1.356   8.750
 4012SOL     OW12601   2.901   1.098   8.144
 4012SOL    HW112602   2.831   1.051   8.198
 4012SOL    HW212603   2.960   1.030   8.101
 4013SOL     OW12604   2.876   0.236   8.419
 4013SOL    HW112605   2.868   0.200   8.326
 4013SOL    HW212606   2.874   0.160   8.484
 4014SOL     OW12607   2.452   1.487   7.939
 4014SOL    HW112608   2.494   1.429   7.869
 4014SOL    HW212609   2.408   1.566   7.895
 4015SOL     OW12610   3.571   0.385   8.829
 4015SOL    HW112611   3.644   0.454   8.833
 4015SOL    HW212612   3.599   0.310   8.770
 4016SOL     OW12613   2.117   1.348   7.738
 4016SOL    HW112614   2.021   1.349   7.711
 4016SOL    HW212615   2.129   1.401   7.822
 4017SOL     OW12616   1.967   1.013   9.174
 4017SOL    HW112617   1.890   0.980   9.228
 4017SOL    HW212618   2.052   0.983   9.216
 4018SOL     OW12619   2.534   0.203   8.937
 4018SOL    HW112620   2.624   0.187   8.897
 4018SOL    HW212621   2.542   0.208   9.036
 4019SOL     OW12622   1.937   0.345   7.481
 4019SOL    HW112623   1.845   0.317   7.452
 4019SOL    HW212624   1.968   0.422   7.425
 4020SOL     OW12625   3.302   0.856   8.846
 4020SOL    HW112626   3.245   0.908   8.783
 4020SOL    HW212627   3.398   0.868   8.822
 4021SOL     OW12628   1.934   0.166   7.766
 4021SOL    HW112629   1.917   0.249   7.712
 4021SOL    HW212630   2.024   0.129   7.744
 4022SOL     OW12631   3.045   1.335   7.567
 4022SOL    HW112632   2.946   1.324   7.569
 4022SOL    HW212633   3.079   1.350   7.660
 4023SOL     OW12634   2.475   0.842   8.879
 4023SOL    HW112635   2.531   0.923   8.862
 4023SOL    HW212636   2.534   0.762   8.882
 4024SOL     OW12637   3.355   1.767   8.407
 4024SOL    HW112638   3.388   1.831   8.338
 4024SOL    HW212639   3.421   1.761   8.482
 4025SOL     OW12640   2.578   0.565   9.156
 4025SOL    HW112641   2.597   0.630   9.230
 4025SOL    HW212642   2.638   0.485   9.165
 4026SOL     OW12643   3.312   1.220   9.081
 4026SOL    HW112644   3.303   1.210   9.180
 4026SOL    HW212645   3.408   1.213   9.055
 4027SOL     OW12646   2.252   1.741   9.008
 4027SOL    HW112647   2.161   1.782   9.006
 4027SOL    HW212648   2.245   1.647   9.040
 4028SOL     OW12649   3.536   0.883   8.702
 4028SOL    HW112650   3.509   0.794   8.665
 4028SOL    HW212651   3.537   0.951   8.629
 4029SOL     OW12652   3.087   0.325   7.897
 4029SOL    HW112653   3.152   0.251   7.886
 4029SOL    HW212654   3.107   0.375   7.981
 4030SOL     OW12655   2.456   0.745   8.100
 4030SOL    HW112656   2.506   0.830   8.081
 4030SOL    HW212657   2.368   0.747   8.052
 4031SOL     OW12658   3.639   0.342   9.090
 4031SOL    HW112659   3.622   0.373   8.996
 4031SOL    HW212660   3.555   0.305   9.128
 4032SOL     OW12661   3.592   0.934   8.965
 4032SOL    HW112662   3.630   1.025   8.980
 4032SOL    HW212663   3.584   0.917   8.866
 4033SOL     OW12664   2.721   1.374   7.464
 4033SOL    HW112665   2.675   1.389   7.552
 4033SOL    HW212666   2.765   1.459   7.434
 4034SOL     OW12667   2.523   1.790   8.401
 4034SOL    HW112668   2.477   1.878   8.388
 4034SOL    HW212669   2.622   1.802   8.394
 4035SOL     OW12670   2.721   0.956   8.309
 4035SOL    HW112671   2.775   0.887   8.357
 4035SOL    HW212672   2.689   1.025   8.375
 4036SOL     OW12673   2.945   0.984   7.535
 4036SOL    HW112674   2.922   1.037   7.453
 4036SOL    HW212675   3.026   0.928   7.516
 4037SOL     OW12676   3.723   1.569   8.299
 4037SOL    HW112677   3.652   1.557   8.229
 4037SOL    HW212678   3.724   1.490   8.359
 4038SOL     OW12679   2.083   1.314   9.292
 4038SOL    HW112680   2.018   1.241   9.271
 4038SOL    HW212681   2.087   1.328   9.390
 4039SOL     OW12682   1.941   1.240   8.101
 4039SOL    HW112683   1.940   1.193   8.189
 4039SOL    HW212684   2.023   1.212   8.050
 4040SOL     OW12685   2.534   1.391   9.072
 4040SOL    HW112686   2.456   1.341   9.110
 4040SOL    HW212687   2.531   1.486   9.103
 4041SOL     OW12688   3.686   0.192   8.675
 4041SOL    HW112689   3.682   0.102   8.719
 4041SOL    HW212690   3.689   0.181   8.576
 4042SOL     OW12691   2.290   0.424   7.968
 4042SOL    HW112692   2.320   0.352   7.906
 4042SOL    HW212693   2.251   0.384   8.051
 4043SOL     OW12694   3.567   1.487   8.552
 4043SOL    HW112695   3.474   1.462   8.525
 4043SOL    HW212696   3.593   1.437   8.634
 4044SOL     OW12697   2.179   0.547   8.728
 4044SOL    HW112698   2.217   0.488   8.800
 4044SOL    HW212699   2.219   0.521   8.640
 4045SOL     OW12700   2.674   1.586   8.135
 4045SOL    HW112701   2.706   1.596   8.041
 4045SOL    HW212702   2.595   1.524   8.137
 4046SOL     OW12703   3.286   0.214   8.560
 4046SOL    HW112704   3.338   0.149   8.615
 4046SOL    HW212705   3.237   0.277   8.621
 4047SOL     OW12706   2.863   0.034   8.602
 4047SOL    HW112707   2.800  -0.038   8.571
 4047SOL    HW212708   2.956  -0.002   8.602
 4048SOL     OW12709   2.632   1.330   7.749
 4048SOL    HW112710   2.586   1.243   7.766
 4048SOL    HW212711   2.723   1.327   7.790
 4049SOL     OW12712   2.480   1.567   8.732
 4049SOL    HW112713   2.475   1.649   8.789
 4049SOL    HW212714   2.569   1.564   8.687
 4050SOL     OW12715   3.214   0.052   7.616
 4050SOL    HW112716   3.249   0.011   7.532
 4050SOL    HW212717   3.124   0.014   7.636
 4051SOL     OW12718   3.162   0.453   8.139
 4051SOL    HW112719   3.103   0.533   8.143
 4051SOL    HW212720   3.177   0.418   8.232
 4052SOL     OW12721   3.455   0.221   8.330
 4052SOL    HW112722   3.371   0.220   8.384
 4052SOL    HW212723   3.457   0.304   8.274
 4053SOL     OW12724   1.901   1.077   7.748
 4053SOL    HW112725   2.000   1.066   7.739
 4053SOL    HW212726   1.861   0.991   7.780
 4054SOL     OW12727   2.737   1.646   7.785
 4054SOL    HW112728   2.660   1.611   7.731
 4054SOL    HW212729   2.705   1.717   7.847
 4055SOL     OW12730   2.092   0.628   9.423
 4055SOL    HW112731   1.999   0.626   9.460
 4055SOL    HW212732   2.093   0.589   9.331
 4056SOL     OW12733   2.087   0.275  10.306
 4056SOL    HW112734   2.122   0.258  10.398
 4056SOL    HW212735   1.999   0.230  10.294
 4057SOL     OW12736   1.881   0.368   9.957
 4057SOL    HW112737   1.799   0.411   9.996
 4057SOL    HW212738   1.853   0.295   9.894
 4058SOL     OW12739   2.431   1.275  10.475
 4058SOL    HW112740   2.338   1.268  10.438
 4058SOL    HW212741   2.442   1.364  10.519
 4059SOL     OW12742   3.417   1.511  10.013
 4059SOL    HW112743   3.360   1.495  10.094
 4059SOL    HW212744   3.358   1.521   9.933
 4060SOL     OW12745   2.997   0.703  10.027
 4060SOL    HW112746   3.054   0.781  10.002
 4060SOL    HW212747   2.937   0.729  10.103
 4061SOL     OW12748   3.617   0.607   9.541
 4061SOL    HW112749   3.605   0.594   9.442
 4061SOL    HW212750   3.587   0.526   9.590
 4062SOL     OW12751   2.630   1.144  10.333
 4062SOL    HW112752   2.552   1.161  10.393
 4062SOL    HW212753   2.664   1.231  10.297
 4063SOL     OW12754   2.712   0.798  11.133
 4063SOL    HW112755   2.708   0.874  11.198
 4063SOL    HW212756   2.734   0.834  11.042
 4064SOL     OW12757   2.547   1.012   9.975
 4064SOL    HW112758   2.616   0.996  10.045
 4064SOL    HW212759   2.474   1.069  10.013
 4065SOL     OW12760   2.197   1.435  10.371
 4065SOL    HW112761   2.119   1.404  10.318
 4065SOL    HW212762   2.255   1.493  10.314
 4066SOL     OW12763   3.322   1.505  10.649
 4066SOL    HW112764   3.346   1.599  10.675
 4066SOL    HW212765   3.306   1.451  10.731
 4067SOL     OW12766   2.300   0.392  10.809
 4067SOL    HW112767   2.382   0.336  10.818
 4067SOL    HW212768   2.219   0.334  10.813
 4068SOL     OW12769   3.465   0.447  10.047
 4068SOL    HW112770   3.391   0.493   9.997
 4068SOL    HW212771   3.516   0.515  10.100
 4069SOL     OW12772   2.093   1.713   9.793
 4069SOL    HW112773   2.127   1.790   9.847
 4069SOL    HW212774   2.137   1.713   9.703
 4070SOL     OW12775   2.092   1.434   9.848
 4070SOL    HW112776   2.066   1.530   9.848
 4070SOL    HW212777   2.021   1.380   9.893
 4071SOL     OW12778   2.102   1.091  10.196
 4071SOL    HW112779   2.116   1.007  10.248
 4071SOL    HW212780   2.047   1.155  10.251
 4072SOL     OW12781   2.482   1.786  10.749
 4072SOL    HW112782   2.390   1.769  10.784
 4072SOL    HW212783   2.510   1.878  10.775
 4073SOL     OW12784   2.468   0.964   9.433
 4073SOL    HW112785   2.475   1.048   9.379
 4073SOL    HW212786   2.514   0.977   9.521
 4074SOL     OW12787   3.456   0.114  10.790
 4074SOL    HW112788   3.438   0.181  10.718
 4074SOL    HW212789   3.453   0.160  10.879
 4075SOL     OW12790   1.984   0.643   9.873
 4075SOL    HW112791   1.939   0.555   9.890
 4075SOL    HW212792   1.983   0.697   9.957
 4076SOL     OW12793   3.704   1.767   9.669
 4076SOL    HW112794   3.758   1.738   9.749
 4076SOL    HW212795   3.734   1.857   9.640
 4077SOL     OW12796   1.889   1.596   9.427
 4077SOL    HW112797   1.870   1.500   9.448
 4077SOL    HW212798   1.856   1.654   9.502
 4078SOL     OW12799   3.551   0.922   9.922
 4078SOL    HW112800   3.646   0.893   9.930
 4078SOL    HW212801   3.543   0.987   9.847
 4079SOL     OW12802   3.503   1.108   9.742
 4079SOL    HW112803   3.589   1.110   9.690
 4079SOL    HW212804   3.517   1.155   9.830
 4080SOL     OW12805   1.975   0.737  10.907
 4080SOL    HW112806   2.063   0.724  10.952
 4080SOL    HW212807   1.962   0.834  10.885
 4081SOL     OW12808   2.475   1.365  10.036
 4081SOL    HW112809   2.426   1.278  10.045
 4081SOL    HW212810   2.452   1.408   9.949
 4082SOL     OW12811   3.155   1.228  10.733
 4082SOL    HW112812   3.192   1.155  10.675
 4082SOL    HW212813   3.207   1.233  10.818
 4083SOL     OW12814   2.671   0.004   9.812
 4083SOL    HW112815   2.711   0.095   9.803
 4083SOL    HW212816   2.571   0.012   9.818
 4084SOL     OW12817   2.059   0.976  10.574
 4084SOL    HW112818   2.148   0.931  10.560
 4084SOL    HW212819   1.986   0.911  10.555
 4085SOL     OW12820   3.387   0.999   9.500
 4085SOL    HW112821   3.324   0.923   9.513
 4085SOL    HW212822   3.435   1.017   9.586
 4086SOL     OW12823   3.049   1.792  10.926
 4086SOL    HW112824   3.073   1.852  10.850
 4086SOL    HW212825   3.056   1.697  10.896
 4087SOL     OW12826   2.179   0.251  11.111
 4087SOL    HW112827   2.250   0.322  11.117
 4087SOL    HW212828   2.091   0.290  11.139
 4088SOL     OW12829   3.328   1.417  10.263
 4088SOL    HW112830   3.269   1.423  10.343
 4088SOL    HW212831   3.313   1.329  10.217
 4089SOL     OW12832   3.529   1.714   9.882
 4089SOL    HW112833   3.488   1.691   9.794
 4089SOL    HW212834   3.511   1.640   9.947
 4090SOL     OW12835   2.460   0.729   9.580
 4090SOL    HW112836   2.484   0.798   9.512
 4090SOL    HW212837   2.382   0.762   9.634
 4091SOL     OW12838   3.143   0.345  10.254
 4091SOL    HW112839   3.057   0.295  10.241
 4091SOL    HW212840   3.205   0.291  10.310
 4092SOL     OW12841   3.438   1.662   9.617
 4092SOL    HW112842   3.527   1.708   9.620
 4092SOL    HW212843   3.417   1.638   9.522
 4093SOL     OW12844   2.669   0.605  10.775
 4093SOL    HW112845   2.622   0.602  10.864
 4093SOL    HW212846   2.618   0.550  10.709
 4094SOL     OW12847   2.835   0.890  10.882
 4094SOL    HW112848   2.881   0.806  10.853
 4094SOL    HW212849   2.779   0.924  10.807
 4095SOL     OW12850   2.853   0.410  10.552
 4095SOL    HW112851   2.776   0.444  10.606
 4095SOL    HW212852   2.819   0.359  10.473
 4096SOL     OW12853   2.903   0.701   9.739
 4096SOL    HW112854   2.929   0.697   9.835
 4096SOL    HW212855   2.818   0.650   9.725
 4097SOL     OW12856   1.938   0.811  10.099
 4097SOL    HW112857   2.037   0.799  10.108
 4097SOL    HW212858   1.914   0.906  10.120
 4098SOL     OW12859   1.992   1.821  10.881
 4098SOL    HW112860   1.982   1.806  10.980
 4098SOL    HW212861   1.906   1.857  10.845
 4099SOL     OW12862   2.727   0.348   9.505
 4099SOL    HW112863   2.786   0.411   9.456
 4099SOL    HW212864   2.746   0.254   9.476
 4100SOL     OW12865   3.224   1.144   9.855
 4100SOL    HW112866   3.307   1.115   9.807
 4100SOL    HW212867   3.175   1.211   9.799
 4101SOL     OW12868   2.412   0.196  10.195
 4101SOL    HW112869   2.407   0.191  10.295
 4101SOL    HW212870   2.414   0.292  10.166
 4102SOL     OW12871   2.870   1.456   9.787
 4102SOL    HW112872   2.824   1.528   9.735
 4102SOL    HW212873   2.866   1.476   9.885
 4103SOL     OW12874   2.213   1.801  10.163
 4103SOL    HW112875   2.263   1.715  10.169
 4103SOL    HW212876   2.278   1.878  10.160
 4104SOL     OW12877   3.657   1.066  10.183
 4104SOL    HW112878   3.595   1.051  10.107
 4104SOL    HW212879   3.605   1.077  10.268
 4105SOL     OW12880   3.089   1.550  10.816
 4105SOL    HW112881   3.095   1.473  10.880
 4105SOL    HW212882   3.037   1.524  10.736
 4106SOL     OW12883   2.183   0.943   9.552
 4106SOL    HW112884   2.265   0.982   9.510
 4106SOL    HW212885   2.156   0.861   9.503
 4107SOL     OW12886   3.320   0.735  10.038
 4107SOL    HW112887   3.315   0.670  10.113
 4107SOL    HW212888   3.400   0.794  10.051
 4108SOL     OW12889   2.323   1.266  11.037
 4108SOL    HW112890   2.273   1.267  10.951
 4108SOL    HW212891   2.260   1.248  11.113
 4109SOL     OW12892   2.973   1.776   9.547
 4109SOL    HW112893   2.913   1.714   9.597
 4109SOL    HW212894   3.004   1.732   9.462
 4110SOL     OW12895   2.064   0.285  10.808
 4110SOL    HW112896   1.984   0.345  10.795
 4110SOL    HW212897   2.054   0.236  10.894
 4111SOL     OW12898   3.494   1.377   9.391
 4111SOL    HW112899   3.462   1.471   9.381
 4111SOL    HW212900   3.418   1.314   9.379
 4112SOL     OW12901   2.326   1.743   9.633
 4112SOL    HW112902   2.359   1.782   9.719
 4112SOL    HW212903   2.402   1.736   9.568
 4113SOL     OW12904   3.262   0.107   9.736
 4113SOL    HW112905   3.238   0.070   9.646
 4113SOL    HW212906   3.361   0.123   9.740
 4114SOL     OW12907   2.111   1.785  10.551
 4114SOL    HW112908   2.168   1.720  10.601
 4114SOL    HW212909   2.095   1.752  10.458
 4115SOL     OW12910   2.802   1.698  10.214
 4115SOL    HW112911   2.882   1.641  10.235
 4115SOL    HW212912   2.753   1.658  10.137
 4116SOL     OW12913   2.244   0.700   9.790
 4116SOL    HW112914   2.289   0.610   9.787
 4116SOL    HW212915   2.150   0.689   9.823
 4117SOL     OW12916   2.476   0.122   9.427
 4117SOL    HW112917   2.574   0.100   9.434
 4117SOL    HW212918   2.445   0.105   9.334
 4118SOL     OW12919   2.643   0.264  11.059
 4118SOL    HW112920   2.710   0.203  11.102
 4118SOL    HW212921   2.570   0.283  11.124
 4119SOL     OW12922   2.750   1.514  10.505
 4119SOL    HW112923   2.727   1.489  10.411
 4119SOL    HW212924   2.811   1.445  10.544
 4120SOL     OW12925   3.213   0.590  10.743
 4120SOL    HW112926   3.241   0.547  10.828
 4120SOL    HW212927   3.238   0.686  10.744
 4121SOL     OW12928   2.665   1.402  10.234
 4121SOL    HW112929   2.755   1.416  10.192
 4121SOL    HW212930   2.594   1.404  10.163
 4122SOL     OW12931   2.784   0.503  10.209
 4122SOL    HW112932   2.759   0.494  10.113
 4122SOL    HW212933   2.832   0.421  10.240
 4123SOL     OW12934   2.401   0.064   9.822
 4123SOL    HW112935   2.320   0.065   9.880
 4123SOL    HW212936   2.404   0.147   9.767
 4124SOL     OW12937   3.296   1.188   9.351
 4124SOL    HW112938   3.328   1.112   9.408
 4124SOL    HW212939   3.204   1.215   9.381
 4125SOL     OW12940   2.159   0.035   9.481
 4125SOL    HW112941   2.208   0.119   9.460
 4125SOL    HW212942   2.221  -0.030   9.526
 4126SOL     OW12943   2.797   0.236   9.790
 4126SOL    HW112944   2.749   0.277   9.712
 4126SOL    HW212945   2.896   0.234   9.771
 4127SOL     OW12946   2.938   0.683  10.774
 4127SOL    HW112947   2.858   0.622  10.777
 4127SOL    HW212948   3.019   0.630  10.750
 4128SOL     OW12949   3.089   1.570  10.103
 4128SOL    HW112950   3.110   1.644  10.038
 4128SOL    HW212951   3.157   1.570  10.176
 4129SOL     OW12952   2.321   1.152  10.051
 4129SOL    HW112953   2.250   1.125  10.116
 4129SOL    HW212954   2.295   1.124   9.958
 4130SOL     OW12955   3.133   1.797   9.901
 4130SOL    HW112956   3.177   1.861   9.837
 4130SOL    HW212957   3.083   1.849   9.971
 4131SOL     OW12958   2.894   0.549   9.326
 4131SOL    HW112959   2.853   0.631   9.287
 4131SOL    HW212960   2.958   0.575   9.399
 4132SOL     OW12961   1.940   0.556  10.696
 4132SOL    HW112962   2.032   0.555  10.655
 4132SOL    HW212963   1.934   0.630  10.763
 4133SOL     OW12964   2.423   0.222  10.457
 4133SOL    HW112965   2.461   0.138  10.494
 4133SOL    HW212966   2.335   0.241  10.501
 4134SOL     OW12967   2.728   0.454   9.952
 4134SOL    HW112968   2.696   0.526   9.890
 4134SOL    HW212969   2.752   0.373   9.899
 4135SOL     OW12970   2.879   0.039  10.063
 4135SOL    HW112971   2.807   0.044   9.994
 4135SOL    HW212972   2.855  -0.030  10.132
 4136SOL     OW12973   3.291   1.173  10.177
 4136SOL    HW112974   3.236   1.089  10.170
 4136SOL    HW212975   3.317   1.202  10.085
 4137SOL     OW12976   3.328   0.590  10.302
 4137SOL    HW112977   3.298   0.495  10.309
 4137SOL    HW212978   3.401   0.606  10.368
 4138SOL     OW12979   3.719   0.833   9.687
 4138SOL    HW112980   3.761   0.769   9.751
 4138SOL    HW212981   3.681   0.782   9.609
 4139SOL     OW12982   2.350   1.385   9.484
 4139SOL    HW112983   2.263   1.370   9.531
 4139SOL    HW212984   2.333   1.411   9.389
 4140SOL     OW12985   3.526   1.280   9.967
 4140SOL    HW112986   3.625   1.288   9.981
 4140SOL    HW212987   3.481   1.364   9.998
 4141SOL     OW12988   3.252   0.575   9.388
 4141SOL    HW112989   3.198   0.554   9.469
 4141SOL    HW212990   3.343   0.534   9.397
 4142SOL     OW12991   2.389   0.256   9.638
 4142SOL    HW112992   2.416   0.197   9.563
 4142SOL    HW212993   2.389   0.351   9.607
 4143SOL     OW12994   3.616   1.223  10.898
 4143SOL    HW112995   3.707   1.184  10.885
 4143SOL    HW212996   3.624   1.319  10.922
 4144SOL     OW12997   2.926   1.347  10.650
 4144SOL    HW112998   2.846   1.324  10.705
 4144SOL    HW212999   3.009   1.321  10.699
 4145SOL     OW13000   2.973   1.195  10.410
 4145SOL    HW113001   2.933   1.239  10.491
 4145SOL    HW213002   2.932   1.232  10.327
 4146SOL     OW13003   3.500   1.099  10.389
 4146SOL    HW113004   3.505   1.180  10.448
 4146SOL    HW213005   3.414   1.101  10.338
 4147SOL     OW13006   2.777   0.089  10.712
 4147SOL    HW113007   2.802   0.069  10.617
 4147SOL    HW213008   2.849   0.145  10.754
 4148SOL     OW13009   2.567   1.050   9.678
 4148SOL    HW113010   2.553   1.057   9.777
 4148SOL    HW213011   2.651   0.999   9.660
 4149SOL     OW13012   2.272   0.813  10.561
 4149SOL    HW113013   2.358   0.825  10.611
 4149SOL    HW213014   2.230   0.726  10.588
 4150SOL     OW13015   3.136   0.386  10.572
 4150SOL    HW113016   3.157   0.460  10.636
 4150SOL    HW213017   3.047   0.403  10.529
 4151SOL     OW13018   1.926   1.564  10.641
 4151SOL    HW113019   1.880   1.646  10.607
 4151SOL    HW213020   2.024   1.583  10.650
 4152SOL     OW13021   2.229   1.100   9.811
 4152SOL    HW113022   2.222   1.183   9.755
 4152SOL    HW213023   2.233   1.020   9.751
 4153SOL     OW13024   2.428   0.537  10.175
 4153SOL    HW113025   2.440   0.603  10.101
 4153SOL    HW213026   2.474   0.571  10.258
 4154SOL     OW13027   3.114   1.348   9.698
 4154SOL    HW113028   3.164   1.425   9.738
 4154SOL    HW213029   3.019   1.350   9.730
 4155SOL     OW13030   3.134   1.445  10.452
 4155SOL    HW113031   3.181   1.458  10.539
 4155SOL    HW213032   3.068   1.371  10.461
 4156SOL     OW13033   3.444   0.639   9.782
 4156SOL    HW113034   3.413   0.700   9.855
 4156SOL    HW213035   3.494   0.691   9.713
 4157SOL     OW13036   2.216   1.510  10.639
 4157SOL    HW113037   2.195   1.466  10.552
 4157SOL    HW213038   2.313   1.536  10.642
 4158SOL     OW13039   2.264   0.751  10.908
 4158SOL    HW113040   2.332   0.806  10.861
 4158SOL    HW213041   2.304   0.663  10.935
 4159SOL     OW13042   3.449   0.779  10.980
 4159SOL    HW113043   3.357   0.817  10.975
 4159SOL    HW213044   3.509   0.826  10.915
 4160SOL     OW13045   2.435   0.870  10.339
 4160SOL    HW113046   2.479   0.959  10.330
 4160SOL    HW213047   2.372   0.870  10.416
 4161SOL     OW13048   3.222   0.862  10.355
 4161SOL    HW113049   3.147   0.862  10.289
 4161SOL    HW213050   3.259   0.770  10.364
 4162SOL     OW13051   3.071   0.525   9.585
 4162SOL    HW113052   3.084   0.441   9.639
 4162SOL    HW213053   3.042   0.599   9.645
 4163SOL     OW13054   2.169   0.213  10.541
 4163SOL    HW113055   2.146   0.250  10.631
 4163SOL    HW213056   2.139   0.118  10.535
 4164SOL     OW13057   1.899   1.310  10.592
 4164SOL    HW113058   1.952   1.261  10.660
 4164SOL    HW213059   1.921   1.408  10.597
 4165SOL     OW13060   2.594   0.634  10.374
 4165SOL    HW113061   2.653   0.608  10.298
 4165SOL    HW213062   2.566   0.730  10.363
 4166SOL     OW13063   2.169   0.063   9.928
 4166SOL    HW113064   2.158   0.157   9.961
 4166SOL    HW213065   2.164   0.000  10.005
 4167SOL     OW13066   3.484   0.367   9.684
 4167SOL    HW113067   3.486   0.291   9.748
 4167SOL    HW213068   3.436   0.444   9.724
 4168SOL     OW13069   2.885   0.766  10.276
 4168SOL    HW113070   2.900   0.787  10.372
 4168SOL    HW213071   2.855   0.671  10.267
 4169SOL     OW13072   2.842   1.573  11.010
 4169SOL    HW113073   2.822   1.617  10.922
 4169SOL    HW213074   2.881   1.482  10.994
 4170SOL     OW13075   3.721   1.518  10.915
 4170SOL    HW113076   3.735   1.545  10.820
 4170SOL    HW213077   3.804   1.540  10.968
 4171SOL     OW13078   2.212   0.898  11.114
 4171SOL    HW113079   2.288   0.942  11.162
 4171SOL    HW213080   2.247   0.851  11.032
 4172SOL     OW13081   3.402   0.274   9.435
 4172SOL    HW113082   3.341   0.199   9.458
 4172SOL    HW213083   3.424   0.326   9.518
 4173SOL     OW13084   3.165   0.838   9.352
 4173SOL    HW113085   3.199   0.745   9.367
 4173SOL    HW213086   3.183   0.865   9.257
 4174SOL     OW13087   2.930   1.333  10.159
 4174SOL    HW113088   2.937   1.249  10.104
 4174SOL    HW213089   2.992   1.402  10.123
 4175SOL     OW13090   2.181   0.810  10.259
 4175SOL    HW113091   2.274   0.846  10.264
 4175SOL    HW213092   2.175   0.725  10.311
 4176SOL     OW13093   2.201   0.509  10.316
 4176SOL    HW113094   2.149   0.426  10.299
 4176SOL    HW213095   2.278   0.514  10.252
 4177SOL     OW13096   3.022   0.207  10.787
 4177SOL    HW113097   3.022   0.271  10.864
 4177SOL    HW213098   3.050   0.255  10.704
 4178SOL     OW13099   1.870   1.326   9.510
 4178SOL    HW113100   1.777   1.347   9.479
 4178SOL    HW213101   1.880   1.227   9.523
 4179SOL     OW13102   1.950   1.801  10.237
 4179SOL    HW113103   1.908   1.715  10.210
 4179SOL    HW213104   2.044   1.804  10.203
 4180SOL     OW13105   2.366   1.568  10.220
 4180SOL    HW113106   2.432   1.642  10.229
 4180SOL    HW213107   2.410   1.489  10.178
 4181SOL     OW13108   2.864   0.796  10.548
 4181SOL    HW113109   2.905   0.764  10.634
 4181SOL    HW213110   2.768   0.769  10.545
 4182SOL     OW13111   1.902   0.544  10.424
 4182SOL    HW113112   1.987   0.511  10.383
 4182SOL    HW213113   1.915   0.559  10.522
 4183SOL     OW13114   2.677   0.572   9.635
 4183SOL    HW113115   2.684   0.483   9.589
 4183SOL    HW213116   2.583   0.606   9.627
 4184SOL     OW13117   3.519   0.604  10.516
 4184SOL    HW113118   3.481   0.535  10.578
 4184SOL    HW213119   3.601   0.568  10.472
 4185SOL     OW13120   2.114   1.564  11.054
 4185SOL    HW113121   2.084   1.621  11.130
 4185SOL    HW213122   2.107   1.467  11.080
 4186SOL     OW13123   2.533   0.464  10.579
 4186SOL    HW113124   2.499   0.375  10.549
 4186SOL    HW213125   2.559   0.518  10.499
 4187SOL     OW13126   2.792   1.678  10.775
 4187SOL    HW113127   2.768   1.660  10.680
 4187SOL    HW213128   2.822   1.772  10.785
 4188SOL     OW13129   2.335   0.500   9.501
 4188SOL    HW113130   2.396   0.580   9.505
 4188SOL    HW213131   2.240   0.531   9.508
 4189SOL     OW13132   2.021   1.137  10.776
 4189SOL    HW113133   2.043   1.076  10.852
 4189SOL    HW213134   2.031   1.088  10.690
 4190SOL     OW13135   3.209   1.059  10.544
 4190SOL    HW113136   3.233   0.996  10.470
 4190SOL    HW213137   3.119   1.099  10.526
 4191SOL     OW13138   3.164   0.855   9.619
 4191SOL    HW113139   3.078   0.824   9.661
 4191SOL    HW213140   3.160   0.841   9.520
 4192SOL     OW13141   3.621   1.747  10.464
 4192SOL    HW113142   3.682   1.777  10.391
 4192SOL    HW213143   3.583   1.658  10.442
 4193SOL     OW13144   3.114   1.731  10.438
 4193SOL    HW113145   3.198   1.736  10.384
 4193SOL    HW213146   3.091   1.635  10.456
 4194SOL     OW13147   1.945   1.258  10.332
 4194SOL    HW113148   1.940   1.257  10.432
 4194SOL    HW213149   1.862   1.217  10.294
 4195SOL     OW13150   3.588   0.135   9.833
 4195SOL    HW113151   3.661   0.118   9.766
 4195SOL    HW213152   3.557   0.048   9.871
 4196SOL     OW13153   3.250   1.573   9.787
 4196SOL    HW113154   3.317   1.585   9.713
 4196SOL    HW213155   3.210   1.662   9.810
 4197SOL     OW13156   3.142   0.927   9.982
 4197SOL    HW113157   3.202   0.846   9.984
 4197SOL    HW213158   3.182   0.996   9.922
 4198SOL     OW13159   2.692   1.273  10.732
 4198SOL    HW113160   2.687   1.306  10.827
 4198SOL    HW213161   2.606   1.292  10.686
 4199SOL     OW13162   2.534   1.616   9.464
 4199SOL    HW113163   2.543   1.626   9.365
 4199SOL    HW213164   2.494   1.527   9.485
 4200SOL     OW13165   3.512   1.720  10.704
 4200SOL    HW113166   3.565   1.730  10.620
 4200SOL    HW213167   3.485   1.810  10.738
 4201SOL     OW13168   3.703   0.175  10.273
 4201SOL    HW113169   3.742   0.090  10.237
 4201SOL    HW213170   3.605   0.177  10.254
 4202SOL     OW13171   2.125   0.326  10.030
 4202SOL    HW113172   2.046   0.377   9.996
 4202SOL    HW213173   2.116   0.311  10.128
 4203SOL     OW13174   3.056   1.612   9.341
 4203SOL    HW113175   3.062   1.519   9.378
 4203SOL    HW213176   2.997   1.612   9.261
 4204SOL     OW13177   2.684   1.002  10.682
 4204SOL    HW113178   2.724   1.001  10.590
 4204SOL    HW213179   2.694   1.094  10.722
 4205SOL     OW13180   2.778   0.910   9.601
 4205SOL    HW113181   2.841   0.948   9.533
 4205SOL    HW213182   2.818   0.827   9.640
 4206SOL     OW13183   3.366   1.607   9.354
 4206SOL    HW113184   3.274   1.644   9.361
 4206SOL    HW213185   3.404   1.627   9.264
 4207SOL     OW13186   2.234   1.288  10.800
 4207SOL    HW113187   2.221   1.381  10.766
 4207SOL    HW213188   2.150   1.236  10.787
 4208SOL     OW13189   3.476   1.292  10.599
 4208SOL    HW113190   3.536   1.295  10.679
 4208SOL    HW213191   3.401   1.356  10.612
 4209SOL     OW13192   2.901   1.098  10.006
 4209SOL    HW113193   2.831   1.051  10.060
 4209SOL    HW213194   2.960   1.030   9.963
 4210SOL     OW13195   2.876   0.236  10.281
 4210SOL    HW113196   2.868   0.200  10.188
 4210SOL    HW213197   2.874   0.160  10.346
 4211SOL     OW13198   2.452   1.487   9.801
 4211SOL    HW113199   2.494   1.429   9.731
 4211SOL    HW213200   2.408   1.566   9.757
 4212SOL     OW13201   3.571   0.385  10.691
 4212SOL    HW113202   3.644   0.454  10.695
 4212SOL    HW213203   3.599   0.310  10.632
 4213SOL     OW13204   2.117   1.348   9.600
 4213SOL    HW113205   2.021   1.349   9.573
 4213SOL    HW213206   2.129   1.401   9.684
 4214SOL     OW13207   1.967   1.013  11.036
 4214SOL    HW113208   1.890   0.980  11.090
 4214SOL    HW213209   2.052   0.983  11.078
 4215SOL     OW13210   2.534   0.203  10.799
 4215SOL    HW113211   2.624   0.187  10.759
 4215SOL    HW213212   2.542   0.208  10.898
 4216SOL     OW13213   1.937   0.345   9.343
 4216SOL    HW113214   1.845   0.317   9.314
 4216SOL    HW213215   1.968   0.422   9.287
 4217SOL     OW13216   3.302   0.856  10.708
 4217SOL    HW113217   3.245   0.908  10.645
 4217SOL    HW213218   3.398   0.868  10.684
 4218SOL     OW13219   1.934   0.166   9.628
 4218SOL    HW113220   1.917   0.249   9.574
 4218SOL    HW213221   2.024   0.129   9.606
 4219SOL     OW13222   3.045   1.335   9.429
 4219SOL    HW113223   2.946   1.324   9.431
 4219SOL    HW213224   3.079   1.350   9.522
 4220SOL     OW13225   2.475   0.842  10.741
 4220SOL    HW113226   2.531   0.923  10.724
 4220SOL    HW213227   2.534   0.762  10.744
 4221SOL     OW13228   3.355   1.767  10.269
 4221SOL    HW113229   3.388   1.831  10.200
 4221SOL    HW213230   3.421   1.761  10.344
 4222SOL     OW13231   2.578   0.565  11.018
 4222SOL    HW113232   2.597   0.630  11.092
 4222SOL    HW213233   2.638   0.485  11.027
 4223SOL     OW13234   2.252   1.741  10.870
 4223SOL    HW113235   2.161   1.782  10.868
 4223SOL    HW213236   2.245   1.647  10.902
 4224SOL     OW13237   3.536   0.883  10.564
 4224SOL    HW113238   3.509   0.794  10.527
 4224SOL    HW213239   3.537   0.951  10.491
 4225SOL     OW13240   3.087   0.325   9.759
 4225SOL    HW113241   3.152   0.251   9.748
 4225SOL    HW213242   3.107   0.375   9.843
 4226SOL     OW13243   2.456   0.745   9.962
 4226SOL    HW113244   2.506   0.830   9.943
 4226SOL    HW213245   2.368   0.747   9.914
 4227SOL     OW13246   3.639   0.342  10.952
 4227SOL    HW113247   3.622   0.373  10.858
 4227SOL    HW213248   3.555   0.305  10.990
 4228SOL     OW13249   3.592   0.934  10.827
 4228SOL    HW113250   3.630   1.025  10.842
 4228SOL    HW213251   3.584   0.917  10.728
 4229SOL     OW13252   2.721   1.374   9.326
 4229SOL    HW113253   2.675   1.389   9.414
 4229SOL    HW213254   2.765   1.459   9.296
 4230SOL     OW13255   2.523   1.790  10.263
 4230SOL    HW113256   2.477   1.878  10.250
 4230SOL    HW213257   2.622   1.802  10.256
 4231SOL     OW13258   2.721   0.956  10.171
 4231SOL    HW113259   2.775   0.887  10.219
 4231SOL    HW213260   2.689   1.025  10.237
 4232SOL     OW13261   2.945   0.984   9.397
 4232SOL    HW113262   2.922   1.037   9.315
 4232SOL    HW213263   3.026   0.928   9.378
 4233SOL     OW13264   3.723   1.569  10.161
 4233SOL    HW113265   3.652   1.557  10.091
 4233SOL    HW213266   3.724   1.490  10.221
 4234SOL     OW13267   1.941   1.240   9.963
 4234SOL    HW113268   1.940   1.193  10.051
 4234SOL    HW213269   2.023   1.212   9.912
 4235SOL     OW13270   2.534   1.391  10.934
 4235SOL    HW113271   2.456   1.341  10.972
 4235SOL    HW213272   2.531   1.486  10.965
 4236SOL     OW13273   3.686   0.192  10.537
 4236SOL    HW113274   3.682   0.102  10.581
 4236SOL    HW213275   3.689   0.181  10.438
 4237SOL     OW13276   2.290   0.424   9.830
 4237SOL    HW113277   2.320   0.352   9.768
 4237SOL    HW213278   2.251   0.384   9.913
 4238SOL     OW13279   3.567   1.487  10.414
 4238SOL    HW113280   3.474   1.462  10.387
 4238SOL    HW213281   3.593   1.437  10.496
 4239SOL     OW13282   2.179   0.547  10.590
 4239SOL    HW113283   2.217   0.488  10.662
 4239SOL    HW213284   2.219   0.521  10.502
 4240SOL     OW13285   2.674   1.586   9.997
 4240SOL    HW113286   2.706   1.596   9.903
 4240SOL    HW213287   2.595   1.524   9.999
 4241SOL     OW13288   3.286   0.214  10.422
 4241SOL    HW113289   3.338   0.149  10.477
 4241SOL    HW213290   3.237   0.277  10.483
 4242SOL     OW13291   2.863   0.034  10.464
 4242SOL    HW113292   2.800  -0.038  10.433
 4242SOL    HW213293   2.956  -0.002  10.464
 4243SOL     OW13294   2.632   1.330   9.611
 4243SOL    HW113295   2.586   1.243   9.628
 4243SOL    HW213296   2.723   1.327   9.652
 4244SOL     OW13297   2.480   1.567  10.594
 4244SOL    HW113298   2.475   1.649  10.651
 4244SOL    HW213299   2.569   1.564  10.549
 4245SOL     OW13300   3.214   0.052   9.478
 4245SOL    HW113301   3.249   0.011   9.394
 4245SOL    HW213302   3.124   0.014   9.498
 4246SOL     OW13303   3.162   0.453  10.001
 4246SOL    HW113304   3.103   0.533  10.005
 4246SOL    HW213305   3.177   0.418  10.094
 4247SOL     OW13306   3.455   0.221  10.192
 4247SOL    HW113307   3.371   0.220  10.246
 4247SOL    HW213308   3.457   0.304  10.136
 4248SOL     OW13309   1.901   1.077   9.610
 4248SOL    HW113310   2.000   1.066   9.601
 4248SOL    HW213311   1.861   0.991   9.642
 4249SOL     OW13312   2.737   1.646   9.647
 4249SOL    HW113313   2.660   1.611   9.593
 4249SOL    HW213314   2.705   1.717   9.709
 4250SOL     OW13315   2.092   2.490   0.113
 4250SOL    HW113316   1.999   2.488   0.150
 4250SOL    HW213317   2.093   2.451   0.021
 4251SOL     OW13318   1.881   2.230   0.647
 4251SOL    HW113319   1.799   2.273   0.686
 4251SOL    HW213320   1.853   2.157   0.584
 4252SOL     OW13321   2.431   3.137   1.165
 4252SOL    HW113322   2.338   3.130   1.128
 4252SOL    HW213323   2.442   3.226   1.209
 4253SOL     OW13324   3.417   3.373   0.703
 4253SOL    HW113325   3.360   3.357   0.784
 4253SOL    HW213326   3.358   3.383   0.623
 4254SOL     OW13327   2.997   2.565   0.717
 4254SOL    HW113328   3.054   2.643   0.692
 4254SOL    HW213329   2.937   2.591   0.793
 4255SOL     OW13330   3.617   2.469   0.231
 4255SOL    HW113331   3.605   2.456   0.132
 4255SOL    HW213332   3.587   2.388   0.280
 4256SOL     OW13333   2.630   3.006   1.023
 4256SOL    HW113334   2.552   3.023   1.083
 4256SOL    HW213335   2.664   3.093   0.987
 4257SOL     OW13336   2.712   2.660   1.823
 4257SOL    HW113337   2.708   2.736   1.888
 4257SOL    HW213338   2.734   2.696   1.732
 4258SOL     OW13339   2.547   2.874   0.665
 4258SOL    HW113340   2.616   2.858   0.735
 4258SOL    HW213341   2.474   2.931   0.703
 4259SOL     OW13342   2.548   3.023   1.803
 4259SOL    HW113343   2.608   3.102   1.817
 4259SOL    HW213344   2.462   3.054   1.762
 4260SOL     OW13345   2.197   3.297   1.061
 4260SOL    HW113346   2.119   3.266   1.008
 4260SOL    HW213347   2.255   3.355   1.004
 4261SOL     OW13348   3.322   3.367   1.339
 4261SOL    HW113349   3.346   3.461   1.365
 4261SOL    HW213350   3.306   3.313   1.421
 4262SOL     OW13351   3.465   2.309   0.737
 4262SOL    HW113352   3.391   2.355   0.687
 4262SOL    HW213353   3.516   2.377   0.790
 4263SOL     OW13354   2.093   3.575   0.483
 4263SOL    HW113355   2.127   3.652   0.537
 4263SOL    HW213356   2.137   3.575   0.393
 4264SOL     OW13357   2.989   3.203   1.690
 4264SOL    HW113358   3.036   3.203   1.778
 4264SOL    HW213359   2.941   3.116   1.679
 4265SOL     OW13360   2.092   3.296   0.538
 4265SOL    HW113361   2.066   3.392   0.538
 4265SOL    HW213362   2.021   3.242   0.583
 4266SOL     OW13363   2.102   2.953   0.886
 4266SOL    HW113364   2.116   2.869   0.938
 4266SOL    HW213365   2.047   3.017   0.941
 4267SOL     OW13366   2.482   3.648   1.439
 4267SOL    HW113367   2.390   3.631   1.474
 4267SOL    HW213368   2.510   3.740   1.465
 4268SOL     OW13369   2.468   2.826   0.123
 4268SOL    HW113370   2.475   2.910   0.069
 4268SOL    HW213371   2.514   2.839   0.211
 4269SOL     OW13372   3.456   1.976   1.480
 4269SOL    HW113373   3.438   2.043   1.408
 4269SOL    HW213374   3.453   2.022   1.569
 4270SOL     OW13375   1.984   2.505   0.563
 4270SOL    HW113376   1.939   2.417   0.580
 4270SOL    HW213377   1.983   2.559   0.647
 4271SOL     OW13378   3.704   3.629   0.359
 4271SOL    HW113379   3.758   3.600   0.439
 4271SOL    HW213380   3.734   3.719   0.330
 4272SOL     OW13381   1.889   3.458   0.117
 4272SOL    HW113382   1.870   3.362   0.138
 4272SOL    HW213383   1.856   3.516   0.192
 4273SOL     OW13384   3.551   2.784   0.612
 4273SOL    HW113385   3.646   2.755   0.620
 4273SOL    HW213386   3.543   2.849   0.537
 4274SOL     OW13387   3.503   2.970   0.432
 4274SOL    HW113388   3.589   2.972   0.380
 4274SOL    HW213389   3.517   3.017   0.520
 4275SOL     OW13390   1.975   2.599   1.597
 4275SOL    HW113391   2.063   2.586   1.642
 4275SOL    HW213392   1.962   2.696   1.575
 4276SOL     OW13393   2.475   3.227   0.726
 4276SOL    HW113394   2.426   3.140   0.735
 4276SOL    HW213395   2.452   3.270   0.639
 4277SOL     OW13396   3.155   3.090   1.423
 4277SOL    HW113397   3.192   3.017   1.365
 4277SOL    HW213398   3.207   3.095   1.508
 4278SOL     OW13399   2.671   1.866   0.502
 4278SOL    HW113400   2.711   1.957   0.493
 4278SOL    HW213401   2.571   1.874   0.508
 4279SOL     OW13402   2.059   2.838   1.264
 4279SOL    HW113403   2.148   2.793   1.250
 4279SOL    HW213404   1.986   2.773   1.245
 4280SOL     OW13405   3.387   2.861   0.190
 4280SOL    HW113406   3.324   2.785   0.203
 4280SOL    HW213407   3.435   2.879   0.276
 4281SOL     OW13408   3.049   3.654   1.616
 4281SOL    HW113409   3.073   3.714   1.540
 4281SOL    HW213410   3.056   3.559   1.586
 4282SOL     OW13411   3.328   3.279   0.953
 4282SOL    HW113412   3.269   3.285   1.033
 4282SOL    HW213413   3.313   3.191   0.907
 4283SOL     OW13414   3.529   3.576   0.572
 4283SOL    HW113415   3.488   3.553   0.484
 4283SOL    HW213416   3.511   3.502   0.637
 4284SOL     OW13417   2.460   2.591   0.270
 4284SOL    HW113418   2.484   2.660   0.202
 4284SOL    HW213419   2.382   2.624   0.324
 4285SOL     OW13420   3.143   2.207   0.944
 4285SOL    HW113421   3.057   2.157   0.931
 4285SOL    HW213422   3.205   2.153   1.000
 4286SOL     OW13423   3.438   3.524   0.307
 4286SOL    HW113424   3.527   3.570   0.310
 4286SOL    HW213425   3.417   3.500   0.212
 4287SOL     OW13426   2.669   2.467   1.465
 4287SOL    HW113427   2.622   2.464   1.554
 4287SOL    HW213428   2.618   2.412   1.399
 4288SOL     OW13429   3.256   2.331   1.674
 4288SOL    HW113430   3.236   2.374   1.762
 4288SOL    HW213431   3.334   2.269   1.683
 4289SOL     OW13432   2.835   2.752   1.572
 4289SOL    HW113433   2.881   2.668   1.543
 4289SOL    HW213434   2.779   2.786   1.497
 4290SOL     OW13435   2.853   2.272   1.242
 4290SOL    HW113436   2.776   2.306   1.296
 4290SOL    HW213437   2.819   2.221   1.163
 4291SOL     OW13438   2.903   2.563   0.429
 4291SOL    HW113439   2.929   2.559   0.525
 4291SOL    HW213440   2.818   2.512   0.415
 4292SOL     OW13441   1.938   2.673   0.789
 4292SOL    HW113442   2.037   2.661   0.798
 4292SOL    HW213443   1.914   2.768   0.810
 4293SOL     OW13444   1.992   3.683   1.571
 4293SOL    HW113445   1.982   3.668   1.670
 4293SOL    HW213446   1.906   3.719   1.535
 4294SOL     OW13447   2.727   2.210   0.195
 4294SOL    HW113448   2.786   2.273   0.146
 4294SOL    HW213449   2.746   2.116   0.166
 4295SOL     OW13450   3.581   2.447   1.831
 4295SOL    HW113451   3.555   2.536   1.795
 4295SOL    HW213452   3.579   2.379   1.758
 4296SOL     OW13453   3.224   3.006   0.545
 4296SOL    HW113454   3.307   2.977   0.497
 4296SOL    HW213455   3.175   3.073   0.489
 4297SOL     OW13456   2.870   3.318   0.477
 4297SOL    HW113457   2.824   3.390   0.425
 4297SOL    HW213458   2.866   3.338   0.575
 4298SOL     OW13459   2.213   3.663   0.853
 4298SOL    HW113460   2.263   3.577   0.859
 4298SOL    HW213461   2.278   3.740   0.850
 4299SOL     OW13462   3.657   2.928   0.873
 4299SOL    HW113463   3.595   2.913   0.797
 4299SOL    HW213464   3.605   2.939   0.958
 4300SOL     OW13465   3.089   3.412   1.506
 4300SOL    HW113466   3.095   3.335   1.570
 4300SOL    HW213467   3.037   3.386   1.426
 4301SOL     OW13468   2.183   2.805   0.242
 4301SOL    HW113469   2.265   2.844   0.200
 4301SOL    HW213470   2.156   2.723   0.193
 4302SOL     OW13471   3.320   2.597   0.728
 4302SOL    HW113472   3.315   2.532   0.803
 4302SOL    HW213473   3.400   2.656   0.741
 4303SOL     OW13474   2.323   3.128   1.727
 4303SOL    HW113475   2.273   3.129   1.641
 4303SOL    HW213476   2.260   3.110   1.803
 4304SOL     OW13477   2.973   3.638   0.237
 4304SOL    HW113478   2.913   3.576   0.287
 4304SOL    HW213479   3.004   3.594   0.152
 4305SOL     OW13480   2.064   2.147   1.498
 4305SOL    HW113481   1.984   2.207   1.485
 4305SOL    HW213482   2.054   2.098   1.584
 4306SOL     OW13483   3.494   3.239   0.081
 4306SOL    HW113484   3.462   3.333   0.071
 4306SOL    HW213485   3.418   3.176   0.069
 4307SOL     OW13486   2.326   3.605   0.323
 4307SOL    HW113487   2.359   3.644   0.409
 4307SOL    HW213488   2.402   3.598   0.258
 4308SOL     OW13489   3.262   1.969   0.426
 4308SOL    HW113490   3.238   1.932   0.336
 4308SOL    HW213491   3.361   1.985   0.430
 4309SOL     OW13492   2.111   3.647   1.241
 4309SOL    HW113493   2.168   3.582   1.291
 4309SOL    HW213494   2.095   3.614   1.148
 4310SOL     OW13495   2.802   3.560   0.904
 4310SOL    HW113496   2.882   3.503   0.925
 4310SOL    HW213497   2.753   3.520   0.827
 4311SOL     OW13498   2.244   2.562   0.480
 4311SOL    HW113499   2.289   2.472   0.477
 4311SOL    HW213500   2.150   2.551   0.513
 4312SOL     OW13501   3.409   2.084   1.729
 4312SOL    HW113502   3.404   2.121   1.821
 4312SOL    HW213503   3.337   2.015   1.717
 4313SOL     OW13504   2.476   1.984   0.117
 4313SOL    HW113505   2.574   1.962   0.124
 4313SOL    HW213506   2.445   1.967   0.024
 4314SOL     OW13507   2.643   2.126   1.749
 4314SOL    HW113508   2.710   2.065   1.792
 4314SOL    HW213509   2.570   2.145   1.814
 4315SOL     OW13510   2.750   3.376   1.195
 4315SOL    HW113511   2.727   3.351   1.101
 4315SOL    HW213512   2.811   3.307   1.234
 4316SOL     OW13513   3.213   2.452   1.433
 4316SOL    HW113514   3.241   2.409   1.518
 4316SOL    HW213515   3.238   2.548   1.434
 4317SOL     OW13516   2.665   3.264   0.924
 4317SOL    HW113517   2.755   3.278   0.882
 4317SOL    HW213518   2.594   3.266   0.853
 4318SOL     OW13519   2.784   2.365   0.899
 4318SOL    HW113520   2.759   2.356   0.803
 4318SOL    HW213521   2.832   2.283   0.930
 4319SOL     OW13522   2.401   1.926   0.512
 4319SOL    HW113523   2.320   1.927   0.570
 4319SOL    HW213524   2.404   2.009   0.457
 4320SOL     OW13525   3.296   3.050   0.041
 4320SOL    HW113526   3.328   2.974   0.098
 4320SOL    HW213527   3.204   3.077   0.071
 4321SOL     OW13528   2.159   1.897   0.171
 4321SOL    HW113529   2.208   1.981   0.150
 4321SOL    HW213530   2.221   1.832   0.216
 4322SOL     OW13531   2.797   2.098   0.480
 4322SOL    HW113532   2.749   2.139   0.402
 4322SOL    HW213533   2.896   2.096   0.461
 4323SOL     OW13534   2.938   2.545   1.464
 4323SOL    HW113535   2.858   2.484   1.467
 4323SOL    HW213536   3.019   2.492   1.440
 4324SOL     OW13537   3.089   3.432   0.793
 4324SOL    HW113538   3.110   3.506   0.728
 4324SOL    HW213539   3.157   3.432   0.866
 4325SOL     OW13540   2.321   3.014   0.741
 4325SOL    HW113541   2.250   2.987   0.806
 4325SOL    HW213542   2.295   2.986   0.648
 4326SOL     OW13543   3.133   3.659   0.591
 4326SOL    HW113544   3.177   3.723   0.527
 4326SOL    HW213545   3.083   3.711   0.661
 4327SOL     OW13546   2.894   2.411   0.016
 4327SOL    HW113547   2.853   2.493  -0.023
 4327SOL    HW213548   2.958   2.437   0.089
 4328SOL     OW13549   1.940   2.418   1.386
 4328SOL    HW113550   2.032   2.417   1.345
 4328SOL    HW213551   1.934   2.492   1.453
 4329SOL     OW13552   2.423   2.084   1.147
 4329SOL    HW113553   2.461   2.000   1.184
 4329SOL    HW213554   2.335   2.103   1.191
 4330SOL     OW13555   2.728   2.316   0.642
 4330SOL    HW113556   2.696   2.388   0.580
 4330SOL    HW213557   2.752   2.235   0.589
 4331SOL     OW13558   2.879   1.901   0.753
 4331SOL    HW113559   2.807   1.906   0.684
 4331SOL    HW213560   2.855   1.832   0.822
 4332SOL     OW13561   3.291   3.035   0.867
 4332SOL    HW113562   3.236   2.951   0.860
 4332SOL    HW213563   3.317   3.064   0.775
 4333SOL     OW13564   3.328   2.452   0.992
 4333SOL    HW113565   3.298   2.357   0.999
 4333SOL    HW213566   3.401   2.468   1.058
 4334SOL     OW13567   3.719   2.695   0.377
 4334SOL    HW113568   3.761   2.631   0.441
 4334SOL    HW213569   3.681   2.644   0.299
 4335SOL     OW13570   2.350   3.247   0.174
 4335SOL    HW113571   2.263   3.232   0.221
 4335SOL    HW213572   2.333   3.273   0.079
 4336SOL     OW13573   3.526   3.142   0.657
 4336SOL    HW113574   3.625   3.150   0.671
 4336SOL    HW213575   3.481   3.226   0.688
 4337SOL     OW13576   3.252   2.437   0.078
 4337SOL    HW113577   3.198   2.416   0.159
 4337SOL    HW213578   3.343   2.396   0.087
 4338SOL     OW13579   3.616   3.085   1.588
 4338SOL    HW113580   3.707   3.046   1.575
 4338SOL    HW213581   3.624   3.181   1.612
 4339SOL     OW13582   2.926   3.209   1.340
 4339SOL    HW113583   2.846   3.186   1.395
 4339SOL    HW213584   3.009   3.183   1.389
 4340SOL     OW13585   3.454   3.491   1.625
 4340SOL    HW113586   3.481   3.525   1.535
 4340SOL    HW213587   3.533   3.453   1.671
 4341SOL     OW13588   2.973   3.057   1.100
 4341SOL    HW113589   2.933   3.101   1.181
 4341SOL    HW213590   2.932   3.094   1.017
 4342SOL     OW13591   3.500   2.961   1.079
 4342SOL    HW113592   3.505   3.042   1.138
 4342SOL    HW213593   3.414   2.963   1.028
 4343SOL     OW13594   2.777   1.951   1.402
 4343SOL    HW113595   2.802   1.931   1.307
 4343SOL    HW213596   2.849   2.007   1.444
 4344SOL     OW13597   2.842   2.978   1.719
 4344SOL    HW113598   2.743   2.984   1.729
 4344SOL    HW213599   2.865   2.898   1.663
 4345SOL     OW13600   2.567   2.912   0.368
 4345SOL    HW113601   2.553   2.919   0.467
 4345SOL    HW213602   2.651   2.861   0.350
 4346SOL     OW13603   2.272   2.675   1.251
 4346SOL    HW113604   2.358   2.687   1.301
 4346SOL    HW213605   2.230   2.588   1.278
 4347SOL     OW13606   3.136   2.248   1.262
 4347SOL    HW113607   3.157   2.322   1.326
 4347SOL    HW213608   3.047   2.265   1.219
 4348SOL     OW13609   1.926   3.426   1.331
 4348SOL    HW113610   1.880   3.508   1.297
 4348SOL    HW213611   2.024   3.445   1.340
 4349SOL     OW13612   2.229   2.962   0.501
 4349SOL    HW113613   2.222   3.045   0.445
 4349SOL    HW213614   2.233   2.882   0.441
 4350SOL     OW13615   3.114   3.210   0.388
 4350SOL    HW113616   3.164   3.287   0.428
 4350SOL    HW213617   3.019   3.212   0.420
 4351SOL     OW13618   3.134   3.307   1.142
 4351SOL    HW113619   3.181   3.320   1.229
 4351SOL    HW213620   3.068   3.233   1.151
 4352SOL     OW13621   3.444   2.501   0.472
 4352SOL    HW113622   3.413   2.562   0.545
 4352SOL    HW213623   3.494   2.553   0.403
 4353SOL     OW13624   2.216   3.372   1.329
 4353SOL    HW113625   2.195   3.328   1.242
 4353SOL    HW213626   2.313   3.398   1.332
 4354SOL     OW13627   2.264   2.613   1.598
 4354SOL    HW113628   2.332   2.668   1.551
 4354SOL    HW213629   2.304   2.525   1.625
 4355SOL     OW13630   3.449   2.641   1.670
 4355SOL    HW113631   3.357   2.679   1.665
 4355SOL    HW213632   3.509   2.688   1.605
 4356SOL     OW13633   2.875   1.967   1.770
 4356SOL    HW113634   2.881   2.052   1.718
 4356SOL    HW213635   2.907   1.891   1.713
 4357SOL     OW13636   2.366   1.912   1.740
 4357SOL    HW113637   2.324   1.855   1.670
 4357SOL    HW213638   2.300   1.981   1.772
 4358SOL     OW13639   2.435   2.732   1.029
 4358SOL    HW113640   2.479   2.821   1.020
 4358SOL    HW213641   2.372   2.732   1.106
 4359SOL     OW13642   3.222   2.724   1.045
 4359SOL    HW113643   3.147   2.724   0.979
 4359SOL    HW213644   3.259   2.632   1.054
 4360SOL     OW13645   3.071   2.387   0.275
 4360SOL    HW113646   3.084   2.303   0.329
 4360SOL    HW213647   3.042   2.461   0.335
 4361SOL     OW13648   1.899   3.172   1.282
 4361SOL    HW113649   1.952   3.123   1.350
 4361SOL    HW213650   1.921   3.270   1.287
 4362SOL     OW13651   2.594   2.496   1.064
 4362SOL    HW113652   2.653   2.470   0.988
 4362SOL    HW213653   2.566   2.592   1.053
 4363SOL     OW13654   3.590   2.797   1.854
 4363SOL    HW113655   3.544   2.790   1.765
 4363SOL    HW213656   3.528   2.841   1.920
 4364SOL     OW13657   2.169   1.925   0.618
 4364SOL    HW113658   2.158   2.019   0.651
 4364SOL    HW213659   2.164   1.862   0.695
 4365SOL     OW13660   3.484   2.229   0.374
 4365SOL    HW113661   3.486   2.153   0.438
 4365SOL    HW213662   3.436   2.306   0.414
 4366SOL     OW13663   2.885   2.628   0.966
 4366SOL    HW113664   2.900   2.649   1.062
 4366SOL    HW213665   2.855   2.533   0.957
 4367SOL     OW13666   2.842   3.435   1.700
 4367SOL    HW113667   2.822   3.479   1.612
 4367SOL    HW213668   2.881   3.344   1.684
 4368SOL     OW13669   3.721   3.380   1.605
 4368SOL    HW113670   3.735   3.407   1.510
 4368SOL    HW213671   3.804   3.402   1.658
 4369SOL     OW13672   2.212   2.760   1.804
 4369SOL    HW113673   2.288   2.804   1.852
 4369SOL    HW213674   2.247   2.713   1.722
 4370SOL     OW13675   3.402   2.136   0.125
 4370SOL    HW113676   3.341   2.061   0.148
 4370SOL    HW213677   3.424   2.188   0.208
 4371SOL     OW13678   3.165   2.700   0.042
 4371SOL    HW113679   3.199   2.607   0.057
 4371SOL    HW213680   3.183   2.727  -0.053
 4372SOL     OW13681   2.930   3.195   0.849
 4372SOL    HW113682   2.937   3.111   0.794
 4372SOL    HW213683   2.992   3.264   0.813
 4373SOL     OW13684   2.181   2.672   0.949
 4373SOL    HW113685   2.274   2.708   0.954
 4373SOL    HW213686   2.175   2.587   1.001
 4374SOL     OW13687   3.000   2.242   1.678
 4374SOL    HW113688   2.955   2.305   1.742
 4374SOL    HW213689   3.093   2.273   1.661
 4375SOL     OW13690   3.022   2.069   1.477
 4375SOL    HW113691   3.022   2.133   1.554
 4375SOL    HW213692   3.050   2.117   1.394
 4376SOL     OW13693   1.870   3.188   0.200
 4376SOL    HW113694   1.777   3.209   0.169
 4376SOL    HW213695   1.880   3.089   0.213
 4377SOL     OW13696   1.950   3.663   0.927
 4377SOL    HW113697   1.908   3.577   0.900
 4377SOL    HW213698   2.044   3.666   0.893
 4378SOL     OW13699   2.366   3.430   0.910
 4378SOL    HW113700   2.432   3.504   0.919
 4378SOL    HW213701   2.410   3.351   0.868
 4379SOL     OW13702   2.864   2.658   1.238
 4379SOL    HW113703   2.905   2.626   1.324
 4379SOL    HW213704   2.768   2.631   1.235
 4380SOL     OW13705   1.902   2.406   1.114
 4380SOL    HW113706   1.987   2.373   1.073
 4380SOL    HW213707   1.915   2.421   1.212
 4381SOL     OW13708   3.231   2.812   1.660
 4381SOL    HW113709   3.270   2.901   1.680
 4381SOL    HW213710   3.241   2.792   1.563
 4382SOL     OW13711   2.677   2.434   0.325
 4382SOL    HW113712   2.684   2.345   0.279
 4382SOL    HW213713   2.583   2.468   0.317
 4383SOL     OW13714   3.519   2.466   1.206
 4383SOL    HW113715   3.481   2.397   1.268
 4383SOL    HW213716   3.601   2.430   1.162
 4384SOL     OW13717   2.114   3.426   1.744
 4384SOL    HW113718   2.084   3.483   1.820
 4384SOL    HW213719   2.107   3.329   1.770
 4385SOL     OW13720   2.533   2.326   1.269
 4385SOL    HW113721   2.499   2.237   1.239
 4385SOL    HW213722   2.559   2.380   1.189
 4386SOL     OW13723   2.792   3.540   1.465
 4386SOL    HW113724   2.768   3.522   1.370
 4386SOL    HW213725   2.822   3.634   1.475
 4387SOL     OW13726   2.021   2.999   1.466
 4387SOL    HW113727   2.043   2.938   1.542
 4387SOL    HW213728   2.031   2.950   1.380
 4388SOL     OW13729   3.209   2.921   1.234
 4388SOL    HW113730   3.233   2.858   1.160
 4388SOL    HW213731   3.119   2.961   1.216
 4389SOL     OW13732   3.164   2.717   0.309
 4389SOL    HW113733   3.078   2.686   0.351
 4389SOL    HW213734   3.160   2.703   0.210
 4390SOL     OW13735   3.621   3.609   1.154
 4390SOL    HW113736   3.682   3.639   1.081
 4390SOL    HW213737   3.583   3.520   1.132
 4391SOL     OW13738   3.114   3.593   1.128
 4391SOL    HW113739   3.198   3.598   1.074
 4391SOL    HW213740   3.091   3.497   1.146
 4392SOL     OW13741   1.945   3.120   1.022
 4392SOL    HW113742   1.940   3.119   1.122
 4392SOL    HW213743   1.862   3.079   0.984
 4393SOL     OW13744   2.550   3.524   1.716
 4393SOL    HW113745   2.494   3.605   1.725
 4393SOL    HW213746   2.602   3.528   1.630
 4394SOL     OW13747   2.765   1.948   0.133
 4394SOL    HW113748   2.816   1.949   0.047
 4394SOL    HW213749   2.821   1.906   0.204
 4395SOL     OW13750   3.588   1.997   0.523
 4395SOL    HW113751   3.661   1.980   0.456
 4395SOL    HW213752   3.557   1.910   0.561
 4396SOL     OW13753   3.250   3.435   0.477
 4396SOL    HW113754   3.317   3.447   0.403
 4396SOL    HW213755   3.210   3.524   0.500
 4397SOL     OW13756   1.992   3.656   1.851
 4397SOL    HW113757   1.951   3.582   1.904
 4397SOL    HW213758   2.056   3.707   1.909
 4398SOL     OW13759   3.142   2.789   0.672
 4398SOL    HW113760   3.202   2.708   0.674
 4398SOL    HW213761   3.182   2.858   0.612
 4399SOL     OW13762   2.692   3.135   1.422
 4399SOL    HW113763   2.687   3.168   1.517
 4399SOL    HW213764   2.606   3.154   1.376
 4400SOL     OW13765   2.534   3.478   0.154
 4400SOL    HW113766   2.543   3.488   0.055
 4400SOL    HW213767   2.494   3.389   0.175
 4401SOL     OW13768   3.512   3.582   1.394
 4401SOL    HW113769   3.565   3.592   1.310
 4401SOL    HW213770   3.485   3.672   1.428
 4402SOL     OW13771   3.703   2.037   0.963
 4402SOL    HW113772   3.742   1.952   0.927
 4402SOL    HW213773   3.605   2.039   0.944
 4403SOL     OW13774   3.056   3.474   0.031
 4403SOL    HW113775   3.062   3.381   0.068
 4403SOL    HW213776   2.997   3.474  -0.049
 4404SOL     OW13777   2.684   2.864   1.372
 4404SOL    HW113778   2.724   2.863   1.280
 4404SOL    HW213779   2.694   2.956   1.412
 4405SOL     OW13780   2.778   2.772   0.291
 4405SOL    HW113781   2.841   2.810   0.223
 4405SOL    HW213782   2.818   2.689   0.330
 4406SOL     OW13783   3.366   3.469   0.044
 4406SOL    HW113784   3.274   3.506   0.051
 4406SOL    HW213785   3.404   3.489  -0.046
 4407SOL     OW13786   2.234   3.150   1.490
 4407SOL    HW113787   2.221   3.243   1.456
 4407SOL    HW213788   2.150   3.098   1.477
 4408SOL     OW13789   3.476   3.154   1.289
 4408SOL    HW113790   3.536   3.157   1.369
 4408SOL    HW213791   3.401   3.218   1.302
 4409SOL     OW13792   2.901   2.960   0.696
 4409SOL    HW113793   2.831   2.913   0.750
 4409SOL    HW213794   2.960   2.892   0.653
 4410SOL     OW13795   2.876   2.098   0.971
 4410SOL    HW113796   2.868   2.062   0.878
 4410SOL    HW213797   2.874   2.022   1.036
 4411SOL     OW13798   2.452   3.349   0.491
 4411SOL    HW113799   2.494   3.291   0.421
 4411SOL    HW213800   2.408   3.428   0.447
 4412SOL     OW13801   3.571   2.247   1.381
 4412SOL    HW113802   3.644   2.316   1.385
 4412SOL    HW213803   3.599   2.172   1.322
 4413SOL     OW13804   2.117   3.210   0.290
 4413SOL    HW113805   2.021   3.211   0.263
 4413SOL    HW213806   2.129   3.263   0.374
 4414SOL     OW13807   1.967   2.875   1.726
 4414SOL    HW113808   1.890   2.842   1.780
 4414SOL    HW213809   2.052   2.845   1.768
 4415SOL     OW13810   2.534   2.065   1.489
 4415SOL    HW113811   2.624   2.049   1.449
 4415SOL    HW213812   2.542   2.070   1.588
 4416SOL     OW13813   1.937   2.207   0.033
 4416SOL    HW113814   1.845   2.179   0.004
 4416SOL    HW213815   1.968   2.284  -0.023
 4417SOL     OW13816   3.302   2.718   1.398
 4417SOL    HW113817   3.245   2.770   1.335
 4417SOL    HW213818   3.398   2.730   1.374
 4418SOL     OW13819   1.934   2.028   0.318
 4418SOL    HW113820   1.917   2.111   0.264
 4418SOL    HW213821   2.024   1.991   0.296
 4419SOL     OW13822   3.045   3.197   0.119
 4419SOL    HW113823   2.946   3.186   0.121
 4419SOL    HW213824   3.079   3.212   0.212
 4420SOL     OW13825   2.475   2.704   1.431
 4420SOL    HW113826   2.531   2.785   1.414
 4420SOL    HW213827   2.534   2.624   1.434
 4421SOL     OW13828   3.355   3.629   0.959
 4421SOL    HW113829   3.388   3.693   0.890
 4421SOL    HW213830   3.421   3.623   1.034
 4422SOL     OW13831   2.578   2.427   1.708
 4422SOL    HW113832   2.597   2.492   1.782
 4422SOL    HW213833   2.638   2.347   1.717
 4423SOL     OW13834   3.312   3.082   1.633
 4423SOL    HW113835   3.303   3.072   1.732
 4423SOL    HW213836   3.408   3.075   1.607
 4424SOL     OW13837   2.252   3.603   1.560
 4424SOL    HW113838   2.161   3.644   1.558
 4424SOL    HW213839   2.245   3.509   1.592
 4425SOL     OW13840   3.536   2.745   1.254
 4425SOL    HW113841   3.509   2.656   1.217
 4425SOL    HW213842   3.537   2.813   1.181
 4426SOL     OW13843   3.087   2.187   0.449
 4426SOL    HW113844   3.152   2.113   0.438
 4426SOL    HW213845   3.107   2.237   0.533
 4427SOL     OW13846   2.456   2.607   0.652
 4427SOL    HW113847   2.506   2.692   0.633
 4427SOL    HW213848   2.368   2.609   0.604
 4428SOL     OW13849   3.639   2.204   1.642
 4428SOL    HW113850   3.622   2.235   1.548
 4428SOL    HW213851   3.555   2.167   1.680
 4429SOL     OW13852   3.592   2.796   1.517
 4429SOL    HW113853   3.630   2.887   1.532
 4429SOL    HW213854   3.584   2.779   1.418
 4430SOL     OW13855   2.721   3.236   0.016
 4430SOL    HW113856   2.675   3.251   0.104
 4430SOL    HW213857   2.765   3.321  -0.014
 4431SOL     OW13858   2.523   3.652   0.953
 4431SOL    HW113859   2.477   3.740   0.940
 4431SOL    HW213860   2.622   3.664   0.946
 4432SOL     OW13861   2.721   2.818   0.861
 4432SOL    HW113862   2.775   2.749   0.909
 4432SOL    HW213863   2.689   2.887   0.927
 4433SOL     OW13864   2.945   2.846   0.087
 4433SOL    HW113865   2.922   2.899   0.005
 4433SOL    HW213866   3.026   2.790   0.068
 4434SOL     OW13867   3.723   3.431   0.851
 4434SOL    HW113868   3.652   3.419   0.781
 4434SOL    HW213869   3.724   3.352   0.911
 4435SOL     OW13870   2.083   3.176   1.844
 4435SOL    HW113871   2.018   3.103   1.823
 4435SOL    HW213872   2.087   3.190   1.942
 4436SOL     OW13873   1.941   3.102   0.653
 4436SOL    HW113874   1.940   3.055   0.741
 4436SOL    HW213875   2.023   3.074   0.602
 4437SOL     OW13876   2.534   3.253   1.624
 4437SOL    HW113877   2.456   3.203   1.662
 4437SOL    HW213878   2.531   3.348   1.655
 4438SOL     OW13879   3.686   2.054   1.227
 4438SOL    HW113880   3.682   1.964   1.271
 4438SOL    HW213881   3.689   2.043   1.128
 4439SOL     OW13882   3.567   3.349   1.104
 4439SOL    HW113883   3.474   3.324   1.077
 4439SOL    HW213884   3.593   3.299   1.186
 4440SOL     OW13885   2.674   3.448   0.687
 4440SOL    HW113886   2.706   3.458   0.593
 4440SOL    HW213887   2.595   3.386   0.689
 4441SOL     OW13888   3.286   2.076   1.112
 4441SOL    HW113889   3.338   2.011   1.167
 4441SOL    HW213890   3.237   2.139   1.173
 4442SOL     OW13891   2.863   1.896   1.154
 4442SOL    HW113892   2.800   1.824   1.123
 4442SOL    HW213893   2.956   1.860   1.154
 4443SOL     OW13894   2.632   3.192   0.301
 4443SOL    HW113895   2.586   3.105   0.318
 4443SOL    HW213896   2.723   3.189   0.342
 4444SOL     OW13897   2.480   3.429   1.284
 4444SOL    HW113898   2.475   3.511   1.341
 4444SOL    HW213899   2.569   3.426   1.239
 4445SOL     OW13900   3.214   1.914   0.168
 4445SOL    HW113901   3.249   1.873   0.084
 4445SOL    HW213902   3.124   1.876   0.188
 4446SOL     OW13903   3.162   2.315   0.691
 4446SOL    HW113904   3.103   2.395   0.695
 4446SOL    HW213905   3.177   2.280   0.784
 4447SOL     OW13906   3.455   2.083   0.882
 4447SOL    HW113907   3.371   2.082   0.936
 4447SOL    HW213908   3.457   2.166   0.826
 4448SOL     OW13909   1.901   2.939   0.300
 4448SOL    HW113910   2.000   2.928   0.291
 4448SOL    HW213911   1.861   2.853   0.332
 4449SOL     OW13912   2.737   3.508   0.337
 4449SOL    HW113913   2.660   3.473   0.283
 4449SOL    HW213914   2.705   3.579   0.399
 4450SOL     OW13915   2.092   2.490   1.975
 4450SOL    HW113916   1.999   2.488   2.012
 4450SOL    HW213917   2.093   2.451   1.883
 4451SOL     OW13918   2.087   2.137   2.858
 4451SOL    HW113919   2.122   2.120   2.950
 4451SOL    HW213920   1.999   2.092   2.846
 4452SOL     OW13921   1.881   2.230   2.509
 4452SOL    HW113922   1.799   2.273   2.548
 4452SOL    HW213923   1.853   2.157   2.446
 4453SOL     OW13924   2.431   3.137   3.027
 4453SOL    HW113925   2.338   3.130   2.990
 4453SOL    HW213926   2.442   3.226   3.071
 4454SOL     OW13927   3.417   3.373   2.565
 4454SOL    HW113928   3.360   3.357   2.646
 4454SOL    HW213929   3.358   3.383   2.485
 4455SOL     OW13930   2.997   2.565   2.579
 4455SOL    HW113931   3.054   2.643   2.554
 4455SOL    HW213932   2.937   2.591   2.655
 4456SOL     OW13933   3.617   2.469   2.093
 4456SOL    HW113934   3.605   2.456   1.994
 4456SOL    HW213935   3.587   2.388   2.142
 4457SOL     OW13936   2.630   3.006   2.885
 4457SOL    HW113937   2.552   3.023   2.945
 4457SOL    HW213938   2.664   3.093   2.849
 4458SOL     OW13939   2.712   2.660   3.685
 4458SOL    HW113940   2.708   2.736   3.750
 4458SOL    HW213941   2.734   2.696   3.594
 4459SOL     OW13942   2.547   2.874   2.527
 4459SOL    HW113943   2.616   2.858   2.597
 4459SOL    HW213944   2.474   2.931   2.565
 4460SOL     OW13945   2.548   3.023   3.665
 4460SOL    HW113946   2.608   3.102   3.679
 4460SOL    HW213947   2.462   3.054   3.624
 4461SOL     OW13948   2.197   3.297   2.923
 4461SOL    HW113949   2.119   3.266   2.870
 4461SOL    HW213950   2.255   3.355   2.866
 4462SOL     OW13951   3.322   3.367   3.201
 4462SOL    HW113952   3.346   3.461   3.227
 4462SOL    HW213953   3.306   3.313   3.283
 4463SOL     OW13954   3.465   2.309   2.599
 4463SOL    HW113955   3.391   2.355   2.549
 4463SOL    HW213956   3.516   2.377   2.652
 4464SOL     OW13957   2.093   3.575   2.345
 4464SOL    HW113958   2.127   3.652   2.399
 4464SOL    HW213959   2.137   3.575   2.255
 4465SOL     OW13960   2.989   3.203   3.552
 4465SOL    HW113961   3.036   3.203   3.640
 4465SOL    HW213962   2.941   3.116   3.541
 4466SOL     OW13963   2.092   3.296   2.400
 4466SOL    HW113964   2.066   3.392   2.400
 4466SOL    HW213965   2.021   3.242   2.445
 4467SOL     OW13966   2.102   2.953   2.748
 4467SOL    HW113967   2.116   2.869   2.800
 4467SOL    HW213968   2.047   3.017   2.803
 4468SOL     OW13969   2.482   3.648   3.301
 4468SOL    HW113970   2.390   3.631   3.336
 4468SOL    HW213971   2.510   3.740   3.327
 4469SOL     OW13972   2.468   2.826   1.985
 4469SOL    HW113973   2.475   2.910   1.931
 4469SOL    HW213974   2.514   2.839   2.073
 4470SOL     OW13975   3.456   1.976   3.342
 4470SOL    HW113976   3.438   2.043   3.270
 4470SOL    HW213977   3.453   2.022   3.431
 4471SOL     OW13978   1.984   2.505   2.425
 4471SOL    HW113979   1.939   2.417   2.442
 4471SOL    HW213980   1.983   2.559   2.509
 4472SOL     OW13981   3.704   3.629   2.221
 4472SOL    HW113982   3.758   3.600   2.301
 4472SOL    HW213983   3.734   3.719   2.192
 4473SOL     OW13984   1.889   3.458   1.979
 4473SOL    HW113985   1.870   3.362   2.000
 4473SOL    HW213986   1.856   3.516   2.054
 4474SOL     OW13987   3.551   2.784   2.474
 4474SOL    HW113988   3.646   2.755   2.482
 4474SOL    HW213989   3.543   2.849   2.399
 4475SOL     OW13990   3.503   2.970   2.294
 4475SOL    HW113991   3.589   2.972   2.242
 4475SOL    HW213992   3.517   3.017   2.382
 4476SOL     OW13993   1.975   2.599   3.459
 4476SOL    HW113994   2.063   2.586   3.504
 4476SOL    HW213995   1.962   2.696   3.437
 4477SOL     OW13996   2.475   3.227   2.588
 4477SOL    HW113997   2.426   3.140   2.597
 4477SOL    HW213998   2.452   3.270   2.501
 4478SOL     OW13999   3.155   3.090   3.285
 4478SOL    HW114000   3.192   3.017   3.227
 4478SOL    HW214001   3.207   3.095   3.370
 4479SOL     OW14002   2.671   1.866   2.364
 4479SOL    HW114003   2.711   1.957   2.355
 4479SOL    HW214004   2.571   1.874   2.370
 4480SOL     OW14005   2.059   2.838   3.126
 4480SOL    HW114006   2.148   2.793   3.112
 4480SOL    HW214007   1.986   2.773   3.107
 4481SOL     OW14008   3.387   2.861   2.052
 4481SOL    HW114009   3.324   2.785   2.065
 4481SOL    HW214010   3.435   2.879   2.138
 4482SOL     OW14011   3.049   3.654   3.478
 4482SOL    HW114012   3.073   3.714   3.402
 4482SOL    HW214013   3.056   3.559   3.448
 4483SOL     OW14014   3.328   3.279   2.815
 4483SOL    HW114015   3.269   3.285   2.895
 4483SOL    HW214016   3.313   3.191   2.769
 4484SOL     OW14017   3.529   3.576   2.434
 4484SOL    HW114018   3.488   3.553   2.346
 4484SOL    HW214019   3.511   3.502   2.499
 4485SOL     OW14020   2.460   2.591   2.132
 4485SOL    HW114021   2.484   2.660   2.064
 4485SOL    HW214022   2.382   2.624   2.186
 4486SOL     OW14023   3.143   2.207   2.806
 4486SOL    HW114024   3.057   2.157   2.793
 4486SOL    HW214025   3.205   2.153   2.862
 4487SOL     OW14026   3.438   3.524   2.169
 4487SOL    HW114027   3.527   3.570   2.172
 4487SOL    HW214028   3.417   3.500   2.074
 4488SOL     OW14029   2.669   2.467   3.327
 4488SOL    HW114030   2.622   2.464   3.416
 4488SOL    HW214031   2.618   2.412   3.261
 4489SOL     OW14032   3.256   2.331   3.536
 4489SOL    HW114033   3.236   2.374   3.624
 4489SOL    HW214034   3.334   2.269   3.545
 4490SOL     OW14035   2.835   2.752   3.434
 4490SOL    HW114036   2.881   2.668   3.405
 4490SOL    HW214037   2.779   2.786   3.359
 4491SOL     OW14038   2.853   2.272   3.104
 4491SOL    HW114039   2.776   2.306   3.158
 4491SOL    HW214040   2.819   2.221   3.025
 4492SOL     OW14041   2.903   2.563   2.291
 4492SOL    HW114042   2.929   2.559   2.387
 4492SOL    HW214043   2.818   2.512   2.277
 4493SOL     OW14044   1.938   2.673   2.651
 4493SOL    HW114045   2.037   2.661   2.660
 4493SOL    HW214046   1.914   2.768   2.672
 4494SOL     OW14047   1.992   3.683   3.433
 4494SOL    HW114048   1.982   3.668   3.532
 4494SOL    HW214049   1.906   3.719   3.397
 4495SOL     OW14050   2.727   2.210   2.057
 4495SOL    HW114051   2.786   2.273   2.008
 4495SOL    HW214052   2.746   2.116   2.028
 4496SOL     OW14053   3.581   2.447   3.693
 4496SOL    HW114054   3.555   2.536   3.657
 4496SOL    HW214055   3.579   2.379   3.620
 4497SOL     OW14056   3.224   3.006   2.407
 4497SOL    HW114057   3.307   2.977   2.359
 4497SOL    HW214058   3.175   3.073   2.351
 4498SOL     OW14059   2.412   2.058   2.747
 4498SOL    HW114060   2.407   2.053   2.847
 4498SOL    HW214061   2.414   2.154   2.718
 4499SOL     OW14062   2.870   3.318   2.339
 4499SOL    HW114063   2.824   3.390   2.287
 4499SOL    HW214064   2.866   3.338   2.437
 4500SOL     OW14065   2.213   3.663   2.715
 4500SOL    HW114066   2.263   3.577   2.721
 4500SOL    HW214067   2.278   3.740   2.712
 4501SOL     OW14068   3.657   2.928   2.735
 4501SOL    HW114069   3.595   2.913   2.659
 4501SOL    HW214070   3.605   2.939   2.820
 4502SOL     OW14071   3.089   3.412   3.368
 4502SOL    HW114072   3.095   3.335   3.432
 4502SOL    HW214073   3.037   3.386   3.288
 4503SOL     OW14074   2.183   2.805   2.104
 4503SOL    HW114075   2.265   2.844   2.062
 4503SOL    HW214076   2.156   2.723   2.055
 4504SOL     OW14077   3.320   2.597   2.590
 4504SOL    HW114078   3.315   2.532   2.665
 4504SOL    HW214079   3.400   2.656   2.603
 4505SOL     OW14080   2.323   3.128   3.589
 4505SOL    HW114081   2.273   3.129   3.503
 4505SOL    HW214082   2.260   3.110   3.665
 4506SOL     OW14083   2.973   3.638   2.099
 4506SOL    HW114084   2.913   3.576   2.149
 4506SOL    HW214085   3.004   3.594   2.014
 4507SOL     OW14086   2.064   2.147   3.360
 4507SOL    HW114087   1.984   2.207   3.347
 4507SOL    HW214088   2.054   2.098   3.446
 4508SOL     OW14089   3.494   3.239   1.943
 4508SOL    HW114090   3.462   3.333   1.933
 4508SOL    HW214091   3.418   3.176   1.931
 4509SOL     OW14092   2.326   3.605   2.185
 4509SOL    HW114093   2.359   3.644   2.271
 4509SOL    HW214094   2.402   3.598   2.120
 4510SOL     OW14095   3.262   1.969   2.288
 4510SOL    HW114096   3.238   1.932   2.198
 4510SOL    HW214097   3.361   1.985   2.292
 4511SOL     OW14098   2.111   3.647   3.103
 4511SOL    HW114099   2.168   3.582   3.153
 4511SOL    HW214100   2.095   3.614   3.010
 4512SOL     OW14101   2.802   3.560   2.766
 4512SOL    HW114102   2.882   3.503   2.787
 4512SOL    HW214103   2.753   3.520   2.689
 4513SOL     OW14104   3.409   2.084   3.591
 4513SOL    HW114105   3.404   2.121   3.683
 4513SOL    HW214106   3.337   2.015   3.579
 4514SOL     OW14107   2.476   1.984   1.979
 4514SOL    HW114108   2.574   1.962   1.986
 4514SOL    HW214109   2.445   1.967   1.886
 4515SOL     OW14110   2.643   2.126   3.611
 4515SOL    HW114111   2.710   2.065   3.654
 4515SOL    HW214112   2.570   2.145   3.676
 4516SOL     OW14113   2.750   3.376   3.057
 4516SOL    HW114114   2.727   3.351   2.963
 4516SOL    HW214115   2.811   3.307   3.096
 4517SOL     OW14116   3.213   2.452   3.295
 4517SOL    HW114117   3.241   2.409   3.380
 4517SOL    HW214118   3.238   2.548   3.296
 4518SOL     OW14119   2.665   3.264   2.786
 4518SOL    HW114120   2.755   3.278   2.744
 4518SOL    HW214121   2.594   3.266   2.715
 4519SOL     OW14122   2.784   2.365   2.761
 4519SOL    HW114123   2.759   2.356   2.665
 4519SOL    HW214124   2.832   2.283   2.792
 4520SOL     OW14125   2.401   1.926   2.374
 4520SOL    HW114126   2.320   1.927   2.432
 4520SOL    HW214127   2.404   2.009   2.319
 4521SOL     OW14128   3.296   3.050   1.903
 4521SOL    HW114129   3.328   2.974   1.960
 4521SOL    HW214130   3.204   3.077   1.933
 4522SOL     OW14131   2.797   2.098   2.342
 4522SOL    HW114132   2.749   2.139   2.264
 4522SOL    HW214133   2.896   2.096   2.323
 4523SOL     OW14134   2.938   2.545   3.326
 4523SOL    HW114135   2.858   2.484   3.329
 4523SOL    HW214136   3.019   2.492   3.302
 4524SOL     OW14137   3.089   3.432   2.655
 4524SOL    HW114138   3.110   3.506   2.590
 4524SOL    HW214139   3.157   3.432   2.728
 4525SOL     OW14140   2.321   3.014   2.603
 4525SOL    HW114141   2.250   2.987   2.668
 4525SOL    HW214142   2.295   2.986   2.510
 4526SOL     OW14143   3.133   3.659   2.453
 4526SOL    HW114144   3.177   3.723   2.389
 4526SOL    HW214145   3.083   3.711   2.523
 4527SOL     OW14146   2.894   2.411   1.878
 4527SOL    HW114147   2.853   2.493   1.839
 4527SOL    HW214148   2.958   2.437   1.951
 4528SOL     OW14149   1.940   2.418   3.248
 4528SOL    HW114150   2.032   2.417   3.207
 4528SOL    HW214151   1.934   2.492   3.315
 4529SOL     OW14152   2.423   2.084   3.009
 4529SOL    HW114153   2.461   2.000   3.046
 4529SOL    HW214154   2.335   2.103   3.053
 4530SOL     OW14155   2.728   2.316   2.504
 4530SOL    HW114156   2.696   2.388   2.442
 4530SOL    HW214157   2.752   2.235   2.451
 4531SOL     OW14158   2.879   1.901   2.615
 4531SOL    HW114159   2.807   1.906   2.546
 4531SOL    HW214160   2.855   1.832   2.684
 4532SOL     OW14161   3.291   3.035   2.729
 4532SOL    HW114162   3.236   2.951   2.722
 4532SOL    HW214163   3.317   3.064   2.637
 4533SOL     OW14164   3.328   2.452   2.854
 4533SOL    HW114165   3.298   2.357   2.861
 4533SOL    HW214166   3.401   2.468   2.920
 4534SOL     OW14167   3.719   2.695   2.239
 4534SOL    HW114168   3.761   2.631   2.303
 4534SOL    HW214169   3.681   2.644   2.161
 4535SOL     OW14170   2.350   3.247   2.036
 4535SOL    HW114171   2.263   3.232   2.083
 4535SOL    HW214172   2.333   3.273   1.941
 4536SOL     OW14173   3.526   3.142   2.519
 4536SOL    HW114174   3.625   3.150   2.533
 4536SOL    HW214175   3.481   3.226   2.550
 4537SOL     OW14176   3.252   2.437   1.940
 4537SOL    HW114177   3.198   2.416   2.021
 4537SOL    HW214178   3.343   2.396   1.949
 4538SOL     OW14179   3.616   3.085   3.450
 4538SOL    HW114180   3.707   3.046   3.437
 4538SOL    HW214181   3.624   3.181   3.474
 4539SOL     OW14182   2.926   3.209   3.202
 4539SOL    HW114183   2.846   3.186   3.257
 4539SOL    HW214184   3.009   3.183   3.251
 4540SOL     OW14185   3.454   3.491   3.487
 4540SOL    HW114186   3.481   3.525   3.397
 4540SOL    HW214187   3.533   3.453   3.533
 4541SOL     OW14188   2.973   3.057   2.962
 4541SOL    HW114189   2.933   3.101   3.043
 4541SOL    HW214190   2.932   3.094   2.879
 4542SOL     OW14191   3.500   2.961   2.941
 4542SOL    HW114192   3.505   3.042   3.000
 4542SOL    HW214193   3.414   2.963   2.890
 4543SOL     OW14194   2.777   1.951   3.264
 4543SOL    HW114195   2.802   1.931   3.169
 4543SOL    HW214196   2.849   2.007   3.306
 4544SOL     OW14197   2.842   2.978   3.581
 4544SOL    HW114198   2.743   2.984   3.591
 4544SOL    HW214199   2.865   2.898   3.525
 4545SOL     OW14200   2.567   2.912   2.230
 4545SOL    HW114201   2.553   2.919   2.329
 4545SOL    HW214202   2.651   2.861   2.212
 4546SOL     OW14203   2.272   2.675   3.113
 4546SOL    HW114204   2.358   2.687   3.163
 4546SOL    HW214205   2.230   2.588   3.140
 4547SOL     OW14206   3.136   2.248   3.124
 4547SOL    HW114207   3.157   2.322   3.188
 4547SOL    HW214208   3.047   2.265   3.081
 4548SOL     OW14209   1.926   3.426   3.193
 4548SOL    HW114210   1.880   3.508   3.159
 4548SOL    HW214211   2.024   3.445   3.202
 4549SOL     OW14212   2.229   2.962   2.363
 4549SOL    HW114213   2.222   3.045   2.307
 4549SOL    HW214214   2.233   2.882   2.303
 4550SOL     OW14215   2.428   2.399   2.727
 4550SOL    HW114216   2.440   2.465   2.653
 4550SOL    HW214217   2.474   2.433   2.810
 4551SOL     OW14218   3.114   3.210   2.250
 4551SOL    HW114219   3.164   3.287   2.290
 4551SOL    HW214220   3.019   3.212   2.282
 4552SOL     OW14221   3.134   3.307   3.004
 4552SOL    HW114222   3.181   3.320   3.091
 4552SOL    HW214223   3.068   3.233   3.013
 4553SOL     OW14224   3.444   2.501   2.334
 4553SOL    HW114225   3.413   2.562   2.407
 4553SOL    HW214226   3.494   2.553   2.265
 4554SOL     OW14227   2.216   3.372   3.191
 4554SOL    HW114228   2.195   3.328   3.104
 4554SOL    HW214229   2.313   3.398   3.194
 4555SOL     OW14230   2.264   2.613   3.460
 4555SOL    HW114231   2.332   2.668   3.413
 4555SOL    HW214232   2.304   2.525   3.487
 4556SOL     OW14233   3.449   2.641   3.532
 4556SOL    HW114234   3.357   2.679   3.527
 4556SOL    HW214235   3.509   2.688   3.467
 4557SOL     OW14236   2.875   1.967   3.632
 4557SOL    HW114237   2.881   2.052   3.580
 4557SOL    HW214238   2.907   1.891   3.575
 4558SOL     OW14239   2.366   1.912   3.602
 4558SOL    HW114240   2.324   1.855   3.532
 4558SOL    HW214241   2.300   1.981   3.634
 4559SOL     OW14242   2.435   2.732   2.891
 4559SOL    HW114243   2.479   2.821   2.882
 4559SOL    HW214244   2.372   2.732   2.968
 4560SOL     OW14245   3.222   2.724   2.907
 4560SOL    HW114246   3.147   2.724   2.841
 4560SOL    HW214247   3.259   2.632   2.916
 4561SOL     OW14248   3.071   2.387   2.137
 4561SOL    HW114249   3.084   2.303   2.191
 4561SOL    HW214250   3.042   2.461   2.197
 4562SOL     OW14251   1.899   3.172   3.144
 4562SOL    HW114252   1.952   3.123   3.212
 4562SOL    HW214253   1.921   3.270   3.149
 4563SOL     OW14254   2.594   2.496   2.926
 4563SOL    HW114255   2.653   2.470   2.850
 4563SOL    HW214256   2.566   2.592   2.915
 4564SOL     OW14257   3.590   2.797   3.716
 4564SOL    HW114258   3.544   2.790   3.627
 4564SOL    HW214259   3.528   2.841   3.782
 4565SOL     OW14260   3.484   2.229   2.236
 4565SOL    HW114261   3.486   2.153   2.300
 4565SOL    HW214262   3.436   2.306   2.276
 4566SOL     OW14263   2.885   2.628   2.828
 4566SOL    HW114264   2.900   2.649   2.924
 4566SOL    HW214265   2.855   2.533   2.819
 4567SOL     OW14266   2.842   3.435   3.562
 4567SOL    HW114267   2.822   3.479   3.474
 4567SOL    HW214268   2.881   3.344   3.546
 4568SOL     OW14269   3.721   3.380   3.467
 4568SOL    HW114270   3.735   3.407   3.372
 4568SOL    HW214271   3.804   3.402   3.520
 4569SOL     OW14272   2.212   2.760   3.666
 4569SOL    HW114273   2.288   2.804   3.714
 4569SOL    HW214274   2.247   2.713   3.584
 4570SOL     OW14275   3.402   2.136   1.987
 4570SOL    HW114276   3.341   2.061   2.010
 4570SOL    HW214277   3.424   2.188   2.070
 4571SOL     OW14278   3.165   2.700   1.904
 4571SOL    HW114279   3.199   2.607   1.919
 4571SOL    HW214280   3.183   2.727   1.809
 4572SOL     OW14281   2.930   3.195   2.711
 4572SOL    HW114282   2.937   3.111   2.656
 4572SOL    HW214283   2.992   3.264   2.675
 4573SOL     OW14284   2.181   2.672   2.811
 4573SOL    HW114285   2.274   2.708   2.816
 4573SOL    HW214286   2.175   2.587   2.863
 4574SOL     OW14287   3.000   2.242   3.540
 4574SOL    HW114288   2.955   2.305   3.604
 4574SOL    HW214289   3.093   2.273   3.523
 4575SOL     OW14290   3.022   2.069   3.339
 4575SOL    HW114291   3.022   2.133   3.416
 4575SOL    HW214292   3.050   2.117   3.256
 4576SOL     OW14293   1.870   3.188   2.062
 4576SOL    HW114294   1.777   3.209   2.031
 4576SOL    HW214295   1.880   3.089   2.075
 4577SOL     OW14296   1.950   3.663   2.789
 4577SOL    HW114297   1.908   3.577   2.762
 4577SOL    HW214298   2.044   3.666   2.755
 4578SOL     OW14299   2.366   3.430   2.772
 4578SOL    HW114300   2.432   3.504   2.781
 4578SOL    HW214301   2.410   3.351   2.730
 4579SOL     OW14302   2.864   2.658   3.100
 4579SOL    HW114303   2.905   2.626   3.186
 4579SOL    HW214304   2.768   2.631   3.097
 4580SOL     OW14305   1.902   2.406   2.976
 4580SOL    HW114306   1.987   2.373   2.935
 4580SOL    HW214307   1.915   2.421   3.074
 4581SOL     OW14308   3.231   2.812   3.522
 4581SOL    HW114309   3.270   2.901   3.542
 4581SOL    HW214310   3.241   2.792   3.425
 4582SOL     OW14311   2.677   2.434   2.187
 4582SOL    HW114312   2.684   2.345   2.141
 4582SOL    HW214313   2.583   2.468   2.179
 4583SOL     OW14314   3.519   2.466   3.068
 4583SOL    HW114315   3.481   2.397   3.130
 4583SOL    HW214316   3.601   2.430   3.024
 4584SOL     OW14317   2.114   3.426   3.606
 4584SOL    HW114318   2.084   3.483   3.682
 4584SOL    HW214319   2.107   3.329   3.632
 4585SOL     OW14320   2.792   3.540   3.327
 4585SOL    HW114321   2.768   3.522   3.232
 4585SOL    HW214322   2.822   3.634   3.337
 4586SOL     OW14323   2.021   2.999   3.328
 4586SOL    HW114324   2.043   2.938   3.404
 4586SOL    HW214325   2.031   2.950   3.242
 4587SOL     OW14326   3.209   2.921   3.096
 4587SOL    HW114327   3.233   2.858   3.022
 4587SOL    HW214328   3.119   2.961   3.078
 4588SOL     OW14329   3.164   2.717   2.171
 4588SOL    HW114330   3.078   2.686   2.213
 4588SOL    HW214331   3.160   2.703   2.072
 4589SOL     OW14332   3.621   3.609   3.016
 4589SOL    HW114333   3.682   3.639   2.943
 4589SOL    HW214334   3.583   3.520   2.994
 4590SOL     OW14335   3.114   3.593   2.990
 4590SOL    HW114336   3.198   3.598   2.936
 4590SOL    HW214337   3.091   3.497   3.008
 4591SOL     OW14338   1.945   3.120   2.884
 4591SOL    HW114339   1.940   3.119   2.984
 4591SOL    HW214340   1.862   3.079   2.846
 4592SOL     OW14341   2.550   3.524   3.578
 4592SOL    HW114342   2.494   3.605   3.587
 4592SOL    HW214343   2.602   3.528   3.492
 4593SOL     OW14344   3.588   1.997   2.385
 4593SOL    HW114345   3.661   1.980   2.318
 4593SOL    HW214346   3.557   1.910   2.423
 4594SOL     OW14347   3.250   3.435   2.339
 4594SOL    HW114348   3.317   3.447   2.265
 4594SOL    HW214349   3.210   3.524   2.362
 4595SOL     OW14350   1.992   3.656   3.713
 4595SOL    HW114351   1.951   3.582   3.766
 4595SOL    HW214352   2.056   3.707   3.771
 4596SOL     OW14353   3.142   2.789   2.534
 4596SOL    HW114354   3.202   2.708   2.536
 4596SOL    HW214355   3.182   2.858   2.474
 4597SOL     OW14356   2.692   3.135   3.284
 4597SOL    HW114357   2.687   3.168   3.379
 4597SOL    HW214358   2.606   3.154   3.238
 4598SOL     OW14359   2.534   3.478   2.016
 4598SOL    HW114360   2.543   3.488   1.917
 4598SOL    HW214361   2.494   3.389   2.037
 4599SOL     OW14362   3.512   3.582   3.256
 4599SOL    HW114363   3.565   3.592   3.172
 4599SOL    HW214364   3.485   3.672   3.290
 4600SOL     OW14365   3.703   2.037   2.825
 4600SOL    HW114366   3.742   1.952   2.789
 4600SOL    HW214367   3.605   2.039   2.806
 4601SOL     OW14368   3.056   3.474   1.893
 4601SOL    HW114369   3.062   3.381   1.930
 4601SOL    HW214370   2.997   3.474   1.813
 4602SOL     OW14371   2.684   2.864   3.234
 4602SOL    HW114372   2.724   2.863   3.142
 4602SOL    HW214373   2.694   2.956   3.274
 4603SOL     OW14374   2.778   2.772   2.153
 4603SOL    HW114375   2.841   2.810   2.085
 4603SOL    HW214376   2.818   2.689   2.192
 4604SOL     OW14377   3.366   3.469   1.906
 4604SOL    HW114378   3.274   3.506   1.913
 4604SOL    HW214379   3.404   3.489   1.816
 4605SOL     OW14380   2.234   3.150   3.352
 4605SOL    HW114381   2.221   3.243   3.318
 4605SOL    HW214382   2.150   3.098   3.339
 4606SOL     OW14383   3.476   3.154   3.151
 4606SOL    HW114384   3.536   3.157   3.231
 4606SOL    HW214385   3.401   3.218   3.164
 4607SOL     OW14386   2.901   2.960   2.558
 4607SOL    HW114387   2.831   2.913   2.612
 4607SOL    HW214388   2.960   2.892   2.515
 4608SOL     OW14389   2.876   2.098   2.833
 4608SOL    HW114390   2.868   2.062   2.740
 4608SOL    HW214391   2.874   2.022   2.898
 4609SOL     OW14392   2.452   3.349   2.353
 4609SOL    HW114393   2.494   3.291   2.283
 4609SOL    HW214394   2.408   3.428   2.309
 4610SOL     OW14395   3.571   2.247   3.243
 4610SOL    HW114396   3.644   2.316   3.247
 4610SOL    HW214397   3.599   2.172   3.184
 4611SOL     OW14398   2.117   3.210   2.152
 4611SOL    HW114399   2.021   3.211   2.125
 4611SOL    HW214400   2.129   3.263   2.236
 4612SOL     OW14401   1.967   2.875   3.588
 4612SOL    HW114402   1.890   2.842   3.642
 4612SOL    HW214403   2.052   2.845   3.630
 4613SOL     OW14404   2.534   2.065   3.351
 4613SOL    HW114405   2.624   2.049   3.311
 4613SOL    HW214406   2.542   2.070   3.450
 4614SOL     OW14407   1.937   2.207   1.895
 4614SOL    HW114408   1.845   2.179   1.866
 4614SOL    HW214409   1.968   2.284   1.839
 4615SOL     OW14410   3.302   2.718   3.260
 4615SOL    HW114411   3.245   2.770   3.197
 4615SOL    HW214412   3.398   2.730   3.236
 4616SOL     OW14413   1.934   2.028   2.180
 4616SOL    HW114414   1.917   2.111   2.126
 4616SOL    HW214415   2.024   1.991   2.158
 4617SOL     OW14416   3.045   3.197   1.981
 4617SOL    HW114417   2.946   3.186   1.983
 4617SOL    HW214418   3.079   3.212   2.074
 4618SOL     OW14419   2.475   2.704   3.293
 4618SOL    HW114420   2.531   2.785   3.276
 4618SOL    HW214421   2.534   2.624   3.296
 4619SOL     OW14422   3.355   3.629   2.821
 4619SOL    HW114423   3.388   3.693   2.752
 4619SOL    HW214424   3.421   3.623   2.896
 4620SOL     OW14425   2.578   2.427   3.570
 4620SOL    HW114426   2.597   2.492   3.644
 4620SOL    HW214427   2.638   2.347   3.579
 4621SOL     OW14428   3.312   3.082   3.495
 4621SOL    HW114429   3.303   3.072   3.594
 4621SOL    HW214430   3.408   3.075   3.469
 4622SOL     OW14431   2.252   3.603   3.422
 4622SOL    HW114432   2.161   3.644   3.420
 4622SOL    HW214433   2.245   3.509   3.454
 4623SOL     OW14434   3.536   2.745   3.116
 4623SOL    HW114435   3.509   2.656   3.079
 4623SOL    HW214436   3.537   2.813   3.043
 4624SOL     OW14437   3.087   2.187   2.311
 4624SOL    HW114438   3.152   2.113   2.300
 4624SOL    HW214439   3.107   2.237   2.395
 4625SOL     OW14440   2.456   2.607   2.514
 4625SOL    HW114441   2.506   2.692   2.495
 4625SOL    HW214442   2.368   2.609   2.466
 4626SOL     OW14443   3.639   2.204   3.504
 4626SOL    HW114444   3.622   2.235   3.410
 4626SOL    HW214445   3.555   2.167   3.542
 4627SOL     OW14446   3.592   2.796   3.379
 4627SOL    HW114447   3.630   2.887   3.394
 4627SOL    HW214448   3.584   2.779   3.280
 4628SOL     OW14449   2.721   3.236   1.878
 4628SOL    HW114450   2.675   3.251   1.966
 4628SOL    HW214451   2.765   3.321   1.848
 4629SOL     OW14452   2.523   3.652   2.815
 4629SOL    HW114453   2.477   3.740   2.802
 4629SOL    HW214454   2.622   3.664   2.808
 4630SOL     OW14455   2.721   2.818   2.723
 4630SOL    HW114456   2.775   2.749   2.771
 4630SOL    HW214457   2.689   2.887   2.789
 4631SOL     OW14458   2.945   2.846   1.949
 4631SOL    HW114459   2.922   2.899   1.867
 4631SOL    HW214460   3.026   2.790   1.930
 4632SOL     OW14461   3.723   3.431   2.713
 4632SOL    HW114462   3.652   3.419   2.643
 4632SOL    HW214463   3.724   3.352   2.773
 4633SOL     OW14464   2.083   3.176   3.706
 4633SOL    HW114465   2.018   3.103   3.685
 4633SOL    HW214466   2.087   3.190   3.804
 4634SOL     OW14467   1.941   3.102   2.515
 4634SOL    HW114468   1.940   3.055   2.603
 4634SOL    HW214469   2.023   3.074   2.464
 4635SOL     OW14470   2.534   3.253   3.486
 4635SOL    HW114471   2.456   3.203   3.524
 4635SOL    HW214472   2.531   3.348   3.517
 4636SOL     OW14473   3.686   2.054   3.089
 4636SOL    HW114474   3.682   1.964   3.133
 4636SOL    HW214475   3.689   2.043   2.990
 4637SOL     OW14476   3.567   3.349   2.966
 4637SOL    HW114477   3.474   3.324   2.939
 4637SOL    HW214478   3.593   3.299   3.048
 4638SOL     OW14479   2.674   3.448   2.549
 4638SOL    HW114480   2.706   3.458   2.455
 4638SOL    HW214481   2.595   3.386   2.551
 4639SOL     OW14482   3.286   2.076   2.974
 4639SOL    HW114483   3.338   2.011   3.029
 4639SOL    HW214484   3.237   2.139   3.035
 4640SOL     OW14485   2.863   1.896   3.016
 4640SOL    HW114486   2.800   1.824   2.985
 4640SOL    HW214487   2.956   1.860   3.016
 4641SOL     OW14488   2.632   3.192   2.163
 4641SOL    HW114489   2.586   3.105   2.180
 4641SOL    HW214490   2.723   3.189   2.204
 4642SOL     OW14491   2.480   3.429   3.146
 4642SOL    HW114492   2.475   3.511   3.203
 4642SOL    HW214493   2.569   3.426   3.101
 4643SOL     OW14494   3.214   1.914   2.030
 4643SOL    HW114495   3.249   1.873   1.946
 4643SOL    HW214496   3.124   1.876   2.050
 4644SOL     OW14497   3.162   2.315   2.553
 4644SOL    HW114498   3.103   2.395   2.557
 4644SOL    HW214499   3.177   2.280   2.646
 4645SOL     OW14500   3.455   2.083   2.744
 4645SOL    HW114501   3.371   2.082   2.798
 4645SOL    HW214502   3.457   2.166   2.688
 4646SOL     OW14503   1.901   2.939   2.162
 4646SOL    HW114504   2.000   2.928   2.153
 4646SOL    HW214505   1.861   2.853   2.194
 4647SOL     OW14506   2.737   3.508   2.199
 4647SOL    HW114507   2.660   3.473   2.145
 4647SOL    HW214508   2.705   3.579   2.261
 4648SOL     OW14509   2.092   2.490   3.837
 4648SOL    HW114510   1.999   2.488   3.874
 4648SOL    HW214511   2.093   2.451   3.745
 4649SOL     OW14512   1.881   2.230   4.371
 4649SOL    HW114513   1.799   2.273   4.410
 4649SOL    HW214514   1.853   2.157   4.308
 4650SOL     OW14515   2.431   3.137   4.889
 4650SOL    HW114516   2.338   3.130   4.852
 4650SOL    HW214517   2.442   3.226   4.933
 4651SOL     OW14518   3.417   3.373   4.427
 4651SOL    HW114519   3.360   3.357   4.508
 4651SOL    HW214520   3.358   3.383   4.347
 4652SOL     OW14521   2.997   2.565   4.441
 4652SOL    HW114522   3.054   2.643   4.416
 4652SOL    HW214523   2.937   2.591   4.517
 4653SOL     OW14524   3.617   2.469   3.955
 4653SOL    HW114525   3.605   2.456   3.856
 4653SOL    HW214526   3.587   2.388   4.004
 4654SOL     OW14527   2.712   2.660   5.547
 4654SOL    HW114528   2.708   2.736   5.612
 4654SOL    HW214529   2.734   2.696   5.456
 4655SOL     OW14530   2.547   2.874   4.389
 4655SOL    HW114531   2.616   2.858   4.459
 4655SOL    HW214532   2.474   2.931   4.427
 4656SOL     OW14533   2.548   3.023   5.527
 4656SOL    HW114534   2.608   3.102   5.541
 4656SOL    HW214535   2.462   3.054   5.486
 4657SOL     OW14536   2.197   3.297   4.785
 4657SOL    HW114537   2.119   3.266   4.732
 4657SOL    HW214538   2.255   3.355   4.728
 4658SOL     OW14539   3.322   3.367   5.063
 4658SOL    HW114540   3.346   3.461   5.089
 4658SOL    HW214541   3.306   3.313   5.145
 4659SOL     OW14542   3.465   2.309   4.461
 4659SOL    HW114543   3.391   2.355   4.411
 4659SOL    HW214544   3.516   2.377   4.514
 4660SOL     OW14545   2.093   3.575   4.207
 4660SOL    HW114546   2.127   3.652   4.261
 4660SOL    HW214547   2.137   3.575   4.117
 4661SOL     OW14548   2.989   3.203   5.414
 4661SOL    HW114549   3.036   3.203   5.502
 4661SOL    HW214550   2.941   3.116   5.403
 4662SOL     OW14551   2.092   3.296   4.262
 4662SOL    HW114552   2.066   3.392   4.262
 4662SOL    HW214553   2.021   3.242   4.307
 4663SOL     OW14554   2.482   3.648   5.163
 4663SOL    HW114555   2.390   3.631   5.198
 4663SOL    HW214556   2.510   3.740   5.189
 4664SOL     OW14557   2.468   2.826   3.847
 4664SOL    HW114558   2.475   2.910   3.793
 4664SOL    HW214559   2.514   2.839   3.935
 4665SOL     OW14560   3.456   1.976   5.204
 4665SOL    HW114561   3.438   2.043   5.132
 4665SOL    HW214562   3.453   2.022   5.293
 4666SOL     OW14563   1.984   2.505   4.287
 4666SOL    HW114564   1.939   2.417   4.304
 4666SOL    HW214565   1.983   2.559   4.371
 4667SOL     OW14566   3.704   3.629   4.083
 4667SOL    HW114567   3.758   3.600   4.163
 4667SOL    HW214568   3.734   3.719   4.054
 4668SOL     OW14569   1.889   3.458   3.841
 4668SOL    HW114570   1.870   3.362   3.862
 4668SOL    HW214571   1.856   3.516   3.916
 4669SOL     OW14572   3.551   2.784   4.336
 4669SOL    HW114573   3.646   2.755   4.344
 4669SOL    HW214574   3.543   2.849   4.261
 4670SOL     OW14575   3.503   2.970   4.156
 4670SOL    HW114576   3.589   2.972   4.104
 4670SOL    HW214577   3.517   3.017   4.244
 4671SOL     OW14578   2.475   3.227   4.450
 4671SOL    HW114579   2.426   3.140   4.459
 4671SOL    HW214580   2.452   3.270   4.363
 4672SOL     OW14581   3.155   3.090   5.147
 4672SOL    HW114582   3.192   3.017   5.089
 4672SOL    HW214583   3.207   3.095   5.232
 4673SOL     OW14584   2.671   1.866   4.226
 4673SOL    HW114585   2.711   1.957   4.217
 4673SOL    HW214586   2.571   1.874   4.232
 4674SOL     OW14587   3.387   2.861   3.914
 4674SOL    HW114588   3.324   2.785   3.927
 4674SOL    HW214589   3.435   2.879   4.000
 4675SOL     OW14590   3.049   3.654   5.340
 4675SOL    HW114591   3.073   3.714   5.264
 4675SOL    HW214592   3.056   3.559   5.310
 4676SOL     OW14593   3.328   3.279   4.677
 4676SOL    HW114594   3.269   3.285   4.757
 4676SOL    HW214595   3.313   3.191   4.631
 4677SOL     OW14596   3.529   3.576   4.296
 4677SOL    HW114597   3.488   3.553   4.208
 4677SOL    HW214598   3.511   3.502   4.361
 4678SOL     OW14599   2.460   2.591   3.994
 4678SOL    HW114600   2.484   2.660   3.926
 4678SOL    HW214601   2.382   2.624   4.048
 4679SOL     OW14602   3.438   3.524   4.031
 4679SOL    HW114603   3.527   3.570   4.034
 4679SOL    HW214604   3.417   3.500   3.936
 4680SOL     OW14605   3.256   2.331   5.398
 4680SOL    HW114606   3.236   2.374   5.486
 4680SOL    HW214607   3.334   2.269   5.407
 4681SOL     OW14608   2.835   2.752   5.296
 4681SOL    HW114609   2.881   2.668   5.267
 4681SOL    HW214610   2.779   2.786   5.221
 4682SOL     OW14611   2.903   2.563   4.153
 4682SOL    HW114612   2.929   2.559   4.249
 4682SOL    HW214613   2.818   2.512   4.139
 4683SOL     OW14614   1.938   2.673   4.513
 4683SOL    HW114615   2.037   2.661   4.522
 4683SOL    HW214616   1.914   2.768   4.534
 4684SOL     OW14617   1.992   3.683   5.295
 4684SOL    HW114618   1.982   3.668   5.394
 4684SOL    HW214619   1.906   3.719   5.259
 4685SOL     OW14620   2.727   2.210   3.919
 4685SOL    HW114621   2.786   2.273   3.870
 4685SOL    HW214622   2.746   2.116   3.890
 4686SOL     OW14623   3.581   2.447   5.555
 4686SOL    HW114624   3.555   2.536   5.519
 4686SOL    HW214625   3.579   2.379   5.482
 4687SOL     OW14626   3.224   3.006   4.269
 4687SOL    HW114627   3.307   2.977   4.221
 4687SOL    HW214628   3.175   3.073   4.213
 4688SOL     OW14629   2.870   3.318   4.201
 4688SOL    HW114630   2.824   3.390   4.149
 4688SOL    HW214631   2.866   3.338   4.299
 4689SOL     OW14632   2.213   3.663   4.577
 4689SOL    HW114633   2.263   3.577   4.583
 4689SOL    HW214634   2.278   3.740   4.574
 4690SOL     OW14635   3.657   2.928   4.597
 4690SOL    HW114636   3.595   2.913   4.521
 4690SOL    HW214637   3.605   2.939   4.682
 4691SOL     OW14638   3.089   3.412   5.230
 4691SOL    HW114639   3.095   3.335   5.294
 4691SOL    HW214640   3.037   3.386   5.150
 4692SOL     OW14641   2.183   2.805   3.966
 4692SOL    HW114642   2.265   2.844   3.924
 4692SOL    HW214643   2.156   2.723   3.917
 4693SOL     OW14644   3.320   2.597   4.452
 4693SOL    HW114645   3.315   2.532   4.527
 4693SOL    HW214646   3.400   2.656   4.465
 4694SOL     OW14647   2.323   3.128   5.451
 4694SOL    HW114648   2.273   3.129   5.365
 4694SOL    HW214649   2.260   3.110   5.527
 4695SOL     OW14650   2.973   3.638   3.961
 4695SOL    HW114651   2.913   3.576   4.011
 4695SOL    HW214652   3.004   3.594   3.876
 4696SOL     OW14653   3.494   3.239   3.805
 4696SOL    HW114654   3.462   3.333   3.795
 4696SOL    HW214655   3.418   3.176   3.793
 4697SOL     OW14656   2.326   3.605   4.047
 4697SOL    HW114657   2.359   3.644   4.133
 4697SOL    HW214658   2.402   3.598   3.982
 4698SOL     OW14659   3.262   1.969   4.150
 4698SOL    HW114660   3.238   1.932   4.060
 4698SOL    HW214661   3.361   1.985   4.154
 4699SOL     OW14662   2.111   3.647   4.965
 4699SOL    HW114663   2.168   3.582   5.015
 4699SOL    HW214664   2.095   3.614   4.872
 4700SOL     OW14665   2.802   3.560   4.628
 4700SOL    HW114666   2.882   3.503   4.649
 4700SOL    HW214667   2.753   3.520   4.551
 4701SOL     OW14668   2.244   2.562   4.204
 4701SOL    HW114669   2.289   2.472   4.201
 4701SOL    HW214670   2.150   2.551   4.237
 4702SOL     OW14671   3.409   2.084   5.453
 4702SOL    HW114672   3.404   2.121   5.545
 4702SOL    HW214673   3.337   2.015   5.441
 4703SOL     OW14674   2.476   1.984   3.841
 4703SOL    HW114675   2.574   1.962   3.848
 4703SOL    HW214676   2.445   1.967   3.748
 4704SOL     OW14677   2.750   3.376   4.919
 4704SOL    HW114678   2.727   3.351   4.825
 4704SOL    HW214679   2.811   3.307   4.958
 4705SOL     OW14680   3.213   2.452   5.157
 4705SOL    HW114681   3.241   2.409   5.242
 4705SOL    HW214682   3.238   2.548   5.158
 4706SOL     OW14683   2.665   3.264   4.648
 4706SOL    HW114684   2.755   3.278   4.606
 4706SOL    HW214685   2.594   3.266   4.577
 4707SOL     OW14686   2.401   1.926   4.236
 4707SOL    HW114687   2.320   1.927   4.294
 4707SOL    HW214688   2.404   2.009   4.181
 4708SOL     OW14689   3.296   3.050   3.765
 4708SOL    HW114690   3.328   2.974   3.822
 4708SOL    HW214691   3.204   3.077   3.795
 4709SOL     OW14692   2.159   1.897   3.895
 4709SOL    HW114693   2.208   1.981   3.874
 4709SOL    HW214694   2.221   1.832   3.940
 4710SOL     OW14695   2.797   2.098   4.204
 4710SOL    HW114696   2.749   2.139   4.126
 4710SOL    HW214697   2.896   2.096   4.185
 4711SOL     OW14698   3.089   3.432   4.517
 4711SOL    HW114699   3.110   3.506   4.452
 4711SOL    HW214700   3.157   3.432   4.590
 4712SOL     OW14701   2.321   3.014   4.465
 4712SOL    HW114702   2.250   2.987   4.530
 4712SOL    HW214703   2.295   2.986   4.372
 4713SOL     OW14704   3.133   3.659   4.315
 4713SOL    HW114705   3.177   3.723   4.251
 4713SOL    HW214706   3.083   3.711   4.385
 4714SOL     OW14707   2.894   2.411   3.740
 4714SOL    HW114708   2.853   2.493   3.701
 4714SOL    HW214709   2.958   2.437   3.813
 4715SOL     OW14710   2.728   2.316   4.366
 4715SOL    HW114711   2.696   2.388   4.304
 4715SOL    HW214712   2.752   2.235   4.313
 4716SOL     OW14713   2.879   1.901   4.477
 4716SOL    HW114714   2.807   1.906   4.408
 4716SOL    HW214715   2.855   1.832   4.546
 4717SOL     OW14716   3.291   3.035   4.591
 4717SOL    HW114717   3.236   2.951   4.584
 4717SOL    HW214718   3.317   3.064   4.499
 4718SOL     OW14719   3.328   2.452   4.716
 4718SOL    HW114720   3.298   2.357   4.723
 4718SOL    HW214721   3.401   2.468   4.782
 4719SOL     OW14722   3.719   2.695   4.101
 4719SOL    HW114723   3.761   2.631   4.165
 4719SOL    HW214724   3.681   2.644   4.023
 4720SOL     OW14725   2.350   3.247   3.898
 4720SOL    HW114726   2.263   3.232   3.945
 4720SOL    HW214727   2.333   3.273   3.803
 4721SOL     OW14728   3.526   3.142   4.381
 4721SOL    HW114729   3.625   3.150   4.395
 4721SOL    HW214730   3.481   3.226   4.412
 4722SOL     OW14731   3.252   2.437   3.802
 4722SOL    HW114732   3.198   2.416   3.883
 4722SOL    HW214733   3.343   2.396   3.811
 4723SOL     OW14734   3.616   3.085   5.312
 4723SOL    HW114735   3.707   3.046   5.299
 4723SOL    HW214736   3.624   3.181   5.336
 4724SOL     OW14737   2.926   3.209   5.064
 4724SOL    HW114738   2.846   3.186   5.119
 4724SOL    HW214739   3.009   3.183   5.113
 4725SOL     OW14740   3.454   3.491   5.349
 4725SOL    HW114741   3.481   3.525   5.259
 4725SOL    HW214742   3.533   3.453   5.395
 4726SOL     OW14743   2.973   3.057   4.824
 4726SOL    HW114744   2.933   3.101   4.905
 4726SOL    HW214745   2.932   3.094   4.741
 4727SOL     OW14746   3.500   2.961   4.803
 4727SOL    HW114747   3.505   3.042   4.862
 4727SOL    HW214748   3.414   2.963   4.752
 4728SOL     OW14749   2.842   2.978   5.443
 4728SOL    HW114750   2.743   2.984   5.453
 4728SOL    HW214751   2.865   2.898   5.387
 4729SOL     OW14752   2.567   2.912   4.092
 4729SOL    HW114753   2.553   2.919   4.191
 4729SOL    HW214754   2.651   2.861   4.074
 4730SOL     OW14755   1.926   3.426   5.055
 4730SOL    HW114756   1.880   3.508   5.021
 4730SOL    HW214757   2.024   3.445   5.064
 4731SOL     OW14758   2.229   2.962   4.225
 4731SOL    HW114759   2.222   3.045   4.169
 4731SOL    HW214760   2.233   2.882   4.165
 4732SOL     OW14761   3.114   3.210   4.112
 4732SOL    HW114762   3.164   3.287   4.152
 4732SOL    HW214763   3.019   3.212   4.144
 4733SOL     OW14764   3.134   3.307   4.866
 4733SOL    HW114765   3.181   3.320   4.953
 4733SOL    HW214766   3.068   3.233   4.875
 4734SOL     OW14767   3.444   2.501   4.196
 4734SOL    HW114768   3.413   2.562   4.269
 4734SOL    HW214769   3.494   2.553   4.127
 4735SOL     OW14770   2.216   3.372   5.053
 4735SOL    HW114771   2.195   3.328   4.966
 4735SOL    HW214772   2.313   3.398   5.056
 4736SOL     OW14773   3.449   2.641   5.394
 4736SOL    HW114774   3.357   2.679   5.389
 4736SOL    HW214775   3.509   2.688   5.329
 4737SOL     OW14776   3.222   2.724   4.769
 4737SOL    HW114777   3.147   2.724   4.703
 4737SOL    HW214778   3.259   2.632   4.778
 4738SOL     OW14779   3.071   2.387   3.999
 4738SOL    HW114780   3.084   2.303   4.053
 4738SOL    HW214781   3.042   2.461   4.059
 4739SOL     OW14782   1.899   3.172   5.006
 4739SOL    HW114783   1.952   3.123   5.074
 4739SOL    HW214784   1.921   3.270   5.011
 4740SOL     OW14785   3.590   2.797   5.578
 4740SOL    HW114786   3.544   2.790   5.489
 4740SOL    HW214787   3.528   2.841   5.644
 4741SOL     OW14788   2.169   1.925   4.342
 4741SOL    HW114789   2.158   2.019   4.375
 4741SOL    HW214790   2.164   1.862   4.419
 4742SOL     OW14791   3.484   2.229   4.098
 4742SOL    HW114792   3.486   2.153   4.162
 4742SOL    HW214793   3.436   2.306   4.138
 4743SOL     OW14794   2.842   3.435   5.424
 4743SOL    HW114795   2.822   3.479   5.336
 4743SOL    HW214796   2.881   3.344   5.408
 4744SOL     OW14797   3.721   3.380   5.329
 4744SOL    HW114798   3.735   3.407   5.234
 4744SOL    HW214799   3.804   3.402   5.382
 4745SOL     OW14800   3.402   2.136   3.849
 4745SOL    HW114801   3.341   2.061   3.872
 4745SOL    HW214802   3.424   2.188   3.932
 4746SOL     OW14803   3.165   2.700   3.766
 4746SOL    HW114804   3.199   2.607   3.781
 4746SOL    HW214805   3.183   2.727   3.671
 4747SOL     OW14806   2.930   3.195   4.573
 4747SOL    HW114807   2.937   3.111   4.518
 4747SOL    HW214808   2.992   3.264   4.537
 4748SOL     OW14809   3.022   2.069   5.201
 4748SOL    HW114810   3.022   2.133   5.278
 4748SOL    HW214811   3.050   2.117   5.118
 4749SOL     OW14812   1.870   3.188   3.924
 4749SOL    HW114813   1.777   3.209   3.893
 4749SOL    HW214814   1.880   3.089   3.937
 4750SOL     OW14815   1.950   3.663   4.651
 4750SOL    HW114816   1.908   3.577   4.624
 4750SOL    HW214817   2.044   3.666   4.617
 4751SOL     OW14818   2.366   3.430   4.634
 4751SOL    HW114819   2.432   3.504   4.643
 4751SOL    HW214820   2.410   3.351   4.592
 4752SOL     OW14821   3.231   2.812   5.384
 4752SOL    HW114822   3.270   2.901   5.404
 4752SOL    HW214823   3.241   2.792   5.287
 4753SOL     OW14824   2.677   2.434   4.049
 4753SOL    HW114825   2.684   2.345   4.003
 4753SOL    HW214826   2.583   2.468   4.041
 4754SOL     OW14827   3.519   2.466   4.930
 4754SOL    HW114828   3.481   2.397   4.992
 4754SOL    HW214829   3.601   2.430   4.886
 4755SOL     OW14830   2.114   3.426   5.468
 4755SOL    HW114831   2.084   3.483   5.544
 4755SOL    HW214832   2.107   3.329   5.494
 4756SOL     OW14833   2.792   3.540   5.189
 4756SOL    HW114834   2.768   3.522   5.094
 4756SOL    HW214835   2.822   3.634   5.199
 4757SOL     OW14836   2.021   2.999   5.190
 4757SOL    HW114837   2.043   2.938   5.266
 4757SOL    HW214838   2.031   2.950   5.104
 4758SOL     OW14839   3.209   2.921   4.958
 4758SOL    HW114840   3.233   2.858   4.884
 4758SOL    HW214841   3.119   2.961   4.940
 4759SOL     OW14842   3.164   2.717   4.033
 4759SOL    HW114843   3.078   2.686   4.075
 4759SOL    HW214844   3.160   2.703   3.934
 4760SOL     OW14845   3.621   3.609   4.878
 4760SOL    HW114846   3.682   3.639   4.805
 4760SOL    HW214847   3.583   3.520   4.856
 4761SOL     OW14848   3.114   3.593   4.852
 4761SOL    HW114849   3.198   3.598   4.798
 4761SOL    HW214850   3.091   3.497   4.870
 4762SOL     OW14851   2.550   3.524   5.440
 4762SOL    HW114852   2.494   3.605   5.449
 4762SOL    HW214853   2.602   3.528   5.354
 4763SOL     OW14854   3.588   1.997   4.247
 4763SOL    HW114855   3.661   1.980   4.180
 4763SOL    HW214856   3.557   1.910   4.285
 4764SOL     OW14857   3.250   3.435   4.201
 4764SOL    HW114858   3.317   3.447   4.127
 4764SOL    HW214859   3.210   3.524   4.224
 4765SOL     OW14860   1.992   3.656   5.575
 4765SOL    HW114861   1.951   3.582   5.628
 4765SOL    HW214862   2.056   3.707   5.633
 4766SOL     OW14863   3.142   2.789   4.396
 4766SOL    HW114864   3.202   2.708   4.398
 4766SOL    HW214865   3.182   2.858   4.336
 4767SOL     OW14866   2.692   3.135   5.146
 4767SOL    HW114867   2.687   3.168   5.241
 4767SOL    HW214868   2.606   3.154   5.100
 4768SOL     OW14869   2.534   3.478   3.878
 4768SOL    HW114870   2.543   3.488   3.779
 4768SOL    HW214871   2.494   3.389   3.899
 4769SOL     OW14872   3.512   3.582   5.118
 4769SOL    HW114873   3.565   3.592   5.034
 4769SOL    HW214874   3.485   3.672   5.152
 4770SOL     OW14875   3.703   2.037   4.687
 4770SOL    HW114876   3.742   1.952   4.651
 4770SOL    HW214877   3.605   2.039   4.668
 4771SOL     OW14878   3.056   3.474   3.755
 4771SOL    HW114879   3.062   3.381   3.792
 4771SOL    HW214880   2.997   3.474   3.675
 4772SOL     OW14881   2.778   2.772   4.015
 4772SOL    HW114882   2.841   2.810   3.947
 4772SOL    HW214883   2.818   2.689   4.054
 4773SOL     OW14884   3.366   3.469   3.768
 4773SOL    HW114885   3.274   3.506   3.775
 4773SOL    HW214886   3.404   3.489   3.678
 4774SOL     OW14887   2.234   3.150   5.214
 4774SOL    HW114888   2.221   3.243   5.180
 4774SOL    HW214889   2.150   3.098   5.201
 4775SOL     OW14890   3.476   3.154   5.013
 4775SOL    HW114891   3.536   3.157   5.093
 4775SOL    HW214892   3.401   3.218   5.026
 4776SOL     OW14893   2.901   2.960   4.420
 4776SOL    HW114894   2.831   2.913   4.474
 4776SOL    HW214895   2.960   2.892   4.377
 4777SOL     OW14896   2.452   3.349   4.215
 4777SOL    HW114897   2.494   3.291   4.145
 4777SOL    HW214898   2.408   3.428   4.171
 4778SOL     OW14899   3.571   2.247   5.105
 4778SOL    HW114900   3.644   2.316   5.109
 4778SOL    HW214901   3.599   2.172   5.046
 4779SOL     OW14902   2.117   3.210   4.014
 4779SOL    HW114903   2.021   3.211   3.987
 4779SOL    HW214904   2.129   3.263   4.098
 4780SOL     OW14905   1.967   2.875   5.450
 4780SOL    HW114906   1.890   2.842   5.504
 4780SOL    HW214907   2.052   2.845   5.492
 4781SOL     OW14908   1.937   2.207   3.757
 4781SOL    HW114909   1.845   2.179   3.728
 4781SOL    HW214910   1.968   2.284   3.701
 4782SOL     OW14911   3.302   2.718   5.122
 4782SOL    HW114912   3.245   2.770   5.059
 4782SOL    HW214913   3.398   2.730   5.098
 4783SOL     OW14914   1.934   2.028   4.042
 4783SOL    HW114915   1.917   2.111   3.988
 4783SOL    HW214916   2.024   1.991   4.020
 4784SOL     OW14917   3.045   3.197   3.843
 4784SOL    HW114918   2.946   3.186   3.845
 4784SOL    HW214919   3.079   3.212   3.936
 4785SOL     OW14920   3.355   3.629   4.683
 4785SOL    HW114921   3.388   3.693   4.614
 4785SOL    HW214922   3.421   3.623   4.758
 4786SOL     OW14923   3.312   3.082   5.357
 4786SOL    HW114924   3.303   3.072   5.456
 4786SOL    HW214925   3.408   3.075   5.331
 4787SOL     OW14926   2.252   3.603   5.284
 4787SOL    HW114927   2.161   3.644   5.282
 4787SOL    HW214928   2.245   3.509   5.316
 4788SOL     OW14929   3.536   2.745   4.978
 4788SOL    HW114930   3.509   2.656   4.941
 4788SOL    HW214931   3.537   2.813   4.905
 4789SOL     OW14932   3.087   2.187   4.173
 4789SOL    HW114933   3.152   2.113   4.162
 4789SOL    HW214934   3.107   2.237   4.257
 4790SOL     OW14935   2.456   2.607   4.376
 4790SOL    HW114936   2.506   2.692   4.357
 4790SOL    HW214937   2.368   2.609   4.328
 4791SOL     OW14938   3.639   2.204   5.366
 4791SOL    HW114939   3.622   2.235   5.272
 4791SOL    HW214940   3.555   2.167   5.404
 4792SOL     OW14941   3.592   2.796   5.241
 4792SOL    HW114942   3.630   2.887   5.256
 4792SOL    HW214943   3.584   2.779   5.142
 4793SOL     OW14944   2.721   3.236   3.740
 4793SOL    HW114945   2.675   3.251   3.828
 4793SOL    HW214946   2.765   3.321   3.710
 4794SOL     OW14947   2.523   3.652   4.677
 4794SOL    HW114948   2.477   3.740   4.664
 4794SOL    HW214949   2.622   3.664   4.670
 4795SOL     OW14950   2.945   2.846   3.811
 4795SOL    HW114951   2.922   2.899   3.729
 4795SOL    HW214952   3.026   2.790   3.792
 4796SOL     OW14953   3.723   3.431   4.575
 4796SOL    HW114954   3.652   3.419   4.505
 4796SOL    HW214955   3.724   3.352   4.635
 4797SOL     OW14956   2.083   3.176   5.568
 4797SOL    HW114957   2.018   3.103   5.547
 4797SOL    HW214958   2.087   3.190   5.666
 4798SOL     OW14959   1.941   3.102   4.377
 4798SOL    HW114960   1.940   3.055   4.465
 4798SOL    HW214961   2.023   3.074   4.326
 4799SOL     OW14962   2.534   3.253   5.348
 4799SOL    HW114963   2.456   3.203   5.386
 4799SOL    HW214964   2.531   3.348   5.379
 4800SOL     OW14965   3.686   2.054   4.951
 4800SOL    HW114966   3.682   1.964   4.995
 4800SOL    HW214967   3.689   2.043   4.852
 4801SOL     OW14968   3.567   3.349   4.828
 4801SOL    HW114969   3.474   3.324   4.801
 4801SOL    HW214970   3.593   3.299   4.910
 4802SOL     OW14971   2.674   3.448   4.411
 4802SOL    HW114972   2.706   3.458   4.317
 4802SOL    HW214973   2.595   3.386   4.413
 4803SOL     OW14974   3.286   2.076   4.836
 4803SOL    HW114975   3.338   2.011   4.891
 4803SOL    HW214976   3.237   2.139   4.897
 4804SOL     OW14977   2.632   3.192   4.025
 4804SOL    HW114978   2.586   3.105   4.042
 4804SOL    HW214979   2.723   3.189   4.066
 4805SOL     OW14980   2.480   3.429   5.008
 4805SOL    HW114981   2.475   3.511   5.065
 4805SOL    HW214982   2.569   3.426   4.963
 4806SOL     OW14983   3.214   1.914   3.892
 4806SOL    HW114984   3.249   1.873   3.808
 4806SOL    HW214985   3.124   1.876   3.912
 4807SOL     OW14986   3.162   2.315   4.415
 4807SOL    HW114987   3.103   2.395   4.419
 4807SOL    HW214988   3.177   2.280   4.508
 4808SOL     OW14989   3.455   2.083   4.606
 4808SOL    HW114990   3.371   2.082   4.660
 4808SOL    HW214991   3.457   2.166   4.550
 4809SOL     OW14992   1.901   2.939   4.024
 4809SOL    HW114993   2.000   2.928   4.015
 4809SOL    HW214994   1.861   2.853   4.056
 4810SOL     OW14995   2.737   3.508   4.061
 4810SOL    HW114996   2.660   3.473   4.007
 4810SOL    HW214997   2.705   3.579   4.123
 4811SOL     OW14998   2.431   3.137   6.751
 4811SOL    HW114999   2.338   3.130   6.714
 4811SOL    HW215000   2.442   3.226   6.795
 4812SOL     OW15001   3.417   3.373   6.289
 4812SOL    HW115002   3.360   3.357   6.370
 4812SOL    HW215003   3.358   3.383   6.209
 4813SOL     OW15004   3.617   2.469   5.817
 4813SOL    HW115005   3.605   2.456   5.718
 4813SOL    HW215006   3.587   2.388   5.866
 4814SOL     OW15007   2.630   3.006   6.609
 4814SOL    HW115008   2.552   3.023   6.669
 4814SOL    HW215009   2.664   3.093   6.573
 4815SOL     OW15010   2.712   2.660   7.409
 4815SOL    HW115011   2.708   2.736   7.474
 4815SOL    HW215012   2.734   2.696   7.318
 4816SOL     OW15013   2.548   3.023   7.389
 4816SOL    HW115014   2.608   3.102   7.403
 4816SOL    HW215015   2.462   3.054   7.348
 4817SOL     OW15016   2.197   3.297   6.647
 4817SOL    HW115017   2.119   3.266   6.594
 4817SOL    HW215018   2.255   3.355   6.590
 4818SOL     OW15019   3.322   3.367   6.925
 4818SOL    HW115020   3.346   3.461   6.951
 4818SOL    HW215021   3.306   3.313   7.007
 4819SOL     OW15022   3.465   2.309   6.323
 4819SOL    HW115023   3.391   2.355   6.273
 4819SOL    HW215024   3.516   2.377   6.376
 4820SOL     OW15025   2.093   3.575   6.069
 4820SOL    HW115026   2.127   3.652   6.123
 4820SOL    HW215027   2.137   3.575   5.979
 4821SOL     OW15028   2.989   3.203   7.276
 4821SOL    HW115029   3.036   3.203   7.364
 4821SOL    HW215030   2.941   3.116   7.265
 4822SOL     OW15031   2.092   3.296   6.124
 4822SOL    HW115032   2.066   3.392   6.124
 4822SOL    HW215033   2.021   3.242   6.169
 4823SOL     OW15034   2.482   3.648   7.025
 4823SOL    HW115035   2.390   3.631   7.060
 4823SOL    HW215036   2.510   3.740   7.051
 4824SOL     OW15037   2.468   2.826   5.709
 4824SOL    HW115038   2.475   2.910   5.655
 4824SOL    HW215039   2.514   2.839   5.797
 4825SOL     OW15040   3.456   1.976   7.066
 4825SOL    HW115041   3.438   2.043   6.994
 4825SOL    HW215042   3.453   2.022   7.155
 4826SOL     OW15043   3.704   3.629   5.945
 4826SOL    HW115044   3.758   3.600   6.025
 4826SOL    HW215045   3.734   3.719   5.916
 4827SOL     OW15046   1.889   3.458   5.703
 4827SOL    HW115047   1.870   3.362   5.724
 4827SOL    HW215048   1.856   3.516   5.778
 4828SOL     OW15049   3.551   2.784   6.198
 4828SOL    HW115050   3.646   2.755   6.206
 4828SOL    HW215051   3.543   2.849   6.123
 4829SOL     OW15052   3.503   2.970   6.018
 4829SOL    HW115053   3.589   2.972   5.966
 4829SOL    HW215054   3.517   3.017   6.106
 4830SOL     OW15055   1.975   2.599   7.183
 4830SOL    HW115056   2.063   2.586   7.228
 4830SOL    HW215057   1.962   2.696   7.161
 4831SOL     OW15058   2.475   3.227   6.312
 4831SOL    HW115059   2.426   3.140   6.321
 4831SOL    HW215060   2.452   3.270   6.225
 4832SOL     OW15061   3.155   3.090   7.009
 4832SOL    HW115062   3.192   3.017   6.951
 4832SOL    HW215063   3.207   3.095   7.094
 4833SOL     OW15064   2.059   2.838   6.850
 4833SOL    HW115065   2.148   2.793   6.836
 4833SOL    HW215066   1.986   2.773   6.831
 4834SOL     OW15067   3.387   2.861   5.776
 4834SOL    HW115068   3.324   2.785   5.789
 4834SOL    HW215069   3.435   2.879   5.862
 4835SOL     OW15070   3.049   3.654   7.202
 4835SOL    HW115071   3.073   3.714   7.126
 4835SOL    HW215072   3.056   3.559   7.172
 4836SOL     OW15073   3.328   3.279   6.539
 4836SOL    HW115074   3.269   3.285   6.619
 4836SOL    HW215075   3.313   3.191   6.493
 4837SOL     OW15076   3.529   3.576   6.158
 4837SOL    HW115077   3.488   3.553   6.070
 4837SOL    HW215078   3.511   3.502   6.223
 4838SOL     OW15079   3.143   2.207   6.530
 4838SOL    HW115080   3.057   2.157   6.517
 4838SOL    HW215081   3.205   2.153   6.586
 4839SOL     OW15082   3.438   3.524   5.893
 4839SOL    HW115083   3.527   3.570   5.896
 4839SOL    HW215084   3.417   3.500   5.798
 4840SOL     OW15085   2.669   2.467   7.051
 4840SOL    HW115086   2.622   2.464   7.140
 4840SOL    HW215087   2.618   2.412   6.985
 4841SOL     OW15088   3.256   2.331   7.260
 4841SOL    HW115089   3.236   2.374   7.348
 4841SOL    HW215090   3.334   2.269   7.269
 4842SOL     OW15091   2.835   2.752   7.158
 4842SOL    HW115092   2.881   2.668   7.129
 4842SOL    HW215093   2.779   2.786   7.083
 4843SOL     OW15094   2.853   2.272   6.828
 4843SOL    HW115095   2.776   2.306   6.882
 4843SOL    HW215096   2.819   2.221   6.749
 4844SOL     OW15097   1.992   3.683   7.157
 4844SOL    HW115098   1.982   3.668   7.256
 4844SOL    HW215099   1.906   3.719   7.121
 4845SOL     OW15100   3.581   2.447   7.417
 4845SOL    HW115101   3.555   2.536   7.381
 4845SOL    HW215102   3.579   2.379   7.344
 4846SOL     OW15103   3.224   3.006   6.131
 4846SOL    HW115104   3.307   2.977   6.083
 4846SOL    HW215105   3.175   3.073   6.075
 4847SOL     OW15106   2.412   2.058   6.471
 4847SOL    HW115107   2.407   2.053   6.571
 4847SOL    HW215108   2.414   2.154   6.442
 4848SOL     OW15109   2.870   3.318   6.063
 4848SOL    HW115110   2.824   3.390   6.011
 4848SOL    HW215111   2.866   3.338   6.161
 4849SOL     OW15112   2.213   3.663   6.439
 4849SOL    HW115113   2.263   3.577   6.445
 4849SOL    HW215114   2.278   3.740   6.436
 4850SOL     OW15115   3.657   2.928   6.459
 4850SOL    HW115116   3.595   2.913   6.383
 4850SOL    HW215117   3.605   2.939   6.544
 4851SOL     OW15118   3.089   3.412   7.092
 4851SOL    HW115119   3.095   3.335   7.156
 4851SOL    HW215120   3.037   3.386   7.012
 4852SOL     OW15121   3.320   2.597   6.314
 4852SOL    HW115122   3.315   2.532   6.389
 4852SOL    HW215123   3.400   2.656   6.327
 4853SOL     OW15124   2.323   3.128   7.313
 4853SOL    HW115125   2.273   3.129   7.227
 4853SOL    HW215126   2.260   3.110   7.389
 4854SOL     OW15127   2.973   3.638   5.823
 4854SOL    HW115128   2.913   3.576   5.873
 4854SOL    HW215129   3.004   3.594   5.738
 4855SOL     OW15130   3.494   3.239   5.667
 4855SOL    HW115131   3.462   3.333   5.657
 4855SOL    HW215132   3.418   3.176   5.655
 4856SOL     OW15133   2.326   3.605   5.909
 4856SOL    HW115134   2.359   3.644   5.995
 4856SOL    HW215135   2.402   3.598   5.844
 4857SOL     OW15136   3.262   1.969   6.012
 4857SOL    HW115137   3.238   1.932   5.922
 4857SOL    HW215138   3.361   1.985   6.016
 4858SOL     OW15139   2.111   3.647   6.827
 4858SOL    HW115140   2.168   3.582   6.877
 4858SOL    HW215141   2.095   3.614   6.734
 4859SOL     OW15142   2.802   3.560   6.490
 4859SOL    HW115143   2.882   3.503   6.511
 4859SOL    HW215144   2.753   3.520   6.413
 4860SOL     OW15145   3.409   2.084   7.315
 4860SOL    HW115146   3.404   2.121   7.407
 4860SOL    HW215147   3.337   2.015   7.303
 4861SOL     OW15148   2.643   2.126   7.335
 4861SOL    HW115149   2.710   2.065   7.378
 4861SOL    HW215150   2.570   2.145   7.400
 4862SOL     OW15151   2.750   3.376   6.781
 4862SOL    HW115152   2.727   3.351   6.687
 4862SOL    HW215153   2.811   3.307   6.820
 4863SOL     OW15154   3.213   2.452   7.019
 4863SOL    HW115155   3.241   2.409   7.104
 4863SOL    HW215156   3.238   2.548   7.020
 4864SOL     OW15157   2.665   3.264   6.510
 4864SOL    HW115158   2.755   3.278   6.468
 4864SOL    HW215159   2.594   3.266   6.439
 4865SOL     OW15160   3.296   3.050   5.627
 4865SOL    HW115161   3.328   2.974   5.684
 4865SOL    HW215162   3.204   3.077   5.657
 4866SOL     OW15163   2.938   2.545   7.050
 4866SOL    HW115164   2.858   2.484   7.053
 4866SOL    HW215165   3.019   2.492   7.026
 4867SOL     OW15166   3.089   3.432   6.379
 4867SOL    HW115167   3.110   3.506   6.314
 4867SOL    HW215168   3.157   3.432   6.452
 4868SOL     OW15169   2.321   3.014   6.327
 4868SOL    HW115170   2.250   2.987   6.392
 4868SOL    HW215171   2.295   2.986   6.234
 4869SOL     OW15172   3.133   3.659   6.177
 4869SOL    HW115173   3.177   3.723   6.113
 4869SOL    HW215174   3.083   3.711   6.247
 4870SOL     OW15175   1.940   2.418   6.972
 4870SOL    HW115176   2.032   2.417   6.931
 4870SOL    HW215177   1.934   2.492   7.039
 4871SOL     OW15178   2.423   2.084   6.733
 4871SOL    HW115179   2.461   2.000   6.770
 4871SOL    HW215180   2.335   2.103   6.777
 4872SOL     OW15181   3.291   3.035   6.453
 4872SOL    HW115182   3.236   2.951   6.446
 4872SOL    HW215183   3.317   3.064   6.361
 4873SOL     OW15184   3.328   2.452   6.578
 4873SOL    HW115185   3.298   2.357   6.585
 4873SOL    HW215186   3.401   2.468   6.644
 4874SOL     OW15187   3.719   2.695   5.963
 4874SOL    HW115188   3.761   2.631   6.027
 4874SOL    HW215189   3.681   2.644   5.885
 4875SOL     OW15190   2.350   3.247   5.760
 4875SOL    HW115191   2.263   3.232   5.807
 4875SOL    HW215192   2.333   3.273   5.665
 4876SOL     OW15193   3.526   3.142   6.243
 4876SOL    HW115194   3.625   3.150   6.257
 4876SOL    HW215195   3.481   3.226   6.274
 4877SOL     OW15196   3.252   2.437   5.664
 4877SOL    HW115197   3.198   2.416   5.745
 4877SOL    HW215198   3.343   2.396   5.673
 4878SOL     OW15199   3.616   3.085   7.174
 4878SOL    HW115200   3.707   3.046   7.161
 4878SOL    HW215201   3.624   3.181   7.198
 4879SOL     OW15202   2.926   3.209   6.926
 4879SOL    HW115203   2.846   3.186   6.981
 4879SOL    HW215204   3.009   3.183   6.975
 4880SOL     OW15205   3.454   3.491   7.211
 4880SOL    HW115206   3.481   3.525   7.121
 4880SOL    HW215207   3.533   3.453   7.257
 4881SOL     OW15208   2.973   3.057   6.686
 4881SOL    HW115209   2.933   3.101   6.767
 4881SOL    HW215210   2.932   3.094   6.603
 4882SOL     OW15211   3.500   2.961   6.665
 4882SOL    HW115212   3.505   3.042   6.724
 4882SOL    HW215213   3.414   2.963   6.614
 4883SOL     OW15214   2.777   1.951   6.988
 4883SOL    HW115215   2.802   1.931   6.893
 4883SOL    HW215216   2.849   2.007   7.030
 4884SOL     OW15217   2.842   2.978   7.305
 4884SOL    HW115218   2.743   2.984   7.315
 4884SOL    HW215219   2.865   2.898   7.249
 4885SOL     OW15220   2.272   2.675   6.837
 4885SOL    HW115221   2.358   2.687   6.887
 4885SOL    HW215222   2.230   2.588   6.864
 4886SOL     OW15223   3.136   2.248   6.848
 4886SOL    HW115224   3.157   2.322   6.912
 4886SOL    HW215225   3.047   2.265   6.805
 4887SOL     OW15226   1.926   3.426   6.917
 4887SOL    HW115227   1.880   3.508   6.883
 4887SOL    HW215228   2.024   3.445   6.926
 4888SOL     OW15229   2.428   2.399   6.451
 4888SOL    HW115230   2.440   2.465   6.377
 4888SOL    HW215231   2.474   2.433   6.534
 4889SOL     OW15232   3.114   3.210   5.974
 4889SOL    HW115233   3.164   3.287   6.014
 4889SOL    HW215234   3.019   3.212   6.006
 4890SOL     OW15235   3.134   3.307   6.728
 4890SOL    HW115236   3.181   3.320   6.815
 4890SOL    HW215237   3.068   3.233   6.737
 4891SOL     OW15238   3.444   2.501   6.058
 4891SOL    HW115239   3.413   2.562   6.131
 4891SOL    HW215240   3.494   2.553   5.989
 4892SOL     OW15241   2.216   3.372   6.915
 4892SOL    HW115242   2.195   3.328   6.828
 4892SOL    HW215243   2.313   3.398   6.918
 4893SOL     OW15244   2.264   2.613   7.184
 4893SOL    HW115245   2.332   2.668   7.137
 4893SOL    HW215246   2.304   2.525   7.211
 4894SOL     OW15247   3.449   2.641   7.256
 4894SOL    HW115248   3.357   2.679   7.251
 4894SOL    HW215249   3.509   2.688   7.191
 4895SOL     OW15250   2.875   1.967   7.356
 4895SOL    HW115251   2.881   2.052   7.304
 4895SOL    HW215252   2.907   1.891   7.299
 4896SOL     OW15253   2.366   1.912   7.326
 4896SOL    HW115254   2.324   1.855   7.256
 4896SOL    HW215255   2.300   1.981   7.358
 4897SOL     OW15256   2.435   2.732   6.615
 4897SOL    HW115257   2.479   2.821   6.606
 4897SOL    HW215258   2.372   2.732   6.692
 4898SOL     OW15259   3.222   2.724   6.631
 4898SOL    HW115260   3.147   2.724   6.565
 4898SOL    HW215261   3.259   2.632   6.640
 4899SOL     OW15262   3.071   2.387   5.861
 4899SOL    HW115263   3.084   2.303   5.915
 4899SOL    HW215264   3.042   2.461   5.921
 4900SOL     OW15265   1.899   3.172   6.868
 4900SOL    HW115266   1.952   3.123   6.936
 4900SOL    HW215267   1.921   3.270   6.873
 4901SOL     OW15268   2.594   2.496   6.650
 4901SOL    HW115269   2.653   2.470   6.574
 4901SOL    HW215270   2.566   2.592   6.639
 4902SOL     OW15271   3.590   2.797   7.440
 4902SOL    HW115272   3.544   2.790   7.351
 4902SOL    HW215273   3.528   2.841   7.506
 4903SOL     OW15274   3.484   2.229   5.960
 4903SOL    HW115275   3.486   2.153   6.024
 4903SOL    HW215276   3.436   2.306   6.000
 4904SOL     OW15277   2.885   2.628   6.552
 4904SOL    HW115278   2.900   2.649   6.648
 4904SOL    HW215279   2.855   2.533   6.543
 4905SOL     OW15280   2.842   3.435   7.286
 4905SOL    HW115281   2.822   3.479   7.198
 4905SOL    HW215282   2.881   3.344   7.270
 4906SOL     OW15283   3.721   3.380   7.191
 4906SOL    HW115284   3.735   3.407   7.096
 4906SOL    HW215285   3.804   3.402   7.244
 4907SOL     OW15286   2.212   2.760   7.390
 4907SOL    HW115287   2.288   2.804   7.438
 4907SOL    HW215288   2.247   2.713   7.308
 4908SOL     OW15289   3.402   2.136   5.711
 4908SOL    HW115290   3.341   2.061   5.734
 4908SOL    HW215291   3.424   2.188   5.794
 4909SOL     OW15292   3.165   2.700   5.628
 4909SOL    HW115293   3.199   2.607   5.643
 4909SOL    HW215294   3.183   2.727   5.533
 4910SOL     OW15295   2.930   3.195   6.435
 4910SOL    HW115296   2.937   3.111   6.380
 4910SOL    HW215297   2.992   3.264   6.399
 4911SOL     OW15298   2.181   2.672   6.535
 4911SOL    HW115299   2.274   2.708   6.540
 4911SOL    HW215300   2.175   2.587   6.587
 4912SOL     OW15301   3.000   2.242   7.264
 4912SOL    HW115302   2.955   2.305   7.328
 4912SOL    HW215303   3.093   2.273   7.247
 4913SOL     OW15304   3.022   2.069   7.063
 4913SOL    HW115305   3.022   2.133   7.140
 4913SOL    HW215306   3.050   2.117   6.980
 4914SOL     OW15307   1.870   3.188   5.786
 4914SOL    HW115308   1.777   3.209   5.755
 4914SOL    HW215309   1.880   3.089   5.799
 4915SOL     OW15310   1.950   3.663   6.513
 4915SOL    HW115311   1.908   3.577   6.486
 4915SOL    HW215312   2.044   3.666   6.479
 4916SOL     OW15313   2.366   3.430   6.496
 4916SOL    HW115314   2.432   3.504   6.505
 4916SOL    HW215315   2.410   3.351   6.454
 4917SOL     OW15316   2.864   2.658   6.824
 4917SOL    HW115317   2.905   2.626   6.910
 4917SOL    HW215318   2.768   2.631   6.821
 4918SOL     OW15319   1.902   2.406   6.700
 4918SOL    HW115320   1.987   2.373   6.659
 4918SOL    HW215321   1.915   2.421   6.798
 4919SOL     OW15322   3.231   2.812   7.246
 4919SOL    HW115323   3.270   2.901   7.266
 4919SOL    HW215324   3.241   2.792   7.149
 4920SOL     OW15325   3.519   2.466   6.792
 4920SOL    HW115326   3.481   2.397   6.854
 4920SOL    HW215327   3.601   2.430   6.748
 4921SOL     OW15328   2.114   3.426   7.330
 4921SOL    HW115329   2.084   3.483   7.406
 4921SOL    HW215330   2.107   3.329   7.356
 4922SOL     OW15331   2.792   3.540   7.051
 4922SOL    HW115332   2.768   3.522   6.956
 4922SOL    HW215333   2.822   3.634   7.061
 4923SOL     OW15334   2.021   2.999   7.052
 4923SOL    HW115335   2.043   2.938   7.128
 4923SOL    HW215336   2.031   2.950   6.966
 4924SOL     OW15337   3.209   2.921   6.820
 4924SOL    HW115338   3.233   2.858   6.746
 4924SOL    HW215339   3.119   2.961   6.802
 4925SOL     OW15340   3.164   2.717   5.895
 4925SOL    HW115341   3.078   2.686   5.937
 4925SOL    HW215342   3.160   2.703   5.796
 4926SOL     OW15343   3.621   3.609   6.740
 4926SOL    HW115344   3.682   3.639   6.667
 4926SOL    HW215345   3.583   3.520   6.718
 4927SOL     OW15346   3.114   3.593   6.714
 4927SOL    HW115347   3.198   3.598   6.660
 4927SOL    HW215348   3.091   3.497   6.732
 4928SOL     OW15349   1.945   3.120   6.608
 4928SOL    HW115350   1.940   3.119   6.708
 4928SOL    HW215351   1.862   3.079   6.570
 4929SOL     OW15352   2.550   3.524   7.302
 4929SOL    HW115353   2.494   3.605   7.311
 4929SOL    HW215354   2.602   3.528   7.216
 4930SOL     OW15355   3.588   1.997   6.109
 4930SOL    HW115356   3.661   1.980   6.042
 4930SOL    HW215357   3.557   1.910   6.147
 4931SOL     OW15358   3.250   3.435   6.063
 4931SOL    HW115359   3.317   3.447   5.989
 4931SOL    HW215360   3.210   3.524   6.086
 4932SOL     OW15361   1.992   3.656   7.437
 4932SOL    HW115362   1.951   3.582   7.490
 4932SOL    HW215363   2.056   3.707   7.495
 4933SOL     OW15364   3.142   2.789   6.258
 4933SOL    HW115365   3.202   2.708   6.260
 4933SOL    HW215366   3.182   2.858   6.198
 4934SOL     OW15367   2.692   3.135   7.008
 4934SOL    HW115368   2.687   3.168   7.103
 4934SOL    HW215369   2.606   3.154   6.962
 4935SOL     OW15370   2.534   3.478   5.740
 4935SOL    HW115371   2.543   3.488   5.641
 4935SOL    HW215372   2.494   3.389   5.761
 4936SOL     OW15373   3.512   3.582   6.980
 4936SOL    HW115374   3.565   3.592   6.896
 4936SOL    HW215375   3.485   3.672   7.014
 4937SOL     OW15376   3.703   2.037   6.549
 4937SOL    HW115377   3.742   1.952   6.513
 4937SOL    HW215378   3.605   2.039   6.530
 4938SOL     OW15379   3.056   3.474   5.617
 4938SOL    HW115380   3.062   3.381   5.654
 4938SOL    HW215381   2.997   3.474   5.537
 4939SOL     OW15382   2.684   2.864   6.958
 4939SOL    HW115383   2.724   2.863   6.866
 4939SOL    HW215384   2.694   2.956   6.998
 4940SOL     OW15385   2.778   2.772   5.877
 4940SOL    HW115386   2.841   2.810   5.809
 4940SOL    HW215387   2.818   2.689   5.916
 4941SOL     OW15388   3.366   3.469   5.630
 4941SOL    HW115389   3.274   3.506   5.637
 4941SOL    HW215390   3.404   3.489   5.540
 4942SOL     OW15391   2.234   3.150   7.076
 4942SOL    HW115392   2.221   3.243   7.042
 4942SOL    HW215393   2.150   3.098   7.063
 4943SOL     OW15394   3.476   3.154   6.875
 4943SOL    HW115395   3.536   3.157   6.955
 4943SOL    HW215396   3.401   3.218   6.888
 4944SOL     OW15397   2.901   2.960   6.282
 4944SOL    HW115398   2.831   2.913   6.336
 4944SOL    HW215399   2.960   2.892   6.239
 4945SOL     OW15400   2.452   3.349   6.077
 4945SOL    HW115401   2.494   3.291   6.007
 4945SOL    HW215402   2.408   3.428   6.033
 4946SOL     OW15403   3.571   2.247   6.967
 4946SOL    HW115404   3.644   2.316   6.971
 4946SOL    HW215405   3.599   2.172   6.908
 4947SOL     OW15406   2.117   3.210   5.876
 4947SOL    HW115407   2.021   3.211   5.849
 4947SOL    HW215408   2.129   3.263   5.960
 4948SOL     OW15409   1.967   2.875   7.312
 4948SOL    HW115410   1.890   2.842   7.366
 4948SOL    HW215411   2.052   2.845   7.354
 4949SOL     OW15412   2.534   2.065   7.075
 4949SOL    HW115413   2.624   2.049   7.035
 4949SOL    HW215414   2.542   2.070   7.174
 4950SOL     OW15415   3.302   2.718   6.984
 4950SOL    HW115416   3.245   2.770   6.921
 4950SOL    HW215417   3.398   2.730   6.960
 4951SOL     OW15418   3.045   3.197   5.705
 4951SOL    HW115419   2.946   3.186   5.707
 4951SOL    HW215420   3.079   3.212   5.798
 4952SOL     OW15421   2.475   2.704   7.017
 4952SOL    HW115422   2.531   2.785   7.000
 4952SOL    HW215423   2.534   2.624   7.020
 4953SOL     OW15424   3.355   3.629   6.545
 4953SOL    HW115425   3.388   3.693   6.476
 4953SOL    HW215426   3.421   3.623   6.620
 4954SOL     OW15427   2.578   2.427   7.294
 4954SOL    HW115428   2.597   2.492   7.368
 4954SOL    HW215429   2.638   2.347   7.303
 4955SOL     OW15430   3.312   3.082   7.219
 4955SOL    HW115431   3.303   3.072   7.318
 4955SOL    HW215432   3.408   3.075   7.193
 4956SOL     OW15433   2.252   3.603   7.146
 4956SOL    HW115434   2.161   3.644   7.144
 4956SOL    HW215435   2.245   3.509   7.178
 4957SOL     OW15436   3.536   2.745   6.840
 4957SOL    HW115437   3.509   2.656   6.803
 4957SOL    HW215438   3.537   2.813   6.767
 4958SOL     OW15439   3.087   2.187   6.035
 4958SOL    HW115440   3.152   2.113   6.024
 4958SOL    HW215441   3.107   2.237   6.119
 4959SOL     OW15442   3.639   2.204   7.228
 4959SOL    HW115443   3.622   2.235   7.134
 4959SOL    HW215444   3.555   2.167   7.266
 4960SOL     OW15445   3.592   2.796   7.103
 4960SOL    HW115446   3.630   2.887   7.118
 4960SOL    HW215447   3.584   2.779   7.004
 4961SOL     OW15448   2.721   3.236   5.602
 4961SOL    HW115449   2.675   3.251   5.690
 4961SOL    HW215450   2.765   3.321   5.572
 4962SOL     OW15451   2.523   3.652   6.539
 4962SOL    HW115452   2.477   3.740   6.526
 4962SOL    HW215453   2.622   3.664   6.532
 4963SOL     OW15454   2.945   2.846   5.673
 4963SOL    HW115455   2.922   2.899   5.591
 4963SOL    HW215456   3.026   2.790   5.654
 4964SOL     OW15457   3.723   3.431   6.437
 4964SOL    HW115458   3.652   3.419   6.367
 4964SOL    HW215459   3.724   3.352   6.497
 4965SOL     OW15460   2.083   3.176   7.430
 4965SOL    HW115461   2.018   3.103   7.409
 4965SOL    HW215462   2.087   3.190   7.528
 4966SOL     OW15463   1.941   3.102   6.239
 4966SOL    HW115464   1.940   3.055   6.327
 4966SOL    HW215465   2.023   3.074   6.188
 4967SOL     OW15466   2.534   3.253   7.210
 4967SOL    HW115467   2.456   3.203   7.248
 4967SOL    HW215468   2.531   3.348   7.241
 4968SOL     OW15469   3.686   2.054   6.813
 4968SOL    HW115470   3.682   1.964   6.857
 4968SOL    HW215471   3.689   2.043   6.714
 4969SOL     OW15472   3.567   3.349   6.690
 4969SOL    HW115473   3.474   3.324   6.663
 4969SOL    HW215474   3.593   3.299   6.772
 4970SOL     OW15475   2.674   3.448   6.273
 4970SOL    HW115476   2.706   3.458   6.179
 4970SOL    HW215477   2.595   3.386   6.275
 4971SOL     OW15478   3.286   2.076   6.698
 4971SOL    HW115479   3.338   2.011   6.753
 4971SOL    HW215480   3.237   2.139   6.759
 4972SOL     OW15481   2.863   1.896   6.740
 4972SOL    HW115482   2.800   1.824   6.709
 4972SOL    HW215483   2.956   1.860   6.740
 4973SOL     OW15484   2.632   3.192   5.887
 4973SOL    HW115485   2.586   3.105   5.904
 4973SOL    HW215486   2.723   3.189   5.928
 4974SOL     OW15487   2.480   3.429   6.870
 4974SOL    HW115488   2.475   3.511   6.927
 4974SOL    HW215489   2.569   3.426   6.825
 4975SOL     OW15490   3.214   1.914   5.754
 4975SOL    HW115491   3.249   1.873   5.670
 4975SOL    HW215492   3.124   1.876   5.774
 4976SOL     OW15493   3.455   2.083   6.468
 4976SOL    HW115494   3.371   2.082   6.522
 4976SOL    HW215495   3.457   2.166   6.412
 4977SOL     OW15496   2.737   3.508   5.923
 4977SOL    HW115497   2.660   3.473   5.869
 4977SOL    HW215498   2.705   3.579   5.985
 4978SOL     OW15499   2.092   2.490   7.561
 4978SOL    HW115500   1.999   2.488   7.598
 4978SOL    HW215501   2.093   2.451   7.469
 4979SOL     OW15502   1.881   2.230   8.095
 4979SOL    HW115503   1.799   2.273   8.134
 4979SOL    HW215504   1.853   2.157   8.032
 4980SOL     OW15505   2.431   3.137   8.613
 4980SOL    HW115506   2.338   3.130   8.576
 4980SOL    HW215507   2.442   3.226   8.657
 4981SOL     OW15508   3.417   3.373   8.151
 4981SOL    HW115509   3.360   3.357   8.232
 4981SOL    HW215510   3.358   3.383   8.071
 4982SOL     OW15511   2.997   2.565   8.165
 4982SOL    HW115512   3.054   2.643   8.140
 4982SOL    HW215513   2.937   2.591   8.241
 4983SOL     OW15514   3.617   2.469   7.679
 4983SOL    HW115515   3.605   2.456   7.580
 4983SOL    HW215516   3.587   2.388   7.728
 4984SOL     OW15517   2.630   3.006   8.471
 4984SOL    HW115518   2.552   3.023   8.531
 4984SOL    HW215519   2.664   3.093   8.435
 4985SOL     OW15520   2.712   2.660   9.271
 4985SOL    HW115521   2.708   2.736   9.336
 4985SOL    HW215522   2.734   2.696   9.180
 4986SOL     OW15523   2.547   2.874   8.113
 4986SOL    HW115524   2.616   2.858   8.183
 4986SOL    HW215525   2.474   2.931   8.151
 4987SOL     OW15526   2.548   3.023   9.251
 4987SOL    HW115527   2.608   3.102   9.265
 4987SOL    HW215528   2.462   3.054   9.210
 4988SOL     OW15529   2.197   3.297   8.509
 4988SOL    HW115530   2.119   3.266   8.456
 4988SOL    HW215531   2.255   3.355   8.452
 4989SOL     OW15532   3.322   3.367   8.787
 4989SOL    HW115533   3.346   3.461   8.813
 4989SOL    HW215534   3.306   3.313   8.869
 4990SOL     OW15535   3.465   2.309   8.185
 4990SOL    HW115536   3.391   2.355   8.135
 4990SOL    HW215537   3.516   2.377   8.238
 4991SOL     OW15538   2.093   3.575   7.931
 4991SOL    HW115539   2.127   3.652   7.985
 4991SOL    HW215540   2.137   3.575   7.841
 4992SOL     OW15541   2.989   3.203   9.138
 4992SOL    HW115542   3.036   3.203   9.226
 4992SOL    HW215543   2.941   3.116   9.127
 4993SOL     OW15544   2.092   3.296   7.986
 4993SOL    HW115545   2.066   3.392   7.986
 4993SOL    HW215546   2.021   3.242   8.031
 4994SOL     OW15547   2.102   2.953   8.334
 4994SOL    HW115548   2.116   2.869   8.386
 4994SOL    HW215549   2.047   3.017   8.389
 4995SOL     OW15550   2.482   3.648   8.887
 4995SOL    HW115551   2.390   3.631   8.922
 4995SOL    HW215552   2.510   3.740   8.913
 4996SOL     OW15553   2.468   2.826   7.571
 4996SOL    HW115554   2.475   2.910   7.517
 4996SOL    HW215555   2.514   2.839   7.659
 4997SOL     OW15556   3.456   1.976   8.928
 4997SOL    HW115557   3.438   2.043   8.856
 4997SOL    HW215558   3.453   2.022   9.017
 4998SOL     OW15559   1.984   2.505   8.011
 4998SOL    HW115560   1.939   2.417   8.028
 4998SOL    HW215561   1.983   2.559   8.095
 4999SOL     OW15562   3.704   3.629   7.807
 4999SOL    HW115563   3.758   3.600   7.887
 4999SOL    HW215564   3.734   3.719   7.778
 5000SOL     OW15565   1.889   3.458   7.565
 5000SOL    HW115566   1.870   3.362   7.586
 5000SOL    HW215567   1.856   3.516   7.640
 5001SOL     OW15568   3.551   2.784   8.060
 5001SOL    HW115569   3.646   2.755   8.068
 5001SOL    HW215570   3.543   2.849   7.985
 5002SOL     OW15571   3.503   2.970   7.880
 5002SOL    HW115572   3.589   2.972   7.828
 5002SOL    HW215573   3.517   3.017   7.968
 5003SOL     OW15574   1.975   2.599   9.045
 5003SOL    HW115575   2.063   2.586   9.090
 5003SOL    HW215576   1.962   2.696   9.023
 5004SOL     OW15577   2.475   3.227   8.174
 5004SOL    HW115578   2.426   3.140   8.183
 5004SOL    HW215579   2.452   3.270   8.087
 5005SOL     OW15580   3.155   3.090   8.871
 5005SOL    HW115581   3.192   3.017   8.813
 5005SOL    HW215582   3.207   3.095   8.956
 5006SOL     OW15583   2.671   1.866   7.950
 5006SOL    HW115584   2.711   1.957   7.941
 5006SOL    HW215585   2.571   1.874   7.956
 5007SOL     OW15586   2.059   2.838   8.712
 5007SOL    HW115587   2.148   2.793   8.698
 5007SOL    HW215588   1.986   2.773   8.693
 5008SOL     OW15589   3.387   2.861   7.638
 5008SOL    HW115590   3.324   2.785   7.651
 5008SOL    HW215591   3.435   2.879   7.724
 5009SOL     OW15592   3.049   3.654   9.064
 5009SOL    HW115593   3.073   3.714   8.988
 5009SOL    HW215594   3.056   3.559   9.034
 5010SOL     OW15595   3.328   3.279   8.401
 5010SOL    HW115596   3.269   3.285   8.481
 5010SOL    HW215597   3.313   3.191   8.355
 5011SOL     OW15598   3.529   3.576   8.020
 5011SOL    HW115599   3.488   3.553   7.932
 5011SOL    HW215600   3.511   3.502   8.085
 5012SOL     OW15601   2.460   2.591   7.718
 5012SOL    HW115602   2.484   2.660   7.650
 5012SOL    HW215603   2.382   2.624   7.772
 5013SOL     OW15604   3.143   2.207   8.392
 5013SOL    HW115605   3.057   2.157   8.379
 5013SOL    HW215606   3.205   2.153   8.448
 5014SOL     OW15607   3.438   3.524   7.755
 5014SOL    HW115608   3.527   3.570   7.758
 5014SOL    HW215609   3.417   3.500   7.660
 5015SOL     OW15610   2.669   2.467   8.913
 5015SOL    HW115611   2.622   2.464   9.002
 5015SOL    HW215612   2.618   2.412   8.847
 5016SOL     OW15613   3.256   2.331   9.122
 5016SOL    HW115614   3.236   2.374   9.210
 5016SOL    HW215615   3.334   2.269   9.131
 5017SOL     OW15616   2.835   2.752   9.020
 5017SOL    HW115617   2.881   2.668   8.991
 5017SOL    HW215618   2.779   2.786   8.945
 5018SOL     OW15619   2.853   2.272   8.690
 5018SOL    HW115620   2.776   2.306   8.744
 5018SOL    HW215621   2.819   2.221   8.611
 5019SOL     OW15622   2.903   2.563   7.877
 5019SOL    HW115623   2.929   2.559   7.973
 5019SOL    HW215624   2.818   2.512   7.863
 5020SOL     OW15625   1.938   2.673   8.237
 5020SOL    HW115626   2.037   2.661   8.246
 5020SOL    HW215627   1.914   2.768   8.258
 5021SOL     OW15628   1.992   3.683   9.019
 5021SOL    HW115629   1.982   3.668   9.118
 5021SOL    HW215630   1.906   3.719   8.983
 5022SOL     OW15631   2.727   2.210   7.643
 5022SOL    HW115632   2.786   2.273   7.594
 5022SOL    HW215633   2.746   2.116   7.614
 5023SOL     OW15634   3.581   2.447   9.279
 5023SOL    HW115635   3.555   2.536   9.243
 5023SOL    HW215636   3.579   2.379   9.206
 5024SOL     OW15637   3.224   3.006   7.993
 5024SOL    HW115638   3.307   2.977   7.945
 5024SOL    HW215639   3.175   3.073   7.937
 5025SOL     OW15640   2.870   3.318   7.925
 5025SOL    HW115641   2.824   3.390   7.873
 5025SOL    HW215642   2.866   3.338   8.023
 5026SOL     OW15643   2.213   3.663   8.301
 5026SOL    HW115644   2.263   3.577   8.307
 5026SOL    HW215645   2.278   3.740   8.298
 5027SOL     OW15646   3.657   2.928   8.321
 5027SOL    HW115647   3.595   2.913   8.245
 5027SOL    HW215648   3.605   2.939   8.406
 5028SOL     OW15649   3.089   3.412   8.954
 5028SOL    HW115650   3.095   3.335   9.018
 5028SOL    HW215651   3.037   3.386   8.874
 5029SOL     OW15652   2.183   2.805   7.690
 5029SOL    HW115653   2.265   2.844   7.648
 5029SOL    HW215654   2.156   2.723   7.641
 5030SOL     OW15655   3.320   2.597   8.176
 5030SOL    HW115656   3.315   2.532   8.251
 5030SOL    HW215657   3.400   2.656   8.189
 5031SOL     OW15658   2.323   3.128   9.175
 5031SOL    HW115659   2.273   3.129   9.089
 5031SOL    HW215660   2.260   3.110   9.251
 5032SOL     OW15661   2.973   3.638   7.685
 5032SOL    HW115662   2.913   3.576   7.735
 5032SOL    HW215663   3.004   3.594   7.600
 5033SOL     OW15664   2.064   2.147   8.946
 5033SOL    HW115665   1.984   2.207   8.933
 5033SOL    HW215666   2.054   2.098   9.032
 5034SOL     OW15667   3.494   3.239   7.529
 5034SOL    HW115668   3.462   3.333   7.519
 5034SOL    HW215669   3.418   3.176   7.517
 5035SOL     OW15670   2.326   3.605   7.771
 5035SOL    HW115671   2.359   3.644   7.857
 5035SOL    HW215672   2.402   3.598   7.706
 5036SOL     OW15673   3.262   1.969   7.874
 5036SOL    HW115674   3.238   1.932   7.784
 5036SOL    HW215675   3.361   1.985   7.878
 5037SOL     OW15676   2.111   3.647   8.689
 5037SOL    HW115677   2.168   3.582   8.739
 5037SOL    HW215678   2.095   3.614   8.596
 5038SOL     OW15679   2.802   3.560   8.352
 5038SOL    HW115680   2.882   3.503   8.373
 5038SOL    HW215681   2.753   3.520   8.275
 5039SOL     OW15682   3.409   2.084   9.177
 5039SOL    HW115683   3.404   2.121   9.269
 5039SOL    HW215684   3.337   2.015   9.165
 5040SOL     OW15685   2.476   1.984   7.565
 5040SOL    HW115686   2.574   1.962   7.572
 5040SOL    HW215687   2.445   1.967   7.472
 5041SOL     OW15688   2.643   2.126   9.197
 5041SOL    HW115689   2.710   2.065   9.240
 5041SOL    HW215690   2.570   2.145   9.262
 5042SOL     OW15691   2.750   3.376   8.643
 5042SOL    HW115692   2.727   3.351   8.549
 5042SOL    HW215693   2.811   3.307   8.682
 5043SOL     OW15694   3.213   2.452   8.881
 5043SOL    HW115695   3.241   2.409   8.966
 5043SOL    HW215696   3.238   2.548   8.882
 5044SOL     OW15697   2.665   3.264   8.372
 5044SOL    HW115698   2.755   3.278   8.330
 5044SOL    HW215699   2.594   3.266   8.301
 5045SOL     OW15700   2.784   2.365   8.347
 5045SOL    HW115701   2.759   2.356   8.251
 5045SOL    HW215702   2.832   2.283   8.378
 5046SOL     OW15703   2.401   1.926   7.960
 5046SOL    HW115704   2.320   1.927   8.018
 5046SOL    HW215705   2.404   2.009   7.905
 5047SOL     OW15706   3.296   3.050   7.489
 5047SOL    HW115707   3.328   2.974   7.546
 5047SOL    HW215708   3.204   3.077   7.519
 5048SOL     OW15709   2.159   1.897   7.619
 5048SOL    HW115710   2.208   1.981   7.598
 5048SOL    HW215711   2.221   1.832   7.664
 5049SOL     OW15712   2.797   2.098   7.928
 5049SOL    HW115713   2.749   2.139   7.850
 5049SOL    HW215714   2.896   2.096   7.909
 5050SOL     OW15715   2.938   2.545   8.912
 5050SOL    HW115716   2.858   2.484   8.915
 5050SOL    HW215717   3.019   2.492   8.888
 5051SOL     OW15718   3.089   3.432   8.241
 5051SOL    HW115719   3.110   3.506   8.176
 5051SOL    HW215720   3.157   3.432   8.314
 5052SOL     OW15721   2.321   3.014   8.189
 5052SOL    HW115722   2.250   2.987   8.254
 5052SOL    HW215723   2.295   2.986   8.096
 5053SOL     OW15724   3.133   3.659   8.039
 5053SOL    HW115725   3.177   3.723   7.975
 5053SOL    HW215726   3.083   3.711   8.109
 5054SOL     OW15727   2.894   2.411   7.464
 5054SOL    HW115728   2.853   2.493   7.425
 5054SOL    HW215729   2.958   2.437   7.537
 5055SOL     OW15730   1.940   2.418   8.834
 5055SOL    HW115731   2.032   2.417   8.793
 5055SOL    HW215732   1.934   2.492   8.901
 5056SOL     OW15733   2.728   2.316   8.090
 5056SOL    HW115734   2.696   2.388   8.028
 5056SOL    HW215735   2.752   2.235   8.037
 5057SOL     OW15736   2.879   1.901   8.201
 5057SOL    HW115737   2.807   1.906   8.132
 5057SOL    HW215738   2.855   1.832   8.270
 5058SOL     OW15739   3.291   3.035   8.315
 5058SOL    HW115740   3.236   2.951   8.308
 5058SOL    HW215741   3.317   3.064   8.223
 5059SOL     OW15742   3.328   2.452   8.440
 5059SOL    HW115743   3.298   2.357   8.447
 5059SOL    HW215744   3.401   2.468   8.506
 5060SOL     OW15745   3.719   2.695   7.825
 5060SOL    HW115746   3.761   2.631   7.889
 5060SOL    HW215747   3.681   2.644   7.747
 5061SOL     OW15748   2.350   3.247   7.622
 5061SOL    HW115749   2.263   3.232   7.669
 5061SOL    HW215750   2.333   3.273   7.527
 5062SOL     OW15751   3.526   3.142   8.105
 5062SOL    HW115752   3.625   3.150   8.119
 5062SOL    HW215753   3.481   3.226   8.136
 5063SOL     OW15754   3.252   2.437   7.526
 5063SOL    HW115755   3.198   2.416   7.607
 5063SOL    HW215756   3.343   2.396   7.535
 5064SOL     OW15757   3.616   3.085   9.036
 5064SOL    HW115758   3.707   3.046   9.023
 5064SOL    HW215759   3.624   3.181   9.060
 5065SOL     OW15760   2.926   3.209   8.788
 5065SOL    HW115761   2.846   3.186   8.843
 5065SOL    HW215762   3.009   3.183   8.837
 5066SOL     OW15763   3.454   3.491   9.073
 5066SOL    HW115764   3.481   3.525   8.983
 5066SOL    HW215765   3.533   3.453   9.119
 5067SOL     OW15766   2.973   3.057   8.548
 5067SOL    HW115767   2.933   3.101   8.629
 5067SOL    HW215768   2.932   3.094   8.465
 5068SOL     OW15769   3.500   2.961   8.527
 5068SOL    HW115770   3.505   3.042   8.586
 5068SOL    HW215771   3.414   2.963   8.476
 5069SOL     OW15772   2.777   1.951   8.850
 5069SOL    HW115773   2.802   1.931   8.755
 5069SOL    HW215774   2.849   2.007   8.892
 5070SOL     OW15775   2.842   2.978   9.167
 5070SOL    HW115776   2.743   2.984   9.177
 5070SOL    HW215777   2.865   2.898   9.111
 5071SOL     OW15778   2.567   2.912   7.816
 5071SOL    HW115779   2.553   2.919   7.915
 5071SOL    HW215780   2.651   2.861   7.798
 5072SOL     OW15781   2.272   2.675   8.699
 5072SOL    HW115782   2.358   2.687   8.749
 5072SOL    HW215783   2.230   2.588   8.726
 5073SOL     OW15784   3.136   2.248   8.710
 5073SOL    HW115785   3.157   2.322   8.774
 5073SOL    HW215786   3.047   2.265   8.667
 5074SOL     OW15787   1.926   3.426   8.779
 5074SOL    HW115788   1.880   3.508   8.745
 5074SOL    HW215789   2.024   3.445   8.788
 5075SOL     OW15790   2.229   2.962   7.949
 5075SOL    HW115791   2.222   3.045   7.893
 5075SOL    HW215792   2.233   2.882   7.889
 5076SOL     OW15793   3.114   3.210   7.836
 5076SOL    HW115794   3.164   3.287   7.876
 5076SOL    HW215795   3.019   3.212   7.868
 5077SOL     OW15796   3.134   3.307   8.590
 5077SOL    HW115797   3.181   3.320   8.677
 5077SOL    HW215798   3.068   3.233   8.599
 5078SOL     OW15799   3.444   2.501   7.920
 5078SOL    HW115800   3.413   2.562   7.993
 5078SOL    HW215801   3.494   2.553   7.851
 5079SOL     OW15802   2.216   3.372   8.777
 5079SOL    HW115803   2.195   3.328   8.690
 5079SOL    HW215804   2.313   3.398   8.780
 5080SOL     OW15805   2.264   2.613   9.046
 5080SOL    HW115806   2.332   2.668   8.999
 5080SOL    HW215807   2.304   2.525   9.073
 5081SOL     OW15808   3.449   2.641   9.118
 5081SOL    HW115809   3.357   2.679   9.113
 5081SOL    HW215810   3.509   2.688   9.053
 5082SOL     OW15811   2.875   1.967   9.218
 5082SOL    HW115812   2.881   2.052   9.166
 5082SOL    HW215813   2.907   1.891   9.161
 5083SOL     OW15814   2.366   1.912   9.188
 5083SOL    HW115815   2.324   1.855   9.118
 5083SOL    HW215816   2.300   1.981   9.220
 5084SOL     OW15817   2.435   2.732   8.477
 5084SOL    HW115818   2.479   2.821   8.468
 5084SOL    HW215819   2.372   2.732   8.554
 5085SOL     OW15820   3.222   2.724   8.493
 5085SOL    HW115821   3.147   2.724   8.427
 5085SOL    HW215822   3.259   2.632   8.502
 5086SOL     OW15823   3.071   2.387   7.723
 5086SOL    HW115824   3.084   2.303   7.777
 5086SOL    HW215825   3.042   2.461   7.783
 5087SOL     OW15826   1.899   3.172   8.730
 5087SOL    HW115827   1.952   3.123   8.798
 5087SOL    HW215828   1.921   3.270   8.735
 5088SOL     OW15829   2.594   2.496   8.512
 5088SOL    HW115830   2.653   2.470   8.436
 5088SOL    HW215831   2.566   2.592   8.501
 5089SOL     OW15832   3.590   2.797   9.302
 5089SOL    HW115833   3.544   2.790   9.213
 5089SOL    HW215834   3.528   2.841   9.368
 5090SOL     OW15835   2.169   1.925   8.066
 5090SOL    HW115836   2.158   2.019   8.099
 5090SOL    HW215837   2.164   1.862   8.143
 5091SOL     OW15838   3.484   2.229   7.822
 5091SOL    HW115839   3.486   2.153   7.886
 5091SOL    HW215840   3.436   2.306   7.862
 5092SOL     OW15841   2.885   2.628   8.414
 5092SOL    HW115842   2.900   2.649   8.510
 5092SOL    HW215843   2.855   2.533   8.405
 5093SOL     OW15844   2.842   3.435   9.148
 5093SOL    HW115845   2.822   3.479   9.060
 5093SOL    HW215846   2.881   3.344   9.132
 5094SOL     OW15847   3.721   3.380   9.053
 5094SOL    HW115848   3.735   3.407   8.958
 5094SOL    HW215849   3.804   3.402   9.106
 5095SOL     OW15850   2.212   2.760   9.252
 5095SOL    HW115851   2.288   2.804   9.300
 5095SOL    HW215852   2.247   2.713   9.170
 5096SOL     OW15853   3.402   2.136   7.573
 5096SOL    HW115854   3.341   2.061   7.596
 5096SOL    HW215855   3.424   2.188   7.656
 5097SOL     OW15856   3.165   2.700   7.490
 5097SOL    HW115857   3.199   2.607   7.505
 5097SOL    HW215858   3.183   2.727   7.395
 5098SOL     OW15859   2.930   3.195   8.297
 5098SOL    HW115860   2.937   3.111   8.242
 5098SOL    HW215861   2.992   3.264   8.261
 5099SOL     OW15862   2.181   2.672   8.397
 5099SOL    HW115863   2.274   2.708   8.402
 5099SOL    HW215864   2.175   2.587   8.449
 5100SOL     OW15865   3.000   2.242   9.126
 5100SOL    HW115866   2.955   2.305   9.190
 5100SOL    HW215867   3.093   2.273   9.109
 5101SOL     OW15868   3.022   2.069   8.925
 5101SOL    HW115869   3.022   2.133   9.002
 5101SOL    HW215870   3.050   2.117   8.842
 5102SOL     OW15871   1.870   3.188   7.648
 5102SOL    HW115872   1.777   3.209   7.617
 5102SOL    HW215873   1.880   3.089   7.661
 5103SOL     OW15874   1.950   3.663   8.375
 5103SOL    HW115875   1.908   3.577   8.348
 5103SOL    HW215876   2.044   3.666   8.341
 5104SOL     OW15877   2.366   3.430   8.358
 5104SOL    HW115878   2.432   3.504   8.367
 5104SOL    HW215879   2.410   3.351   8.316
 5105SOL     OW15880   2.864   2.658   8.686
 5105SOL    HW115881   2.905   2.626   8.772
 5105SOL    HW215882   2.768   2.631   8.683
 5106SOL     OW15883   1.902   2.406   8.562
 5106SOL    HW115884   1.987   2.373   8.521
 5106SOL    HW215885   1.915   2.421   8.660
 5107SOL     OW15886   3.231   2.812   9.108
 5107SOL    HW115887   3.270   2.901   9.128
 5107SOL    HW215888   3.241   2.792   9.011
 5108SOL     OW15889   2.677   2.434   7.773
 5108SOL    HW115890   2.684   2.345   7.727
 5108SOL    HW215891   2.583   2.468   7.765
 5109SOL     OW15892   3.519   2.466   8.654
 5109SOL    HW115893   3.481   2.397   8.716
 5109SOL    HW215894   3.601   2.430   8.610
 5110SOL     OW15895   2.114   3.426   9.192
 5110SOL    HW115896   2.084   3.483   9.268
 5110SOL    HW215897   2.107   3.329   9.218
 5111SOL     OW15898   2.792   3.540   8.913
 5111SOL    HW115899   2.768   3.522   8.818
 5111SOL    HW215900   2.822   3.634   8.923
 5112SOL     OW15901   2.021   2.999   8.914
 5112SOL    HW115902   2.043   2.938   8.990
 5112SOL    HW215903   2.031   2.950   8.828
 5113SOL     OW15904   3.209   2.921   8.682
 5113SOL    HW115905   3.233   2.858   8.608
 5113SOL    HW215906   3.119   2.961   8.664
 5114SOL     OW15907   3.164   2.717   7.757
 5114SOL    HW115908   3.078   2.686   7.799
 5114SOL    HW215909   3.160   2.703   7.658
 5115SOL     OW15910   3.621   3.609   8.602
 5115SOL    HW115911   3.682   3.639   8.529
 5115SOL    HW215912   3.583   3.520   8.580
 5116SOL     OW15913   3.114   3.593   8.576
 5116SOL    HW115914   3.198   3.598   8.522
 5116SOL    HW215915   3.091   3.497   8.594
 5117SOL     OW15916   1.945   3.120   8.470
 5117SOL    HW115917   1.940   3.119   8.570
 5117SOL    HW215918   1.862   3.079   8.432
 5118SOL     OW15919   2.550   3.524   9.164
 5118SOL    HW115920   2.494   3.605   9.173
 5118SOL    HW215921   2.602   3.528   9.078
 5119SOL     OW15922   3.588   1.997   7.971
 5119SOL    HW115923   3.661   1.980   7.904
 5119SOL    HW215924   3.557   1.910   8.009
 5120SOL     OW15925   3.250   3.435   7.925
 5120SOL    HW115926   3.317   3.447   7.851
 5120SOL    HW215927   3.210   3.524   7.948
 5121SOL     OW15928   1.992   3.656   9.299
 5121SOL    HW115929   1.951   3.582   9.352
 5121SOL    HW215930   2.056   3.707   9.357
 5122SOL     OW15931   3.142   2.789   8.120
 5122SOL    HW115932   3.202   2.708   8.122
 5122SOL    HW215933   3.182   2.858   8.060
 5123SOL     OW15934   2.692   3.135   8.870
 5123SOL    HW115935   2.687   3.168   8.965
 5123SOL    HW215936   2.606   3.154   8.824
 5124SOL     OW15937   2.534   3.478   7.602
 5124SOL    HW115938   2.543   3.488   7.503
 5124SOL    HW215939   2.494   3.389   7.623
 5125SOL     OW15940   3.512   3.582   8.842
 5125SOL    HW115941   3.565   3.592   8.758
 5125SOL    HW215942   3.485   3.672   8.876
 5126SOL     OW15943   3.703   2.037   8.411
 5126SOL    HW115944   3.742   1.952   8.375
 5126SOL    HW215945   3.605   2.039   8.392
 5127SOL     OW15946   3.056   3.474   7.479
 5127SOL    HW115947   3.062   3.381   7.516
 5127SOL    HW215948   2.997   3.474   7.399
 5128SOL     OW15949   2.684   2.864   8.820
 5128SOL    HW115950   2.724   2.863   8.728
 5128SOL    HW215951   2.694   2.956   8.860
 5129SOL     OW15952   2.778   2.772   7.739
 5129SOL    HW115953   2.841   2.810   7.671
 5129SOL    HW215954   2.818   2.689   7.778
 5130SOL     OW15955   3.366   3.469   7.492
 5130SOL    HW115956   3.274   3.506   7.499
 5130SOL    HW215957   3.404   3.489   7.402
 5131SOL     OW15958   2.234   3.150   8.938
 5131SOL    HW115959   2.221   3.243   8.904
 5131SOL    HW215960   2.150   3.098   8.925
 5132SOL     OW15961   3.476   3.154   8.737
 5132SOL    HW115962   3.536   3.157   8.817
 5132SOL    HW215963   3.401   3.218   8.750
 5133SOL     OW15964   2.901   2.960   8.144
 5133SOL    HW115965   2.831   2.913   8.198
 5133SOL    HW215966   2.960   2.892   8.101
 5134SOL     OW15967   2.876   2.098   8.419
 5134SOL    HW115968   2.868   2.062   8.326
 5134SOL    HW215969   2.874   2.022   8.484
 5135SOL     OW15970   2.452   3.349   7.939
 5135SOL    HW115971   2.494   3.291   7.869
 5135SOL    HW215972   2.408   3.428   7.895
 5136SOL     OW15973   3.571   2.247   8.829
 5136SOL    HW115974   3.644   2.316   8.833
 5136SOL    HW215975   3.599   2.172   8.770
 5137SOL     OW15976   2.117   3.210   7.738
 5137SOL    HW115977   2.021   3.211   7.711
 5137SOL    HW215978   2.129   3.263   7.822
 5138SOL     OW15979   1.967   2.875   9.174
 5138SOL    HW115980   1.890   2.842   9.228
 5138SOL    HW215981   2.052   2.845   9.216
 5139SOL     OW15982   2.534   2.065   8.937
 5139SOL    HW115983   2.624   2.049   8.897
 5139SOL    HW215984   2.542   2.070   9.036
 5140SOL     OW15985   1.937   2.207   7.481
 5140SOL    HW115986   1.845   2.179   7.452
 5140SOL    HW215987   1.968   2.284   7.425
 5141SOL     OW15988   3.302   2.718   8.846
 5141SOL    HW115989   3.245   2.770   8.783
 5141SOL    HW215990   3.398   2.730   8.822
 5142SOL     OW15991   1.934   2.028   7.766
 5142SOL    HW115992   1.917   2.111   7.712
 5142SOL    HW215993   2.024   1.991   7.744
 5143SOL     OW15994   3.045   3.197   7.567
 5143SOL    HW115995   2.946   3.186   7.569
 5143SOL    HW215996   3.079   3.212   7.660
 5144SOL     OW15997   2.475   2.704   8.879
 5144SOL    HW115998   2.531   2.785   8.862
 5144SOL    HW215999   2.534   2.624   8.882
 5145SOL     OW16000   3.355   3.629   8.407
 5145SOL    HW116001   3.388   3.693   8.338
 5145SOL    HW216002   3.421   3.623   8.482
 5146SOL     OW16003   2.578   2.427   9.156
 5146SOL    HW116004   2.597   2.492   9.230
 5146SOL    HW216005   2.638   2.347   9.165
 5147SOL     OW16006   3.312   3.082   9.081
 5147SOL    HW116007   3.303   3.072   9.180
 5147SOL    HW216008   3.408   3.075   9.055
 5148SOL     OW16009   2.252   3.603   9.008
 5148SOL    HW116010   2.161   3.644   9.006
 5148SOL    HW216011   2.245   3.509   9.040
 5149SOL     OW16012   3.536   2.745   8.702
 5149SOL    HW116013   3.509   2.656   8.665
 5149SOL    HW216014   3.537   2.813   8.629
 5150SOL     OW16015   3.087   2.187   7.897
 5150SOL    HW116016   3.152   2.113   7.886
 5150SOL    HW216017   3.107   2.237   7.981
 5151SOL     OW16018   2.456   2.607   8.100
 5151SOL    HW116019   2.506   2.692   8.081
 5151SOL    HW216020   2.368   2.609   8.052
 5152SOL     OW16021   3.639   2.204   9.090
 5152SOL    HW116022   3.622   2.235   8.996
 5152SOL    HW216023   3.555   2.167   9.128
 5153SOL     OW16024   3.592   2.796   8.965
 5153SOL    HW116025   3.630   2.887   8.980
 5153SOL    HW216026   3.584   2.779   8.866
 5154SOL     OW16027   2.721   3.236   7.464
 5154SOL    HW116028   2.675   3.251   7.552
 5154SOL    HW216029   2.765   3.321   7.434
 5155SOL     OW16030   2.523   3.652   8.401
 5155SOL    HW116031   2.477   3.740   8.388
 5155SOL    HW216032   2.622   3.664   8.394
 5156SOL     OW16033   2.721   2.818   8.309
 5156SOL    HW116034   2.775   2.749   8.357
 5156SOL    HW216035   2.689   2.887   8.375
 5157SOL     OW16036   2.945   2.846   7.535
 5157SOL    HW116037   2.922   2.899   7.453
 5157SOL    HW216038   3.026   2.790   7.516
 5158SOL     OW16039   3.723   3.431   8.299
 5158SOL    HW116040   3.652   3.419   8.229
 5158SOL    HW216041   3.724   3.352   8.359
 5159SOL     OW16042   2.083   3.176   9.292
 5159SOL    HW116043   2.018   3.103   9.271
 5159SOL    HW216044   2.087   3.190   9.390
 5160SOL     OW16045   1.941   3.102   8.101
 5160SOL    HW116046   1.940   3.055   8.189
 5160SOL    HW216047   2.023   3.074   8.050
 5161SOL     OW16048   2.534   3.253   9.072
 5161SOL    HW116049   2.456   3.203   9.110
 5161SOL    HW216050   2.531   3.348   9.103
 5162SOL     OW16051   3.686   2.054   8.675
 5162SOL    HW116052   3.682   1.964   8.719
 5162SOL    HW216053   3.689   2.043   8.576
 5163SOL     OW16054   3.567   3.349   8.552
 5163SOL    HW116055   3.474   3.324   8.525
 5163SOL    HW216056   3.593   3.299   8.634
 5164SOL     OW16057   2.674   3.448   8.135
 5164SOL    HW116058   2.706   3.458   8.041
 5164SOL    HW216059   2.595   3.386   8.137
 5165SOL     OW16060   3.286   2.076   8.560
 5165SOL    HW116061   3.338   2.011   8.615
 5165SOL    HW216062   3.237   2.139   8.621
 5166SOL     OW16063   2.863   1.896   8.602
 5166SOL    HW116064   2.800   1.824   8.571
 5166SOL    HW216065   2.956   1.860   8.602
 5167SOL     OW16066   2.632   3.192   7.749
 5167SOL    HW116067   2.586   3.105   7.766
 5167SOL    HW216068   2.723   3.189   7.790
 5168SOL     OW16069   2.480   3.429   8.732
 5168SOL    HW116070   2.475   3.511   8.789
 5168SOL    HW216071   2.569   3.426   8.687
 5169SOL     OW16072   3.214   1.914   7.616
 5169SOL    HW116073   3.249   1.873   7.532
 5169SOL    HW216074   3.124   1.876   7.636
 5170SOL     OW16075   3.162   2.315   8.139
 5170SOL    HW116076   3.103   2.395   8.143
 5170SOL    HW216077   3.177   2.280   8.232
 5171SOL     OW16078   3.455   2.083   8.330
 5171SOL    HW116079   3.371   2.082   8.384
 5171SOL    HW216080   3.457   2.166   8.274
 5172SOL     OW16081   1.901   2.939   7.748
 5172SOL    HW116082   2.000   2.928   7.739
 5172SOL    HW216083   1.861   2.853   7.780
 5173SOL     OW16084   2.737   3.508   7.785
 5173SOL    HW116085   2.660   3.473   7.731
 5173SOL    HW216086   2.705   3.579   7.847
 5174SOL     OW16087   2.092   2.490   9.423
 5174SOL    HW116088   1.999   2.488   9.460
 5174SOL    HW216089   2.093   2.451   9.331
 5175SOL     OW16090   1.881   2.230   9.957
 5175SOL    HW116091   1.799   2.273   9.996
 5175SOL    HW216092   1.853   2.157   9.894
 5176SOL     OW16093   2.431   3.137  10.475
 5176SOL    HW116094   2.338   3.130  10.438
 5176SOL    HW216095   2.442   3.226  10.519
 5177SOL     OW16096   3.417   3.373  10.013
 5177SOL    HW116097   3.360   3.357  10.094
 5177SOL    HW216098   3.358   3.383   9.933
 5178SOL     OW16099   2.997   2.565  10.027
 5178SOL    HW116100   3.054   2.643  10.002
 5178SOL    HW216101   2.937   2.591  10.103
 5179SOL     OW16102   3.617   2.469   9.541
 5179SOL    HW116103   3.605   2.456   9.442
 5179SOL    HW216104   3.587   2.388   9.590
 5180SOL     OW16105   2.630   3.006  10.333
 5180SOL    HW116106   2.552   3.023  10.393
 5180SOL    HW216107   2.664   3.093  10.297
 5181SOL     OW16108   2.712   2.660  11.133
 5181SOL    HW116109   2.708   2.736  11.198
 5181SOL    HW216110   2.734   2.696  11.042
 5182SOL     OW16111   2.547   2.874   9.975
 5182SOL    HW116112   2.616   2.858  10.045
 5182SOL    HW216113   2.474   2.931  10.013
 5183SOL     OW16114   2.197   3.297  10.371
 5183SOL    HW116115   2.119   3.266  10.318
 5183SOL    HW216116   2.255   3.355  10.314
 5184SOL     OW16117   3.322   3.367  10.649
 5184SOL    HW116118   3.346   3.461  10.675
 5184SOL    HW216119   3.306   3.313  10.731
 5185SOL     OW16120   3.465   2.309  10.047
 5185SOL    HW116121   3.391   2.355   9.997
 5185SOL    HW216122   3.516   2.377  10.100
 5186SOL     OW16123   2.093   3.575   9.793
 5186SOL    HW116124   2.127   3.652   9.847
 5186SOL    HW216125   2.137   3.575   9.703
 5187SOL     OW16126   2.092   3.296   9.848
 5187SOL    HW116127   2.066   3.392   9.848
 5187SOL    HW216128   2.021   3.242   9.893
 5188SOL     OW16129   2.102   2.953  10.196
 5188SOL    HW116130   2.116   2.869  10.248
 5188SOL    HW216131   2.047   3.017  10.251
 5189SOL     OW16132   2.482   3.648  10.749
 5189SOL    HW116133   2.390   3.631  10.784
 5189SOL    HW216134   2.510   3.740  10.775
 5190SOL     OW16135   2.468   2.826   9.433
 5190SOL    HW116136   2.475   2.910   9.379
 5190SOL    HW216137   2.514   2.839   9.521
 5191SOL     OW16138   3.456   1.976  10.790
 5191SOL    HW116139   3.438   2.043  10.718
 5191SOL    HW216140   3.453   2.022  10.879
 5192SOL     OW16141   1.984   2.505   9.873
 5192SOL    HW116142   1.939   2.417   9.890
 5192SOL    HW216143   1.983   2.559   9.957
 5193SOL     OW16144   3.704   3.629   9.669
 5193SOL    HW116145   3.758   3.600   9.749
 5193SOL    HW216146   3.734   3.719   9.640
 5194SOL     OW16147   1.889   3.458   9.427
 5194SOL    HW116148   1.870   3.362   9.448
 5194SOL    HW216149   1.856   3.516   9.502
 5195SOL     OW16150   3.551   2.784   9.922
 5195SOL    HW116151   3.646   2.755   9.930
 5195SOL    HW216152   3.543   2.849   9.847
 5196SOL     OW16153   3.503   2.970   9.742
 5196SOL    HW116154   3.589   2.972   9.690
 5196SOL    HW216155   3.517   3.017   9.830
 5197SOL     OW16156   1.975   2.599  10.907
 5197SOL    HW116157   2.063   2.586  10.952
 5197SOL    HW216158   1.962   2.696  10.885
 5198SOL     OW16159   2.475   3.227  10.036
 5198SOL    HW116160   2.426   3.140  10.045
 5198SOL    HW216161   2.452   3.270   9.949
 5199SOL     OW16162   3.155   3.090  10.733
 5199SOL    HW116163   3.192   3.017  10.675
 5199SOL    HW216164   3.207   3.095  10.818
 5200SOL     OW16165   2.671   1.866   9.812
 5200SOL    HW116166   2.711   1.957   9.803
 5200SOL    HW216167   2.571   1.874   9.818
 5201SOL     OW16168   2.059   2.838  10.574
 5201SOL    HW116169   2.148   2.793  10.560
 5201SOL    HW216170   1.986   2.773  10.555
 5202SOL     OW16171   3.387   2.861   9.500
 5202SOL    HW116172   3.324   2.785   9.513
 5202SOL    HW216173   3.435   2.879   9.586
 5203SOL     OW16174   3.049   3.654  10.926
 5203SOL    HW116175   3.073   3.714  10.850
 5203SOL    HW216176   3.056   3.559  10.896
 5204SOL     OW16177   3.328   3.279  10.263
 5204SOL    HW116178   3.269   3.285  10.343
 5204SOL    HW216179   3.313   3.191  10.217
 5205SOL     OW16180   3.529   3.576   9.882
 5205SOL    HW116181   3.488   3.553   9.794
 5205SOL    HW216182   3.511   3.502   9.947
 5206SOL     OW16183   2.460   2.591   9.580
 5206SOL    HW116184   2.484   2.660   9.512
 5206SOL    HW216185   2.382   2.624   9.634
 5207SOL     OW16186   3.143   2.207  10.254
 5207SOL    HW116187   3.057   2.157  10.241
 5207SOL    HW216188   3.205   2.153  10.310
 5208SOL     OW16189   3.438   3.524   9.617
 5208SOL    HW116190   3.527   3.570   9.620
 5208SOL    HW216191   3.417   3.500   9.522
 5209SOL     OW16192   2.669   2.467  10.775
 5209SOL    HW116193   2.622   2.464  10.864
 5209SOL    HW216194   2.618   2.412  10.709
 5210SOL     OW16195   2.835   2.752  10.882
 5210SOL    HW116196   2.881   2.668  10.853
 5210SOL    HW216197   2.779   2.786  10.807
 5211SOL     OW16198   2.853   2.272  10.552
 5211SOL    HW116199   2.776   2.306  10.606
 5211SOL    HW216200   2.819   2.221  10.473
 5212SOL     OW16201   2.903   2.563   9.739
 5212SOL    HW116202   2.929   2.559   9.835
 5212SOL    HW216203   2.818   2.512   9.725
 5213SOL     OW16204   1.938   2.673  10.099
 5213SOL    HW116205   2.037   2.661  10.108
 5213SOL    HW216206   1.914   2.768  10.120
 5214SOL     OW16207   1.992   3.683  10.881
 5214SOL    HW116208   1.982   3.668  10.980
 5214SOL    HW216209   1.906   3.719  10.845
 5215SOL     OW16210   2.727   2.210   9.505
 5215SOL    HW116211   2.786   2.273   9.456
 5215SOL    HW216212   2.746   2.116   9.476
 5216SOL     OW16213   3.224   3.006   9.855
 5216SOL    HW116214   3.307   2.977   9.807
 5216SOL    HW216215   3.175   3.073   9.799
 5217SOL     OW16216   2.870   3.318   9.787
 5217SOL    HW116217   2.824   3.390   9.735
 5217SOL    HW216218   2.866   3.338   9.885
 5218SOL     OW16219   2.213   3.663  10.163
 5218SOL    HW116220   2.263   3.577  10.169
 5218SOL    HW216221   2.278   3.740  10.160
 5219SOL     OW16222   3.657   2.928  10.183
 5219SOL    HW116223   3.595   2.913  10.107
 5219SOL    HW216224   3.605   2.939  10.268
 5220SOL     OW16225   3.089   3.412  10.816
 5220SOL    HW116226   3.095   3.335  10.880
 5220SOL    HW216227   3.037   3.386  10.736
 5221SOL     OW16228   2.183   2.805   9.552
 5221SOL    HW116229   2.265   2.844   9.510
 5221SOL    HW216230   2.156   2.723   9.503
 5222SOL     OW16231   3.320   2.597  10.038
 5222SOL    HW116232   3.315   2.532  10.113
 5222SOL    HW216233   3.400   2.656  10.051
 5223SOL     OW16234   2.323   3.128  11.037
 5223SOL    HW116235   2.273   3.129  10.951
 5223SOL    HW216236   2.260   3.110  11.113
 5224SOL     OW16237   2.973   3.638   9.547
 5224SOL    HW116238   2.913   3.576   9.597
 5224SOL    HW216239   3.004   3.594   9.462
 5225SOL     OW16240   3.494   3.239   9.391
 5225SOL    HW116241   3.462   3.333   9.381
 5225SOL    HW216242   3.418   3.176   9.379
 5226SOL     OW16243   2.326   3.605   9.633
 5226SOL    HW116244   2.359   3.644   9.719
 5226SOL    HW216245   2.402   3.598   9.568
 5227SOL     OW16246   3.262   1.969   9.736
 5227SOL    HW116247   3.238   1.932   9.646
 5227SOL    HW216248   3.361   1.985   9.740
 5228SOL     OW16249   2.111   3.647  10.551
 5228SOL    HW116250   2.168   3.582  10.601
 5228SOL    HW216251   2.095   3.614  10.458
 5229SOL     OW16252   2.802   3.560  10.214
 5229SOL    HW116253   2.882   3.503  10.235
 5229SOL    HW216254   2.753   3.520  10.137
 5230SOL     OW16255   2.476   1.984   9.427
 5230SOL    HW116256   2.574   1.962   9.434
 5230SOL    HW216257   2.445   1.967   9.334
 5231SOL     OW16258   2.643   2.126  11.059
 5231SOL    HW116259   2.710   2.065  11.102
 5231SOL    HW216260   2.570   2.145  11.124
 5232SOL     OW16261   2.750   3.376  10.505
 5232SOL    HW116262   2.727   3.351  10.411
 5232SOL    HW216263   2.811   3.307  10.544
 5233SOL     OW16264   3.213   2.452  10.743
 5233SOL    HW116265   3.241   2.409  10.828
 5233SOL    HW216266   3.238   2.548  10.744
 5234SOL     OW16267   2.665   3.264  10.234
 5234SOL    HW116268   2.755   3.278  10.192
 5234SOL    HW216269   2.594   3.266  10.163
 5235SOL     OW16270   2.784   2.365  10.209
 5235SOL    HW116271   2.759   2.356  10.113
 5235SOL    HW216272   2.832   2.283  10.240
 5236SOL     OW16273   2.401   1.926   9.822
 5236SOL    HW116274   2.320   1.927   9.880
 5236SOL    HW216275   2.404   2.009   9.767
 5237SOL     OW16276   3.296   3.050   9.351
 5237SOL    HW116277   3.328   2.974   9.408
 5237SOL    HW216278   3.204   3.077   9.381
 5238SOL     OW16279   2.159   1.897   9.481
 5238SOL    HW116280   2.208   1.981   9.460
 5238SOL    HW216281   2.221   1.832   9.526
 5239SOL     OW16282   2.797   2.098   9.790
 5239SOL    HW116283   2.749   2.139   9.712
 5239SOL    HW216284   2.896   2.096   9.771
 5240SOL     OW16285   2.938   2.545  10.774
 5240SOL    HW116286   2.858   2.484  10.777
 5240SOL    HW216287   3.019   2.492  10.750
 5241SOL     OW16288   3.089   3.432  10.103
 5241SOL    HW116289   3.110   3.506  10.038
 5241SOL    HW216290   3.157   3.432  10.176
 5242SOL     OW16291   2.321   3.014  10.051
 5242SOL    HW116292   2.250   2.987  10.116
 5242SOL    HW216293   2.295   2.986   9.958
 5243SOL     OW16294   3.133   3.659   9.901
 5243SOL    HW116295   3.177   3.723   9.837
 5243SOL    HW216296   3.083   3.711   9.971
 5244SOL     OW16297   2.894   2.411   9.326
 5244SOL    HW116298   2.853   2.493   9.287
 5244SOL    HW216299   2.958   2.437   9.399
 5245SOL     OW16300   1.940   2.418  10.696
 5245SOL    HW116301   2.032   2.417  10.655
 5245SOL    HW216302   1.934   2.492  10.763
 5246SOL     OW16303   2.423   2.084  10.457
 5246SOL    HW116304   2.461   2.000  10.494
 5246SOL    HW216305   2.335   2.103  10.501
 5247SOL     OW16306   2.728   2.316   9.952
 5247SOL    HW116307   2.696   2.388   9.890
 5247SOL    HW216308   2.752   2.235   9.899
 5248SOL     OW16309   2.879   1.901  10.063
 5248SOL    HW116310   2.807   1.906   9.994
 5248SOL    HW216311   2.855   1.832  10.132
 5249SOL     OW16312   3.291   3.035  10.177
 5249SOL    HW116313   3.236   2.951  10.170
 5249SOL    HW216314   3.317   3.064  10.085
 5250SOL     OW16315   3.328   2.452  10.302
 5250SOL    HW116316   3.298   2.357  10.309
 5250SOL    HW216317   3.401   2.468  10.368
 5251SOL     OW16318   3.719   2.695   9.687
 5251SOL    HW116319   3.761   2.631   9.751
 5251SOL    HW216320   3.681   2.644   9.609
 5252SOL     OW16321   2.350   3.247   9.484
 5252SOL    HW116322   2.263   3.232   9.531
 5252SOL    HW216323   2.333   3.273   9.389
 5253SOL     OW16324   3.526   3.142   9.967
 5253SOL    HW116325   3.625   3.150   9.981
 5253SOL    HW216326   3.481   3.226   9.998
 5254SOL     OW16327   3.252   2.437   9.388
 5254SOL    HW116328   3.198   2.416   9.469
 5254SOL    HW216329   3.343   2.396   9.397
 5255SOL     OW16330   3.616   3.085  10.898
 5255SOL    HW116331   3.707   3.046  10.885
 5255SOL    HW216332   3.624   3.181  10.922
 5256SOL     OW16333   2.926   3.209  10.650
 5256SOL    HW116334   2.846   3.186  10.705
 5256SOL    HW216335   3.009   3.183  10.699
 5257SOL     OW16336   2.973   3.057  10.410
 5257SOL    HW116337   2.933   3.101  10.491
 5257SOL    HW216338   2.932   3.094  10.327
 5258SOL     OW16339   3.500   2.961  10.389
 5258SOL    HW116340   3.505   3.042  10.448
 5258SOL    HW216341   3.414   2.963  10.338
 5259SOL     OW16342   2.777   1.951  10.712
 5259SOL    HW116343   2.802   1.931  10.617
 5259SOL    HW216344   2.849   2.007  10.754
 5260SOL     OW16345   2.567   2.912   9.678
 5260SOL    HW116346   2.553   2.919   9.777
 5260SOL    HW216347   2.651   2.861   9.660
 5261SOL     OW16348   2.272   2.675  10.561
 5261SOL    HW116349   2.358   2.687  10.611
 5261SOL    HW216350   2.230   2.588  10.588
 5262SOL     OW16351   3.136   2.248  10.572
 5262SOL    HW116352   3.157   2.322  10.636
 5262SOL    HW216353   3.047   2.265  10.529
 5263SOL     OW16354   1.926   3.426  10.641
 5263SOL    HW116355   1.880   3.508  10.607
 5263SOL    HW216356   2.024   3.445  10.650
 5264SOL     OW16357   2.229   2.962   9.811
 5264SOL    HW116358   2.222   3.045   9.755
 5264SOL    HW216359   2.233   2.882   9.751
 5265SOL     OW16360   2.428   2.399  10.175
 5265SOL    HW116361   2.440   2.465  10.101
 5265SOL    HW216362   2.474   2.433  10.258
 5266SOL     OW16363   3.114   3.210   9.698
 5266SOL    HW116364   3.164   3.287   9.738
 5266SOL    HW216365   3.019   3.212   9.730
 5267SOL     OW16366   3.134   3.307  10.452
 5267SOL    HW116367   3.181   3.320  10.539
 5267SOL    HW216368   3.068   3.233  10.461
 5268SOL     OW16369   3.444   2.501   9.782
 5268SOL    HW116370   3.413   2.562   9.855
 5268SOL    HW216371   3.494   2.553   9.713
 5269SOL     OW16372   2.216   3.372  10.639
 5269SOL    HW116373   2.195   3.328  10.552
 5269SOL    HW216374   2.313   3.398  10.642
 5270SOL     OW16375   2.264   2.613  10.908
 5270SOL    HW116376   2.332   2.668  10.861
 5270SOL    HW216377   2.304   2.525  10.935
 5271SOL     OW16378   3.449   2.641  10.980
 5271SOL    HW116379   3.357   2.679  10.975
 5271SOL    HW216380   3.509   2.688  10.915
 5272SOL     OW16381   2.435   2.732  10.339
 5272SOL    HW116382   2.479   2.821  10.330
 5272SOL    HW216383   2.372   2.732  10.416
 5273SOL     OW16384   3.222   2.724  10.355
 5273SOL    HW116385   3.147   2.724  10.289
 5273SOL    HW216386   3.259   2.632  10.364
 5274SOL     OW16387   3.071   2.387   9.585
 5274SOL    HW116388   3.084   2.303   9.639
 5274SOL    HW216389   3.042   2.461   9.645
 5275SOL     OW16390   1.899   3.172  10.592
 5275SOL    HW116391   1.952   3.123  10.660
 5275SOL    HW216392   1.921   3.270  10.597
 5276SOL     OW16393   2.594   2.496  10.374
 5276SOL    HW116394   2.653   2.470  10.298
 5276SOL    HW216395   2.566   2.592  10.363
 5277SOL     OW16396   2.169   1.925   9.928
 5277SOL    HW116397   2.158   2.019   9.961
 5277SOL    HW216398   2.164   1.862  10.005
 5278SOL     OW16399   3.484   2.229   9.684
 5278SOL    HW116400   3.486   2.153   9.748
 5278SOL    HW216401   3.436   2.306   9.724
 5279SOL     OW16402   2.885   2.628  10.276
 5279SOL    HW116403   2.900   2.649  10.372
 5279SOL    HW216404   2.855   2.533  10.267
 5280SOL     OW16405   2.842   3.435  11.010
 5280SOL    HW116406   2.822   3.479  10.922
 5280SOL    HW216407   2.881   3.344  10.994
 5281SOL     OW16408   3.721   3.380  10.915
 5281SOL    HW116409   3.735   3.407  10.820
 5281SOL    HW216410   3.804   3.402  10.968
 5282SOL     OW16411   2.212   2.760  11.114
 5282SOL    HW116412   2.288   2.804  11.162
 5282SOL    HW216413   2.247   2.713  11.032
 5283SOL     OW16414   3.402   2.136   9.435
 5283SOL    HW116415   3.341   2.061   9.458
 5283SOL    HW216416   3.424   2.188   9.518
 5284SOL     OW16417   3.165   2.700   9.352
 5284SOL    HW116418   3.199   2.607   9.367
 5284SOL    HW216419   3.183   2.727   9.257
 5285SOL     OW16420   2.930   3.195  10.159
 5285SOL    HW116421   2.937   3.111  10.104
 5285SOL    HW216422   2.992   3.264  10.123
 5286SOL     OW16423   2.181   2.672  10.259
 5286SOL    HW116424   2.274   2.708  10.264
 5286SOL    HW216425   2.175   2.587  10.311
 5287SOL     OW16426   3.022   2.069  10.787
 5287SOL    HW116427   3.022   2.133  10.864
 5287SOL    HW216428   3.050   2.117  10.704
 5288SOL     OW16429   1.870   3.188   9.510
 5288SOL    HW116430   1.777   3.209   9.479
 5288SOL    HW216431   1.880   3.089   9.523
 5289SOL     OW16432   1.950   3.663  10.237
 5289SOL    HW116433   1.908   3.577  10.210
 5289SOL    HW216434   2.044   3.666  10.203
 5290SOL     OW16435   2.366   3.430  10.220
 5290SOL    HW116436   2.432   3.504  10.229
 5290SOL    HW216437   2.410   3.351  10.178
 5291SOL     OW16438   2.864   2.658  10.548
 5291SOL    HW116439   2.905   2.626  10.634
 5291SOL    HW216440   2.768   2.631  10.545
 5292SOL     OW16441   1.902   2.406  10.424
 5292SOL    HW116442   1.987   2.373  10.383
 5292SOL    HW216443   1.915   2.421  10.522
 5293SOL     OW16444   2.677   2.434   9.635
 5293SOL    HW116445   2.684   2.345   9.589
 5293SOL    HW216446   2.583   2.468   9.627
 5294SOL     OW16447   3.519   2.466  10.516
 5294SOL    HW116448   3.481   2.397  10.578
 5294SOL    HW216449   3.601   2.430  10.472
 5295SOL     OW16450   2.114   3.426  11.054
 5295SOL    HW116451   2.084   3.483  11.130
 5295SOL    HW216452   2.107   3.329  11.080
 5296SOL     OW16453   2.792   3.540  10.775
 5296SOL    HW116454   2.768   3.522  10.680
 5296SOL    HW216455   2.822   3.634  10.785
 5297SOL     OW16456   2.021   2.999  10.776
 5297SOL    HW116457   2.043   2.938  10.852
 5297SOL    HW216458   2.031   2.950  10.690
 5298SOL     OW16459   3.209   2.921  10.544
 5298SOL    HW116460   3.233   2.858  10.470
 5298SOL    HW216461   3.119   2.961  10.526
 5299SOL     OW16462   3.164   2.717   9.619
 5299SOL    HW116463   3.078   2.686   9.661
 5299SOL    HW216464   3.160   2.703   9.520
 5300SOL     OW16465   3.621   3.609  10.464
 5300SOL    HW116466   3.682   3.639  10.391
 5300SOL    HW216467   3.583   3.520  10.442
 5301SOL     OW16468   3.114   3.593  10.438
 5301SOL    HW116469   3.198   3.598  10.384
 5301SOL    HW216470   3.091   3.497  10.456
 5302SOL     OW16471   1.945   3.120  10.332
 5302SOL    HW116472   1.940   3.119  10.432
 5302SOL    HW216473   1.862   3.079  10.294
 5303SOL     OW16474   3.588   1.997   9.833
 5303SOL    HW116475   3.661   1.980   9.766
 5303SOL    HW216476   3.557   1.910   9.871
 5304SOL     OW16477   3.250   3.435   9.787
 5304SOL    HW116478   3.317   3.447   9.713
 5304SOL    HW216479   3.210   3.524   9.810
 5305SOL     OW16480   3.142   2.789   9.982
 5305SOL    HW116481   3.202   2.708   9.984
 5305SOL    HW216482   3.182   2.858   9.922
 5306SOL     OW16483   2.692   3.135  10.732
 5306SOL    HW116484   2.687   3.168  10.827
 5306SOL    HW216485   2.606   3.154  10.686
 5307SOL     OW16486   2.534   3.478   9.464
 5307SOL    HW116487   2.543   3.488   9.365
 5307SOL    HW216488   2.494   3.389   9.485
 5308SOL     OW16489   3.512   3.582  10.704
 5308SOL    HW116490   3.565   3.592  10.620
 5308SOL    HW216491   3.485   3.672  10.738
 5309SOL     OW16492   3.703   2.037  10.273
 5309SOL    HW116493   3.742   1.952  10.237
 5309SOL    HW216494   3.605   2.039  10.254
 5310SOL     OW16495   3.056   3.474   9.341
 5310SOL    HW116496   3.062   3.381   9.378
 5310SOL    HW216497   2.997   3.474   9.261
 5311SOL     OW16498   2.684   2.864  10.682
 5311SOL    HW116499   2.724   2.863  10.590
 5311SOL    HW216500   2.694   2.956  10.722
 5312SOL     OW16501   2.778   2.772   9.601
 5312SOL    HW116502   2.841   2.810   9.533
 5312SOL    HW216503   2.818   2.689   9.640
 5313SOL     OW16504   3.366   3.469   9.354
 5313SOL    HW116505   3.274   3.506   9.361
 5313SOL    HW216506   3.404   3.489   9.264
 5314SOL     OW16507   2.234   3.150  10.800
 5314SOL    HW116508   2.221   3.243  10.766
 5314SOL    HW216509   2.150   3.098  10.787
 5315SOL     OW16510   3.476   3.154  10.599
 5315SOL    HW116511   3.536   3.157  10.679
 5315SOL    HW216512   3.401   3.218  10.612
 5316SOL     OW16513   2.901   2.960  10.006
 5316SOL    HW116514   2.831   2.913  10.060
 5316SOL    HW216515   2.960   2.892   9.963
 5317SOL     OW16516   2.876   2.098  10.281
 5317SOL    HW116517   2.868   2.062  10.188
 5317SOL    HW216518   2.874   2.022  10.346
 5318SOL     OW16519   2.452   3.349   9.801
 5318SOL    HW116520   2.494   3.291   9.731
 5318SOL    HW216521   2.408   3.428   9.757
 5319SOL     OW16522   3.571   2.247  10.691
 5319SOL    HW116523   3.644   2.316  10.695
 5319SOL    HW216524   3.599   2.172  10.632
 5320SOL     OW16525   2.117   3.210   9.600
 5320SOL    HW116526   2.021   3.211   9.573
 5320SOL    HW216527   2.129   3.263   9.684
 5321SOL     OW16528   1.967   2.875  11.036
 5321SOL    HW116529   1.890   2.842  11.090
 5321SOL    HW216530   2.052   2.845  11.078
 5322SOL     OW16531   2.534   2.065  10.799
 5322SOL    HW116532   2.624   2.049  10.759
 5322SOL    HW216533   2.542   2.070  10.898
 5323SOL     OW16534   1.937   2.207   9.343
 5323SOL    HW116535   1.845   2.179   9.314
 5323SOL    HW216536   1.968   2.284   9.287
 5324SOL     OW16537   3.302   2.718  10.708
 5324SOL    HW116538   3.245   2.770  10.645
 5324SOL    HW216539   3.398   2.730  10.684
 5325SOL     OW16540   1.934   2.028   9.628
 5325SOL    HW116541   1.917   2.111   9.574
 5325SOL    HW216542   2.024   1.991   9.606
 5326SOL     OW16543   3.045   3.197   9.429
 5326SOL    HW116544   2.946   3.186   9.431
 5326SOL    HW216545   3.079   3.212   9.522
 5327SOL     OW16546   2.475   2.704  10.741
 5327SOL    HW116547   2.531   2.785  10.724
 5327SOL    HW216548   2.534   2.624  10.744
 5328SOL     OW16549   3.355   3.629  10.269
 5328SOL    HW116550   3.388   3.693  10.200
 5328SOL    HW216551   3.421   3.623  10.344
 5329SOL     OW16552   2.578   2.427  11.018
 5329SOL    HW116553   2.597   2.492  11.092
 5329SOL    HW216554   2.638   2.347  11.027
 5330SOL     OW16555   2.252   3.603  10.870
 5330SOL    HW116556   2.161   3.644  10.868
 5330SOL    HW216557   2.245   3.509  10.902
 5331SOL     OW16558   3.536   2.745  10.564
 5331SOL    HW116559   3.509   2.656  10.527
 5331SOL    HW216560   3.537   2.813  10.491
 5332SOL     OW16561   3.087   2.187   9.759
 5332SOL    HW116562   3.152   2.113   9.748
 5332SOL    HW216563   3.107   2.237   9.843
 5333SOL     OW16564   2.456   2.607   9.962
 5333SOL    HW116565   2.506   2.692   9.943
 5333SOL    HW216566   2.368   2.609   9.914
 5334SOL     OW16567   3.639   2.204  10.952
 5334SOL    HW116568   3.622   2.235  10.858
 5334SOL    HW216569   3.555   2.167  10.990
 5335SOL     OW16570   3.592   2.796  10.827
 5335SOL    HW116571   3.630   2.887  10.842
 5335SOL    HW216572   3.584   2.779  10.728
 5336SOL     OW16573   2.721   3.236   9.326
 5336SOL    HW116574   2.675   3.251   9.414
 5336SOL    HW216575   2.765   3.321   9.296
 5337SOL     OW16576   2.523   3.652  10.263
 5337SOL    HW116577   2.477   3.740  10.250
 5337SOL    HW216578   2.622   3.664  10.256
 5338SOL     OW16579   2.721   2.818  10.171
 5338SOL    HW116580   2.775   2.749  10.219
 5338SOL    HW216581   2.689   2.887  10.237
 5339SOL     OW16582   2.945   2.846   9.397
 5339SOL    HW116583   2.922   2.899   9.315
 5339SOL    HW216584   3.026   2.790   9.378
 5340SOL     OW16585   3.723   3.431  10.161
 5340SOL    HW116586   3.652   3.419  10.091
 5340SOL    HW216587   3.724   3.352  10.221
 5341SOL     OW16588   1.941   3.102   9.963
 5341SOL    HW116589   1.940   3.055  10.051
 5341SOL    HW216590   2.023   3.074   9.912
 5342SOL     OW16591   2.534   3.253  10.934
 5342SOL    HW116592   2.456   3.203  10.972
 5342SOL    HW216593   2.531   3.348  10.965
 5343SOL     OW16594   3.686   2.054  10.537
 5343SOL    HW116595   3.682   1.964  10.581
 5343SOL    HW216596   3.689   2.043  10.438
 5344SOL     OW16597   3.567   3.349  10.414
 5344SOL    HW116598   3.474   3.324  10.387
 5344SOL    HW216599   3.593   3.299  10.496
 5345SOL     OW16600   2.674   3.448   9.997
 5345SOL    HW116601   2.706   3.458   9.903
 5345SOL    HW216602   2.595   3.386   9.999
 5346SOL     OW16603   3.286   2.076  10.422
 5346SOL    HW116604   3.338   2.011  10.477
 5346SOL    HW216605   3.237   2.139  10.483
 5347SOL     OW16606   2.863   1.896  10.464
 5347SOL    HW116607   2.800   1.824  10.433
 5347SOL    HW216608   2.956   1.860  10.464
 5348SOL     OW16609   2.632   3.192   9.611
 5348SOL    HW116610   2.586   3.105   9.628
 5348SOL    HW216611   2.723   3.189   9.652
 5349SOL     OW16612   2.480   3.429  10.594
 5349SOL    HW116613   2.475   3.511  10.651
 5349SOL    HW216614   2.569   3.426  10.549
 5350SOL     OW16615   3.214   1.914   9.478
 5350SOL    HW116616   3.249   1.873   9.394
 5350SOL    HW216617   3.124   1.876   9.498
 5351SOL     OW16618   3.162   2.315  10.001
 5351SOL    HW116619   3.103   2.395  10.005
 5351SOL    HW216620   3.177   2.280  10.094
 5352SOL     OW16621   3.455   2.083  10.192
 5352SOL    HW116622   3.371   2.082  10.246
 5352SOL    HW216623   3.457   2.166  10.136
 5353SOL     OW16624   1.901   2.939   9.610
 5353SOL    HW116625   2.000   2.928   9.601
 5353SOL    HW216626   1.861   2.853   9.642
 5354SOL     OW16627   2.737   3.508   9.647
 5354SOL    HW116628   2.660   3.473   9.593
 5354SOL    HW216629   2.705   3.579   9.709
 5355SOL     OW16630   2.092   4.352   0.113
 5355SOL    HW116631   1.999   4.350   0.150
 5355SOL    HW216632   2.093   4.313   0.021
 5356SOL     OW16633   2.087   3.999   0.996
 5356SOL    HW116634   2.122   3.982   1.088
 5356SOL    HW216635   1.999   3.954   0.984
 5357SOL     OW16636   1.881   4.092   0.647
 5357SOL    HW116637   1.799   4.135   0.686
 5357SOL    HW216638   1.853   4.019   0.584
 5358SOL     OW16639   3.617   4.331   0.231
 5358SOL    HW116640   3.605   4.318   0.132
 5358SOL    HW216641   3.587   4.250   0.280
 5359SOL     OW16642   2.547   4.736   0.665
 5359SOL    HW116643   2.616   4.720   0.735
 5359SOL    HW216644   2.474   4.793   0.703
 5360SOL     OW16645   2.300   4.116   1.499
 5360SOL    HW116646   2.382   4.060   1.508
 5360SOL    HW216647   2.219   4.058   1.503
 5361SOL     OW16648   3.465   4.171   0.737
 5361SOL    HW116649   3.391   4.217   0.687
 5361SOL    HW216650   3.516   4.239   0.790
 5362SOL     OW16651   3.456   3.838   1.480
 5362SOL    HW116652   3.438   3.905   1.408
 5362SOL    HW216653   3.453   3.884   1.569
 5363SOL     OW16654   1.984   4.367   0.563
 5363SOL    HW116655   1.939   4.279   0.580
 5363SOL    HW216656   1.983   4.421   0.647
 5364SOL     OW16657   1.975   4.461   1.597
 5364SOL    HW116658   2.063   4.448   1.642
 5364SOL    HW216659   1.962   4.558   1.575
 5365SOL     OW16660   2.671   3.728   0.502
 5365SOL    HW116661   2.711   3.819   0.493
 5365SOL    HW216662   2.571   3.736   0.508
 5366SOL     OW16663   2.179   3.975   1.801
 5366SOL    HW116664   2.250   4.046   1.807
 5366SOL    HW216665   2.091   4.014   1.829
 5367SOL     OW16666   3.143   4.069   0.944
 5367SOL    HW116667   3.057   4.019   0.931
 5367SOL    HW216668   3.205   4.015   1.000
 5368SOL     OW16669   2.669   4.329   1.465
 5368SOL    HW116670   2.622   4.326   1.554
 5368SOL    HW216671   2.618   4.274   1.399
 5369SOL     OW16672   3.256   4.193   1.674
 5369SOL    HW116673   3.236   4.236   1.762
 5369SOL    HW216674   3.334   4.131   1.683
 5370SOL     OW16675   2.853   4.134   1.242
 5370SOL    HW116676   2.776   4.168   1.296
 5370SOL    HW216677   2.819   4.083   1.163
 5371SOL     OW16678   2.903   4.425   0.429
 5371SOL    HW116679   2.929   4.421   0.525
 5371SOL    HW216680   2.818   4.374   0.415
 5372SOL     OW16681   2.727   4.072   0.195
 5372SOL    HW116682   2.786   4.135   0.146
 5372SOL    HW216683   2.746   3.978   0.166
 5373SOL     OW16684   3.581   4.309   1.831
 5373SOL    HW116685   3.555   4.398   1.795
 5373SOL    HW216686   3.579   4.241   1.758
 5374SOL     OW16687   2.412   3.920   0.885
 5374SOL    HW116688   2.407   3.915   0.985
 5374SOL    HW216689   2.414   4.016   0.856
 5375SOL     OW16690   3.320   4.459   0.728
 5375SOL    HW116691   3.315   4.394   0.803
 5375SOL    HW216692   3.400   4.518   0.741
 5376SOL     OW16693   2.064   4.009   1.498
 5376SOL    HW116694   1.984   4.069   1.485
 5376SOL    HW216695   2.054   3.960   1.584
 5377SOL     OW16696   3.262   3.831   0.426
 5377SOL    HW116697   3.238   3.794   0.336
 5377SOL    HW216698   3.361   3.847   0.430
 5378SOL     OW16699   2.244   4.424   0.480
 5378SOL    HW116700   2.289   4.334   0.477
 5378SOL    HW216701   2.150   4.413   0.513
 5379SOL     OW16702   3.409   3.946   1.729
 5379SOL    HW116703   3.404   3.983   1.821
 5379SOL    HW216704   3.337   3.877   1.717
 5380SOL     OW16705   2.476   3.846   0.117
 5380SOL    HW116706   2.574   3.824   0.124
 5380SOL    HW216707   2.445   3.829   0.024
 5381SOL     OW16708   2.643   3.988   1.749
 5381SOL    HW116709   2.710   3.927   1.792
 5381SOL    HW216710   2.570   4.007   1.814
 5382SOL     OW16711   3.213   4.314   1.433
 5382SOL    HW116712   3.241   4.271   1.518
 5382SOL    HW216713   3.238   4.410   1.434
 5383SOL     OW16714   2.784   4.227   0.899
 5383SOL    HW116715   2.759   4.218   0.803
 5383SOL    HW216716   2.832   4.145   0.930
 5384SOL     OW16717   2.401   3.788   0.512
 5384SOL    HW116718   2.320   3.789   0.570
 5384SOL    HW216719   2.404   3.871   0.457
 5385SOL     OW16720   2.159   3.759   0.171
 5385SOL    HW116721   2.208   3.843   0.150
 5385SOL    HW216722   2.221   3.694   0.216
 5386SOL     OW16723   2.797   3.960   0.480
 5386SOL    HW116724   2.749   4.001   0.402
 5386SOL    HW216725   2.896   3.958   0.461
 5387SOL     OW16726   2.938   4.407   1.464
 5387SOL    HW116727   2.858   4.346   1.467
 5387SOL    HW216728   3.019   4.354   1.440
 5388SOL     OW16729   2.894   4.273   0.016
 5388SOL    HW116730   2.853   4.355  -0.023
 5388SOL    HW216731   2.958   4.299   0.089
 5389SOL     OW16732   1.940   4.280   1.386
 5389SOL    HW116733   2.032   4.279   1.345
 5389SOL    HW216734   1.934   4.354   1.453
 5390SOL     OW16735   2.423   3.946   1.147
 5390SOL    HW116736   2.461   3.862   1.184
 5390SOL    HW216737   2.335   3.965   1.191
 5391SOL     OW16738   2.728   4.178   0.642
 5391SOL    HW116739   2.696   4.250   0.580
 5391SOL    HW216740   2.752   4.097   0.589
 5392SOL     OW16741   2.879   3.763   0.753
 5392SOL    HW116742   2.807   3.768   0.684
 5392SOL    HW216743   2.855   3.694   0.822
 5393SOL     OW16744   3.328   4.314   0.992
 5393SOL    HW116745   3.298   4.219   0.999
 5393SOL    HW216746   3.401   4.330   1.058
 5394SOL     OW16747   3.252   4.299   0.078
 5394SOL    HW116748   3.198   4.278   0.159
 5394SOL    HW216749   3.343   4.258   0.087
 5395SOL     OW16750   2.389   3.980   0.328
 5395SOL    HW116751   2.416   3.921   0.253
 5395SOL    HW216752   2.389   4.075   0.297
 5396SOL     OW16753   2.777   3.813   1.402
 5396SOL    HW116754   2.802   3.793   1.307
 5396SOL    HW216755   2.849   3.869   1.444
 5397SOL     OW16756   2.272   4.537   1.251
 5397SOL    HW116757   2.358   4.549   1.301
 5397SOL    HW216758   2.230   4.450   1.278
 5398SOL     OW16759   3.136   4.110   1.262
 5398SOL    HW116760   3.157   4.184   1.326
 5398SOL    HW216761   3.047   4.127   1.219
 5399SOL     OW16762   2.428   4.261   0.865
 5399SOL    HW116763   2.440   4.327   0.791
 5399SOL    HW216764   2.474   4.295   0.948
 5400SOL     OW16765   3.444   4.363   0.472
 5400SOL    HW116766   3.413   4.424   0.545
 5400SOL    HW216767   3.494   4.415   0.403
 5401SOL     OW16768   2.875   3.829   1.770
 5401SOL    HW116769   2.881   3.914   1.718
 5401SOL    HW216770   2.907   3.753   1.713
 5402SOL     OW16771   2.366   3.774   1.740
 5402SOL    HW116772   2.324   3.717   1.670
 5402SOL    HW216773   2.300   3.843   1.772
 5403SOL     OW16774   3.071   4.249   0.275
 5403SOL    HW116775   3.084   4.165   0.329
 5403SOL    HW216776   3.042   4.323   0.335
 5404SOL     OW16777   2.169   3.937   1.231
 5404SOL    HW116778   2.146   3.974   1.321
 5404SOL    HW216779   2.139   3.842   1.225
 5405SOL     OW16780   2.594   4.358   1.064
 5405SOL    HW116781   2.653   4.332   0.988
 5405SOL    HW216782   2.566   4.454   1.053
 5406SOL     OW16783   3.590   4.659   1.854
 5406SOL    HW116784   3.544   4.652   1.765
 5406SOL    HW216785   3.528   4.703   1.920
 5407SOL     OW16786   2.169   3.787   0.618
 5407SOL    HW116787   2.158   3.881   0.651
 5407SOL    HW216788   2.164   3.724   0.695
 5408SOL     OW16789   3.484   4.091   0.374
 5408SOL    HW116790   3.486   4.015   0.438
 5408SOL    HW216791   3.436   4.168   0.414
 5409SOL     OW16792   3.402   3.998   0.125
 5409SOL    HW116793   3.341   3.923   0.148
 5409SOL    HW216794   3.424   4.050   0.208
 5410SOL     OW16795   2.181   4.534   0.949
 5410SOL    HW116796   2.274   4.570   0.954
 5410SOL    HW216797   2.175   4.449   1.001
 5411SOL     OW16798   2.201   4.233   1.006
 5411SOL    HW116799   2.149   4.150   0.989
 5411SOL    HW216800   2.278   4.238   0.942
 5412SOL     OW16801   3.000   4.104   1.678
 5412SOL    HW116802   2.955   4.167   1.742
 5412SOL    HW216803   3.093   4.135   1.661
 5413SOL     OW16804   3.022   3.931   1.477
 5413SOL    HW116805   3.022   3.995   1.554
 5413SOL    HW216806   3.050   3.979   1.394
 5414SOL     OW16807   1.902   4.268   1.114
 5414SOL    HW116808   1.987   4.235   1.073
 5414SOL    HW216809   1.915   4.283   1.212
 5415SOL     OW16810   2.051   4.244   1.722
 5415SOL    HW116811   2.110   4.204   1.652
 5415SOL    HW216812   1.993   4.315   1.681
 5416SOL     OW16813   2.677   4.296   0.325
 5416SOL    HW116814   2.684   4.207   0.279
 5416SOL    HW216815   2.583   4.330   0.317
 5417SOL     OW16816   3.519   4.328   1.206
 5417SOL    HW116817   3.481   4.259   1.268
 5417SOL    HW216818   3.601   4.292   1.162
 5418SOL     OW16819   2.533   4.188   1.269
 5418SOL    HW116820   2.499   4.099   1.239
 5418SOL    HW216821   2.559   4.242   1.189
 5419SOL     OW16822   2.335   4.224   0.191
 5419SOL    HW116823   2.396   4.304   0.195
 5419SOL    HW216824   2.240   4.255   0.198
 5420SOL     OW16825   2.765   3.810   0.133
 5420SOL    HW116826   2.816   3.811   0.047
 5420SOL    HW216827   2.821   3.768   0.204
 5421SOL     OW16828   3.588   3.859   0.523
 5421SOL    HW116829   3.661   3.842   0.456
 5421SOL    HW216830   3.557   3.772   0.561
 5422SOL     OW16831   3.142   4.651   0.672
 5422SOL    HW116832   3.202   4.570   0.674
 5422SOL    HW216833   3.182   4.720   0.612
 5423SOL     OW16834   3.703   3.899   0.963
 5423SOL    HW116835   3.742   3.814   0.927
 5423SOL    HW216836   3.605   3.901   0.944
 5424SOL     OW16837   2.125   4.050   0.720
 5424SOL    HW116838   2.046   4.101   0.686
 5424SOL    HW216839   2.116   4.035   0.818
 5425SOL     OW16840   2.901   4.822   0.696
 5425SOL    HW116841   2.831   4.775   0.750
 5425SOL    HW216842   2.960   4.754   0.653
 5426SOL     OW16843   2.876   3.960   0.971
 5426SOL    HW116844   2.868   3.924   0.878
 5426SOL    HW216845   2.874   3.884   1.036
 5427SOL     OW16846   3.571   4.109   1.381
 5427SOL    HW116847   3.644   4.178   1.385
 5427SOL    HW216848   3.599   4.034   1.322
 5428SOL     OW16849   2.534   3.927   1.489
 5428SOL    HW116850   2.624   3.911   1.449
 5428SOL    HW216851   2.542   3.932   1.588
 5429SOL     OW16852   1.937   4.069   0.033
 5429SOL    HW116853   1.845   4.041   0.004
 5429SOL    HW216854   1.968   4.146  -0.023
 5430SOL     OW16855   1.934   3.890   0.318
 5430SOL    HW116856   1.917   3.973   0.264
 5430SOL    HW216857   2.024   3.853   0.296
 5431SOL     OW16858   2.578   4.289   1.708
 5431SOL    HW116859   2.597   4.354   1.782
 5431SOL    HW216860   2.638   4.209   1.717
 5432SOL     OW16861   3.087   4.049   0.449
 5432SOL    HW116862   3.152   3.975   0.438
 5432SOL    HW216863   3.107   4.099   0.533
 5433SOL     OW16864   3.639   4.066   1.642
 5433SOL    HW116865   3.622   4.097   1.548
 5433SOL    HW216866   3.555   4.029   1.680
 5434SOL     OW16867   2.945   4.708   0.087
 5434SOL    HW116868   2.922   4.761   0.005
 5434SOL    HW216869   3.026   4.652   0.068
 5435SOL     OW16870   3.686   3.916   1.227
 5435SOL    HW116871   3.682   3.826   1.271
 5435SOL    HW216872   3.689   3.905   1.128
 5436SOL     OW16873   2.290   4.148   0.520
 5436SOL    HW116874   2.320   4.076   0.458
 5436SOL    HW216875   2.251   4.108   0.603
 5437SOL     OW16876   2.179   4.271   1.280
 5437SOL    HW116877   2.217   4.212   1.352
 5437SOL    HW216878   2.219   4.245   1.192
 5438SOL     OW16879   3.286   3.938   1.112
 5438SOL    HW116880   3.338   3.873   1.167
 5438SOL    HW216881   3.237   4.001   1.173
 5439SOL     OW16882   2.863   3.758   1.154
 5439SOL    HW116883   2.800   3.686   1.123
 5439SOL    HW216884   2.956   3.722   1.154
 5440SOL     OW16885   3.214   3.776   0.168
 5440SOL    HW116886   3.249   3.735   0.084
 5440SOL    HW216887   3.124   3.738   0.188
 5441SOL     OW16888   3.162   4.177   0.691
 5441SOL    HW116889   3.103   4.257   0.695
 5441SOL    HW216890   3.177   4.142   0.784
 5442SOL     OW16891   3.455   3.945   0.882
 5442SOL    HW116892   3.371   3.944   0.936
 5442SOL    HW216893   3.457   4.028   0.826
 5443SOL     OW16894   2.092   4.352   1.975
 5443SOL    HW116895   1.999   4.350   2.012
 5443SOL    HW216896   2.093   4.313   1.883
 5444SOL     OW16897   2.087   3.999   2.858
 5444SOL    HW116898   2.122   3.982   2.950
 5444SOL    HW216899   1.999   3.954   2.846
 5445SOL     OW16900   1.881   4.092   2.509
 5445SOL    HW116901   1.799   4.135   2.548
 5445SOL    HW216902   1.853   4.019   2.446
 5446SOL     OW16903   3.617   4.331   2.093
 5446SOL    HW116904   3.605   4.318   1.994
 5446SOL    HW216905   3.587   4.250   2.142
 5447SOL     OW16906   2.547   4.736   2.527
 5447SOL    HW116907   2.616   4.720   2.597
 5447SOL    HW216908   2.474   4.793   2.565
 5448SOL     OW16909   2.300   4.116   3.361
 5448SOL    HW116910   2.382   4.060   3.370
 5448SOL    HW216911   2.219   4.058   3.365
 5449SOL     OW16912   3.465   4.171   2.599
 5449SOL    HW116913   3.391   4.217   2.549
 5449SOL    HW216914   3.516   4.239   2.652
 5450SOL     OW16915   3.456   3.838   3.342
 5450SOL    HW116916   3.438   3.905   3.270
 5450SOL    HW216917   3.453   3.884   3.431
 5451SOL     OW16918   1.984   4.367   2.425
 5451SOL    HW116919   1.939   4.279   2.442
 5451SOL    HW216920   1.983   4.421   2.509
 5452SOL     OW16921   1.975   4.461   3.459
 5452SOL    HW116922   2.063   4.448   3.504
 5452SOL    HW216923   1.962   4.558   3.437
 5453SOL     OW16924   2.671   3.728   2.364
 5453SOL    HW116925   2.711   3.819   2.355
 5453SOL    HW216926   2.571   3.736   2.370
 5454SOL     OW16927   2.179   3.975   3.663
 5454SOL    HW116928   2.250   4.046   3.669
 5454SOL    HW216929   2.091   4.014   3.691
 5455SOL     OW16930   3.143   4.069   2.806
 5455SOL    HW116931   3.057   4.019   2.793
 5455SOL    HW216932   3.205   4.015   2.862
 5456SOL     OW16933   2.669   4.329   3.327
 5456SOL    HW116934   2.622   4.326   3.416
 5456SOL    HW216935   2.618   4.274   3.261
 5457SOL     OW16936   3.256   4.193   3.536
 5457SOL    HW116937   3.236   4.236   3.624
 5457SOL    HW216938   3.334   4.131   3.545
 5458SOL     OW16939   2.853   4.134   3.104
 5458SOL    HW116940   2.776   4.168   3.158
 5458SOL    HW216941   2.819   4.083   3.025
 5459SOL     OW16942   2.903   4.425   2.291
 5459SOL    HW116943   2.929   4.421   2.387
 5459SOL    HW216944   2.818   4.374   2.277
 5460SOL     OW16945   2.727   4.072   2.057
 5460SOL    HW116946   2.786   4.135   2.008
 5460SOL    HW216947   2.746   3.978   2.028
 5461SOL     OW16948   3.581   4.309   3.693
 5461SOL    HW116949   3.555   4.398   3.657
 5461SOL    HW216950   3.579   4.241   3.620
 5462SOL     OW16951   2.412   3.920   2.747
 5462SOL    HW116952   2.407   3.915   2.847
 5462SOL    HW216953   2.414   4.016   2.718
 5463SOL     OW16954   3.320   4.459   2.590
 5463SOL    HW116955   3.315   4.394   2.665
 5463SOL    HW216956   3.400   4.518   2.603
 5464SOL     OW16957   2.064   4.009   3.360
 5464SOL    HW116958   1.984   4.069   3.347
 5464SOL    HW216959   2.054   3.960   3.446
 5465SOL     OW16960   3.262   3.831   2.288
 5465SOL    HW116961   3.238   3.794   2.198
 5465SOL    HW216962   3.361   3.847   2.292
 5466SOL     OW16963   2.244   4.424   2.342
 5466SOL    HW116964   2.289   4.334   2.339
 5466SOL    HW216965   2.150   4.413   2.375
 5467SOL     OW16966   3.409   3.946   3.591
 5467SOL    HW116967   3.404   3.983   3.683
 5467SOL    HW216968   3.337   3.877   3.579
 5468SOL     OW16969   2.476   3.846   1.979
 5468SOL    HW116970   2.574   3.824   1.986
 5468SOL    HW216971   2.445   3.829   1.886
 5469SOL     OW16972   2.643   3.988   3.611
 5469SOL    HW116973   2.710   3.927   3.654
 5469SOL    HW216974   2.570   4.007   3.676
 5470SOL     OW16975   3.213   4.314   3.295
 5470SOL    HW116976   3.241   4.271   3.380
 5470SOL    HW216977   3.238   4.410   3.296
 5471SOL     OW16978   2.784   4.227   2.761
 5471SOL    HW116979   2.759   4.218   2.665
 5471SOL    HW216980   2.832   4.145   2.792
 5472SOL     OW16981   2.401   3.788   2.374
 5472SOL    HW116982   2.320   3.789   2.432
 5472SOL    HW216983   2.404   3.871   2.319
 5473SOL     OW16984   2.159   3.759   2.033
 5473SOL    HW116985   2.208   3.843   2.012
 5473SOL    HW216986   2.221   3.694   2.078
 5474SOL     OW16987   2.797   3.960   2.342
 5474SOL    HW116988   2.749   4.001   2.264
 5474SOL    HW216989   2.896   3.958   2.323
 5475SOL     OW16990   2.938   4.407   3.326
 5475SOL    HW116991   2.858   4.346   3.329
 5475SOL    HW216992   3.019   4.354   3.302
 5476SOL     OW16993   2.894   4.273   1.878
 5476SOL    HW116994   2.853   4.355   1.839
 5476SOL    HW216995   2.958   4.299   1.951
 5477SOL     OW16996   1.940   4.280   3.248
 5477SOL    HW116997   2.032   4.279   3.207
 5477SOL    HW216998   1.934   4.354   3.315
 5478SOL     OW16999   2.423   3.946   3.009
 5478SOL    HW117000   2.461   3.862   3.046
 5478SOL    HW217001   2.335   3.965   3.053
 5479SOL     OW17002   2.728   4.178   2.504
 5479SOL    HW117003   2.696   4.250   2.442
 5479SOL    HW217004   2.752   4.097   2.451
 5480SOL     OW17005   2.879   3.763   2.615
 5480SOL    HW117006   2.807   3.768   2.546
 5480SOL    HW217007   2.855   3.694   2.684
 5481SOL     OW17008   3.328   4.314   2.854
 5481SOL    HW117009   3.298   4.219   2.861
 5481SOL    HW217010   3.401   4.330   2.920
 5482SOL     OW17011   3.252   4.299   1.940
 5482SOL    HW117012   3.198   4.278   2.021
 5482SOL    HW217013   3.343   4.258   1.949
 5483SOL     OW17014   2.389   3.980   2.190
 5483SOL    HW117015   2.416   3.921   2.115
 5483SOL    HW217016   2.389   4.075   2.159
 5484SOL     OW17017   2.777   3.813   3.264
 5484SOL    HW117018   2.802   3.793   3.169
 5484SOL    HW217019   2.849   3.869   3.306
 5485SOL     OW17020   2.272   4.537   3.113
 5485SOL    HW117021   2.358   4.549   3.163
 5485SOL    HW217022   2.230   4.450   3.140
 5486SOL     OW17023   3.136   4.110   3.124
 5486SOL    HW117024   3.157   4.184   3.188
 5486SOL    HW217025   3.047   4.127   3.081
 5487SOL     OW17026   2.428   4.261   2.727
 5487SOL    HW117027   2.440   4.327   2.653
 5487SOL    HW217028   2.474   4.295   2.810
 5488SOL     OW17029   3.444   4.363   2.334
 5488SOL    HW117030   3.413   4.424   2.407
 5488SOL    HW217031   3.494   4.415   2.265
 5489SOL     OW17032   2.875   3.829   3.632
 5489SOL    HW117033   2.881   3.914   3.580
 5489SOL    HW217034   2.907   3.753   3.575
 5490SOL     OW17035   2.366   3.774   3.602
 5490SOL    HW117036   2.324   3.717   3.532
 5490SOL    HW217037   2.300   3.843   3.634
 5491SOL     OW17038   3.071   4.249   2.137
 5491SOL    HW117039   3.084   4.165   2.191
 5491SOL    HW217040   3.042   4.323   2.197
 5492SOL     OW17041   2.169   3.937   3.093
 5492SOL    HW117042   2.146   3.974   3.183
 5492SOL    HW217043   2.139   3.842   3.087
 5493SOL     OW17044   2.594   4.358   2.926
 5493SOL    HW117045   2.653   4.332   2.850
 5493SOL    HW217046   2.566   4.454   2.915
 5494SOL     OW17047   3.590   4.659   3.716
 5494SOL    HW117048   3.544   4.652   3.627
 5494SOL    HW217049   3.528   4.703   3.782
 5495SOL     OW17050   2.169   3.787   2.480
 5495SOL    HW117051   2.158   3.881   2.513
 5495SOL    HW217052   2.164   3.724   2.557
 5496SOL     OW17053   3.484   4.091   2.236
 5496SOL    HW117054   3.486   4.015   2.300
 5496SOL    HW217055   3.436   4.168   2.276
 5497SOL     OW17056   3.402   3.998   1.987
 5497SOL    HW117057   3.341   3.923   2.010
 5497SOL    HW217058   3.424   4.050   2.070
 5498SOL     OW17059   2.181   4.534   2.811
 5498SOL    HW117060   2.274   4.570   2.816
 5498SOL    HW217061   2.175   4.449   2.863
 5499SOL     OW17062   2.201   4.233   2.868
 5499SOL    HW117063   2.149   4.150   2.851
 5499SOL    HW217064   2.278   4.238   2.804
 5500SOL     OW17065   3.000   4.104   3.540
 5500SOL    HW117066   2.955   4.167   3.604
 5500SOL    HW217067   3.093   4.135   3.523
 5501SOL     OW17068   3.022   3.931   3.339
 5501SOL    HW117069   3.022   3.995   3.416
 5501SOL    HW217070   3.050   3.979   3.256
 5502SOL     OW17071   1.902   4.268   2.976
 5502SOL    HW117072   1.987   4.235   2.935
 5502SOL    HW217073   1.915   4.283   3.074
 5503SOL     OW17074   2.051   4.244   3.584
 5503SOL    HW117075   2.110   4.204   3.514
 5503SOL    HW217076   1.993   4.315   3.543
 5504SOL     OW17077   2.677   4.296   2.187
 5504SOL    HW117078   2.684   4.207   2.141
 5504SOL    HW217079   2.583   4.330   2.179
 5505SOL     OW17080   3.519   4.328   3.068
 5505SOL    HW117081   3.481   4.259   3.130
 5505SOL    HW217082   3.601   4.292   3.024
 5506SOL     OW17083   2.533   4.188   3.131
 5506SOL    HW117084   2.499   4.099   3.101
 5506SOL    HW217085   2.559   4.242   3.051
 5507SOL     OW17086   2.335   4.224   2.053
 5507SOL    HW117087   2.396   4.304   2.057
 5507SOL    HW217088   2.240   4.255   2.060
 5508SOL     OW17089   3.588   3.859   2.385
 5508SOL    HW117090   3.661   3.842   2.318
 5508SOL    HW217091   3.557   3.772   2.423
 5509SOL     OW17092   3.142   4.651   2.534
 5509SOL    HW117093   3.202   4.570   2.536
 5509SOL    HW217094   3.182   4.720   2.474
 5510SOL     OW17095   3.703   3.899   2.825
 5510SOL    HW117096   3.742   3.814   2.789
 5510SOL    HW217097   3.605   3.901   2.806
 5511SOL     OW17098   2.125   4.050   2.582
 5511SOL    HW117099   2.046   4.101   2.548
 5511SOL    HW217100   2.116   4.035   2.680
 5512SOL     OW17101   2.778   4.634   2.153
 5512SOL    HW117102   2.841   4.672   2.085
 5512SOL    HW217103   2.818   4.551   2.192
 5513SOL     OW17104   2.901   4.822   2.558
 5513SOL    HW117105   2.831   4.775   2.612
 5513SOL    HW217106   2.960   4.754   2.515
 5514SOL     OW17107   2.876   3.960   2.833
 5514SOL    HW117108   2.868   3.924   2.740
 5514SOL    HW217109   2.874   3.884   2.898
 5515SOL     OW17110   3.571   4.109   3.243
 5515SOL    HW117111   3.644   4.178   3.247
 5515SOL    HW217112   3.599   4.034   3.184
 5516SOL     OW17113   2.534   3.927   3.351
 5516SOL    HW117114   2.624   3.911   3.311
 5516SOL    HW217115   2.542   3.932   3.450
 5517SOL     OW17116   1.937   4.069   1.895
 5517SOL    HW117117   1.845   4.041   1.866
 5517SOL    HW217118   1.968   4.146   1.839
 5518SOL     OW17119   1.934   3.890   2.180
 5518SOL    HW117120   1.917   3.973   2.126
 5518SOL    HW217121   2.024   3.853   2.158
 5519SOL     OW17122   2.578   4.289   3.570
 5519SOL    HW117123   2.597   4.354   3.644
 5519SOL    HW217124   2.638   4.209   3.579
 5520SOL     OW17125   3.087   4.049   2.311
 5520SOL    HW117126   3.152   3.975   2.300
 5520SOL    HW217127   3.107   4.099   2.395
 5521SOL     OW17128   3.639   4.066   3.504
 5521SOL    HW117129   3.622   4.097   3.410
 5521SOL    HW217130   3.555   4.029   3.542
 5522SOL     OW17131   2.945   4.708   1.949
 5522SOL    HW117132   2.922   4.761   1.867
 5522SOL    HW217133   3.026   4.652   1.930
 5523SOL     OW17134   3.686   3.916   3.089
 5523SOL    HW117135   3.682   3.826   3.133
 5523SOL    HW217136   3.689   3.905   2.990
 5524SOL     OW17137   2.290   4.148   2.382
 5524SOL    HW117138   2.320   4.076   2.320
 5524SOL    HW217139   2.251   4.108   2.465
 5525SOL     OW17140   2.179   4.271   3.142
 5525SOL    HW117141   2.217   4.212   3.214
 5525SOL    HW217142   2.219   4.245   3.054
 5526SOL     OW17143   3.286   3.938   2.974
 5526SOL    HW117144   3.338   3.873   3.029
 5526SOL    HW217145   3.237   4.001   3.035
 5527SOL     OW17146   2.863   3.758   3.016
 5527SOL    HW117147   2.800   3.686   2.985
 5527SOL    HW217148   2.956   3.722   3.016
 5528SOL     OW17149   3.214   3.776   2.030
 5528SOL    HW117150   3.249   3.735   1.946
 5528SOL    HW217151   3.124   3.738   2.050
 5529SOL     OW17152   3.162   4.177   2.553
 5529SOL    HW117153   3.103   4.257   2.557
 5529SOL    HW217154   3.177   4.142   2.646
 5530SOL     OW17155   3.455   3.945   2.744
 5530SOL    HW117156   3.371   3.944   2.798
 5530SOL    HW217157   3.457   4.028   2.688
 5531SOL     OW17158   2.092   4.352   3.837
 5531SOL    HW117159   1.999   4.350   3.874
 5531SOL    HW217160   2.093   4.313   3.745
 5532SOL     OW17161   2.087   3.999   4.720
 5532SOL    HW117162   2.122   3.982   4.812
 5532SOL    HW217163   1.999   3.954   4.708
 5533SOL     OW17164   1.881   4.092   4.371
 5533SOL    HW117165   1.799   4.135   4.410
 5533SOL    HW217166   1.853   4.019   4.308
 5534SOL     OW17167   3.617   4.331   3.955
 5534SOL    HW117168   3.605   4.318   3.856
 5534SOL    HW217169   3.587   4.250   4.004
 5535SOL     OW17170   2.547   4.736   4.389
 5535SOL    HW117171   2.616   4.720   4.459
 5535SOL    HW217172   2.474   4.793   4.427
 5536SOL     OW17173   2.300   4.116   5.223
 5536SOL    HW117174   2.382   4.060   5.232
 5536SOL    HW217175   2.219   4.058   5.227
 5537SOL     OW17176   3.465   4.171   4.461
 5537SOL    HW117177   3.391   4.217   4.411
 5537SOL    HW217178   3.516   4.239   4.514
 5538SOL     OW17179   3.456   3.838   5.204
 5538SOL    HW117180   3.438   3.905   5.132
 5538SOL    HW217181   3.453   3.884   5.293
 5539SOL     OW17182   1.984   4.367   4.287
 5539SOL    HW117183   1.939   4.279   4.304
 5539SOL    HW217184   1.983   4.421   4.371
 5540SOL     OW17185   1.975   4.461   5.321
 5540SOL    HW117186   2.063   4.448   5.366
 5540SOL    HW217187   1.962   4.558   5.299
 5541SOL     OW17188   2.671   3.728   4.226
 5541SOL    HW117189   2.711   3.819   4.217
 5541SOL    HW217190   2.571   3.736   4.232
 5542SOL     OW17191   2.179   3.975   5.525
 5542SOL    HW117192   2.250   4.046   5.531
 5542SOL    HW217193   2.091   4.014   5.553
 5543SOL     OW17194   3.143   4.069   4.668
 5543SOL    HW117195   3.057   4.019   4.655
 5543SOL    HW217196   3.205   4.015   4.724
 5544SOL     OW17197   2.669   4.329   5.189
 5544SOL    HW117198   2.622   4.326   5.278
 5544SOL    HW217199   2.618   4.274   5.123
 5545SOL     OW17200   3.256   4.193   5.398
 5545SOL    HW117201   3.236   4.236   5.486
 5545SOL    HW217202   3.334   4.131   5.407
 5546SOL     OW17203   2.853   4.134   4.966
 5546SOL    HW117204   2.776   4.168   5.020
 5546SOL    HW217205   2.819   4.083   4.887
 5547SOL     OW17206   2.903   4.425   4.153
 5547SOL    HW117207   2.929   4.421   4.249
 5547SOL    HW217208   2.818   4.374   4.139
 5548SOL     OW17209   2.727   4.072   3.919
 5548SOL    HW117210   2.786   4.135   3.870
 5548SOL    HW217211   2.746   3.978   3.890
 5549SOL     OW17212   3.581   4.309   5.555
 5549SOL    HW117213   3.555   4.398   5.519
 5549SOL    HW217214   3.579   4.241   5.482
 5550SOL     OW17215   2.412   3.920   4.609
 5550SOL    HW117216   2.407   3.915   4.709
 5550SOL    HW217217   2.414   4.016   4.580
 5551SOL     OW17218   3.320   4.459   4.452
 5551SOL    HW117219   3.315   4.394   4.527
 5551SOL    HW217220   3.400   4.518   4.465
 5552SOL     OW17221   2.064   4.009   5.222
 5552SOL    HW117222   1.984   4.069   5.209
 5552SOL    HW217223   2.054   3.960   5.308
 5553SOL     OW17224   3.262   3.831   4.150
 5553SOL    HW117225   3.238   3.794   4.060
 5553SOL    HW217226   3.361   3.847   4.154
 5554SOL     OW17227   2.244   4.424   4.204
 5554SOL    HW117228   2.289   4.334   4.201
 5554SOL    HW217229   2.150   4.413   4.237
 5555SOL     OW17230   3.409   3.946   5.453
 5555SOL    HW117231   3.404   3.983   5.545
 5555SOL    HW217232   3.337   3.877   5.441
 5556SOL     OW17233   2.476   3.846   3.841
 5556SOL    HW117234   2.574   3.824   3.848
 5556SOL    HW217235   2.445   3.829   3.748
 5557SOL     OW17236   2.643   3.988   5.473
 5557SOL    HW117237   2.710   3.927   5.516
 5557SOL    HW217238   2.570   4.007   5.538
 5558SOL     OW17239   3.213   4.314   5.157
 5558SOL    HW117240   3.241   4.271   5.242
 5558SOL    HW217241   3.238   4.410   5.158
 5559SOL     OW17242   2.784   4.227   4.623
 5559SOL    HW117243   2.759   4.218   4.527
 5559SOL    HW217244   2.832   4.145   4.654
 5560SOL     OW17245   2.401   3.788   4.236
 5560SOL    HW117246   2.320   3.789   4.294
 5560SOL    HW217247   2.404   3.871   4.181
 5561SOL     OW17248   2.159   3.759   3.895
 5561SOL    HW117249   2.208   3.843   3.874
 5561SOL    HW217250   2.221   3.694   3.940
 5562SOL     OW17251   2.797   3.960   4.204
 5562SOL    HW117252   2.749   4.001   4.126
 5562SOL    HW217253   2.896   3.958   4.185
 5563SOL     OW17254   2.938   4.407   5.188
 5563SOL    HW117255   2.858   4.346   5.191
 5563SOL    HW217256   3.019   4.354   5.164
 5564SOL     OW17257   2.894   4.273   3.740
 5564SOL    HW117258   2.853   4.355   3.701
 5564SOL    HW217259   2.958   4.299   3.813
 5565SOL     OW17260   1.940   4.280   5.110
 5565SOL    HW117261   2.032   4.279   5.069
 5565SOL    HW217262   1.934   4.354   5.177
 5566SOL     OW17263   2.423   3.946   4.871
 5566SOL    HW117264   2.461   3.862   4.908
 5566SOL    HW217265   2.335   3.965   4.915
 5567SOL     OW17266   2.728   4.178   4.366
 5567SOL    HW117267   2.696   4.250   4.304
 5567SOL    HW217268   2.752   4.097   4.313
 5568SOL     OW17269   2.879   3.763   4.477
 5568SOL    HW117270   2.807   3.768   4.408
 5568SOL    HW217271   2.855   3.694   4.546
 5569SOL     OW17272   3.328   4.314   4.716
 5569SOL    HW117273   3.298   4.219   4.723
 5569SOL    HW217274   3.401   4.330   4.782
 5570SOL     OW17275   3.252   4.299   3.802
 5570SOL    HW117276   3.198   4.278   3.883
 5570SOL    HW217277   3.343   4.258   3.811
 5571SOL     OW17278   2.389   3.980   4.052
 5571SOL    HW117279   2.416   3.921   3.977
 5571SOL    HW217280   2.389   4.075   4.021
 5572SOL     OW17281   2.777   3.813   5.126
 5572SOL    HW117282   2.802   3.793   5.031
 5572SOL    HW217283   2.849   3.869   5.168
 5573SOL     OW17284   2.272   4.537   4.975
 5573SOL    HW117285   2.358   4.549   5.025
 5573SOL    HW217286   2.230   4.450   5.002
 5574SOL     OW17287   3.136   4.110   4.986
 5574SOL    HW117288   3.157   4.184   5.050
 5574SOL    HW217289   3.047   4.127   4.943
 5575SOL     OW17290   2.428   4.261   4.589
 5575SOL    HW117291   2.440   4.327   4.515
 5575SOL    HW217292   2.474   4.295   4.672
 5576SOL     OW17293   3.444   4.363   4.196
 5576SOL    HW117294   3.413   4.424   4.269
 5576SOL    HW217295   3.494   4.415   4.127
 5577SOL     OW17296   2.875   3.829   5.494
 5577SOL    HW117297   2.881   3.914   5.442
 5577SOL    HW217298   2.907   3.753   5.437
 5578SOL     OW17299   2.366   3.774   5.464
 5578SOL    HW117300   2.324   3.717   5.394
 5578SOL    HW217301   2.300   3.843   5.496
 5579SOL     OW17302   3.071   4.249   3.999
 5579SOL    HW117303   3.084   4.165   4.053
 5579SOL    HW217304   3.042   4.323   4.059
 5580SOL     OW17305   2.169   3.937   4.955
 5580SOL    HW117306   2.146   3.974   5.045
 5580SOL    HW217307   2.139   3.842   4.949
 5581SOL     OW17308   2.594   4.358   4.788
 5581SOL    HW117309   2.653   4.332   4.712
 5581SOL    HW217310   2.566   4.454   4.777
 5582SOL     OW17311   3.590   4.659   5.578
 5582SOL    HW117312   3.544   4.652   5.489
 5582SOL    HW217313   3.528   4.703   5.644
 5583SOL     OW17314   2.169   3.787   4.342
 5583SOL    HW117315   2.158   3.881   4.375
 5583SOL    HW217316   2.164   3.724   4.419
 5584SOL     OW17317   3.484   4.091   4.098
 5584SOL    HW117318   3.486   4.015   4.162
 5584SOL    HW217319   3.436   4.168   4.138
 5585SOL     OW17320   3.402   3.998   3.849
 5585SOL    HW117321   3.341   3.923   3.872
 5585SOL    HW217322   3.424   4.050   3.932
 5586SOL     OW17323   2.181   4.534   4.673
 5586SOL    HW117324   2.274   4.570   4.678
 5586SOL    HW217325   2.175   4.449   4.725
 5587SOL     OW17326   2.201   4.233   4.730
 5587SOL    HW117327   2.149   4.150   4.713
 5587SOL    HW217328   2.278   4.238   4.666
 5588SOL     OW17329   3.000   4.104   5.402
 5588SOL    HW117330   2.955   4.167   5.466
 5588SOL    HW217331   3.093   4.135   5.385
 5589SOL     OW17332   3.022   3.931   5.201
 5589SOL    HW117333   3.022   3.995   5.278
 5589SOL    HW217334   3.050   3.979   5.118
 5590SOL     OW17335   1.902   4.268   4.838
 5590SOL    HW117336   1.987   4.235   4.797
 5590SOL    HW217337   1.915   4.283   4.936
 5591SOL     OW17338   2.051   4.244   5.446
 5591SOL    HW117339   2.110   4.204   5.376
 5591SOL    HW217340   1.993   4.315   5.405
 5592SOL     OW17341   2.677   4.296   4.049
 5592SOL    HW117342   2.684   4.207   4.003
 5592SOL    HW217343   2.583   4.330   4.041
 5593SOL     OW17344   3.519   4.328   4.930
 5593SOL    HW117345   3.481   4.259   4.992
 5593SOL    HW217346   3.601   4.292   4.886
 5594SOL     OW17347   2.533   4.188   4.993
 5594SOL    HW117348   2.499   4.099   4.963
 5594SOL    HW217349   2.559   4.242   4.913
 5595SOL     OW17350   2.335   4.224   3.915
 5595SOL    HW117351   2.396   4.304   3.919
 5595SOL    HW217352   2.240   4.255   3.922
 5596SOL     OW17353   3.588   3.859   4.247
 5596SOL    HW117354   3.661   3.842   4.180
 5596SOL    HW217355   3.557   3.772   4.285
 5597SOL     OW17356   3.142   4.651   4.396
 5597SOL    HW117357   3.202   4.570   4.398
 5597SOL    HW217358   3.182   4.720   4.336
 5598SOL     OW17359   3.703   3.899   4.687
 5598SOL    HW117360   3.742   3.814   4.651
 5598SOL    HW217361   3.605   3.901   4.668
 5599SOL     OW17362   2.125   4.050   4.444
 5599SOL    HW117363   2.046   4.101   4.410
 5599SOL    HW217364   2.116   4.035   4.542
 5600SOL     OW17365   2.778   4.634   4.015
 5600SOL    HW117366   2.841   4.672   3.947
 5600SOL    HW217367   2.818   4.551   4.054
 5601SOL     OW17368   2.901   4.822   4.420
 5601SOL    HW117369   2.831   4.775   4.474
 5601SOL    HW217370   2.960   4.754   4.377
 5602SOL     OW17371   2.876   3.960   4.695
 5602SOL    HW117372   2.868   3.924   4.602
 5602SOL    HW217373   2.874   3.884   4.760
 5603SOL     OW17374   3.571   4.109   5.105
 5603SOL    HW117375   3.644   4.178   5.109
 5603SOL    HW217376   3.599   4.034   5.046
 5604SOL     OW17377   2.534   3.927   5.213
 5604SOL    HW117378   2.624   3.911   5.173
 5604SOL    HW217379   2.542   3.932   5.312
 5605SOL     OW17380   1.937   4.069   3.757
 5605SOL    HW117381   1.845   4.041   3.728
 5605SOL    HW217382   1.968   4.146   3.701
 5606SOL     OW17383   1.934   3.890   4.042
 5606SOL    HW117384   1.917   3.973   3.988
 5606SOL    HW217385   2.024   3.853   4.020
 5607SOL     OW17386   2.578   4.289   5.432
 5607SOL    HW117387   2.597   4.354   5.506
 5607SOL    HW217388   2.638   4.209   5.441
 5608SOL     OW17389   3.087   4.049   4.173
 5608SOL    HW117390   3.152   3.975   4.162
 5608SOL    HW217391   3.107   4.099   4.257
 5609SOL     OW17392   3.639   4.066   5.366
 5609SOL    HW117393   3.622   4.097   5.272
 5609SOL    HW217394   3.555   4.029   5.404
 5610SOL     OW17395   2.945   4.708   3.811
 5610SOL    HW117396   2.922   4.761   3.729
 5610SOL    HW217397   3.026   4.652   3.792
 5611SOL     OW17398   3.686   3.916   4.951
 5611SOL    HW117399   3.682   3.826   4.995
 5611SOL    HW217400   3.689   3.905   4.852
 5612SOL     OW17401   2.290   4.148   4.244
 5612SOL    HW117402   2.320   4.076   4.182
 5612SOL    HW217403   2.251   4.108   4.327
 5613SOL     OW17404   2.179   4.271   5.004
 5613SOL    HW117405   2.217   4.212   5.076
 5613SOL    HW217406   2.219   4.245   4.916
 5614SOL     OW17407   3.286   3.938   4.836
 5614SOL    HW117408   3.338   3.873   4.891
 5614SOL    HW217409   3.237   4.001   4.897
 5615SOL     OW17410   2.863   3.758   4.878
 5615SOL    HW117411   2.800   3.686   4.847
 5615SOL    HW217412   2.956   3.722   4.878
 5616SOL     OW17413   3.214   3.776   3.892
 5616SOL    HW117414   3.249   3.735   3.808
 5616SOL    HW217415   3.124   3.738   3.912
 5617SOL     OW17416   3.162   4.177   4.415
 5617SOL    HW117417   3.103   4.257   4.419
 5617SOL    HW217418   3.177   4.142   4.508
 5618SOL     OW17419   3.455   3.945   4.606
 5618SOL    HW117420   3.371   3.944   4.660
 5618SOL    HW217421   3.457   4.028   4.550
 5619SOL     OW17422   2.092   4.352   5.699
 5619SOL    HW117423   1.999   4.350   5.736
 5619SOL    HW217424   2.093   4.313   5.607
 5620SOL     OW17425   2.087   3.999   6.582
 5620SOL    HW117426   2.122   3.982   6.674
 5620SOL    HW217427   1.999   3.954   6.570
 5621SOL     OW17428   1.881   4.092   6.233
 5621SOL    HW117429   1.799   4.135   6.272
 5621SOL    HW217430   1.853   4.019   6.170
 5622SOL     OW17431   3.617   4.331   5.817
 5622SOL    HW117432   3.605   4.318   5.718
 5622SOL    HW217433   3.587   4.250   5.866
 5623SOL     OW17434   2.547   4.736   6.251
 5623SOL    HW117435   2.616   4.720   6.321
 5623SOL    HW217436   2.474   4.793   6.289
 5624SOL     OW17437   2.300   4.116   7.085
 5624SOL    HW117438   2.382   4.060   7.094
 5624SOL    HW217439   2.219   4.058   7.089
 5625SOL     OW17440   3.465   4.171   6.323
 5625SOL    HW117441   3.391   4.217   6.273
 5625SOL    HW217442   3.516   4.239   6.376
 5626SOL     OW17443   3.456   3.838   7.066
 5626SOL    HW117444   3.438   3.905   6.994
 5626SOL    HW217445   3.453   3.884   7.155
 5627SOL     OW17446   1.984   4.367   6.149
 5627SOL    HW117447   1.939   4.279   6.166
 5627SOL    HW217448   1.983   4.421   6.233
 5628SOL     OW17449   1.975   4.461   7.183
 5628SOL    HW117450   2.063   4.448   7.228
 5628SOL    HW217451   1.962   4.558   7.161
 5629SOL     OW17452   2.671   3.728   6.088
 5629SOL    HW117453   2.711   3.819   6.079
 5629SOL    HW217454   2.571   3.736   6.094
 5630SOL     OW17455   2.179   3.975   7.387
 5630SOL    HW117456   2.250   4.046   7.393
 5630SOL    HW217457   2.091   4.014   7.415
 5631SOL     OW17458   3.143   4.069   6.530
 5631SOL    HW117459   3.057   4.019   6.517
 5631SOL    HW217460   3.205   4.015   6.586
 5632SOL     OW17461   2.669   4.329   7.051
 5632SOL    HW117462   2.622   4.326   7.140
 5632SOL    HW217463   2.618   4.274   6.985
 5633SOL     OW17464   3.256   4.193   7.260
 5633SOL    HW117465   3.236   4.236   7.348
 5633SOL    HW217466   3.334   4.131   7.269
 5634SOL     OW17467   2.853   4.134   6.828
 5634SOL    HW117468   2.776   4.168   6.882
 5634SOL    HW217469   2.819   4.083   6.749
 5635SOL     OW17470   2.903   4.425   6.015
 5635SOL    HW117471   2.929   4.421   6.111
 5635SOL    HW217472   2.818   4.374   6.001
 5636SOL     OW17473   2.727   4.072   5.781
 5636SOL    HW117474   2.786   4.135   5.732
 5636SOL    HW217475   2.746   3.978   5.752
 5637SOL     OW17476   3.581   4.309   7.417
 5637SOL    HW117477   3.555   4.398   7.381
 5637SOL    HW217478   3.579   4.241   7.344
 5638SOL     OW17479   2.412   3.920   6.471
 5638SOL    HW117480   2.407   3.915   6.571
 5638SOL    HW217481   2.414   4.016   6.442
 5639SOL     OW17482   3.320   4.459   6.314
 5639SOL    HW117483   3.315   4.394   6.389
 5639SOL    HW217484   3.400   4.518   6.327
 5640SOL     OW17485   2.064   4.009   7.084
 5640SOL    HW117486   1.984   4.069   7.071
 5640SOL    HW217487   2.054   3.960   7.170
 5641SOL     OW17488   3.262   3.831   6.012
 5641SOL    HW117489   3.238   3.794   5.922
 5641SOL    HW217490   3.361   3.847   6.016
 5642SOL     OW17491   2.244   4.424   6.066
 5642SOL    HW117492   2.289   4.334   6.063
 5642SOL    HW217493   2.150   4.413   6.099
 5643SOL     OW17494   3.409   3.946   7.315
 5643SOL    HW117495   3.404   3.983   7.407
 5643SOL    HW217496   3.337   3.877   7.303
 5644SOL     OW17497   2.476   3.846   5.703
 5644SOL    HW117498   2.574   3.824   5.710
 5644SOL    HW217499   2.445   3.829   5.610
 5645SOL     OW17500   2.643   3.988   7.335
 5645SOL    HW117501   2.710   3.927   7.378
 5645SOL    HW217502   2.570   4.007   7.400
 5646SOL     OW17503   3.213   4.314   7.019
 5646SOL    HW117504   3.241   4.271   7.104
 5646SOL    HW217505   3.238   4.410   7.020
 5647SOL     OW17506   2.784   4.227   6.485
 5647SOL    HW117507   2.759   4.218   6.389
 5647SOL    HW217508   2.832   4.145   6.516
 5648SOL     OW17509   2.401   3.788   6.098
 5648SOL    HW117510   2.320   3.789   6.156
 5648SOL    HW217511   2.404   3.871   6.043
 5649SOL     OW17512   2.159   3.759   5.757
 5649SOL    HW117513   2.208   3.843   5.736
 5649SOL    HW217514   2.221   3.694   5.802
 5650SOL     OW17515   2.797   3.960   6.066
 5650SOL    HW117516   2.749   4.001   5.988
 5650SOL    HW217517   2.896   3.958   6.047
 5651SOL     OW17518   2.938   4.407   7.050
 5651SOL    HW117519   2.858   4.346   7.053
 5651SOL    HW217520   3.019   4.354   7.026
 5652SOL     OW17521   2.894   4.273   5.602
 5652SOL    HW117522   2.853   4.355   5.563
 5652SOL    HW217523   2.958   4.299   5.675
 5653SOL     OW17524   1.940   4.280   6.972
 5653SOL    HW117525   2.032   4.279   6.931
 5653SOL    HW217526   1.934   4.354   7.039
 5654SOL     OW17527   2.423   3.946   6.733
 5654SOL    HW117528   2.461   3.862   6.770
 5654SOL    HW217529   2.335   3.965   6.777
 5655SOL     OW17530   2.728   4.178   6.228
 5655SOL    HW117531   2.696   4.250   6.166
 5655SOL    HW217532   2.752   4.097   6.175
 5656SOL     OW17533   2.879   3.763   6.339
 5656SOL    HW117534   2.807   3.768   6.270
 5656SOL    HW217535   2.855   3.694   6.408
 5657SOL     OW17536   3.328   4.314   6.578
 5657SOL    HW117537   3.298   4.219   6.585
 5657SOL    HW217538   3.401   4.330   6.644
 5658SOL     OW17539   3.252   4.299   5.664
 5658SOL    HW117540   3.198   4.278   5.745
 5658SOL    HW217541   3.343   4.258   5.673
 5659SOL     OW17542   2.389   3.980   5.914
 5659SOL    HW117543   2.416   3.921   5.839
 5659SOL    HW217544   2.389   4.075   5.883
 5660SOL     OW17545   2.777   3.813   6.988
 5660SOL    HW117546   2.802   3.793   6.893
 5660SOL    HW217547   2.849   3.869   7.030
 5661SOL     OW17548   2.272   4.537   6.837
 5661SOL    HW117549   2.358   4.549   6.887
 5661SOL    HW217550   2.230   4.450   6.864
 5662SOL     OW17551   3.136   4.110   6.848
 5662SOL    HW117552   3.157   4.184   6.912
 5662SOL    HW217553   3.047   4.127   6.805
 5663SOL     OW17554   2.428   4.261   6.451
 5663SOL    HW117555   2.440   4.327   6.377
 5663SOL    HW217556   2.474   4.295   6.534
 5664SOL     OW17557   3.444   4.363   6.058
 5664SOL    HW117558   3.413   4.424   6.131
 5664SOL    HW217559   3.494   4.415   5.989
 5665SOL     OW17560   2.875   3.829   7.356
 5665SOL    HW117561   2.881   3.914   7.304
 5665SOL    HW217562   2.907   3.753   7.299
 5666SOL     OW17563   2.366   3.774   7.326
 5666SOL    HW117564   2.324   3.717   7.256
 5666SOL    HW217565   2.300   3.843   7.358
 5667SOL     OW17566   3.071   4.249   5.861
 5667SOL    HW117567   3.084   4.165   5.915
 5667SOL    HW217568   3.042   4.323   5.921
 5668SOL     OW17569   2.169   3.937   6.817
 5668SOL    HW117570   2.146   3.974   6.907
 5668SOL    HW217571   2.139   3.842   6.811
 5669SOL     OW17572   2.594   4.358   6.650
 5669SOL    HW117573   2.653   4.332   6.574
 5669SOL    HW217574   2.566   4.454   6.639
 5670SOL     OW17575   3.590   4.659   7.440
 5670SOL    HW117576   3.544   4.652   7.351
 5670SOL    HW217577   3.528   4.703   7.506
 5671SOL     OW17578   2.169   3.787   6.204
 5671SOL    HW117579   2.158   3.881   6.237
 5671SOL    HW217580   2.164   3.724   6.281
 5672SOL     OW17581   3.484   4.091   5.960
 5672SOL    HW117582   3.486   4.015   6.024
 5672SOL    HW217583   3.436   4.168   6.000
 5673SOL     OW17584   3.402   3.998   5.711
 5673SOL    HW117585   3.341   3.923   5.734
 5673SOL    HW217586   3.424   4.050   5.794
 5674SOL     OW17587   2.181   4.534   6.535
 5674SOL    HW117588   2.274   4.570   6.540
 5674SOL    HW217589   2.175   4.449   6.587
 5675SOL     OW17590   2.201   4.233   6.592
 5675SOL    HW117591   2.149   4.150   6.575
 5675SOL    HW217592   2.278   4.238   6.528
 5676SOL     OW17593   3.000   4.104   7.264
 5676SOL    HW117594   2.955   4.167   7.328
 5676SOL    HW217595   3.093   4.135   7.247
 5677SOL     OW17596   3.022   3.931   7.063
 5677SOL    HW117597   3.022   3.995   7.140
 5677SOL    HW217598   3.050   3.979   6.980
 5678SOL     OW17599   1.902   4.268   6.700
 5678SOL    HW117600   1.987   4.235   6.659
 5678SOL    HW217601   1.915   4.283   6.798
 5679SOL     OW17602   2.051   4.244   7.308
 5679SOL    HW117603   2.110   4.204   7.238
 5679SOL    HW217604   1.993   4.315   7.267
 5680SOL     OW17605   2.677   4.296   5.911
 5680SOL    HW117606   2.684   4.207   5.865
 5680SOL    HW217607   2.583   4.330   5.903
 5681SOL     OW17608   3.519   4.328   6.792
 5681SOL    HW117609   3.481   4.259   6.854
 5681SOL    HW217610   3.601   4.292   6.748
 5682SOL     OW17611   2.533   4.188   6.855
 5682SOL    HW117612   2.499   4.099   6.825
 5682SOL    HW217613   2.559   4.242   6.775
 5683SOL     OW17614   2.335   4.224   5.777
 5683SOL    HW117615   2.396   4.304   5.781
 5683SOL    HW217616   2.240   4.255   5.784
 5684SOL     OW17617   3.588   3.859   6.109
 5684SOL    HW117618   3.661   3.842   6.042
 5684SOL    HW217619   3.557   3.772   6.147
 5685SOL     OW17620   3.142   4.651   6.258
 5685SOL    HW117621   3.202   4.570   6.260
 5685SOL    HW217622   3.182   4.720   6.198
 5686SOL     OW17623   3.703   3.899   6.549
 5686SOL    HW117624   3.742   3.814   6.513
 5686SOL    HW217625   3.605   3.901   6.530
 5687SOL     OW17626   2.125   4.050   6.306
 5687SOL    HW117627   2.046   4.101   6.272
 5687SOL    HW217628   2.116   4.035   6.404
 5688SOL     OW17629   2.778   4.634   5.877
 5688SOL    HW117630   2.841   4.672   5.809
 5688SOL    HW217631   2.818   4.551   5.916
 5689SOL     OW17632   2.901   4.822   6.282
 5689SOL    HW117633   2.831   4.775   6.336
 5689SOL    HW217634   2.960   4.754   6.239
 5690SOL     OW17635   2.876   3.960   6.557
 5690SOL    HW117636   2.868   3.924   6.464
 5690SOL    HW217637   2.874   3.884   6.622
 5691SOL     OW17638   3.571   4.109   6.967
 5691SOL    HW117639   3.644   4.178   6.971
 5691SOL    HW217640   3.599   4.034   6.908
 5692SOL     OW17641   2.534   3.927   7.075
 5692SOL    HW117642   2.624   3.911   7.035
 5692SOL    HW217643   2.542   3.932   7.174
 5693SOL     OW17644   1.937   4.069   5.619
 5693SOL    HW117645   1.845   4.041   5.590
 5693SOL    HW217646   1.968   4.146   5.563
 5694SOL     OW17647   1.934   3.890   5.904
 5694SOL    HW117648   1.917   3.973   5.850
 5694SOL    HW217649   2.024   3.853   5.882
 5695SOL     OW17650   2.578   4.289   7.294
 5695SOL    HW117651   2.597   4.354   7.368
 5695SOL    HW217652   2.638   4.209   7.303
 5696SOL     OW17653   3.087   4.049   6.035
 5696SOL    HW117654   3.152   3.975   6.024
 5696SOL    HW217655   3.107   4.099   6.119
 5697SOL     OW17656   3.639   4.066   7.228
 5697SOL    HW117657   3.622   4.097   7.134
 5697SOL    HW217658   3.555   4.029   7.266
 5698SOL     OW17659   2.945   4.708   5.673
 5698SOL    HW117660   2.922   4.761   5.591
 5698SOL    HW217661   3.026   4.652   5.654
 5699SOL     OW17662   3.686   3.916   6.813
 5699SOL    HW117663   3.682   3.826   6.857
 5699SOL    HW217664   3.689   3.905   6.714
 5700SOL     OW17665   2.290   4.148   6.106
 5700SOL    HW117666   2.320   4.076   6.044
 5700SOL    HW217667   2.251   4.108   6.189
 5701SOL     OW17668   2.179   4.271   6.866
 5701SOL    HW117669   2.217   4.212   6.938
 5701SOL    HW217670   2.219   4.245   6.778
 5702SOL     OW17671   3.286   3.938   6.698
 5702SOL    HW117672   3.338   3.873   6.753
 5702SOL    HW217673   3.237   4.001   6.759
 5703SOL     OW17674   2.863   3.758   6.740
 5703SOL    HW117675   2.800   3.686   6.709
 5703SOL    HW217676   2.956   3.722   6.740
 5704SOL     OW17677   3.214   3.776   5.754
 5704SOL    HW117678   3.249   3.735   5.670
 5704SOL    HW217679   3.124   3.738   5.774
 5705SOL     OW17680   3.162   4.177   6.277
 5705SOL    HW117681   3.103   4.257   6.281
 5705SOL    HW217682   3.177   4.142   6.370
 5706SOL     OW17683   3.455   3.945   6.468
 5706SOL    HW117684   3.371   3.944   6.522
 5706SOL    HW217685   3.457   4.028   6.412
 5707SOL     OW17686   2.092   4.352   7.561
 5707SOL    HW117687   1.999   4.350   7.598
 5707SOL    HW217688   2.093   4.313   7.469
 5708SOL     OW17689   2.087   3.999   8.444
 5708SOL    HW117690   2.122   3.982   8.536
 5708SOL    HW217691   1.999   3.954   8.432
 5709SOL     OW17692   1.881   4.092   8.095
 5709SOL    HW117693   1.799   4.135   8.134
 5709SOL    HW217694   1.853   4.019   8.032
 5710SOL     OW17695   3.617   4.331   7.679
 5710SOL    HW117696   3.605   4.318   7.580
 5710SOL    HW217697   3.587   4.250   7.728
 5711SOL     OW17698   2.547   4.736   8.113
 5711SOL    HW117699   2.616   4.720   8.183
 5711SOL    HW217700   2.474   4.793   8.151
 5712SOL     OW17701   2.300   4.116   8.947
 5712SOL    HW117702   2.382   4.060   8.956
 5712SOL    HW217703   2.219   4.058   8.951
 5713SOL     OW17704   3.465   4.171   8.185
 5713SOL    HW117705   3.391   4.217   8.135
 5713SOL    HW217706   3.516   4.239   8.238
 5714SOL     OW17707   3.456   3.838   8.928
 5714SOL    HW117708   3.438   3.905   8.856
 5714SOL    HW217709   3.453   3.884   9.017
 5715SOL     OW17710   1.984   4.367   8.011
 5715SOL    HW117711   1.939   4.279   8.028
 5715SOL    HW217712   1.983   4.421   8.095
 5716SOL     OW17713   1.975   4.461   9.045
 5716SOL    HW117714   2.063   4.448   9.090
 5716SOL    HW217715   1.962   4.558   9.023
 5717SOL     OW17716   2.671   3.728   7.950
 5717SOL    HW117717   2.711   3.819   7.941
 5717SOL    HW217718   2.571   3.736   7.956
 5718SOL     OW17719   2.179   3.975   9.249
 5718SOL    HW117720   2.250   4.046   9.255
 5718SOL    HW217721   2.091   4.014   9.277
 5719SOL     OW17722   3.143   4.069   8.392
 5719SOL    HW117723   3.057   4.019   8.379
 5719SOL    HW217724   3.205   4.015   8.448
 5720SOL     OW17725   2.669   4.329   8.913
 5720SOL    HW117726   2.622   4.326   9.002
 5720SOL    HW217727   2.618   4.274   8.847
 5721SOL     OW17728   3.256   4.193   9.122
 5721SOL    HW117729   3.236   4.236   9.210
 5721SOL    HW217730   3.334   4.131   9.131
 5722SOL     OW17731   2.853   4.134   8.690
 5722SOL    HW117732   2.776   4.168   8.744
 5722SOL    HW217733   2.819   4.083   8.611
 5723SOL     OW17734   2.903   4.425   7.877
 5723SOL    HW117735   2.929   4.421   7.973
 5723SOL    HW217736   2.818   4.374   7.863
 5724SOL     OW17737   2.727   4.072   7.643
 5724SOL    HW117738   2.786   4.135   7.594
 5724SOL    HW217739   2.746   3.978   7.614
 5725SOL     OW17740   3.581   4.309   9.279
 5725SOL    HW117741   3.555   4.398   9.243
 5725SOL    HW217742   3.579   4.241   9.206
 5726SOL     OW17743   2.412   3.920   8.333
 5726SOL    HW117744   2.407   3.915   8.433
 5726SOL    HW217745   2.414   4.016   8.304
 5727SOL     OW17746   3.320   4.459   8.176
 5727SOL    HW117747   3.315   4.394   8.251
 5727SOL    HW217748   3.400   4.518   8.189
 5728SOL     OW17749   2.064   4.009   8.946
 5728SOL    HW117750   1.984   4.069   8.933
 5728SOL    HW217751   2.054   3.960   9.032
 5729SOL     OW17752   3.262   3.831   7.874
 5729SOL    HW117753   3.238   3.794   7.784
 5729SOL    HW217754   3.361   3.847   7.878
 5730SOL     OW17755   2.244   4.424   7.928
 5730SOL    HW117756   2.289   4.334   7.925
 5730SOL    HW217757   2.150   4.413   7.961
 5731SOL     OW17758   3.409   3.946   9.177
 5731SOL    HW117759   3.404   3.983   9.269
 5731SOL    HW217760   3.337   3.877   9.165
 5732SOL     OW17761   2.476   3.846   7.565
 5732SOL    HW117762   2.574   3.824   7.572
 5732SOL    HW217763   2.445   3.829   7.472
 5733SOL     OW17764   2.643   3.988   9.197
 5733SOL    HW117765   2.710   3.927   9.240
 5733SOL    HW217766   2.570   4.007   9.262
 5734SOL     OW17767   3.213   4.314   8.881
 5734SOL    HW117768   3.241   4.271   8.966
 5734SOL    HW217769   3.238   4.410   8.882
 5735SOL     OW17770   2.784   4.227   8.347
 5735SOL    HW117771   2.759   4.218   8.251
 5735SOL    HW217772   2.832   4.145   8.378
 5736SOL     OW17773   2.401   3.788   7.960
 5736SOL    HW117774   2.320   3.789   8.018
 5736SOL    HW217775   2.404   3.871   7.905
 5737SOL     OW17776   2.159   3.759   7.619
 5737SOL    HW117777   2.208   3.843   7.598
 5737SOL    HW217778   2.221   3.694   7.664
 5738SOL     OW17779   2.797   3.960   7.928
 5738SOL    HW117780   2.749   4.001   7.850
 5738SOL    HW217781   2.896   3.958   7.909
 5739SOL     OW17782   2.938   4.407   8.912
 5739SOL    HW117783   2.858   4.346   8.915
 5739SOL    HW217784   3.019   4.354   8.888
 5740SOL     OW17785   2.894   4.273   7.464
 5740SOL    HW117786   2.853   4.355   7.425
 5740SOL    HW217787   2.958   4.299   7.537
 5741SOL     OW17788   1.940   4.280   8.834
 5741SOL    HW117789   2.032   4.279   8.793
 5741SOL    HW217790   1.934   4.354   8.901
 5742SOL     OW17791   2.423   3.946   8.595
 5742SOL    HW117792   2.461   3.862   8.632
 5742SOL    HW217793   2.335   3.965   8.639
 5743SOL     OW17794   2.728   4.178   8.090
 5743SOL    HW117795   2.696   4.250   8.028
 5743SOL    HW217796   2.752   4.097   8.037
 5744SOL     OW17797   2.879   3.763   8.201
 5744SOL    HW117798   2.807   3.768   8.132
 5744SOL    HW217799   2.855   3.694   8.270
 5745SOL     OW17800   3.328   4.314   8.440
 5745SOL    HW117801   3.298   4.219   8.447
 5745SOL    HW217802   3.401   4.330   8.506
 5746SOL     OW17803   3.252   4.299   7.526
 5746SOL    HW117804   3.198   4.278   7.607
 5746SOL    HW217805   3.343   4.258   7.535
 5747SOL     OW17806   2.389   3.980   7.776
 5747SOL    HW117807   2.416   3.921   7.701
 5747SOL    HW217808   2.389   4.075   7.745
 5748SOL     OW17809   2.777   3.813   8.850
 5748SOL    HW117810   2.802   3.793   8.755
 5748SOL    HW217811   2.849   3.869   8.892
 5749SOL     OW17812   2.272   4.537   8.699
 5749SOL    HW117813   2.358   4.549   8.749
 5749SOL    HW217814   2.230   4.450   8.726
 5750SOL     OW17815   3.136   4.110   8.710
 5750SOL    HW117816   3.157   4.184   8.774
 5750SOL    HW217817   3.047   4.127   8.667
 5751SOL     OW17818   2.428   4.261   8.313
 5751SOL    HW117819   2.440   4.327   8.239
 5751SOL    HW217820   2.474   4.295   8.396
 5752SOL     OW17821   3.444   4.363   7.920
 5752SOL    HW117822   3.413   4.424   7.993
 5752SOL    HW217823   3.494   4.415   7.851
 5753SOL     OW17824   2.875   3.829   9.218
 5753SOL    HW117825   2.881   3.914   9.166
 5753SOL    HW217826   2.907   3.753   9.161
 5754SOL     OW17827   2.366   3.774   9.188
 5754SOL    HW117828   2.324   3.717   9.118
 5754SOL    HW217829   2.300   3.843   9.220
 5755SOL     OW17830   3.071   4.249   7.723
 5755SOL    HW117831   3.084   4.165   7.777
 5755SOL    HW217832   3.042   4.323   7.783
 5756SOL     OW17833   2.169   3.937   8.679
 5756SOL    HW117834   2.146   3.974   8.769
 5756SOL    HW217835   2.139   3.842   8.673
 5757SOL     OW17836   2.594   4.358   8.512
 5757SOL    HW117837   2.653   4.332   8.436
 5757SOL    HW217838   2.566   4.454   8.501
 5758SOL     OW17839   3.590   4.659   9.302
 5758SOL    HW117840   3.544   4.652   9.213
 5758SOL    HW217841   3.528   4.703   9.368
 5759SOL     OW17842   2.169   3.787   8.066
 5759SOL    HW117843   2.158   3.881   8.099
 5759SOL    HW217844   2.164   3.724   8.143
 5760SOL     OW17845   3.484   4.091   7.822
 5760SOL    HW117846   3.486   4.015   7.886
 5760SOL    HW217847   3.436   4.168   7.862
 5761SOL     OW17848   3.402   3.998   7.573
 5761SOL    HW117849   3.341   3.923   7.596
 5761SOL    HW217850   3.424   4.050   7.656
 5762SOL     OW17851   2.181   4.534   8.397
 5762SOL    HW117852   2.274   4.570   8.402
 5762SOL    HW217853   2.175   4.449   8.449
 5763SOL     OW17854   2.201   4.233   8.454
 5763SOL    HW117855   2.149   4.150   8.437
 5763SOL    HW217856   2.278   4.238   8.390
 5764SOL     OW17857   3.000   4.104   9.126
 5764SOL    HW117858   2.955   4.167   9.190
 5764SOL    HW217859   3.093   4.135   9.109
 5765SOL     OW17860   3.022   3.931   8.925
 5765SOL    HW117861   3.022   3.995   9.002
 5765SOL    HW217862   3.050   3.979   8.842
 5766SOL     OW17863   1.902   4.268   8.562
 5766SOL    HW117864   1.987   4.235   8.521
 5766SOL    HW217865   1.915   4.283   8.660
 5767SOL     OW17866   2.051   4.244   9.170
 5767SOL    HW117867   2.110   4.204   9.100
 5767SOL    HW217868   1.993   4.315   9.129
 5768SOL     OW17869   2.677   4.296   7.773
 5768SOL    HW117870   2.684   4.207   7.727
 5768SOL    HW217871   2.583   4.330   7.765
 5769SOL     OW17872   3.519   4.328   8.654
 5769SOL    HW117873   3.481   4.259   8.716
 5769SOL    HW217874   3.601   4.292   8.610
 5770SOL     OW17875   2.533   4.188   8.717
 5770SOL    HW117876   2.499   4.099   8.687
 5770SOL    HW217877   2.559   4.242   8.637
 5771SOL     OW17878   2.335   4.224   7.639
 5771SOL    HW117879   2.396   4.304   7.643
 5771SOL    HW217880   2.240   4.255   7.646
 5772SOL     OW17881   3.588   3.859   7.971
 5772SOL    HW117882   3.661   3.842   7.904
 5772SOL    HW217883   3.557   3.772   8.009
 5773SOL     OW17884   3.142   4.651   8.120
 5773SOL    HW117885   3.202   4.570   8.122
 5773SOL    HW217886   3.182   4.720   8.060
 5774SOL     OW17887   3.703   3.899   8.411
 5774SOL    HW117888   3.742   3.814   8.375
 5774SOL    HW217889   3.605   3.901   8.392
 5775SOL     OW17890   2.125   4.050   8.168
 5775SOL    HW117891   2.046   4.101   8.134
 5775SOL    HW217892   2.116   4.035   8.266
 5776SOL     OW17893   2.778   4.634   7.739
 5776SOL    HW117894   2.841   4.672   7.671
 5776SOL    HW217895   2.818   4.551   7.778
 5777SOL     OW17896   2.901   4.822   8.144
 5777SOL    HW117897   2.831   4.775   8.198
 5777SOL    HW217898   2.960   4.754   8.101
 5778SOL     OW17899   2.876   3.960   8.419
 5778SOL    HW117900   2.868   3.924   8.326
 5778SOL    HW217901   2.874   3.884   8.484
 5779SOL     OW17902   3.571   4.109   8.829
 5779SOL    HW117903   3.644   4.178   8.833
 5779SOL    HW217904   3.599   4.034   8.770
 5780SOL     OW17905   2.534   3.927   8.937
 5780SOL    HW117906   2.624   3.911   8.897
 5780SOL    HW217907   2.542   3.932   9.036
 5781SOL     OW17908   1.937   4.069   7.481
 5781SOL    HW117909   1.845   4.041   7.452
 5781SOL    HW217910   1.968   4.146   7.425
 5782SOL     OW17911   1.934   3.890   7.766
 5782SOL    HW117912   1.917   3.973   7.712
 5782SOL    HW217913   2.024   3.853   7.744
 5783SOL     OW17914   2.578   4.289   9.156
 5783SOL    HW117915   2.597   4.354   9.230
 5783SOL    HW217916   2.638   4.209   9.165
 5784SOL     OW17917   3.087   4.049   7.897
 5784SOL    HW117918   3.152   3.975   7.886
 5784SOL    HW217919   3.107   4.099   7.981
 5785SOL     OW17920   3.639   4.066   9.090
 5785SOL    HW117921   3.622   4.097   8.996
 5785SOL    HW217922   3.555   4.029   9.128
 5786SOL     OW17923   2.945   4.708   7.535
 5786SOL    HW117924   2.922   4.761   7.453
 5786SOL    HW217925   3.026   4.652   7.516
 5787SOL     OW17926   3.686   3.916   8.675
 5787SOL    HW117927   3.682   3.826   8.719
 5787SOL    HW217928   3.689   3.905   8.576
 5788SOL     OW17929   2.290   4.148   7.968
 5788SOL    HW117930   2.320   4.076   7.906
 5788SOL    HW217931   2.251   4.108   8.051
 5789SOL     OW17932   2.179   4.271   8.728
 5789SOL    HW117933   2.217   4.212   8.800
 5789SOL    HW217934   2.219   4.245   8.640
 5790SOL     OW17935   3.286   3.938   8.560
 5790SOL    HW117936   3.338   3.873   8.615
 5790SOL    HW217937   3.237   4.001   8.621
 5791SOL     OW17938   2.863   3.758   8.602
 5791SOL    HW117939   2.800   3.686   8.571
 5791SOL    HW217940   2.956   3.722   8.602
 5792SOL     OW17941   3.214   3.776   7.616
 5792SOL    HW117942   3.249   3.735   7.532
 5792SOL    HW217943   3.124   3.738   7.636
 5793SOL     OW17944   3.162   4.177   8.139
 5793SOL    HW117945   3.103   4.257   8.143
 5793SOL    HW217946   3.177   4.142   8.232
 5794SOL     OW17947   3.455   3.945   8.330
 5794SOL    HW117948   3.371   3.944   8.384
 5794SOL    HW217949   3.457   4.028   8.274
 5795SOL     OW17950   2.092   4.352   9.423
 5795SOL    HW117951   1.999   4.350   9.460
 5795SOL    HW217952   2.093   4.313   9.331
 5796SOL     OW17953   2.087   3.999  10.306
 5796SOL    HW117954   2.122   3.982  10.398
 5796SOL    HW217955   1.999   3.954  10.294
 5797SOL     OW17956   1.881   4.092   9.957
 5797SOL    HW117957   1.799   4.135   9.996
 5797SOL    HW217958   1.853   4.019   9.894
 5798SOL     OW17959   3.617   4.331   9.541
 5798SOL    HW117960   3.605   4.318   9.442
 5798SOL    HW217961   3.587   4.250   9.590
 5799SOL     OW17962   2.547   4.736   9.975
 5799SOL    HW117963   2.616   4.720  10.045
 5799SOL    HW217964   2.474   4.793  10.013
 5800SOL     OW17965   2.300   4.116  10.809
 5800SOL    HW117966   2.382   4.060  10.818
 5800SOL    HW217967   2.219   4.058  10.813
 5801SOL     OW17968   3.465   4.171  10.047
 5801SOL    HW117969   3.391   4.217   9.997
 5801SOL    HW217970   3.516   4.239  10.100
 5802SOL     OW17971   3.456   3.838  10.790
 5802SOL    HW117972   3.438   3.905  10.718
 5802SOL    HW217973   3.453   3.884  10.879
 5803SOL     OW17974   1.984   4.367   9.873
 5803SOL    HW117975   1.939   4.279   9.890
 5803SOL    HW217976   1.983   4.421   9.957
 5804SOL     OW17977   1.975   4.461  10.907
 5804SOL    HW117978   2.063   4.448  10.952
 5804SOL    HW217979   1.962   4.558  10.885
 5805SOL     OW17980   2.671   3.728   9.812
 5805SOL    HW117981   2.711   3.819   9.803
 5805SOL    HW217982   2.571   3.736   9.818
 5806SOL     OW17983   2.179   3.975  11.111
 5806SOL    HW117984   2.250   4.046  11.117
 5806SOL    HW217985   2.091   4.014  11.139
 5807SOL     OW17986   3.143   4.069  10.254
 5807SOL    HW117987   3.057   4.019  10.241
 5807SOL    HW217988   3.205   4.015  10.310
 5808SOL     OW17989   2.669   4.329  10.775
 5808SOL    HW117990   2.622   4.326  10.864
 5808SOL    HW217991   2.618   4.274  10.709
 5809SOL     OW17992   2.853   4.134  10.552
 5809SOL    HW117993   2.776   4.168  10.606
 5809SOL    HW217994   2.819   4.083  10.473
 5810SOL     OW17995   2.903   4.425   9.739
 5810SOL    HW117996   2.929   4.421   9.835
 5810SOL    HW217997   2.818   4.374   9.725
 5811SOL     OW17998   2.727   4.072   9.505
 5811SOL    HW117999   2.786   4.135   9.456
 5811SOL    HW218000   2.746   3.978   9.476
 5812SOL     OW18001   2.412   3.920  10.195
 5812SOL    HW118002   2.407   3.915  10.295
 5812SOL    HW218003   2.414   4.016  10.166
 5813SOL     OW18004   3.320   4.459  10.038
 5813SOL    HW118005   3.315   4.394  10.113
 5813SOL    HW218006   3.400   4.518  10.051
 5814SOL     OW18007   2.064   4.009  10.808
 5814SOL    HW118008   1.984   4.069  10.795
 5814SOL    HW218009   2.054   3.960  10.894
 5815SOL     OW18010   3.262   3.831   9.736
 5815SOL    HW118011   3.238   3.794   9.646
 5815SOL    HW218012   3.361   3.847   9.740
 5816SOL     OW18013   2.244   4.424   9.790
 5816SOL    HW118014   2.289   4.334   9.787
 5816SOL    HW218015   2.150   4.413   9.823
 5817SOL     OW18016   2.476   3.846   9.427
 5817SOL    HW118017   2.574   3.824   9.434
 5817SOL    HW218018   2.445   3.829   9.334
 5818SOL     OW18019   2.643   3.988  11.059
 5818SOL    HW118020   2.710   3.927  11.102
 5818SOL    HW218021   2.570   4.007  11.124
 5819SOL     OW18022   3.213   4.314  10.743
 5819SOL    HW118023   3.241   4.271  10.828
 5819SOL    HW218024   3.238   4.410  10.744
 5820SOL     OW18025   2.784   4.227  10.209
 5820SOL    HW118026   2.759   4.218  10.113
 5820SOL    HW218027   2.832   4.145  10.240
 5821SOL     OW18028   2.401   3.788   9.822
 5821SOL    HW118029   2.320   3.789   9.880
 5821SOL    HW218030   2.404   3.871   9.767
 5822SOL     OW18031   2.159   3.759   9.481
 5822SOL    HW118032   2.208   3.843   9.460
 5822SOL    HW218033   2.221   3.694   9.526
 5823SOL     OW18034   2.797   3.960   9.790
 5823SOL    HW118035   2.749   4.001   9.712
 5823SOL    HW218036   2.896   3.958   9.771
 5824SOL     OW18037   2.938   4.407  10.774
 5824SOL    HW118038   2.858   4.346  10.777
 5824SOL    HW218039   3.019   4.354  10.750
 5825SOL     OW18040   2.894   4.273   9.326
 5825SOL    HW118041   2.853   4.355   9.287
 5825SOL    HW218042   2.958   4.299   9.399
 5826SOL     OW18043   1.940   4.280  10.696
 5826SOL    HW118044   2.032   4.279  10.655
 5826SOL    HW218045   1.934   4.354  10.763
 5827SOL     OW18046   2.423   3.946  10.457
 5827SOL    HW118047   2.461   3.862  10.494
 5827SOL    HW218048   2.335   3.965  10.501
 5828SOL     OW18049   2.728   4.178   9.952
 5828SOL    HW118050   2.696   4.250   9.890
 5828SOL    HW218051   2.752   4.097   9.899
 5829SOL     OW18052   2.879   3.763  10.063
 5829SOL    HW118053   2.807   3.768   9.994
 5829SOL    HW218054   2.855   3.694  10.132
 5830SOL     OW18055   3.328   4.314  10.302
 5830SOL    HW118056   3.298   4.219  10.309
 5830SOL    HW218057   3.401   4.330  10.368
 5831SOL     OW18058   3.252   4.299   9.388
 5831SOL    HW118059   3.198   4.278   9.469
 5831SOL    HW218060   3.343   4.258   9.397
 5832SOL     OW18061   2.389   3.980   9.638
 5832SOL    HW118062   2.416   3.921   9.563
 5832SOL    HW218063   2.389   4.075   9.607
 5833SOL     OW18064   2.777   3.813  10.712
 5833SOL    HW118065   2.802   3.793  10.617
 5833SOL    HW218066   2.849   3.869  10.754
 5834SOL     OW18067   2.272   4.537  10.561
 5834SOL    HW118068   2.358   4.549  10.611
 5834SOL    HW218069   2.230   4.450  10.588
 5835SOL     OW18070   3.136   4.110  10.572
 5835SOL    HW118071   3.157   4.184  10.636
 5835SOL    HW218072   3.047   4.127  10.529
 5836SOL     OW18073   2.428   4.261  10.175
 5836SOL    HW118074   2.440   4.327  10.101
 5836SOL    HW218075   2.474   4.295  10.258
 5837SOL     OW18076   3.444   4.363   9.782
 5837SOL    HW118077   3.413   4.424   9.855
 5837SOL    HW218078   3.494   4.415   9.713
 5838SOL     OW18079   2.264   4.475  10.908
 5838SOL    HW118080   2.332   4.530  10.861
 5838SOL    HW218081   2.304   4.387  10.935
 5839SOL     OW18082   3.071   4.249   9.585
 5839SOL    HW118083   3.084   4.165   9.639
 5839SOL    HW218084   3.042   4.323   9.645
 5840SOL     OW18085   2.169   3.937  10.541
 5840SOL    HW118086   2.146   3.974  10.631
 5840SOL    HW218087   2.139   3.842  10.535
 5841SOL     OW18088   2.594   4.358  10.374
 5841SOL    HW118089   2.653   4.332  10.298
 5841SOL    HW218090   2.566   4.454  10.363
 5842SOL     OW18091   2.169   3.787   9.928
 5842SOL    HW118092   2.158   3.881   9.961
 5842SOL    HW218093   2.164   3.724  10.005
 5843SOL     OW18094   3.484   4.091   9.684
 5843SOL    HW118095   3.486   4.015   9.748
 5843SOL    HW218096   3.436   4.168   9.724
 5844SOL     OW18097   3.402   3.998   9.435
 5844SOL    HW118098   3.341   3.923   9.458
 5844SOL    HW218099   3.424   4.050   9.518
 5845SOL     OW18100   2.181   4.534  10.259
 5845SOL    HW118101   2.274   4.570  10.264
 5845SOL    HW218102   2.175   4.449  10.311
 5846SOL     OW18103   2.201   4.233  10.316
 5846SOL    HW118104   2.149   4.150  10.299
 5846SOL    HW218105   2.278   4.238  10.252
 5847SOL     OW18106   3.022   3.931  10.787
 5847SOL    HW118107   3.022   3.995  10.864
 5847SOL    HW218108   3.050   3.979  10.704
 5848SOL     OW18109   1.902   4.268  10.424
 5848SOL    HW118110   1.987   4.235  10.383
 5848SOL    HW218111   1.915   4.283  10.522
 5849SOL     OW18112   3.231   4.674  10.970
 5849SOL    HW118113   3.270   4.763  10.990
 5849SOL    HW218114   3.241   4.654  10.873
 5850SOL     OW18115   2.677   4.296   9.635
 5850SOL    HW118116   2.684   4.207   9.589
 5850SOL    HW218117   2.583   4.330   9.627
 5851SOL     OW18118   3.519   4.328  10.516
 5851SOL    HW118119   3.481   4.259  10.578
 5851SOL    HW218120   3.601   4.292  10.472
 5852SOL     OW18121   2.533   4.188  10.579
 5852SOL    HW118122   2.499   4.099  10.549
 5852SOL    HW218123   2.559   4.242  10.499
 5853SOL     OW18124   2.335   4.224   9.501
 5853SOL    HW118125   2.396   4.304   9.505
 5853SOL    HW218126   2.240   4.255   9.508
 5854SOL     OW18127   3.588   3.859   9.833
 5854SOL    HW118128   3.661   3.842   9.766
 5854SOL    HW218129   3.557   3.772   9.871
 5855SOL     OW18130   3.142   4.651   9.982
 5855SOL    HW118131   3.202   4.570   9.984
 5855SOL    HW218132   3.182   4.720   9.922
 5856SOL     OW18133   3.703   3.899  10.273
 5856SOL    HW118134   3.742   3.814  10.237
 5856SOL    HW218135   3.605   3.901  10.254
 5857SOL     OW18136   2.125   4.050  10.030
 5857SOL    HW118137   2.046   4.101   9.996
 5857SOL    HW218138   2.116   4.035  10.128
 5858SOL     OW18139   2.778   4.634   9.601
 5858SOL    HW118140   2.841   4.672   9.533
 5858SOL    HW218141   2.818   4.551   9.640
 5859SOL     OW18142   2.901   4.822  10.006
 5859SOL    HW118143   2.831   4.775  10.060
 5859SOL    HW218144   2.960   4.754   9.963
 5860SOL     OW18145   2.876   3.960  10.281
 5860SOL    HW118146   2.868   3.924  10.188
 5860SOL    HW218147   2.874   3.884  10.346
 5861SOL     OW18148   3.571   4.109  10.691
 5861SOL    HW118149   3.644   4.178  10.695
 5861SOL    HW218150   3.599   4.034  10.632
 5862SOL     OW18151   2.534   3.927  10.799
 5862SOL    HW118152   2.624   3.911  10.759
 5862SOL    HW218153   2.542   3.932  10.898
 5863SOL     OW18154   1.937   4.069   9.343
 5863SOL    HW118155   1.845   4.041   9.314
 5863SOL    HW218156   1.968   4.146   9.287
 5864SOL     OW18157   1.934   3.890   9.628
 5864SOL    HW118158   1.917   3.973   9.574
 5864SOL    HW218159   2.024   3.853   9.606
 5865SOL     OW18160   2.578   4.289  11.018
 5865SOL    HW118161   2.597   4.354  11.092
 5865SOL    HW218162   2.638   4.209  11.027
 5866SOL     OW18163   3.087   4.049   9.759
 5866SOL    HW118164   3.152   3.975   9.748
 5866SOL    HW218165   3.107   4.099   9.843
 5867SOL     OW18166   3.639   4.066  10.952
 5867SOL    HW118167   3.622   4.097  10.858
 5867SOL    HW218168   3.555   4.029  10.990
 5868SOL     OW18169   2.945   4.708   9.397
 5868SOL    HW118170   2.922   4.761   9.315
 5868SOL    HW218171   3.026   4.652   9.378
 5869SOL     OW18172   3.686   3.916  10.537
 5869SOL    HW118173   3.682   3.826  10.581
 5869SOL    HW218174   3.689   3.905  10.438
 5870SOL     OW18175   2.290   4.148   9.830
 5870SOL    HW118176   2.320   4.076   9.768
 5870SOL    HW218177   2.251   4.108   9.913
 5871SOL     OW18178   2.179   4.271  10.590
 5871SOL    HW118179   2.217   4.212  10.662
 5871SOL    HW218180   2.219   4.245  10.502
 5872SOL     OW18181   3.286   3.938  10.422
 5872SOL    HW118182   3.338   3.873  10.477
 5872SOL    HW218183   3.237   4.001  10.483
 5873SOL     OW18184   2.863   3.758  10.464
 5873SOL    HW118185   2.800   3.686  10.433
 5873SOL    HW218186   2.956   3.722  10.464
 5874SOL     OW18187   3.214   3.776   9.478
 5874SOL    HW118188   3.249   3.735   9.394
 5874SOL    HW218189   3.124   3.738   9.498
 5875SOL     OW18190   3.162   4.177  10.001
 5875SOL    HW118191   3.103   4.257  10.005
 5875SOL    HW218192   3.177   4.142  10.094
 5876SOL     OW18193   3.455   3.945  10.192
 5876SOL    HW118194   3.371   3.944  10.246
 5876SOL    HW218195   3.457   4.028  10.136
 5877SOL     OW18196   3.954   0.628   0.113
 5877SOL    HW118197   3.861   0.626   0.150
 5877SOL    HW218198   3.955   0.589   0.021
 5878SOL     OW18199   3.949   0.275   0.996
 5878SOL    HW118200   3.984   0.258   1.088
 5878SOL    HW218201   3.861   0.230   0.984
 5879SOL     OW18202   3.743   0.368   0.647
 5879SOL    HW118203   3.661   0.411   0.686
 5879SOL    HW218204   3.715   0.295   0.584
 5880SOL     OW18205   4.293   1.275   1.165
 5880SOL    HW118206   4.200   1.268   1.128
 5880SOL    HW218207   4.304   1.364   1.209
 5881SOL     OW18208   4.574   0.798   1.823
 5881SOL    HW118209   4.570   0.874   1.888
 5881SOL    HW218210   4.596   0.834   1.732
 5882SOL     OW18211   4.409   1.012   0.665
 5882SOL    HW118212   4.478   0.996   0.735
 5882SOL    HW218213   4.336   1.069   0.703
 5883SOL     OW18214   4.410   1.161   1.803
 5883SOL    HW118215   4.470   1.240   1.817
 5883SOL    HW218216   4.324   1.192   1.762
 5884SOL     OW18217   4.059   1.435   1.061
 5884SOL    HW118218   3.981   1.404   1.008
 5884SOL    HW218219   4.117   1.493   1.004
 5885SOL     OW18220   4.162   0.392   1.499
 5885SOL    HW118221   4.244   0.336   1.508
 5885SOL    HW218222   4.081   0.334   1.503
 5886SOL     OW18223   3.955   1.713   0.483
 5886SOL    HW118224   3.989   1.790   0.537
 5886SOL    HW218225   3.999   1.713   0.393
 5887SOL     OW18226   3.954   1.434   0.538
 5887SOL    HW118227   3.928   1.530   0.538
 5887SOL    HW218228   3.883   1.380   0.583
 5888SOL     OW18229   3.964   1.091   0.886
 5888SOL    HW118230   3.978   1.007   0.938
 5888SOL    HW218231   3.909   1.155   0.941
 5889SOL     OW18232   4.344   1.786   1.439
 5889SOL    HW118233   4.252   1.769   1.474
 5889SOL    HW218234   4.372   1.878   1.465
 5890SOL     OW18235   4.330   0.964   0.123
 5890SOL    HW118236   4.337   1.048   0.069
 5890SOL    HW218237   4.376   0.977   0.211
 5891SOL     OW18238   3.846   0.643   0.563
 5891SOL    HW118239   3.801   0.555   0.580
 5891SOL    HW218240   3.845   0.697   0.647
 5892SOL     OW18241   3.751   1.596   0.117
 5892SOL    HW118242   3.732   1.500   0.138
 5892SOL    HW218243   3.718   1.654   0.192
 5893SOL     OW18244   3.837   0.737   1.597
 5893SOL    HW118245   3.925   0.724   1.642
 5893SOL    HW218246   3.824   0.834   1.575
 5894SOL     OW18247   4.337   1.365   0.726
 5894SOL    HW118248   4.288   1.278   0.735
 5894SOL    HW218249   4.314   1.408   0.639
 5895SOL     OW18250   4.533   0.004   0.502
 5895SOL    HW118251   4.573   0.095   0.493
 5895SOL    HW218252   4.433   0.012   0.508
 5896SOL     OW18253   3.921   0.976   1.264
 5896SOL    HW118254   4.010   0.931   1.250
 5896SOL    HW218255   3.848   0.911   1.245
 5897SOL     OW18256   4.041   0.251   1.801
 5897SOL    HW118257   4.112   0.322   1.807
 5897SOL    HW218258   3.953   0.290   1.829
 5898SOL     OW18259   4.322   0.729   0.270
 5898SOL    HW118260   4.346   0.798   0.202
 5898SOL    HW218261   4.244   0.762   0.324
 5899SOL     OW18262   3.800   0.811   0.789
 5899SOL    HW118263   3.899   0.799   0.798
 5899SOL    HW218264   3.776   0.906   0.810
 5900SOL     OW18265   3.854   1.821   1.571
 5900SOL    HW118266   3.844   1.806   1.670
 5900SOL    HW218267   3.768   1.857   1.535
 5901SOL     OW18268   4.274   0.196   0.885
 5901SOL    HW118269   4.269   0.191   0.985
 5901SOL    HW218270   4.276   0.292   0.856
 5902SOL     OW18271   4.075   1.801   0.853
 5902SOL    HW118272   4.125   1.715   0.859
 5902SOL    HW218273   4.140   1.878   0.850
 5903SOL     OW18274   4.045   0.943   0.242
 5903SOL    HW118275   4.127   0.982   0.200
 5903SOL    HW218276   4.018   0.861   0.193
 5904SOL     OW18277   4.185   1.266   1.727
 5904SOL    HW118278   4.135   1.267   1.641
 5904SOL    HW218279   4.122   1.248   1.803
 5905SOL     OW18280   3.926   0.285   1.498
 5905SOL    HW118281   3.846   0.345   1.485
 5905SOL    HW218282   3.916   0.236   1.584
 5906SOL     OW18283   4.188   1.743   0.323
 5906SOL    HW118284   4.221   1.782   0.409
 5906SOL    HW218285   4.264   1.736   0.258
 5907SOL     OW18286   3.973   1.785   1.241
 5907SOL    HW118287   4.030   1.720   1.291
 5907SOL    HW218288   3.957   1.752   1.148
 5908SOL     OW18289   4.106   0.700   0.480
 5908SOL    HW118290   4.151   0.610   0.477
 5908SOL    HW218291   4.012   0.689   0.513
 5909SOL     OW18292   4.338   0.122   0.117
 5909SOL    HW118293   4.436   0.100   0.124
 5909SOL    HW218294   4.307   0.105   0.024
 5910SOL     OW18295   4.527   1.402   0.924
 5910SOL    HW118296   4.617   1.416   0.882
 5910SOL    HW218297   4.456   1.404   0.853
 5911SOL     OW18298   4.263   0.064   0.512
 5911SOL    HW118299   4.182   0.065   0.570
 5911SOL    HW218300   4.266   0.147   0.457
 5912SOL     OW18301   4.021   0.035   0.171
 5912SOL    HW118302   4.070   0.119   0.150
 5912SOL    HW218303   4.083  -0.030   0.216
 5913SOL     OW18304   4.800   0.683   1.464
 5913SOL    HW118305   4.720   0.622   1.467
 5913SOL    HW218306   4.881   0.630   1.440
 5914SOL     OW18307   4.183   1.152   0.741
 5914SOL    HW118308   4.112   1.125   0.806
 5914SOL    HW218309   4.157   1.124   0.648
 5915SOL     OW18310   3.802   0.556   1.386
 5915SOL    HW118311   3.894   0.555   1.345
 5915SOL    HW218312   3.796   0.630   1.453
 5916SOL     OW18313   4.285   0.222   1.147
 5916SOL    HW118314   4.323   0.138   1.184
 5916SOL    HW218315   4.197   0.241   1.191
 5917SOL     OW18316   4.212   1.385   0.174
 5917SOL    HW118317   4.125   1.370   0.221
 5917SOL    HW218318   4.195   1.411   0.079
 5918SOL     OW18319   4.251   0.256   0.328
 5918SOL    HW118320   4.278   0.197   0.253
 5918SOL    HW218321   4.251   0.351   0.297
 5919SOL     OW18322   4.134   0.813   1.251
 5919SOL    HW118323   4.220   0.825   1.301
 5919SOL    HW218324   4.092   0.726   1.278
 5920SOL     OW18325   3.788   1.564   1.331
 5920SOL    HW118326   3.742   1.646   1.297
 5920SOL    HW218327   3.886   1.583   1.340
 5921SOL     OW18328   4.091   1.100   0.501
 5921SOL    HW118329   4.084   1.183   0.445
 5921SOL    HW218330   4.095   1.020   0.441
 5922SOL     OW18331   4.290   0.537   0.865
 5922SOL    HW118332   4.302   0.603   0.791
 5922SOL    HW218333   4.336   0.571   0.948
 5923SOL     OW18334   4.078   1.510   1.329
 5923SOL    HW118335   4.057   1.466   1.242
 5923SOL    HW218336   4.175   1.536   1.332
 5924SOL     OW18337   4.126   0.751   1.598
 5924SOL    HW118338   4.194   0.806   1.551
 5924SOL    HW218339   4.166   0.663   1.625
 5925SOL     OW18340   4.228   0.050   1.740
 5925SOL    HW118341   4.186  -0.007   1.670
 5925SOL    HW218342   4.162   0.119   1.772
 5926SOL     OW18343   4.297   0.870   1.029
 5926SOL    HW118344   4.341   0.959   1.020
 5926SOL    HW218345   4.234   0.870   1.106
 5927SOL     OW18346   4.031   0.213   1.231
 5927SOL    HW118347   4.008   0.250   1.321
 5927SOL    HW218348   4.001   0.118   1.225
 5928SOL     OW18349   3.761   1.310   1.282
 5928SOL    HW118350   3.814   1.261   1.350
 5928SOL    HW218351   3.783   1.408   1.287
 5929SOL     OW18352   4.031   0.063   0.618
 5929SOL    HW118353   4.020   0.157   0.651
 5929SOL    HW218354   4.026   0.000   0.695
 5930SOL     OW18355   4.074   0.898   1.804
 5930SOL    HW118356   4.150   0.942   1.852
 5930SOL    HW218357   4.109   0.851   1.722
 5931SOL     OW18358   4.043   0.810   0.949
 5931SOL    HW118359   4.136   0.846   0.954
 5931SOL    HW218360   4.037   0.725   1.001
 5932SOL     OW18361   4.063   0.509   1.006
 5932SOL    HW118362   4.011   0.426   0.989
 5932SOL    HW218363   4.140   0.514   0.942
 5933SOL     OW18364   3.732   1.326   0.200
 5933SOL    HW118365   3.639   1.347   0.169
 5933SOL    HW218366   3.742   1.227   0.213
 5934SOL     OW18367   3.812   1.801   0.927
 5934SOL    HW118368   3.770   1.715   0.900
 5934SOL    HW218369   3.906   1.804   0.893
 5935SOL     OW18370   4.228   1.568   0.910
 5935SOL    HW118371   4.294   1.642   0.919
 5935SOL    HW218372   4.272   1.489   0.868
 5936SOL     OW18373   3.764   0.544   1.114
 5936SOL    HW118374   3.849   0.511   1.073
 5936SOL    HW218375   3.777   0.559   1.212
 5937SOL     OW18376   3.913   0.520   1.722
 5937SOL    HW118377   3.972   0.480   1.652
 5937SOL    HW218378   3.855   0.591   1.681
 5938SOL     OW18379   4.539   0.572   0.325
 5938SOL    HW118380   4.546   0.483   0.279
 5938SOL    HW218381   4.445   0.606   0.317
 5939SOL     OW18382   3.976   1.564   1.744
 5939SOL    HW118383   3.946   1.621   1.820
 5939SOL    HW218384   3.969   1.467   1.770
 5940SOL     OW18385   4.197   0.500   0.191
 5940SOL    HW118386   4.258   0.580   0.195
 5940SOL    HW218387   4.102   0.531   0.198
 5941SOL     OW18388   3.883   1.137   1.466
 5941SOL    HW118389   3.905   1.076   1.542
 5941SOL    HW218390   3.893   1.088   1.380
 5942SOL     OW18391   3.807   1.258   1.022
 5942SOL    HW118392   3.802   1.257   1.122
 5942SOL    HW218393   3.724   1.217   0.984
 5943SOL     OW18394   4.412   1.662   1.716
 5943SOL    HW118395   4.356   1.743   1.725
 5943SOL    HW218396   4.464   1.666   1.630
 5944SOL     OW18397   3.854   1.794   1.851
 5944SOL    HW118398   3.813   1.720   1.904
 5944SOL    HW218399   3.918   1.845   1.909
 5945SOL     OW18400   3.987   0.326   0.720
 5945SOL    HW118401   3.908   0.377   0.686
 5945SOL    HW218402   3.978   0.311   0.818
 5946SOL     OW18403   4.096   1.288   1.490
 5946SOL    HW118404   4.083   1.381   1.456
 5946SOL    HW218405   4.012   1.236   1.477
 5947SOL     OW18406   4.314   1.487   0.491
 5947SOL    HW118407   4.356   1.429   0.421
 5947SOL    HW218408   4.270   1.566   0.447
 5948SOL     OW18409   3.979   1.348   0.290
 5948SOL    HW118410   3.883   1.349   0.263
 5948SOL    HW218411   3.991   1.401   0.374
 5949SOL     OW18412   3.829   1.013   1.726
 5949SOL    HW118413   3.752   0.980   1.780
 5949SOL    HW218414   3.914   0.983   1.768
 5950SOL     OW18415   4.396   0.203   1.489
 5950SOL    HW118416   4.486   0.187   1.449
 5950SOL    HW218417   4.404   0.208   1.588
 5951SOL     OW18418   3.799   0.345   0.033
 5951SOL    HW118419   3.707   0.317   0.004
 5951SOL    HW218420   3.830   0.422  -0.023
 5952SOL     OW18421   3.796   0.166   0.318
 5952SOL    HW118422   3.779   0.249   0.264
 5952SOL    HW218423   3.886   0.129   0.296
 5953SOL     OW18424   4.337   0.842   1.431
 5953SOL    HW118425   4.393   0.923   1.414
 5953SOL    HW218426   4.396   0.762   1.434
 5954SOL     OW18427   4.440   0.565   1.708
 5954SOL    HW118428   4.459   0.630   1.782
 5954SOL    HW218429   4.500   0.485   1.717
 5955SOL     OW18430   4.114   1.741   1.560
 5955SOL    HW118431   4.023   1.782   1.558
 5955SOL    HW218432   4.107   1.647   1.592
 5956SOL     OW18433   4.318   0.745   0.652
 5956SOL    HW118434   4.368   0.830   0.633
 5956SOL    HW218435   4.230   0.747   0.604
 5957SOL     OW18436   3.945   1.314   1.844
 5957SOL    HW118437   3.880   1.241   1.823
 5957SOL    HW218438   3.949   1.328   1.942
 5958SOL     OW18439   3.803   1.240   0.653
 5958SOL    HW118440   3.802   1.193   0.741
 5958SOL    HW218441   3.885   1.212   0.602
 5959SOL     OW18442   4.396   1.391   1.624
 5959SOL    HW118443   4.318   1.341   1.662
 5959SOL    HW218444   4.393   1.486   1.655
 5960SOL     OW18445   4.152   0.424   0.520
 5960SOL    HW118446   4.182   0.352   0.458
 5960SOL    HW218447   4.113   0.384   0.603
 5961SOL     OW18448   4.041   0.547   1.280
 5961SOL    HW118449   4.079   0.488   1.352
 5961SOL    HW218450   4.081   0.521   1.192
 5962SOL     OW18451   4.536   1.586   0.687
 5962SOL    HW118452   4.568   1.596   0.593
 5962SOL    HW218453   4.457   1.524   0.689
 5963SOL     OW18454   3.763   1.077   0.300
 5963SOL    HW118455   3.862   1.066   0.291
 5963SOL    HW218456   3.723   0.991   0.332
 5964SOL     OW18457   3.954   0.628   1.975
 5964SOL    HW118458   3.861   0.626   2.012
 5964SOL    HW218459   3.955   0.589   1.883
 5965SOL     OW18460   3.949   0.275   2.858
 5965SOL    HW118461   3.984   0.258   2.950
 5965SOL    HW218462   3.861   0.230   2.846
 5966SOL     OW18463   3.743   0.368   2.509
 5966SOL    HW118464   3.661   0.411   2.548
 5966SOL    HW218465   3.715   0.295   2.446
 5967SOL     OW18466   4.293   1.275   3.027
 5967SOL    HW118467   4.200   1.268   2.990
 5967SOL    HW218468   4.304   1.364   3.071
 5968SOL     OW18469   4.574   0.798   3.685
 5968SOL    HW118470   4.570   0.874   3.750
 5968SOL    HW218471   4.596   0.834   3.594
 5969SOL     OW18472   4.409   1.012   2.527
 5969SOL    HW118473   4.478   0.996   2.597
 5969SOL    HW218474   4.336   1.069   2.565
 5970SOL     OW18475   4.410   1.161   3.665
 5970SOL    HW118476   4.470   1.240   3.679
 5970SOL    HW218477   4.324   1.192   3.624
 5971SOL     OW18478   4.059   1.435   2.923
 5971SOL    HW118479   3.981   1.404   2.870
 5971SOL    HW218480   4.117   1.493   2.866
 5972SOL     OW18481   4.162   0.392   3.361
 5972SOL    HW118482   4.244   0.336   3.370
 5972SOL    HW218483   4.081   0.334   3.365
 5973SOL     OW18484   3.955   1.713   2.345
 5973SOL    HW118485   3.989   1.790   2.399
 5973SOL    HW218486   3.999   1.713   2.255
 5974SOL     OW18487   3.954   1.434   2.400
 5974SOL    HW118488   3.928   1.530   2.400
 5974SOL    HW218489   3.883   1.380   2.445
 5975SOL     OW18490   3.964   1.091   2.748
 5975SOL    HW118491   3.978   1.007   2.800
 5975SOL    HW218492   3.909   1.155   2.803
 5976SOL     OW18493   4.344   1.786   3.301
 5976SOL    HW118494   4.252   1.769   3.336
 5976SOL    HW218495   4.372   1.878   3.327
 5977SOL     OW18496   4.330   0.964   1.985
 5977SOL    HW118497   4.337   1.048   1.931
 5977SOL    HW218498   4.376   0.977   2.073
 5978SOL     OW18499   3.846   0.643   2.425
 5978SOL    HW118500   3.801   0.555   2.442
 5978SOL    HW218501   3.845   0.697   2.509
 5979SOL     OW18502   3.751   1.596   1.979
 5979SOL    HW118503   3.732   1.500   2.000
 5979SOL    HW218504   3.718   1.654   2.054
 5980SOL     OW18505   3.837   0.737   3.459
 5980SOL    HW118506   3.925   0.724   3.504
 5980SOL    HW218507   3.824   0.834   3.437
 5981SOL     OW18508   4.337   1.365   2.588
 5981SOL    HW118509   4.288   1.278   2.597
 5981SOL    HW218510   4.314   1.408   2.501
 5982SOL     OW18511   4.533   0.004   2.364
 5982SOL    HW118512   4.573   0.095   2.355
 5982SOL    HW218513   4.433   0.012   2.370
 5983SOL     OW18514   3.921   0.976   3.126
 5983SOL    HW118515   4.010   0.931   3.112
 5983SOL    HW218516   3.848   0.911   3.107
 5984SOL     OW18517   4.041   0.251   3.663
 5984SOL    HW118518   4.112   0.322   3.669
 5984SOL    HW218519   3.953   0.290   3.691
 5985SOL     OW18520   4.322   0.729   2.132
 5985SOL    HW118521   4.346   0.798   2.064
 5985SOL    HW218522   4.244   0.762   2.186
 5986SOL     OW18523   3.800   0.811   2.651
 5986SOL    HW118524   3.899   0.799   2.660
 5986SOL    HW218525   3.776   0.906   2.672
 5987SOL     OW18526   3.854   1.821   3.433
 5987SOL    HW118527   3.844   1.806   3.532
 5987SOL    HW218528   3.768   1.857   3.397
 5988SOL     OW18529   4.274   0.196   2.747
 5988SOL    HW118530   4.269   0.191   2.847
 5988SOL    HW218531   4.276   0.292   2.718
 5989SOL     OW18532   4.075   1.801   2.715
 5989SOL    HW118533   4.125   1.715   2.721
 5989SOL    HW218534   4.140   1.878   2.712
 5990SOL     OW18535   4.045   0.943   2.104
 5990SOL    HW118536   4.127   0.982   2.062
 5990SOL    HW218537   4.018   0.861   2.055
 5991SOL     OW18538   4.185   1.266   3.589
 5991SOL    HW118539   4.135   1.267   3.503
 5991SOL    HW218540   4.122   1.248   3.665
 5992SOL     OW18541   3.926   0.285   3.360
 5992SOL    HW118542   3.846   0.345   3.347
 5992SOL    HW218543   3.916   0.236   3.446
 5993SOL     OW18544   4.188   1.743   2.185
 5993SOL    HW118545   4.221   1.782   2.271
 5993SOL    HW218546   4.264   1.736   2.120
 5994SOL     OW18547   3.973   1.785   3.103
 5994SOL    HW118548   4.030   1.720   3.153
 5994SOL    HW218549   3.957   1.752   3.010
 5995SOL     OW18550   4.106   0.700   2.342
 5995SOL    HW118551   4.151   0.610   2.339
 5995SOL    HW218552   4.012   0.689   2.375
 5996SOL     OW18553   4.338   0.122   1.979
 5996SOL    HW118554   4.436   0.100   1.986
 5996SOL    HW218555   4.307   0.105   1.886
 5997SOL     OW18556   4.527   1.402   2.786
 5997SOL    HW118557   4.617   1.416   2.744
 5997SOL    HW218558   4.456   1.404   2.715
 5998SOL     OW18559   4.263   0.064   2.374
 5998SOL    HW118560   4.182   0.065   2.432
 5998SOL    HW218561   4.266   0.147   2.319
 5999SOL     OW18562   4.021   0.035   2.033
 5999SOL    HW118563   4.070   0.119   2.012
 5999SOL    HW218564   4.083  -0.030   2.078
 6000SOL     OW18565   4.800   0.683   3.326
 6000SOL    HW118566   4.720   0.622   3.329
 6000SOL    HW218567   4.881   0.630   3.302
 6001SOL     OW18568   4.183   1.152   2.603
 6001SOL    HW118569   4.112   1.125   2.668
 6001SOL    HW218570   4.157   1.124   2.510
 6002SOL     OW18571   3.802   0.556   3.248
 6002SOL    HW118572   3.894   0.555   3.207
 6002SOL    HW218573   3.796   0.630   3.315
 6003SOL     OW18574   4.285   0.222   3.009
 6003SOL    HW118575   4.323   0.138   3.046
 6003SOL    HW218576   4.197   0.241   3.053
 6004SOL     OW18577   4.212   1.385   2.036
 6004SOL    HW118578   4.125   1.370   2.083
 6004SOL    HW218579   4.195   1.411   1.941
 6005SOL     OW18580   4.251   0.256   2.190
 6005SOL    HW118581   4.278   0.197   2.115
 6005SOL    HW218582   4.251   0.351   2.159
 6006SOL     OW18583   4.134   0.813   3.113
 6006SOL    HW118584   4.220   0.825   3.163
 6006SOL    HW218585   4.092   0.726   3.140
 6007SOL     OW18586   3.788   1.564   3.193
 6007SOL    HW118587   3.742   1.646   3.159
 6007SOL    HW218588   3.886   1.583   3.202
 6008SOL     OW18589   4.091   1.100   2.363
 6008SOL    HW118590   4.084   1.183   2.307
 6008SOL    HW218591   4.095   1.020   2.303
 6009SOL     OW18592   4.290   0.537   2.727
 6009SOL    HW118593   4.302   0.603   2.653
 6009SOL    HW218594   4.336   0.571   2.810
 6010SOL     OW18595   4.078   1.510   3.191
 6010SOL    HW118596   4.057   1.466   3.104
 6010SOL    HW218597   4.175   1.536   3.194
 6011SOL     OW18598   4.126   0.751   3.460
 6011SOL    HW118599   4.194   0.806   3.413
 6011SOL    HW218600   4.166   0.663   3.487
 6012SOL     OW18601   4.228   0.050   3.602
 6012SOL    HW118602   4.186  -0.007   3.532
 6012SOL    HW218603   4.162   0.119   3.634
 6013SOL     OW18604   4.297   0.870   2.891
 6013SOL    HW118605   4.341   0.959   2.882
 6013SOL    HW218606   4.234   0.870   2.968
 6014SOL     OW18607   4.031   0.213   3.093
 6014SOL    HW118608   4.008   0.250   3.183
 6014SOL    HW218609   4.001   0.118   3.087
 6015SOL     OW18610   3.761   1.310   3.144
 6015SOL    HW118611   3.814   1.261   3.212
 6015SOL    HW218612   3.783   1.408   3.149
 6016SOL     OW18613   4.031   0.063   2.480
 6016SOL    HW118614   4.020   0.157   2.513
 6016SOL    HW218615   4.026   0.000   2.557
 6017SOL     OW18616   4.074   0.898   3.666
 6017SOL    HW118617   4.150   0.942   3.714
 6017SOL    HW218618   4.109   0.851   3.584
 6018SOL     OW18619   4.043   0.810   2.811
 6018SOL    HW118620   4.136   0.846   2.816
 6018SOL    HW218621   4.037   0.725   2.863
 6019SOL     OW18622   4.063   0.509   2.868
 6019SOL    HW118623   4.011   0.426   2.851
 6019SOL    HW218624   4.140   0.514   2.804
 6020SOL     OW18625   3.732   1.326   2.062
 6020SOL    HW118626   3.639   1.347   2.031
 6020SOL    HW218627   3.742   1.227   2.075
 6021SOL     OW18628   3.812   1.801   2.789
 6021SOL    HW118629   3.770   1.715   2.762
 6021SOL    HW218630   3.906   1.804   2.755
 6022SOL     OW18631   4.228   1.568   2.772
 6022SOL    HW118632   4.294   1.642   2.781
 6022SOL    HW218633   4.272   1.489   2.730
 6023SOL     OW18634   3.764   0.544   2.976
 6023SOL    HW118635   3.849   0.511   2.935
 6023SOL    HW218636   3.777   0.559   3.074
 6024SOL     OW18637   3.913   0.520   3.584
 6024SOL    HW118638   3.972   0.480   3.514
 6024SOL    HW218639   3.855   0.591   3.543
 6025SOL     OW18640   4.539   0.572   2.187
 6025SOL    HW118641   4.546   0.483   2.141
 6025SOL    HW218642   4.445   0.606   2.179
 6026SOL     OW18643   3.976   1.564   3.606
 6026SOL    HW118644   3.946   1.621   3.682
 6026SOL    HW218645   3.969   1.467   3.632
 6027SOL     OW18646   4.197   0.500   2.053
 6027SOL    HW118647   4.258   0.580   2.057
 6027SOL    HW218648   4.102   0.531   2.060
 6028SOL     OW18649   3.883   1.137   3.328
 6028SOL    HW118650   3.905   1.076   3.404
 6028SOL    HW218651   3.893   1.088   3.242
 6029SOL     OW18652   3.807   1.258   2.884
 6029SOL    HW118653   3.802   1.257   2.984
 6029SOL    HW218654   3.724   1.217   2.846
 6030SOL     OW18655   4.412   1.662   3.578
 6030SOL    HW118656   4.356   1.743   3.587
 6030SOL    HW218657   4.464   1.666   3.492
 6031SOL     OW18658   3.854   1.794   3.713
 6031SOL    HW118659   3.813   1.720   3.766
 6031SOL    HW218660   3.918   1.845   3.771
 6032SOL     OW18661   3.987   0.326   2.582
 6032SOL    HW118662   3.908   0.377   2.548
 6032SOL    HW218663   3.978   0.311   2.680
 6033SOL     OW18664   4.096   1.288   3.352
 6033SOL    HW118665   4.083   1.381   3.318
 6033SOL    HW218666   4.012   1.236   3.339
 6034SOL     OW18667   4.314   1.487   2.353
 6034SOL    HW118668   4.356   1.429   2.283
 6034SOL    HW218669   4.270   1.566   2.309
 6035SOL     OW18670   3.979   1.348   2.152
 6035SOL    HW118671   3.883   1.349   2.125
 6035SOL    HW218672   3.991   1.401   2.236
 6036SOL     OW18673   3.829   1.013   3.588
 6036SOL    HW118674   3.752   0.980   3.642
 6036SOL    HW218675   3.914   0.983   3.630
 6037SOL     OW18676   4.396   0.203   3.351
 6037SOL    HW118677   4.486   0.187   3.311
 6037SOL    HW218678   4.404   0.208   3.450
 6038SOL     OW18679   3.799   0.345   1.895
 6038SOL    HW118680   3.707   0.317   1.866
 6038SOL    HW218681   3.830   0.422   1.839
 6039SOL     OW18682   3.796   0.166   2.180
 6039SOL    HW118683   3.779   0.249   2.126
 6039SOL    HW218684   3.886   0.129   2.158
 6040SOL     OW18685   4.337   0.842   3.293
 6040SOL    HW118686   4.393   0.923   3.276
 6040SOL    HW218687   4.396   0.762   3.296
 6041SOL     OW18688   4.440   0.565   3.570
 6041SOL    HW118689   4.459   0.630   3.644
 6041SOL    HW218690   4.500   0.485   3.579
 6042SOL     OW18691   4.114   1.741   3.422
 6042SOL    HW118692   4.023   1.782   3.420
 6042SOL    HW218693   4.107   1.647   3.454
 6043SOL     OW18694   4.318   0.745   2.514
 6043SOL    HW118695   4.368   0.830   2.495
 6043SOL    HW218696   4.230   0.747   2.466
 6044SOL     OW18697   3.945   1.314   3.706
 6044SOL    HW118698   3.880   1.241   3.685
 6044SOL    HW218699   3.949   1.328   3.804
 6045SOL     OW18700   3.803   1.240   2.515
 6045SOL    HW118701   3.802   1.193   2.603
 6045SOL    HW218702   3.885   1.212   2.464
 6046SOL     OW18703   4.396   1.391   3.486
 6046SOL    HW118704   4.318   1.341   3.524
 6046SOL    HW218705   4.393   1.486   3.517
 6047SOL     OW18706   4.152   0.424   2.382
 6047SOL    HW118707   4.182   0.352   2.320
 6047SOL    HW218708   4.113   0.384   2.465
 6048SOL     OW18709   4.041   0.547   3.142
 6048SOL    HW118710   4.079   0.488   3.214
 6048SOL    HW218711   4.081   0.521   3.054
 6049SOL     OW18712   4.536   1.586   2.549
 6049SOL    HW118713   4.568   1.596   2.455
 6049SOL    HW218714   4.457   1.524   2.551
 6050SOL     OW18715   3.763   1.077   2.162
 6050SOL    HW118716   3.862   1.066   2.153
 6050SOL    HW218717   3.723   0.991   2.194
 6051SOL     OW18718   3.954   0.628   3.837
 6051SOL    HW118719   3.861   0.626   3.874
 6051SOL    HW218720   3.955   0.589   3.745
 6052SOL     OW18721   3.949   0.275   4.720
 6052SOL    HW118722   3.984   0.258   4.812
 6052SOL    HW218723   3.861   0.230   4.708
 6053SOL     OW18724   3.743   0.368   4.371
 6053SOL    HW118725   3.661   0.411   4.410
 6053SOL    HW218726   3.715   0.295   4.308
 6054SOL     OW18727   4.293   1.275   4.889
 6054SOL    HW118728   4.200   1.268   4.852
 6054SOL    HW218729   4.304   1.364   4.933
 6055SOL     OW18730   4.574   0.798   5.547
 6055SOL    HW118731   4.570   0.874   5.612
 6055SOL    HW218732   4.596   0.834   5.456
 6056SOL     OW18733   4.409   1.012   4.389
 6056SOL    HW118734   4.478   0.996   4.459
 6056SOL    HW218735   4.336   1.069   4.427
 6057SOL     OW18736   4.410   1.161   5.527
 6057SOL    HW118737   4.470   1.240   5.541
 6057SOL    HW218738   4.324   1.192   5.486
 6058SOL     OW18739   4.059   1.435   4.785
 6058SOL    HW118740   3.981   1.404   4.732
 6058SOL    HW218741   4.117   1.493   4.728
 6059SOL     OW18742   4.162   0.392   5.223
 6059SOL    HW118743   4.244   0.336   5.232
 6059SOL    HW218744   4.081   0.334   5.227
 6060SOL     OW18745   3.955   1.713   4.207
 6060SOL    HW118746   3.989   1.790   4.261
 6060SOL    HW218747   3.999   1.713   4.117
 6061SOL     OW18748   3.954   1.434   4.262
 6061SOL    HW118749   3.928   1.530   4.262
 6061SOL    HW218750   3.883   1.380   4.307
 6062SOL     OW18751   3.964   1.091   4.610
 6062SOL    HW118752   3.978   1.007   4.662
 6062SOL    HW218753   3.909   1.155   4.665
 6063SOL     OW18754   4.344   1.786   5.163
 6063SOL    HW118755   4.252   1.769   5.198
 6063SOL    HW218756   4.372   1.878   5.189
 6064SOL     OW18757   4.330   0.964   3.847
 6064SOL    HW118758   4.337   1.048   3.793
 6064SOL    HW218759   4.376   0.977   3.935
 6065SOL     OW18760   3.846   0.643   4.287
 6065SOL    HW118761   3.801   0.555   4.304
 6065SOL    HW218762   3.845   0.697   4.371
 6066SOL     OW18763   3.751   1.596   3.841
 6066SOL    HW118764   3.732   1.500   3.862
 6066SOL    HW218765   3.718   1.654   3.916
 6067SOL     OW18766   3.837   0.737   5.321
 6067SOL    HW118767   3.925   0.724   5.366
 6067SOL    HW218768   3.824   0.834   5.299
 6068SOL     OW18769   4.337   1.365   4.450
 6068SOL    HW118770   4.288   1.278   4.459
 6068SOL    HW218771   4.314   1.408   4.363
 6069SOL     OW18772   4.533   0.004   4.226
 6069SOL    HW118773   4.573   0.095   4.217
 6069SOL    HW218774   4.433   0.012   4.232
 6070SOL     OW18775   3.921   0.976   4.988
 6070SOL    HW118776   4.010   0.931   4.974
 6070SOL    HW218777   3.848   0.911   4.969
 6071SOL     OW18778   4.041   0.251   5.525
 6071SOL    HW118779   4.112   0.322   5.531
 6071SOL    HW218780   3.953   0.290   5.553
 6072SOL     OW18781   4.322   0.729   3.994
 6072SOL    HW118782   4.346   0.798   3.926
 6072SOL    HW218783   4.244   0.762   4.048
 6073SOL     OW18784   3.800   0.811   4.513
 6073SOL    HW118785   3.899   0.799   4.522
 6073SOL    HW218786   3.776   0.906   4.534
 6074SOL     OW18787   3.854   1.821   5.295
 6074SOL    HW118788   3.844   1.806   5.394
 6074SOL    HW218789   3.768   1.857   5.259
 6075SOL     OW18790   4.274   0.196   4.609
 6075SOL    HW118791   4.269   0.191   4.709
 6075SOL    HW218792   4.276   0.292   4.580
 6076SOL     OW18793   4.075   1.801   4.577
 6076SOL    HW118794   4.125   1.715   4.583
 6076SOL    HW218795   4.140   1.878   4.574
 6077SOL     OW18796   4.045   0.943   3.966
 6077SOL    HW118797   4.127   0.982   3.924
 6077SOL    HW218798   4.018   0.861   3.917
 6078SOL     OW18799   4.185   1.266   5.451
 6078SOL    HW118800   4.135   1.267   5.365
 6078SOL    HW218801   4.122   1.248   5.527
 6079SOL     OW18802   3.926   0.285   5.222
 6079SOL    HW118803   3.846   0.345   5.209
 6079SOL    HW218804   3.916   0.236   5.308
 6080SOL     OW18805   4.188   1.743   4.047
 6080SOL    HW118806   4.221   1.782   4.133
 6080SOL    HW218807   4.264   1.736   3.982
 6081SOL     OW18808   3.973   1.785   4.965
 6081SOL    HW118809   4.030   1.720   5.015
 6081SOL    HW218810   3.957   1.752   4.872
 6082SOL     OW18811   4.106   0.700   4.204
 6082SOL    HW118812   4.151   0.610   4.201
 6082SOL    HW218813   4.012   0.689   4.237
 6083SOL     OW18814   4.338   0.122   3.841
 6083SOL    HW118815   4.436   0.100   3.848
 6083SOL    HW218816   4.307   0.105   3.748
 6084SOL     OW18817   4.527   1.402   4.648
 6084SOL    HW118818   4.617   1.416   4.606
 6084SOL    HW218819   4.456   1.404   4.577
 6085SOL     OW18820   4.263   0.064   4.236
 6085SOL    HW118821   4.182   0.065   4.294
 6085SOL    HW218822   4.266   0.147   4.181
 6086SOL     OW18823   4.021   0.035   3.895
 6086SOL    HW118824   4.070   0.119   3.874
 6086SOL    HW218825   4.083  -0.030   3.940
 6087SOL     OW18826   4.800   0.683   5.188
 6087SOL    HW118827   4.720   0.622   5.191
 6087SOL    HW218828   4.881   0.630   5.164
 6088SOL     OW18829   4.183   1.152   4.465
 6088SOL    HW118830   4.112   1.125   4.530
 6088SOL    HW218831   4.157   1.124   4.372
 6089SOL     OW18832   3.802   0.556   5.110
 6089SOL    HW118833   3.894   0.555   5.069
 6089SOL    HW218834   3.796   0.630   5.177
 6090SOL     OW18835   4.285   0.222   4.871
 6090SOL    HW118836   4.323   0.138   4.908
 6090SOL    HW218837   4.197   0.241   4.915
 6091SOL     OW18838   4.212   1.385   3.898
 6091SOL    HW118839   4.125   1.370   3.945
 6091SOL    HW218840   4.195   1.411   3.803
 6092SOL     OW18841   4.251   0.256   4.052
 6092SOL    HW118842   4.278   0.197   3.977
 6092SOL    HW218843   4.251   0.351   4.021
 6093SOL     OW18844   4.134   0.813   4.975
 6093SOL    HW118845   4.220   0.825   5.025
 6093SOL    HW218846   4.092   0.726   5.002
 6094SOL     OW18847   3.788   1.564   5.055
 6094SOL    HW118848   3.742   1.646   5.021
 6094SOL    HW218849   3.886   1.583   5.064
 6095SOL     OW18850   4.091   1.100   4.225
 6095SOL    HW118851   4.084   1.183   4.169
 6095SOL    HW218852   4.095   1.020   4.165
 6096SOL     OW18853   4.290   0.537   4.589
 6096SOL    HW118854   4.302   0.603   4.515
 6096SOL    HW218855   4.336   0.571   4.672
 6097SOL     OW18856   4.078   1.510   5.053
 6097SOL    HW118857   4.057   1.466   4.966
 6097SOL    HW218858   4.175   1.536   5.056
 6098SOL     OW18859   4.126   0.751   5.322
 6098SOL    HW118860   4.194   0.806   5.275
 6098SOL    HW218861   4.166   0.663   5.349
 6099SOL     OW18862   4.228   0.050   5.464
 6099SOL    HW118863   4.186  -0.007   5.394
 6099SOL    HW218864   4.162   0.119   5.496
 6100SOL     OW18865   4.297   0.870   4.753
 6100SOL    HW118866   4.341   0.959   4.744
 6100SOL    HW218867   4.234   0.870   4.830
 6101SOL     OW18868   4.031   0.213   4.955
 6101SOL    HW118869   4.008   0.250   5.045
 6101SOL    HW218870   4.001   0.118   4.949
 6102SOL     OW18871   3.761   1.310   5.006
 6102SOL    HW118872   3.814   1.261   5.074
 6102SOL    HW218873   3.783   1.408   5.011
 6103SOL     OW18874   4.031   0.063   4.342
 6103SOL    HW118875   4.020   0.157   4.375
 6103SOL    HW218876   4.026   0.000   4.419
 6104SOL     OW18877   4.074   0.898   5.528
 6104SOL    HW118878   4.150   0.942   5.576
 6104SOL    HW218879   4.109   0.851   5.446
 6105SOL     OW18880   4.043   0.810   4.673
 6105SOL    HW118881   4.136   0.846   4.678
 6105SOL    HW218882   4.037   0.725   4.725
 6106SOL     OW18883   4.063   0.509   4.730
 6106SOL    HW118884   4.011   0.426   4.713
 6106SOL    HW218885   4.140   0.514   4.666
 6107SOL     OW18886   3.732   1.326   3.924
 6107SOL    HW118887   3.639   1.347   3.893
 6107SOL    HW218888   3.742   1.227   3.937
 6108SOL     OW18889   3.812   1.801   4.651
 6108SOL    HW118890   3.770   1.715   4.624
 6108SOL    HW218891   3.906   1.804   4.617
 6109SOL     OW18892   4.228   1.568   4.634
 6109SOL    HW118893   4.294   1.642   4.643
 6109SOL    HW218894   4.272   1.489   4.592
 6110SOL     OW18895   3.764   0.544   4.838
 6110SOL    HW118896   3.849   0.511   4.797
 6110SOL    HW218897   3.777   0.559   4.936
 6111SOL     OW18898   3.913   0.520   5.446
 6111SOL    HW118899   3.972   0.480   5.376
 6111SOL    HW218900   3.855   0.591   5.405
 6112SOL     OW18901   4.539   0.572   4.049
 6112SOL    HW118902   4.546   0.483   4.003
 6112SOL    HW218903   4.445   0.606   4.041
 6113SOL     OW18904   3.976   1.564   5.468
 6113SOL    HW118905   3.946   1.621   5.544
 6113SOL    HW218906   3.969   1.467   5.494
 6114SOL     OW18907   4.197   0.500   3.915
 6114SOL    HW118908   4.258   0.580   3.919
 6114SOL    HW218909   4.102   0.531   3.922
 6115SOL     OW18910   3.883   1.137   5.190
 6115SOL    HW118911   3.905   1.076   5.266
 6115SOL    HW218912   3.893   1.088   5.104
 6116SOL     OW18913   3.807   1.258   4.746
 6116SOL    HW118914   3.802   1.257   4.846
 6116SOL    HW218915   3.724   1.217   4.708
 6117SOL     OW18916   4.412   1.662   5.440
 6117SOL    HW118917   4.356   1.743   5.449
 6117SOL    HW218918   4.464   1.666   5.354
 6118SOL     OW18919   3.854   1.794   5.575
 6118SOL    HW118920   3.813   1.720   5.628
 6118SOL    HW218921   3.918   1.845   5.633
 6119SOL     OW18922   3.987   0.326   4.444
 6119SOL    HW118923   3.908   0.377   4.410
 6119SOL    HW218924   3.978   0.311   4.542
 6120SOL     OW18925   4.096   1.288   5.214
 6120SOL    HW118926   4.083   1.381   5.180
 6120SOL    HW218927   4.012   1.236   5.201
 6121SOL     OW18928   4.314   1.487   4.215
 6121SOL    HW118929   4.356   1.429   4.145
 6121SOL    HW218930   4.270   1.566   4.171
 6122SOL     OW18931   3.979   1.348   4.014
 6122SOL    HW118932   3.883   1.349   3.987
 6122SOL    HW218933   3.991   1.401   4.098
 6123SOL     OW18934   3.829   1.013   5.450
 6123SOL    HW118935   3.752   0.980   5.504
 6123SOL    HW218936   3.914   0.983   5.492
 6124SOL     OW18937   4.396   0.203   5.213
 6124SOL    HW118938   4.486   0.187   5.173
 6124SOL    HW218939   4.404   0.208   5.312
 6125SOL     OW18940   3.799   0.345   3.757
 6125SOL    HW118941   3.707   0.317   3.728
 6125SOL    HW218942   3.830   0.422   3.701
 6126SOL     OW18943   3.796   0.166   4.042
 6126SOL    HW118944   3.779   0.249   3.988
 6126SOL    HW218945   3.886   0.129   4.020
 6127SOL     OW18946   4.337   0.842   5.155
 6127SOL    HW118947   4.393   0.923   5.138
 6127SOL    HW218948   4.396   0.762   5.158
 6128SOL     OW18949   4.440   0.565   5.432
 6128SOL    HW118950   4.459   0.630   5.506
 6128SOL    HW218951   4.500   0.485   5.441
 6129SOL     OW18952   4.114   1.741   5.284
 6129SOL    HW118953   4.023   1.782   5.282
 6129SOL    HW218954   4.107   1.647   5.316
 6130SOL     OW18955   4.318   0.745   4.376
 6130SOL    HW118956   4.368   0.830   4.357
 6130SOL    HW218957   4.230   0.747   4.328
 6131SOL     OW18958   3.945   1.314   5.568
 6131SOL    HW118959   3.880   1.241   5.547
 6131SOL    HW218960   3.949   1.328   5.666
 6132SOL     OW18961   3.803   1.240   4.377
 6132SOL    HW118962   3.802   1.193   4.465
 6132SOL    HW218963   3.885   1.212   4.326
 6133SOL     OW18964   4.396   1.391   5.348
 6133SOL    HW118965   4.318   1.341   5.386
 6133SOL    HW218966   4.393   1.486   5.379
 6134SOL     OW18967   4.152   0.424   4.244
 6134SOL    HW118968   4.182   0.352   4.182
 6134SOL    HW218969   4.113   0.384   4.327
 6135SOL     OW18970   4.041   0.547   5.004
 6135SOL    HW118971   4.079   0.488   5.076
 6135SOL    HW218972   4.081   0.521   4.916
 6136SOL     OW18973   4.536   1.586   4.411
 6136SOL    HW118974   4.568   1.596   4.317
 6136SOL    HW218975   4.457   1.524   4.413
 6137SOL     OW18976   3.763   1.077   4.024
 6137SOL    HW118977   3.862   1.066   4.015
 6137SOL    HW218978   3.723   0.991   4.056
 6138SOL     OW18979   3.954   0.628   5.699
 6138SOL    HW118980   3.861   0.626   5.736
 6138SOL    HW218981   3.955   0.589   5.607
 6139SOL     OW18982   3.949   0.275   6.582
 6139SOL    HW118983   3.984   0.258   6.674
 6139SOL    HW218984   3.861   0.230   6.570
 6140SOL     OW18985   3.743   0.368   6.233
 6140SOL    HW118986   3.661   0.411   6.272
 6140SOL    HW218987   3.715   0.295   6.170
 6141SOL     OW18988   4.293   1.275   6.751
 6141SOL    HW118989   4.200   1.268   6.714
 6141SOL    HW218990   4.304   1.364   6.795
 6142SOL     OW18991   4.574   0.798   7.409
 6142SOL    HW118992   4.570   0.874   7.474
 6142SOL    HW218993   4.596   0.834   7.318
 6143SOL     OW18994   4.409   1.012   6.251
 6143SOL    HW118995   4.478   0.996   6.321
 6143SOL    HW218996   4.336   1.069   6.289
 6144SOL     OW18997   4.410   1.161   7.389
 6144SOL    HW118998   4.470   1.240   7.403
 6144SOL    HW218999   4.324   1.192   7.348
 6145SOL     OW19000   4.059   1.435   6.647
 6145SOL    HW119001   3.981   1.404   6.594
 6145SOL    HW219002   4.117   1.493   6.590
 6146SOL     OW19003   4.162   0.392   7.085
 6146SOL    HW119004   4.244   0.336   7.094
 6146SOL    HW219005   4.081   0.334   7.089
 6147SOL     OW19006   3.955   1.713   6.069
 6147SOL    HW119007   3.989   1.790   6.123
 6147SOL    HW219008   3.999   1.713   5.979
 6148SOL     OW19009   3.954   1.434   6.124
 6148SOL    HW119010   3.928   1.530   6.124
 6148SOL    HW219011   3.883   1.380   6.169
 6149SOL     OW19012   3.964   1.091   6.472
 6149SOL    HW119013   3.978   1.007   6.524
 6149SOL    HW219014   3.909   1.155   6.527
 6150SOL     OW19015   4.344   1.786   7.025
 6150SOL    HW119016   4.252   1.769   7.060
 6150SOL    HW219017   4.372   1.878   7.051
 6151SOL     OW19018   4.330   0.964   5.709
 6151SOL    HW119019   4.337   1.048   5.655
 6151SOL    HW219020   4.376   0.977   5.797
 6152SOL     OW19021   3.846   0.643   6.149
 6152SOL    HW119022   3.801   0.555   6.166
 6152SOL    HW219023   3.845   0.697   6.233
 6153SOL     OW19024   3.751   1.596   5.703
 6153SOL    HW119025   3.732   1.500   5.724
 6153SOL    HW219026   3.718   1.654   5.778
 6154SOL     OW19027   3.837   0.737   7.183
 6154SOL    HW119028   3.925   0.724   7.228
 6154SOL    HW219029   3.824   0.834   7.161
 6155SOL     OW19030   4.337   1.365   6.312
 6155SOL    HW119031   4.288   1.278   6.321
 6155SOL    HW219032   4.314   1.408   6.225
 6156SOL     OW19033   4.533   0.004   6.088
 6156SOL    HW119034   4.573   0.095   6.079
 6156SOL    HW219035   4.433   0.012   6.094
 6157SOL     OW19036   3.921   0.976   6.850
 6157SOL    HW119037   4.010   0.931   6.836
 6157SOL    HW219038   3.848   0.911   6.831
 6158SOL     OW19039   4.041   0.251   7.387
 6158SOL    HW119040   4.112   0.322   7.393
 6158SOL    HW219041   3.953   0.290   7.415
 6159SOL     OW19042   4.322   0.729   5.856
 6159SOL    HW119043   4.346   0.798   5.788
 6159SOL    HW219044   4.244   0.762   5.910
 6160SOL     OW19045   3.800   0.811   6.375
 6160SOL    HW119046   3.899   0.799   6.384
 6160SOL    HW219047   3.776   0.906   6.396
 6161SOL     OW19048   3.854   1.821   7.157
 6161SOL    HW119049   3.844   1.806   7.256
 6161SOL    HW219050   3.768   1.857   7.121
 6162SOL     OW19051   4.274   0.196   6.471
 6162SOL    HW119052   4.269   0.191   6.571
 6162SOL    HW219053   4.276   0.292   6.442
 6163SOL     OW19054   4.075   1.801   6.439
 6163SOL    HW119055   4.125   1.715   6.445
 6163SOL    HW219056   4.140   1.878   6.436
 6164SOL     OW19057   4.045   0.943   5.828
 6164SOL    HW119058   4.127   0.982   5.786
 6164SOL    HW219059   4.018   0.861   5.779
 6165SOL     OW19060   4.185   1.266   7.313
 6165SOL    HW119061   4.135   1.267   7.227
 6165SOL    HW219062   4.122   1.248   7.389
 6166SOL     OW19063   3.926   0.285   7.084
 6166SOL    HW119064   3.846   0.345   7.071
 6166SOL    HW219065   3.916   0.236   7.170
 6167SOL     OW19066   4.188   1.743   5.909
 6167SOL    HW119067   4.221   1.782   5.995
 6167SOL    HW219068   4.264   1.736   5.844
 6168SOL     OW19069   3.973   1.785   6.827
 6168SOL    HW119070   4.030   1.720   6.877
 6168SOL    HW219071   3.957   1.752   6.734
 6169SOL     OW19072   4.106   0.700   6.066
 6169SOL    HW119073   4.151   0.610   6.063
 6169SOL    HW219074   4.012   0.689   6.099
 6170SOL     OW19075   4.338   0.122   5.703
 6170SOL    HW119076   4.436   0.100   5.710
 6170SOL    HW219077   4.307   0.105   5.610
 6171SOL     OW19078   4.527   1.402   6.510
 6171SOL    HW119079   4.617   1.416   6.468
 6171SOL    HW219080   4.456   1.404   6.439
 6172SOL     OW19081   4.263   0.064   6.098
 6172SOL    HW119082   4.182   0.065   6.156
 6172SOL    HW219083   4.266   0.147   6.043
 6173SOL     OW19084   4.021   0.035   5.757
 6173SOL    HW119085   4.070   0.119   5.736
 6173SOL    HW219086   4.083  -0.030   5.802
 6174SOL     OW19087   4.800   0.683   7.050
 6174SOL    HW119088   4.720   0.622   7.053
 6174SOL    HW219089   4.881   0.630   7.026
 6175SOL     OW19090   4.183   1.152   6.327
 6175SOL    HW119091   4.112   1.125   6.392
 6175SOL    HW219092   4.157   1.124   6.234
 6176SOL     OW19093   3.802   0.556   6.972
 6176SOL    HW119094   3.894   0.555   6.931
 6176SOL    HW219095   3.796   0.630   7.039
 6177SOL     OW19096   4.285   0.222   6.733
 6177SOL    HW119097   4.323   0.138   6.770
 6177SOL    HW219098   4.197   0.241   6.777
 6178SOL     OW19099   4.212   1.385   5.760
 6178SOL    HW119100   4.125   1.370   5.807
 6178SOL    HW219101   4.195   1.411   5.665
 6179SOL     OW19102   4.251   0.256   5.914
 6179SOL    HW119103   4.278   0.197   5.839
 6179SOL    HW219104   4.251   0.351   5.883
 6180SOL     OW19105   4.134   0.813   6.837
 6180SOL    HW119106   4.220   0.825   6.887
 6180SOL    HW219107   4.092   0.726   6.864
 6181SOL     OW19108   3.788   1.564   6.917
 6181SOL    HW119109   3.742   1.646   6.883
 6181SOL    HW219110   3.886   1.583   6.926
 6182SOL     OW19111   4.091   1.100   6.087
 6182SOL    HW119112   4.084   1.183   6.031
 6182SOL    HW219113   4.095   1.020   6.027
 6183SOL     OW19114   4.290   0.537   6.451
 6183SOL    HW119115   4.302   0.603   6.377
 6183SOL    HW219116   4.336   0.571   6.534
 6184SOL     OW19117   4.078   1.510   6.915
 6184SOL    HW119118   4.057   1.466   6.828
 6184SOL    HW219119   4.175   1.536   6.918
 6185SOL     OW19120   4.126   0.751   7.184
 6185SOL    HW119121   4.194   0.806   7.137
 6185SOL    HW219122   4.166   0.663   7.211
 6186SOL     OW19123   4.228   0.050   7.326
 6186SOL    HW119124   4.186  -0.007   7.256
 6186SOL    HW219125   4.162   0.119   7.358
 6187SOL     OW19126   4.297   0.870   6.615
 6187SOL    HW119127   4.341   0.959   6.606
 6187SOL    HW219128   4.234   0.870   6.692
 6188SOL     OW19129   4.031   0.213   6.817
 6188SOL    HW119130   4.008   0.250   6.907
 6188SOL    HW219131   4.001   0.118   6.811
 6189SOL     OW19132   3.761   1.310   6.868
 6189SOL    HW119133   3.814   1.261   6.936
 6189SOL    HW219134   3.783   1.408   6.873
 6190SOL     OW19135   4.031   0.063   6.204
 6190SOL    HW119136   4.020   0.157   6.237
 6190SOL    HW219137   4.026   0.000   6.281
 6191SOL     OW19138   4.074   0.898   7.390
 6191SOL    HW119139   4.150   0.942   7.438
 6191SOL    HW219140   4.109   0.851   7.308
 6192SOL     OW19141   4.043   0.810   6.535
 6192SOL    HW119142   4.136   0.846   6.540
 6192SOL    HW219143   4.037   0.725   6.587
 6193SOL     OW19144   4.063   0.509   6.592
 6193SOL    HW119145   4.011   0.426   6.575
 6193SOL    HW219146   4.140   0.514   6.528
 6194SOL     OW19147   3.732   1.326   5.786
 6194SOL    HW119148   3.639   1.347   5.755
 6194SOL    HW219149   3.742   1.227   5.799
 6195SOL     OW19150   3.812   1.801   6.513
 6195SOL    HW119151   3.770   1.715   6.486
 6195SOL    HW219152   3.906   1.804   6.479
 6196SOL     OW19153   4.228   1.568   6.496
 6196SOL    HW119154   4.294   1.642   6.505
 6196SOL    HW219155   4.272   1.489   6.454
 6197SOL     OW19156   3.764   0.544   6.700
 6197SOL    HW119157   3.849   0.511   6.659
 6197SOL    HW219158   3.777   0.559   6.798
 6198SOL     OW19159   3.913   0.520   7.308
 6198SOL    HW119160   3.972   0.480   7.238
 6198SOL    HW219161   3.855   0.591   7.267
 6199SOL     OW19162   4.539   0.572   5.911
 6199SOL    HW119163   4.546   0.483   5.865
 6199SOL    HW219164   4.445   0.606   5.903
 6200SOL     OW19165   3.976   1.564   7.330
 6200SOL    HW119166   3.946   1.621   7.406
 6200SOL    HW219167   3.969   1.467   7.356
 6201SOL     OW19168   4.197   0.500   5.777
 6201SOL    HW119169   4.258   0.580   5.781
 6201SOL    HW219170   4.102   0.531   5.784
 6202SOL     OW19171   3.883   1.137   7.052
 6202SOL    HW119172   3.905   1.076   7.128
 6202SOL    HW219173   3.893   1.088   6.966
 6203SOL     OW19174   3.807   1.258   6.608
 6203SOL    HW119175   3.802   1.257   6.708
 6203SOL    HW219176   3.724   1.217   6.570
 6204SOL     OW19177   4.412   1.662   7.302
 6204SOL    HW119178   4.356   1.743   7.311
 6204SOL    HW219179   4.464   1.666   7.216
 6205SOL     OW19180   3.854   1.794   7.437
 6205SOL    HW119181   3.813   1.720   7.490
 6205SOL    HW219182   3.918   1.845   7.495
 6206SOL     OW19183   3.987   0.326   6.306
 6206SOL    HW119184   3.908   0.377   6.272
 6206SOL    HW219185   3.978   0.311   6.404
 6207SOL     OW19186   4.096   1.288   7.076
 6207SOL    HW119187   4.083   1.381   7.042
 6207SOL    HW219188   4.012   1.236   7.063
 6208SOL     OW19189   4.314   1.487   6.077
 6208SOL    HW119190   4.356   1.429   6.007
 6208SOL    HW219191   4.270   1.566   6.033
 6209SOL     OW19192   3.979   1.348   5.876
 6209SOL    HW119193   3.883   1.349   5.849
 6209SOL    HW219194   3.991   1.401   5.960
 6210SOL     OW19195   3.829   1.013   7.312
 6210SOL    HW119196   3.752   0.980   7.366
 6210SOL    HW219197   3.914   0.983   7.354
 6211SOL     OW19198   4.396   0.203   7.075
 6211SOL    HW119199   4.486   0.187   7.035
 6211SOL    HW219200   4.404   0.208   7.174
 6212SOL     OW19201   3.799   0.345   5.619
 6212SOL    HW119202   3.707   0.317   5.590
 6212SOL    HW219203   3.830   0.422   5.563
 6213SOL     OW19204   3.796   0.166   5.904
 6213SOL    HW119205   3.779   0.249   5.850
 6213SOL    HW219206   3.886   0.129   5.882
 6214SOL     OW19207   4.337   0.842   7.017
 6214SOL    HW119208   4.393   0.923   7.000
 6214SOL    HW219209   4.396   0.762   7.020
 6215SOL     OW19210   4.440   0.565   7.294
 6215SOL    HW119211   4.459   0.630   7.368
 6215SOL    HW219212   4.500   0.485   7.303
 6216SOL     OW19213   4.114   1.741   7.146
 6216SOL    HW119214   4.023   1.782   7.144
 6216SOL    HW219215   4.107   1.647   7.178
 6217SOL     OW19216   4.318   0.745   6.238
 6217SOL    HW119217   4.368   0.830   6.219
 6217SOL    HW219218   4.230   0.747   6.190
 6218SOL     OW19219   3.945   1.314   7.430
 6218SOL    HW119220   3.880   1.241   7.409
 6218SOL    HW219221   3.949   1.328   7.528
 6219SOL     OW19222   3.803   1.240   6.239
 6219SOL    HW119223   3.802   1.193   6.327
 6219SOL    HW219224   3.885   1.212   6.188
 6220SOL     OW19225   4.396   1.391   7.210
 6220SOL    HW119226   4.318   1.341   7.248
 6220SOL    HW219227   4.393   1.486   7.241
 6221SOL     OW19228   4.152   0.424   6.106
 6221SOL    HW119229   4.182   0.352   6.044
 6221SOL    HW219230   4.113   0.384   6.189
 6222SOL     OW19231   4.041   0.547   6.866
 6222SOL    HW119232   4.079   0.488   6.938
 6222SOL    HW219233   4.081   0.521   6.778
 6223SOL     OW19234   4.536   1.586   6.273
 6223SOL    HW119235   4.568   1.596   6.179
 6223SOL    HW219236   4.457   1.524   6.275
 6224SOL     OW19237   3.763   1.077   5.886
 6224SOL    HW119238   3.862   1.066   5.877
 6224SOL    HW219239   3.723   0.991   5.918
 6225SOL     OW19240   3.954   0.628   7.561
 6225SOL    HW119241   3.861   0.626   7.598
 6225SOL    HW219242   3.955   0.589   7.469
 6226SOL     OW19243   3.949   0.275   8.444
 6226SOL    HW119244   3.984   0.258   8.536
 6226SOL    HW219245   3.861   0.230   8.432
 6227SOL     OW19246   3.743   0.368   8.095
 6227SOL    HW119247   3.661   0.411   8.134
 6227SOL    HW219248   3.715   0.295   8.032
 6228SOL     OW19249   4.293   1.275   8.613
 6228SOL    HW119250   4.200   1.268   8.576
 6228SOL    HW219251   4.304   1.364   8.657
 6229SOL     OW19252   4.574   0.798   9.271
 6229SOL    HW119253   4.570   0.874   9.336
 6229SOL    HW219254   4.596   0.834   9.180
 6230SOL     OW19255   4.409   1.012   8.113
 6230SOL    HW119256   4.478   0.996   8.183
 6230SOL    HW219257   4.336   1.069   8.151
 6231SOL     OW19258   4.410   1.161   9.251
 6231SOL    HW119259   4.470   1.240   9.265
 6231SOL    HW219260   4.324   1.192   9.210
 6232SOL     OW19261   4.059   1.435   8.509
 6232SOL    HW119262   3.981   1.404   8.456
 6232SOL    HW219263   4.117   1.493   8.452
 6233SOL     OW19264   4.162   0.392   8.947
 6233SOL    HW119265   4.244   0.336   8.956
 6233SOL    HW219266   4.081   0.334   8.951
 6234SOL     OW19267   3.955   1.713   7.931
 6234SOL    HW119268   3.989   1.790   7.985
 6234SOL    HW219269   3.999   1.713   7.841
 6235SOL     OW19270   3.954   1.434   7.986
 6235SOL    HW119271   3.928   1.530   7.986
 6235SOL    HW219272   3.883   1.380   8.031
 6236SOL     OW19273   3.964   1.091   8.334
 6236SOL    HW119274   3.978   1.007   8.386
 6236SOL    HW219275   3.909   1.155   8.389
 6237SOL     OW19276   4.344   1.786   8.887
 6237SOL    HW119277   4.252   1.769   8.922
 6237SOL    HW219278   4.372   1.878   8.913
 6238SOL     OW19279   4.330   0.964   7.571
 6238SOL    HW119280   4.337   1.048   7.517
 6238SOL    HW219281   4.376   0.977   7.659
 6239SOL     OW19282   3.846   0.643   8.011
 6239SOL    HW119283   3.801   0.555   8.028
 6239SOL    HW219284   3.845   0.697   8.095
 6240SOL     OW19285   3.751   1.596   7.565
 6240SOL    HW119286   3.732   1.500   7.586
 6240SOL    HW219287   3.718   1.654   7.640
 6241SOL     OW19288   3.837   0.737   9.045
 6241SOL    HW119289   3.925   0.724   9.090
 6241SOL    HW219290   3.824   0.834   9.023
 6242SOL     OW19291   4.337   1.365   8.174
 6242SOL    HW119292   4.288   1.278   8.183
 6242SOL    HW219293   4.314   1.408   8.087
 6243SOL     OW19294   4.533   0.004   7.950
 6243SOL    HW119295   4.573   0.095   7.941
 6243SOL    HW219296   4.433   0.012   7.956
 6244SOL     OW19297   3.921   0.976   8.712
 6244SOL    HW119298   4.010   0.931   8.698
 6244SOL    HW219299   3.848   0.911   8.693
 6245SOL     OW19300   4.041   0.251   9.249
 6245SOL    HW119301   4.112   0.322   9.255
 6245SOL    HW219302   3.953   0.290   9.277
 6246SOL     OW19303   4.322   0.729   7.718
 6246SOL    HW119304   4.346   0.798   7.650
 6246SOL    HW219305   4.244   0.762   7.772
 6247SOL     OW19306   3.800   0.811   8.237
 6247SOL    HW119307   3.899   0.799   8.246
 6247SOL    HW219308   3.776   0.906   8.258
 6248SOL     OW19309   3.854   1.821   9.019
 6248SOL    HW119310   3.844   1.806   9.118
 6248SOL    HW219311   3.768   1.857   8.983
 6249SOL     OW19312   4.274   0.196   8.333
 6249SOL    HW119313   4.269   0.191   8.433
 6249SOL    HW219314   4.276   0.292   8.304
 6250SOL     OW19315   4.075   1.801   8.301
 6250SOL    HW119316   4.125   1.715   8.307
 6250SOL    HW219317   4.140   1.878   8.298
 6251SOL     OW19318   4.045   0.943   7.690
 6251SOL    HW119319   4.127   0.982   7.648
 6251SOL    HW219320   4.018   0.861   7.641
 6252SOL     OW19321   4.185   1.266   9.175
 6252SOL    HW119322   4.135   1.267   9.089
 6252SOL    HW219323   4.122   1.248   9.251
 6253SOL     OW19324   3.926   0.285   8.946
 6253SOL    HW119325   3.846   0.345   8.933
 6253SOL    HW219326   3.916   0.236   9.032
 6254SOL     OW19327   4.188   1.743   7.771
 6254SOL    HW119328   4.221   1.782   7.857
 6254SOL    HW219329   4.264   1.736   7.706
 6255SOL     OW19330   3.973   1.785   8.689
 6255SOL    HW119331   4.030   1.720   8.739
 6255SOL    HW219332   3.957   1.752   8.596
 6256SOL     OW19333   4.106   0.700   7.928
 6256SOL    HW119334   4.151   0.610   7.925
 6256SOL    HW219335   4.012   0.689   7.961
 6257SOL     OW19336   4.338   0.122   7.565
 6257SOL    HW119337   4.436   0.100   7.572
 6257SOL    HW219338   4.307   0.105   7.472
 6258SOL     OW19339   4.527   1.402   8.372
 6258SOL    HW119340   4.617   1.416   8.330
 6258SOL    HW219341   4.456   1.404   8.301
 6259SOL     OW19342   4.263   0.064   7.960
 6259SOL    HW119343   4.182   0.065   8.018
 6259SOL    HW219344   4.266   0.147   7.905
 6260SOL     OW19345   4.021   0.035   7.619
 6260SOL    HW119346   4.070   0.119   7.598
 6260SOL    HW219347   4.083  -0.030   7.664
 6261SOL     OW19348   4.800   0.683   8.912
 6261SOL    HW119349   4.720   0.622   8.915
 6261SOL    HW219350   4.881   0.630   8.888
 6262SOL     OW19351   4.183   1.152   8.189
 6262SOL    HW119352   4.112   1.125   8.254
 6262SOL    HW219353   4.157   1.124   8.096
 6263SOL     OW19354   3.802   0.556   8.834
 6263SOL    HW119355   3.894   0.555   8.793
 6263SOL    HW219356   3.796   0.630   8.901
 6264SOL     OW19357   4.285   0.222   8.595
 6264SOL    HW119358   4.323   0.138   8.632
 6264SOL    HW219359   4.197   0.241   8.639
 6265SOL     OW19360   4.212   1.385   7.622
 6265SOL    HW119361   4.125   1.370   7.669
 6265SOL    HW219362   4.195   1.411   7.527
 6266SOL     OW19363   4.251   0.256   7.776
 6266SOL    HW119364   4.278   0.197   7.701
 6266SOL    HW219365   4.251   0.351   7.745
 6267SOL     OW19366   4.134   0.813   8.699
 6267SOL    HW119367   4.220   0.825   8.749
 6267SOL    HW219368   4.092   0.726   8.726
 6268SOL     OW19369   3.788   1.564   8.779
 6268SOL    HW119370   3.742   1.646   8.745
 6268SOL    HW219371   3.886   1.583   8.788
 6269SOL     OW19372   4.091   1.100   7.949
 6269SOL    HW119373   4.084   1.183   7.893
 6269SOL    HW219374   4.095   1.020   7.889
 6270SOL     OW19375   4.290   0.537   8.313
 6270SOL    HW119376   4.302   0.603   8.239
 6270SOL    HW219377   4.336   0.571   8.396
 6271SOL     OW19378   4.078   1.510   8.777
 6271SOL    HW119379   4.057   1.466   8.690
 6271SOL    HW219380   4.175   1.536   8.780
 6272SOL     OW19381   4.126   0.751   9.046
 6272SOL    HW119382   4.194   0.806   8.999
 6272SOL    HW219383   4.166   0.663   9.073
 6273SOL     OW19384   4.228   0.050   9.188
 6273SOL    HW119385   4.186  -0.007   9.118
 6273SOL    HW219386   4.162   0.119   9.220
 6274SOL     OW19387   4.297   0.870   8.477
 6274SOL    HW119388   4.341   0.959   8.468
 6274SOL    HW219389   4.234   0.870   8.554
 6275SOL     OW19390   4.031   0.213   8.679
 6275SOL    HW119391   4.008   0.250   8.769
 6275SOL    HW219392   4.001   0.118   8.673
 6276SOL     OW19393   3.761   1.310   8.730
 6276SOL    HW119394   3.814   1.261   8.798
 6276SOL    HW219395   3.783   1.408   8.735
 6277SOL     OW19396   4.031   0.063   8.066
 6277SOL    HW119397   4.020   0.157   8.099
 6277SOL    HW219398   4.026   0.000   8.143
 6278SOL     OW19399   4.074   0.898   9.252
 6278SOL    HW119400   4.150   0.942   9.300
 6278SOL    HW219401   4.109   0.851   9.170
 6279SOL     OW19402   4.043   0.810   8.397
 6279SOL    HW119403   4.136   0.846   8.402
 6279SOL    HW219404   4.037   0.725   8.449
 6280SOL     OW19405   4.063   0.509   8.454
 6280SOL    HW119406   4.011   0.426   8.437
 6280SOL    HW219407   4.140   0.514   8.390
 6281SOL     OW19408   3.732   1.326   7.648
 6281SOL    HW119409   3.639   1.347   7.617
 6281SOL    HW219410   3.742   1.227   7.661
 6282SOL     OW19411   3.812   1.801   8.375
 6282SOL    HW119412   3.770   1.715   8.348
 6282SOL    HW219413   3.906   1.804   8.341
 6283SOL     OW19414   4.228   1.568   8.358
 6283SOL    HW119415   4.294   1.642   8.367
 6283SOL    HW219416   4.272   1.489   8.316
 6284SOL     OW19417   3.764   0.544   8.562
 6284SOL    HW119418   3.849   0.511   8.521
 6284SOL    HW219419   3.777   0.559   8.660
 6285SOL     OW19420   3.913   0.520   9.170
 6285SOL    HW119421   3.972   0.480   9.100
 6285SOL    HW219422   3.855   0.591   9.129
 6286SOL     OW19423   4.539   0.572   7.773
 6286SOL    HW119424   4.546   0.483   7.727
 6286SOL    HW219425   4.445   0.606   7.765
 6287SOL     OW19426   3.976   1.564   9.192
 6287SOL    HW119427   3.946   1.621   9.268
 6287SOL    HW219428   3.969   1.467   9.218
 6288SOL     OW19429   4.197   0.500   7.639
 6288SOL    HW119430   4.258   0.580   7.643
 6288SOL    HW219431   4.102   0.531   7.646
 6289SOL     OW19432   3.883   1.137   8.914
 6289SOL    HW119433   3.905   1.076   8.990
 6289SOL    HW219434   3.893   1.088   8.828
 6290SOL     OW19435   3.807   1.258   8.470
 6290SOL    HW119436   3.802   1.257   8.570
 6290SOL    HW219437   3.724   1.217   8.432
 6291SOL     OW19438   4.412   1.662   9.164
 6291SOL    HW119439   4.356   1.743   9.173
 6291SOL    HW219440   4.464   1.666   9.078
 6292SOL     OW19441   3.854   1.794   9.299
 6292SOL    HW119442   3.813   1.720   9.352
 6292SOL    HW219443   3.918   1.845   9.357
 6293SOL     OW19444   3.987   0.326   8.168
 6293SOL    HW119445   3.908   0.377   8.134
 6293SOL    HW219446   3.978   0.311   8.266
 6294SOL     OW19447   4.096   1.288   8.938
 6294SOL    HW119448   4.083   1.381   8.904
 6294SOL    HW219449   4.012   1.236   8.925
 6295SOL     OW19450   4.314   1.487   7.939
 6295SOL    HW119451   4.356   1.429   7.869
 6295SOL    HW219452   4.270   1.566   7.895
 6296SOL     OW19453   3.979   1.348   7.738
 6296SOL    HW119454   3.883   1.349   7.711
 6296SOL    HW219455   3.991   1.401   7.822
 6297SOL     OW19456   3.829   1.013   9.174
 6297SOL    HW119457   3.752   0.980   9.228
 6297SOL    HW219458   3.914   0.983   9.216
 6298SOL     OW19459   4.396   0.203   8.937
 6298SOL    HW119460   4.486   0.187   8.897
 6298SOL    HW219461   4.404   0.208   9.036
 6299SOL     OW19462   3.799   0.345   7.481
 6299SOL    HW119463   3.707   0.317   7.452
 6299SOL    HW219464   3.830   0.422   7.425
 6300SOL     OW19465   3.796   0.166   7.766
 6300SOL    HW119466   3.779   0.249   7.712
 6300SOL    HW219467   3.886   0.129   7.744
 6301SOL     OW19468   4.337   0.842   8.879
 6301SOL    HW119469   4.393   0.923   8.862
 6301SOL    HW219470   4.396   0.762   8.882
 6302SOL     OW19471   4.440   0.565   9.156
 6302SOL    HW119472   4.459   0.630   9.230
 6302SOL    HW219473   4.500   0.485   9.165
 6303SOL     OW19474   4.114   1.741   9.008
 6303SOL    HW119475   4.023   1.782   9.006
 6303SOL    HW219476   4.107   1.647   9.040
 6304SOL     OW19477   4.318   0.745   8.100
 6304SOL    HW119478   4.368   0.830   8.081
 6304SOL    HW219479   4.230   0.747   8.052
 6305SOL     OW19480   3.945   1.314   9.292
 6305SOL    HW119481   3.880   1.241   9.271
 6305SOL    HW219482   3.949   1.328   9.390
 6306SOL     OW19483   3.803   1.240   8.101
 6306SOL    HW119484   3.802   1.193   8.189
 6306SOL    HW219485   3.885   1.212   8.050
 6307SOL     OW19486   4.396   1.391   9.072
 6307SOL    HW119487   4.318   1.341   9.110
 6307SOL    HW219488   4.393   1.486   9.103
 6308SOL     OW19489   4.152   0.424   7.968
 6308SOL    HW119490   4.182   0.352   7.906
 6308SOL    HW219491   4.113   0.384   8.051
 6309SOL     OW19492   4.041   0.547   8.728
 6309SOL    HW119493   4.079   0.488   8.800
 6309SOL    HW219494   4.081   0.521   8.640
 6310SOL     OW19495   4.536   1.586   8.135
 6310SOL    HW119496   4.568   1.596   8.041
 6310SOL    HW219497   4.457   1.524   8.137
 6311SOL     OW19498   3.763   1.077   7.748
 6311SOL    HW119499   3.862   1.066   7.739
 6311SOL    HW219500   3.723   0.991   7.780
 6312SOL     OW19501   3.954   0.628   9.423
 6312SOL    HW119502   3.861   0.626   9.460
 6312SOL    HW219503   3.955   0.589   9.331
 6313SOL     OW19504   3.949   0.275  10.306
 6313SOL    HW119505   3.984   0.258  10.398
 6313SOL    HW219506   3.861   0.230  10.294
 6314SOL     OW19507   3.743   0.368   9.957
 6314SOL    HW119508   3.661   0.411   9.996
 6314SOL    HW219509   3.715   0.295   9.894
 6315SOL     OW19510   4.293   1.275  10.475
 6315SOL    HW119511   4.200   1.268  10.438
 6315SOL    HW219512   4.304   1.364  10.519
 6316SOL     OW19513   4.574   0.798  11.133
 6316SOL    HW119514   4.570   0.874  11.198
 6316SOL    HW219515   4.596   0.834  11.042
 6317SOL     OW19516   4.409   1.012   9.975
 6317SOL    HW119517   4.478   0.996  10.045
 6317SOL    HW219518   4.336   1.069  10.013
 6318SOL     OW19519   4.059   1.435  10.371
 6318SOL    HW119520   3.981   1.404  10.318
 6318SOL    HW219521   4.117   1.493  10.314
 6319SOL     OW19522   4.162   0.392  10.809
 6319SOL    HW119523   4.244   0.336  10.818
 6319SOL    HW219524   4.081   0.334  10.813
 6320SOL     OW19525   3.955   1.713   9.793
 6320SOL    HW119526   3.989   1.790   9.847
 6320SOL    HW219527   3.999   1.713   9.703
 6321SOL     OW19528   3.954   1.434   9.848
 6321SOL    HW119529   3.928   1.530   9.848
 6321SOL    HW219530   3.883   1.380   9.893
 6322SOL     OW19531   3.964   1.091  10.196
 6322SOL    HW119532   3.978   1.007  10.248
 6322SOL    HW219533   3.909   1.155  10.251
 6323SOL     OW19534   4.344   1.786  10.749
 6323SOL    HW119535   4.252   1.769  10.784
 6323SOL    HW219536   4.372   1.878  10.775
 6324SOL     OW19537   4.330   0.964   9.433
 6324SOL    HW119538   4.337   1.048   9.379
 6324SOL    HW219539   4.376   0.977   9.521
 6325SOL     OW19540   3.846   0.643   9.873
 6325SOL    HW119541   3.801   0.555   9.890
 6325SOL    HW219542   3.845   0.697   9.957
 6326SOL     OW19543   3.751   1.596   9.427
 6326SOL    HW119544   3.732   1.500   9.448
 6326SOL    HW219545   3.718   1.654   9.502
 6327SOL     OW19546   3.837   0.737  10.907
 6327SOL    HW119547   3.925   0.724  10.952
 6327SOL    HW219548   3.824   0.834  10.885
 6328SOL     OW19549   4.337   1.365  10.036
 6328SOL    HW119550   4.288   1.278  10.045
 6328SOL    HW219551   4.314   1.408   9.949
 6329SOL     OW19552   4.533   0.004   9.812
 6329SOL    HW119553   4.573   0.095   9.803
 6329SOL    HW219554   4.433   0.012   9.818
 6330SOL     OW19555   3.921   0.976  10.574
 6330SOL    HW119556   4.010   0.931  10.560
 6330SOL    HW219557   3.848   0.911  10.555
 6331SOL     OW19558   4.041   0.251  11.111
 6331SOL    HW119559   4.112   0.322  11.117
 6331SOL    HW219560   3.953   0.290  11.139
 6332SOL     OW19561   4.322   0.729   9.580
 6332SOL    HW119562   4.346   0.798   9.512
 6332SOL    HW219563   4.244   0.762   9.634
 6333SOL     OW19564   3.800   0.811  10.099
 6333SOL    HW119565   3.899   0.799  10.108
 6333SOL    HW219566   3.776   0.906  10.120
 6334SOL     OW19567   3.854   1.821  10.881
 6334SOL    HW119568   3.844   1.806  10.980
 6334SOL    HW219569   3.768   1.857  10.845
 6335SOL     OW19570   4.274   0.196  10.195
 6335SOL    HW119571   4.269   0.191  10.295
 6335SOL    HW219572   4.276   0.292  10.166
 6336SOL     OW19573   4.075   1.801  10.163
 6336SOL    HW119574   4.125   1.715  10.169
 6336SOL    HW219575   4.140   1.878  10.160
 6337SOL     OW19576   4.045   0.943   9.552
 6337SOL    HW119577   4.127   0.982   9.510
 6337SOL    HW219578   4.018   0.861   9.503
 6338SOL     OW19579   4.185   1.266  11.037
 6338SOL    HW119580   4.135   1.267  10.951
 6338SOL    HW219581   4.122   1.248  11.113
 6339SOL     OW19582   3.926   0.285  10.808
 6339SOL    HW119583   3.846   0.345  10.795
 6339SOL    HW219584   3.916   0.236  10.894
 6340SOL     OW19585   4.188   1.743   9.633
 6340SOL    HW119586   4.221   1.782   9.719
 6340SOL    HW219587   4.264   1.736   9.568
 6341SOL     OW19588   3.973   1.785  10.551
 6341SOL    HW119589   4.030   1.720  10.601
 6341SOL    HW219590   3.957   1.752  10.458
 6342SOL     OW19591   4.106   0.700   9.790
 6342SOL    HW119592   4.151   0.610   9.787
 6342SOL    HW219593   4.012   0.689   9.823
 6343SOL     OW19594   4.338   0.122   9.427
 6343SOL    HW119595   4.436   0.100   9.434
 6343SOL    HW219596   4.307   0.105   9.334
 6344SOL     OW19597   4.527   1.402  10.234
 6344SOL    HW119598   4.617   1.416  10.192
 6344SOL    HW219599   4.456   1.404  10.163
 6345SOL     OW19600   4.263   0.064   9.822
 6345SOL    HW119601   4.182   0.065   9.880
 6345SOL    HW219602   4.266   0.147   9.767
 6346SOL     OW19603   4.021   0.035   9.481
 6346SOL    HW119604   4.070   0.119   9.460
 6346SOL    HW219605   4.083  -0.030   9.526
 6347SOL     OW19606   4.800   0.683  10.774
 6347SOL    HW119607   4.720   0.622  10.777
 6347SOL    HW219608   4.881   0.630  10.750
 6348SOL     OW19609   4.183   1.152  10.051
 6348SOL    HW119610   4.112   1.125  10.116
 6348SOL    HW219611   4.157   1.124   9.958
 6349SOL     OW19612   3.802   0.556  10.696
 6349SOL    HW119613   3.894   0.555  10.655
 6349SOL    HW219614   3.796   0.630  10.763
 6350SOL     OW19615   4.285   0.222  10.457
 6350SOL    HW119616   4.323   0.138  10.494
 6350SOL    HW219617   4.197   0.241  10.501
 6351SOL     OW19618   4.212   1.385   9.484
 6351SOL    HW119619   4.125   1.370   9.531
 6351SOL    HW219620   4.195   1.411   9.389
 6352SOL     OW19621   4.251   0.256   9.638
 6352SOL    HW119622   4.278   0.197   9.563
 6352SOL    HW219623   4.251   0.351   9.607
 6353SOL     OW19624   4.134   0.813  10.561
 6353SOL    HW119625   4.220   0.825  10.611
 6353SOL    HW219626   4.092   0.726  10.588
 6354SOL     OW19627   3.788   1.564  10.641
 6354SOL    HW119628   3.742   1.646  10.607
 6354SOL    HW219629   3.886   1.583  10.650
 6355SOL     OW19630   4.091   1.100   9.811
 6355SOL    HW119631   4.084   1.183   9.755
 6355SOL    HW219632   4.095   1.020   9.751
 6356SOL     OW19633   4.290   0.537  10.175
 6356SOL    HW119634   4.302   0.603  10.101
 6356SOL    HW219635   4.336   0.571  10.258
 6357SOL     OW19636   4.078   1.510  10.639
 6357SOL    HW119637   4.057   1.466  10.552
 6357SOL    HW219638   4.175   1.536  10.642
 6358SOL     OW19639   4.126   0.751  10.908
 6358SOL    HW119640   4.194   0.806  10.861
 6358SOL    HW219641   4.166   0.663  10.935
 6359SOL     OW19642   4.297   0.870  10.339
 6359SOL    HW119643   4.341   0.959  10.330
 6359SOL    HW219644   4.234   0.870  10.416
 6360SOL     OW19645   4.031   0.213  10.541
 6360SOL    HW119646   4.008   0.250  10.631
 6360SOL    HW219647   4.001   0.118  10.535
 6361SOL     OW19648   3.761   1.310  10.592
 6361SOL    HW119649   3.814   1.261  10.660
 6361SOL    HW219650   3.783   1.408  10.597
 6362SOL     OW19651   4.031   0.063   9.928
 6362SOL    HW119652   4.020   0.157   9.961
 6362SOL    HW219653   4.026   0.000  10.005
 6363SOL     OW19654   4.074   0.898  11.114
 6363SOL    HW119655   4.150   0.942  11.162
 6363SOL    HW219656   4.109   0.851  11.032
 6364SOL     OW19657   4.043   0.810  10.259
 6364SOL    HW119658   4.136   0.846  10.264
 6364SOL    HW219659   4.037   0.725  10.311
 6365SOL     OW19660   4.063   0.509  10.316
 6365SOL    HW119661   4.011   0.426  10.299
 6365SOL    HW219662   4.140   0.514  10.252
 6366SOL     OW19663   3.732   1.326   9.510
 6366SOL    HW119664   3.639   1.347   9.479
 6366SOL    HW219665   3.742   1.227   9.523
 6367SOL     OW19666   3.812   1.801  10.237
 6367SOL    HW119667   3.770   1.715  10.210
 6367SOL    HW219668   3.906   1.804  10.203
 6368SOL     OW19669   4.228   1.568  10.220
 6368SOL    HW119670   4.294   1.642  10.229
 6368SOL    HW219671   4.272   1.489  10.178
 6369SOL     OW19672   3.764   0.544  10.424
 6369SOL    HW119673   3.849   0.511  10.383
 6369SOL    HW219674   3.777   0.559  10.522
 6370SOL     OW19675   4.539   0.572   9.635
 6370SOL    HW119676   4.546   0.483   9.589
 6370SOL    HW219677   4.445   0.606   9.627
 6371SOL     OW19678   3.976   1.564  11.054
 6371SOL    HW119679   3.946   1.621  11.130
 6371SOL    HW219680   3.969   1.467  11.080
 6372SOL     OW19681   4.197   0.500   9.501
 6372SOL    HW119682   4.258   0.580   9.505
 6372SOL    HW219683   4.102   0.531   9.508
 6373SOL     OW19684   3.883   1.137  10.776
 6373SOL    HW119685   3.905   1.076  10.852
 6373SOL    HW219686   3.893   1.088  10.690
 6374SOL     OW19687   3.807   1.258  10.332
 6374SOL    HW119688   3.802   1.257  10.432
 6374SOL    HW219689   3.724   1.217  10.294
 6375SOL     OW19690   4.412   1.662  11.026
 6375SOL    HW119691   4.356   1.743  11.035
 6375SOL    HW219692   4.464   1.666  10.940
 6376SOL     OW19693   3.987   0.326  10.030
 6376SOL    HW119694   3.908   0.377   9.996
 6376SOL    HW219695   3.978   0.311  10.128
 6377SOL     OW19696   4.096   1.288  10.800
 6377SOL    HW119697   4.083   1.381  10.766
 6377SOL    HW219698   4.012   1.236  10.787
 6378SOL     OW19699   4.314   1.487   9.801
 6378SOL    HW119700   4.356   1.429   9.731
 6378SOL    HW219701   4.270   1.566   9.757
 6379SOL     OW19702   3.979   1.348   9.600
 6379SOL    HW119703   3.883   1.349   9.573
 6379SOL    HW219704   3.991   1.401   9.684
 6380SOL     OW19705   3.829   1.013  11.036
 6380SOL    HW119706   3.752   0.980  11.090
 6380SOL    HW219707   3.914   0.983  11.078
 6381SOL     OW19708   4.396   0.203  10.799
 6381SOL    HW119709   4.486   0.187  10.759
 6381SOL    HW219710   4.404   0.208  10.898
 6382SOL     OW19711   3.799   0.345   9.343
 6382SOL    HW119712   3.707   0.317   9.314
 6382SOL    HW219713   3.830   0.422   9.287
 6383SOL     OW19714   3.796   0.166   9.628
 6383SOL    HW119715   3.779   0.249   9.574
 6383SOL    HW219716   3.886   0.129   9.606
 6384SOL     OW19717   4.337   0.842  10.741
 6384SOL    HW119718   4.393   0.923  10.724
 6384SOL    HW219719   4.396   0.762  10.744
 6385SOL     OW19720   4.114   1.741  10.870
 6385SOL    HW119721   4.023   1.782  10.868
 6385SOL    HW219722   4.107   1.647  10.902
 6386SOL     OW19723   4.318   0.745   9.962
 6386SOL    HW119724   4.368   0.830   9.943
 6386SOL    HW219725   4.230   0.747   9.914
 6387SOL     OW19726   3.803   1.240   9.963
 6387SOL    HW119727   3.802   1.193  10.051
 6387SOL    HW219728   3.885   1.212   9.912
 6388SOL     OW19729   4.396   1.391  10.934
 6388SOL    HW119730   4.318   1.341  10.972
 6388SOL    HW219731   4.393   1.486  10.965
 6389SOL     OW19732   4.152   0.424   9.830
 6389SOL    HW119733   4.182   0.352   9.768
 6389SOL    HW219734   4.113   0.384   9.913
 6390SOL     OW19735   4.041   0.547  10.590
 6390SOL    HW119736   4.079   0.488  10.662
 6390SOL    HW219737   4.081   0.521  10.502
 6391SOL     OW19738   4.536   1.586   9.997
 6391SOL    HW119739   4.568   1.596   9.903
 6391SOL    HW219740   4.457   1.524   9.999
 6392SOL     OW19741   3.763   1.077   9.610
 6392SOL    HW119742   3.862   1.066   9.601
 6392SOL    HW219743   3.723   0.991   9.642
 6393SOL     OW19744   3.954   2.490   0.113
 6393SOL    HW119745   3.861   2.488   0.150
 6393SOL    HW219746   3.955   2.451   0.021
 6394SOL     OW19747   3.949   2.137   0.996
 6394SOL    HW119748   3.984   2.120   1.088
 6394SOL    HW219749   3.861   2.092   0.984
 6395SOL     OW19750   3.743   2.230   0.647
 6395SOL    HW119751   3.661   2.273   0.686
 6395SOL    HW219752   3.715   2.157   0.584
 6396SOL     OW19753   4.293   3.137   1.165
 6396SOL    HW119754   4.200   3.130   1.128
 6396SOL    HW219755   4.304   3.226   1.209
 6397SOL     OW19756   4.574   2.660   1.823
 6397SOL    HW119757   4.570   2.736   1.888
 6397SOL    HW219758   4.596   2.696   1.732
 6398SOL     OW19759   4.409   2.874   0.665
 6398SOL    HW119760   4.478   2.858   0.735
 6398SOL    HW219761   4.336   2.931   0.703
 6399SOL     OW19762   4.410   3.023   1.803
 6399SOL    HW119763   4.470   3.102   1.817
 6399SOL    HW219764   4.324   3.054   1.762
 6400SOL     OW19765   4.059   3.297   1.061
 6400SOL    HW119766   3.981   3.266   1.008
 6400SOL    HW219767   4.117   3.355   1.004
 6401SOL     OW19768   4.162   2.254   1.499
 6401SOL    HW119769   4.244   2.198   1.508
 6401SOL    HW219770   4.081   2.196   1.503
 6402SOL     OW19771   3.955   3.575   0.483
 6402SOL    HW119772   3.989   3.652   0.537
 6402SOL    HW219773   3.999   3.575   0.393
 6403SOL     OW19774   3.954   3.296   0.538
 6403SOL    HW119775   3.928   3.392   0.538
 6403SOL    HW219776   3.883   3.242   0.583
 6404SOL     OW19777   3.964   2.953   0.886
 6404SOL    HW119778   3.978   2.869   0.938
 6404SOL    HW219779   3.909   3.017   0.941
 6405SOL     OW19780   4.344   3.648   1.439
 6405SOL    HW119781   4.252   3.631   1.474
 6405SOL    HW219782   4.372   3.740   1.465
 6406SOL     OW19783   4.330   2.826   0.123
 6406SOL    HW119784   4.337   2.910   0.069
 6406SOL    HW219785   4.376   2.839   0.211
 6407SOL     OW19786   3.846   2.505   0.563
 6407SOL    HW119787   3.801   2.417   0.580
 6407SOL    HW219788   3.845   2.559   0.647
 6408SOL     OW19789   3.751   3.458   0.117
 6408SOL    HW119790   3.732   3.362   0.138
 6408SOL    HW219791   3.718   3.516   0.192
 6409SOL     OW19792   3.837   2.599   1.597
 6409SOL    HW119793   3.925   2.586   1.642
 6409SOL    HW219794   3.824   2.696   1.575
 6410SOL     OW19795   4.337   3.227   0.726
 6410SOL    HW119796   4.288   3.140   0.735
 6410SOL    HW219797   4.314   3.270   0.639
 6411SOL     OW19798   4.533   1.866   0.502
 6411SOL    HW119799   4.573   1.957   0.493
 6411SOL    HW219800   4.433   1.874   0.508
 6412SOL     OW19801   3.921   2.838   1.264
 6412SOL    HW119802   4.010   2.793   1.250
 6412SOL    HW219803   3.848   2.773   1.245
 6413SOL     OW19804   4.041   2.113   1.801
 6413SOL    HW119805   4.112   2.184   1.807
 6413SOL    HW219806   3.953   2.152   1.829
 6414SOL     OW19807   4.322   2.591   0.270
 6414SOL    HW119808   4.346   2.660   0.202
 6414SOL    HW219809   4.244   2.624   0.324
 6415SOL     OW19810   3.800   2.673   0.789
 6415SOL    HW119811   3.899   2.661   0.798
 6415SOL    HW219812   3.776   2.768   0.810
 6416SOL     OW19813   3.854   3.683   1.571
 6416SOL    HW119814   3.844   3.668   1.670
 6416SOL    HW219815   3.768   3.719   1.535
 6417SOL     OW19816   4.274   2.058   0.885
 6417SOL    HW119817   4.269   2.053   0.985
 6417SOL    HW219818   4.276   2.154   0.856
 6418SOL     OW19819   4.075   3.663   0.853
 6418SOL    HW119820   4.125   3.577   0.859
 6418SOL    HW219821   4.140   3.740   0.850
 6419SOL     OW19822   4.045   2.805   0.242
 6419SOL    HW119823   4.127   2.844   0.200
 6419SOL    HW219824   4.018   2.723   0.193
 6420SOL     OW19825   4.185   3.128   1.727
 6420SOL    HW119826   4.135   3.129   1.641
 6420SOL    HW219827   4.122   3.110   1.803
 6421SOL     OW19828   3.926   2.147   1.498
 6421SOL    HW119829   3.846   2.207   1.485
 6421SOL    HW219830   3.916   2.098   1.584
 6422SOL     OW19831   4.188   3.605   0.323
 6422SOL    HW119832   4.221   3.644   0.409
 6422SOL    HW219833   4.264   3.598   0.258
 6423SOL     OW19834   3.973   3.647   1.241
 6423SOL    HW119835   4.030   3.582   1.291
 6423SOL    HW219836   3.957   3.614   1.148
 6424SOL     OW19837   4.106   2.562   0.480
 6424SOL    HW119838   4.151   2.472   0.477
 6424SOL    HW219839   4.012   2.551   0.513
 6425SOL     OW19840   4.338   1.984   0.117
 6425SOL    HW119841   4.436   1.962   0.124
 6425SOL    HW219842   4.307   1.967   0.024
 6426SOL     OW19843   4.527   3.264   0.924
 6426SOL    HW119844   4.617   3.278   0.882
 6426SOL    HW219845   4.456   3.266   0.853
 6427SOL     OW19846   4.263   1.926   0.512
 6427SOL    HW119847   4.182   1.927   0.570
 6427SOL    HW219848   4.266   2.009   0.457
 6428SOL     OW19849   4.021   1.897   0.171
 6428SOL    HW119850   4.070   1.981   0.150
 6428SOL    HW219851   4.083   1.832   0.216
 6429SOL     OW19852   4.800   2.545   1.464
 6429SOL    HW119853   4.720   2.484   1.467
 6429SOL    HW219854   4.881   2.492   1.440
 6430SOL     OW19855   4.183   3.014   0.741
 6430SOL    HW119856   4.112   2.987   0.806
 6430SOL    HW219857   4.157   2.986   0.648
 6431SOL     OW19858   3.802   2.418   1.386
 6431SOL    HW119859   3.894   2.417   1.345
 6431SOL    HW219860   3.796   2.492   1.453
 6432SOL     OW19861   4.285   2.084   1.147
 6432SOL    HW119862   4.323   2.000   1.184
 6432SOL    HW219863   4.197   2.103   1.191
 6433SOL     OW19864   4.212   3.247   0.174
 6433SOL    HW119865   4.125   3.232   0.221
 6433SOL    HW219866   4.195   3.273   0.079
 6434SOL     OW19867   4.251   2.118   0.328
 6434SOL    HW119868   4.278   2.059   0.253
 6434SOL    HW219869   4.251   2.213   0.297
 6435SOL     OW19870   4.134   2.675   1.251
 6435SOL    HW119871   4.220   2.687   1.301
 6435SOL    HW219872   4.092   2.588   1.278
 6436SOL     OW19873   3.788   3.426   1.331
 6436SOL    HW119874   3.742   3.508   1.297
 6436SOL    HW219875   3.886   3.445   1.340
 6437SOL     OW19876   4.091   2.962   0.501
 6437SOL    HW119877   4.084   3.045   0.445
 6437SOL    HW219878   4.095   2.882   0.441
 6438SOL     OW19879   4.290   2.399   0.865
 6438SOL    HW119880   4.302   2.465   0.791
 6438SOL    HW219881   4.336   2.433   0.948
 6439SOL     OW19882   4.078   3.372   1.329
 6439SOL    HW119883   4.057   3.328   1.242
 6439SOL    HW219884   4.175   3.398   1.332
 6440SOL     OW19885   4.126   2.613   1.598
 6440SOL    HW119886   4.194   2.668   1.551
 6440SOL    HW219887   4.166   2.525   1.625
 6441SOL     OW19888   4.228   1.912   1.740
 6441SOL    HW119889   4.186   1.855   1.670
 6441SOL    HW219890   4.162   1.981   1.772
 6442SOL     OW19891   4.297   2.732   1.029
 6442SOL    HW119892   4.341   2.821   1.020
 6442SOL    HW219893   4.234   2.732   1.106
 6443SOL     OW19894   4.031   2.075   1.231
 6443SOL    HW119895   4.008   2.112   1.321
 6443SOL    HW219896   4.001   1.980   1.225
 6444SOL     OW19897   3.761   3.172   1.282
 6444SOL    HW119898   3.814   3.123   1.350
 6444SOL    HW219899   3.783   3.270   1.287
 6445SOL     OW19900   4.031   1.925   0.618
 6445SOL    HW119901   4.020   2.019   0.651
 6445SOL    HW219902   4.026   1.862   0.695
 6446SOL     OW19903   4.074   2.760   1.804
 6446SOL    HW119904   4.150   2.804   1.852
 6446SOL    HW219905   4.109   2.713   1.722
 6447SOL     OW19906   4.043   2.672   0.949
 6447SOL    HW119907   4.136   2.708   0.954
 6447SOL    HW219908   4.037   2.587   1.001
 6448SOL     OW19909   4.063   2.371   1.006
 6448SOL    HW119910   4.011   2.288   0.989
 6448SOL    HW219911   4.140   2.376   0.942
 6449SOL     OW19912   3.732   3.188   0.200
 6449SOL    HW119913   3.639   3.209   0.169
 6449SOL    HW219914   3.742   3.089   0.213
 6450SOL     OW19915   3.812   3.663   0.927
 6450SOL    HW119916   3.770   3.577   0.900
 6450SOL    HW219917   3.906   3.666   0.893
 6451SOL     OW19918   4.228   3.430   0.910
 6451SOL    HW119919   4.294   3.504   0.919
 6451SOL    HW219920   4.272   3.351   0.868
 6452SOL     OW19921   3.764   2.406   1.114
 6452SOL    HW119922   3.849   2.373   1.073
 6452SOL    HW219923   3.777   2.421   1.212
 6453SOL     OW19924   3.913   2.382   1.722
 6453SOL    HW119925   3.972   2.342   1.652
 6453SOL    HW219926   3.855   2.453   1.681
 6454SOL     OW19927   4.539   2.434   0.325
 6454SOL    HW119928   4.546   2.345   0.279
 6454SOL    HW219929   4.445   2.468   0.317
 6455SOL     OW19930   3.976   3.426   1.744
 6455SOL    HW119931   3.946   3.483   1.820
 6455SOL    HW219932   3.969   3.329   1.770
 6456SOL     OW19933   4.197   2.362   0.191
 6456SOL    HW119934   4.258   2.442   0.195
 6456SOL    HW219935   4.102   2.393   0.198
 6457SOL     OW19936   3.883   2.999   1.466
 6457SOL    HW119937   3.905   2.938   1.542
 6457SOL    HW219938   3.893   2.950   1.380
 6458SOL     OW19939   3.807   3.120   1.022
 6458SOL    HW119940   3.802   3.119   1.122
 6458SOL    HW219941   3.724   3.079   0.984
 6459SOL     OW19942   4.412   3.524   1.716
 6459SOL    HW119943   4.356   3.605   1.725
 6459SOL    HW219944   4.464   3.528   1.630
 6460SOL     OW19945   3.854   3.656   1.851
 6460SOL    HW119946   3.813   3.582   1.904
 6460SOL    HW219947   3.918   3.707   1.909
 6461SOL     OW19948   3.987   2.188   0.720
 6461SOL    HW119949   3.908   2.239   0.686
 6461SOL    HW219950   3.978   2.173   0.818
 6462SOL     OW19951   4.096   3.150   1.490
 6462SOL    HW119952   4.083   3.243   1.456
 6462SOL    HW219953   4.012   3.098   1.477
 6463SOL     OW19954   4.314   3.349   0.491
 6463SOL    HW119955   4.356   3.291   0.421
 6463SOL    HW219956   4.270   3.428   0.447
 6464SOL     OW19957   3.979   3.210   0.290
 6464SOL    HW119958   3.883   3.211   0.263
 6464SOL    HW219959   3.991   3.263   0.374
 6465SOL     OW19960   3.829   2.875   1.726
 6465SOL    HW119961   3.752   2.842   1.780
 6465SOL    HW219962   3.914   2.845   1.768
 6466SOL     OW19963   4.396   2.065   1.489
 6466SOL    HW119964   4.486   2.049   1.449
 6466SOL    HW219965   4.404   2.070   1.588
 6467SOL     OW19966   3.799   2.207   0.033
 6467SOL    HW119967   3.707   2.179   0.004
 6467SOL    HW219968   3.830   2.284  -0.023
 6468SOL     OW19969   3.796   2.028   0.318
 6468SOL    HW119970   3.779   2.111   0.264
 6468SOL    HW219971   3.886   1.991   0.296
 6469SOL     OW19972   4.337   2.704   1.431
 6469SOL    HW119973   4.393   2.785   1.414
 6469SOL    HW219974   4.396   2.624   1.434
 6470SOL     OW19975   4.440   2.427   1.708
 6470SOL    HW119976   4.459   2.492   1.782
 6470SOL    HW219977   4.500   2.347   1.717
 6471SOL     OW19978   4.114   3.603   1.560
 6471SOL    HW119979   4.023   3.644   1.558
 6471SOL    HW219980   4.107   3.509   1.592
 6472SOL     OW19981   4.318   2.607   0.652
 6472SOL    HW119982   4.368   2.692   0.633
 6472SOL    HW219983   4.230   2.609   0.604
 6473SOL     OW19984   3.945   3.176   1.844
 6473SOL    HW119985   3.880   3.103   1.823
 6473SOL    HW219986   3.949   3.190   1.942
 6474SOL     OW19987   3.803   3.102   0.653
 6474SOL    HW119988   3.802   3.055   0.741
 6474SOL    HW219989   3.885   3.074   0.602
 6475SOL     OW19990   4.396   3.253   1.624
 6475SOL    HW119991   4.318   3.203   1.662
 6475SOL    HW219992   4.393   3.348   1.655
 6476SOL     OW19993   4.152   2.286   0.520
 6476SOL    HW119994   4.182   2.214   0.458
 6476SOL    HW219995   4.113   2.246   0.603
 6477SOL     OW19996   4.041   2.409   1.280
 6477SOL    HW119997   4.079   2.350   1.352
 6477SOL    HW219998   4.081   2.383   1.192
 6478SOL     OW19999   4.536   3.448   0.687
 6478SOL    HW120000   4.568   3.458   0.593
 6478SOL    HW220001   4.457   3.386   0.689
 6479SOL     OW20002   3.763   2.939   0.300
 6479SOL    HW120003   3.862   2.928   0.291
 6479SOL    HW220004   3.723   2.853   0.332
 6480SOL     OW20005   3.954   2.490   1.975
 6480SOL    HW120006   3.861   2.488   2.012
 6480SOL    HW220007   3.955   2.451   1.883
 6481SOL     OW20008   3.949   2.137   2.858
 6481SOL    HW120009   3.984   2.120   2.950
 6481SOL    HW220010   3.861   2.092   2.846
 6482SOL     OW20011   3.743   2.230   2.509
 6482SOL    HW120012   3.661   2.273   2.548
 6482SOL    HW220013   3.715   2.157   2.446
 6483SOL     OW20014   4.293   3.137   3.027
 6483SOL    HW120015   4.200   3.130   2.990
 6483SOL    HW220016   4.304   3.226   3.071
 6484SOL     OW20017   4.574   2.660   3.685
 6484SOL    HW120018   4.570   2.736   3.750
 6484SOL    HW220019   4.596   2.696   3.594
 6485SOL     OW20020   4.409   2.874   2.527
 6485SOL    HW120021   4.478   2.858   2.597
 6485SOL    HW220022   4.336   2.931   2.565
 6486SOL     OW20023   4.410   3.023   3.665
 6486SOL    HW120024   4.470   3.102   3.679
 6486SOL    HW220025   4.324   3.054   3.624
 6487SOL     OW20026   4.059   3.297   2.923
 6487SOL    HW120027   3.981   3.266   2.870
 6487SOL    HW220028   4.117   3.355   2.866
 6488SOL     OW20029   4.162   2.254   3.361
 6488SOL    HW120030   4.244   2.198   3.370
 6488SOL    HW220031   4.081   2.196   3.365
 6489SOL     OW20032   3.955   3.575   2.345
 6489SOL    HW120033   3.989   3.652   2.399
 6489SOL    HW220034   3.999   3.575   2.255
 6490SOL     OW20035   3.954   3.296   2.400
 6490SOL    HW120036   3.928   3.392   2.400
 6490SOL    HW220037   3.883   3.242   2.445
 6491SOL     OW20038   3.964   2.953   2.748
 6491SOL    HW120039   3.978   2.869   2.800
 6491SOL    HW220040   3.909   3.017   2.803
 6492SOL     OW20041   4.344   3.648   3.301
 6492SOL    HW120042   4.252   3.631   3.336
 6492SOL    HW220043   4.372   3.740   3.327
 6493SOL     OW20044   4.330   2.826   1.985
 6493SOL    HW120045   4.337   2.910   1.931
 6493SOL    HW220046   4.376   2.839   2.073
 6494SOL     OW20047   3.846   2.505   2.425
 6494SOL    HW120048   3.801   2.417   2.442
 6494SOL    HW220049   3.845   2.559   2.509
 6495SOL     OW20050   3.751   3.458   1.979
 6495SOL    HW120051   3.732   3.362   2.000
 6495SOL    HW220052   3.718   3.516   2.054
 6496SOL     OW20053   3.837   2.599   3.459
 6496SOL    HW120054   3.925   2.586   3.504
 6496SOL    HW220055   3.824   2.696   3.437
 6497SOL     OW20056   4.337   3.227   2.588
 6497SOL    HW120057   4.288   3.140   2.597
 6497SOL    HW220058   4.314   3.270   2.501
 6498SOL     OW20059   4.533   1.866   2.364
 6498SOL    HW120060   4.573   1.957   2.355
 6498SOL    HW220061   4.433   1.874   2.370
 6499SOL     OW20062   3.921   2.838   3.126
 6499SOL    HW120063   4.010   2.793   3.112
 6499SOL    HW220064   3.848   2.773   3.107
 6500SOL     OW20065   4.041   2.113   3.663
 6500SOL    HW120066   4.112   2.184   3.669
 6500SOL    HW220067   3.953   2.152   3.691
 6501SOL     OW20068   4.322   2.591   2.132
 6501SOL    HW120069   4.346   2.660   2.064
 6501SOL    HW220070   4.244   2.624   2.186
 6502SOL     OW20071   3.800   2.673   2.651
 6502SOL    HW120072   3.899   2.661   2.660
 6502SOL    HW220073   3.776   2.768   2.672
 6503SOL     OW20074   3.854   3.683   3.433
 6503SOL    HW120075   3.844   3.668   3.532
 6503SOL    HW220076   3.768   3.719   3.397
 6504SOL     OW20077   4.274   2.058   2.747
 6504SOL    HW120078   4.269   2.053   2.847
 6504SOL    HW220079   4.276   2.154   2.718
 6505SOL     OW20080   4.075   3.663   2.715
 6505SOL    HW120081   4.125   3.577   2.721
 6505SOL    HW220082   4.140   3.740   2.712
 6506SOL     OW20083   4.045   2.805   2.104
 6506SOL    HW120084   4.127   2.844   2.062
 6506SOL    HW220085   4.018   2.723   2.055
 6507SOL     OW20086   4.185   3.128   3.589
 6507SOL    HW120087   4.135   3.129   3.503
 6507SOL    HW220088   4.122   3.110   3.665
 6508SOL     OW20089   3.926   2.147   3.360
 6508SOL    HW120090   3.846   2.207   3.347
 6508SOL    HW220091   3.916   2.098   3.446
 6509SOL     OW20092   4.188   3.605   2.185
 6509SOL    HW120093   4.221   3.644   2.271
 6509SOL    HW220094   4.264   3.598   2.120
 6510SOL     OW20095   3.973   3.647   3.103
 6510SOL    HW120096   4.030   3.582   3.153
 6510SOL    HW220097   3.957   3.614   3.010
 6511SOL     OW20098   4.106   2.562   2.342
 6511SOL    HW120099   4.151   2.472   2.339
 6511SOL    HW220100   4.012   2.551   2.375
 6512SOL     OW20101   4.338   1.984   1.979
 6512SOL    HW120102   4.436   1.962   1.986
 6512SOL    HW220103   4.307   1.967   1.886
 6513SOL     OW20104   4.527   3.264   2.786
 6513SOL    HW120105   4.617   3.278   2.744
 6513SOL    HW220106   4.456   3.266   2.715
 6514SOL     OW20107   4.263   1.926   2.374
 6514SOL    HW120108   4.182   1.927   2.432
 6514SOL    HW220109   4.266   2.009   2.319
 6515SOL     OW20110   4.021   1.897   2.033
 6515SOL    HW120111   4.070   1.981   2.012
 6515SOL    HW220112   4.083   1.832   2.078
 6516SOL     OW20113   4.800   2.545   3.326
 6516SOL    HW120114   4.720   2.484   3.329
 6516SOL    HW220115   4.881   2.492   3.302
 6517SOL     OW20116   4.183   3.014   2.603
 6517SOL    HW120117   4.112   2.987   2.668
 6517SOL    HW220118   4.157   2.986   2.510
 6518SOL     OW20119   3.802   2.418   3.248
 6518SOL    HW120120   3.894   2.417   3.207
 6518SOL    HW220121   3.796   2.492   3.315
 6519SOL     OW20122   4.285   2.084   3.009
 6519SOL    HW120123   4.323   2.000   3.046
 6519SOL    HW220124   4.197   2.103   3.053
 6520SOL     OW20125   4.212   3.247   2.036
 6520SOL    HW120126   4.125   3.232   2.083
 6520SOL    HW220127   4.195   3.273   1.941
 6521SOL     OW20128   4.251   2.118   2.190
 6521SOL    HW120129   4.278   2.059   2.115
 6521SOL    HW220130   4.251   2.213   2.159
 6522SOL     OW20131   4.134   2.675   3.113
 6522SOL    HW120132   4.220   2.687   3.163
 6522SOL    HW220133   4.092   2.588   3.140
 6523SOL     OW20134   3.788   3.426   3.193
 6523SOL    HW120135   3.742   3.508   3.159
 6523SOL    HW220136   3.886   3.445   3.202
 6524SOL     OW20137   4.091   2.962   2.363
 6524SOL    HW120138   4.084   3.045   2.307
 6524SOL    HW220139   4.095   2.882   2.303
 6525SOL     OW20140   4.290   2.399   2.727
 6525SOL    HW120141   4.302   2.465   2.653
 6525SOL    HW220142   4.336   2.433   2.810
 6526SOL     OW20143   4.078   3.372   3.191
 6526SOL    HW120144   4.057   3.328   3.104
 6526SOL    HW220145   4.175   3.398   3.194
 6527SOL     OW20146   4.126   2.613   3.460
 6527SOL    HW120147   4.194   2.668   3.413
 6527SOL    HW220148   4.166   2.525   3.487
 6528SOL     OW20149   4.228   1.912   3.602
 6528SOL    HW120150   4.186   1.855   3.532
 6528SOL    HW220151   4.162   1.981   3.634
 6529SOL     OW20152   4.297   2.732   2.891
 6529SOL    HW120153   4.341   2.821   2.882
 6529SOL    HW220154   4.234   2.732   2.968
 6530SOL     OW20155   4.031   2.075   3.093
 6530SOL    HW120156   4.008   2.112   3.183
 6530SOL    HW220157   4.001   1.980   3.087
 6531SOL     OW20158   3.761   3.172   3.144
 6531SOL    HW120159   3.814   3.123   3.212
 6531SOL    HW220160   3.783   3.270   3.149
 6532SOL     OW20161   4.031   1.925   2.480
 6532SOL    HW120162   4.020   2.019   2.513
 6532SOL    HW220163   4.026   1.862   2.557
 6533SOL     OW20164   4.074   2.760   3.666
 6533SOL    HW120165   4.150   2.804   3.714
 6533SOL    HW220166   4.109   2.713   3.584
 6534SOL     OW20167   4.043   2.672   2.811
 6534SOL    HW120168   4.136   2.708   2.816
 6534SOL    HW220169   4.037   2.587   2.863
 6535SOL     OW20170   4.063   2.371   2.868
 6535SOL    HW120171   4.011   2.288   2.851
 6535SOL    HW220172   4.140   2.376   2.804
 6536SOL     OW20173   3.732   3.188   2.062
 6536SOL    HW120174   3.639   3.209   2.031
 6536SOL    HW220175   3.742   3.089   2.075
 6537SOL     OW20176   3.812   3.663   2.789
 6537SOL    HW120177   3.770   3.577   2.762
 6537SOL    HW220178   3.906   3.666   2.755
 6538SOL     OW20179   4.228   3.430   2.772
 6538SOL    HW120180   4.294   3.504   2.781
 6538SOL    HW220181   4.272   3.351   2.730
 6539SOL     OW20182   3.764   2.406   2.976
 6539SOL    HW120183   3.849   2.373   2.935
 6539SOL    HW220184   3.777   2.421   3.074
 6540SOL     OW20185   3.913   2.382   3.584
 6540SOL    HW120186   3.972   2.342   3.514
 6540SOL    HW220187   3.855   2.453   3.543
 6541SOL     OW20188   4.539   2.434   2.187
 6541SOL    HW120189   4.546   2.345   2.141
 6541SOL    HW220190   4.445   2.468   2.179
 6542SOL     OW20191   3.976   3.426   3.606
 6542SOL    HW120192   3.946   3.483   3.682
 6542SOL    HW220193   3.969   3.329   3.632
 6543SOL     OW20194   4.197   2.362   2.053
 6543SOL    HW120195   4.258   2.442   2.057
 6543SOL    HW220196   4.102   2.393   2.060
 6544SOL     OW20197   3.883   2.999   3.328
 6544SOL    HW120198   3.905   2.938   3.404
 6544SOL    HW220199   3.893   2.950   3.242
 6545SOL     OW20200   3.807   3.120   2.884
 6545SOL    HW120201   3.802   3.119   2.984
 6545SOL    HW220202   3.724   3.079   2.846
 6546SOL     OW20203   4.412   3.524   3.578
 6546SOL    HW120204   4.356   3.605   3.587
 6546SOL    HW220205   4.464   3.528   3.492
 6547SOL     OW20206   3.854   3.656   3.713
 6547SOL    HW120207   3.813   3.582   3.766
 6547SOL    HW220208   3.918   3.707   3.771
 6548SOL     OW20209   3.987   2.188   2.582
 6548SOL    HW120210   3.908   2.239   2.548
 6548SOL    HW220211   3.978   2.173   2.680
 6549SOL     OW20212   4.096   3.150   3.352
 6549SOL    HW120213   4.083   3.243   3.318
 6549SOL    HW220214   4.012   3.098   3.339
 6550SOL     OW20215   4.314   3.349   2.353
 6550SOL    HW120216   4.356   3.291   2.283
 6550SOL    HW220217   4.270   3.428   2.309
 6551SOL     OW20218   3.979   3.210   2.152
 6551SOL    HW120219   3.883   3.211   2.125
 6551SOL    HW220220   3.991   3.263   2.236
 6552SOL     OW20221   3.829   2.875   3.588
 6552SOL    HW120222   3.752   2.842   3.642
 6552SOL    HW220223   3.914   2.845   3.630
 6553SOL     OW20224   4.396   2.065   3.351
 6553SOL    HW120225   4.486   2.049   3.311
 6553SOL    HW220226   4.404   2.070   3.450
 6554SOL     OW20227   3.799   2.207   1.895
 6554SOL    HW120228   3.707   2.179   1.866
 6554SOL    HW220229   3.830   2.284   1.839
 6555SOL     OW20230   3.796   2.028   2.180
 6555SOL    HW120231   3.779   2.111   2.126
 6555SOL    HW220232   3.886   1.991   2.158
 6556SOL     OW20233   4.337   2.704   3.293
 6556SOL    HW120234   4.393   2.785   3.276
 6556SOL    HW220235   4.396   2.624   3.296
 6557SOL     OW20236   4.440   2.427   3.570
 6557SOL    HW120237   4.459   2.492   3.644
 6557SOL    HW220238   4.500   2.347   3.579
 6558SOL     OW20239   4.114   3.603   3.422
 6558SOL    HW120240   4.023   3.644   3.420
 6558SOL    HW220241   4.107   3.509   3.454
 6559SOL     OW20242   4.318   2.607   2.514
 6559SOL    HW120243   4.368   2.692   2.495
 6559SOL    HW220244   4.230   2.609   2.466
 6560SOL     OW20245   3.945   3.176   3.706
 6560SOL    HW120246   3.880   3.103   3.685
 6560SOL    HW220247   3.949   3.190   3.804
 6561SOL     OW20248   3.803   3.102   2.515
 6561SOL    HW120249   3.802   3.055   2.603
 6561SOL    HW220250   3.885   3.074   2.464
 6562SOL     OW20251   4.396   3.253   3.486
 6562SOL    HW120252   4.318   3.203   3.524
 6562SOL    HW220253   4.393   3.348   3.517
 6563SOL     OW20254   4.152   2.286   2.382
 6563SOL    HW120255   4.182   2.214   2.320
 6563SOL    HW220256   4.113   2.246   2.465
 6564SOL     OW20257   4.041   2.409   3.142
 6564SOL    HW120258   4.079   2.350   3.214
 6564SOL    HW220259   4.081   2.383   3.054
 6565SOL     OW20260   4.536   3.448   2.549
 6565SOL    HW120261   4.568   3.458   2.455
 6565SOL    HW220262   4.457   3.386   2.551
 6566SOL     OW20263   3.763   2.939   2.162
 6566SOL    HW120264   3.862   2.928   2.153
 6566SOL    HW220265   3.723   2.853   2.194
 6567SOL     OW20266   3.954   2.490   3.837
 6567SOL    HW120267   3.861   2.488   3.874
 6567SOL    HW220268   3.955   2.451   3.745
 6568SOL     OW20269   3.949   2.137   4.720
 6568SOL    HW120270   3.984   2.120   4.812
 6568SOL    HW220271   3.861   2.092   4.708
 6569SOL     OW20272   3.743   2.230   4.371
 6569SOL    HW120273   3.661   2.273   4.410
 6569SOL    HW220274   3.715   2.157   4.308
 6570SOL     OW20275   4.293   3.137   4.889
 6570SOL    HW120276   4.200   3.130   4.852
 6570SOL    HW220277   4.304   3.226   4.933
 6571SOL     OW20278   4.574   2.660   5.547
 6571SOL    HW120279   4.570   2.736   5.612
 6571SOL    HW220280   4.596   2.696   5.456
 6572SOL     OW20281   4.409   2.874   4.389
 6572SOL    HW120282   4.478   2.858   4.459
 6572SOL    HW220283   4.336   2.931   4.427
 6573SOL     OW20284   4.410   3.023   5.527
 6573SOL    HW120285   4.470   3.102   5.541
 6573SOL    HW220286   4.324   3.054   5.486
 6574SOL     OW20287   4.059   3.297   4.785
 6574SOL    HW120288   3.981   3.266   4.732
 6574SOL    HW220289   4.117   3.355   4.728
 6575SOL     OW20290   4.162   2.254   5.223
 6575SOL    HW120291   4.244   2.198   5.232
 6575SOL    HW220292   4.081   2.196   5.227
 6576SOL     OW20293   3.955   3.575   4.207
 6576SOL    HW120294   3.989   3.652   4.261
 6576SOL    HW220295   3.999   3.575   4.117
 6577SOL     OW20296   3.954   3.296   4.262
 6577SOL    HW120297   3.928   3.392   4.262
 6577SOL    HW220298   3.883   3.242   4.307
 6578SOL     OW20299   3.964   2.953   4.610
 6578SOL    HW120300   3.978   2.869   4.662
 6578SOL    HW220301   3.909   3.017   4.665
 6579SOL     OW20302   4.344   3.648   5.163
 6579SOL    HW120303   4.252   3.631   5.198
 6579SOL    HW220304   4.372   3.740   5.189
 6580SOL     OW20305   4.330   2.826   3.847
 6580SOL    HW120306   4.337   2.910   3.793
 6580SOL    HW220307   4.376   2.839   3.935
 6581SOL     OW20308   3.846   2.505   4.287
 6581SOL    HW120309   3.801   2.417   4.304
 6581SOL    HW220310   3.845   2.559   4.371
 6582SOL     OW20311   3.751   3.458   3.841
 6582SOL    HW120312   3.732   3.362   3.862
 6582SOL    HW220313   3.718   3.516   3.916
 6583SOL     OW20314   3.837   2.599   5.321
 6583SOL    HW120315   3.925   2.586   5.366
 6583SOL    HW220316   3.824   2.696   5.299
 6584SOL     OW20317   4.337   3.227   4.450
 6584SOL    HW120318   4.288   3.140   4.459
 6584SOL    HW220319   4.314   3.270   4.363
 6585SOL     OW20320   4.533   1.866   4.226
 6585SOL    HW120321   4.573   1.957   4.217
 6585SOL    HW220322   4.433   1.874   4.232
 6586SOL     OW20323   3.921   2.838   4.988
 6586SOL    HW120324   4.010   2.793   4.974
 6586SOL    HW220325   3.848   2.773   4.969
 6587SOL     OW20326   4.041   2.113   5.525
 6587SOL    HW120327   4.112   2.184   5.531
 6587SOL    HW220328   3.953   2.152   5.553
 6588SOL     OW20329   4.322   2.591   3.994
 6588SOL    HW120330   4.346   2.660   3.926
 6588SOL    HW220331   4.244   2.624   4.048
 6589SOL     OW20332   3.800   2.673   4.513
 6589SOL    HW120333   3.899   2.661   4.522
 6589SOL    HW220334   3.776   2.768   4.534
 6590SOL     OW20335   3.854   3.683   5.295
 6590SOL    HW120336   3.844   3.668   5.394
 6590SOL    HW220337   3.768   3.719   5.259
 6591SOL     OW20338   4.274   2.058   4.609
 6591SOL    HW120339   4.269   2.053   4.709
 6591SOL    HW220340   4.276   2.154   4.580
 6592SOL     OW20341   4.075   3.663   4.577
 6592SOL    HW120342   4.125   3.577   4.583
 6592SOL    HW220343   4.140   3.740   4.574
 6593SOL     OW20344   4.045   2.805   3.966
 6593SOL    HW120345   4.127   2.844   3.924
 6593SOL    HW220346   4.018   2.723   3.917
 6594SOL     OW20347   4.185   3.128   5.451
 6594SOL    HW120348   4.135   3.129   5.365
 6594SOL    HW220349   4.122   3.110   5.527
 6595SOL     OW20350   3.926   2.147   5.222
 6595SOL    HW120351   3.846   2.207   5.209
 6595SOL    HW220352   3.916   2.098   5.308
 6596SOL     OW20353   4.188   3.605   4.047
 6596SOL    HW120354   4.221   3.644   4.133
 6596SOL    HW220355   4.264   3.598   3.982
 6597SOL     OW20356   3.973   3.647   4.965
 6597SOL    HW120357   4.030   3.582   5.015
 6597SOL    HW220358   3.957   3.614   4.872
 6598SOL     OW20359   4.106   2.562   4.204
 6598SOL    HW120360   4.151   2.472   4.201
 6598SOL    HW220361   4.012   2.551   4.237
 6599SOL     OW20362   4.338   1.984   3.841
 6599SOL    HW120363   4.436   1.962   3.848
 6599SOL    HW220364   4.307   1.967   3.748
 6600SOL     OW20365   4.527   3.264   4.648
 6600SOL    HW120366   4.617   3.278   4.606
 6600SOL    HW220367   4.456   3.266   4.577
 6601SOL     OW20368   4.263   1.926   4.236
 6601SOL    HW120369   4.182   1.927   4.294
 6601SOL    HW220370   4.266   2.009   4.181
 6602SOL     OW20371   4.021   1.897   3.895
 6602SOL    HW120372   4.070   1.981   3.874
 6602SOL    HW220373   4.083   1.832   3.940
 6603SOL     OW20374   4.800   2.545   5.188
 6603SOL    HW120375   4.720   2.484   5.191
 6603SOL    HW220376   4.881   2.492   5.164
 6604SOL     OW20377   4.183   3.014   4.465
 6604SOL    HW120378   4.112   2.987   4.530
 6604SOL    HW220379   4.157   2.986   4.372
 6605SOL     OW20380   3.802   2.418   5.110
 6605SOL    HW120381   3.894   2.417   5.069
 6605SOL    HW220382   3.796   2.492   5.177
 6606SOL     OW20383   4.285   2.084   4.871
 6606SOL    HW120384   4.323   2.000   4.908
 6606SOL    HW220385   4.197   2.103   4.915
 6607SOL     OW20386   4.212   3.247   3.898
 6607SOL    HW120387   4.125   3.232   3.945
 6607SOL    HW220388   4.195   3.273   3.803
 6608SOL     OW20389   4.251   2.118   4.052
 6608SOL    HW120390   4.278   2.059   3.977
 6608SOL    HW220391   4.251   2.213   4.021
 6609SOL     OW20392   4.134   2.675   4.975
 6609SOL    HW120393   4.220   2.687   5.025
 6609SOL    HW220394   4.092   2.588   5.002
 6610SOL     OW20395   3.788   3.426   5.055
 6610SOL    HW120396   3.742   3.508   5.021
 6610SOL    HW220397   3.886   3.445   5.064
 6611SOL     OW20398   4.091   2.962   4.225
 6611SOL    HW120399   4.084   3.045   4.169
 6611SOL    HW220400   4.095   2.882   4.165
 6612SOL     OW20401   4.290   2.399   4.589
 6612SOL    HW120402   4.302   2.465   4.515
 6612SOL    HW220403   4.336   2.433   4.672
 6613SOL     OW20404   4.078   3.372   5.053
 6613SOL    HW120405   4.057   3.328   4.966
 6613SOL    HW220406   4.175   3.398   5.056
 6614SOL     OW20407   4.126   2.613   5.322
 6614SOL    HW120408   4.194   2.668   5.275
 6614SOL    HW220409   4.166   2.525   5.349
 6615SOL     OW20410   4.228   1.912   5.464
 6615SOL    HW120411   4.186   1.855   5.394
 6615SOL    HW220412   4.162   1.981   5.496
 6616SOL     OW20413   4.297   2.732   4.753
 6616SOL    HW120414   4.341   2.821   4.744
 6616SOL    HW220415   4.234   2.732   4.830
 6617SOL     OW20416   4.031   2.075   4.955
 6617SOL    HW120417   4.008   2.112   5.045
 6617SOL    HW220418   4.001   1.980   4.949
 6618SOL     OW20419   3.761   3.172   5.006
 6618SOL    HW120420   3.814   3.123   5.074
 6618SOL    HW220421   3.783   3.270   5.011
 6619SOL     OW20422   4.031   1.925   4.342
 6619SOL    HW120423   4.020   2.019   4.375
 6619SOL    HW220424   4.026   1.862   4.419
 6620SOL     OW20425   4.074   2.760   5.528
 6620SOL    HW120426   4.150   2.804   5.576
 6620SOL    HW220427   4.109   2.713   5.446
 6621SOL     OW20428   4.043   2.672   4.673
 6621SOL    HW120429   4.136   2.708   4.678
 6621SOL    HW220430   4.037   2.587   4.725
 6622SOL     OW20431   4.063   2.371   4.730
 6622SOL    HW120432   4.011   2.288   4.713
 6622SOL    HW220433   4.140   2.376   4.666
 6623SOL     OW20434   3.732   3.188   3.924
 6623SOL    HW120435   3.639   3.209   3.893
 6623SOL    HW220436   3.742   3.089   3.937
 6624SOL     OW20437   3.812   3.663   4.651
 6624SOL    HW120438   3.770   3.577   4.624
 6624SOL    HW220439   3.906   3.666   4.617
 6625SOL     OW20440   4.228   3.430   4.634
 6625SOL    HW120441   4.294   3.504   4.643
 6625SOL    HW220442   4.272   3.351   4.592
 6626SOL     OW20443   3.764   2.406   4.838
 6626SOL    HW120444   3.849   2.373   4.797
 6626SOL    HW220445   3.777   2.421   4.936
 6627SOL     OW20446   3.913   2.382   5.446
 6627SOL    HW120447   3.972   2.342   5.376
 6627SOL    HW220448   3.855   2.453   5.405
 6628SOL     OW20449   4.539   2.434   4.049
 6628SOL    HW120450   4.546   2.345   4.003
 6628SOL    HW220451   4.445   2.468   4.041
 6629SOL     OW20452   3.976   3.426   5.468
 6629SOL    HW120453   3.946   3.483   5.544
 6629SOL    HW220454   3.969   3.329   5.494
 6630SOL     OW20455   4.197   2.362   3.915
 6630SOL    HW120456   4.258   2.442   3.919
 6630SOL    HW220457   4.102   2.393   3.922
 6631SOL     OW20458   3.883   2.999   5.190
 6631SOL    HW120459   3.905   2.938   5.266
 6631SOL    HW220460   3.893   2.950   5.104
 6632SOL     OW20461   3.807   3.120   4.746
 6632SOL    HW120462   3.802   3.119   4.846
 6632SOL    HW220463   3.724   3.079   4.708
 6633SOL     OW20464   4.412   3.524   5.440
 6633SOL    HW120465   4.356   3.605   5.449
 6633SOL    HW220466   4.464   3.528   5.354
 6634SOL     OW20467   3.854   3.656   5.575
 6634SOL    HW120468   3.813   3.582   5.628
 6634SOL    HW220469   3.918   3.707   5.633
 6635SOL     OW20470   3.987   2.188   4.444
 6635SOL    HW120471   3.908   2.239   4.410
 6635SOL    HW220472   3.978   2.173   4.542
 6636SOL     OW20473   4.096   3.150   5.214
 6636SOL    HW120474   4.083   3.243   5.180
 6636SOL    HW220475   4.012   3.098   5.201
 6637SOL     OW20476   4.314   3.349   4.215
 6637SOL    HW120477   4.356   3.291   4.145
 6637SOL    HW220478   4.270   3.428   4.171
 6638SOL     OW20479   3.979   3.210   4.014
 6638SOL    HW120480   3.883   3.211   3.987
 6638SOL    HW220481   3.991   3.263   4.098
 6639SOL     OW20482   3.829   2.875   5.450
 6639SOL    HW120483   3.752   2.842   5.504
 6639SOL    HW220484   3.914   2.845   5.492
 6640SOL     OW20485   4.396   2.065   5.213
 6640SOL    HW120486   4.486   2.049   5.173
 6640SOL    HW220487   4.404   2.070   5.312
 6641SOL     OW20488   3.799   2.207   3.757
 6641SOL    HW120489   3.707   2.179   3.728
 6641SOL    HW220490   3.830   2.284   3.701
 6642SOL     OW20491   3.796   2.028   4.042
 6642SOL    HW120492   3.779   2.111   3.988
 6642SOL    HW220493   3.886   1.991   4.020
 6643SOL     OW20494   4.337   2.704   5.155
 6643SOL    HW120495   4.393   2.785   5.138
 6643SOL    HW220496   4.396   2.624   5.158
 6644SOL     OW20497   4.440   2.427   5.432
 6644SOL    HW120498   4.459   2.492   5.506
 6644SOL    HW220499   4.500   2.347   5.441
 6645SOL     OW20500   4.114   3.603   5.284
 6645SOL    HW120501   4.023   3.644   5.282
 6645SOL    HW220502   4.107   3.509   5.316
 6646SOL     OW20503   4.318   2.607   4.376
 6646SOL    HW120504   4.368   2.692   4.357
 6646SOL    HW220505   4.230   2.609   4.328
 6647SOL     OW20506   3.945   3.176   5.568
 6647SOL    HW120507   3.880   3.103   5.547
 6647SOL    HW220508   3.949   3.190   5.666
 6648SOL     OW20509   3.803   3.102   4.377
 6648SOL    HW120510   3.802   3.055   4.465
 6648SOL    HW220511   3.885   3.074   4.326
 6649SOL     OW20512   4.396   3.253   5.348
 6649SOL    HW120513   4.318   3.203   5.386
 6649SOL    HW220514   4.393   3.348   5.379
 6650SOL     OW20515   4.152   2.286   4.244
 6650SOL    HW120516   4.182   2.214   4.182
 6650SOL    HW220517   4.113   2.246   4.327
 6651SOL     OW20518   4.041   2.409   5.004
 6651SOL    HW120519   4.079   2.350   5.076
 6651SOL    HW220520   4.081   2.383   4.916
 6652SOL     OW20521   4.536   3.448   4.411
 6652SOL    HW120522   4.568   3.458   4.317
 6652SOL    HW220523   4.457   3.386   4.413
 6653SOL     OW20524   3.763   2.939   4.024
 6653SOL    HW120525   3.862   2.928   4.015
 6653SOL    HW220526   3.723   2.853   4.056
 6654SOL     OW20527   3.954   2.490   5.699
 6654SOL    HW120528   3.861   2.488   5.736
 6654SOL    HW220529   3.955   2.451   5.607
 6655SOL     OW20530   3.949   2.137   6.582
 6655SOL    HW120531   3.984   2.120   6.674
 6655SOL    HW220532   3.861   2.092   6.570
 6656SOL     OW20533   3.743   2.230   6.233
 6656SOL    HW120534   3.661   2.273   6.272
 6656SOL    HW220535   3.715   2.157   6.170
 6657SOL     OW20536   4.293   3.137   6.751
 6657SOL    HW120537   4.200   3.130   6.714
 6657SOL    HW220538   4.304   3.226   6.795
 6658SOL     OW20539   4.574   2.660   7.409
 6658SOL    HW120540   4.570   2.736   7.474
 6658SOL    HW220541   4.596   2.696   7.318
 6659SOL     OW20542   4.409   2.874   6.251
 6659SOL    HW120543   4.478   2.858   6.321
 6659SOL    HW220544   4.336   2.931   6.289
 6660SOL     OW20545   4.410   3.023   7.389
 6660SOL    HW120546   4.470   3.102   7.403
 6660SOL    HW220547   4.324   3.054   7.348
 6661SOL     OW20548   4.059   3.297   6.647
 6661SOL    HW120549   3.981   3.266   6.594
 6661SOL    HW220550   4.117   3.355   6.590
 6662SOL     OW20551   4.162   2.254   7.085
 6662SOL    HW120552   4.244   2.198   7.094
 6662SOL    HW220553   4.081   2.196   7.089
 6663SOL     OW20554   3.955   3.575   6.069
 6663SOL    HW120555   3.989   3.652   6.123
 6663SOL    HW220556   3.999   3.575   5.979
 6664SOL     OW20557   3.954   3.296   6.124
 6664SOL    HW120558   3.928   3.392   6.124
 6664SOL    HW220559   3.883   3.242   6.169
 6665SOL     OW20560   3.964   2.953   6.472
 6665SOL    HW120561   3.978   2.869   6.524
 6665SOL    HW220562   3.909   3.017   6.527
 6666SOL     OW20563   4.344   3.648   7.025
 6666SOL    HW120564   4.252   3.631   7.060
 6666SOL    HW220565   4.372   3.740   7.051
 6667SOL     OW20566   4.330   2.826   5.709
 6667SOL    HW120567   4.337   2.910   5.655
 6667SOL    HW220568   4.376   2.839   5.797
 6668SOL     OW20569   3.846   2.505   6.149
 6668SOL    HW120570   3.801   2.417   6.166
 6668SOL    HW220571   3.845   2.559   6.233
 6669SOL     OW20572   3.751   3.458   5.703
 6669SOL    HW120573   3.732   3.362   5.724
 6669SOL    HW220574   3.718   3.516   5.778
 6670SOL     OW20575   3.837   2.599   7.183
 6670SOL    HW120576   3.925   2.586   7.228
 6670SOL    HW220577   3.824   2.696   7.161
 6671SOL     OW20578   4.337   3.227   6.312
 6671SOL    HW120579   4.288   3.140   6.321
 6671SOL    HW220580   4.314   3.270   6.225
 6672SOL     OW20581   4.533   1.866   6.088
 6672SOL    HW120582   4.573   1.957   6.079
 6672SOL    HW220583   4.433   1.874   6.094
 6673SOL     OW20584   3.921   2.838   6.850
 6673SOL    HW120585   4.010   2.793   6.836
 6673SOL    HW220586   3.848   2.773   6.831
 6674SOL     OW20587   4.041   2.113   7.387
 6674SOL    HW120588   4.112   2.184   7.393
 6674SOL    HW220589   3.953   2.152   7.415
 6675SOL     OW20590   4.322   2.591   5.856
 6675SOL    HW120591   4.346   2.660   5.788
 6675SOL    HW220592   4.244   2.624   5.910
 6676SOL     OW20593   3.800   2.673   6.375
 6676SOL    HW120594   3.899   2.661   6.384
 6676SOL    HW220595   3.776   2.768   6.396
 6677SOL     OW20596   3.854   3.683   7.157
 6677SOL    HW120597   3.844   3.668   7.256
 6677SOL    HW220598   3.768   3.719   7.121
 6678SOL     OW20599   4.274   2.058   6.471
 6678SOL    HW120600   4.269   2.053   6.571
 6678SOL    HW220601   4.276   2.154   6.442
 6679SOL     OW20602   4.075   3.663   6.439
 6679SOL    HW120603   4.125   3.577   6.445
 6679SOL    HW220604   4.140   3.740   6.436
 6680SOL     OW20605   4.045   2.805   5.828
 6680SOL    HW120606   4.127   2.844   5.786
 6680SOL    HW220607   4.018   2.723   5.779
 6681SOL     OW20608   4.185   3.128   7.313
 6681SOL    HW120609   4.135   3.129   7.227
 6681SOL    HW220610   4.122   3.110   7.389
 6682SOL     OW20611   3.926   2.147   7.084
 6682SOL    HW120612   3.846   2.207   7.071
 6682SOL    HW220613   3.916   2.098   7.170
 6683SOL     OW20614   4.188   3.605   5.909
 6683SOL    HW120615   4.221   3.644   5.995
 6683SOL    HW220616   4.264   3.598   5.844
 6684SOL     OW20617   3.973   3.647   6.827
 6684SOL    HW120618   4.030   3.582   6.877
 6684SOL    HW220619   3.957   3.614   6.734
 6685SOL     OW20620   4.106   2.562   6.066
 6685SOL    HW120621   4.151   2.472   6.063
 6685SOL    HW220622   4.012   2.551   6.099
 6686SOL     OW20623   4.338   1.984   5.703
 6686SOL    HW120624   4.436   1.962   5.710
 6686SOL    HW220625   4.307   1.967   5.610
 6687SOL     OW20626   4.527   3.264   6.510
 6687SOL    HW120627   4.617   3.278   6.468
 6687SOL    HW220628   4.456   3.266   6.439
 6688SOL     OW20629   4.263   1.926   6.098
 6688SOL    HW120630   4.182   1.927   6.156
 6688SOL    HW220631   4.266   2.009   6.043
 6689SOL     OW20632   4.021   1.897   5.757
 6689SOL    HW120633   4.070   1.981   5.736
 6689SOL    HW220634   4.083   1.832   5.802
 6690SOL     OW20635   4.800   2.545   7.050
 6690SOL    HW120636   4.720   2.484   7.053
 6690SOL    HW220637   4.881   2.492   7.026
 6691SOL     OW20638   4.183   3.014   6.327
 6691SOL    HW120639   4.112   2.987   6.392
 6691SOL    HW220640   4.157   2.986   6.234
 6692SOL     OW20641   3.802   2.418   6.972
 6692SOL    HW120642   3.894   2.417   6.931
 6692SOL    HW220643   3.796   2.492   7.039
 6693SOL     OW20644   4.285   2.084   6.733
 6693SOL    HW120645   4.323   2.000   6.770
 6693SOL    HW220646   4.197   2.103   6.777
 6694SOL     OW20647   4.212   3.247   5.760
 6694SOL    HW120648   4.125   3.232   5.807
 6694SOL    HW220649   4.195   3.273   5.665
 6695SOL     OW20650   4.251   2.118   5.914
 6695SOL    HW120651   4.278   2.059   5.839
 6695SOL    HW220652   4.251   2.213   5.883
 6696SOL     OW20653   4.134   2.675   6.837
 6696SOL    HW120654   4.220   2.687   6.887
 6696SOL    HW220655   4.092   2.588   6.864
 6697SOL     OW20656   3.788   3.426   6.917
 6697SOL    HW120657   3.742   3.508   6.883
 6697SOL    HW220658   3.886   3.445   6.926
 6698SOL     OW20659   4.091   2.962   6.087
 6698SOL    HW120660   4.084   3.045   6.031
 6698SOL    HW220661   4.095   2.882   6.027
 6699SOL     OW20662   4.290   2.399   6.451
 6699SOL    HW120663   4.302   2.465   6.377
 6699SOL    HW220664   4.336   2.433   6.534
 6700SOL     OW20665   4.078   3.372   6.915
 6700SOL    HW120666   4.057   3.328   6.828
 6700SOL    HW220667   4.175   3.398   6.918
 6701SOL     OW20668   4.126   2.613   7.184
 6701SOL    HW120669   4.194   2.668   7.137
 6701SOL    HW220670   4.166   2.525   7.211
 6702SOL     OW20671   4.228   1.912   7.326
 6702SOL    HW120672   4.186   1.855   7.256
 6702SOL    HW220673   4.162   1.981   7.358
 6703SOL     OW20674   4.297   2.732   6.615
 6703SOL    HW120675   4.341   2.821   6.606
 6703SOL    HW220676   4.234   2.732   6.692
 6704SOL     OW20677   4.031   2.075   6.817
 6704SOL    HW120678   4.008   2.112   6.907
 6704SOL    HW220679   4.001   1.980   6.811
 6705SOL     OW20680   3.761   3.172   6.868
 6705SOL    HW120681   3.814   3.123   6.936
 6705SOL    HW220682   3.783   3.270   6.873
 6706SOL     OW20683   4.031   1.925   6.204
 6706SOL    HW120684   4.020   2.019   6.237
 6706SOL    HW220685   4.026   1.862   6.281
 6707SOL     OW20686   4.074   2.760   7.390
 6707SOL    HW120687   4.150   2.804   7.438
 6707SOL    HW220688   4.109   2.713   7.308
 6708SOL     OW20689   4.043   2.672   6.535
 6708SOL    HW120690   4.136   2.708   6.540
 6708SOL    HW220691   4.037   2.587   6.587
 6709SOL     OW20692   4.063   2.371   6.592
 6709SOL    HW120693   4.011   2.288   6.575
 6709SOL    HW220694   4.140   2.376   6.528
 6710SOL     OW20695   3.732   3.188   5.786
 6710SOL    HW120696   3.639   3.209   5.755
 6710SOL    HW220697   3.742   3.089   5.799
 6711SOL     OW20698   3.812   3.663   6.513
 6711SOL    HW120699   3.770   3.577   6.486
 6711SOL    HW220700   3.906   3.666   6.479
 6712SOL     OW20701   4.228   3.430   6.496
 6712SOL    HW120702   4.294   3.504   6.505
 6712SOL    HW220703   4.272   3.351   6.454
 6713SOL     OW20704   3.764   2.406   6.700
 6713SOL    HW120705   3.849   2.373   6.659
 6713SOL    HW220706   3.777   2.421   6.798
 6714SOL     OW20707   3.913   2.382   7.308
 6714SOL    HW120708   3.972   2.342   7.238
 6714SOL    HW220709   3.855   2.453   7.267
 6715SOL     OW20710   4.539   2.434   5.911
 6715SOL    HW120711   4.546   2.345   5.865
 6715SOL    HW220712   4.445   2.468   5.903
 6716SOL     OW20713   3.976   3.426   7.330
 6716SOL    HW120714   3.946   3.483   7.406
 6716SOL    HW220715   3.969   3.329   7.356
 6717SOL     OW20716   4.197   2.362   5.777
 6717SOL    HW120717   4.258   2.442   5.781
 6717SOL    HW220718   4.102   2.393   5.784
 6718SOL     OW20719   3.883   2.999   7.052
 6718SOL    HW120720   3.905   2.938   7.128
 6718SOL    HW220721   3.893   2.950   6.966
 6719SOL     OW20722   3.807   3.120   6.608
 6719SOL    HW120723   3.802   3.119   6.708
 6719SOL    HW220724   3.724   3.079   6.570
 6720SOL     OW20725   4.412   3.524   7.302
 6720SOL    HW120726   4.356   3.605   7.311
 6720SOL    HW220727   4.464   3.528   7.216
 6721SOL     OW20728   3.854   3.656   7.437
 6721SOL    HW120729   3.813   3.582   7.490
 6721SOL    HW220730   3.918   3.707   7.495
 6722SOL     OW20731   3.987   2.188   6.306
 6722SOL    HW120732   3.908   2.239   6.272
 6722SOL    HW220733   3.978   2.173   6.404
 6723SOL     OW20734   4.096   3.150   7.076
 6723SOL    HW120735   4.083   3.243   7.042
 6723SOL    HW220736   4.012   3.098   7.063
 6724SOL     OW20737   4.314   3.349   6.077
 6724SOL    HW120738   4.356   3.291   6.007
 6724SOL    HW220739   4.270   3.428   6.033
 6725SOL     OW20740   3.979   3.210   5.876
 6725SOL    HW120741   3.883   3.211   5.849
 6725SOL    HW220742   3.991   3.263   5.960
 6726SOL     OW20743   3.829   2.875   7.312
 6726SOL    HW120744   3.752   2.842   7.366
 6726SOL    HW220745   3.914   2.845   7.354
 6727SOL     OW20746   4.396   2.065   7.075
 6727SOL    HW120747   4.486   2.049   7.035
 6727SOL    HW220748   4.404   2.070   7.174
 6728SOL     OW20749   3.799   2.207   5.619
 6728SOL    HW120750   3.707   2.179   5.590
 6728SOL    HW220751   3.830   2.284   5.563
 6729SOL     OW20752   3.796   2.028   5.904
 6729SOL    HW120753   3.779   2.111   5.850
 6729SOL    HW220754   3.886   1.991   5.882
 6730SOL     OW20755   4.337   2.704   7.017
 6730SOL    HW120756   4.393   2.785   7.000
 6730SOL    HW220757   4.396   2.624   7.020
 6731SOL     OW20758   4.440   2.427   7.294
 6731SOL    HW120759   4.459   2.492   7.368
 6731SOL    HW220760   4.500   2.347   7.303
 6732SOL     OW20761   4.114   3.603   7.146
 6732SOL    HW120762   4.023   3.644   7.144
 6732SOL    HW220763   4.107   3.509   7.178
 6733SOL     OW20764   4.318   2.607   6.238
 6733SOL    HW120765   4.368   2.692   6.219
 6733SOL    HW220766   4.230   2.609   6.190
 6734SOL     OW20767   3.945   3.176   7.430
 6734SOL    HW120768   3.880   3.103   7.409
 6734SOL    HW220769   3.949   3.190   7.528
 6735SOL     OW20770   3.803   3.102   6.239
 6735SOL    HW120771   3.802   3.055   6.327
 6735SOL    HW220772   3.885   3.074   6.188
 6736SOL     OW20773   4.396   3.253   7.210
 6736SOL    HW120774   4.318   3.203   7.248
 6736SOL    HW220775   4.393   3.348   7.241
 6737SOL     OW20776   4.152   2.286   6.106
 6737SOL    HW120777   4.182   2.214   6.044
 6737SOL    HW220778   4.113   2.246   6.189
 6738SOL     OW20779   4.041   2.409   6.866
 6738SOL    HW120780   4.079   2.350   6.938
 6738SOL    HW220781   4.081   2.383   6.778
 6739SOL     OW20782   4.536   3.448   6.273
 6739SOL    HW120783   4.568   3.458   6.179
 6739SOL    HW220784   4.457   3.386   6.275
 6740SOL     OW20785   3.763   2.939   5.886
 6740SOL    HW120786   3.862   2.928   5.877
 6740SOL    HW220787   3.723   2.853   5.918
 6741SOL     OW20788   3.954   2.490   7.561
 6741SOL    HW120789   3.861   2.488   7.598
 6741SOL    HW220790   3.955   2.451   7.469
 6742SOL     OW20791   3.949   2.137   8.444
 6742SOL    HW120792   3.984   2.120   8.536
 6742SOL    HW220793   3.861   2.092   8.432
 6743SOL     OW20794   3.743   2.230   8.095
 6743SOL    HW120795   3.661   2.273   8.134
 6743SOL    HW220796   3.715   2.157   8.032
 6744SOL     OW20797   4.293   3.137   8.613
 6744SOL    HW120798   4.200   3.130   8.576
 6744SOL    HW220799   4.304   3.226   8.657
 6745SOL     OW20800   4.574   2.660   9.271
 6745SOL    HW120801   4.570   2.736   9.336
 6745SOL    HW220802   4.596   2.696   9.180
 6746SOL     OW20803   4.409   2.874   8.113
 6746SOL    HW120804   4.478   2.858   8.183
 6746SOL    HW220805   4.336   2.931   8.151
 6747SOL     OW20806   4.410   3.023   9.251
 6747SOL    HW120807   4.470   3.102   9.265
 6747SOL    HW220808   4.324   3.054   9.210
 6748SOL     OW20809   4.059   3.297   8.509
 6748SOL    HW120810   3.981   3.266   8.456
 6748SOL    HW220811   4.117   3.355   8.452
 6749SOL     OW20812   4.162   2.254   8.947
 6749SOL    HW120813   4.244   2.198   8.956
 6749SOL    HW220814   4.081   2.196   8.951
 6750SOL     OW20815   3.955   3.575   7.931
 6750SOL    HW120816   3.989   3.652   7.985
 6750SOL    HW220817   3.999   3.575   7.841
 6751SOL     OW20818   3.954   3.296   7.986
 6751SOL    HW120819   3.928   3.392   7.986
 6751SOL    HW220820   3.883   3.242   8.031
 6752SOL     OW20821   3.964   2.953   8.334
 6752SOL    HW120822   3.978   2.869   8.386
 6752SOL    HW220823   3.909   3.017   8.389
 6753SOL     OW20824   4.344   3.648   8.887
 6753SOL    HW120825   4.252   3.631   8.922
 6753SOL    HW220826   4.372   3.740   8.913
 6754SOL     OW20827   4.330   2.826   7.571
 6754SOL    HW120828   4.337   2.910   7.517
 6754SOL    HW220829   4.376   2.839   7.659
 6755SOL     OW20830   3.846   2.505   8.011
 6755SOL    HW120831   3.801   2.417   8.028
 6755SOL    HW220832   3.845   2.559   8.095
 6756SOL     OW20833   3.751   3.458   7.565
 6756SOL    HW120834   3.732   3.362   7.586
 6756SOL    HW220835   3.718   3.516   7.640
 6757SOL     OW20836   3.837   2.599   9.045
 6757SOL    HW120837   3.925   2.586   9.090
 6757SOL    HW220838   3.824   2.696   9.023
 6758SOL     OW20839   4.337   3.227   8.174
 6758SOL    HW120840   4.288   3.140   8.183
 6758SOL    HW220841   4.314   3.270   8.087
 6759SOL     OW20842   4.533   1.866   7.950
 6759SOL    HW120843   4.573   1.957   7.941
 6759SOL    HW220844   4.433   1.874   7.956
 6760SOL     OW20845   3.921   2.838   8.712
 6760SOL    HW120846   4.010   2.793   8.698
 6760SOL    HW220847   3.848   2.773   8.693
 6761SOL     OW20848   4.041   2.113   9.249
 6761SOL    HW120849   4.112   2.184   9.255
 6761SOL    HW220850   3.953   2.152   9.277
 6762SOL     OW20851   4.322   2.591   7.718
 6762SOL    HW120852   4.346   2.660   7.650
 6762SOL    HW220853   4.244   2.624   7.772
 6763SOL     OW20854   3.800   2.673   8.237
 6763SOL    HW120855   3.899   2.661   8.246
 6763SOL    HW220856   3.776   2.768   8.258
 6764SOL     OW20857   3.854   3.683   9.019
 6764SOL    HW120858   3.844   3.668   9.118
 6764SOL    HW220859   3.768   3.719   8.983
 6765SOL     OW20860   4.274   2.058   8.333
 6765SOL    HW120861   4.269   2.053   8.433
 6765SOL    HW220862   4.276   2.154   8.304
 6766SOL     OW20863   4.075   3.663   8.301
 6766SOL    HW120864   4.125   3.577   8.307
 6766SOL    HW220865   4.140   3.740   8.298
 6767SOL     OW20866   4.045   2.805   7.690
 6767SOL    HW120867   4.127   2.844   7.648
 6767SOL    HW220868   4.018   2.723   7.641
 6768SOL     OW20869   4.185   3.128   9.175
 6768SOL    HW120870   4.135   3.129   9.089
 6768SOL    HW220871   4.122   3.110   9.251
 6769SOL     OW20872   3.926   2.147   8.946
 6769SOL    HW120873   3.846   2.207   8.933
 6769SOL    HW220874   3.916   2.098   9.032
 6770SOL     OW20875   4.188   3.605   7.771
 6770SOL    HW120876   4.221   3.644   7.857
 6770SOL    HW220877   4.264   3.598   7.706
 6771SOL     OW20878   3.973   3.647   8.689
 6771SOL    HW120879   4.030   3.582   8.739
 6771SOL    HW220880   3.957   3.614   8.596
 6772SOL     OW20881   4.106   2.562   7.928
 6772SOL    HW120882   4.151   2.472   7.925
 6772SOL    HW220883   4.012   2.551   7.961
 6773SOL     OW20884   4.338   1.984   7.565
 6773SOL    HW120885   4.436   1.962   7.572
 6773SOL    HW220886   4.307   1.967   7.472
 6774SOL     OW20887   4.527   3.264   8.372
 6774SOL    HW120888   4.617   3.278   8.330
 6774SOL    HW220889   4.456   3.266   8.301
 6775SOL     OW20890   4.263   1.926   7.960
 6775SOL    HW120891   4.182   1.927   8.018
 6775SOL    HW220892   4.266   2.009   7.905
 6776SOL     OW20893   4.021   1.897   7.619
 6776SOL    HW120894   4.070   1.981   7.598
 6776SOL    HW220895   4.083   1.832   7.664
 6777SOL     OW20896   4.800   2.545   8.912
 6777SOL    HW120897   4.720   2.484   8.915
 6777SOL    HW220898   4.881   2.492   8.888
 6778SOL     OW20899   4.183   3.014   8.189
 6778SOL    HW120900   4.112   2.987   8.254
 6778SOL    HW220901   4.157   2.986   8.096
 6779SOL     OW20902   3.802   2.418   8.834
 6779SOL    HW120903   3.894   2.417   8.793
 6779SOL    HW220904   3.796   2.492   8.901
 6780SOL     OW20905   4.285   2.084   8.595
 6780SOL    HW120906   4.323   2.000   8.632
 6780SOL    HW220907   4.197   2.103   8.639
 6781SOL     OW20908   4.212   3.247   7.622
 6781SOL    HW120909   4.125   3.232   7.669
 6781SOL    HW220910   4.195   3.273   7.527
 6782SOL     OW20911   4.251   2.118   7.776
 6782SOL    HW120912   4.278   2.059   7.701
 6782SOL    HW220913   4.251   2.213   7.745
 6783SOL     OW20914   4.134   2.675   8.699
 6783SOL    HW120915   4.220   2.687   8.749
 6783SOL    HW220916   4.092   2.588   8.726
 6784SOL     OW20917   3.788   3.426   8.779
 6784SOL    HW120918   3.742   3.508   8.745
 6784SOL    HW220919   3.886   3.445   8.788
 6785SOL     OW20920   4.091   2.962   7.949
 6785SOL    HW120921   4.084   3.045   7.893
 6785SOL    HW220922   4.095   2.882   7.889
 6786SOL     OW20923   4.290   2.399   8.313
 6786SOL    HW120924   4.302   2.465   8.239
 6786SOL    HW220925   4.336   2.433   8.396
 6787SOL     OW20926   4.078   3.372   8.777
 6787SOL    HW120927   4.057   3.328   8.690
 6787SOL    HW220928   4.175   3.398   8.780
 6788SOL     OW20929   4.126   2.613   9.046
 6788SOL    HW120930   4.194   2.668   8.999
 6788SOL    HW220931   4.166   2.525   9.073
 6789SOL     OW20932   4.228   1.912   9.188
 6789SOL    HW120933   4.186   1.855   9.118
 6789SOL    HW220934   4.162   1.981   9.220
 6790SOL     OW20935   4.297   2.732   8.477
 6790SOL    HW120936   4.341   2.821   8.468
 6790SOL    HW220937   4.234   2.732   8.554
 6791SOL     OW20938   4.031   2.075   8.679
 6791SOL    HW120939   4.008   2.112   8.769
 6791SOL    HW220940   4.001   1.980   8.673
 6792SOL     OW20941   3.761   3.172   8.730
 6792SOL    HW120942   3.814   3.123   8.798
 6792SOL    HW220943   3.783   3.270   8.735
 6793SOL     OW20944   4.031   1.925   8.066
 6793SOL    HW120945   4.020   2.019   8.099
 6793SOL    HW220946   4.026   1.862   8.143
 6794SOL     OW20947   4.074   2.760   9.252
 6794SOL    HW120948   4.150   2.804   9.300
 6794SOL    HW220949   4.109   2.713   9.170
 6795SOL     OW20950   4.043   2.672   8.397
 6795SOL    HW120951   4.136   2.708   8.402
 6795SOL    HW220952   4.037   2.587   8.449
 6796SOL     OW20953   4.063   2.371   8.454
 6796SOL    HW120954   4.011   2.288   8.437
 6796SOL    HW220955   4.140   2.376   8.390
 6797SOL     OW20956   3.732   3.188   7.648
 6797SOL    HW120957   3.639   3.209   7.617
 6797SOL    HW220958   3.742   3.089   7.661
 6798SOL     OW20959   3.812   3.663   8.375
 6798SOL    HW120960   3.770   3.577   8.348
 6798SOL    HW220961   3.906   3.666   8.341
 6799SOL     OW20962   4.228   3.430   8.358
 6799SOL    HW120963   4.294   3.504   8.367
 6799SOL    HW220964   4.272   3.351   8.316
 6800SOL     OW20965   3.764   2.406   8.562
 6800SOL    HW120966   3.849   2.373   8.521
 6800SOL    HW220967   3.777   2.421   8.660
 6801SOL     OW20968   3.913   2.382   9.170
 6801SOL    HW120969   3.972   2.342   9.100
 6801SOL    HW220970   3.855   2.453   9.129
 6802SOL     OW20971   4.539   2.434   7.773
 6802SOL    HW120972   4.546   2.345   7.727
 6802SOL    HW220973   4.445   2.468   7.765
 6803SOL     OW20974   3.976   3.426   9.192
 6803SOL    HW120975   3.946   3.483   9.268
 6803SOL    HW220976   3.969   3.329   9.218
 6804SOL     OW20977   4.197   2.362   7.639
 6804SOL    HW120978   4.258   2.442   7.643
 6804SOL    HW220979   4.102   2.393   7.646
 6805SOL     OW20980   3.883   2.999   8.914
 6805SOL    HW120981   3.905   2.938   8.990
 6805SOL    HW220982   3.893   2.950   8.828
 6806SOL     OW20983   3.807   3.120   8.470
 6806SOL    HW120984   3.802   3.119   8.570
 6806SOL    HW220985   3.724   3.079   8.432
 6807SOL     OW20986   4.412   3.524   9.164
 6807SOL    HW120987   4.356   3.605   9.173
 6807SOL    HW220988   4.464   3.528   9.078
 6808SOL     OW20989   3.854   3.656   9.299
 6808SOL    HW120990   3.813   3.582   9.352
 6808SOL    HW220991   3.918   3.707   9.357
 6809SOL     OW20992   3.987   2.188   8.168
 6809SOL    HW120993   3.908   2.239   8.134
 6809SOL    HW220994   3.978   2.173   8.266
 6810SOL     OW20995   4.096   3.150   8.938
 6810SOL    HW120996   4.083   3.243   8.904
 6810SOL    HW220997   4.012   3.098   8.925
 6811SOL     OW20998   4.314   3.349   7.939
 6811SOL    HW120999   4.356   3.291   7.869
 6811SOL    HW221000   4.270   3.428   7.895
 6812SOL     OW21001   3.979   3.210   7.738
 6812SOL    HW121002   3.883   3.211   7.711
 6812SOL    HW221003   3.991   3.263   7.822
 6813SOL     OW21004   3.829   2.875   9.174
 6813SOL    HW121005   3.752   2.842   9.228
 6813SOL    HW221006   3.914   2.845   9.216
 6814SOL     OW21007   4.396   2.065   8.937
 6814SOL    HW121008   4.486   2.049   8.897
 6814SOL    HW221009   4.404   2.070   9.036
 6815SOL     OW21010   3.799   2.207   7.481
 6815SOL    HW121011   3.707   2.179   7.452
 6815SOL    HW221012   3.830   2.284   7.425
 6816SOL     OW21013   3.796   2.028   7.766
 6816SOL    HW121014   3.779   2.111   7.712
 6816SOL    HW221015   3.886   1.991   7.744
 6817SOL     OW21016   4.337   2.704   8.879
 6817SOL    HW121017   4.393   2.785   8.862
 6817SOL    HW221018   4.396   2.624   8.882
 6818SOL     OW21019   4.440   2.427   9.156
 6818SOL    HW121020   4.459   2.492   9.230
 6818SOL    HW221021   4.500   2.347   9.165
 6819SOL     OW21022   4.114   3.603   9.008
 6819SOL    HW121023   4.023   3.644   9.006
 6819SOL    HW221024   4.107   3.509   9.040
 6820SOL     OW21025   4.318   2.607   8.100
 6820SOL    HW121026   4.368   2.692   8.081
 6820SOL    HW221027   4.230   2.609   8.052
 6821SOL     OW21028   3.945   3.176   9.292
 6821SOL    HW121029   3.880   3.103   9.271
 6821SOL    HW221030   3.949   3.190   9.390
 6822SOL     OW21031   3.803   3.102   8.101
 6822SOL    HW121032   3.802   3.055   8.189
 6822SOL    HW221033   3.885   3.074   8.050
 6823SOL     OW21034   4.396   3.253   9.072
 6823SOL    HW121035   4.318   3.203   9.110
 6823SOL    HW221036   4.393   3.348   9.103
 6824SOL     OW21037   4.152   2.286   7.968
 6824SOL    HW121038   4.182   2.214   7.906
 6824SOL    HW221039   4.113   2.246   8.051
 6825SOL     OW21040   4.041   2.409   8.728
 6825SOL    HW121041   4.079   2.350   8.800
 6825SOL    HW221042   4.081   2.383   8.640
 6826SOL     OW21043   4.536   3.448   8.135
 6826SOL    HW121044   4.568   3.458   8.041
 6826SOL    HW221045   4.457   3.386   8.137
 6827SOL     OW21046   3.763   2.939   7.748
 6827SOL    HW121047   3.862   2.928   7.739
 6827SOL    HW221048   3.723   2.853   7.780
 6828SOL     OW21049   3.954   2.490   9.423
 6828SOL    HW121050   3.861   2.488   9.460
 6828SOL    HW221051   3.955   2.451   9.331
 6829SOL     OW21052   3.949   2.137  10.306
 6829SOL    HW121053   3.984   2.120  10.398
 6829SOL    HW221054   3.861   2.092  10.294
 6830SOL     OW21055   3.743   2.230   9.957
 6830SOL    HW121056   3.661   2.273   9.996
 6830SOL    HW221057   3.715   2.157   9.894
 6831SOL     OW21058   4.293   3.137  10.475
 6831SOL    HW121059   4.200   3.130  10.438
 6831SOL    HW221060   4.304   3.226  10.519
 6832SOL     OW21061   4.574   2.660  11.133
 6832SOL    HW121062   4.570   2.736  11.198
 6832SOL    HW221063   4.596   2.696  11.042
 6833SOL     OW21064   4.409   2.874   9.975
 6833SOL    HW121065   4.478   2.858  10.045
 6833SOL    HW221066   4.336   2.931  10.013
 6834SOL     OW21067   4.059   3.297  10.371
 6834SOL    HW121068   3.981   3.266  10.318
 6834SOL    HW221069   4.117   3.355  10.314
 6835SOL     OW21070   4.162   2.254  10.809
 6835SOL    HW121071   4.244   2.198  10.818
 6835SOL    HW221072   4.081   2.196  10.813
 6836SOL     OW21073   3.955   3.575   9.793
 6836SOL    HW121074   3.989   3.652   9.847
 6836SOL    HW221075   3.999   3.575   9.703
 6837SOL     OW21076   3.954   3.296   9.848
 6837SOL    HW121077   3.928   3.392   9.848
 6837SOL    HW221078   3.883   3.242   9.893
 6838SOL     OW21079   3.964   2.953  10.196
 6838SOL    HW121080   3.978   2.869  10.248
 6838SOL    HW221081   3.909   3.017  10.251
 6839SOL     OW21082   4.344   3.648  10.749
 6839SOL    HW121083   4.252   3.631  10.784
 6839SOL    HW221084   4.372   3.740  10.775
 6840SOL     OW21085   4.330   2.826   9.433
 6840SOL    HW121086   4.337   2.910   9.379
 6840SOL    HW221087   4.376   2.839   9.521
 6841SOL     OW21088   3.846   2.505   9.873
 6841SOL    HW121089   3.801   2.417   9.890
 6841SOL    HW221090   3.845   2.559   9.957
 6842SOL     OW21091   3.751   3.458   9.427
 6842SOL    HW121092   3.732   3.362   9.448
 6842SOL    HW221093   3.718   3.516   9.502
 6843SOL     OW21094   3.837   2.599  10.907
 6843SOL    HW121095   3.925   2.586  10.952
 6843SOL    HW221096   3.824   2.696  10.885
 6844SOL     OW21097   4.337   3.227  10.036
 6844SOL    HW121098   4.288   3.140  10.045
 6844SOL    HW221099   4.314   3.270   9.949
 6845SOL     OW21100   4.533   1.866   9.812
 6845SOL    HW121101   4.573   1.957   9.803
 6845SOL    HW221102   4.433   1.874   9.818
 6846SOL     OW21103   3.921   2.838  10.574
 6846SOL    HW121104   4.010   2.793  10.560
 6846SOL    HW221105   3.848   2.773  10.555
 6847SOL     OW21106   4.041   2.113  11.111
 6847SOL    HW121107   4.112   2.184  11.117
 6847SOL    HW221108   3.953   2.152  11.139
 6848SOL     OW21109   4.322   2.591   9.580
 6848SOL    HW121110   4.346   2.660   9.512
 6848SOL    HW221111   4.244   2.624   9.634
 6849SOL     OW21112   3.800   2.673  10.099
 6849SOL    HW121113   3.899   2.661  10.108
 6849SOL    HW221114   3.776   2.768  10.120
 6850SOL     OW21115   3.854   3.683  10.881
 6850SOL    HW121116   3.844   3.668  10.980
 6850SOL    HW221117   3.768   3.719  10.845
 6851SOL     OW21118   4.274   2.058  10.195
 6851SOL    HW121119   4.269   2.053  10.295
 6851SOL    HW221120   4.276   2.154  10.166
 6852SOL     OW21121   4.075   3.663  10.163
 6852SOL    HW121122   4.125   3.577  10.169
 6852SOL    HW221123   4.140   3.740  10.160
 6853SOL     OW21124   4.045   2.805   9.552
 6853SOL    HW121125   4.127   2.844   9.510
 6853SOL    HW221126   4.018   2.723   9.503
 6854SOL     OW21127   4.185   3.128  11.037
 6854SOL    HW121128   4.135   3.129  10.951
 6854SOL    HW221129   4.122   3.110  11.113
 6855SOL     OW21130   3.926   2.147  10.808
 6855SOL    HW121131   3.846   2.207  10.795
 6855SOL    HW221132   3.916   2.098  10.894
 6856SOL     OW21133   4.188   3.605   9.633
 6856SOL    HW121134   4.221   3.644   9.719
 6856SOL    HW221135   4.264   3.598   9.568
 6857SOL     OW21136   3.973   3.647  10.551
 6857SOL    HW121137   4.030   3.582  10.601
 6857SOL    HW221138   3.957   3.614  10.458
 6858SOL     OW21139   4.106   2.562   9.790
 6858SOL    HW121140   4.151   2.472   9.787
 6858SOL    HW221141   4.012   2.551   9.823
 6859SOL     OW21142   4.338   1.984   9.427
 6859SOL    HW121143   4.436   1.962   9.434
 6859SOL    HW221144   4.307   1.967   9.334
 6860SOL     OW21145   4.527   3.264  10.234
 6860SOL    HW121146   4.617   3.278  10.192
 6860SOL    HW221147   4.456   3.266  10.163
 6861SOL     OW21148   4.263   1.926   9.822
 6861SOL    HW121149   4.182   1.927   9.880
 6861SOL    HW221150   4.266   2.009   9.767
 6862SOL     OW21151   4.021   1.897   9.481
 6862SOL    HW121152   4.070   1.981   9.460
 6862SOL    HW221153   4.083   1.832   9.526
 6863SOL     OW21154   4.800   2.545  10.774
 6863SOL    HW121155   4.720   2.484  10.777
 6863SOL    HW221156   4.881   2.492  10.750
 6864SOL     OW21157   4.183   3.014  10.051
 6864SOL    HW121158   4.112   2.987  10.116
 6864SOL    HW221159   4.157   2.986   9.958
 6865SOL     OW21160   3.802   2.418  10.696
 6865SOL    HW121161   3.894   2.417  10.655
 6865SOL    HW221162   3.796   2.492  10.763
 6866SOL     OW21163   4.285   2.084  10.457
 6866SOL    HW121164   4.323   2.000  10.494
 6866SOL    HW221165   4.197   2.103  10.501
 6867SOL     OW21166   4.212   3.247   9.484
 6867SOL    HW121167   4.125   3.232   9.531
 6867SOL    HW221168   4.195   3.273   9.389
 6868SOL     OW21169   4.251   2.118   9.638
 6868SOL    HW121170   4.278   2.059   9.563
 6868SOL    HW221171   4.251   2.213   9.607
 6869SOL     OW21172   4.134   2.675  10.561
 6869SOL    HW121173   4.220   2.687  10.611
 6869SOL    HW221174   4.092   2.588  10.588
 6870SOL     OW21175   3.788   3.426  10.641
 6870SOL    HW121176   3.742   3.508  10.607
 6870SOL    HW221177   3.886   3.445  10.650
 6871SOL     OW21178   4.091   2.962   9.811
 6871SOL    HW121179   4.084   3.045   9.755
 6871SOL    HW221180   4.095   2.882   9.751
 6872SOL     OW21181   4.290   2.399  10.175
 6872SOL    HW121182   4.302   2.465  10.101
 6872SOL    HW221183   4.336   2.433  10.258
 6873SOL     OW21184   4.078   3.372  10.639
 6873SOL    HW121185   4.057   3.328  10.552
 6873SOL    HW221186   4.175   3.398  10.642
 6874SOL     OW21187   4.126   2.613  10.908
 6874SOL    HW121188   4.194   2.668  10.861
 6874SOL    HW221189   4.166   2.525  10.935
 6875SOL     OW21190   4.297   2.732  10.339
 6875SOL    HW121191   4.341   2.821  10.330
 6875SOL    HW221192   4.234   2.732  10.416
 6876SOL     OW21193   4.031   2.075  10.541
 6876SOL    HW121194   4.008   2.112  10.631
 6876SOL    HW221195   4.001   1.980  10.535
 6877SOL     OW21196   3.761   3.172  10.592
 6877SOL    HW121197   3.814   3.123  10.660
 6877SOL    HW221198   3.783   3.270  10.597
 6878SOL     OW21199   4.031   1.925   9.928
 6878SOL    HW121200   4.020   2.019   9.961
 6878SOL    HW221201   4.026   1.862  10.005
 6879SOL     OW21202   4.074   2.760  11.114
 6879SOL    HW121203   4.150   2.804  11.162
 6879SOL    HW221204   4.109   2.713  11.032
 6880SOL     OW21205   4.043   2.672  10.259
 6880SOL    HW121206   4.136   2.708  10.264
 6880SOL    HW221207   4.037   2.587  10.311
 6881SOL     OW21208   4.063   2.371  10.316
 6881SOL    HW121209   4.011   2.288  10.299
 6881SOL    HW221210   4.140   2.376  10.252
 6882SOL     OW21211   3.732   3.188   9.510
 6882SOL    HW121212   3.639   3.209   9.479
 6882SOL    HW221213   3.742   3.089   9.523
 6883SOL     OW21214   3.812   3.663  10.237
 6883SOL    HW121215   3.770   3.577  10.210
 6883SOL    HW221216   3.906   3.666  10.203
 6884SOL     OW21217   4.228   3.430  10.220
 6884SOL    HW121218   4.294   3.504  10.229
 6884SOL    HW221219   4.272   3.351  10.178
 6885SOL     OW21220   3.764   2.406  10.424
 6885SOL    HW121221   3.849   2.373  10.383
 6885SOL    HW221222   3.777   2.421  10.522
 6886SOL     OW21223   4.539   2.434   9.635
 6886SOL    HW121224   4.546   2.345   9.589
 6886SOL    HW221225   4.445   2.468   9.627
 6887SOL     OW21226   3.976   3.426  11.054
 6887SOL    HW121227   3.946   3.483  11.130
 6887SOL    HW221228   3.969   3.329  11.080
 6888SOL     OW21229   4.197   2.362   9.501
 6888SOL    HW121230   4.258   2.442   9.505
 6888SOL    HW221231   4.102   2.393   9.508
 6889SOL     OW21232   3.883   2.999  10.776
 6889SOL    HW121233   3.905   2.938  10.852
 6889SOL    HW221234   3.893   2.950  10.690
 6890SOL     OW21235   3.807   3.120  10.332
 6890SOL    HW121236   3.802   3.119  10.432
 6890SOL    HW221237   3.724   3.079  10.294
 6891SOL     OW21238   4.412   3.524  11.026
 6891SOL    HW121239   4.356   3.605  11.035
 6891SOL    HW221240   4.464   3.528  10.940
 6892SOL     OW21241   3.987   2.188  10.030
 6892SOL    HW121242   3.908   2.239   9.996
 6892SOL    HW221243   3.978   2.173  10.128
 6893SOL     OW21244   4.096   3.150  10.800
 6893SOL    HW121245   4.083   3.243  10.766
 6893SOL    HW221246   4.012   3.098  10.787
 6894SOL     OW21247   4.314   3.349   9.801
 6894SOL    HW121248   4.356   3.291   9.731
 6894SOL    HW221249   4.270   3.428   9.757
 6895SOL     OW21250   3.979   3.210   9.600
 6895SOL    HW121251   3.883   3.211   9.573
 6895SOL    HW221252   3.991   3.263   9.684
 6896SOL     OW21253   3.829   2.875  11.036
 6896SOL    HW121254   3.752   2.842  11.090
 6896SOL    HW221255   3.914   2.845  11.078
 6897SOL     OW21256   4.396   2.065  10.799
 6897SOL    HW121257   4.486   2.049  10.759
 6897SOL    HW221258   4.404   2.070  10.898
 6898SOL     OW21259   3.799   2.207   9.343
 6898SOL    HW121260   3.707   2.179   9.314
 6898SOL    HW221261   3.830   2.284   9.287
 6899SOL     OW21262   3.796   2.028   9.628
 6899SOL    HW121263   3.779   2.111   9.574
 6899SOL    HW221264   3.886   1.991   9.606
 6900SOL     OW21265   4.337   2.704  10.741
 6900SOL    HW121266   4.393   2.785  10.724
 6900SOL    HW221267   4.396   2.624  10.744
 6901SOL     OW21268   4.114   3.603  10.870
 6901SOL    HW121269   4.023   3.644  10.868
 6901SOL    HW221270   4.107   3.509  10.902
 6902SOL     OW21271   4.318   2.607   9.962
 6902SOL    HW121272   4.368   2.692   9.943
 6902SOL    HW221273   4.230   2.609   9.914
 6903SOL     OW21274   3.803   3.102   9.963
 6903SOL    HW121275   3.802   3.055  10.051
 6903SOL    HW221276   3.885   3.074   9.912
 6904SOL     OW21277   4.396   3.253  10.934
 6904SOL    HW121278   4.318   3.203  10.972
 6904SOL    HW221279   4.393   3.348  10.965
 6905SOL     OW21280   4.152   2.286   9.830
 6905SOL    HW121281   4.182   2.214   9.768
 6905SOL    HW221282   4.113   2.246   9.913
 6906SOL     OW21283   4.041   2.409  10.590
 6906SOL    HW121284   4.079   2.350  10.662
 6906SOL    HW221285   4.081   2.383  10.502
 6907SOL     OW21286   4.536   3.448   9.997
 6907SOL    HW121287   4.568   3.458   9.903
 6907SOL    HW221288   4.457   3.386   9.999
 6908SOL     OW21289   3.763   2.939   9.610
 6908SOL    HW121290   3.862   2.928   9.601
 6908SOL    HW221291   3.723   2.853   9.642
 6909SOL     OW21292   3.954   4.352   0.113
 6909SOL    HW121293   3.861   4.350   0.150
 6909SOL    HW221294   3.955   4.313   0.021
 6910SOL     OW21295   3.949   3.999   0.996
 6910SOL    HW121296   3.984   3.982   1.088
 6910SOL    HW221297   3.861   3.954   0.984
 6911SOL     OW21298   3.743   4.092   0.647
 6911SOL    HW121299   3.661   4.135   0.686
 6911SOL    HW221300   3.715   4.019   0.584
 6912SOL     OW21301   4.574   4.522   1.823
 6912SOL    HW121302   4.570   4.598   1.888
 6912SOL    HW221303   4.596   4.558   1.732
 6913SOL     OW21304   4.162   4.116   1.499
 6913SOL    HW121305   4.244   4.060   1.508
 6913SOL    HW221306   4.081   4.058   1.503
 6914SOL     OW21307   3.846   4.367   0.563
 6914SOL    HW121308   3.801   4.279   0.580
 6914SOL    HW221309   3.845   4.421   0.647
 6915SOL     OW21310   3.837   4.461   1.597
 6915SOL    HW121311   3.925   4.448   1.642
 6915SOL    HW221312   3.824   4.558   1.575
 6916SOL     OW21313   4.533   3.728   0.502
 6916SOL    HW121314   4.573   3.819   0.493
 6916SOL    HW221315   4.433   3.736   0.508
 6917SOL     OW21316   4.041   3.975   1.801
 6917SOL    HW121317   4.112   4.046   1.807
 6917SOL    HW221318   3.953   4.014   1.829
 6918SOL     OW21319   4.274   3.920   0.885
 6918SOL    HW121320   4.269   3.915   0.985
 6918SOL    HW221321   4.276   4.016   0.856
 6919SOL     OW21322   3.926   4.009   1.498
 6919SOL    HW121323   3.846   4.069   1.485
 6919SOL    HW221324   3.916   3.960   1.584
 6920SOL     OW21325   4.106   4.424   0.480
 6920SOL    HW121326   4.151   4.334   0.477
 6920SOL    HW221327   4.012   4.413   0.513
 6921SOL     OW21328   4.338   3.846   0.117
 6921SOL    HW121329   4.436   3.824   0.124
 6921SOL    HW221330   4.307   3.829   0.024
 6922SOL     OW21331   4.263   3.788   0.512
 6922SOL    HW121332   4.182   3.789   0.570
 6922SOL    HW221333   4.266   3.871   0.457
 6923SOL     OW21334   4.021   3.759   0.171
 6923SOL    HW121335   4.070   3.843   0.150
 6923SOL    HW221336   4.083   3.694   0.216
 6924SOL     OW21337   4.800   4.407   1.464
 6924SOL    HW121338   4.720   4.346   1.467
 6924SOL    HW221339   4.881   4.354   1.440
 6925SOL     OW21340   3.802   4.280   1.386
 6925SOL    HW121341   3.894   4.279   1.345
 6925SOL    HW221342   3.796   4.354   1.453
 6926SOL     OW21343   4.285   3.946   1.147
 6926SOL    HW121344   4.323   3.862   1.184
 6926SOL    HW221345   4.197   3.965   1.191
 6927SOL     OW21346   4.251   3.980   0.328
 6927SOL    HW121347   4.278   3.921   0.253
 6927SOL    HW221348   4.251   4.075   0.297
 6928SOL     OW21349   4.134   4.537   1.251
 6928SOL    HW121350   4.220   4.549   1.301
 6928SOL    HW221351   4.092   4.450   1.278
 6929SOL     OW21352   4.290   4.261   0.865
 6929SOL    HW121353   4.302   4.327   0.791
 6929SOL    HW221354   4.336   4.295   0.948
 6930SOL     OW21355   4.228   3.774   1.740
 6930SOL    HW121356   4.186   3.717   1.670
 6930SOL    HW221357   4.162   3.843   1.772
 6931SOL     OW21358   4.031   3.937   1.231
 6931SOL    HW121359   4.008   3.974   1.321
 6931SOL    HW221360   4.001   3.842   1.225
 6932SOL     OW21361   4.031   3.787   0.618
 6932SOL    HW121362   4.020   3.881   0.651
 6932SOL    HW221363   4.026   3.724   0.695
 6933SOL     OW21364   4.043   4.534   0.949
 6933SOL    HW121365   4.136   4.570   0.954
 6933SOL    HW221366   4.037   4.449   1.001
 6934SOL     OW21367   4.063   4.233   1.006
 6934SOL    HW121368   4.011   4.150   0.989
 6934SOL    HW221369   4.140   4.238   0.942
 6935SOL     OW21370   3.764   4.268   1.114
 6935SOL    HW121371   3.849   4.235   1.073
 6935SOL    HW221372   3.777   4.283   1.212
 6936SOL     OW21373   3.913   4.244   1.722
 6936SOL    HW121374   3.972   4.204   1.652
 6936SOL    HW221375   3.855   4.315   1.681
 6937SOL     OW21376   4.539   4.296   0.325
 6937SOL    HW121377   4.546   4.207   0.279
 6937SOL    HW221378   4.445   4.330   0.317
 6938SOL     OW21379   4.197   4.224   0.191
 6938SOL    HW121380   4.258   4.304   0.195
 6938SOL    HW221381   4.102   4.255   0.198
 6939SOL     OW21382   3.987   4.050   0.720
 6939SOL    HW121383   3.908   4.101   0.686
 6939SOL    HW221384   3.978   4.035   0.818
 6940SOL     OW21385   4.396   3.927   1.489
 6940SOL    HW121386   4.486   3.911   1.449
 6940SOL    HW221387   4.404   3.932   1.588
 6941SOL     OW21388   3.799   4.069   0.033
 6941SOL    HW121389   3.707   4.041   0.004
 6941SOL    HW221390   3.830   4.146  -0.023
 6942SOL     OW21391   3.796   3.890   0.318
 6942SOL    HW121392   3.779   3.973   0.264
 6942SOL    HW221393   3.886   3.853   0.296
 6943SOL     OW21394   4.440   4.289   1.708
 6943SOL    HW121395   4.459   4.354   1.782
 6943SOL    HW221396   4.500   4.209   1.717
 6944SOL     OW21397   4.152   4.148   0.520
 6944SOL    HW121398   4.182   4.076   0.458
 6944SOL    HW221399   4.113   4.108   0.603
 6945SOL     OW21400   4.041   4.271   1.280
 6945SOL    HW121401   4.079   4.212   1.352
 6945SOL    HW221402   4.081   4.245   1.192
 6946SOL     OW21403   3.954   4.352   1.975
 6946SOL    HW121404   3.861   4.350   2.012
 6946SOL    HW221405   3.955   4.313   1.883
 6947SOL     OW21406   3.949   3.999   2.858
 6947SOL    HW121407   3.984   3.982   2.950
 6947SOL    HW221408   3.861   3.954   2.846
 6948SOL     OW21409   3.743   4.092   2.509
 6948SOL    HW121410   3.661   4.135   2.548
 6948SOL    HW221411   3.715   4.019   2.446
 6949SOL     OW21412   4.574   4.522   3.685
 6949SOL    HW121413   4.570   4.598   3.750
 6949SOL    HW221414   4.596   4.558   3.594
 6950SOL     OW21415   4.162   4.116   3.361
 6950SOL    HW121416   4.244   4.060   3.370
 6950SOL    HW221417   4.081   4.058   3.365
 6951SOL     OW21418   3.846   4.367   2.425
 6951SOL    HW121419   3.801   4.279   2.442
 6951SOL    HW221420   3.845   4.421   2.509
 6952SOL     OW21421   3.837   4.461   3.459
 6952SOL    HW121422   3.925   4.448   3.504
 6952SOL    HW221423   3.824   4.558   3.437
 6953SOL     OW21424   4.533   3.728   2.364
 6953SOL    HW121425   4.573   3.819   2.355
 6953SOL    HW221426   4.433   3.736   2.370
 6954SOL     OW21427   4.041   3.975   3.663
 6954SOL    HW121428   4.112   4.046   3.669
 6954SOL    HW221429   3.953   4.014   3.691
 6955SOL     OW21430   4.274   3.920   2.747
 6955SOL    HW121431   4.269   3.915   2.847
 6955SOL    HW221432   4.276   4.016   2.718
 6956SOL     OW21433   3.926   4.009   3.360
 6956SOL    HW121434   3.846   4.069   3.347
 6956SOL    HW221435   3.916   3.960   3.446
 6957SOL     OW21436   4.106   4.424   2.342
 6957SOL    HW121437   4.151   4.334   2.339
 6957SOL    HW221438   4.012   4.413   2.375
 6958SOL     OW21439   4.338   3.846   1.979
 6958SOL    HW121440   4.436   3.824   1.986
 6958SOL    HW221441   4.307   3.829   1.886
 6959SOL     OW21442   4.263   3.788   2.374
 6959SOL    HW121443   4.182   3.789   2.432
 6959SOL    HW221444   4.266   3.871   2.319
 6960SOL     OW21445   4.021   3.759   2.033
 6960SOL    HW121446   4.070   3.843   2.012
 6960SOL    HW221447   4.083   3.694   2.078
 6961SOL     OW21448   4.800   4.407   3.326
 6961SOL    HW121449   4.720   4.346   3.329
 6961SOL    HW221450   4.881   4.354   3.302
 6962SOL     OW21451   3.802   4.280   3.248
 6962SOL    HW121452   3.894   4.279   3.207
 6962SOL    HW221453   3.796   4.354   3.315
 6963SOL     OW21454   4.285   3.946   3.009
 6963SOL    HW121455   4.323   3.862   3.046
 6963SOL    HW221456   4.197   3.965   3.053
 6964SOL     OW21457   4.251   3.980   2.190
 6964SOL    HW121458   4.278   3.921   2.115
 6964SOL    HW221459   4.251   4.075   2.159
 6965SOL     OW21460   4.134   4.537   3.113
 6965SOL    HW121461   4.220   4.549   3.163
 6965SOL    HW221462   4.092   4.450   3.140
 6966SOL     OW21463   4.290   4.261   2.727
 6966SOL    HW121464   4.302   4.327   2.653
 6966SOL    HW221465   4.336   4.295   2.810
 6967SOL     OW21466   4.228   3.774   3.602
 6967SOL    HW121467   4.186   3.717   3.532
 6967SOL    HW221468   4.162   3.843   3.634
 6968SOL     OW21469   4.031   3.937   3.093
 6968SOL    HW121470   4.008   3.974   3.183
 6968SOL    HW221471   4.001   3.842   3.087
 6969SOL     OW21472   4.031   3.787   2.480
 6969SOL    HW121473   4.020   3.881   2.513
 6969SOL    HW221474   4.026   3.724   2.557
 6970SOL     OW21475   4.043   4.534   2.811
 6970SOL    HW121476   4.136   4.570   2.816
 6970SOL    HW221477   4.037   4.449   2.863
 6971SOL     OW21478   4.063   4.233   2.868
 6971SOL    HW121479   4.011   4.150   2.851
 6971SOL    HW221480   4.140   4.238   2.804
 6972SOL     OW21481   3.764   4.268   2.976
 6972SOL    HW121482   3.849   4.235   2.935
 6972SOL    HW221483   3.777   4.283   3.074
 6973SOL     OW21484   3.913   4.244   3.584
 6973SOL    HW121485   3.972   4.204   3.514
 6973SOL    HW221486   3.855   4.315   3.543
 6974SOL     OW21487   4.539   4.296   2.187
 6974SOL    HW121488   4.546   4.207   2.141
 6974SOL    HW221489   4.445   4.330   2.179
 6975SOL     OW21490   4.197   4.224   2.053
 6975SOL    HW121491   4.258   4.304   2.057
 6975SOL    HW221492   4.102   4.255   2.060
 6976SOL     OW21493   3.987   4.050   2.582
 6976SOL    HW121494   3.908   4.101   2.548
 6976SOL    HW221495   3.978   4.035   2.680
 6977SOL     OW21496   4.396   3.927   3.351
 6977SOL    HW121497   4.486   3.911   3.311
 6977SOL    HW221498   4.404   3.932   3.450
 6978SOL     OW21499   3.799   4.069   1.895
 6978SOL    HW121500   3.707   4.041   1.866
 6978SOL    HW221501   3.830   4.146   1.839
 6979SOL     OW21502   3.796   3.890   2.180
 6979SOL    HW121503   3.779   3.973   2.126
 6979SOL    HW221504   3.886   3.853   2.158
 6980SOL     OW21505   4.440   4.289   3.570
 6980SOL    HW121506   4.459   4.354   3.644
 6980SOL    HW221507   4.500   4.209   3.579
 6981SOL     OW21508   4.152   4.148   2.382
 6981SOL    HW121509   4.182   4.076   2.320
 6981SOL    HW221510   4.113   4.108   2.465
 6982SOL     OW21511   4.041   4.271   3.142
 6982SOL    HW121512   4.079   4.212   3.214
 6982SOL    HW221513   4.081   4.245   3.054
 6983SOL     OW21514   3.954   4.352   3.837
 6983SOL    HW121515   3.861   4.350   3.874
 6983SOL    HW221516   3.955   4.313   3.745
 6984SOL     OW21517   3.949   3.999   4.720
 6984SOL    HW121518   3.984   3.982   4.812
 6984SOL    HW221519   3.861   3.954   4.708
 6985SOL     OW21520   3.743   4.092   4.371
 6985SOL    HW121521   3.661   4.135   4.410
 6985SOL    HW221522   3.715   4.019   4.308
 6986SOL     OW21523   4.574   4.522   5.547
 6986SOL    HW121524   4.570   4.598   5.612
 6986SOL    HW221525   4.596   4.558   5.456
 6987SOL     OW21526   4.162   4.116   5.223
 6987SOL    HW121527   4.244   4.060   5.232
 6987SOL    HW221528   4.081   4.058   5.227
 6988SOL     OW21529   3.846   4.367   4.287
 6988SOL    HW121530   3.801   4.279   4.304
 6988SOL    HW221531   3.845   4.421   4.371
 6989SOL     OW21532   3.837   4.461   5.321
 6989SOL    HW121533   3.925   4.448   5.366
 6989SOL    HW221534   3.824   4.558   5.299
 6990SOL     OW21535   4.533   3.728   4.226
 6990SOL    HW121536   4.573   3.819   4.217
 6990SOL    HW221537   4.433   3.736   4.232
 6991SOL     OW21538   4.041   3.975   5.525
 6991SOL    HW121539   4.112   4.046   5.531
 6991SOL    HW221540   3.953   4.014   5.553
 6992SOL     OW21541   4.274   3.920   4.609
 6992SOL    HW121542   4.269   3.915   4.709
 6992SOL    HW221543   4.276   4.016   4.580
 6993SOL     OW21544   3.926   4.009   5.222
 6993SOL    HW121545   3.846   4.069   5.209
 6993SOL    HW221546   3.916   3.960   5.308
 6994SOL     OW21547   4.106   4.424   4.204
 6994SOL    HW121548   4.151   4.334   4.201
 6994SOL    HW221549   4.012   4.413   4.237
 6995SOL     OW21550   4.338   3.846   3.841
 6995SOL    HW121551   4.436   3.824   3.848
 6995SOL    HW221552   4.307   3.829   3.748
 6996SOL     OW21553   4.263   3.788   4.236
 6996SOL    HW121554   4.182   3.789   4.294
 6996SOL    HW221555   4.266   3.871   4.181
 6997SOL     OW21556   4.021   3.759   3.895
 6997SOL    HW121557   4.070   3.843   3.874
 6997SOL    HW221558   4.083   3.694   3.940
 6998SOL     OW21559   4.800   4.407   5.188
 6998SOL    HW121560   4.720   4.346   5.191
 6998SOL    HW221561   4.881   4.354   5.164
 6999SOL     OW21562   3.802   4.280   5.110
 6999SOL    HW121563   3.894   4.279   5.069
 6999SOL    HW221564   3.796   4.354   5.177
 7000SOL     OW21565   4.285   3.946   4.871
 7000SOL    HW121566   4.323   3.862   4.908
 7000SOL    HW221567   4.197   3.965   4.915
 7001SOL     OW21568   4.251   3.980   4.052
 7001SOL    HW121569   4.278   3.921   3.977
 7001SOL    HW221570   4.251   4.075   4.021
 7002SOL     OW21571   4.134   4.537   4.975
 7002SOL    HW121572   4.220   4.549   5.025
 7002SOL    HW221573   4.092   4.450   5.002
 7003SOL     OW21574   4.290   4.261   4.589
 7003SOL    HW121575   4.302   4.327   4.515
 7003SOL    HW221576   4.336   4.295   4.672
 7004SOL     OW21577   4.228   3.774   5.464
 7004SOL    HW121578   4.186   3.717   5.394
 7004SOL    HW221579   4.162   3.843   5.496
 7005SOL     OW21580   4.031   3.937   4.955
 7005SOL    HW121581   4.008   3.974   5.045
 7005SOL    HW221582   4.001   3.842   4.949
 7006SOL     OW21583   4.031   3.787   4.342
 7006SOL    HW121584   4.020   3.881   4.375
 7006SOL    HW221585   4.026   3.724   4.419
 7007SOL     OW21586   4.043   4.534   4.673
 7007SOL    HW121587   4.136   4.570   4.678
 7007SOL    HW221588   4.037   4.449   4.725
 7008SOL     OW21589   4.063   4.233   4.730
 7008SOL    HW121590   4.011   4.150   4.713
 7008SOL    HW221591   4.140   4.238   4.666
 7009SOL     OW21592   3.764   4.268   4.838
 7009SOL    HW121593   3.849   4.235   4.797
 7009SOL    HW221594   3.777   4.283   4.936
 7010SOL     OW21595   3.913   4.244   5.446
 7010SOL    HW121596   3.972   4.204   5.376
 7010SOL    HW221597   3.855   4.315   5.405
 7011SOL     OW21598   4.539   4.296   4.049
 7011SOL    HW121599   4.546   4.207   4.003
 7011SOL    HW221600   4.445   4.330   4.041
 7012SOL     OW21601   4.197   4.224   3.915
 7012SOL    HW121602   4.258   4.304   3.919
 7012SOL    HW221603   4.102   4.255   3.922
 7013SOL     OW21604   3.987   4.050   4.444
 7013SOL    HW121605   3.908   4.101   4.410
 7013SOL    HW221606   3.978   4.035   4.542
 7014SOL     OW21607   4.396   3.927   5.213
 7014SOL    HW121608   4.486   3.911   5.173
 7014SOL    HW221609   4.404   3.932   5.312
 7015SOL     OW21610   3.799   4.069   3.757
 7015SOL    HW121611   3.707   4.041   3.728
 7015SOL    HW221612   3.830   4.146   3.701
 7016SOL     OW21613   3.796   3.890   4.042
 7016SOL    HW121614   3.779   3.973   3.988
 7016SOL    HW221615   3.886   3.853   4.020
 7017SOL     OW21616   4.440   4.289   5.432
 7017SOL    HW121617   4.459   4.354   5.506
 7017SOL    HW221618   4.500   4.209   5.441
 7018SOL     OW21619   4.152   4.148   4.244
 7018SOL    HW121620   4.182   4.076   4.182
 7018SOL    HW221621   4.113   4.108   4.327
 7019SOL     OW21622   4.041   4.271   5.004
 7019SOL    HW121623   4.079   4.212   5.076
 7019SOL    HW221624   4.081   4.245   4.916
 7020SOL     OW21625   3.954   4.352   5.699
 7020SOL    HW121626   3.861   4.350   5.736
 7020SOL    HW221627   3.955   4.313   5.607
 7021SOL     OW21628   3.949   3.999   6.582
 7021SOL    HW121629   3.984   3.982   6.674
 7021SOL    HW221630   3.861   3.954   6.570
 7022SOL     OW21631   3.743   4.092   6.233
 7022SOL    HW121632   3.661   4.135   6.272
 7022SOL    HW221633   3.715   4.019   6.170
 7023SOL     OW21634   4.574   4.522   7.409
 7023SOL    HW121635   4.570   4.598   7.474
 7023SOL    HW221636   4.596   4.558   7.318
 7024SOL     OW21637   4.162   4.116   7.085
 7024SOL    HW121638   4.244   4.060   7.094
 7024SOL    HW221639   4.081   4.058   7.089
 7025SOL     OW21640   3.846   4.367   6.149
 7025SOL    HW121641   3.801   4.279   6.166
 7025SOL    HW221642   3.845   4.421   6.233
 7026SOL     OW21643   3.837   4.461   7.183
 7026SOL    HW121644   3.925   4.448   7.228
 7026SOL    HW221645   3.824   4.558   7.161
 7027SOL     OW21646   4.533   3.728   6.088
 7027SOL    HW121647   4.573   3.819   6.079
 7027SOL    HW221648   4.433   3.736   6.094
 7028SOL     OW21649   4.041   3.975   7.387
 7028SOL    HW121650   4.112   4.046   7.393
 7028SOL    HW221651   3.953   4.014   7.415
 7029SOL     OW21652   4.274   3.920   6.471
 7029SOL    HW121653   4.269   3.915   6.571
 7029SOL    HW221654   4.276   4.016   6.442
 7030SOL     OW21655   3.926   4.009   7.084
 7030SOL    HW121656   3.846   4.069   7.071
 7030SOL    HW221657   3.916   3.960   7.170
 7031SOL     OW21658   4.106   4.424   6.066
 7031SOL    HW121659   4.151   4.334   6.063
 7031SOL    HW221660   4.012   4.413   6.099
 7032SOL     OW21661   4.338   3.846   5.703
 7032SOL    HW121662   4.436   3.824   5.710
 7032SOL    HW221663   4.307   3.829   5.610
 7033SOL     OW21664   4.263   3.788   6.098
 7033SOL    HW121665   4.182   3.789   6.156
 7033SOL    HW221666   4.266   3.871   6.043
 7034SOL     OW21667   4.021   3.759   5.757
 7034SOL    HW121668   4.070   3.843   5.736
 7034SOL    HW221669   4.083   3.694   5.802
 7035SOL     OW21670   4.800   4.407   7.050
 7035SOL    HW121671   4.720   4.346   7.053
 7035SOL    HW221672   4.881   4.354   7.026
 7036SOL     OW21673   3.802   4.280   6.972
 7036SOL    HW121674   3.894   4.279   6.931
 7036SOL    HW221675   3.796   4.354   7.039
 7037SOL     OW21676   4.285   3.946   6.733
 7037SOL    HW121677   4.323   3.862   6.770
 7037SOL    HW221678   4.197   3.965   6.777
 7038SOL     OW21679   4.251   3.980   5.914
 7038SOL    HW121680   4.278   3.921   5.839
 7038SOL    HW221681   4.251   4.075   5.883
 7039SOL     OW21682   4.134   4.537   6.837
 7039SOL    HW121683   4.220   4.549   6.887
 7039SOL    HW221684   4.092   4.450   6.864
 7040SOL     OW21685   4.290   4.261   6.451
 7040SOL    HW121686   4.302   4.327   6.377
 7040SOL    HW221687   4.336   4.295   6.534
 7041SOL     OW21688   4.228   3.774   7.326
 7041SOL    HW121689   4.186   3.717   7.256
 7041SOL    HW221690   4.162   3.843   7.358
 7042SOL     OW21691   4.031   3.937   6.817
 7042SOL    HW121692   4.008   3.974   6.907
 7042SOL    HW221693   4.001   3.842   6.811
 7043SOL     OW21694   4.031   3.787   6.204
 7043SOL    HW121695   4.020   3.881   6.237
 7043SOL    HW221696   4.026   3.724   6.281
 7044SOL     OW21697   4.043   4.534   6.535
 7044SOL    HW121698   4.136   4.570   6.540
 7044SOL    HW221699   4.037   4.449   6.587
 7045SOL     OW21700   4.063   4.233   6.592
 7045SOL    HW121701   4.011   4.150   6.575
 7045SOL    HW221702   4.140   4.238   6.528
 7046SOL     OW21703   3.764   4.268   6.700
 7046SOL    HW121704   3.849   4.235   6.659
 7046SOL    HW221705   3.777   4.283   6.798
 7047SOL     OW21706   3.913   4.244   7.308
 7047SOL    HW121707   3.972   4.204   7.238
 7047SOL    HW221708   3.855   4.315   7.267
 7048SOL     OW21709   4.539   4.296   5.911
 7048SOL    HW121710   4.546   4.207   5.865
 7048SOL    HW221711   4.445   4.330   5.903
 7049SOL     OW21712   4.197   4.224   5.777
 7049SOL    HW121713   4.258   4.304   5.781
 7049SOL    HW221714   4.102   4.255   5.784
 7050SOL     OW21715   3.987   4.050   6.306
 7050SOL    HW121716   3.908   4.101   6.272
 7050SOL    HW221717   3.978   4.035   6.404
 7051SOL     OW21718   4.396   3.927   7.075
 7051SOL    HW121719   4.486   3.911   7.035
 7051SOL    HW221720   4.404   3.932   7.174
 7052SOL     OW21721   3.799   4.069   5.619
 7052SOL    HW121722   3.707   4.041   5.590
 7052SOL    HW221723   3.830   4.146   5.563
 7053SOL     OW21724   3.796   3.890   5.904
 7053SOL    HW121725   3.779   3.973   5.850
 7053SOL    HW221726   3.886   3.853   5.882
 7054SOL     OW21727   4.440   4.289   7.294
 7054SOL    HW121728   4.459   4.354   7.368
 7054SOL    HW221729   4.500   4.209   7.303
 7055SOL     OW21730   4.152   4.148   6.106
 7055SOL    HW121731   4.182   4.076   6.044
 7055SOL    HW221732   4.113   4.108   6.189
 7056SOL     OW21733   4.041   4.271   6.866
 7056SOL    HW121734   4.079   4.212   6.938
 7056SOL    HW221735   4.081   4.245   6.778
 7057SOL     OW21736   3.954   4.352   7.561
 7057SOL    HW121737   3.861   4.350   7.598
 7057SOL    HW221738   3.955   4.313   7.469
 7058SOL     OW21739   3.949   3.999   8.444
 7058SOL    HW121740   3.984   3.982   8.536
 7058SOL    HW221741   3.861   3.954   8.432
 7059SOL     OW21742   3.743   4.092   8.095
 7059SOL    HW121743   3.661   4.135   8.134
 7059SOL    HW221744   3.715   4.019   8.032
 7060SOL     OW21745   4.574   4.522   9.271
 7060SOL    HW121746   4.570   4.598   9.336
 7060SOL    HW221747   4.596   4.558   9.180
 7061SOL     OW21748   4.162   4.116   8.947
 7061SOL    HW121749   4.244   4.060   8.956
 7061SOL    HW221750   4.081   4.058   8.951
 7062SOL     OW21751   3.846   4.367   8.011
 7062SOL    HW121752   3.801   4.279   8.028
 7062SOL    HW221753   3.845   4.421   8.095
 7063SOL     OW21754   3.837   4.461   9.045
 7063SOL    HW121755   3.925   4.448   9.090
 7063SOL    HW221756   3.824   4.558   9.023
 7064SOL     OW21757   4.533   3.728   7.950
 7064SOL    HW121758   4.573   3.819   7.941
 7064SOL    HW221759   4.433   3.736   7.956
 7065SOL     OW21760   4.041   3.975   9.249
 7065SOL    HW121761   4.112   4.046   9.255
 7065SOL    HW221762   3.953   4.014   9.277
 7066SOL     OW21763   4.274   3.920   8.333
 7066SOL    HW121764   4.269   3.915   8.433
 7066SOL    HW221765   4.276   4.016   8.304
 7067SOL     OW21766   3.926   4.009   8.946
 7067SOL    HW121767   3.846   4.069   8.933
 7067SOL    HW221768   3.916   3.960   9.032
 7068SOL     OW21769   4.106   4.424   7.928
 7068SOL    HW121770   4.151   4.334   7.925
 7068SOL    HW221771   4.012   4.413   7.961
 7069SOL     OW21772   4.338   3.846   7.565
 7069SOL    HW121773   4.436   3.824   7.572
 7069SOL    HW221774   4.307   3.829   7.472
 7070SOL     OW21775   4.263   3.788   7.960
 7070SOL    HW121776   4.182   3.789   8.018
 7070SOL    HW221777   4.266   3.871   7.905
 7071SOL     OW21778   4.021   3.759   7.619
 7071SOL    HW121779   4.070   3.843   7.598
 7071SOL    HW221780   4.083   3.694   7.664
 7072SOL     OW21781   4.800   4.407   8.912
 7072SOL    HW121782   4.720   4.346   8.915
 7072SOL    HW221783   4.881   4.354   8.888
 7073SOL     OW21784   3.802   4.280   8.834
 7073SOL    HW121785   3.894   4.279   8.793
 7073SOL    HW221786   3.796   4.354   8.901
 7074SOL     OW21787   4.285   3.946   8.595
 7074SOL    HW121788   4.323   3.862   8.632
 7074SOL    HW221789   4.197   3.965   8.639
 7075SOL     OW21790   4.251   3.980   7.776
 7075SOL    HW121791   4.278   3.921   7.701
 7075SOL    HW221792   4.251   4.075   7.745
 7076SOL     OW21793   4.134   4.537   8.699
 7076SOL    HW121794   4.220   4.549   8.749
 7076SOL    HW221795   4.092   4.450   8.726
 7077SOL     OW21796   4.290   4.261   8.313
 7077SOL    HW121797   4.302   4.327   8.239
 7077SOL    HW221798   4.336   4.295   8.396
 7078SOL     OW21799   4.228   3.774   9.188
 7078SOL    HW121800   4.186   3.717   9.118
 7078SOL    HW221801   4.162   3.843   9.220
 7079SOL     OW21802   4.031   3.937   8.679
 7079SOL    HW121803   4.008   3.974   8.769
 7079SOL    HW221804   4.001   3.842   8.673
 7080SOL     OW21805   4.031   3.787   8.066
 7080SOL    HW121806   4.020   3.881   8.099
 7080SOL    HW221807   4.026   3.724   8.143
 7081SOL     OW21808   4.043   4.534   8.397
 7081SOL    HW121809   4.136   4.570   8.402
 7081SOL    HW221810   4.037   4.449   8.449
 7082SOL     OW21811   4.063   4.233   8.454
 7082SOL    HW121812   4.011   4.150   8.437
 7082SOL    HW221813   4.140   4.238   8.390
 7083SOL     OW21814   3.764   4.268   8.562
 7083SOL    HW121815   3.849   4.235   8.521
 7083SOL    HW221816   3.777   4.283   8.660
 7084SOL     OW21817   3.913   4.244   9.170
 7084SOL    HW121818   3.972   4.204   9.100
 7084SOL    HW221819   3.855   4.315   9.129
 7085SOL     OW21820   4.539   4.296   7.773
 7085SOL    HW121821   4.546   4.207   7.727
 7085SOL    HW221822   4.445   4.330   7.765
 7086SOL     OW21823   4.197   4.224   7.639
 7086SOL    HW121824   4.258   4.304   7.643
 7086SOL    HW221825   4.102   4.255   7.646
 7087SOL     OW21826   3.987   4.050   8.168
 7087SOL    HW121827   3.908   4.101   8.134
 7087SOL    HW221828   3.978   4.035   8.266
 7088SOL     OW21829   4.396   3.927   8.937
 7088SOL    HW121830   4.486   3.911   8.897
 7088SOL    HW221831   4.404   3.932   9.036
 7089SOL     OW21832   3.799   4.069   7.481
 7089SOL    HW121833   3.707   4.041   7.452
 7089SOL    HW221834   3.830   4.146   7.425
 7090SOL     OW21835   3.796   3.890   7.766
 7090SOL    HW121836   3.779   3.973   7.712
 7090SOL    HW221837   3.886   3.853   7.744
 7091SOL     OW21838   4.440   4.289   9.156
 7091SOL    HW121839   4.459   4.354   9.230
 7091SOL    HW221840   4.500   4.209   9.165
 7092SOL     OW21841   4.152   4.148   7.968
 7092SOL    HW121842   4.182   4.076   7.906
 7092SOL    HW221843   4.113   4.108   8.051
 7093SOL     OW21844   4.041   4.271   8.728
 7093SOL    HW121845   4.079   4.212   8.800
 7093SOL    HW221846   4.081   4.245   8.640
 7094SOL     OW21847   3.954   4.352   9.423
 7094SOL    HW121848   3.861   4.350   9.460
 7094SOL    HW221849   3.955   4.313   9.331
 7095SOL     OW21850   3.949   3.999  10.306
 7095SOL    HW121851   3.984   3.982  10.398
 7095SOL    HW221852   3.861   3.954  10.294
 7096SOL     OW21853   3.743   4.092   9.957
 7096SOL    HW121854   3.661   4.135   9.996
 7096SOL    HW221855   3.715   4.019   9.894
 7097SOL     OW21856   4.162   4.116  10.809
 7097SOL    HW121857   4.244   4.060  10.818
 7097SOL    HW221858   4.081   4.058  10.813
 7098SOL     OW21859   3.846   4.367   9.873
 7098SOL    HW121860   3.801   4.279   9.890
 7098SOL    HW221861   3.845   4.421   9.957
 7099SOL     OW21862   3.837   4.461  10.907
 7099SOL    HW121863   3.925   4.448  10.952
 7099SOL    HW221864   3.824   4.558  10.885
 7100SOL     OW21865   4.533   3.728   9.812
 7100SOL    HW121866   4.573   3.819   9.803
 7100SOL    HW221867   4.433   3.736   9.818
 7101SOL     OW21868   4.041   3.975  11.111
 7101SOL    HW121869   4.112   4.046  11.117
 7101SOL    HW221870   3.953   4.014  11.139
 7102SOL     OW21871   4.274   3.920  10.195
 7102SOL    HW121872   4.269   3.915  10.295
 7102SOL    HW221873   4.276   4.016  10.166
 7103SOL     OW21874   3.926   4.009  10.808
 7103SOL    HW121875   3.846   4.069  10.795
 7103SOL    HW221876   3.916   3.960  10.894
 7104SOL     OW21877   4.106   4.424   9.790
 7104SOL    HW121878   4.151   4.334   9.787
 7104SOL    HW221879   4.012   4.413   9.823
 7105SOL     OW21880   4.338   3.846   9.427
 7105SOL    HW121881   4.436   3.824   9.434
 7105SOL    HW221882   4.307   3.829   9.334
 7106SOL     OW21883   4.263   3.788   9.822
 7106SOL    HW121884   4.182   3.789   9.880
 7106SOL    HW221885   4.266   3.871   9.767
 7107SOL     OW21886   4.021   3.759   9.481
 7107SOL    HW121887   4.070   3.843   9.460
 7107SOL    HW221888   4.083   3.694   9.526
 7108SOL     OW21889   4.800   4.407  10.774
 7108SOL    HW121890   4.720   4.346  10.777
 7108SOL    HW221891   4.881   4.354  10.750
 7109SOL     OW21892   3.802   4.280  10.696
 7109SOL    HW121893   3.894   4.279  10.655
 7109SOL    HW221894   3.796   4.354  10.763
 7110SOL     OW21895   4.285   3.946  10.457
 7110SOL    HW121896   4.323   3.862  10.494
 7110SOL    HW221897   4.197   3.965  10.501
 7111SOL     OW21898   4.251   3.980   9.638
 7111SOL    HW121899   4.278   3.921   9.563
 7111SOL    HW221900   4.251   4.075   9.607
 7112SOL     OW21901   4.134   4.537  10.561
 7112SOL    HW121902   4.220   4.549  10.611
 7112SOL    HW221903   4.092   4.450  10.588
 7113SOL     OW21904   4.290   4.261  10.175
 7113SOL    HW121905   4.302   4.327  10.101
 7113SOL    HW221906   4.336   4.295  10.258
 7114SOL     OW21907   4.126   4.475  10.908
 7114SOL    HW121908   4.194   4.530  10.861
 7114SOL    HW221909   4.166   4.387  10.935
 7115SOL     OW21910   4.031   3.937  10.541
 7115SOL    HW121911   4.008   3.974  10.631
 7115SOL    HW221912   4.001   3.842  10.535
 7116SOL     OW21913   4.031   3.787   9.928
 7116SOL    HW121914   4.020   3.881   9.961
 7116SOL    HW221915   4.026   3.724  10.005
 7117SOL     OW21916   4.043   4.534  10.259
 7117SOL    HW121917   4.136   4.570  10.264
 7117SOL    HW221918   4.037   4.449  10.311
 7118SOL     OW21919   4.063   4.233  10.316
 7118SOL    HW121920   4.011   4.150  10.299
 7118SOL    HW221921   4.140   4.238  10.252
 7119SOL     OW21922   3.764   4.268  10.424
 7119SOL    HW121923   3.849   4.235  10.383
 7119SOL    HW221924   3.777   4.283  10.522
 7120SOL     OW21925   4.539   4.296   9.635
 7120SOL    HW121926   4.546   4.207   9.589
 7120SOL    HW221927   4.445   4.330   9.627
 7121SOL     OW21928   4.197   4.224   9.501
 7121SOL    HW121929   4.258   4.304   9.505
 7121SOL    HW221930   4.102   4.255   9.508
 7122SOL     OW21931   3.987   4.050  10.030
 7122SOL    HW121932   3.908   4.101   9.996
 7122SOL    HW221933   3.978   4.035  10.128
 7123SOL     OW21934   4.396   3.927  10.799
 7123SOL    HW121935   4.486   3.911  10.759
 7123SOL    HW221936   4.404   3.932  10.898
 7124SOL     OW21937   3.799   4.069   9.343
 7124SOL    HW121938   3.707   4.041   9.314
 7124SOL    HW221939   3.830   4.146   9.287
 7125SOL     OW21940   3.796   3.890   9.628
 7125SOL    HW121941   3.779   3.973   9.574
 7125SOL    HW221942   3.886   3.853   9.606
 7126SOL     OW21943   4.152   4.148   9.830
 7126SOL    HW121944   4.182   4.076   9.768
 7126SOL    HW221945   4.113   4.108   9.913
 7127SOL     OW21946   4.041   4.271  10.590
 7127SOL    HW121947   4.079   4.212  10.662
 7127SOL    HW221948   4.081   4.245  10.502
   4.50000   4.50000  11.10000
