Built with Packmol
22134
    1LIG      O    1   2.627   2.620   0.038
    1LIG      C    2   2.692   2.670   0.126
    1LIG     C1    3   2.621   2.617   0.219
    1LIG     O1    4   2.685   2.667   0.308
    1LIG     C2    5   2.620   2.618   0.396
    1LIG     C3    6   2.691   2.673   0.487
    1LIG     O2    7   2.627   2.625   0.575
    1LIG     C4    8   2.690   2.675   0.664
    1LIG     C5    9   2.618   2.620   0.756
    1LIG     O3   10   2.681   2.670   0.844
    1LIG     C6   11   2.616   2.621   0.932
    1LIG     C7   12   2.688   2.677   1.023
    1LIG     O4   13   2.624   2.629   1.112
    1LIG     C8   14   2.688   2.679   1.200
    1LIG     C9   15   2.615   2.623   1.291
    1LIG     O5   16   2.679   2.673   1.379
    1LIG    C10   17   2.615   2.624   1.468
    1LIG    C11   18   2.687   2.680   1.559
    1LIG     O6   19   2.623   2.631   1.647
    1LIG    C12   20   2.686   2.680   1.735
    1LIG    C13   21   2.613   2.625   1.827
    1LIG     O7   22   2.677   2.674   1.915
    1LIG    C14   23   2.613   2.625   2.003
    1LIG    C15   24   2.685   2.680   2.095
    1LIG     O8   25   2.621   2.631   2.184
    1LIG    C16   26   2.685   2.681   2.272
    1LIG    C17   27   2.614   2.626   2.363
    1LIG     O9   28   2.677   2.675   2.452
    1LIG    C18   29   2.612   2.626   2.540
    1LIG    C19   30   2.684   2.681   2.631
    1LIG    O10   31   2.621   2.632   2.720
    1LIG    C20   32   2.685   2.682   2.807
    1LIG    C21   33   2.612   2.626   2.899
    1LIG    O11   34   2.676   2.675   2.987
    1LIG    C22   35   2.612   2.626   3.075
    1LIG    C23   36   2.684   2.682   3.166
    1LIG    O12   37   2.620   2.633   3.254
    1LIG    C24   38   2.684   2.682   3.343
    1LIG    C25   39   2.612   2.627   3.435
    1LIG    O13   40   2.675   2.676   3.524
    1LIG    C26   41   2.611   2.627   3.611
    1LIG    C27   42   2.683   2.682   3.703
    1LIG    O14   43   2.619   2.633   3.791
    1LIG    C28   44   2.684   2.682   3.879
    1LIG    C29   45   2.612   2.626   3.971
    1LIG    O15   46   2.676   2.675   4.059
    1LIG    C30   47   2.612   2.626   4.147
    1LIG    C31   48   2.684   2.681   4.238
    1LIG    O16   49   2.620   2.632   4.326
    1LIG    C32   50   2.684   2.681   4.415
    1LIG    C33   51   2.612   2.626   4.506
    1LIG    O17   52   2.676   2.675   4.595
    1LIG    C34   53   2.612   2.625   4.683
    1LIG    C35   54   2.684   2.680   4.774
    1LIG    O18   55   2.620   2.631   4.863
    1LIG    C36   56   2.684   2.680   4.951
    1LIG    C37   57   2.613   2.625   5.042
    1LIG    O19   58   2.677   2.674   5.131
    1LIG    C38   59   2.613   2.624   5.219
    1LIG    C39   60   2.684   2.679   5.311
    1LIG    O20   61   2.621   2.630   5.399
    1LIG    C40   62   2.685   2.679   5.487
    1LIG    C41   63   2.614   2.624   5.579
    1LIG    O21   64   2.677   2.673   5.667
    1LIG    C42   65   2.613   2.623   5.755
    1LIG    C43   66   2.685   2.678   5.846
    1LIG    O22   67   2.622   2.629   5.935
    1LIG    C44   68   2.686   2.678   6.023
    1LIG    C45   69   2.614   2.622   6.114
    1LIG    O23   70   2.678   2.671   6.202
    1LIG    C46   71   2.614   2.622   6.291
    1LIG    C47   72   2.687   2.678   6.382
    1LIG    O24   73   2.623   2.628   6.470
    1LIG    C48   74   2.686   2.677   6.558
    1LIG    C49   75   2.614   2.621   6.650
    1LIG    O25   76   2.678   2.670   6.738
    1LIG    C50   77   2.615   2.621   6.826
    1LIG    C51   78   2.687   2.677   6.917
    1LIG    O26   79   2.624   2.627   7.005
    1LIG    C52   80   2.687   2.676   7.094
    1LIG    C53   81   2.615   2.619   7.185
    1LIG    O27   82   2.679   2.669   7.273
    1LIG    C54   83   2.616   2.619   7.362
    1LIG    C55   84   2.688   2.675   7.454
    1LIG    O28   85   2.624   2.625   7.542
    1LIG    C56   86   2.688   2.674   7.630
    1LIG    C57   87   2.617   2.618   7.723
    1LIG    O29   88   2.681   2.667   7.811
    1LIG    C58   89   2.617   2.617   7.899
    1LIG    C59   90   2.688   2.672   7.991
    1LIG      H   91   2.689   2.780   0.125
    1LIG     H1   92   2.797   2.639   0.125
    1LIG     H2   93   2.624   2.508   0.219
    1LIG     H3   94   2.516   2.648   0.218
    1LIG     H4   95   2.623   2.508   0.397
    1LIG     H5   96   2.515   2.649   0.396
    1LIG     H6   97   2.689   2.783   0.486
    1LIG     H7   98   2.797   2.642   0.487
    1LIG     H8   99   2.688   2.784   0.664
    1LIG     H9  100   2.795   2.644   0.665
    1LIG    H10  101   2.621   2.511   0.755
    1LIG    H11  102   2.513   2.651   0.754
    1LIG    H12  103   2.619   2.512   0.933
    1LIG    H13  104   2.511   2.652   0.933
    1LIG    H14  105   2.685   2.787   1.022
    1LIG    H15  106   2.793   2.646   1.023
    1LIG    H16  107   2.685   2.788   1.201
    1LIG    H17  108   2.793   2.648   1.202
    1LIG    H18  109   2.618   2.514   1.290
    1LIG    H19  110   2.510   2.654   1.290
    1LIG    H20  111   2.617   2.514   1.469
    1LIG    H21  112   2.509   2.655   1.469
    1LIG    H22  113   2.684   2.789   1.558
    1LIG    H23  114   2.792   2.649   1.558
    1LIG    H24  115   2.683   2.789   1.736
    1LIG    H25  116   2.791   2.649   1.737
    1LIG    H26  117   2.616   2.515   1.826
    1LIG    H27  118   2.508   2.656   1.825
    1LIG    H28  119   2.616   2.515   2.004
    1LIG    H29  120   2.508   2.656   2.004
    1LIG    H30  121   2.682   2.790   2.094
    1LIG    H31  122   2.790   2.649   2.094
    1LIG    H32  123   2.682   2.791   2.272
    1LIG    H33  124   2.790   2.650   2.273
    1LIG    H34  125   2.616   2.517   2.362
    1LIG    H35  126   2.508   2.657   2.362
    1LIG    H36  127   2.615   2.516   2.541
    1LIG    H37  128   2.507   2.657   2.541
    1LIG    H38  129   2.681   2.791   2.630
    1LIG    H39  130   2.789   2.650   2.630
    1LIG    H40  131   2.682   2.791   2.809
    1LIG    H41  132   2.790   2.651   2.809
    1LIG    H42  133   2.615   2.517   2.897
    1LIG    H43  134   2.507   2.657   2.897
    1LIG    H44  135   2.615   2.517   3.076
    1LIG    H45  136   2.507   2.657   3.076
    1LIG    H46  137   2.681   2.792   3.165
    1LIG    H47  138   2.790   2.651   3.165
    1LIG    H48  139   2.681   2.791   3.344
    1LIG    H49  140   2.789   2.651   3.344
    1LIG    H50  141   2.615   2.517   3.434
    1LIG    H51  142   2.507   2.658   3.434
    1LIG    H52  143   2.614   2.517   3.612
    1LIG    H53  144   2.506   2.658   3.612
    1LIG    H54  145   2.680   2.792   3.702
    1LIG    H55  146   2.788   2.651   3.701
    1LIG    H56  147   2.681   2.791   3.880
    1LIG    H57  148   2.789   2.651   3.880
    1LIG    H58  149   2.615   2.517   3.970
    1LIG    H59  150   2.507   2.657   3.970
    1LIG    H60  151   2.615   2.516   4.148
    1LIG    H61  152   2.507   2.657   4.148
    1LIG    H62  153   2.681   2.791   4.237
    1LIG    H63  154   2.789   2.650   4.237
    1LIG    H64  155   2.681   2.790   4.416
    1LIG    H65  156   2.789   2.650   4.416
    1LIG    H66  157   2.615   2.516   4.505
    1LIG    H67  158   2.507   2.657   4.505
    1LIG    H68  159   2.615   2.516   4.683
    1LIG    H69  160   2.507   2.656   4.683
    1LIG    H70  161   2.681   2.790   4.773
    1LIG    H71  162   2.789   2.650   4.773
    1LIG    H72  163   2.681   2.790   4.952
    1LIG    H73  164   2.790   2.650   4.951
    1LIG    H74  165   2.616   2.516   5.041
    1LIG    H75  166   2.508   2.656   5.042
    1LIG    H76  167   2.616   2.515   5.219
    1LIG    H77  168   2.508   2.655   5.220
    1LIG    H78  169   2.681   2.788   5.310
    1LIG    H79  170   2.790   2.648   5.309
    1LIG    H80  171   2.682   2.789   5.488
    1LIG    H81  172   2.790   2.649   5.488
    1LIG    H82  173   2.617   2.514   5.577
    1LIG    H83  174   2.508   2.654   5.578
    1LIG    H84  175   2.617   2.513   5.756
    1LIG    H85  176   2.508   2.653   5.756
    1LIG    H86  177   2.682   2.788   5.845
    1LIG    H87  178   2.791   2.648   5.845
    1LIG    H88  179   2.683   2.788   6.024
    1LIG    H89  180   2.791   2.648   6.024
    1LIG    H90  181   2.617   2.513   6.113
    1LIG    H91  182   2.509   2.653   6.113
    1LIG    H92  183   2.618   2.512   6.292
    1LIG    H93  184   2.509   2.652   6.292
    1LIG    H94  185   2.683   2.787   6.381
    1LIG    H95  186   2.792   2.647   6.381
    1LIG    H96  187   2.683   2.786   6.560
    1LIG    H97  188   2.791   2.646   6.560
    1LIG    H98  189   2.618   2.511   6.648
    1LIG    H99  190   2.509   2.651   6.649
    1LIG   H100  191   2.618   2.511   6.827
    1LIG   H101  192   2.510   2.651   6.828
    1LIG   H102  193   2.684   2.786   6.916
    1LIG   H103  194   2.792   2.646   6.916
    1LIG   H104  195   2.684   2.785   7.095
    1LIG   H105  196   2.792   2.645   7.095
    1LIG   H106  197   2.619   2.510   7.184
    1LIG   H107  198   2.510   2.650   7.184
    1LIG   H108  199   2.620   2.510   7.363
    1LIG   H109  200   2.511   2.650   7.363
    1LIG   H110  201   2.684   2.784   7.453
    1LIG   H111  202   2.793   2.644   7.452
    1LIG   H112  203   2.685   2.784   7.631
    1LIG   H113  204   2.794   2.644   7.631
    1LIG   H114  205   2.621   2.509   7.721
    1LIG   H115  206   2.512   2.649   7.722
    1LIG   H116  207   2.621   2.507   7.899
    1LIG   H117  208   2.512   2.649   7.900
    1LIG   H118  209   2.793   2.642   7.991
    1LIG   H119  210   2.641   2.635   8.060
    1MOL     C1  211   2.129   2.197   3.936
    1MOL     H1  212   2.107   2.090   3.926
    1MOL     O1  213   2.083   2.230   4.066
    1MOL     C2  214   2.103   2.368   4.102
    1MOL     H2  215   2.209   2.395   4.088
    1MOL     C3  216   2.072   2.381   4.250
    1MOL     H3  217   2.105   2.480   4.285
    1MOL     H4  218   2.128   2.304   4.305
    1MOL     O2  219   1.932   2.366   4.272
    1MOL     C4  220   1.897   2.383   4.408
    1MOL     C5  221   2.047   2.278   3.833
    1MOL     H5  222   1.944   2.242   3.841
    1MOL     O3  223   2.093   2.263   3.700
    1MOL     C6  224   2.063   2.139   3.640
    1MOL     C7  225   2.046   2.429   3.863
    1MOL     H6  226   2.144   2.471   3.839
    1MOL     O4  227   1.944   2.489   3.785
    1MOL     C8  228   1.991   2.580   3.687
    1MOL     C9  229   2.016   2.457   4.011
    1MOL     H7  230   1.911   2.433   4.030
    1MOL     O5  231   2.041   2.596   4.033
    1MOL    C10  232   1.955   2.665   4.122
    1MOL     H8  233   1.877   2.598   4.157
    1MOL     O6  234   2.024   2.705   4.239
    1MOL    C11  235   2.135   2.793   4.215
    1MOL     H9  236   2.205   2.745   4.145
    1MOL    C12  237   2.208   2.812   4.347
    1MOL    H10  238   2.304   2.860   4.328
    1MOL    H11  239   2.226   2.713   4.392
    1MOL     O7  240   2.130   2.892   4.434
    1MOL    C13  241   2.196   2.920   4.555
    1MOL    C14  242   1.895   2.789   4.053
    1MOL    H12  243   1.820   2.830   4.122
    1MOL     O8  244   1.835   2.761   3.928
    1MOL    C15  245   1.711   2.694   3.935
    1MOL    C16  246   1.999   2.899   4.028
    1MOL    H13  247   2.065   2.866   3.947
    1MOL     O9  248   1.933   3.019   3.994
    1MOL    C17  249   1.947   3.059   3.859
    1MOL    C18  250   2.085   2.925   4.152
    1MOL    H14  251   2.024   2.977   4.226
    1MOL    O10  252   2.194   3.007   4.111
    1MOL    C19  253   2.235   3.112   4.196
    1MOL    H15  254   2.168   3.119   4.282
    1MOL    O11  255   2.363   3.086   4.253
    1MOL    C20  256   2.468   3.072   4.158
    1MOL    H16  257   2.442   2.993   4.085
    1MOL    C21  258   2.591   3.023   4.233
    1MOL    H17  259   2.667   2.991   4.160
    1MOL    H18  260   2.562   2.936   4.293
    1MOL    O12  261   2.641   3.126   4.317
    1MOL    C22  262   2.742   3.080   4.404
    1MOL    C23  263   2.241   3.245   4.118
    1MOL    H19  264   2.263   3.324   4.192
    1MOL    O13  265   2.122   3.275   4.049
    1MOL    C24  266   2.014   3.316   4.132
    1MOL    C25  267   2.355   3.245   4.016
    1MOL    H20  268   2.332   3.173   3.936
    1MOL    O14  269   2.369   3.376   3.961
    1MOL    C26  270   2.313   3.392   3.831
    1MOL    C27  271   2.488   3.204   4.081
    1MOL    H21  272   2.522   3.281   4.151
    1MOL    O15  273   2.588   3.180   3.981
    1MOL    C28  274   2.660   3.294   3.938
    1MOL    H22  275   2.594   3.380   3.934
    1MOL    O16  276   2.763   3.331   4.028
    1MOL    C29  277   2.863   3.231   4.051
    1MOL    H23  278   2.817   3.141   4.094
    1MOL    C30  279   2.957   3.289   4.156
    1MOL    H24  280   3.021   3.209   4.197
    1MOL    H25  281   2.895   3.330   4.237
    1MOL    O17  282   3.038   3.390   4.098
    1MOL    C31  283   3.122   3.452   4.193
    1MOL    C32  284   2.720   3.264   3.800
    1MOL    H26  285   2.769   3.356   3.766
    1MOL    O18  286   2.616   3.227   3.711
    1MOL    C33  287   2.630   3.279   3.580
    1MOL    C34  288   2.828   3.155   3.811
    1MOL    H27  289   2.779   3.061   3.839
    1MOL    O19  290   2.891   3.142   3.684
    1MOL    C35  291   2.906   3.008   3.638
    1MOL    C36  292   2.932   3.192   3.918
    1MOL    H28  293   2.989   3.278   3.881
    1MOL    O20  294   3.019   3.079   3.934
    1MOL    C37  295   3.153   3.105   3.969
    1MOL    H29  296   3.171   3.213   3.971
    1MOL    O21  297   3.182   3.062   4.101
    1MOL    C38  298   3.165   2.921   4.122
    1MOL    H30  299   3.063   2.893   4.093
    1MOL    C39  300   3.178   2.896   4.272
    1MOL    H31  301   3.145   2.794   4.294
    1MOL    H32  302   3.113   2.967   4.326
    1MOL    O22  303   3.313   2.913   4.311
    1MOL    C40  304   3.334   2.880   4.447
    1MOL    C41  305   3.250   3.035   3.871
    1MOL    H33  306   3.351   3.073   3.894
    1MOL    O23  307   3.219   3.060   3.735
    1MOL    C42  308   3.251   3.190   3.688
    1MOL    C43  309   3.254   2.883   3.889
    1MOL    H34  310   3.161   2.840   3.849
    1MOL    O24  311   3.366   2.832   3.819
    1MOL    C44  312   3.335   2.752   3.706
    1MOL    C45  313   3.266   2.844   4.036
    1MOL    H35  314   3.367   2.869   4.071
    1MOL    O25  315   3.245   2.702   4.044
    1MOL    C46  316   3.327   2.629   4.134
    1MOL    H36  317   3.402   2.695   4.178
    1MOL    O26  318   3.253   2.580   4.244
    1MOL    C47  319   3.147   2.490   4.211
    1MOL    H37  320   3.078   2.538   4.140
    1MOL    C48  321   3.069   2.461   4.339
    1MOL    H38  322   2.974   2.413   4.314
    1MOL    H39  323   3.047   2.558   4.388
    1MOL    O27  324   3.146   2.379   4.424
    1MOL    C49  325   3.073   2.339   4.539
    1MOL    C50  326   3.393   2.510   4.061
    1MOL    H40  327   3.466   2.467   4.131
    1MOL    O28  328   3.459   2.547   3.941
    1MOL    C51  329   3.581   2.617   3.959
    1MOL    C52  330   3.293   2.400   4.025
    1MOL    H41  331   3.228   2.436   3.944
    1MOL    O29  332   3.364   2.284   3.984
    1MOL    C53  333   3.359   2.258   3.845
    1MOL    C54  334   3.206   2.364   4.145
    1MOL    H42  335   3.268   2.313   4.220
    1MOL    O30  336   3.103   2.275   4.100
    1MOL    C55  337   3.079   2.158   4.174
    1MOL    H43  338   3.159   2.143   4.247
    1MOL    O31  339   2.961   2.165   4.251
    1MOL    C56  340   2.839   2.184   4.177
    1MOL    H44  341   2.843   2.279   4.122
    1MOL    C57  342   2.728   2.189   4.280
    1MOL    H45  343   2.743   2.107   4.353
    1MOL    H46  344   2.631   2.173   4.232
    1MOL    O32  345   2.731   2.315   4.346
    1MOL    C58  346   2.630   2.326   4.444
    1MOL    C59  347   3.069   2.036   4.079
    1MOL    H47  348   3.058   1.947   4.144
    1MOL    O33  349   3.181   2.019   3.995
    1MOL    C60  350   3.298   1.972   4.060
    1MOL    C61  351   2.944   2.044   3.991
    1MOL    H48  352   2.955   2.128   3.921
    1MOL    O34  353   2.924   1.922   3.921
    1MOL    C62  354   2.976   1.919   3.789
    1MOL    C63  355   2.818   2.069   4.076
    1MOL    H49  356   2.795   1.977   4.131
    1MOL    O35  357   2.708   2.104   3.991
    1MOL    C64  358   2.625   1.997   3.952
    1MOL    H50  359   2.682   1.904   3.953
    1MOL    O36  360   2.519   1.976   4.044
    1MOL    C65  361   2.424   2.082   4.056
    1MOL    H51  362   2.474   2.175   4.085
    1MOL    C66  363   2.329   2.041   4.168
    1MOL    H52  364   2.304   1.934   4.155
    1MOL    H53  365   2.237   2.099   4.165
    1MOL    O37  366   2.396   2.061   4.292
    1MOL    C67  367   2.323   2.009   4.401
    1MOL    C68  368   2.567   2.021   3.812
    1MOL    H54  369   2.517   1.928   3.784
    1MOL    O38  370   2.672   2.050   3.720
    1MOL    C69  371   2.660   1.982   3.596
    1MOL    C70  372   2.462   2.133   3.813
    1MOL    H55  373   2.512   2.228   3.836
    1MOL    O39  374   2.402   2.139   3.684
    1MOL    C71  375   2.409   2.266   3.622
    1MOL    C72  376   2.355   2.106   3.920
    1MOL    H56  377   2.298   2.017   3.891
    1MOL    O40  378   2.267   2.220   3.921
    1MOL    H57  379   1.788   2.369   4.414
    1MOL    H58  380   1.946   2.308   4.472
    1MOL    H59  381   1.923   2.483   4.444
    1MOL    H60  382   2.381   2.030   4.491
    1MOL    H61  383   2.224   2.057   4.411
    1MOL    H62  384   2.308   1.901   4.393
    1MOL    H63  385   2.635   2.428   4.484
    1MOL    H64  386   2.530   2.308   4.401
    1MOL    H65  387   2.646   2.255   4.526
    1MOL    H66  388   3.138   2.272   4.596
    1MOL    H67  389   3.047   2.425   4.602
    1MOL    H68  390   2.982   2.285   4.511
    1MOL    H69  391   3.440   2.896   4.469
    1MOL    H70  392   3.274   2.944   4.514
    1MOL    H71  393   3.308   2.775   4.467
    1MOL    H72  394   3.180   3.528   4.140
    1MOL    H73  395   3.064   3.501   4.273
    1MOL    H74  396   3.191   3.380   4.240
    1MOL    H75  397   2.774   3.166   4.464
    1MOL    H76  398   2.704   3.001   4.471
    1MOL    H77  399   2.829   3.040   4.350
    1MOL    H78  400   2.129   2.982   4.615
    1MOL    H79  401   2.219   2.828   4.611
    1MOL    H80  402   2.290   2.975   4.538
    1MOL    H81  403   1.889   3.151   3.847
    1MOL    H82  404   2.052   3.081   3.835
    1MOL    H83  405   1.908   2.983   3.790
    1MOL    H84  406   1.670   2.693   3.834
    1MOL    H85  407   1.721   2.590   3.969
    1MOL    H86  408   1.640   2.746   4.001
    1MOL    H87  409   1.902   2.618   3.634
    1MOL    H88  410   2.042   2.666   3.733
    1MOL    H89  411   2.057   2.531   3.614
    1MOL    H90  412   2.084   2.149   3.534
    1MOL    H91  413   2.125   2.057   3.680
    1MOL    H92  414   1.957   2.113   3.653
    1MOL    H93  415   2.362   2.256   3.523
    1MOL    H94  416   2.353   2.342   3.679
    1MOL    H95  417   2.513   2.298   3.608
    1MOL    H96  418   2.745   2.015   3.535
    1MOL    H97  419   2.666   1.873   3.609
    1MOL    H98  420   2.567   2.007   3.545
    1MOL    H99  421   2.947   1.823   3.747
    1MOL   H100  422   2.933   1.999   3.728
    1MOL   H101  423   3.085   1.928   3.789
    1MOL   H102  424   3.368   1.944   3.982
    1MOL   H103  425   3.345   2.050   4.122
    1MOL   H104  426   3.276   1.884   4.122
    1MOL   H105  427   3.422   2.169   3.828
    1MOL   H106  428   3.257   2.235   3.812
    1MOL   H107  429   3.400   2.342   3.787
    1MOL   H108  430   3.629   2.623   3.861
    1MOL   H109  431   3.566   2.719   3.997
    1MOL   H110  432   3.648   2.562   4.028
    1MOL   H111  433   3.430   2.722   3.662
    1MOL   H112  434   3.280   2.662   3.735
    1MOL   H113  435   3.277   2.809   3.632
    1MOL   H114  436   3.236   3.189   3.580
    1MOL   H115  437   3.185   3.266   3.731
    1MOL   H116  438   3.356   3.215   3.710
    1MOL   H117  439   2.953   3.014   3.540
    1MOL   H118  440   2.969   2.949   3.705
    1MOL   H119  441   2.808   2.959   3.627
    1MOL   H120  442   2.544   3.243   3.523
    1MOL   H121  443   2.629   3.390   3.580
    1MOL   H122  444   2.723   3.245   3.532
    1MOL   H123  445   2.329   3.497   3.803
    1MOL   H124  446   2.363   3.327   3.758
    1MOL   H125  447   2.205   3.371   3.832
    1MOL   H126  448   1.936   3.352   4.065
    1MOL   H127  449   1.973   3.233   4.191
    1MOL   H128  450   2.044   3.398   4.199
    2SOL     OW  451   0.230   0.628   0.113
    2SOL    HW1  452   0.137   0.626   0.150
    2SOL    HW2  453   0.231   0.589   0.021
    3SOL     OW  454   0.225   0.275   0.996
    3SOL    HW1  455   0.260   0.258   1.088
    3SOL    HW2  456   0.137   0.230   0.984
    4SOL     OW  457   0.019   0.368   0.647
    4SOL    HW1  458  -0.063   0.411   0.686
    4SOL    HW2  459  -0.009   0.295   0.584
    5SOL     OW  460   0.569   1.275   1.165
    5SOL    HW1  461   0.476   1.268   1.128
    5SOL    HW2  462   0.580   1.364   1.209
    6SOL     OW  463   1.555   1.511   0.703
    6SOL    HW1  464   1.498   1.495   0.784
    6SOL    HW2  465   1.496   1.521   0.623
    7SOL     OW  466   1.135   0.703   0.717
    7SOL    HW1  467   1.192   0.781   0.692
    7SOL    HW2  468   1.075   0.729   0.793
    8SOL     OW  469   1.755   0.607   0.231
    8SOL    HW1  470   1.743   0.594   0.132
    8SOL    HW2  471   1.725   0.526   0.280
    9SOL     OW  472   0.768   1.144   1.023
    9SOL    HW1  473   0.690   1.161   1.083
    9SOL    HW2  474   0.802   1.231   0.987
   10SOL     OW  475   0.850   0.798   1.823
   10SOL    HW1  476   0.846   0.874   1.888
   10SOL    HW2  477   0.872   0.834   1.732
   11SOL     OW  478   0.685   1.012   0.665
   11SOL    HW1  479   0.754   0.996   0.735
   11SOL    HW2  480   0.612   1.069   0.703
   12SOL     OW  481   0.686   1.161   1.803
   12SOL    HW1  482   0.746   1.240   1.817
   12SOL    HW2  483   0.600   1.192   1.762
   13SOL     OW  484   0.335   1.435   1.061
   13SOL    HW1  485   0.257   1.404   1.008
   13SOL    HW2  486   0.393   1.493   1.004
   14SOL     OW  487   1.460   1.505   1.339
   14SOL    HW1  488   1.484   1.599   1.365
   14SOL    HW2  489   1.444   1.451   1.421
   15SOL     OW  490   0.438   0.392   1.499
   15SOL    HW1  491   0.520   0.336   1.508
   15SOL    HW2  492   0.357   0.334   1.503
   16SOL     OW  493   1.603   0.447   0.737
   16SOL    HW1  494   1.529   0.493   0.687
   16SOL    HW2  495   1.654   0.515   0.790
   17SOL     OW  496   0.231   1.713   0.483
   17SOL    HW1  497   0.265   1.790   0.537
   17SOL    HW2  498   0.275   1.713   0.393
   18SOL     OW  499   1.127   1.341   1.690
   18SOL    HW1  500   1.174   1.341   1.778
   18SOL    HW2  501   1.079   1.254   1.679
   19SOL     OW  502   0.230   1.434   0.538
   19SOL    HW1  503   0.204   1.530   0.538
   19SOL    HW2  504   0.159   1.380   0.583
   20SOL     OW  505   0.240   1.091   0.886
   20SOL    HW1  506   0.254   1.007   0.938
   20SOL    HW2  507   0.185   1.155   0.941
   21SOL     OW  508   0.620   1.786   1.439
   21SOL    HW1  509   0.528   1.769   1.474
   21SOL    HW2  510   0.648   1.878   1.465
   22SOL     OW  511   0.606   0.964   0.123
   22SOL    HW1  512   0.613   1.048   0.069
   22SOL    HW2  513   0.652   0.977   0.211
   23SOL     OW  514   1.594   0.114   1.480
   23SOL    HW1  515   1.576   0.181   1.408
   23SOL    HW2  516   1.591   0.160   1.569
   24SOL     OW  517   0.122   0.643   0.563
   24SOL    HW1  518   0.077   0.555   0.580
   24SOL    HW2  519   0.121   0.697   0.647
   25SOL     OW  520   1.842   1.767   0.359
   25SOL    HW1  521   1.896   1.738   0.439
   25SOL    HW2  522   1.872   1.857   0.330
   26SOL     OW  523   0.027   1.596   0.117
   26SOL    HW1  524   0.008   1.500   0.138
   26SOL    HW2  525  -0.006   1.654   0.192
   27SOL     OW  526   1.689   0.922   0.612
   27SOL    HW1  527   1.784   0.893   0.620
   27SOL    HW2  528   1.681   0.987   0.537
   28SOL     OW  529   1.641   1.108   0.432
   28SOL    HW1  530   1.727   1.110   0.380
   28SOL    HW2  531   1.655   1.155   0.520
   29SOL     OW  532   0.113   0.737   1.597
   29SOL    HW1  533   0.201   0.724   1.642
   29SOL    HW2  534   0.100   0.834   1.575
   30SOL     OW  535   0.613   1.365   0.726
   30SOL    HW1  536   0.564   1.278   0.735
   30SOL    HW2  537   0.590   1.408   0.639
   31SOL     OW  538   1.293   1.228   1.423
   31SOL    HW1  539   1.330   1.155   1.365
   31SOL    HW2  540   1.345   1.233   1.508
   32SOL     OW  541   0.809   0.004   0.502
   32SOL    HW1  542   0.849   0.095   0.493
   32SOL    HW2  543   0.709   0.012   0.508
   33SOL     OW  544   0.197   0.976   1.264
   33SOL    HW1  545   0.286   0.931   1.250
   33SOL    HW2  546   0.124   0.911   1.245
   34SOL     OW  547   1.525   0.999   0.190
   34SOL    HW1  548   1.462   0.923   0.203
   34SOL    HW2  549   1.573   1.017   0.276
   35SOL     OW  550   1.187   1.792   1.616
   35SOL    HW1  551   1.211   1.852   1.540
   35SOL    HW2  552   1.194   1.697   1.586
   36SOL     OW  553   0.317   0.251   1.801
   36SOL    HW1  554   0.388   0.322   1.807
   36SOL    HW2  555   0.229   0.290   1.829
   37SOL     OW  556   1.466   1.417   0.953
   37SOL    HW1  557   1.407   1.423   1.033
   37SOL    HW2  558   1.451   1.329   0.907
   38SOL     OW  559   1.667   1.714   0.572
   38SOL    HW1  560   1.626   1.691   0.484
   38SOL    HW2  561   1.649   1.640   0.637
   39SOL     OW  562   0.598   0.729   0.270
   39SOL    HW1  563   0.622   0.798   0.202
   39SOL    HW2  564   0.520   0.762   0.324
   40SOL     OW  565   1.281   0.345   0.944
   40SOL    HW1  566   1.195   0.295   0.931
   40SOL    HW2  567   1.343   0.291   1.000
   41SOL     OW  568   1.576   1.662   0.307
   41SOL    HW1  569   1.665   1.708   0.310
   41SOL    HW2  570   1.555   1.638   0.212
   42SOL     OW  571   0.807   0.605   1.465
   42SOL    HW1  572   0.760   0.602   1.554
   42SOL    HW2  573   0.756   0.550   1.399
   43SOL     OW  574   1.394   0.469   1.674
   43SOL    HW1  575   1.374   0.512   1.762
   43SOL    HW2  576   1.472   0.407   1.683
   44SOL     OW  577   0.973   0.890   1.572
   44SOL    HW1  578   1.019   0.806   1.543
   44SOL    HW2  579   0.917   0.924   1.497
   45SOL     OW  580   0.991   0.410   1.242
   45SOL    HW1  581   0.914   0.444   1.296
   45SOL    HW2  582   0.957   0.359   1.163
   46SOL     OW  583   1.041   0.701   0.429
   46SOL    HW1  584   1.067   0.697   0.525
   46SOL    HW2  585   0.956   0.650   0.415
   47SOL     OW  586   0.076   0.811   0.789
   47SOL    HW1  587   0.175   0.799   0.798
   47SOL    HW2  588   0.052   0.906   0.810
   48SOL     OW  589   0.130   1.821   1.571
   48SOL    HW1  590   0.120   1.806   1.670
   48SOL    HW2  591   0.044   1.857   1.535
   49SOL     OW  592   0.865   0.348   0.195
   49SOL    HW1  593   0.924   0.411   0.146
   49SOL    HW2  594   0.884   0.254   0.166
   50SOL     OW  595   1.719   0.585   1.831
   50SOL    HW1  596   1.693   0.674   1.795
   50SOL    HW2  597   1.717   0.517   1.758
   51SOL     OW  598   1.362   1.144   0.545
   51SOL    HW1  599   1.445   1.115   0.497
   51SOL    HW2  600   1.313   1.211   0.489
   52SOL     OW  601   0.550   0.196   0.885
   52SOL    HW1  602   0.545   0.191   0.985
   52SOL    HW2  603   0.552   0.292   0.856
   53SOL     OW  604   1.008   1.456   0.477
   53SOL    HW1  605   0.962   1.528   0.425
   53SOL    HW2  606   1.004   1.476   0.575
   54SOL     OW  607   0.351   1.801   0.853
   54SOL    HW1  608   0.401   1.715   0.859
   54SOL    HW2  609   0.416   1.878   0.850
   55SOL     OW  610   1.795   1.066   0.873
   55SOL    HW1  611   1.733   1.051   0.797
   55SOL    HW2  612   1.743   1.077   0.958
   56SOL     OW  613   1.227   1.550   1.506
   56SOL    HW1  614   1.233   1.473   1.570
   56SOL    HW2  615   1.175   1.524   1.426
   57SOL     OW  616   0.321   0.943   0.242
   57SOL    HW1  617   0.403   0.982   0.200
   57SOL    HW2  618   0.294   0.861   0.193
   58SOL     OW  619   1.458   0.735   0.728
   58SOL    HW1  620   1.453   0.670   0.803
   58SOL    HW2  621   1.538   0.794   0.741
   59SOL     OW  622   0.461   1.266   1.727
   59SOL    HW1  623   0.411   1.267   1.641
   59SOL    HW2  624   0.398   1.248   1.803
   60SOL     OW  625   1.111   1.776   0.237
   60SOL    HW1  626   1.051   1.714   0.287
   60SOL    HW2  627   1.142   1.732   0.152
   61SOL     OW  628   0.202   0.285   1.498
   61SOL    HW1  629   0.122   0.345   1.485
   61SOL    HW2  630   0.192   0.236   1.584
   62SOL     OW  631   1.632   1.377   0.081
   62SOL    HW1  632   1.600   1.471   0.071
   62SOL    HW2  633   1.556   1.314   0.069
   63SOL     OW  634   0.464   1.743   0.323
   63SOL    HW1  635   0.497   1.782   0.409
   63SOL    HW2  636   0.540   1.736   0.258
   64SOL     OW  637   1.400   0.107   0.426
   64SOL    HW1  638   1.376   0.070   0.336
   64SOL    HW2  639   1.499   0.123   0.430
   65SOL     OW  640   0.249   1.785   1.241
   65SOL    HW1  641   0.306   1.720   1.291
   65SOL    HW2  642   0.233   1.752   1.148
   66SOL     OW  643   0.940   1.698   0.904
   66SOL    HW1  644   1.020   1.641   0.925
   66SOL    HW2  645   0.891   1.658   0.827
   67SOL     OW  646   0.382   0.700   0.480
   67SOL    HW1  647   0.427   0.610   0.477
   67SOL    HW2  648   0.288   0.689   0.513
   68SOL     OW  649   1.547   0.222   1.729
   68SOL    HW1  650   1.542   0.259   1.821
   68SOL    HW2  651   1.475   0.153   1.717
   69SOL     OW  652   0.614   0.122   0.117
   69SOL    HW1  653   0.712   0.100   0.124
   69SOL    HW2  654   0.583   0.105   0.024
   70SOL     OW  655   0.781   0.264   1.749
   70SOL    HW1  656   0.848   0.203   1.792
   70SOL    HW2  657   0.708   0.283   1.814
   71SOL     OW  658   0.888   1.514   1.195
   71SOL    HW1  659   0.865   1.489   1.101
   71SOL    HW2  660   0.949   1.445   1.234
   72SOL     OW  661   1.351   0.590   1.433
   72SOL    HW1  662   1.379   0.547   1.518
   72SOL    HW2  663   1.376   0.686   1.434
   73SOL     OW  664   0.803   1.402   0.924
   73SOL    HW1  665   0.893   1.416   0.882
   73SOL    HW2  666   0.732   1.404   0.853
   74SOL     OW  667   0.922   0.503   0.899
   74SOL    HW1  668   0.897   0.494   0.803
   74SOL    HW2  669   0.970   0.421   0.930
   75SOL     OW  670   0.539   0.064   0.512
   75SOL    HW1  671   0.458   0.065   0.570
   75SOL    HW2  672   0.542   0.147   0.457
   76SOL     OW  673   1.434   1.188   0.041
   76SOL    HW1  674   1.466   1.112   0.098
   76SOL    HW2  675   1.342   1.215   0.071
   77SOL     OW  676   0.297   0.035   0.171
   77SOL    HW1  677   0.346   0.119   0.150
   77SOL    HW2  678   0.359  -0.030   0.216
   78SOL     OW  679   0.935   0.236   0.480
   78SOL    HW1  680   0.887   0.277   0.402
   78SOL    HW2  681   1.034   0.234   0.461
   79SOL     OW  682   1.076   0.683   1.464
   79SOL    HW1  683   0.996   0.622   1.467
   79SOL    HW2  684   1.157   0.630   1.440
   80SOL     OW  685   1.227   1.570   0.793
   80SOL    HW1  686   1.248   1.644   0.728
   80SOL    HW2  687   1.295   1.570   0.866
   81SOL     OW  688   0.459   1.152   0.741
   81SOL    HW1  689   0.388   1.125   0.806
   81SOL    HW2  690   0.433   1.124   0.648
   82SOL     OW  691   1.271   1.797   0.591
   82SOL    HW1  692   1.315   1.861   0.527
   82SOL    HW2  693   1.221   1.849   0.661
   83SOL     OW  694   1.032   0.549   0.016
   83SOL    HW1  695   0.991   0.631  -0.023
   83SOL    HW2  696   1.096   0.575   0.089
   84SOL     OW  697   0.078   0.556   1.386
   84SOL    HW1  698   0.170   0.555   1.345
   84SOL    HW2  699   0.072   0.630   1.453
   85SOL     OW  700   0.561   0.222   1.147
   85SOL    HW1  701   0.599   0.138   1.184
   85SOL    HW2  702   0.473   0.241   1.191
   86SOL     OW  703   0.866   0.454   0.642
   86SOL    HW1  704   0.834   0.526   0.580
   86SOL    HW2  705   0.890   0.373   0.589
   87SOL     OW  706   1.017   0.039   0.753
   87SOL    HW1  707   0.945   0.044   0.684
   87SOL    HW2  708   0.993  -0.030   0.822
   88SOL     OW  709   1.429   1.173   0.867
   88SOL    HW1  710   1.374   1.089   0.860
   88SOL    HW2  711   1.455   1.202   0.775
   89SOL     OW  712   1.466   0.590   0.992
   89SOL    HW1  713   1.436   0.495   0.999
   89SOL    HW2  714   1.539   0.606   1.058
   90SOL     OW  715   1.857   0.833   0.377
   90SOL    HW1  716   1.899   0.769   0.441
   90SOL    HW2  717   1.819   0.782   0.299
   91SOL     OW  718   0.488   1.385   0.174
   91SOL    HW1  719   0.401   1.370   0.221
   91SOL    HW2  720   0.471   1.411   0.079
   92SOL     OW  721   1.664   1.280   0.657
   92SOL    HW1  722   1.763   1.288   0.671
   92SOL    HW2  723   1.619   1.364   0.688
   93SOL     OW  724   1.390   0.575   0.078
   93SOL    HW1  725   1.336   0.554   0.159
   93SOL    HW2  726   1.481   0.534   0.087
   94SOL     OW  727   0.527   0.256   0.328
   94SOL    HW1  728   0.554   0.197   0.253
   94SOL    HW2  729   0.527   0.351   0.297
   95SOL     OW  730   1.754   1.223   1.588
   95SOL    HW1  731   1.845   1.184   1.575
   95SOL    HW2  732   1.762   1.319   1.612
   96SOL     OW  733   1.064   1.347   1.340
   96SOL    HW1  734   0.984   1.324   1.395
   96SOL    HW2  735   1.147   1.321   1.389
   97SOL     OW  736   1.592   1.629   1.625
   97SOL    HW1  737   1.619   1.663   1.535
   97SOL    HW2  738   1.671   1.591   1.671
   98SOL     OW  739   1.111   1.195   1.100
   98SOL    HW1  740   1.071   1.239   1.181
   98SOL    HW2  741   1.070   1.232   1.017
   99SOL     OW  742   1.638   1.099   1.079
   99SOL    HW1  743   1.643   1.180   1.138
   99SOL    HW2  744   1.552   1.101   1.028
  100SOL     OW  745   0.915   0.089   1.402
  100SOL    HW1  746   0.940   0.069   1.307
  100SOL    HW2  747   0.987   0.145   1.444
  101SOL     OW  748   0.980   1.116   1.719
  101SOL    HW1  749   0.881   1.122   1.729
  101SOL    HW2  750   1.003   1.036   1.663
  102SOL     OW  751   0.705   1.050   0.368
  102SOL    HW1  752   0.691   1.057   0.467
  102SOL    HW2  753   0.789   0.999   0.350
  103SOL     OW  754   0.410   0.813   1.251
  103SOL    HW1  755   0.496   0.825   1.301
  103SOL    HW2  756   0.368   0.726   1.278
  104SOL     OW  757   1.274   0.386   1.262
  104SOL    HW1  758   1.295   0.460   1.326
  104SOL    HW2  759   1.185   0.403   1.219
  105SOL     OW  760   0.064   1.564   1.331
  105SOL    HW1  761   0.018   1.646   1.297
  105SOL    HW2  762   0.162   1.583   1.340
  106SOL     OW  763   0.367   1.100   0.501
  106SOL    HW1  764   0.360   1.183   0.445
  106SOL    HW2  765   0.371   1.020   0.441
  107SOL     OW  766   0.566   0.537   0.865
  107SOL    HW1  767   0.578   0.603   0.791
  107SOL    HW2  768   0.612   0.571   0.948
  108SOL     OW  769   1.252   1.348   0.388
  108SOL    HW1  770   1.302   1.425   0.428
  108SOL    HW2  771   1.157   1.350   0.420
  109SOL     OW  772   1.272   1.445   1.142
  109SOL    HW1  773   1.319   1.458   1.229
  109SOL    HW2  774   1.206   1.371   1.151
  110SOL     OW  775   1.582   0.639   0.472
  110SOL    HW1  776   1.551   0.700   0.545
  110SOL    HW2  777   1.632   0.691   0.403
  111SOL     OW  778   0.354   1.510   1.329
  111SOL    HW1  779   0.333   1.466   1.242
  111SOL    HW2  780   0.451   1.536   1.332
  112SOL     OW  781   0.402   0.751   1.598
  112SOL    HW1  782   0.470   0.806   1.551
  112SOL    HW2  783   0.442   0.663   1.625
  113SOL     OW  784   1.587   0.779   1.670
  113SOL    HW1  785   1.495   0.817   1.665
  113SOL    HW2  786   1.647   0.826   1.605
  114SOL     OW  787   1.013   0.105   1.770
  114SOL    HW1  788   1.019   0.190   1.718
  114SOL    HW2  789   1.045   0.029   1.713
  115SOL     OW  790   0.504   0.050   1.740
  115SOL    HW1  791   0.462  -0.007   1.670
  115SOL    HW2  792   0.438   0.119   1.772
  116SOL     OW  793   0.573   0.870   1.029
  116SOL    HW1  794   0.617   0.959   1.020
  116SOL    HW2  795   0.510   0.870   1.106
  117SOL     OW  796   1.360   0.862   1.045
  117SOL    HW1  797   1.285   0.862   0.979
  117SOL    HW2  798   1.397   0.770   1.054
  118SOL     OW  799   1.209   0.525   0.275
  118SOL    HW1  800   1.222   0.441   0.329
  118SOL    HW2  801   1.180   0.599   0.335
  119SOL     OW  802   0.307   0.213   1.231
  119SOL    HW1  803   0.284   0.250   1.321
  119SOL    HW2  804   0.277   0.118   1.225
  120SOL     OW  805   0.037   1.310   1.282
  120SOL    HW1  806   0.090   1.261   1.350
  120SOL    HW2  807   0.059   1.408   1.287
  121SOL     OW  808   0.732   0.634   1.064
  121SOL    HW1  809   0.791   0.608   0.988
  121SOL    HW2  810   0.704   0.730   1.053
  122SOL     OW  811   1.728   0.935   1.854
  122SOL    HW1  812   1.682   0.928   1.765
  122SOL    HW2  813   1.666   0.979   1.920
  123SOL     OW  814   0.307   0.063   0.618
  123SOL    HW1  815   0.296   0.157   0.651
  123SOL    HW2  816   0.302   0.000   0.695
  124SOL     OW  817   1.622   0.367   0.374
  124SOL    HW1  818   1.624   0.291   0.438
  124SOL    HW2  819   1.574   0.444   0.414
  125SOL     OW  820   1.023   0.766   0.966
  125SOL    HW1  821   1.038   0.787   1.062
  125SOL    HW2  822   0.993   0.671   0.957
  126SOL     OW  823   0.980   1.573   1.700
  126SOL    HW1  824   0.960   1.617   1.612
  126SOL    HW2  825   1.019   1.482   1.684
  127SOL     OW  826   1.859   1.518   1.605
  127SOL    HW1  827   1.873   1.545   1.510
  127SOL    HW2  828   1.942   1.540   1.658
  128SOL     OW  829   0.350   0.898   1.804
  128SOL    HW1  830   0.426   0.942   1.852
  128SOL    HW2  831   0.385   0.851   1.722
  129SOL     OW  832   1.540   0.274   0.125
  129SOL    HW1  833   1.479   0.199   0.148
  129SOL    HW2  834   1.562   0.326   0.208
  130SOL     OW  835   1.303   0.838   0.042
  130SOL    HW1  836   1.337   0.745   0.057
  130SOL    HW2  837   1.321   0.865  -0.053
  131SOL     OW  838   1.068   1.333   0.849
  131SOL    HW1  839   1.075   1.249   0.794
  131SOL    HW2  840   1.130   1.402   0.813
  132SOL     OW  841   0.319   0.810   0.949
  132SOL    HW1  842   0.412   0.846   0.954
  132SOL    HW2  843   0.313   0.725   1.001
  133SOL     OW  844   0.339   0.509   1.006
  133SOL    HW1  845   0.287   0.426   0.989
  133SOL    HW2  846   0.416   0.514   0.942
  134SOL     OW  847   1.138   0.380   1.678
  134SOL    HW1  848   1.093   0.443   1.742
  134SOL    HW2  849   1.231   0.411   1.661
  135SOL     OW  850   1.160   0.207   1.477
  135SOL    HW1  851   1.160   0.271   1.554
  135SOL    HW2  852   1.188   0.255   1.394
  136SOL     OW  853   0.008   1.326   0.200
  136SOL    HW1  854  -0.085   1.347   0.169
  136SOL    HW2  855   0.018   1.227   0.213
  137SOL     OW  856   0.088   1.801   0.927
  137SOL    HW1  857   0.046   1.715   0.900
  137SOL    HW2  858   0.182   1.804   0.893
  138SOL     OW  859   0.504   1.568   0.910
  138SOL    HW1  860   0.570   1.642   0.919
  138SOL    HW2  861   0.548   1.489   0.868
  139SOL     OW  862   1.002   0.796   1.238
  139SOL    HW1  863   1.043   0.764   1.324
  139SOL    HW2  864   0.906   0.769   1.235
  140SOL     OW  865   0.040   0.544   1.114
  140SOL    HW1  866   0.125   0.511   1.073
  140SOL    HW2  867   0.053   0.559   1.212
  141SOL     OW  868   0.189   0.520   1.722
  141SOL    HW1  869   0.248   0.480   1.652
  141SOL    HW2  870   0.131   0.591   1.681
  142SOL     OW  871   1.369   0.950   1.660
  142SOL    HW1  872   1.408   1.039   1.680
  142SOL    HW2  873   1.379   0.930   1.563
  143SOL     OW  874   0.815   0.572   0.325
  143SOL    HW1  875   0.822   0.483   0.279
  143SOL    HW2  876   0.721   0.606   0.317
  144SOL     OW  877   1.657   0.604   1.206
  144SOL    HW1  878   1.619   0.535   1.268
  144SOL    HW2  879   1.739   0.568   1.162
  145SOL     OW  880   0.252   1.564   1.744
  145SOL    HW1  881   0.222   1.621   1.820
  145SOL    HW2  882   0.245   1.467   1.770
  146SOL     OW  883   0.671   0.464   1.269
  146SOL    HW1  884   0.637   0.375   1.239
  146SOL    HW2  885   0.697   0.518   1.189
  147SOL     OW  886   0.930   1.678   1.465
  147SOL    HW1  887   0.906   1.660   1.370
  147SOL    HW2  888   0.960   1.772   1.475
  148SOL     OW  889   0.473   0.500   0.191
  148SOL    HW1  890   0.534   0.580   0.195
  148SOL    HW2  891   0.378   0.531   0.198
  149SOL     OW  892   0.159   1.137   1.466
  149SOL    HW1  893   0.181   1.076   1.542
  149SOL    HW2  894   0.169   1.088   1.380
  150SOL     OW  895   1.347   1.059   1.234
  150SOL    HW1  896   1.371   0.996   1.160
  150SOL    HW2  897   1.257   1.099   1.216
  151SOL     OW  898   1.302   0.855   0.309
  151SOL    HW1  899   1.216   0.824   0.351
  151SOL    HW2  900   1.298   0.841   0.210
  152SOL     OW  901   1.759   1.747   1.154
  152SOL    HW1  902   1.820   1.777   1.081
  152SOL    HW2  903   1.721   1.658   1.132
  153SOL     OW  904   1.252   1.731   1.128
  153SOL    HW1  905   1.336   1.736   1.074
  153SOL    HW2  906   1.229   1.635   1.146
  154SOL     OW  907   0.083   1.258   1.022
  154SOL    HW1  908   0.078   1.257   1.122
  154SOL    HW2  909   0.000   1.217   0.984
  155SOL     OW  910   0.688   1.662   1.716
  155SOL    HW1  911   0.632   1.743   1.725
  155SOL    HW2  912   0.740   1.666   1.630
  156SOL     OW  913   0.903   0.086   0.133
  156SOL    HW1  914   0.954   0.087   0.047
  156SOL    HW2  915   0.959   0.044   0.204
  157SOL     OW  916   1.726   0.135   0.523
  157SOL    HW1  917   1.799   0.118   0.456
  157SOL    HW2  918   1.695   0.048   0.561
  158SOL     OW  919   1.388   1.573   0.477
  158SOL    HW1  920   1.455   1.585   0.403
  158SOL    HW2  921   1.348   1.662   0.500
  159SOL     OW  922   0.130   1.794   1.851
  159SOL    HW1  923   0.089   1.720   1.904
  159SOL    HW2  924   0.194   1.845   1.909
  160SOL     OW  925   1.280   0.927   0.672
  160SOL    HW1  926   1.340   0.846   0.674
  160SOL    HW2  927   1.320   0.996   0.612
  161SOL     OW  928   0.830   1.273   1.422
  161SOL    HW1  929   0.825   1.306   1.517
  161SOL    HW2  930   0.744   1.292   1.376
  162SOL     OW  931   0.672   1.616   0.154
  162SOL    HW1  932   0.681   1.626   0.055
  162SOL    HW2  933   0.632   1.527   0.175
  163SOL     OW  934   1.650   1.720   1.394
  163SOL    HW1  935   1.703   1.730   1.310
  163SOL    HW2  936   1.623   1.810   1.428
  164SOL     OW  937   1.841   0.175   0.963
  164SOL    HW1  938   1.880   0.090   0.927
  164SOL    HW2  939   1.743   0.177   0.944
  165SOL     OW  940   0.263   0.326   0.720
  165SOL    HW1  941   0.184   0.377   0.686
  165SOL    HW2  942   0.254   0.311   0.818
  166SOL     OW  943   1.194   1.612   0.031
  166SOL    HW1  944   1.200   1.519   0.068
  166SOL    HW2  945   1.135   1.612  -0.049
  167SOL     OW  946   0.822   1.002   1.372
  167SOL    HW1  947   0.862   1.001   1.280
  167SOL    HW2  948   0.832   1.094   1.412
  168SOL     OW  949   0.916   0.910   0.291
  168SOL    HW1  950   0.979   0.948   0.223
  168SOL    HW2  951   0.956   0.827   0.330
  169SOL     OW  952   1.504   1.607   0.044
  169SOL    HW1  953   1.412   1.644   0.051
  169SOL    HW2  954   1.542   1.627  -0.046
  170SOL     OW  955   0.372   1.288   1.490
  170SOL    HW1  956   0.359   1.381   1.456
  170SOL    HW2  957   0.288   1.236   1.477
  171SOL     OW  958   1.614   1.292   1.289
  171SOL    HW1  959   1.674   1.295   1.369
  171SOL    HW2  960   1.539   1.356   1.302
  172SOL     OW  961   1.039   1.098   0.696
  172SOL    HW1  962   0.969   1.051   0.750
  172SOL    HW2  963   1.098   1.030   0.653
  173SOL     OW  964   1.014   0.236   0.971
  173SOL    HW1  965   1.006   0.200   0.878
  173SOL    HW2  966   1.012   0.160   1.036
  174SOL     OW  967   0.590   1.487   0.491
  174SOL    HW1  968   0.632   1.429   0.421
  174SOL    HW2  969   0.546   1.566   0.447
  175SOL     OW  970   1.709   0.385   1.381
  175SOL    HW1  971   1.782   0.454   1.385
  175SOL    HW2  972   1.737   0.310   1.322
  176SOL     OW  973   0.255   1.348   0.290
  176SOL    HW1  974   0.159   1.349   0.263
  176SOL    HW2  975   0.267   1.401   0.374
  177SOL     OW  976   0.105   1.013   1.726
  177SOL    HW1  977   0.028   0.980   1.780
  177SOL    HW2  978   0.190   0.983   1.768
  178SOL     OW  979   0.672   0.203   1.489
  178SOL    HW1  980   0.762   0.187   1.449
  178SOL    HW2  981   0.680   0.208   1.588
  179SOL     OW  982   0.075   0.345   0.033
  179SOL    HW1  983  -0.017   0.317   0.004
  179SOL    HW2  984   0.106   0.422  -0.023
  180SOL     OW  985   1.440   0.856   1.398
  180SOL    HW1  986   1.383   0.908   1.335
  180SOL    HW2  987   1.536   0.868   1.374
  181SOL     OW  988   0.072   0.166   0.318
  181SOL    HW1  989   0.055   0.249   0.264
  181SOL    HW2  990   0.162   0.129   0.296
  182SOL     OW  991   1.183   1.335   0.119
  182SOL    HW1  992   1.084   1.324   0.121
  182SOL    HW2  993   1.217   1.350   0.212
  183SOL     OW  994   0.613   0.842   1.431
  183SOL    HW1  995   0.669   0.923   1.414
  183SOL    HW2  996   0.672   0.762   1.434
  184SOL     OW  997   1.493   1.767   0.959
  184SOL    HW1  998   1.526   1.831   0.890
  184SOL    HW2  999   1.559   1.761   1.034
  185SOL     OW 1000   0.716   0.565   1.708
  185SOL    HW1 1001   0.735   0.630   1.782
  185SOL    HW2 1002   0.776   0.485   1.717
  186SOL     OW 1003   1.450   1.220   1.633
  186SOL    HW1 1004   1.441   1.210   1.732
  186SOL    HW2 1005   1.546   1.213   1.607
  187SOL     OW 1006   0.390   1.741   1.560
  187SOL    HW1 1007   0.299   1.782   1.558
  187SOL    HW2 1008   0.383   1.647   1.592
  188SOL     OW 1009   1.674   0.883   1.254
  188SOL    HW1 1010   1.647   0.794   1.217
  188SOL    HW2 1011   1.675   0.951   1.181
  189SOL     OW 1012   1.225   0.325   0.449
  189SOL    HW1 1013   1.290   0.251   0.438
  189SOL    HW2 1014   1.245   0.375   0.533
  190SOL     OW 1015   0.594   0.745   0.652
  190SOL    HW1 1016   0.644   0.830   0.633
  190SOL    HW2 1017   0.506   0.747   0.604
  191SOL     OW 1018   1.777   0.342   1.642
  191SOL    HW1 1019   1.760   0.373   1.548
  191SOL    HW2 1020   1.693   0.305   1.680
  192SOL     OW 1021   1.730   0.934   1.517
  192SOL    HW1 1022   1.768   1.025   1.532
  192SOL    HW2 1023   1.722   0.917   1.418
  193SOL     OW 1024   0.859   1.374   0.016
  193SOL    HW1 1025   0.813   1.389   0.104
  193SOL    HW2 1026   0.903   1.459  -0.014
  194SOL     OW 1027   0.661   1.790   0.953
  194SOL    HW1 1028   0.615   1.878   0.940
  194SOL    HW2 1029   0.760   1.802   0.946
  195SOL     OW 1030   0.859   0.956   0.861
  195SOL    HW1 1031   0.913   0.887   0.909
  195SOL    HW2 1032   0.827   1.025   0.927
  196SOL     OW 1033   1.083   0.984   0.087
  196SOL    HW1 1034   1.060   1.037   0.005
  196SOL    HW2 1035   1.164   0.928   0.068
  197SOL     OW 1036   1.861   1.569   0.851
  197SOL    HW1 1037   1.790   1.557   0.781
  197SOL    HW2 1038   1.862   1.490   0.911
  198SOL     OW 1039   0.221   1.314   1.844
  198SOL    HW1 1040   0.156   1.241   1.823
  198SOL    HW2 1041   0.225   1.328   1.942
  199SOL     OW 1042   0.079   1.240   0.653
  199SOL    HW1 1043   0.078   1.193   0.741
  199SOL    HW2 1044   0.161   1.212   0.602
  200SOL     OW 1045   0.672   1.391   1.624
  200SOL    HW1 1046   0.594   1.341   1.662
  200SOL    HW2 1047   0.669   1.486   1.655
  201SOL     OW 1048   1.824   0.192   1.227
  201SOL    HW1 1049   1.820   0.102   1.271
  201SOL    HW2 1050   1.827   0.181   1.128
  202SOL     OW 1051   0.428   0.424   0.520
  202SOL    HW1 1052   0.458   0.352   0.458
  202SOL    HW2 1053   0.389   0.384   0.603
  203SOL     OW 1054   1.705   1.487   1.104
  203SOL    HW1 1055   1.612   1.462   1.077
  203SOL    HW2 1056   1.731   1.437   1.186
  204SOL     OW 1057   0.317   0.547   1.280
  204SOL    HW1 1058   0.355   0.488   1.352
  204SOL    HW2 1059   0.357   0.521   1.192
  205SOL     OW 1060   0.812   1.586   0.687
  205SOL    HW1 1061   0.844   1.596   0.593
  205SOL    HW2 1062   0.733   1.524   0.689
  206SOL     OW 1063   1.424   0.214   1.112
  206SOL    HW1 1064   1.476   0.149   1.167
  206SOL    HW2 1065   1.375   0.277   1.173
  207SOL     OW 1066   1.001   0.034   1.154
  207SOL    HW1 1067   0.938  -0.038   1.123
  207SOL    HW2 1068   1.094  -0.002   1.154
  208SOL     OW 1069   0.770   1.330   0.301
  208SOL    HW1 1070   0.724   1.243   0.318
  208SOL    HW2 1071   0.861   1.327   0.342
  209SOL     OW 1072   0.618   1.567   1.284
  209SOL    HW1 1073   0.613   1.649   1.341
  209SOL    HW2 1074   0.707   1.564   1.239
  210SOL     OW 1075   1.352   0.052   0.168
  210SOL    HW1 1076   1.387   0.011   0.084
  210SOL    HW2 1077   1.262   0.014   0.188
  211SOL     OW 1078   1.300   0.453   0.691
  211SOL    HW1 1079   1.241   0.533   0.695
  211SOL    HW2 1080   1.315   0.418   0.784
  212SOL     OW 1081   1.593   0.221   0.882
  212SOL    HW1 1082   1.509   0.220   0.936
  212SOL    HW2 1083   1.595   0.304   0.826
  213SOL     OW 1084   0.039   1.077   0.300
  213SOL    HW1 1085   0.138   1.066   0.291
  213SOL    HW2 1086  -0.001   0.991   0.332
  214SOL     OW 1087   0.875   1.646   0.337
  214SOL    HW1 1088   0.798   1.611   0.283
  214SOL    HW2 1089   0.843   1.717   0.399
  215SOL     OW 1090   0.230   0.628   1.975
  215SOL    HW1 1091   0.137   0.626   2.012
  215SOL    HW2 1092   0.231   0.589   1.883
  216SOL     OW 1093   0.225   0.275   2.858
  216SOL    HW1 1094   0.260   0.258   2.950
  216SOL    HW2 1095   0.137   0.230   2.846
  217SOL     OW 1096   0.019   0.368   2.509
  217SOL    HW1 1097  -0.063   0.411   2.548
  217SOL    HW2 1098  -0.009   0.295   2.446
  218SOL     OW 1099   0.569   1.275   3.027
  218SOL    HW1 1100   0.476   1.268   2.990
  218SOL    HW2 1101   0.580   1.364   3.071
  219SOL     OW 1102   1.555   1.511   2.565
  219SOL    HW1 1103   1.498   1.495   2.646
  219SOL    HW2 1104   1.496   1.521   2.485
  220SOL     OW 1105   1.135   0.703   2.579
  220SOL    HW1 1106   1.192   0.781   2.554
  220SOL    HW2 1107   1.075   0.729   2.655
  221SOL     OW 1108   1.755   0.607   2.093
  221SOL    HW1 1109   1.743   0.594   1.994
  221SOL    HW2 1110   1.725   0.526   2.142
  222SOL     OW 1111   0.768   1.144   2.885
  222SOL    HW1 1112   0.690   1.161   2.945
  222SOL    HW2 1113   0.802   1.231   2.849
  223SOL     OW 1114   0.850   0.798   3.685
  223SOL    HW1 1115   0.846   0.874   3.750
  223SOL    HW2 1116   0.872   0.834   3.594
  224SOL     OW 1117   0.685   1.012   2.527
  224SOL    HW1 1118   0.754   0.996   2.597
  224SOL    HW2 1119   0.612   1.069   2.565
  225SOL     OW 1120   0.686   1.161   3.665
  225SOL    HW1 1121   0.746   1.240   3.679
  225SOL    HW2 1122   0.600   1.192   3.624
  226SOL     OW 1123   0.335   1.435   2.923
  226SOL    HW1 1124   0.257   1.404   2.870
  226SOL    HW2 1125   0.393   1.493   2.866
  227SOL     OW 1126   1.460   1.505   3.201
  227SOL    HW1 1127   1.484   1.599   3.227
  227SOL    HW2 1128   1.444   1.451   3.283
  228SOL     OW 1129   0.438   0.392   3.361
  228SOL    HW1 1130   0.520   0.336   3.370
  228SOL    HW2 1131   0.357   0.334   3.365
  229SOL     OW 1132   1.603   0.447   2.599
  229SOL    HW1 1133   1.529   0.493   2.549
  229SOL    HW2 1134   1.654   0.515   2.652
  230SOL     OW 1135   0.231   1.713   2.345
  230SOL    HW1 1136   0.265   1.790   2.399
  230SOL    HW2 1137   0.275   1.713   2.255
  231SOL     OW 1138   1.127   1.341   3.552
  231SOL    HW1 1139   1.174   1.341   3.640
  231SOL    HW2 1140   1.079   1.254   3.541
  232SOL     OW 1141   0.230   1.434   2.400
  232SOL    HW1 1142   0.204   1.530   2.400
  232SOL    HW2 1143   0.159   1.380   2.445
  233SOL     OW 1144   0.240   1.091   2.748
  233SOL    HW1 1145   0.254   1.007   2.800
  233SOL    HW2 1146   0.185   1.155   2.803
  234SOL     OW 1147   0.620   1.786   3.301
  234SOL    HW1 1148   0.528   1.769   3.336
  234SOL    HW2 1149   0.648   1.878   3.327
  235SOL     OW 1150   0.606   0.964   1.985
  235SOL    HW1 1151   0.613   1.048   1.931
  235SOL    HW2 1152   0.652   0.977   2.073
  236SOL     OW 1153   1.594   0.114   3.342
  236SOL    HW1 1154   1.576   0.181   3.270
  236SOL    HW2 1155   1.591   0.160   3.431
  237SOL     OW 1156   0.122   0.643   2.425
  237SOL    HW1 1157   0.077   0.555   2.442
  237SOL    HW2 1158   0.121   0.697   2.509
  238SOL     OW 1159   1.842   1.767   2.221
  238SOL    HW1 1160   1.896   1.738   2.301
  238SOL    HW2 1161   1.872   1.857   2.192
  239SOL     OW 1162   0.027   1.596   1.979
  239SOL    HW1 1163   0.008   1.500   2.000
  239SOL    HW2 1164  -0.006   1.654   2.054
  240SOL     OW 1165   1.689   0.922   2.474
  240SOL    HW1 1166   1.784   0.893   2.482
  240SOL    HW2 1167   1.681   0.987   2.399
  241SOL     OW 1168   1.641   1.108   2.294
  241SOL    HW1 1169   1.727   1.110   2.242
  241SOL    HW2 1170   1.655   1.155   2.382
  242SOL     OW 1171   0.113   0.737   3.459
  242SOL    HW1 1172   0.201   0.724   3.504
  242SOL    HW2 1173   0.100   0.834   3.437
  243SOL     OW 1174   0.613   1.365   2.588
  243SOL    HW1 1175   0.564   1.278   2.597
  243SOL    HW2 1176   0.590   1.408   2.501
  244SOL     OW 1177   1.293   1.228   3.285
  244SOL    HW1 1178   1.330   1.155   3.227
  244SOL    HW2 1179   1.345   1.233   3.370
  245SOL     OW 1180   0.809   0.004   2.364
  245SOL    HW1 1181   0.849   0.095   2.355
  245SOL    HW2 1182   0.709   0.012   2.370
  246SOL     OW 1183   0.197   0.976   3.126
  246SOL    HW1 1184   0.286   0.931   3.112
  246SOL    HW2 1185   0.124   0.911   3.107
  247SOL     OW 1186   1.525   0.999   2.052
  247SOL    HW1 1187   1.462   0.923   2.065
  247SOL    HW2 1188   1.573   1.017   2.138
  248SOL     OW 1189   1.187   1.792   3.478
  248SOL    HW1 1190   1.211   1.852   3.402
  248SOL    HW2 1191   1.194   1.697   3.448
  249SOL     OW 1192   0.317   0.251   3.663
  249SOL    HW1 1193   0.388   0.322   3.669
  249SOL    HW2 1194   0.229   0.290   3.691
  250SOL     OW 1195   1.466   1.417   2.815
  250SOL    HW1 1196   1.407   1.423   2.895
  250SOL    HW2 1197   1.451   1.329   2.769
  251SOL     OW 1198   1.667   1.714   2.434
  251SOL    HW1 1199   1.626   1.691   2.346
  251SOL    HW2 1200   1.649   1.640   2.499
  252SOL     OW 1201   0.598   0.729   2.132
  252SOL    HW1 1202   0.622   0.798   2.064
  252SOL    HW2 1203   0.520   0.762   2.186
  253SOL     OW 1204   1.281   0.345   2.806
  253SOL    HW1 1205   1.195   0.295   2.793
  253SOL    HW2 1206   1.343   0.291   2.862
  254SOL     OW 1207   1.576   1.662   2.169
  254SOL    HW1 1208   1.665   1.708   2.172
  254SOL    HW2 1209   1.555   1.638   2.074
  255SOL     OW 1210   0.807   0.605   3.327
  255SOL    HW1 1211   0.760   0.602   3.416
  255SOL    HW2 1212   0.756   0.550   3.261
  256SOL     OW 1213   1.394   0.469   3.536
  256SOL    HW1 1214   1.374   0.512   3.624
  256SOL    HW2 1215   1.472   0.407   3.545
  257SOL     OW 1216   0.973   0.890   3.434
  257SOL    HW1 1217   1.019   0.806   3.405
  257SOL    HW2 1218   0.917   0.924   3.359
  258SOL     OW 1219   0.991   0.410   3.104
  258SOL    HW1 1220   0.914   0.444   3.158
  258SOL    HW2 1221   0.957   0.359   3.025
  259SOL     OW 1222   1.041   0.701   2.291
  259SOL    HW1 1223   1.067   0.697   2.387
  259SOL    HW2 1224   0.956   0.650   2.277
  260SOL     OW 1225   0.076   0.811   2.651
  260SOL    HW1 1226   0.175   0.799   2.660
  260SOL    HW2 1227   0.052   0.906   2.672
  261SOL     OW 1228   0.130   1.821   3.433
  261SOL    HW1 1229   0.120   1.806   3.532
  261SOL    HW2 1230   0.044   1.857   3.397
  262SOL     OW 1231   0.865   0.348   2.057
  262SOL    HW1 1232   0.924   0.411   2.008
  262SOL    HW2 1233   0.884   0.254   2.028
  263SOL     OW 1234   1.719   0.585   3.693
  263SOL    HW1 1235   1.693   0.674   3.657
  263SOL    HW2 1236   1.717   0.517   3.620
  264SOL     OW 1237   1.362   1.144   2.407
  264SOL    HW1 1238   1.445   1.115   2.359
  264SOL    HW2 1239   1.313   1.211   2.351
  265SOL     OW 1240   0.550   0.196   2.747
  265SOL    HW1 1241   0.545   0.191   2.847
  265SOL    HW2 1242   0.552   0.292   2.718
  266SOL     OW 1243   1.008   1.456   2.339
  266SOL    HW1 1244   0.962   1.528   2.287
  266SOL    HW2 1245   1.004   1.476   2.437
  267SOL     OW 1246   0.351   1.801   2.715
  267SOL    HW1 1247   0.401   1.715   2.721
  267SOL    HW2 1248   0.416   1.878   2.712
  268SOL     OW 1249   1.795   1.066   2.735
  268SOL    HW1 1250   1.733   1.051   2.659
  268SOL    HW2 1251   1.743   1.077   2.820
  269SOL     OW 1252   1.227   1.550   3.368
  269SOL    HW1 1253   1.233   1.473   3.432
  269SOL    HW2 1254   1.175   1.524   3.288
  270SOL     OW 1255   0.321   0.943   2.104
  270SOL    HW1 1256   0.403   0.982   2.062
  270SOL    HW2 1257   0.294   0.861   2.055
  271SOL     OW 1258   1.458   0.735   2.590
  271SOL    HW1 1259   1.453   0.670   2.665
  271SOL    HW2 1260   1.538   0.794   2.603
  272SOL     OW 1261   0.461   1.266   3.589
  272SOL    HW1 1262   0.411   1.267   3.503
  272SOL    HW2 1263   0.398   1.248   3.665
  273SOL     OW 1264   1.111   1.776   2.099
  273SOL    HW1 1265   1.051   1.714   2.149
  273SOL    HW2 1266   1.142   1.732   2.014
  274SOL     OW 1267   0.202   0.285   3.360
  274SOL    HW1 1268   0.122   0.345   3.347
  274SOL    HW2 1269   0.192   0.236   3.446
  275SOL     OW 1270   1.632   1.377   1.943
  275SOL    HW1 1271   1.600   1.471   1.933
  275SOL    HW2 1272   1.556   1.314   1.931
  276SOL     OW 1273   0.464   1.743   2.185
  276SOL    HW1 1274   0.497   1.782   2.271
  276SOL    HW2 1275   0.540   1.736   2.120
  277SOL     OW 1276   1.400   0.107   2.288
  277SOL    HW1 1277   1.376   0.070   2.198
  277SOL    HW2 1278   1.499   0.123   2.292
  278SOL     OW 1279   0.249   1.785   3.103
  278SOL    HW1 1280   0.306   1.720   3.153
  278SOL    HW2 1281   0.233   1.752   3.010
  279SOL     OW 1282   0.940   1.698   2.766
  279SOL    HW1 1283   1.020   1.641   2.787
  279SOL    HW2 1284   0.891   1.658   2.689
  280SOL     OW 1285   0.382   0.700   2.342
  280SOL    HW1 1286   0.427   0.610   2.339
  280SOL    HW2 1287   0.288   0.689   2.375
  281SOL     OW 1288   1.547   0.222   3.591
  281SOL    HW1 1289   1.542   0.259   3.683
  281SOL    HW2 1290   1.475   0.153   3.579
  282SOL     OW 1291   0.614   0.122   1.979
  282SOL    HW1 1292   0.712   0.100   1.986
  282SOL    HW2 1293   0.583   0.105   1.886
  283SOL     OW 1294   0.781   0.264   3.611
  283SOL    HW1 1295   0.848   0.203   3.654
  283SOL    HW2 1296   0.708   0.283   3.676
  284SOL     OW 1297   0.888   1.514   3.057
  284SOL    HW1 1298   0.865   1.489   2.963
  284SOL    HW2 1299   0.949   1.445   3.096
  285SOL     OW 1300   1.351   0.590   3.295
  285SOL    HW1 1301   1.379   0.547   3.380
  285SOL    HW2 1302   1.376   0.686   3.296
  286SOL     OW 1303   0.803   1.402   2.786
  286SOL    HW1 1304   0.893   1.416   2.744
  286SOL    HW2 1305   0.732   1.404   2.715
  287SOL     OW 1306   0.922   0.503   2.761
  287SOL    HW1 1307   0.897   0.494   2.665
  287SOL    HW2 1308   0.970   0.421   2.792
  288SOL     OW 1309   0.539   0.064   2.374
  288SOL    HW1 1310   0.458   0.065   2.432
  288SOL    HW2 1311   0.542   0.147   2.319
  289SOL     OW 1312   1.434   1.188   1.903
  289SOL    HW1 1313   1.466   1.112   1.960
  289SOL    HW2 1314   1.342   1.215   1.933
  290SOL     OW 1315   0.297   0.035   2.033
  290SOL    HW1 1316   0.346   0.119   2.012
  290SOL    HW2 1317   0.359  -0.030   2.078
  291SOL     OW 1318   0.935   0.236   2.342
  291SOL    HW1 1319   0.887   0.277   2.264
  291SOL    HW2 1320   1.034   0.234   2.323
  292SOL     OW 1321   1.076   0.683   3.326
  292SOL    HW1 1322   0.996   0.622   3.329
  292SOL    HW2 1323   1.157   0.630   3.302
  293SOL     OW 1324   1.227   1.570   2.655
  293SOL    HW1 1325   1.248   1.644   2.590
  293SOL    HW2 1326   1.295   1.570   2.728
  294SOL     OW 1327   0.459   1.152   2.603
  294SOL    HW1 1328   0.388   1.125   2.668
  294SOL    HW2 1329   0.433   1.124   2.510
  295SOL     OW 1330   1.271   1.797   2.453
  295SOL    HW1 1331   1.315   1.861   2.389
  295SOL    HW2 1332   1.221   1.849   2.523
  296SOL     OW 1333   1.032   0.549   1.878
  296SOL    HW1 1334   0.991   0.631   1.839
  296SOL    HW2 1335   1.096   0.575   1.951
  297SOL     OW 1336   0.078   0.556   3.248
  297SOL    HW1 1337   0.170   0.555   3.207
  297SOL    HW2 1338   0.072   0.630   3.315
  298SOL     OW 1339   0.561   0.222   3.009
  298SOL    HW1 1340   0.599   0.138   3.046
  298SOL    HW2 1341   0.473   0.241   3.053
  299SOL     OW 1342   0.866   0.454   2.504
  299SOL    HW1 1343   0.834   0.526   2.442
  299SOL    HW2 1344   0.890   0.373   2.451
  300SOL     OW 1345   1.017   0.039   2.615
  300SOL    HW1 1346   0.945   0.044   2.546
  300SOL    HW2 1347   0.993  -0.030   2.684
  301SOL     OW 1348   1.429   1.173   2.729
  301SOL    HW1 1349   1.374   1.089   2.722
  301SOL    HW2 1350   1.455   1.202   2.637
  302SOL     OW 1351   1.466   0.590   2.854
  302SOL    HW1 1352   1.436   0.495   2.861
  302SOL    HW2 1353   1.539   0.606   2.920
  303SOL     OW 1354   1.857   0.833   2.239
  303SOL    HW1 1355   1.899   0.769   2.303
  303SOL    HW2 1356   1.819   0.782   2.161
  304SOL     OW 1357   0.488   1.385   2.036
  304SOL    HW1 1358   0.401   1.370   2.083
  304SOL    HW2 1359   0.471   1.411   1.941
  305SOL     OW 1360   1.664   1.280   2.519
  305SOL    HW1 1361   1.763   1.288   2.533
  305SOL    HW2 1362   1.619   1.364   2.550
  306SOL     OW 1363   1.390   0.575   1.940
  306SOL    HW1 1364   1.336   0.554   2.021
  306SOL    HW2 1365   1.481   0.534   1.949
  307SOL     OW 1366   0.527   0.256   2.190
  307SOL    HW1 1367   0.554   0.197   2.115
  307SOL    HW2 1368   0.527   0.351   2.159
  308SOL     OW 1369   1.754   1.223   3.450
  308SOL    HW1 1370   1.845   1.184   3.437
  308SOL    HW2 1371   1.762   1.319   3.474
  309SOL     OW 1372   1.064   1.347   3.202
  309SOL    HW1 1373   0.984   1.324   3.257
  309SOL    HW2 1374   1.147   1.321   3.251
  310SOL     OW 1375   1.592   1.629   3.487
  310SOL    HW1 1376   1.619   1.663   3.397
  310SOL    HW2 1377   1.671   1.591   3.533
  311SOL     OW 1378   1.111   1.195   2.962
  311SOL    HW1 1379   1.071   1.239   3.043
  311SOL    HW2 1380   1.070   1.232   2.879
  312SOL     OW 1381   1.638   1.099   2.941
  312SOL    HW1 1382   1.643   1.180   3.000
  312SOL    HW2 1383   1.552   1.101   2.890
  313SOL     OW 1384   0.915   0.089   3.264
  313SOL    HW1 1385   0.940   0.069   3.169
  313SOL    HW2 1386   0.987   0.145   3.306
  314SOL     OW 1387   0.980   1.116   3.581
  314SOL    HW1 1388   0.881   1.122   3.591
  314SOL    HW2 1389   1.003   1.036   3.525
  315SOL     OW 1390   0.705   1.050   2.230
  315SOL    HW1 1391   0.691   1.057   2.329
  315SOL    HW2 1392   0.789   0.999   2.212
  316SOL     OW 1393   0.410   0.813   3.113
  316SOL    HW1 1394   0.496   0.825   3.163
  316SOL    HW2 1395   0.368   0.726   3.140
  317SOL     OW 1396   1.274   0.386   3.124
  317SOL    HW1 1397   1.295   0.460   3.188
  317SOL    HW2 1398   1.185   0.403   3.081
  318SOL     OW 1399   0.064   1.564   3.193
  318SOL    HW1 1400   0.018   1.646   3.159
  318SOL    HW2 1401   0.162   1.583   3.202
  319SOL     OW 1402   0.367   1.100   2.363
  319SOL    HW1 1403   0.360   1.183   2.307
  319SOL    HW2 1404   0.371   1.020   2.303
  320SOL     OW 1405   0.566   0.537   2.727
  320SOL    HW1 1406   0.578   0.603   2.653
  320SOL    HW2 1407   0.612   0.571   2.810
  321SOL     OW 1408   1.252   1.348   2.250
  321SOL    HW1 1409   1.302   1.425   2.290
  321SOL    HW2 1410   1.157   1.350   2.282
  322SOL     OW 1411   1.272   1.445   3.004
  322SOL    HW1 1412   1.319   1.458   3.091
  322SOL    HW2 1413   1.206   1.371   3.013
  323SOL     OW 1414   1.582   0.639   2.334
  323SOL    HW1 1415   1.551   0.700   2.407
  323SOL    HW2 1416   1.632   0.691   2.265
  324SOL     OW 1417   0.354   1.510   3.191
  324SOL    HW1 1418   0.333   1.466   3.104
  324SOL    HW2 1419   0.451   1.536   3.194
  325SOL     OW 1420   0.402   0.751   3.460
  325SOL    HW1 1421   0.470   0.806   3.413
  325SOL    HW2 1422   0.442   0.663   3.487
  326SOL     OW 1423   1.587   0.779   3.532
  326SOL    HW1 1424   1.495   0.817   3.527
  326SOL    HW2 1425   1.647   0.826   3.467
  327SOL     OW 1426   1.013   0.105   3.632
  327SOL    HW1 1427   1.019   0.190   3.580
  327SOL    HW2 1428   1.045   0.029   3.575
  328SOL     OW 1429   0.504   0.050   3.602
  328SOL    HW1 1430   0.462  -0.007   3.532
  328SOL    HW2 1431   0.438   0.119   3.634
  329SOL     OW 1432   0.573   0.870   2.891
  329SOL    HW1 1433   0.617   0.959   2.882
  329SOL    HW2 1434   0.510   0.870   2.968
  330SOL     OW 1435   1.360   0.862   2.907
  330SOL    HW1 1436   1.285   0.862   2.841
  330SOL    HW2 1437   1.397   0.770   2.916
  331SOL     OW 1438   1.209   0.525   2.137
  331SOL    HW1 1439   1.222   0.441   2.191
  331SOL    HW2 1440   1.180   0.599   2.197
  332SOL     OW 1441   0.307   0.213   3.093
  332SOL    HW1 1442   0.284   0.250   3.183
  332SOL    HW2 1443   0.277   0.118   3.087
  333SOL     OW 1444   0.037   1.310   3.144
  333SOL    HW1 1445   0.090   1.261   3.212
  333SOL    HW2 1446   0.059   1.408   3.149
  334SOL     OW 1447   0.732   0.634   2.926
  334SOL    HW1 1448   0.791   0.608   2.850
  334SOL    HW2 1449   0.704   0.730   2.915
  335SOL     OW 1450   1.728   0.935   3.716
  335SOL    HW1 1451   1.682   0.928   3.627
  335SOL    HW2 1452   1.666   0.979   3.782
  336SOL     OW 1453   0.307   0.063   2.480
  336SOL    HW1 1454   0.296   0.157   2.513
  336SOL    HW2 1455   0.302   0.000   2.557
  337SOL     OW 1456   1.622   0.367   2.236
  337SOL    HW1 1457   1.624   0.291   2.300
  337SOL    HW2 1458   1.574   0.444   2.276
  338SOL     OW 1459   1.023   0.766   2.828
  338SOL    HW1 1460   1.038   0.787   2.924
  338SOL    HW2 1461   0.993   0.671   2.819
  339SOL     OW 1462   0.980   1.573   3.562
  339SOL    HW1 1463   0.960   1.617   3.474
  339SOL    HW2 1464   1.019   1.482   3.546
  340SOL     OW 1465   1.859   1.518   3.467
  340SOL    HW1 1466   1.873   1.545   3.372
  340SOL    HW2 1467   1.942   1.540   3.520
  341SOL     OW 1468   0.350   0.898   3.666
  341SOL    HW1 1469   0.426   0.942   3.714
  341SOL    HW2 1470   0.385   0.851   3.584
  342SOL     OW 1471   1.540   0.274   1.987
  342SOL    HW1 1472   1.479   0.199   2.010
  342SOL    HW2 1473   1.562   0.326   2.070
  343SOL     OW 1474   1.303   0.838   1.904
  343SOL    HW1 1475   1.337   0.745   1.919
  343SOL    HW2 1476   1.321   0.865   1.809
  344SOL     OW 1477   1.068   1.333   2.711
  344SOL    HW1 1478   1.075   1.249   2.656
  344SOL    HW2 1479   1.130   1.402   2.675
  345SOL     OW 1480   0.319   0.810   2.811
  345SOL    HW1 1481   0.412   0.846   2.816
  345SOL    HW2 1482   0.313   0.725   2.863
  346SOL     OW 1483   0.339   0.509   2.868
  346SOL    HW1 1484   0.287   0.426   2.851
  346SOL    HW2 1485   0.416   0.514   2.804
  347SOL     OW 1486   1.138   0.380   3.540
  347SOL    HW1 1487   1.093   0.443   3.604
  347SOL    HW2 1488   1.231   0.411   3.523
  348SOL     OW 1489   1.160   0.207   3.339
  348SOL    HW1 1490   1.160   0.271   3.416
  348SOL    HW2 1491   1.188   0.255   3.256
  349SOL     OW 1492   0.008   1.326   2.062
  349SOL    HW1 1493  -0.085   1.347   2.031
  349SOL    HW2 1494   0.018   1.227   2.075
  350SOL     OW 1495   0.088   1.801   2.789
  350SOL    HW1 1496   0.046   1.715   2.762
  350SOL    HW2 1497   0.182   1.804   2.755
  351SOL     OW 1498   0.504   1.568   2.772
  351SOL    HW1 1499   0.570   1.642   2.781
  351SOL    HW2 1500   0.548   1.489   2.730
  352SOL     OW 1501   1.002   0.796   3.100
  352SOL    HW1 1502   1.043   0.764   3.186
  352SOL    HW2 1503   0.906   0.769   3.097
  353SOL     OW 1504   0.040   0.544   2.976
  353SOL    HW1 1505   0.125   0.511   2.935
  353SOL    HW2 1506   0.053   0.559   3.074
  354SOL     OW 1507   0.189   0.520   3.584
  354SOL    HW1 1508   0.248   0.480   3.514
  354SOL    HW2 1509   0.131   0.591   3.543
  355SOL     OW 1510   1.369   0.950   3.522
  355SOL    HW1 1511   1.408   1.039   3.542
  355SOL    HW2 1512   1.379   0.930   3.425
  356SOL     OW 1513   0.815   0.572   2.187
  356SOL    HW1 1514   0.822   0.483   2.141
  356SOL    HW2 1515   0.721   0.606   2.179
  357SOL     OW 1516   1.657   0.604   3.068
  357SOL    HW1 1517   1.619   0.535   3.130
  357SOL    HW2 1518   1.739   0.568   3.024
  358SOL     OW 1519   0.252   1.564   3.606
  358SOL    HW1 1520   0.222   1.621   3.682
  358SOL    HW2 1521   0.245   1.467   3.632
  359SOL     OW 1522   0.671   0.464   3.131
  359SOL    HW1 1523   0.637   0.375   3.101
  359SOL    HW2 1524   0.697   0.518   3.051
  360SOL     OW 1525   0.930   1.678   3.327
  360SOL    HW1 1526   0.906   1.660   3.232
  360SOL    HW2 1527   0.960   1.772   3.337
  361SOL     OW 1528   0.473   0.500   2.053
  361SOL    HW1 1529   0.534   0.580   2.057
  361SOL    HW2 1530   0.378   0.531   2.060
  362SOL     OW 1531   0.159   1.137   3.328
  362SOL    HW1 1532   0.181   1.076   3.404
  362SOL    HW2 1533   0.169   1.088   3.242
  363SOL     OW 1534   1.347   1.059   3.096
  363SOL    HW1 1535   1.371   0.996   3.022
  363SOL    HW2 1536   1.257   1.099   3.078
  364SOL     OW 1537   1.302   0.855   2.171
  364SOL    HW1 1538   1.216   0.824   2.213
  364SOL    HW2 1539   1.298   0.841   2.072
  365SOL     OW 1540   1.759   1.747   3.016
  365SOL    HW1 1541   1.820   1.777   2.943
  365SOL    HW2 1542   1.721   1.658   2.994
  366SOL     OW 1543   1.252   1.731   2.990
  366SOL    HW1 1544   1.336   1.736   2.936
  366SOL    HW2 1545   1.229   1.635   3.008
  367SOL     OW 1546   0.083   1.258   2.884
  367SOL    HW1 1547   0.078   1.257   2.984
  367SOL    HW2 1548   0.000   1.217   2.846
  368SOL     OW 1549   0.688   1.662   3.578
  368SOL    HW1 1550   0.632   1.743   3.587
  368SOL    HW2 1551   0.740   1.666   3.492
  369SOL     OW 1552   1.726   0.135   2.385
  369SOL    HW1 1553   1.799   0.118   2.318
  369SOL    HW2 1554   1.695   0.048   2.423
  370SOL     OW 1555   1.388   1.573   2.339
  370SOL    HW1 1556   1.455   1.585   2.265
  370SOL    HW2 1557   1.348   1.662   2.362
  371SOL     OW 1558   0.130   1.794   3.713
  371SOL    HW1 1559   0.089   1.720   3.766
  371SOL    HW2 1560   0.194   1.845   3.771
  372SOL     OW 1561   1.280   0.927   2.534
  372SOL    HW1 1562   1.340   0.846   2.536
  372SOL    HW2 1563   1.320   0.996   2.474
  373SOL     OW 1564   0.830   1.273   3.284
  373SOL    HW1 1565   0.825   1.306   3.379
  373SOL    HW2 1566   0.744   1.292   3.238
  374SOL     OW 1567   0.672   1.616   2.016
  374SOL    HW1 1568   0.681   1.626   1.917
  374SOL    HW2 1569   0.632   1.527   2.037
  375SOL     OW 1570   1.650   1.720   3.256
  375SOL    HW1 1571   1.703   1.730   3.172
  375SOL    HW2 1572   1.623   1.810   3.290
  376SOL     OW 1573   1.841   0.175   2.825
  376SOL    HW1 1574   1.880   0.090   2.789
  376SOL    HW2 1575   1.743   0.177   2.806
  377SOL     OW 1576   0.263   0.326   2.582
  377SOL    HW1 1577   0.184   0.377   2.548
  377SOL    HW2 1578   0.254   0.311   2.680
  378SOL     OW 1579   1.194   1.612   1.893
  378SOL    HW1 1580   1.200   1.519   1.930
  378SOL    HW2 1581   1.135   1.612   1.813
  379SOL     OW 1582   0.822   1.002   3.234
  379SOL    HW1 1583   0.862   1.001   3.142
  379SOL    HW2 1584   0.832   1.094   3.274
  380SOL     OW 1585   0.916   0.910   2.153
  380SOL    HW1 1586   0.979   0.948   2.085
  380SOL    HW2 1587   0.956   0.827   2.192
  381SOL     OW 1588   1.504   1.607   1.906
  381SOL    HW1 1589   1.412   1.644   1.913
  381SOL    HW2 1590   1.542   1.627   1.816
  382SOL     OW 1591   0.372   1.288   3.352
  382SOL    HW1 1592   0.359   1.381   3.318
  382SOL    HW2 1593   0.288   1.236   3.339
  383SOL     OW 1594   1.614   1.292   3.151
  383SOL    HW1 1595   1.674   1.295   3.231
  383SOL    HW2 1596   1.539   1.356   3.164
  384SOL     OW 1597   1.039   1.098   2.558
  384SOL    HW1 1598   0.969   1.051   2.612
  384SOL    HW2 1599   1.098   1.030   2.515
  385SOL     OW 1600   1.014   0.236   2.833
  385SOL    HW1 1601   1.006   0.200   2.740
  385SOL    HW2 1602   1.012   0.160   2.898
  386SOL     OW 1603   0.590   1.487   2.353
  386SOL    HW1 1604   0.632   1.429   2.283
  386SOL    HW2 1605   0.546   1.566   2.309
  387SOL     OW 1606   1.709   0.385   3.243
  387SOL    HW1 1607   1.782   0.454   3.247
  387SOL    HW2 1608   1.737   0.310   3.184
  388SOL     OW 1609   0.255   1.348   2.152
  388SOL    HW1 1610   0.159   1.349   2.125
  388SOL    HW2 1611   0.267   1.401   2.236
  389SOL     OW 1612   0.105   1.013   3.588
  389SOL    HW1 1613   0.028   0.980   3.642
  389SOL    HW2 1614   0.190   0.983   3.630
  390SOL     OW 1615   0.672   0.203   3.351
  390SOL    HW1 1616   0.762   0.187   3.311
  390SOL    HW2 1617   0.680   0.208   3.450
  391SOL     OW 1618   0.075   0.345   1.895
  391SOL    HW1 1619  -0.017   0.317   1.866
  391SOL    HW2 1620   0.106   0.422   1.839
  392SOL     OW 1621   1.440   0.856   3.260
  392SOL    HW1 1622   1.383   0.908   3.197
  392SOL    HW2 1623   1.536   0.868   3.236
  393SOL     OW 1624   0.072   0.166   2.180
  393SOL    HW1 1625   0.055   0.249   2.126
  393SOL    HW2 1626   0.162   0.129   2.158
  394SOL     OW 1627   1.183   1.335   1.981
  394SOL    HW1 1628   1.084   1.324   1.983
  394SOL    HW2 1629   1.217   1.350   2.074
  395SOL     OW 1630   0.613   0.842   3.293
  395SOL    HW1 1631   0.669   0.923   3.276
  395SOL    HW2 1632   0.672   0.762   3.296
  396SOL     OW 1633   1.493   1.767   2.821
  396SOL    HW1 1634   1.526   1.831   2.752
  396SOL    HW2 1635   1.559   1.761   2.896
  397SOL     OW 1636   0.716   0.565   3.570
  397SOL    HW1 1637   0.735   0.630   3.644
  397SOL    HW2 1638   0.776   0.485   3.579
  398SOL     OW 1639   1.450   1.220   3.495
  398SOL    HW1 1640   1.441   1.210   3.594
  398SOL    HW2 1641   1.546   1.213   3.469
  399SOL     OW 1642   0.390   1.741   3.422
  399SOL    HW1 1643   0.299   1.782   3.420
  399SOL    HW2 1644   0.383   1.647   3.454
  400SOL     OW 1645   1.674   0.883   3.116
  400SOL    HW1 1646   1.647   0.794   3.079
  400SOL    HW2 1647   1.675   0.951   3.043
  401SOL     OW 1648   1.225   0.325   2.311
  401SOL    HW1 1649   1.290   0.251   2.300
  401SOL    HW2 1650   1.245   0.375   2.395
  402SOL     OW 1651   0.594   0.745   2.514
  402SOL    HW1 1652   0.644   0.830   2.495
  402SOL    HW2 1653   0.506   0.747   2.466
  403SOL     OW 1654   1.777   0.342   3.504
  403SOL    HW1 1655   1.760   0.373   3.410
  403SOL    HW2 1656   1.693   0.305   3.542
  404SOL     OW 1657   1.730   0.934   3.379
  404SOL    HW1 1658   1.768   1.025   3.394
  404SOL    HW2 1659   1.722   0.917   3.280
  405SOL     OW 1660   0.859   1.374   1.878
  405SOL    HW1 1661   0.813   1.389   1.966
  405SOL    HW2 1662   0.903   1.459   1.848
  406SOL     OW 1663   0.661   1.790   2.815
  406SOL    HW1 1664   0.615   1.878   2.802
  406SOL    HW2 1665   0.760   1.802   2.808
  407SOL     OW 1666   0.859   0.956   2.723
  407SOL    HW1 1667   0.913   0.887   2.771
  407SOL    HW2 1668   0.827   1.025   2.789
  408SOL     OW 1669   1.083   0.984   1.949
  408SOL    HW1 1670   1.060   1.037   1.867
  408SOL    HW2 1671   1.164   0.928   1.930
  409SOL     OW 1672   1.861   1.569   2.713
  409SOL    HW1 1673   1.790   1.557   2.643
  409SOL    HW2 1674   1.862   1.490   2.773
  410SOL     OW 1675   0.221   1.314   3.706
  410SOL    HW1 1676   0.156   1.241   3.685
  410SOL    HW2 1677   0.225   1.328   3.804
  411SOL     OW 1678   0.079   1.240   2.515
  411SOL    HW1 1679   0.078   1.193   2.603
  411SOL    HW2 1680   0.161   1.212   2.464
  412SOL     OW 1681   0.672   1.391   3.486
  412SOL    HW1 1682   0.594   1.341   3.524
  412SOL    HW2 1683   0.669   1.486   3.517
  413SOL     OW 1684   1.824   0.192   3.089
  413SOL    HW1 1685   1.820   0.102   3.133
  413SOL    HW2 1686   1.827   0.181   2.990
  414SOL     OW 1687   0.428   0.424   2.382
  414SOL    HW1 1688   0.458   0.352   2.320
  414SOL    HW2 1689   0.389   0.384   2.465
  415SOL     OW 1690   1.705   1.487   2.966
  415SOL    HW1 1691   1.612   1.462   2.939
  415SOL    HW2 1692   1.731   1.437   3.048
  416SOL     OW 1693   0.317   0.547   3.142
  416SOL    HW1 1694   0.355   0.488   3.214
  416SOL    HW2 1695   0.357   0.521   3.054
  417SOL     OW 1696   0.812   1.586   2.549
  417SOL    HW1 1697   0.844   1.596   2.455
  417SOL    HW2 1698   0.733   1.524   2.551
  418SOL     OW 1699   1.424   0.214   2.974
  418SOL    HW1 1700   1.476   0.149   3.029
  418SOL    HW2 1701   1.375   0.277   3.035
  419SOL     OW 1702   1.001   0.034   3.016
  419SOL    HW1 1703   0.938  -0.038   2.985
  419SOL    HW2 1704   1.094  -0.002   3.016
  420SOL     OW 1705   0.770   1.330   2.163
  420SOL    HW1 1706   0.724   1.243   2.180
  420SOL    HW2 1707   0.861   1.327   2.204
  421SOL     OW 1708   0.618   1.567   3.146
  421SOL    HW1 1709   0.613   1.649   3.203
  421SOL    HW2 1710   0.707   1.564   3.101
  422SOL     OW 1711   1.352   0.052   2.030
  422SOL    HW1 1712   1.387   0.011   1.946
  422SOL    HW2 1713   1.262   0.014   2.050
  423SOL     OW 1714   1.300   0.453   2.553
  423SOL    HW1 1715   1.241   0.533   2.557
  423SOL    HW2 1716   1.315   0.418   2.646
  424SOL     OW 1717   1.593   0.221   2.744
  424SOL    HW1 1718   1.509   0.220   2.798
  424SOL    HW2 1719   1.595   0.304   2.688
  425SOL     OW 1720   0.039   1.077   2.162
  425SOL    HW1 1721   0.138   1.066   2.153
  425SOL    HW2 1722  -0.001   0.991   2.194
  426SOL     OW 1723   0.875   1.646   2.199
  426SOL    HW1 1724   0.798   1.611   2.145
  426SOL    HW2 1725   0.843   1.717   2.261
  427SOL     OW 1726   0.230   0.628   3.837
  427SOL    HW1 1727   0.137   0.626   3.874
  427SOL    HW2 1728   0.231   0.589   3.745
  428SOL     OW 1729   0.225   0.275   4.720
  428SOL    HW1 1730   0.260   0.258   4.812
  428SOL    HW2 1731   0.137   0.230   4.708
  429SOL     OW 1732   0.019   0.368   4.371
  429SOL    HW1 1733  -0.063   0.411   4.410
  429SOL    HW2 1734  -0.009   0.295   4.308
  430SOL     OW 1735   0.569   1.275   4.889
  430SOL    HW1 1736   0.476   1.268   4.852
  430SOL    HW2 1737   0.580   1.364   4.933
  431SOL     OW 1738   1.555   1.511   4.427
  431SOL    HW1 1739   1.498   1.495   4.508
  431SOL    HW2 1740   1.496   1.521   4.347
  432SOL     OW 1741   1.135   0.703   4.441
  432SOL    HW1 1742   1.192   0.781   4.416
  432SOL    HW2 1743   1.075   0.729   4.517
  433SOL     OW 1744   1.755   0.607   3.955
  433SOL    HW1 1745   1.743   0.594   3.856
  433SOL    HW2 1746   1.725   0.526   4.004
  434SOL     OW 1747   0.768   1.144   4.747
  434SOL    HW1 1748   0.690   1.161   4.807
  434SOL    HW2 1749   0.802   1.231   4.711
  435SOL     OW 1750   0.850   0.798   5.547
  435SOL    HW1 1751   0.846   0.874   5.612
  435SOL    HW2 1752   0.872   0.834   5.456
  436SOL     OW 1753   0.685   1.012   4.389
  436SOL    HW1 1754   0.754   0.996   4.459
  436SOL    HW2 1755   0.612   1.069   4.427
  437SOL     OW 1756   0.686   1.161   5.527
  437SOL    HW1 1757   0.746   1.240   5.541
  437SOL    HW2 1758   0.600   1.192   5.486
  438SOL     OW 1759   0.335   1.435   4.785
  438SOL    HW1 1760   0.257   1.404   4.732
  438SOL    HW2 1761   0.393   1.493   4.728
  439SOL     OW 1762   1.460   1.505   5.063
  439SOL    HW1 1763   1.484   1.599   5.089
  439SOL    HW2 1764   1.444   1.451   5.145
  440SOL     OW 1765   0.438   0.392   5.223
  440SOL    HW1 1766   0.520   0.336   5.232
  440SOL    HW2 1767   0.357   0.334   5.227
  441SOL     OW 1768   1.603   0.447   4.461
  441SOL    HW1 1769   1.529   0.493   4.411
  441SOL    HW2 1770   1.654   0.515   4.514
  442SOL     OW 1771   0.231   1.713   4.207
  442SOL    HW1 1772   0.265   1.790   4.261
  442SOL    HW2 1773   0.275   1.713   4.117
  443SOL     OW 1774   1.127   1.341   5.414
  443SOL    HW1 1775   1.174   1.341   5.502
  443SOL    HW2 1776   1.079   1.254   5.403
  444SOL     OW 1777   0.230   1.434   4.262
  444SOL    HW1 1778   0.204   1.530   4.262
  444SOL    HW2 1779   0.159   1.380   4.307
  445SOL     OW 1780   0.240   1.091   4.610
  445SOL    HW1 1781   0.254   1.007   4.662
  445SOL    HW2 1782   0.185   1.155   4.665
  446SOL     OW 1783   0.620   1.786   5.163
  446SOL    HW1 1784   0.528   1.769   5.198
  446SOL    HW2 1785   0.648   1.878   5.189
  447SOL     OW 1786   0.606   0.964   3.847
  447SOL    HW1 1787   0.613   1.048   3.793
  447SOL    HW2 1788   0.652   0.977   3.935
  448SOL     OW 1789   1.594   0.114   5.204
  448SOL    HW1 1790   1.576   0.181   5.132
  448SOL    HW2 1791   1.591   0.160   5.293
  449SOL     OW 1792   0.122   0.643   4.287
  449SOL    HW1 1793   0.077   0.555   4.304
  449SOL    HW2 1794   0.121   0.697   4.371
  450SOL     OW 1795   1.842   1.767   4.083
  450SOL    HW1 1796   1.896   1.738   4.163
  450SOL    HW2 1797   1.872   1.857   4.054
  451SOL     OW 1798   0.027   1.596   3.841
  451SOL    HW1 1799   0.008   1.500   3.862
  451SOL    HW2 1800  -0.006   1.654   3.916
  452SOL     OW 1801   1.689   0.922   4.336
  452SOL    HW1 1802   1.784   0.893   4.344
  452SOL    HW2 1803   1.681   0.987   4.261
  453SOL     OW 1804   1.641   1.108   4.156
  453SOL    HW1 1805   1.727   1.110   4.104
  453SOL    HW2 1806   1.655   1.155   4.244
  454SOL     OW 1807   0.113   0.737   5.321
  454SOL    HW1 1808   0.201   0.724   5.366
  454SOL    HW2 1809   0.100   0.834   5.299
  455SOL     OW 1810   0.613   1.365   4.450
  455SOL    HW1 1811   0.564   1.278   4.459
  455SOL    HW2 1812   0.590   1.408   4.363
  456SOL     OW 1813   1.293   1.228   5.147
  456SOL    HW1 1814   1.330   1.155   5.089
  456SOL    HW2 1815   1.345   1.233   5.232
  457SOL     OW 1816   0.809   0.004   4.226
  457SOL    HW1 1817   0.849   0.095   4.217
  457SOL    HW2 1818   0.709   0.012   4.232
  458SOL     OW 1819   0.197   0.976   4.988
  458SOL    HW1 1820   0.286   0.931   4.974
  458SOL    HW2 1821   0.124   0.911   4.969
  459SOL     OW 1822   1.525   0.999   3.914
  459SOL    HW1 1823   1.462   0.923   3.927
  459SOL    HW2 1824   1.573   1.017   4.000
  460SOL     OW 1825   1.187   1.792   5.340
  460SOL    HW1 1826   1.211   1.852   5.264
  460SOL    HW2 1827   1.194   1.697   5.310
  461SOL     OW 1828   0.317   0.251   5.525
  461SOL    HW1 1829   0.388   0.322   5.531
  461SOL    HW2 1830   0.229   0.290   5.553
  462SOL     OW 1831   1.466   1.417   4.677
  462SOL    HW1 1832   1.407   1.423   4.757
  462SOL    HW2 1833   1.451   1.329   4.631
  463SOL     OW 1834   1.667   1.714   4.296
  463SOL    HW1 1835   1.626   1.691   4.208
  463SOL    HW2 1836   1.649   1.640   4.361
  464SOL     OW 1837   0.598   0.729   3.994
  464SOL    HW1 1838   0.622   0.798   3.926
  464SOL    HW2 1839   0.520   0.762   4.048
  465SOL     OW 1840   1.281   0.345   4.668
  465SOL    HW1 1841   1.195   0.295   4.655
  465SOL    HW2 1842   1.343   0.291   4.724
  466SOL     OW 1843   1.576   1.662   4.031
  466SOL    HW1 1844   1.665   1.708   4.034
  466SOL    HW2 1845   1.555   1.638   3.936
  467SOL     OW 1846   0.807   0.605   5.189
  467SOL    HW1 1847   0.760   0.602   5.278
  467SOL    HW2 1848   0.756   0.550   5.123
  468SOL     OW 1849   1.394   0.469   5.398
  468SOL    HW1 1850   1.374   0.512   5.486
  468SOL    HW2 1851   1.472   0.407   5.407
  469SOL     OW 1852   0.973   0.890   5.296
  469SOL    HW1 1853   1.019   0.806   5.267
  469SOL    HW2 1854   0.917   0.924   5.221
  470SOL     OW 1855   0.991   0.410   4.966
  470SOL    HW1 1856   0.914   0.444   5.020
  470SOL    HW2 1857   0.957   0.359   4.887
  471SOL     OW 1858   1.041   0.701   4.153
  471SOL    HW1 1859   1.067   0.697   4.249
  471SOL    HW2 1860   0.956   0.650   4.139
  472SOL     OW 1861   0.076   0.811   4.513
  472SOL    HW1 1862   0.175   0.799   4.522
  472SOL    HW2 1863   0.052   0.906   4.534
  473SOL     OW 1864   0.130   1.821   5.295
  473SOL    HW1 1865   0.120   1.806   5.394
  473SOL    HW2 1866   0.044   1.857   5.259
  474SOL     OW 1867   0.865   0.348   3.919
  474SOL    HW1 1868   0.924   0.411   3.870
  474SOL    HW2 1869   0.884   0.254   3.890
  475SOL     OW 1870   1.719   0.585   5.555
  475SOL    HW1 1871   1.693   0.674   5.519
  475SOL    HW2 1872   1.717   0.517   5.482
  476SOL     OW 1873   1.362   1.144   4.269
  476SOL    HW1 1874   1.445   1.115   4.221
  476SOL    HW2 1875   1.313   1.211   4.213
  477SOL     OW 1876   0.550   0.196   4.609
  477SOL    HW1 1877   0.545   0.191   4.709
  477SOL    HW2 1878   0.552   0.292   4.580
  478SOL     OW 1879   1.008   1.456   4.201
  478SOL    HW1 1880   0.962   1.528   4.149
  478SOL    HW2 1881   1.004   1.476   4.299
  479SOL     OW 1882   0.351   1.801   4.577
  479SOL    HW1 1883   0.401   1.715   4.583
  479SOL    HW2 1884   0.416   1.878   4.574
  480SOL     OW 1885   1.795   1.066   4.597
  480SOL    HW1 1886   1.733   1.051   4.521
  480SOL    HW2 1887   1.743   1.077   4.682
  481SOL     OW 1888   1.227   1.550   5.230
  481SOL    HW1 1889   1.233   1.473   5.294
  481SOL    HW2 1890   1.175   1.524   5.150
  482SOL     OW 1891   0.321   0.943   3.966
  482SOL    HW1 1892   0.403   0.982   3.924
  482SOL    HW2 1893   0.294   0.861   3.917
  483SOL     OW 1894   1.458   0.735   4.452
  483SOL    HW1 1895   1.453   0.670   4.527
  483SOL    HW2 1896   1.538   0.794   4.465
  484SOL     OW 1897   0.461   1.266   5.451
  484SOL    HW1 1898   0.411   1.267   5.365
  484SOL    HW2 1899   0.398   1.248   5.527
  485SOL     OW 1900   1.111   1.776   3.961
  485SOL    HW1 1901   1.051   1.714   4.011
  485SOL    HW2 1902   1.142   1.732   3.876
  486SOL     OW 1903   0.202   0.285   5.222
  486SOL    HW1 1904   0.122   0.345   5.209
  486SOL    HW2 1905   0.192   0.236   5.308
  487SOL     OW 1906   1.632   1.377   3.805
  487SOL    HW1 1907   1.600   1.471   3.795
  487SOL    HW2 1908   1.556   1.314   3.793
  488SOL     OW 1909   0.464   1.743   4.047
  488SOL    HW1 1910   0.497   1.782   4.133
  488SOL    HW2 1911   0.540   1.736   3.982
  489SOL     OW 1912   1.400   0.107   4.150
  489SOL    HW1 1913   1.376   0.070   4.060
  489SOL    HW2 1914   1.499   0.123   4.154
  490SOL     OW 1915   0.249   1.785   4.965
  490SOL    HW1 1916   0.306   1.720   5.015
  490SOL    HW2 1917   0.233   1.752   4.872
  491SOL     OW 1918   0.940   1.698   4.628
  491SOL    HW1 1919   1.020   1.641   4.649
  491SOL    HW2 1920   0.891   1.658   4.551
  492SOL     OW 1921   0.382   0.700   4.204
  492SOL    HW1 1922   0.427   0.610   4.201
  492SOL    HW2 1923   0.288   0.689   4.237
  493SOL     OW 1924   1.547   0.222   5.453
  493SOL    HW1 1925   1.542   0.259   5.545
  493SOL    HW2 1926   1.475   0.153   5.441
  494SOL     OW 1927   0.614   0.122   3.841
  494SOL    HW1 1928   0.712   0.100   3.848
  494SOL    HW2 1929   0.583   0.105   3.748
  495SOL     OW 1930   0.781   0.264   5.473
  495SOL    HW1 1931   0.848   0.203   5.516
  495SOL    HW2 1932   0.708   0.283   5.538
  496SOL     OW 1933   0.888   1.514   4.919
  496SOL    HW1 1934   0.865   1.489   4.825
  496SOL    HW2 1935   0.949   1.445   4.958
  497SOL     OW 1936   1.351   0.590   5.157
  497SOL    HW1 1937   1.379   0.547   5.242
  497SOL    HW2 1938   1.376   0.686   5.158
  498SOL     OW 1939   0.803   1.402   4.648
  498SOL    HW1 1940   0.893   1.416   4.606
  498SOL    HW2 1941   0.732   1.404   4.577
  499SOL     OW 1942   0.922   0.503   4.623
  499SOL    HW1 1943   0.897   0.494   4.527
  499SOL    HW2 1944   0.970   0.421   4.654
  500SOL     OW 1945   0.539   0.064   4.236
  500SOL    HW1 1946   0.458   0.065   4.294
  500SOL    HW2 1947   0.542   0.147   4.181
  501SOL     OW 1948   1.434   1.188   3.765
  501SOL    HW1 1949   1.466   1.112   3.822
  501SOL    HW2 1950   1.342   1.215   3.795
  502SOL     OW 1951   0.297   0.035   3.895
  502SOL    HW1 1952   0.346   0.119   3.874
  502SOL    HW2 1953   0.359  -0.030   3.940
  503SOL     OW 1954   0.935   0.236   4.204
  503SOL    HW1 1955   0.887   0.277   4.126
  503SOL    HW2 1956   1.034   0.234   4.185
  504SOL     OW 1957   1.076   0.683   5.188
  504SOL    HW1 1958   0.996   0.622   5.191
  504SOL    HW2 1959   1.157   0.630   5.164
  505SOL     OW 1960   1.227   1.570   4.517
  505SOL    HW1 1961   1.248   1.644   4.452
  505SOL    HW2 1962   1.295   1.570   4.590
  506SOL     OW 1963   0.459   1.152   4.465
  506SOL    HW1 1964   0.388   1.125   4.530
  506SOL    HW2 1965   0.433   1.124   4.372
  507SOL     OW 1966   1.271   1.797   4.315
  507SOL    HW1 1967   1.315   1.861   4.251
  507SOL    HW2 1968   1.221   1.849   4.385
  508SOL     OW 1969   1.032   0.549   3.740
  508SOL    HW1 1970   0.991   0.631   3.701
  508SOL    HW2 1971   1.096   0.575   3.813
  509SOL     OW 1972   0.078   0.556   5.110
  509SOL    HW1 1973   0.170   0.555   5.069
  509SOL    HW2 1974   0.072   0.630   5.177
  510SOL     OW 1975   0.561   0.222   4.871
  510SOL    HW1 1976   0.599   0.138   4.908
  510SOL    HW2 1977   0.473   0.241   4.915
  511SOL     OW 1978   0.866   0.454   4.366
  511SOL    HW1 1979   0.834   0.526   4.304
  511SOL    HW2 1980   0.890   0.373   4.313
  512SOL     OW 1981   1.017   0.039   4.477
  512SOL    HW1 1982   0.945   0.044   4.408
  512SOL    HW2 1983   0.993  -0.030   4.546
  513SOL     OW 1984   1.429   1.173   4.591
  513SOL    HW1 1985   1.374   1.089   4.584
  513SOL    HW2 1986   1.455   1.202   4.499
  514SOL     OW 1987   1.466   0.590   4.716
  514SOL    HW1 1988   1.436   0.495   4.723
  514SOL    HW2 1989   1.539   0.606   4.782
  515SOL     OW 1990   1.857   0.833   4.101
  515SOL    HW1 1991   1.899   0.769   4.165
  515SOL    HW2 1992   1.819   0.782   4.023
  516SOL     OW 1993   0.488   1.385   3.898
  516SOL    HW1 1994   0.401   1.370   3.945
  516SOL    HW2 1995   0.471   1.411   3.803
  517SOL     OW 1996   1.664   1.280   4.381
  517SOL    HW1 1997   1.763   1.288   4.395
  517SOL    HW2 1998   1.619   1.364   4.412
  518SOL     OW 1999   1.390   0.575   3.802
  518SOL    HW1 2000   1.336   0.554   3.883
  518SOL    HW2 2001   1.481   0.534   3.811
  519SOL     OW 2002   0.527   0.256   4.052
  519SOL    HW1 2003   0.554   0.197   3.977
  519SOL    HW2 2004   0.527   0.351   4.021
  520SOL     OW 2005   1.754   1.223   5.312
  520SOL    HW1 2006   1.845   1.184   5.299
  520SOL    HW2 2007   1.762   1.319   5.336
  521SOL     OW 2008   1.064   1.347   5.064
  521SOL    HW1 2009   0.984   1.324   5.119
  521SOL    HW2 2010   1.147   1.321   5.113
  522SOL     OW 2011   1.592   1.629   5.349
  522SOL    HW1 2012   1.619   1.663   5.259
  522SOL    HW2 2013   1.671   1.591   5.395
  523SOL     OW 2014   1.111   1.195   4.824
  523SOL    HW1 2015   1.071   1.239   4.905
  523SOL    HW2 2016   1.070   1.232   4.741
  524SOL     OW 2017   1.638   1.099   4.803
  524SOL    HW1 2018   1.643   1.180   4.862
  524SOL    HW2 2019   1.552   1.101   4.752
  525SOL     OW 2020   0.915   0.089   5.126
  525SOL    HW1 2021   0.940   0.069   5.031
  525SOL    HW2 2022   0.987   0.145   5.168
  526SOL     OW 2023   0.980   1.116   5.443
  526SOL    HW1 2024   0.881   1.122   5.453
  526SOL    HW2 2025   1.003   1.036   5.387
  527SOL     OW 2026   0.705   1.050   4.092
  527SOL    HW1 2027   0.691   1.057   4.191
  527SOL    HW2 2028   0.789   0.999   4.074
  528SOL     OW 2029   0.410   0.813   4.975
  528SOL    HW1 2030   0.496   0.825   5.025
  528SOL    HW2 2031   0.368   0.726   5.002
  529SOL     OW 2032   1.274   0.386   4.986
  529SOL    HW1 2033   1.295   0.460   5.050
  529SOL    HW2 2034   1.185   0.403   4.943
  530SOL     OW 2035   0.064   1.564   5.055
  530SOL    HW1 2036   0.018   1.646   5.021
  530SOL    HW2 2037   0.162   1.583   5.064
  531SOL     OW 2038   0.367   1.100   4.225
  531SOL    HW1 2039   0.360   1.183   4.169
  531SOL    HW2 2040   0.371   1.020   4.165
  532SOL     OW 2041   0.566   0.537   4.589
  532SOL    HW1 2042   0.578   0.603   4.515
  532SOL    HW2 2043   0.612   0.571   4.672
  533SOL     OW 2044   1.252   1.348   4.112
  533SOL    HW1 2045   1.302   1.425   4.152
  533SOL    HW2 2046   1.157   1.350   4.144
  534SOL     OW 2047   1.272   1.445   4.866
  534SOL    HW1 2048   1.319   1.458   4.953
  534SOL    HW2 2049   1.206   1.371   4.875
  535SOL     OW 2050   1.582   0.639   4.196
  535SOL    HW1 2051   1.551   0.700   4.269
  535SOL    HW2 2052   1.632   0.691   4.127
  536SOL     OW 2053   0.354   1.510   5.053
  536SOL    HW1 2054   0.333   1.466   4.966
  536SOL    HW2 2055   0.451   1.536   5.056
  537SOL     OW 2056   0.402   0.751   5.322
  537SOL    HW1 2057   0.470   0.806   5.275
  537SOL    HW2 2058   0.442   0.663   5.349
  538SOL     OW 2059   1.587   0.779   5.394
  538SOL    HW1 2060   1.495   0.817   5.389
  538SOL    HW2 2061   1.647   0.826   5.329
  539SOL     OW 2062   1.013   0.105   5.494
  539SOL    HW1 2063   1.019   0.190   5.442
  539SOL    HW2 2064   1.045   0.029   5.437
  540SOL     OW 2065   0.504   0.050   5.464
  540SOL    HW1 2066   0.462  -0.007   5.394
  540SOL    HW2 2067   0.438   0.119   5.496
  541SOL     OW 2068   0.573   0.870   4.753
  541SOL    HW1 2069   0.617   0.959   4.744
  541SOL    HW2 2070   0.510   0.870   4.830
  542SOL     OW 2071   1.360   0.862   4.769
  542SOL    HW1 2072   1.285   0.862   4.703
  542SOL    HW2 2073   1.397   0.770   4.778
  543SOL     OW 2074   1.209   0.525   3.999
  543SOL    HW1 2075   1.222   0.441   4.053
  543SOL    HW2 2076   1.180   0.599   4.059
  544SOL     OW 2077   0.307   0.213   4.955
  544SOL    HW1 2078   0.284   0.250   5.045
  544SOL    HW2 2079   0.277   0.118   4.949
  545SOL     OW 2080   0.037   1.310   5.006
  545SOL    HW1 2081   0.090   1.261   5.074
  545SOL    HW2 2082   0.059   1.408   5.011
  546SOL     OW 2083   0.732   0.634   4.788
  546SOL    HW1 2084   0.791   0.608   4.712
  546SOL    HW2 2085   0.704   0.730   4.777
  547SOL     OW 2086   1.728   0.935   5.578
  547SOL    HW1 2087   1.682   0.928   5.489
  547SOL    HW2 2088   1.666   0.979   5.644
  548SOL     OW 2089   0.307   0.063   4.342
  548SOL    HW1 2090   0.296   0.157   4.375
  548SOL    HW2 2091   0.302   0.000   4.419
  549SOL     OW 2092   1.622   0.367   4.098
  549SOL    HW1 2093   1.624   0.291   4.162
  549SOL    HW2 2094   1.574   0.444   4.138
  550SOL     OW 2095   1.023   0.766   4.690
  550SOL    HW1 2096   1.038   0.787   4.786
  550SOL    HW2 2097   0.993   0.671   4.681
  551SOL     OW 2098   0.980   1.573   5.424
  551SOL    HW1 2099   0.960   1.617   5.336
  551SOL    HW2 2100   1.019   1.482   5.408
  552SOL     OW 2101   1.859   1.518   5.329
  552SOL    HW1 2102   1.873   1.545   5.234
  552SOL    HW2 2103   1.942   1.540   5.382
  553SOL     OW 2104   0.350   0.898   5.528
  553SOL    HW1 2105   0.426   0.942   5.576
  553SOL    HW2 2106   0.385   0.851   5.446
  554SOL     OW 2107   1.540   0.274   3.849
  554SOL    HW1 2108   1.479   0.199   3.872
  554SOL    HW2 2109   1.562   0.326   3.932
  555SOL     OW 2110   1.303   0.838   3.766
  555SOL    HW1 2111   1.337   0.745   3.781
  555SOL    HW2 2112   1.321   0.865   3.671
  556SOL     OW 2113   1.068   1.333   4.573
  556SOL    HW1 2114   1.075   1.249   4.518
  556SOL    HW2 2115   1.130   1.402   4.537
  557SOL     OW 2116   0.319   0.810   4.673
  557SOL    HW1 2117   0.412   0.846   4.678
  557SOL    HW2 2118   0.313   0.725   4.725
  558SOL     OW 2119   0.339   0.509   4.730
  558SOL    HW1 2120   0.287   0.426   4.713
  558SOL    HW2 2121   0.416   0.514   4.666
  559SOL     OW 2122   1.138   0.380   5.402
  559SOL    HW1 2123   1.093   0.443   5.466
  559SOL    HW2 2124   1.231   0.411   5.385
  560SOL     OW 2125   1.160   0.207   5.201
  560SOL    HW1 2126   1.160   0.271   5.278
  560SOL    HW2 2127   1.188   0.255   5.118
  561SOL     OW 2128   0.008   1.326   3.924
  561SOL    HW1 2129  -0.085   1.347   3.893
  561SOL    HW2 2130   0.018   1.227   3.937
  562SOL     OW 2131   0.088   1.801   4.651
  562SOL    HW1 2132   0.046   1.715   4.624
  562SOL    HW2 2133   0.182   1.804   4.617
  563SOL     OW 2134   0.504   1.568   4.634
  563SOL    HW1 2135   0.570   1.642   4.643
  563SOL    HW2 2136   0.548   1.489   4.592
  564SOL     OW 2137   1.002   0.796   4.962
  564SOL    HW1 2138   1.043   0.764   5.048
  564SOL    HW2 2139   0.906   0.769   4.959
  565SOL     OW 2140   0.040   0.544   4.838
  565SOL    HW1 2141   0.125   0.511   4.797
  565SOL    HW2 2142   0.053   0.559   4.936
  566SOL     OW 2143   0.189   0.520   5.446
  566SOL    HW1 2144   0.248   0.480   5.376
  566SOL    HW2 2145   0.131   0.591   5.405
  567SOL     OW 2146   1.369   0.950   5.384
  567SOL    HW1 2147   1.408   1.039   5.404
  567SOL    HW2 2148   1.379   0.930   5.287
  568SOL     OW 2149   0.815   0.572   4.049
  568SOL    HW1 2150   0.822   0.483   4.003
  568SOL    HW2 2151   0.721   0.606   4.041
  569SOL     OW 2152   1.657   0.604   4.930
  569SOL    HW1 2153   1.619   0.535   4.992
  569SOL    HW2 2154   1.739   0.568   4.886
  570SOL     OW 2155   0.252   1.564   5.468
  570SOL    HW1 2156   0.222   1.621   5.544
  570SOL    HW2 2157   0.245   1.467   5.494
  571SOL     OW 2158   0.671   0.464   4.993
  571SOL    HW1 2159   0.637   0.375   4.963
  571SOL    HW2 2160   0.697   0.518   4.913
  572SOL     OW 2161   0.930   1.678   5.189
  572SOL    HW1 2162   0.906   1.660   5.094
  572SOL    HW2 2163   0.960   1.772   5.199
  573SOL     OW 2164   0.473   0.500   3.915
  573SOL    HW1 2165   0.534   0.580   3.919
  573SOL    HW2 2166   0.378   0.531   3.922
  574SOL     OW 2167   0.159   1.137   5.190
  574SOL    HW1 2168   0.181   1.076   5.266
  574SOL    HW2 2169   0.169   1.088   5.104
  575SOL     OW 2170   1.347   1.059   4.958
  575SOL    HW1 2171   1.371   0.996   4.884
  575SOL    HW2 2172   1.257   1.099   4.940
  576SOL     OW 2173   1.302   0.855   4.033
  576SOL    HW1 2174   1.216   0.824   4.075
  576SOL    HW2 2175   1.298   0.841   3.934
  577SOL     OW 2176   1.759   1.747   4.878
  577SOL    HW1 2177   1.820   1.777   4.805
  577SOL    HW2 2178   1.721   1.658   4.856
  578SOL     OW 2179   1.252   1.731   4.852
  578SOL    HW1 2180   1.336   1.736   4.798
  578SOL    HW2 2181   1.229   1.635   4.870
  579SOL     OW 2182   0.083   1.258   4.746
  579SOL    HW1 2183   0.078   1.257   4.846
  579SOL    HW2 2184   0.000   1.217   4.708
  580SOL     OW 2185   0.688   1.662   5.440
  580SOL    HW1 2186   0.632   1.743   5.449
  580SOL    HW2 2187   0.740   1.666   5.354
  581SOL     OW 2188   1.726   0.135   4.247
  581SOL    HW1 2189   1.799   0.118   4.180
  581SOL    HW2 2190   1.695   0.048   4.285
  582SOL     OW 2191   1.388   1.573   4.201
  582SOL    HW1 2192   1.455   1.585   4.127
  582SOL    HW2 2193   1.348   1.662   4.224
  583SOL     OW 2194   0.130   1.794   5.575
  583SOL    HW1 2195   0.089   1.720   5.628
  583SOL    HW2 2196   0.194   1.845   5.633
  584SOL     OW 2197   1.280   0.927   4.396
  584SOL    HW1 2198   1.340   0.846   4.398
  584SOL    HW2 2199   1.320   0.996   4.336
  585SOL     OW 2200   0.830   1.273   5.146
  585SOL    HW1 2201   0.825   1.306   5.241
  585SOL    HW2 2202   0.744   1.292   5.100
  586SOL     OW 2203   0.672   1.616   3.878
  586SOL    HW1 2204   0.681   1.626   3.779
  586SOL    HW2 2205   0.632   1.527   3.899
  587SOL     OW 2206   1.650   1.720   5.118
  587SOL    HW1 2207   1.703   1.730   5.034
  587SOL    HW2 2208   1.623   1.810   5.152
  588SOL     OW 2209   1.841   0.175   4.687
  588SOL    HW1 2210   1.880   0.090   4.651
  588SOL    HW2 2211   1.743   0.177   4.668
  589SOL     OW 2212   0.263   0.326   4.444
  589SOL    HW1 2213   0.184   0.377   4.410
  589SOL    HW2 2214   0.254   0.311   4.542
  590SOL     OW 2215   1.194   1.612   3.755
  590SOL    HW1 2216   1.200   1.519   3.792
  590SOL    HW2 2217   1.135   1.612   3.675
  591SOL     OW 2218   0.822   1.002   5.096
  591SOL    HW1 2219   0.862   1.001   5.004
  591SOL    HW2 2220   0.832   1.094   5.136
  592SOL     OW 2221   0.916   0.910   4.015
  592SOL    HW1 2222   0.979   0.948   3.947
  592SOL    HW2 2223   0.956   0.827   4.054
  593SOL     OW 2224   1.504   1.607   3.768
  593SOL    HW1 2225   1.412   1.644   3.775
  593SOL    HW2 2226   1.542   1.627   3.678
  594SOL     OW 2227   0.372   1.288   5.214
  594SOL    HW1 2228   0.359   1.381   5.180
  594SOL    HW2 2229   0.288   1.236   5.201
  595SOL     OW 2230   1.614   1.292   5.013
  595SOL    HW1 2231   1.674   1.295   5.093
  595SOL    HW2 2232   1.539   1.356   5.026
  596SOL     OW 2233   1.039   1.098   4.420
  596SOL    HW1 2234   0.969   1.051   4.474
  596SOL    HW2 2235   1.098   1.030   4.377
  597SOL     OW 2236   1.014   0.236   4.695
  597SOL    HW1 2237   1.006   0.200   4.602
  597SOL    HW2 2238   1.012   0.160   4.760
  598SOL     OW 2239   0.590   1.487   4.215
  598SOL    HW1 2240   0.632   1.429   4.145
  598SOL    HW2 2241   0.546   1.566   4.171
  599SOL     OW 2242   1.709   0.385   5.105
  599SOL    HW1 2243   1.782   0.454   5.109
  599SOL    HW2 2244   1.737   0.310   5.046
  600SOL     OW 2245   0.255   1.348   4.014
  600SOL    HW1 2246   0.159   1.349   3.987
  600SOL    HW2 2247   0.267   1.401   4.098
  601SOL     OW 2248   0.105   1.013   5.450
  601SOL    HW1 2249   0.028   0.980   5.504
  601SOL    HW2 2250   0.190   0.983   5.492
  602SOL     OW 2251   0.672   0.203   5.213
  602SOL    HW1 2252   0.762   0.187   5.173
  602SOL    HW2 2253   0.680   0.208   5.312
  603SOL     OW 2254   0.075   0.345   3.757
  603SOL    HW1 2255  -0.017   0.317   3.728
  603SOL    HW2 2256   0.106   0.422   3.701
  604SOL     OW 2257   1.440   0.856   5.122
  604SOL    HW1 2258   1.383   0.908   5.059
  604SOL    HW2 2259   1.536   0.868   5.098
  605SOL     OW 2260   0.072   0.166   4.042
  605SOL    HW1 2261   0.055   0.249   3.988
  605SOL    HW2 2262   0.162   0.129   4.020
  606SOL     OW 2263   1.183   1.335   3.843
  606SOL    HW1 2264   1.084   1.324   3.845
  606SOL    HW2 2265   1.217   1.350   3.936
  607SOL     OW 2266   0.613   0.842   5.155
  607SOL    HW1 2267   0.669   0.923   5.138
  607SOL    HW2 2268   0.672   0.762   5.158
  608SOL     OW 2269   1.493   1.767   4.683
  608SOL    HW1 2270   1.526   1.831   4.614
  608SOL    HW2 2271   1.559   1.761   4.758
  609SOL     OW 2272   0.716   0.565   5.432
  609SOL    HW1 2273   0.735   0.630   5.506
  609SOL    HW2 2274   0.776   0.485   5.441
  610SOL     OW 2275   1.450   1.220   5.357
  610SOL    HW1 2276   1.441   1.210   5.456
  610SOL    HW2 2277   1.546   1.213   5.331
  611SOL     OW 2278   0.390   1.741   5.284
  611SOL    HW1 2279   0.299   1.782   5.282
  611SOL    HW2 2280   0.383   1.647   5.316
  612SOL     OW 2281   1.674   0.883   4.978
  612SOL    HW1 2282   1.647   0.794   4.941
  612SOL    HW2 2283   1.675   0.951   4.905
  613SOL     OW 2284   1.225   0.325   4.173
  613SOL    HW1 2285   1.290   0.251   4.162
  613SOL    HW2 2286   1.245   0.375   4.257
  614SOL     OW 2287   0.594   0.745   4.376
  614SOL    HW1 2288   0.644   0.830   4.357
  614SOL    HW2 2289   0.506   0.747   4.328
  615SOL     OW 2290   1.777   0.342   5.366
  615SOL    HW1 2291   1.760   0.373   5.272
  615SOL    HW2 2292   1.693   0.305   5.404
  616SOL     OW 2293   1.730   0.934   5.241
  616SOL    HW1 2294   1.768   1.025   5.256
  616SOL    HW2 2295   1.722   0.917   5.142
  617SOL     OW 2296   0.859   1.374   3.740
  617SOL    HW1 2297   0.813   1.389   3.828
  617SOL    HW2 2298   0.903   1.459   3.710
  618SOL     OW 2299   0.661   1.790   4.677
  618SOL    HW1 2300   0.615   1.878   4.664
  618SOL    HW2 2301   0.760   1.802   4.670
  619SOL     OW 2302   0.859   0.956   4.585
  619SOL    HW1 2303   0.913   0.887   4.633
  619SOL    HW2 2304   0.827   1.025   4.651
  620SOL     OW 2305   1.083   0.984   3.811
  620SOL    HW1 2306   1.060   1.037   3.729
  620SOL    HW2 2307   1.164   0.928   3.792
  621SOL     OW 2308   1.861   1.569   4.575
  621SOL    HW1 2309   1.790   1.557   4.505
  621SOL    HW2 2310   1.862   1.490   4.635
  622SOL     OW 2311   0.221   1.314   5.568
  622SOL    HW1 2312   0.156   1.241   5.547
  622SOL    HW2 2313   0.225   1.328   5.666
  623SOL     OW 2314   0.079   1.240   4.377
  623SOL    HW1 2315   0.078   1.193   4.465
  623SOL    HW2 2316   0.161   1.212   4.326
  624SOL     OW 2317   0.672   1.391   5.348
  624SOL    HW1 2318   0.594   1.341   5.386
  624SOL    HW2 2319   0.669   1.486   5.379
  625SOL     OW 2320   1.824   0.192   4.951
  625SOL    HW1 2321   1.820   0.102   4.995
  625SOL    HW2 2322   1.827   0.181   4.852
  626SOL     OW 2323   0.428   0.424   4.244
  626SOL    HW1 2324   0.458   0.352   4.182
  626SOL    HW2 2325   0.389   0.384   4.327
  627SOL     OW 2326   1.705   1.487   4.828
  627SOL    HW1 2327   1.612   1.462   4.801
  627SOL    HW2 2328   1.731   1.437   4.910
  628SOL     OW 2329   0.317   0.547   5.004
  628SOL    HW1 2330   0.355   0.488   5.076
  628SOL    HW2 2331   0.357   0.521   4.916
  629SOL     OW 2332   0.812   1.586   4.411
  629SOL    HW1 2333   0.844   1.596   4.317
  629SOL    HW2 2334   0.733   1.524   4.413
  630SOL     OW 2335   1.424   0.214   4.836
  630SOL    HW1 2336   1.476   0.149   4.891
  630SOL    HW2 2337   1.375   0.277   4.897
  631SOL     OW 2338   1.001   0.034   4.878
  631SOL    HW1 2339   0.938  -0.038   4.847
  631SOL    HW2 2340   1.094  -0.002   4.878
  632SOL     OW 2341   0.770   1.330   4.025
  632SOL    HW1 2342   0.724   1.243   4.042
  632SOL    HW2 2343   0.861   1.327   4.066
  633SOL     OW 2344   0.618   1.567   5.008
  633SOL    HW1 2345   0.613   1.649   5.065
  633SOL    HW2 2346   0.707   1.564   4.963
  634SOL     OW 2347   1.352   0.052   3.892
  634SOL    HW1 2348   1.387   0.011   3.808
  634SOL    HW2 2349   1.262   0.014   3.912
  635SOL     OW 2350   1.300   0.453   4.415
  635SOL    HW1 2351   1.241   0.533   4.419
  635SOL    HW2 2352   1.315   0.418   4.508
  636SOL     OW 2353   1.593   0.221   4.606
  636SOL    HW1 2354   1.509   0.220   4.660
  636SOL    HW2 2355   1.595   0.304   4.550
  637SOL     OW 2356   0.039   1.077   4.024
  637SOL    HW1 2357   0.138   1.066   4.015
  637SOL    HW2 2358  -0.001   0.991   4.056
  638SOL     OW 2359   0.875   1.646   4.061
  638SOL    HW1 2360   0.798   1.611   4.007
  638SOL    HW2 2361   0.843   1.717   4.123
  639SOL     OW 2362   0.230   0.628   5.699
  639SOL    HW1 2363   0.137   0.626   5.736
  639SOL    HW2 2364   0.231   0.589   5.607
  640SOL     OW 2365   0.225   0.275   6.582
  640SOL    HW1 2366   0.260   0.258   6.674
  640SOL    HW2 2367   0.137   0.230   6.570
  641SOL     OW 2368   0.019   0.368   6.233
  641SOL    HW1 2369  -0.063   0.411   6.272
  641SOL    HW2 2370  -0.009   0.295   6.170
  642SOL     OW 2371   0.569   1.275   6.751
  642SOL    HW1 2372   0.476   1.268   6.714
  642SOL    HW2 2373   0.580   1.364   6.795
  643SOL     OW 2374   1.555   1.511   6.289
  643SOL    HW1 2375   1.498   1.495   6.370
  643SOL    HW2 2376   1.496   1.521   6.209
  644SOL     OW 2377   1.135   0.703   6.303
  644SOL    HW1 2378   1.192   0.781   6.278
  644SOL    HW2 2379   1.075   0.729   6.379
  645SOL     OW 2380   1.755   0.607   5.817
  645SOL    HW1 2381   1.743   0.594   5.718
  645SOL    HW2 2382   1.725   0.526   5.866
  646SOL     OW 2383   0.768   1.144   6.609
  646SOL    HW1 2384   0.690   1.161   6.669
  646SOL    HW2 2385   0.802   1.231   6.573
  647SOL     OW 2386   0.850   0.798   7.409
  647SOL    HW1 2387   0.846   0.874   7.474
  647SOL    HW2 2388   0.872   0.834   7.318
  648SOL     OW 2389   0.685   1.012   6.251
  648SOL    HW1 2390   0.754   0.996   6.321
  648SOL    HW2 2391   0.612   1.069   6.289
  649SOL     OW 2392   0.686   1.161   7.389
  649SOL    HW1 2393   0.746   1.240   7.403
  649SOL    HW2 2394   0.600   1.192   7.348
  650SOL     OW 2395   0.335   1.435   6.647
  650SOL    HW1 2396   0.257   1.404   6.594
  650SOL    HW2 2397   0.393   1.493   6.590
  651SOL     OW 2398   1.460   1.505   6.925
  651SOL    HW1 2399   1.484   1.599   6.951
  651SOL    HW2 2400   1.444   1.451   7.007
  652SOL     OW 2401   0.438   0.392   7.085
  652SOL    HW1 2402   0.520   0.336   7.094
  652SOL    HW2 2403   0.357   0.334   7.089
  653SOL     OW 2404   1.603   0.447   6.323
  653SOL    HW1 2405   1.529   0.493   6.273
  653SOL    HW2 2406   1.654   0.515   6.376
  654SOL     OW 2407   0.231   1.713   6.069
  654SOL    HW1 2408   0.265   1.790   6.123
  654SOL    HW2 2409   0.275   1.713   5.979
  655SOL     OW 2410   1.127   1.341   7.276
  655SOL    HW1 2411   1.174   1.341   7.364
  655SOL    HW2 2412   1.079   1.254   7.265
  656SOL     OW 2413   0.230   1.434   6.124
  656SOL    HW1 2414   0.204   1.530   6.124
  656SOL    HW2 2415   0.159   1.380   6.169
  657SOL     OW 2416   0.240   1.091   6.472
  657SOL    HW1 2417   0.254   1.007   6.524
  657SOL    HW2 2418   0.185   1.155   6.527
  658SOL     OW 2419   0.620   1.786   7.025
  658SOL    HW1 2420   0.528   1.769   7.060
  658SOL    HW2 2421   0.648   1.878   7.051
  659SOL     OW 2422   0.606   0.964   5.709
  659SOL    HW1 2423   0.613   1.048   5.655
  659SOL    HW2 2424   0.652   0.977   5.797
  660SOL     OW 2425   1.594   0.114   7.066
  660SOL    HW1 2426   1.576   0.181   6.994
  660SOL    HW2 2427   1.591   0.160   7.155
  661SOL     OW 2428   0.122   0.643   6.149
  661SOL    HW1 2429   0.077   0.555   6.166
  661SOL    HW2 2430   0.121   0.697   6.233
  662SOL     OW 2431   1.842   1.767   5.945
  662SOL    HW1 2432   1.896   1.738   6.025
  662SOL    HW2 2433   1.872   1.857   5.916
  663SOL     OW 2434   0.027   1.596   5.703
  663SOL    HW1 2435   0.008   1.500   5.724
  663SOL    HW2 2436  -0.006   1.654   5.778
  664SOL     OW 2437   1.689   0.922   6.198
  664SOL    HW1 2438   1.784   0.893   6.206
  664SOL    HW2 2439   1.681   0.987   6.123
  665SOL     OW 2440   1.641   1.108   6.018
  665SOL    HW1 2441   1.727   1.110   5.966
  665SOL    HW2 2442   1.655   1.155   6.106
  666SOL     OW 2443   0.113   0.737   7.183
  666SOL    HW1 2444   0.201   0.724   7.228
  666SOL    HW2 2445   0.100   0.834   7.161
  667SOL     OW 2446   0.613   1.365   6.312
  667SOL    HW1 2447   0.564   1.278   6.321
  667SOL    HW2 2448   0.590   1.408   6.225
  668SOL     OW 2449   1.293   1.228   7.009
  668SOL    HW1 2450   1.330   1.155   6.951
  668SOL    HW2 2451   1.345   1.233   7.094
  669SOL     OW 2452   0.809   0.004   6.088
  669SOL    HW1 2453   0.849   0.095   6.079
  669SOL    HW2 2454   0.709   0.012   6.094
  670SOL     OW 2455   0.197   0.976   6.850
  670SOL    HW1 2456   0.286   0.931   6.836
  670SOL    HW2 2457   0.124   0.911   6.831
  671SOL     OW 2458   1.525   0.999   5.776
  671SOL    HW1 2459   1.462   0.923   5.789
  671SOL    HW2 2460   1.573   1.017   5.862
  672SOL     OW 2461   1.187   1.792   7.202
  672SOL    HW1 2462   1.211   1.852   7.126
  672SOL    HW2 2463   1.194   1.697   7.172
  673SOL     OW 2464   0.317   0.251   7.387
  673SOL    HW1 2465   0.388   0.322   7.393
  673SOL    HW2 2466   0.229   0.290   7.415
  674SOL     OW 2467   1.466   1.417   6.539
  674SOL    HW1 2468   1.407   1.423   6.619
  674SOL    HW2 2469   1.451   1.329   6.493
  675SOL     OW 2470   1.667   1.714   6.158
  675SOL    HW1 2471   1.626   1.691   6.070
  675SOL    HW2 2472   1.649   1.640   6.223
  676SOL     OW 2473   0.598   0.729   5.856
  676SOL    HW1 2474   0.622   0.798   5.788
  676SOL    HW2 2475   0.520   0.762   5.910
  677SOL     OW 2476   1.281   0.345   6.530
  677SOL    HW1 2477   1.195   0.295   6.517
  677SOL    HW2 2478   1.343   0.291   6.586
  678SOL     OW 2479   1.576   1.662   5.893
  678SOL    HW1 2480   1.665   1.708   5.896
  678SOL    HW2 2481   1.555   1.638   5.798
  679SOL     OW 2482   0.807   0.605   7.051
  679SOL    HW1 2483   0.760   0.602   7.140
  679SOL    HW2 2484   0.756   0.550   6.985
  680SOL     OW 2485   1.394   0.469   7.260
  680SOL    HW1 2486   1.374   0.512   7.348
  680SOL    HW2 2487   1.472   0.407   7.269
  681SOL     OW 2488   0.973   0.890   7.158
  681SOL    HW1 2489   1.019   0.806   7.129
  681SOL    HW2 2490   0.917   0.924   7.083
  682SOL     OW 2491   0.991   0.410   6.828
  682SOL    HW1 2492   0.914   0.444   6.882
  682SOL    HW2 2493   0.957   0.359   6.749
  683SOL     OW 2494   1.041   0.701   6.015
  683SOL    HW1 2495   1.067   0.697   6.111
  683SOL    HW2 2496   0.956   0.650   6.001
  684SOL     OW 2497   0.076   0.811   6.375
  684SOL    HW1 2498   0.175   0.799   6.384
  684SOL    HW2 2499   0.052   0.906   6.396
  685SOL     OW 2500   0.130   1.821   7.157
  685SOL    HW1 2501   0.120   1.806   7.256
  685SOL    HW2 2502   0.044   1.857   7.121
  686SOL     OW 2503   0.865   0.348   5.781
  686SOL    HW1 2504   0.924   0.411   5.732
  686SOL    HW2 2505   0.884   0.254   5.752
  687SOL     OW 2506   1.719   0.585   7.417
  687SOL    HW1 2507   1.693   0.674   7.381
  687SOL    HW2 2508   1.717   0.517   7.344
  688SOL     OW 2509   1.362   1.144   6.131
  688SOL    HW1 2510   1.445   1.115   6.083
  688SOL    HW2 2511   1.313   1.211   6.075
  689SOL     OW 2512   0.550   0.196   6.471
  689SOL    HW1 2513   0.545   0.191   6.571
  689SOL    HW2 2514   0.552   0.292   6.442
  690SOL     OW 2515   1.008   1.456   6.063
  690SOL    HW1 2516   0.962   1.528   6.011
  690SOL    HW2 2517   1.004   1.476   6.161
  691SOL     OW 2518   0.351   1.801   6.439
  691SOL    HW1 2519   0.401   1.715   6.445
  691SOL    HW2 2520   0.416   1.878   6.436
  692SOL     OW 2521   1.795   1.066   6.459
  692SOL    HW1 2522   1.733   1.051   6.383
  692SOL    HW2 2523   1.743   1.077   6.544
  693SOL     OW 2524   1.227   1.550   7.092
  693SOL    HW1 2525   1.233   1.473   7.156
  693SOL    HW2 2526   1.175   1.524   7.012
  694SOL     OW 2527   0.321   0.943   5.828
  694SOL    HW1 2528   0.403   0.982   5.786
  694SOL    HW2 2529   0.294   0.861   5.779
  695SOL     OW 2530   1.458   0.735   6.314
  695SOL    HW1 2531   1.453   0.670   6.389
  695SOL    HW2 2532   1.538   0.794   6.327
  696SOL     OW 2533   0.461   1.266   7.313
  696SOL    HW1 2534   0.411   1.267   7.227
  696SOL    HW2 2535   0.398   1.248   7.389
  697SOL     OW 2536   1.111   1.776   5.823
  697SOL    HW1 2537   1.051   1.714   5.873
  697SOL    HW2 2538   1.142   1.732   5.738
  698SOL     OW 2539   0.202   0.285   7.084
  698SOL    HW1 2540   0.122   0.345   7.071
  698SOL    HW2 2541   0.192   0.236   7.170
  699SOL     OW 2542   1.632   1.377   5.667
  699SOL    HW1 2543   1.600   1.471   5.657
  699SOL    HW2 2544   1.556   1.314   5.655
  700SOL     OW 2545   0.464   1.743   5.909
  700SOL    HW1 2546   0.497   1.782   5.995
  700SOL    HW2 2547   0.540   1.736   5.844
  701SOL     OW 2548   1.400   0.107   6.012
  701SOL    HW1 2549   1.376   0.070   5.922
  701SOL    HW2 2550   1.499   0.123   6.016
  702SOL     OW 2551   0.249   1.785   6.827
  702SOL    HW1 2552   0.306   1.720   6.877
  702SOL    HW2 2553   0.233   1.752   6.734
  703SOL     OW 2554   0.940   1.698   6.490
  703SOL    HW1 2555   1.020   1.641   6.511
  703SOL    HW2 2556   0.891   1.658   6.413
  704SOL     OW 2557   0.382   0.700   6.066
  704SOL    HW1 2558   0.427   0.610   6.063
  704SOL    HW2 2559   0.288   0.689   6.099
  705SOL     OW 2560   1.547   0.222   7.315
  705SOL    HW1 2561   1.542   0.259   7.407
  705SOL    HW2 2562   1.475   0.153   7.303
  706SOL     OW 2563   0.614   0.122   5.703
  706SOL    HW1 2564   0.712   0.100   5.710
  706SOL    HW2 2565   0.583   0.105   5.610
  707SOL     OW 2566   0.781   0.264   7.335
  707SOL    HW1 2567   0.848   0.203   7.378
  707SOL    HW2 2568   0.708   0.283   7.400
  708SOL     OW 2569   0.888   1.514   6.781
  708SOL    HW1 2570   0.865   1.489   6.687
  708SOL    HW2 2571   0.949   1.445   6.820
  709SOL     OW 2572   1.351   0.590   7.019
  709SOL    HW1 2573   1.379   0.547   7.104
  709SOL    HW2 2574   1.376   0.686   7.020
  710SOL     OW 2575   0.803   1.402   6.510
  710SOL    HW1 2576   0.893   1.416   6.468
  710SOL    HW2 2577   0.732   1.404   6.439
  711SOL     OW 2578   0.922   0.503   6.485
  711SOL    HW1 2579   0.897   0.494   6.389
  711SOL    HW2 2580   0.970   0.421   6.516
  712SOL     OW 2581   0.539   0.064   6.098
  712SOL    HW1 2582   0.458   0.065   6.156
  712SOL    HW2 2583   0.542   0.147   6.043
  713SOL     OW 2584   1.434   1.188   5.627
  713SOL    HW1 2585   1.466   1.112   5.684
  713SOL    HW2 2586   1.342   1.215   5.657
  714SOL     OW 2587   0.297   0.035   5.757
  714SOL    HW1 2588   0.346   0.119   5.736
  714SOL    HW2 2589   0.359  -0.030   5.802
  715SOL     OW 2590   0.935   0.236   6.066
  715SOL    HW1 2591   0.887   0.277   5.988
  715SOL    HW2 2592   1.034   0.234   6.047
  716SOL     OW 2593   1.076   0.683   7.050
  716SOL    HW1 2594   0.996   0.622   7.053
  716SOL    HW2 2595   1.157   0.630   7.026
  717SOL     OW 2596   1.227   1.570   6.379
  717SOL    HW1 2597   1.248   1.644   6.314
  717SOL    HW2 2598   1.295   1.570   6.452
  718SOL     OW 2599   0.459   1.152   6.327
  718SOL    HW1 2600   0.388   1.125   6.392
  718SOL    HW2 2601   0.433   1.124   6.234
  719SOL     OW 2602   1.271   1.797   6.177
  719SOL    HW1 2603   1.315   1.861   6.113
  719SOL    HW2 2604   1.221   1.849   6.247
  720SOL     OW 2605   1.032   0.549   5.602
  720SOL    HW1 2606   0.991   0.631   5.563
  720SOL    HW2 2607   1.096   0.575   5.675
  721SOL     OW 2608   0.078   0.556   6.972
  721SOL    HW1 2609   0.170   0.555   6.931
  721SOL    HW2 2610   0.072   0.630   7.039
  722SOL     OW 2611   0.561   0.222   6.733
  722SOL    HW1 2612   0.599   0.138   6.770
  722SOL    HW2 2613   0.473   0.241   6.777
  723SOL     OW 2614   0.866   0.454   6.228
  723SOL    HW1 2615   0.834   0.526   6.166
  723SOL    HW2 2616   0.890   0.373   6.175
  724SOL     OW 2617   1.017   0.039   6.339
  724SOL    HW1 2618   0.945   0.044   6.270
  724SOL    HW2 2619   0.993  -0.030   6.408
  725SOL     OW 2620   1.429   1.173   6.453
  725SOL    HW1 2621   1.374   1.089   6.446
  725SOL    HW2 2622   1.455   1.202   6.361
  726SOL     OW 2623   1.466   0.590   6.578
  726SOL    HW1 2624   1.436   0.495   6.585
  726SOL    HW2 2625   1.539   0.606   6.644
  727SOL     OW 2626   1.857   0.833   5.963
  727SOL    HW1 2627   1.899   0.769   6.027
  727SOL    HW2 2628   1.819   0.782   5.885
  728SOL     OW 2629   0.488   1.385   5.760
  728SOL    HW1 2630   0.401   1.370   5.807
  728SOL    HW2 2631   0.471   1.411   5.665
  729SOL     OW 2632   1.664   1.280   6.243
  729SOL    HW1 2633   1.763   1.288   6.257
  729SOL    HW2 2634   1.619   1.364   6.274
  730SOL     OW 2635   1.390   0.575   5.664
  730SOL    HW1 2636   1.336   0.554   5.745
  730SOL    HW2 2637   1.481   0.534   5.673
  731SOL     OW 2638   0.527   0.256   5.914
  731SOL    HW1 2639   0.554   0.197   5.839
  731SOL    HW2 2640   0.527   0.351   5.883
  732SOL     OW 2641   1.754   1.223   7.174
  732SOL    HW1 2642   1.845   1.184   7.161
  732SOL    HW2 2643   1.762   1.319   7.198
  733SOL     OW 2644   1.064   1.347   6.926
  733SOL    HW1 2645   0.984   1.324   6.981
  733SOL    HW2 2646   1.147   1.321   6.975
  734SOL     OW 2647   1.592   1.629   7.211
  734SOL    HW1 2648   1.619   1.663   7.121
  734SOL    HW2 2649   1.671   1.591   7.257
  735SOL     OW 2650   1.111   1.195   6.686
  735SOL    HW1 2651   1.071   1.239   6.767
  735SOL    HW2 2652   1.070   1.232   6.603
  736SOL     OW 2653   1.638   1.099   6.665
  736SOL    HW1 2654   1.643   1.180   6.724
  736SOL    HW2 2655   1.552   1.101   6.614
  737SOL     OW 2656   0.915   0.089   6.988
  737SOL    HW1 2657   0.940   0.069   6.893
  737SOL    HW2 2658   0.987   0.145   7.030
  738SOL     OW 2659   0.980   1.116   7.305
  738SOL    HW1 2660   0.881   1.122   7.315
  738SOL    HW2 2661   1.003   1.036   7.249
  739SOL     OW 2662   0.705   1.050   5.954
  739SOL    HW1 2663   0.691   1.057   6.053
  739SOL    HW2 2664   0.789   0.999   5.936
  740SOL     OW 2665   0.410   0.813   6.837
  740SOL    HW1 2666   0.496   0.825   6.887
  740SOL    HW2 2667   0.368   0.726   6.864
  741SOL     OW 2668   1.274   0.386   6.848
  741SOL    HW1 2669   1.295   0.460   6.912
  741SOL    HW2 2670   1.185   0.403   6.805
  742SOL     OW 2671   0.064   1.564   6.917
  742SOL    HW1 2672   0.018   1.646   6.883
  742SOL    HW2 2673   0.162   1.583   6.926
  743SOL     OW 2674   0.367   1.100   6.087
  743SOL    HW1 2675   0.360   1.183   6.031
  743SOL    HW2 2676   0.371   1.020   6.027
  744SOL     OW 2677   0.566   0.537   6.451
  744SOL    HW1 2678   0.578   0.603   6.377
  744SOL    HW2 2679   0.612   0.571   6.534
  745SOL     OW 2680   1.252   1.348   5.974
  745SOL    HW1 2681   1.302   1.425   6.014
  745SOL    HW2 2682   1.157   1.350   6.006
  746SOL     OW 2683   1.272   1.445   6.728
  746SOL    HW1 2684   1.319   1.458   6.815
  746SOL    HW2 2685   1.206   1.371   6.737
  747SOL     OW 2686   1.582   0.639   6.058
  747SOL    HW1 2687   1.551   0.700   6.131
  747SOL    HW2 2688   1.632   0.691   5.989
  748SOL     OW 2689   0.354   1.510   6.915
  748SOL    HW1 2690   0.333   1.466   6.828
  748SOL    HW2 2691   0.451   1.536   6.918
  749SOL     OW 2692   0.402   0.751   7.184
  749SOL    HW1 2693   0.470   0.806   7.137
  749SOL    HW2 2694   0.442   0.663   7.211
  750SOL     OW 2695   1.587   0.779   7.256
  750SOL    HW1 2696   1.495   0.817   7.251
  750SOL    HW2 2697   1.647   0.826   7.191
  751SOL     OW 2698   1.013   0.105   7.356
  751SOL    HW1 2699   1.019   0.190   7.304
  751SOL    HW2 2700   1.045   0.029   7.299
  752SOL     OW 2701   0.504   0.050   7.326
  752SOL    HW1 2702   0.462  -0.007   7.256
  752SOL    HW2 2703   0.438   0.119   7.358
  753SOL     OW 2704   0.573   0.870   6.615
  753SOL    HW1 2705   0.617   0.959   6.606
  753SOL    HW2 2706   0.510   0.870   6.692
  754SOL     OW 2707   1.360   0.862   6.631
  754SOL    HW1 2708   1.285   0.862   6.565
  754SOL    HW2 2709   1.397   0.770   6.640
  755SOL     OW 2710   1.209   0.525   5.861
  755SOL    HW1 2711   1.222   0.441   5.915
  755SOL    HW2 2712   1.180   0.599   5.921
  756SOL     OW 2713   0.307   0.213   6.817
  756SOL    HW1 2714   0.284   0.250   6.907
  756SOL    HW2 2715   0.277   0.118   6.811
  757SOL     OW 2716   0.037   1.310   6.868
  757SOL    HW1 2717   0.090   1.261   6.936
  757SOL    HW2 2718   0.059   1.408   6.873
  758SOL     OW 2719   0.732   0.634   6.650
  758SOL    HW1 2720   0.791   0.608   6.574
  758SOL    HW2 2721   0.704   0.730   6.639
  759SOL     OW 2722   1.728   0.935   7.440
  759SOL    HW1 2723   1.682   0.928   7.351
  759SOL    HW2 2724   1.666   0.979   7.506
  760SOL     OW 2725   0.307   0.063   6.204
  760SOL    HW1 2726   0.296   0.157   6.237
  760SOL    HW2 2727   0.302   0.000   6.281
  761SOL     OW 2728   1.622   0.367   5.960
  761SOL    HW1 2729   1.624   0.291   6.024
  761SOL    HW2 2730   1.574   0.444   6.000
  762SOL     OW 2731   1.023   0.766   6.552
  762SOL    HW1 2732   1.038   0.787   6.648
  762SOL    HW2 2733   0.993   0.671   6.543
  763SOL     OW 2734   0.980   1.573   7.286
  763SOL    HW1 2735   0.960   1.617   7.198
  763SOL    HW2 2736   1.019   1.482   7.270
  764SOL     OW 2737   1.859   1.518   7.191
  764SOL    HW1 2738   1.873   1.545   7.096
  764SOL    HW2 2739   1.942   1.540   7.244
  765SOL     OW 2740   0.350   0.898   7.390
  765SOL    HW1 2741   0.426   0.942   7.438
  765SOL    HW2 2742   0.385   0.851   7.308
  766SOL     OW 2743   1.540   0.274   5.711
  766SOL    HW1 2744   1.479   0.199   5.734
  766SOL    HW2 2745   1.562   0.326   5.794
  767SOL     OW 2746   1.303   0.838   5.628
  767SOL    HW1 2747   1.337   0.745   5.643
  767SOL    HW2 2748   1.321   0.865   5.533
  768SOL     OW 2749   1.068   1.333   6.435
  768SOL    HW1 2750   1.075   1.249   6.380
  768SOL    HW2 2751   1.130   1.402   6.399
  769SOL     OW 2752   0.319   0.810   6.535
  769SOL    HW1 2753   0.412   0.846   6.540
  769SOL    HW2 2754   0.313   0.725   6.587
  770SOL     OW 2755   0.339   0.509   6.592
  770SOL    HW1 2756   0.287   0.426   6.575
  770SOL    HW2 2757   0.416   0.514   6.528
  771SOL     OW 2758   1.138   0.380   7.264
  771SOL    HW1 2759   1.093   0.443   7.328
  771SOL    HW2 2760   1.231   0.411   7.247
  772SOL     OW 2761   1.160   0.207   7.063
  772SOL    HW1 2762   1.160   0.271   7.140
  772SOL    HW2 2763   1.188   0.255   6.980
  773SOL     OW 2764   0.008   1.326   5.786
  773SOL    HW1 2765  -0.085   1.347   5.755
  773SOL    HW2 2766   0.018   1.227   5.799
  774SOL     OW 2767   0.088   1.801   6.513
  774SOL    HW1 2768   0.046   1.715   6.486
  774SOL    HW2 2769   0.182   1.804   6.479
  775SOL     OW 2770   0.504   1.568   6.496
  775SOL    HW1 2771   0.570   1.642   6.505
  775SOL    HW2 2772   0.548   1.489   6.454
  776SOL     OW 2773   1.002   0.796   6.824
  776SOL    HW1 2774   1.043   0.764   6.910
  776SOL    HW2 2775   0.906   0.769   6.821
  777SOL     OW 2776   0.040   0.544   6.700
  777SOL    HW1 2777   0.125   0.511   6.659
  777SOL    HW2 2778   0.053   0.559   6.798
  778SOL     OW 2779   0.189   0.520   7.308
  778SOL    HW1 2780   0.248   0.480   7.238
  778SOL    HW2 2781   0.131   0.591   7.267
  779SOL     OW 2782   1.369   0.950   7.246
  779SOL    HW1 2783   1.408   1.039   7.266
  779SOL    HW2 2784   1.379   0.930   7.149
  780SOL     OW 2785   0.815   0.572   5.911
  780SOL    HW1 2786   0.822   0.483   5.865
  780SOL    HW2 2787   0.721   0.606   5.903
  781SOL     OW 2788   1.657   0.604   6.792
  781SOL    HW1 2789   1.619   0.535   6.854
  781SOL    HW2 2790   1.739   0.568   6.748
  782SOL     OW 2791   0.252   1.564   7.330
  782SOL    HW1 2792   0.222   1.621   7.406
  782SOL    HW2 2793   0.245   1.467   7.356
  783SOL     OW 2794   0.671   0.464   6.855
  783SOL    HW1 2795   0.637   0.375   6.825
  783SOL    HW2 2796   0.697   0.518   6.775
  784SOL     OW 2797   0.930   1.678   7.051
  784SOL    HW1 2798   0.906   1.660   6.956
  784SOL    HW2 2799   0.960   1.772   7.061
  785SOL     OW 2800   0.473   0.500   5.777
  785SOL    HW1 2801   0.534   0.580   5.781
  785SOL    HW2 2802   0.378   0.531   5.784
  786SOL     OW 2803   0.159   1.137   7.052
  786SOL    HW1 2804   0.181   1.076   7.128
  786SOL    HW2 2805   0.169   1.088   6.966
  787SOL     OW 2806   1.347   1.059   6.820
  787SOL    HW1 2807   1.371   0.996   6.746
  787SOL    HW2 2808   1.257   1.099   6.802
  788SOL     OW 2809   1.302   0.855   5.895
  788SOL    HW1 2810   1.216   0.824   5.937
  788SOL    HW2 2811   1.298   0.841   5.796
  789SOL     OW 2812   1.759   1.747   6.740
  789SOL    HW1 2813   1.820   1.777   6.667
  789SOL    HW2 2814   1.721   1.658   6.718
  790SOL     OW 2815   1.252   1.731   6.714
  790SOL    HW1 2816   1.336   1.736   6.660
  790SOL    HW2 2817   1.229   1.635   6.732
  791SOL     OW 2818   0.083   1.258   6.608
  791SOL    HW1 2819   0.078   1.257   6.708
  791SOL    HW2 2820   0.000   1.217   6.570
  792SOL     OW 2821   0.688   1.662   7.302
  792SOL    HW1 2822   0.632   1.743   7.311
  792SOL    HW2 2823   0.740   1.666   7.216
  793SOL     OW 2824   1.726   0.135   6.109
  793SOL    HW1 2825   1.799   0.118   6.042
  793SOL    HW2 2826   1.695   0.048   6.147
  794SOL     OW 2827   1.388   1.573   6.063
  794SOL    HW1 2828   1.455   1.585   5.989
  794SOL    HW2 2829   1.348   1.662   6.086
  795SOL     OW 2830   0.130   1.794   7.437
  795SOL    HW1 2831   0.089   1.720   7.490
  795SOL    HW2 2832   0.194   1.845   7.495
  796SOL     OW 2833   1.280   0.927   6.258
  796SOL    HW1 2834   1.340   0.846   6.260
  796SOL    HW2 2835   1.320   0.996   6.198
  797SOL     OW 2836   0.830   1.273   7.008
  797SOL    HW1 2837   0.825   1.306   7.103
  797SOL    HW2 2838   0.744   1.292   6.962
  798SOL     OW 2839   0.672   1.616   5.740
  798SOL    HW1 2840   0.681   1.626   5.641
  798SOL    HW2 2841   0.632   1.527   5.761
  799SOL     OW 2842   1.650   1.720   6.980
  799SOL    HW1 2843   1.703   1.730   6.896
  799SOL    HW2 2844   1.623   1.810   7.014
  800SOL     OW 2845   1.841   0.175   6.549
  800SOL    HW1 2846   1.880   0.090   6.513
  800SOL    HW2 2847   1.743   0.177   6.530
  801SOL     OW 2848   0.263   0.326   6.306
  801SOL    HW1 2849   0.184   0.377   6.272
  801SOL    HW2 2850   0.254   0.311   6.404
  802SOL     OW 2851   1.194   1.612   5.617
  802SOL    HW1 2852   1.200   1.519   5.654
  802SOL    HW2 2853   1.135   1.612   5.537
  803SOL     OW 2854   0.822   1.002   6.958
  803SOL    HW1 2855   0.862   1.001   6.866
  803SOL    HW2 2856   0.832   1.094   6.998
  804SOL     OW 2857   0.916   0.910   5.877
  804SOL    HW1 2858   0.979   0.948   5.809
  804SOL    HW2 2859   0.956   0.827   5.916
  805SOL     OW 2860   1.504   1.607   5.630
  805SOL    HW1 2861   1.412   1.644   5.637
  805SOL    HW2 2862   1.542   1.627   5.540
  806SOL     OW 2863   0.372   1.288   7.076
  806SOL    HW1 2864   0.359   1.381   7.042
  806SOL    HW2 2865   0.288   1.236   7.063
  807SOL     OW 2866   1.614   1.292   6.875
  807SOL    HW1 2867   1.674   1.295   6.955
  807SOL    HW2 2868   1.539   1.356   6.888
  808SOL     OW 2869   1.039   1.098   6.282
  808SOL    HW1 2870   0.969   1.051   6.336
  808SOL    HW2 2871   1.098   1.030   6.239
  809SOL     OW 2872   1.014   0.236   6.557
  809SOL    HW1 2873   1.006   0.200   6.464
  809SOL    HW2 2874   1.012   0.160   6.622
  810SOL     OW 2875   0.590   1.487   6.077
  810SOL    HW1 2876   0.632   1.429   6.007
  810SOL    HW2 2877   0.546   1.566   6.033
  811SOL     OW 2878   1.709   0.385   6.967
  811SOL    HW1 2879   1.782   0.454   6.971
  811SOL    HW2 2880   1.737   0.310   6.908
  812SOL     OW 2881   0.255   1.348   5.876
  812SOL    HW1 2882   0.159   1.349   5.849
  812SOL    HW2 2883   0.267   1.401   5.960
  813SOL     OW 2884   0.105   1.013   7.312
  813SOL    HW1 2885   0.028   0.980   7.366
  813SOL    HW2 2886   0.190   0.983   7.354
  814SOL     OW 2887   0.672   0.203   7.075
  814SOL    HW1 2888   0.762   0.187   7.035
  814SOL    HW2 2889   0.680   0.208   7.174
  815SOL     OW 2890   0.075   0.345   5.619
  815SOL    HW1 2891  -0.017   0.317   5.590
  815SOL    HW2 2892   0.106   0.422   5.563
  816SOL     OW 2893   1.440   0.856   6.984
  816SOL    HW1 2894   1.383   0.908   6.921
  816SOL    HW2 2895   1.536   0.868   6.960
  817SOL     OW 2896   0.072   0.166   5.904
  817SOL    HW1 2897   0.055   0.249   5.850
  817SOL    HW2 2898   0.162   0.129   5.882
  818SOL     OW 2899   1.183   1.335   5.705
  818SOL    HW1 2900   1.084   1.324   5.707
  818SOL    HW2 2901   1.217   1.350   5.798
  819SOL     OW 2902   0.613   0.842   7.017
  819SOL    HW1 2903   0.669   0.923   7.000
  819SOL    HW2 2904   0.672   0.762   7.020
  820SOL     OW 2905   1.493   1.767   6.545
  820SOL    HW1 2906   1.526   1.831   6.476
  820SOL    HW2 2907   1.559   1.761   6.620
  821SOL     OW 2908   0.716   0.565   7.294
  821SOL    HW1 2909   0.735   0.630   7.368
  821SOL    HW2 2910   0.776   0.485   7.303
  822SOL     OW 2911   1.450   1.220   7.219
  822SOL    HW1 2912   1.441   1.210   7.318
  822SOL    HW2 2913   1.546   1.213   7.193
  823SOL     OW 2914   0.390   1.741   7.146
  823SOL    HW1 2915   0.299   1.782   7.144
  823SOL    HW2 2916   0.383   1.647   7.178
  824SOL     OW 2917   1.674   0.883   6.840
  824SOL    HW1 2918   1.647   0.794   6.803
  824SOL    HW2 2919   1.675   0.951   6.767
  825SOL     OW 2920   1.225   0.325   6.035
  825SOL    HW1 2921   1.290   0.251   6.024
  825SOL    HW2 2922   1.245   0.375   6.119
  826SOL     OW 2923   0.594   0.745   6.238
  826SOL    HW1 2924   0.644   0.830   6.219
  826SOL    HW2 2925   0.506   0.747   6.190
  827SOL     OW 2926   1.777   0.342   7.228
  827SOL    HW1 2927   1.760   0.373   7.134
  827SOL    HW2 2928   1.693   0.305   7.266
  828SOL     OW 2929   1.730   0.934   7.103
  828SOL    HW1 2930   1.768   1.025   7.118
  828SOL    HW2 2931   1.722   0.917   7.004
  829SOL     OW 2932   0.859   1.374   5.602
  829SOL    HW1 2933   0.813   1.389   5.690
  829SOL    HW2 2934   0.903   1.459   5.572
  830SOL     OW 2935   0.661   1.790   6.539
  830SOL    HW1 2936   0.615   1.878   6.526
  830SOL    HW2 2937   0.760   1.802   6.532
  831SOL     OW 2938   0.859   0.956   6.447
  831SOL    HW1 2939   0.913   0.887   6.495
  831SOL    HW2 2940   0.827   1.025   6.513
  832SOL     OW 2941   1.083   0.984   5.673
  832SOL    HW1 2942   1.060   1.037   5.591
  832SOL    HW2 2943   1.164   0.928   5.654
  833SOL     OW 2944   1.861   1.569   6.437
  833SOL    HW1 2945   1.790   1.557   6.367
  833SOL    HW2 2946   1.862   1.490   6.497
  834SOL     OW 2947   0.221   1.314   7.430
  834SOL    HW1 2948   0.156   1.241   7.409
  834SOL    HW2 2949   0.225   1.328   7.528
  835SOL     OW 2950   0.079   1.240   6.239
  835SOL    HW1 2951   0.078   1.193   6.327
  835SOL    HW2 2952   0.161   1.212   6.188
  836SOL     OW 2953   0.672   1.391   7.210
  836SOL    HW1 2954   0.594   1.341   7.248
  836SOL    HW2 2955   0.669   1.486   7.241
  837SOL     OW 2956   1.824   0.192   6.813
  837SOL    HW1 2957   1.820   0.102   6.857
  837SOL    HW2 2958   1.827   0.181   6.714
  838SOL     OW 2959   0.428   0.424   6.106
  838SOL    HW1 2960   0.458   0.352   6.044
  838SOL    HW2 2961   0.389   0.384   6.189
  839SOL     OW 2962   1.705   1.487   6.690
  839SOL    HW1 2963   1.612   1.462   6.663
  839SOL    HW2 2964   1.731   1.437   6.772
  840SOL     OW 2965   0.317   0.547   6.866
  840SOL    HW1 2966   0.355   0.488   6.938
  840SOL    HW2 2967   0.357   0.521   6.778
  841SOL     OW 2968   0.812   1.586   6.273
  841SOL    HW1 2969   0.844   1.596   6.179
  841SOL    HW2 2970   0.733   1.524   6.275
  842SOL     OW 2971   1.424   0.214   6.698
  842SOL    HW1 2972   1.476   0.149   6.753
  842SOL    HW2 2973   1.375   0.277   6.759
  843SOL     OW 2974   1.001   0.034   6.740
  843SOL    HW1 2975   0.938  -0.038   6.709
  843SOL    HW2 2976   1.094  -0.002   6.740
  844SOL     OW 2977   0.770   1.330   5.887
  844SOL    HW1 2978   0.724   1.243   5.904
  844SOL    HW2 2979   0.861   1.327   5.928
  845SOL     OW 2980   0.618   1.567   6.870
  845SOL    HW1 2981   0.613   1.649   6.927
  845SOL    HW2 2982   0.707   1.564   6.825
  846SOL     OW 2983   1.352   0.052   5.754
  846SOL    HW1 2984   1.387   0.011   5.670
  846SOL    HW2 2985   1.262   0.014   5.774
  847SOL     OW 2986   1.300   0.453   6.277
  847SOL    HW1 2987   1.241   0.533   6.281
  847SOL    HW2 2988   1.315   0.418   6.370
  848SOL     OW 2989   1.593   0.221   6.468
  848SOL    HW1 2990   1.509   0.220   6.522
  848SOL    HW2 2991   1.595   0.304   6.412
  849SOL     OW 2992   0.039   1.077   5.886
  849SOL    HW1 2993   0.138   1.066   5.877
  849SOL    HW2 2994  -0.001   0.991   5.918
  850SOL     OW 2995   0.875   1.646   5.923
  850SOL    HW1 2996   0.798   1.611   5.869
  850SOL    HW2 2997   0.843   1.717   5.985
  851SOL     OW 2998   0.230   0.628   7.561
  851SOL    HW1 2999   0.137   0.626   7.598
  851SOL    HW2 3000   0.231   0.589   7.469
  852SOL     OW 3001   1.755   0.607   7.679
  852SOL    HW1 3002   1.743   0.594   7.580
  852SOL    HW2 3003   1.725   0.526   7.728
  853SOL     OW 3004   0.231   1.713   7.931
  853SOL    HW1 3005   0.265   1.790   7.985
  853SOL    HW2 3006   0.275   1.713   7.841
  854SOL     OW 3007   0.230   1.434   7.986
  854SOL    HW1 3008   0.204   1.530   7.986
  854SOL    HW2 3009   0.159   1.380   8.031
  855SOL     OW 3010   0.606   0.964   7.571
  855SOL    HW1 3011   0.613   1.048   7.517
  855SOL    HW2 3012   0.652   0.977   7.659
  856SOL     OW 3013   1.842   1.767   7.807
  856SOL    HW1 3014   1.896   1.738   7.887
  856SOL    HW2 3015   1.872   1.857   7.778
  857SOL     OW 3016   0.027   1.596   7.565
  857SOL    HW1 3017   0.008   1.500   7.586
  857SOL    HW2 3018  -0.006   1.654   7.640
  858SOL     OW 3019   1.689   0.922   8.060
  858SOL    HW1 3020   1.784   0.893   8.068
  858SOL    HW2 3021   1.681   0.987   7.985
  859SOL     OW 3022   1.641   1.108   7.880
  859SOL    HW1 3023   1.727   1.110   7.828
  859SOL    HW2 3024   1.655   1.155   7.968
  860SOL     OW 3025   0.809   0.004   7.950
  860SOL    HW1 3026   0.849   0.095   7.941
  860SOL    HW2 3027   0.709   0.012   7.956
  861SOL     OW 3028   1.525   0.999   7.638
  861SOL    HW1 3029   1.462   0.923   7.651
  861SOL    HW2 3030   1.573   1.017   7.724
  862SOL     OW 3031   0.598   0.729   7.718
  862SOL    HW1 3032   0.622   0.798   7.650
  862SOL    HW2 3033   0.520   0.762   7.772
  863SOL     OW 3034   1.576   1.662   7.755
  863SOL    HW1 3035   1.665   1.708   7.758
  863SOL    HW2 3036   1.555   1.638   7.660
  864SOL     OW 3037   0.076   0.811   8.237
  864SOL    HW1 3038   0.175   0.799   8.246
  864SOL    HW2 3039   0.052   0.906   8.258
  865SOL     OW 3040   0.865   0.348   7.643
  865SOL    HW1 3041   0.924   0.411   7.594
  865SOL    HW2 3042   0.884   0.254   7.614
  866SOL     OW 3043   0.321   0.943   7.690
  866SOL    HW1 3044   0.403   0.982   7.648
  866SOL    HW2 3045   0.294   0.861   7.641
  867SOL     OW 3046   1.111   1.776   7.685
  867SOL    HW1 3047   1.051   1.714   7.735
  867SOL    HW2 3048   1.142   1.732   7.600
  868SOL     OW 3049   1.632   1.377   7.529
  868SOL    HW1 3050   1.600   1.471   7.519
  868SOL    HW2 3051   1.556   1.314   7.517
  869SOL     OW 3052   0.464   1.743   7.771
  869SOL    HW1 3053   0.497   1.782   7.857
  869SOL    HW2 3054   0.540   1.736   7.706
  870SOL     OW 3055   1.400   0.107   7.874
  870SOL    HW1 3056   1.376   0.070   7.784
  870SOL    HW2 3057   1.499   0.123   7.878
  871SOL     OW 3058   0.382   0.700   7.928
  871SOL    HW1 3059   0.427   0.610   7.925
  871SOL    HW2 3060   0.288   0.689   7.961
  872SOL     OW 3061   0.614   0.122   7.565
  872SOL    HW1 3062   0.712   0.100   7.572
  872SOL    HW2 3063   0.583   0.105   7.472
  873SOL     OW 3064   0.539   0.064   7.960
  873SOL    HW1 3065   0.458   0.065   8.018
  873SOL    HW2 3066   0.542   0.147   7.905
  874SOL     OW 3067   1.434   1.188   7.489
  874SOL    HW1 3068   1.466   1.112   7.546
  874SOL    HW2 3069   1.342   1.215   7.519
  875SOL     OW 3070   0.297   0.035   7.619
  875SOL    HW1 3071   0.346   0.119   7.598
  875SOL    HW2 3072   0.359  -0.030   7.664
  876SOL     OW 3073   0.935   0.236   7.928
  876SOL    HW1 3074   0.887   0.277   7.850
  876SOL    HW2 3075   1.034   0.234   7.909
  877SOL     OW 3076   0.459   1.152   8.189
  877SOL    HW1 3077   0.388   1.125   8.254
  877SOL    HW2 3078   0.433   1.124   8.096
  878SOL     OW 3079   1.271   1.797   8.039
  878SOL    HW1 3080   1.315   1.861   7.975
  878SOL    HW2 3081   1.221   1.849   8.109
  879SOL     OW 3082   1.032   0.549   7.464
  879SOL    HW1 3083   0.991   0.631   7.425
  879SOL    HW2 3084   1.096   0.575   7.537
  880SOL     OW 3085   1.857   0.833   7.825
  880SOL    HW1 3086   1.899   0.769   7.889
  880SOL    HW2 3087   1.819   0.782   7.747
  881SOL     OW 3088   0.488   1.385   7.622
  881SOL    HW1 3089   0.401   1.370   7.669
  881SOL    HW2 3090   0.471   1.411   7.527
  882SOL     OW 3091   1.390   0.575   7.526
  882SOL    HW1 3092   1.336   0.554   7.607
  882SOL    HW2 3093   1.481   0.534   7.535
  883SOL     OW 3094   0.527   0.256   7.776
  883SOL    HW1 3095   0.554   0.197   7.701
  883SOL    HW2 3096   0.527   0.351   7.745
  884SOL     OW 3097   0.705   1.050   7.816
  884SOL    HW1 3098   0.691   1.057   7.915
  884SOL    HW2 3099   0.789   0.999   7.798
  885SOL     OW 3100   0.367   1.100   7.949
  885SOL    HW1 3101   0.360   1.183   7.893
  885SOL    HW2 3102   0.371   1.020   7.889
  886SOL     OW 3103   1.252   1.348   7.836
  886SOL    HW1 3104   1.302   1.425   7.876
  886SOL    HW2 3105   1.157   1.350   7.868
  887SOL     OW 3106   1.582   0.639   7.920
  887SOL    HW1 3107   1.551   0.700   7.993
  887SOL    HW2 3108   1.632   0.691   7.851
  888SOL     OW 3109   1.209   0.525   7.723
  888SOL    HW1 3110   1.222   0.441   7.777
  888SOL    HW2 3111   1.180   0.599   7.783
  889SOL     OW 3112   1.622   0.367   7.822
  889SOL    HW1 3113   1.624   0.291   7.886
  889SOL    HW2 3114   1.574   0.444   7.862
  890SOL     OW 3115   1.540   0.274   7.573
  890SOL    HW1 3116   1.479   0.199   7.596
  890SOL    HW2 3117   1.562   0.326   7.656
  891SOL     OW 3118   1.303   0.838   7.490
  891SOL    HW1 3119   1.337   0.745   7.505
  891SOL    HW2 3120   1.321   0.865   7.395
  892SOL     OW 3121   0.008   1.326   7.648
  892SOL    HW1 3122  -0.085   1.347   7.617
  892SOL    HW2 3123   0.018   1.227   7.661
  893SOL     OW 3124   0.815   0.572   7.773
  893SOL    HW1 3125   0.822   0.483   7.727
  893SOL    HW2 3126   0.721   0.606   7.765
  894SOL     OW 3127   0.473   0.500   7.639
  894SOL    HW1 3128   0.534   0.580   7.643
  894SOL    HW2 3129   0.378   0.531   7.646
  895SOL     OW 3130   1.302   0.855   7.757
  895SOL    HW1 3131   1.216   0.824   7.799
  895SOL    HW2 3132   1.298   0.841   7.658
  896SOL     OW 3133   1.726   0.135   7.971
  896SOL    HW1 3134   1.799   0.118   7.904
  896SOL    HW2 3135   1.695   0.048   8.009
  897SOL     OW 3136   1.388   1.573   7.925
  897SOL    HW1 3137   1.455   1.585   7.851
  897SOL    HW2 3138   1.348   1.662   7.948
  898SOL     OW 3139   0.672   1.616   7.602
  898SOL    HW1 3140   0.681   1.626   7.503
  898SOL    HW2 3141   0.632   1.527   7.623
  899SOL     OW 3142   1.194   1.612   7.479
  899SOL    HW1 3143   1.200   1.519   7.516
  899SOL    HW2 3144   1.135   1.612   7.399
  900SOL     OW 3145   0.916   0.910   7.739
  900SOL    HW1 3146   0.979   0.948   7.671
  900SOL    HW2 3147   0.956   0.827   7.778
  901SOL     OW 3148   1.504   1.607   7.492
  901SOL    HW1 3149   1.412   1.644   7.499
  901SOL    HW2 3150   1.542   1.627   7.402
  902SOL     OW 3151   0.590   1.487   7.939
  902SOL    HW1 3152   0.632   1.429   7.869
  902SOL    HW2 3153   0.546   1.566   7.895
  903SOL     OW 3154   0.255   1.348   7.738
  903SOL    HW1 3155   0.159   1.349   7.711
  903SOL    HW2 3156   0.267   1.401   7.822
  904SOL     OW 3157   0.075   0.345   7.481
  904SOL    HW1 3158  -0.017   0.317   7.452
  904SOL    HW2 3159   0.106   0.422   7.425
  905SOL     OW 3160   0.072   0.166   7.766
  905SOL    HW1 3161   0.055   0.249   7.712
  905SOL    HW2 3162   0.162   0.129   7.744
  906SOL     OW 3163   1.183   1.335   7.567
  906SOL    HW1 3164   1.084   1.324   7.569
  906SOL    HW2 3165   1.217   1.350   7.660
  907SOL     OW 3166   1.225   0.325   7.897
  907SOL    HW1 3167   1.290   0.251   7.886
  907SOL    HW2 3168   1.245   0.375   7.981
  908SOL     OW 3169   0.594   0.745   8.100
  908SOL    HW1 3170   0.644   0.830   8.081
  908SOL    HW2 3171   0.506   0.747   8.052
  909SOL     OW 3172   0.859   1.374   7.464
  909SOL    HW1 3173   0.813   1.389   7.552
  909SOL    HW2 3174   0.903   1.459   7.434
  910SOL     OW 3175   1.083   0.984   7.535
  910SOL    HW1 3176   1.060   1.037   7.453
  910SOL    HW2 3177   1.164   0.928   7.516
  911SOL     OW 3178   0.428   0.424   7.968
  911SOL    HW1 3179   0.458   0.352   7.906
  911SOL    HW2 3180   0.389   0.384   8.051
  912SOL     OW 3181   0.770   1.330   7.749
  912SOL    HW1 3182   0.724   1.243   7.766
  912SOL    HW2 3183   0.861   1.327   7.790
  913SOL     OW 3184   1.352   0.052   7.616
  913SOL    HW1 3185   1.387   0.011   7.532
  913SOL    HW2 3186   1.262   0.014   7.636
  914SOL     OW 3187   0.039   1.077   7.748
  914SOL    HW1 3188   0.138   1.066   7.739
  914SOL    HW2 3189  -0.001   0.991   7.780
  915SOL     OW 3190   0.875   1.646   7.785
  915SOL    HW1 3191   0.798   1.611   7.731
  915SOL    HW2 3192   0.843   1.717   7.847
  916SOL     OW 3193   0.230   2.490   0.113
  916SOL    HW1 3194   0.137   2.488   0.150
  916SOL    HW2 3195   0.231   2.451   0.021
  917SOL     OW 3196   0.225   2.137   0.996
  917SOL    HW1 3197   0.260   2.120   1.088
  917SOL    HW2 3198   0.137   2.092   0.984
  918SOL     OW 3199   0.019   2.230   0.647
  918SOL    HW1 3200  -0.063   2.273   0.686
  918SOL    HW2 3201  -0.009   2.157   0.584
  919SOL     OW 3202   0.569   3.137   1.165
  919SOL    HW1 3203   0.476   3.130   1.128
  919SOL    HW2 3204   0.580   3.226   1.209
  920SOL     OW 3205   1.555   3.373   0.703
  920SOL    HW1 3206   1.498   3.357   0.784
  920SOL    HW2 3207   1.496   3.383   0.623
  921SOL     OW 3208   1.135   2.565   0.717
  921SOL    HW1 3209   1.192   2.643   0.692
  921SOL    HW2 3210   1.075   2.591   0.793
  922SOL     OW 3211   1.755   2.469   0.231
  922SOL    HW1 3212   1.743   2.456   0.132
  922SOL    HW2 3213   1.725   2.388   0.280
  923SOL     OW 3214   0.768   3.006   1.023
  923SOL    HW1 3215   0.690   3.023   1.083
  923SOL    HW2 3216   0.802   3.093   0.987
  924SOL     OW 3217   0.850   2.660   1.823
  924SOL    HW1 3218   0.846   2.736   1.888
  924SOL    HW2 3219   0.872   2.696   1.732
  925SOL     OW 3220   0.685   2.874   0.665
  925SOL    HW1 3221   0.754   2.858   0.735
  925SOL    HW2 3222   0.612   2.931   0.703
  926SOL     OW 3223   0.686   3.023   1.803
  926SOL    HW1 3224   0.746   3.102   1.817
  926SOL    HW2 3225   0.600   3.054   1.762
  927SOL     OW 3226   0.335   3.297   1.061
  927SOL    HW1 3227   0.257   3.266   1.008
  927SOL    HW2 3228   0.393   3.355   1.004
  928SOL     OW 3229   1.460   3.367   1.339
  928SOL    HW1 3230   1.484   3.461   1.365
  928SOL    HW2 3231   1.444   3.313   1.421
  929SOL     OW 3232   0.438   2.254   1.499
  929SOL    HW1 3233   0.520   2.198   1.508
  929SOL    HW2 3234   0.357   2.196   1.503
  930SOL     OW 3235   1.603   2.309   0.737
  930SOL    HW1 3236   1.529   2.355   0.687
  930SOL    HW2 3237   1.654   2.377   0.790
  931SOL     OW 3238   0.231   3.575   0.483
  931SOL    HW1 3239   0.265   3.652   0.537
  931SOL    HW2 3240   0.275   3.575   0.393
  932SOL     OW 3241   1.127   3.203   1.690
  932SOL    HW1 3242   1.174   3.203   1.778
  932SOL    HW2 3243   1.079   3.116   1.679
  933SOL     OW 3244   0.230   3.296   0.538
  933SOL    HW1 3245   0.204   3.392   0.538
  933SOL    HW2 3246   0.159   3.242   0.583
  934SOL     OW 3247   0.240   2.953   0.886
  934SOL    HW1 3248   0.254   2.869   0.938
  934SOL    HW2 3249   0.185   3.017   0.941
  935SOL     OW 3250   0.620   3.648   1.439
  935SOL    HW1 3251   0.528   3.631   1.474
  935SOL    HW2 3252   0.648   3.740   1.465
  936SOL     OW 3253   0.606   2.826   0.123
  936SOL    HW1 3254   0.613   2.910   0.069
  936SOL    HW2 3255   0.652   2.839   0.211
  937SOL     OW 3256   1.594   1.976   1.480
  937SOL    HW1 3257   1.576   2.043   1.408
  937SOL    HW2 3258   1.591   2.022   1.569
  938SOL     OW 3259   0.122   2.505   0.563
  938SOL    HW1 3260   0.077   2.417   0.580
  938SOL    HW2 3261   0.121   2.559   0.647
  939SOL     OW 3262   1.842   3.629   0.359
  939SOL    HW1 3263   1.896   3.600   0.439
  939SOL    HW2 3264   1.872   3.719   0.330
  940SOL     OW 3265   0.027   3.458   0.117
  940SOL    HW1 3266   0.008   3.362   0.138
  940SOL    HW2 3267  -0.006   3.516   0.192
  941SOL     OW 3268   1.689   2.784   0.612
  941SOL    HW1 3269   1.784   2.755   0.620
  941SOL    HW2 3270   1.681   2.849   0.537
  942SOL     OW 3271   1.641   2.970   0.432
  942SOL    HW1 3272   1.727   2.972   0.380
  942SOL    HW2 3273   1.655   3.017   0.520
  943SOL     OW 3274   0.113   2.599   1.597
  943SOL    HW1 3275   0.201   2.586   1.642
  943SOL    HW2 3276   0.100   2.696   1.575
  944SOL     OW 3277   0.613   3.227   0.726
  944SOL    HW1 3278   0.564   3.140   0.735
  944SOL    HW2 3279   0.590   3.270   0.639
  945SOL     OW 3280   1.293   3.090   1.423
  945SOL    HW1 3281   1.330   3.017   1.365
  945SOL    HW2 3282   1.345   3.095   1.508
  946SOL     OW 3283   0.809   1.866   0.502
  946SOL    HW1 3284   0.849   1.957   0.493
  946SOL    HW2 3285   0.709   1.874   0.508
  947SOL     OW 3286   0.197   2.838   1.264
  947SOL    HW1 3287   0.286   2.793   1.250
  947SOL    HW2 3288   0.124   2.773   1.245
  948SOL     OW 3289   1.525   2.861   0.190
  948SOL    HW1 3290   1.462   2.785   0.203
  948SOL    HW2 3291   1.573   2.879   0.276
  949SOL     OW 3292   1.187   3.654   1.616
  949SOL    HW1 3293   1.211   3.714   1.540
  949SOL    HW2 3294   1.194   3.559   1.586
  950SOL     OW 3295   0.317   2.113   1.801
  950SOL    HW1 3296   0.388   2.184   1.807
  950SOL    HW2 3297   0.229   2.152   1.829
  951SOL     OW 3298   1.466   3.279   0.953
  951SOL    HW1 3299   1.407   3.285   1.033
  951SOL    HW2 3300   1.451   3.191   0.907
  952SOL     OW 3301   1.667   3.576   0.572
  952SOL    HW1 3302   1.626   3.553   0.484
  952SOL    HW2 3303   1.649   3.502   0.637
  953SOL     OW 3304   0.598   2.591   0.270
  953SOL    HW1 3305   0.622   2.660   0.202
  953SOL    HW2 3306   0.520   2.624   0.324
  954SOL     OW 3307   1.281   2.207   0.944
  954SOL    HW1 3308   1.195   2.157   0.931
  954SOL    HW2 3309   1.343   2.153   1.000
  955SOL     OW 3310   1.576   3.524   0.307
  955SOL    HW1 3311   1.665   3.570   0.310
  955SOL    HW2 3312   1.555   3.500   0.212
  956SOL     OW 3313   0.807   2.467   1.465
  956SOL    HW1 3314   0.760   2.464   1.554
  956SOL    HW2 3315   0.756   2.412   1.399
  957SOL     OW 3316   1.394   2.331   1.674
  957SOL    HW1 3317   1.374   2.374   1.762
  957SOL    HW2 3318   1.472   2.269   1.683
  958SOL     OW 3319   0.973   2.752   1.572
  958SOL    HW1 3320   1.019   2.668   1.543
  958SOL    HW2 3321   0.917   2.786   1.497
  959SOL     OW 3322   0.991   2.272   1.242
  959SOL    HW1 3323   0.914   2.306   1.296
  959SOL    HW2 3324   0.957   2.221   1.163
  960SOL     OW 3325   1.041   2.563   0.429
  960SOL    HW1 3326   1.067   2.559   0.525
  960SOL    HW2 3327   0.956   2.512   0.415
  961SOL     OW 3328   0.076   2.673   0.789
  961SOL    HW1 3329   0.175   2.661   0.798
  961SOL    HW2 3330   0.052   2.768   0.810
  962SOL     OW 3331   0.130   3.683   1.571
  962SOL    HW1 3332   0.120   3.668   1.670
  962SOL    HW2 3333   0.044   3.719   1.535
  963SOL     OW 3334   0.865   2.210   0.195
  963SOL    HW1 3335   0.924   2.273   0.146
  963SOL    HW2 3336   0.884   2.116   0.166
  964SOL     OW 3337   1.719   2.447   1.831
  964SOL    HW1 3338   1.693   2.536   1.795
  964SOL    HW2 3339   1.717   2.379   1.758
  965SOL     OW 3340   1.362   3.006   0.545
  965SOL    HW1 3341   1.445   2.977   0.497
  965SOL    HW2 3342   1.313   3.073   0.489
  966SOL     OW 3343   0.550   2.058   0.885
  966SOL    HW1 3344   0.545   2.053   0.985
  966SOL    HW2 3345   0.552   2.154   0.856
  967SOL     OW 3346   1.008   3.318   0.477
  967SOL    HW1 3347   0.962   3.390   0.425
  967SOL    HW2 3348   1.004   3.338   0.575
  968SOL     OW 3349   0.351   3.663   0.853
  968SOL    HW1 3350   0.401   3.577   0.859
  968SOL    HW2 3351   0.416   3.740   0.850
  969SOL     OW 3352   1.795   2.928   0.873
  969SOL    HW1 3353   1.733   2.913   0.797
  969SOL    HW2 3354   1.743   2.939   0.958
  970SOL     OW 3355   1.227   3.412   1.506
  970SOL    HW1 3356   1.233   3.335   1.570
  970SOL    HW2 3357   1.175   3.386   1.426
  971SOL     OW 3358   0.321   2.805   0.242
  971SOL    HW1 3359   0.403   2.844   0.200
  971SOL    HW2 3360   0.294   2.723   0.193
  972SOL     OW 3361   1.458   2.597   0.728
  972SOL    HW1 3362   1.453   2.532   0.803
  972SOL    HW2 3363   1.538   2.656   0.741
  973SOL     OW 3364   0.461   3.128   1.727
  973SOL    HW1 3365   0.411   3.129   1.641
  973SOL    HW2 3366   0.398   3.110   1.803
  974SOL     OW 3367   1.111   3.638   0.237
  974SOL    HW1 3368   1.051   3.576   0.287
  974SOL    HW2 3369   1.142   3.594   0.152
  975SOL     OW 3370   0.202   2.147   1.498
  975SOL    HW1 3371   0.122   2.207   1.485
  975SOL    HW2 3372   0.192   2.098   1.584
  976SOL     OW 3373   1.632   3.239   0.081
  976SOL    HW1 3374   1.600   3.333   0.071
  976SOL    HW2 3375   1.556   3.176   0.069
  977SOL     OW 3376   0.464   3.605   0.323
  977SOL    HW1 3377   0.497   3.644   0.409
  977SOL    HW2 3378   0.540   3.598   0.258
  978SOL     OW 3379   1.400   1.969   0.426
  978SOL    HW1 3380   1.376   1.932   0.336
  978SOL    HW2 3381   1.499   1.985   0.430
  979SOL     OW 3382   0.249   3.647   1.241
  979SOL    HW1 3383   0.306   3.582   1.291
  979SOL    HW2 3384   0.233   3.614   1.148
  980SOL     OW 3385   0.940   3.560   0.904
  980SOL    HW1 3386   1.020   3.503   0.925
  980SOL    HW2 3387   0.891   3.520   0.827
  981SOL     OW 3388   0.382   2.562   0.480
  981SOL    HW1 3389   0.427   2.472   0.477
  981SOL    HW2 3390   0.288   2.551   0.513
  982SOL     OW 3391   1.547   2.084   1.729
  982SOL    HW1 3392   1.542   2.121   1.821
  982SOL    HW2 3393   1.475   2.015   1.717
  983SOL     OW 3394   0.614   1.984   0.117
  983SOL    HW1 3395   0.712   1.962   0.124
  983SOL    HW2 3396   0.583   1.967   0.024
  984SOL     OW 3397   0.781   2.126   1.749
  984SOL    HW1 3398   0.848   2.065   1.792
  984SOL    HW2 3399   0.708   2.145   1.814
  985SOL     OW 3400   0.888   3.376   1.195
  985SOL    HW1 3401   0.865   3.351   1.101
  985SOL    HW2 3402   0.949   3.307   1.234
  986SOL     OW 3403   1.351   2.452   1.433
  986SOL    HW1 3404   1.379   2.409   1.518
  986SOL    HW2 3405   1.376   2.548   1.434
  987SOL     OW 3406   0.803   3.264   0.924
  987SOL    HW1 3407   0.893   3.278   0.882
  987SOL    HW2 3408   0.732   3.266   0.853
  988SOL     OW 3409   0.922   2.365   0.899
  988SOL    HW1 3410   0.897   2.356   0.803
  988SOL    HW2 3411   0.970   2.283   0.930
  989SOL     OW 3412   0.539   1.926   0.512
  989SOL    HW1 3413   0.458   1.927   0.570
  989SOL    HW2 3414   0.542   2.009   0.457
  990SOL     OW 3415   1.434   3.050   0.041
  990SOL    HW1 3416   1.466   2.974   0.098
  990SOL    HW2 3417   1.342   3.077   0.071
  991SOL     OW 3418   0.297   1.897   0.171
  991SOL    HW1 3419   0.346   1.981   0.150
  991SOL    HW2 3420   0.359   1.832   0.216
  992SOL     OW 3421   0.935   2.098   0.480
  992SOL    HW1 3422   0.887   2.139   0.402
  992SOL    HW2 3423   1.034   2.096   0.461
  993SOL     OW 3424   1.076   2.545   1.464
  993SOL    HW1 3425   0.996   2.484   1.467
  993SOL    HW2 3426   1.157   2.492   1.440
  994SOL     OW 3427   1.227   3.432   0.793
  994SOL    HW1 3428   1.248   3.506   0.728
  994SOL    HW2 3429   1.295   3.432   0.866
  995SOL     OW 3430   0.459   3.014   0.741
  995SOL    HW1 3431   0.388   2.987   0.806
  995SOL    HW2 3432   0.433   2.986   0.648
  996SOL     OW 3433   1.271   3.659   0.591
  996SOL    HW1 3434   1.315   3.723   0.527
  996SOL    HW2 3435   1.221   3.711   0.661
  997SOL     OW 3436   1.032   2.411   0.016
  997SOL    HW1 3437   0.991   2.493  -0.023
  997SOL    HW2 3438   1.096   2.437   0.089
  998SOL     OW 3439   0.078   2.418   1.386
  998SOL    HW1 3440   0.170   2.417   1.345
  998SOL    HW2 3441   0.072   2.492   1.453
  999SOL     OW 3442   0.561   2.084   1.147
  999SOL    HW1 3443   0.599   2.000   1.184
  999SOL    HW2 3444   0.473   2.103   1.191
 1000SOL     OW 3445   0.866   2.316   0.642
 1000SOL    HW1 3446   0.834   2.388   0.580
 1000SOL    HW2 3447   0.890   2.235   0.589
 1001SOL     OW 3448   1.017   1.901   0.753
 1001SOL    HW1 3449   0.945   1.906   0.684
 1001SOL    HW2 3450   0.993   1.832   0.822
 1002SOL     OW 3451   1.429   3.035   0.867
 1002SOL    HW1 3452   1.374   2.951   0.860
 1002SOL    HW2 3453   1.455   3.064   0.775
 1003SOL     OW 3454   1.466   2.452   0.992
 1003SOL    HW1 3455   1.436   2.357   0.999
 1003SOL    HW2 3456   1.539   2.468   1.058
 1004SOL     OW 3457   1.857   2.695   0.377
 1004SOL    HW1 3458   1.899   2.631   0.441
 1004SOL    HW2 3459   1.819   2.644   0.299
 1005SOL     OW 3460   0.488   3.247   0.174
 1005SOL    HW1 3461   0.401   3.232   0.221
 1005SOL    HW2 3462   0.471   3.273   0.079
 1006SOL     OW 3463   1.664   3.142   0.657
 1006SOL    HW1 3464   1.763   3.150   0.671
 1006SOL    HW2 3465   1.619   3.226   0.688
 1007SOL     OW 3466   1.390   2.437   0.078
 1007SOL    HW1 3467   1.336   2.416   0.159
 1007SOL    HW2 3468   1.481   2.396   0.087
 1008SOL     OW 3469   0.527   2.118   0.328
 1008SOL    HW1 3470   0.554   2.059   0.253
 1008SOL    HW2 3471   0.527   2.213   0.297
 1009SOL     OW 3472   1.754   3.085   1.588
 1009SOL    HW1 3473   1.845   3.046   1.575
 1009SOL    HW2 3474   1.762   3.181   1.612
 1010SOL     OW 3475   1.064   3.209   1.340
 1010SOL    HW1 3476   0.984   3.186   1.395
 1010SOL    HW2 3477   1.147   3.183   1.389
 1011SOL     OW 3478   1.592   3.491   1.625
 1011SOL    HW1 3479   1.619   3.525   1.535
 1011SOL    HW2 3480   1.671   3.453   1.671
 1012SOL     OW 3481   1.111   3.057   1.100
 1012SOL    HW1 3482   1.071   3.101   1.181
 1012SOL    HW2 3483   1.070   3.094   1.017
 1013SOL     OW 3484   1.638   2.961   1.079
 1013SOL    HW1 3485   1.643   3.042   1.138
 1013SOL    HW2 3486   1.552   2.963   1.028
 1014SOL     OW 3487   0.915   1.951   1.402
 1014SOL    HW1 3488   0.940   1.931   1.307
 1014SOL    HW2 3489   0.987   2.007   1.444
 1015SOL     OW 3490   0.980   2.978   1.719
 1015SOL    HW1 3491   0.881   2.984   1.729
 1015SOL    HW2 3492   1.003   2.898   1.663
 1016SOL     OW 3493   0.705   2.912   0.368
 1016SOL    HW1 3494   0.691   2.919   0.467
 1016SOL    HW2 3495   0.789   2.861   0.350
 1017SOL     OW 3496   0.410   2.675   1.251
 1017SOL    HW1 3497   0.496   2.687   1.301
 1017SOL    HW2 3498   0.368   2.588   1.278
 1018SOL     OW 3499   1.274   2.248   1.262
 1018SOL    HW1 3500   1.295   2.322   1.326
 1018SOL    HW2 3501   1.185   2.265   1.219
 1019SOL     OW 3502   0.064   3.426   1.331
 1019SOL    HW1 3503   0.018   3.508   1.297
 1019SOL    HW2 3504   0.162   3.445   1.340
 1020SOL     OW 3505   0.367   2.962   0.501
 1020SOL    HW1 3506   0.360   3.045   0.445
 1020SOL    HW2 3507   0.371   2.882   0.441
 1021SOL     OW 3508   0.566   2.399   0.865
 1021SOL    HW1 3509   0.578   2.465   0.791
 1021SOL    HW2 3510   0.612   2.433   0.948
 1022SOL     OW 3511   1.252   3.210   0.388
 1022SOL    HW1 3512   1.302   3.287   0.428
 1022SOL    HW2 3513   1.157   3.212   0.420
 1023SOL     OW 3514   1.272   3.307   1.142
 1023SOL    HW1 3515   1.319   3.320   1.229
 1023SOL    HW2 3516   1.206   3.233   1.151
 1024SOL     OW 3517   1.582   2.501   0.472
 1024SOL    HW1 3518   1.551   2.562   0.545
 1024SOL    HW2 3519   1.632   2.553   0.403
 1025SOL     OW 3520   0.354   3.372   1.329
 1025SOL    HW1 3521   0.333   3.328   1.242
 1025SOL    HW2 3522   0.451   3.398   1.332
 1026SOL     OW 3523   0.402   2.613   1.598
 1026SOL    HW1 3524   0.470   2.668   1.551
 1026SOL    HW2 3525   0.442   2.525   1.625
 1027SOL     OW 3526   1.587   2.641   1.670
 1027SOL    HW1 3527   1.495   2.679   1.665
 1027SOL    HW2 3528   1.647   2.688   1.605
 1028SOL     OW 3529   1.013   1.967   1.770
 1028SOL    HW1 3530   1.019   2.052   1.718
 1028SOL    HW2 3531   1.045   1.891   1.713
 1029SOL     OW 3532   0.504   1.912   1.740
 1029SOL    HW1 3533   0.462   1.855   1.670
 1029SOL    HW2 3534   0.438   1.981   1.772
 1030SOL     OW 3535   0.573   2.732   1.029
 1030SOL    HW1 3536   0.617   2.821   1.020
 1030SOL    HW2 3537   0.510   2.732   1.106
 1031SOL     OW 3538   1.360   2.724   1.045
 1031SOL    HW1 3539   1.285   2.724   0.979
 1031SOL    HW2 3540   1.397   2.632   1.054
 1032SOL     OW 3541   1.209   2.387   0.275
 1032SOL    HW1 3542   1.222   2.303   0.329
 1032SOL    HW2 3543   1.180   2.461   0.335
 1033SOL     OW 3544   0.307   2.075   1.231
 1033SOL    HW1 3545   0.284   2.112   1.321
 1033SOL    HW2 3546   0.277   1.980   1.225
 1034SOL     OW 3547   0.037   3.172   1.282
 1034SOL    HW1 3548   0.090   3.123   1.350
 1034SOL    HW2 3549   0.059   3.270   1.287
 1035SOL     OW 3550   0.732   2.496   1.064
 1035SOL    HW1 3551   0.791   2.470   0.988
 1035SOL    HW2 3552   0.704   2.592   1.053
 1036SOL     OW 3553   1.728   2.797   1.854
 1036SOL    HW1 3554   1.682   2.790   1.765
 1036SOL    HW2 3555   1.666   2.841   1.920
 1037SOL     OW 3556   0.307   1.925   0.618
 1037SOL    HW1 3557   0.296   2.019   0.651
 1037SOL    HW2 3558   0.302   1.862   0.695
 1038SOL     OW 3559   1.622   2.229   0.374
 1038SOL    HW1 3560   1.624   2.153   0.438
 1038SOL    HW2 3561   1.574   2.306   0.414
 1039SOL     OW 3562   1.023   2.628   0.966
 1039SOL    HW1 3563   1.038   2.649   1.062
 1039SOL    HW2 3564   0.993   2.533   0.957
 1040SOL     OW 3565   0.980   3.435   1.700
 1040SOL    HW1 3566   0.960   3.479   1.612
 1040SOL    HW2 3567   1.019   3.344   1.684
 1041SOL     OW 3568   1.859   3.380   1.605
 1041SOL    HW1 3569   1.873   3.407   1.510
 1041SOL    HW2 3570   1.942   3.402   1.658
 1042SOL     OW 3571   0.350   2.760   1.804
 1042SOL    HW1 3572   0.426   2.804   1.852
 1042SOL    HW2 3573   0.385   2.713   1.722
 1043SOL     OW 3574   1.540   2.136   0.125
 1043SOL    HW1 3575   1.479   2.061   0.148
 1043SOL    HW2 3576   1.562   2.188   0.208
 1044SOL     OW 3577   1.303   2.700   0.042
 1044SOL    HW1 3578   1.337   2.607   0.057
 1044SOL    HW2 3579   1.321   2.727  -0.053
 1045SOL     OW 3580   1.068   3.195   0.849
 1045SOL    HW1 3581   1.075   3.111   0.794
 1045SOL    HW2 3582   1.130   3.264   0.813
 1046SOL     OW 3583   0.319   2.672   0.949
 1046SOL    HW1 3584   0.412   2.708   0.954
 1046SOL    HW2 3585   0.313   2.587   1.001
 1047SOL     OW 3586   0.339   2.371   1.006
 1047SOL    HW1 3587   0.287   2.288   0.989
 1047SOL    HW2 3588   0.416   2.376   0.942
 1048SOL     OW 3589   1.138   2.242   1.678
 1048SOL    HW1 3590   1.093   2.305   1.742
 1048SOL    HW2 3591   1.231   2.273   1.661
 1049SOL     OW 3592   1.160   2.069   1.477
 1049SOL    HW1 3593   1.160   2.133   1.554
 1049SOL    HW2 3594   1.188   2.117   1.394
 1050SOL     OW 3595   0.008   3.188   0.200
 1050SOL    HW1 3596  -0.085   3.209   0.169
 1050SOL    HW2 3597   0.018   3.089   0.213
 1051SOL     OW 3598   0.088   3.663   0.927
 1051SOL    HW1 3599   0.046   3.577   0.900
 1051SOL    HW2 3600   0.182   3.666   0.893
 1052SOL     OW 3601   0.504   3.430   0.910
 1052SOL    HW1 3602   0.570   3.504   0.919
 1052SOL    HW2 3603   0.548   3.351   0.868
 1053SOL     OW 3604   1.002   2.658   1.238
 1053SOL    HW1 3605   1.043   2.626   1.324
 1053SOL    HW2 3606   0.906   2.631   1.235
 1054SOL     OW 3607   0.040   2.406   1.114
 1054SOL    HW1 3608   0.125   2.373   1.073
 1054SOL    HW2 3609   0.053   2.421   1.212
 1055SOL     OW 3610   0.189   2.382   1.722
 1055SOL    HW1 3611   0.248   2.342   1.652
 1055SOL    HW2 3612   0.131   2.453   1.681
 1056SOL     OW 3613   1.369   2.812   1.660
 1056SOL    HW1 3614   1.408   2.901   1.680
 1056SOL    HW2 3615   1.379   2.792   1.563
 1057SOL     OW 3616   0.815   2.434   0.325
 1057SOL    HW1 3617   0.822   2.345   0.279
 1057SOL    HW2 3618   0.721   2.468   0.317
 1058SOL     OW 3619   1.657   2.466   1.206
 1058SOL    HW1 3620   1.619   2.397   1.268
 1058SOL    HW2 3621   1.739   2.430   1.162
 1059SOL     OW 3622   0.252   3.426   1.744
 1059SOL    HW1 3623   0.222   3.483   1.820
 1059SOL    HW2 3624   0.245   3.329   1.770
 1060SOL     OW 3625   0.671   2.326   1.269
 1060SOL    HW1 3626   0.637   2.237   1.239
 1060SOL    HW2 3627   0.697   2.380   1.189
 1061SOL     OW 3628   0.930   3.540   1.465
 1061SOL    HW1 3629   0.906   3.522   1.370
 1061SOL    HW2 3630   0.960   3.634   1.475
 1062SOL     OW 3631   0.473   2.362   0.191
 1062SOL    HW1 3632   0.534   2.442   0.195
 1062SOL    HW2 3633   0.378   2.393   0.198
 1063SOL     OW 3634   0.159   2.999   1.466
 1063SOL    HW1 3635   0.181   2.938   1.542
 1063SOL    HW2 3636   0.169   2.950   1.380
 1064SOL     OW 3637   1.347   2.921   1.234
 1064SOL    HW1 3638   1.371   2.858   1.160
 1064SOL    HW2 3639   1.257   2.961   1.216
 1065SOL     OW 3640   1.302   2.717   0.309
 1065SOL    HW1 3641   1.216   2.686   0.351
 1065SOL    HW2 3642   1.298   2.703   0.210
 1066SOL     OW 3643   1.759   3.609   1.154
 1066SOL    HW1 3644   1.820   3.639   1.081
 1066SOL    HW2 3645   1.721   3.520   1.132
 1067SOL     OW 3646   1.252   3.593   1.128
 1067SOL    HW1 3647   1.336   3.598   1.074
 1067SOL    HW2 3648   1.229   3.497   1.146
 1068SOL     OW 3649   0.083   3.120   1.022
 1068SOL    HW1 3650   0.078   3.119   1.122
 1068SOL    HW2 3651   0.000   3.079   0.984
 1069SOL     OW 3652   0.688   3.524   1.716
 1069SOL    HW1 3653   0.632   3.605   1.725
 1069SOL    HW2 3654   0.740   3.528   1.630
 1070SOL     OW 3655   0.903   1.948   0.133
 1070SOL    HW1 3656   0.954   1.949   0.047
 1070SOL    HW2 3657   0.959   1.906   0.204
 1071SOL     OW 3658   1.726   1.997   0.523
 1071SOL    HW1 3659   1.799   1.980   0.456
 1071SOL    HW2 3660   1.695   1.910   0.561
 1072SOL     OW 3661   1.388   3.435   0.477
 1072SOL    HW1 3662   1.455   3.447   0.403
 1072SOL    HW2 3663   1.348   3.524   0.500
 1073SOL     OW 3664   0.130   3.656   1.851
 1073SOL    HW1 3665   0.089   3.582   1.904
 1073SOL    HW2 3666   0.194   3.707   1.909
 1074SOL     OW 3667   1.280   2.789   0.672
 1074SOL    HW1 3668   1.340   2.708   0.674
 1074SOL    HW2 3669   1.320   2.858   0.612
 1075SOL     OW 3670   0.830   3.135   1.422
 1075SOL    HW1 3671   0.825   3.168   1.517
 1075SOL    HW2 3672   0.744   3.154   1.376
 1076SOL     OW 3673   0.672   3.478   0.154
 1076SOL    HW1 3674   0.681   3.488   0.055
 1076SOL    HW2 3675   0.632   3.389   0.175
 1077SOL     OW 3676   1.650   3.582   1.394
 1077SOL    HW1 3677   1.703   3.592   1.310
 1077SOL    HW2 3678   1.623   3.672   1.428
 1078SOL     OW 3679   1.841   2.037   0.963
 1078SOL    HW1 3680   1.880   1.952   0.927
 1078SOL    HW2 3681   1.743   2.039   0.944
 1079SOL     OW 3682   0.263   2.188   0.720
 1079SOL    HW1 3683   0.184   2.239   0.686
 1079SOL    HW2 3684   0.254   2.173   0.818
 1080SOL     OW 3685   1.194   3.474   0.031
 1080SOL    HW1 3686   1.200   3.381   0.068
 1080SOL    HW2 3687   1.135   3.474  -0.049
 1081SOL     OW 3688   0.822   2.864   1.372
 1081SOL    HW1 3689   0.862   2.863   1.280
 1081SOL    HW2 3690   0.832   2.956   1.412
 1082SOL     OW 3691   0.916   2.772   0.291
 1082SOL    HW1 3692   0.979   2.810   0.223
 1082SOL    HW2 3693   0.956   2.689   0.330
 1083SOL     OW 3694   1.504   3.469   0.044
 1083SOL    HW1 3695   1.412   3.506   0.051
 1083SOL    HW2 3696   1.542   3.489  -0.046
 1084SOL     OW 3697   0.372   3.150   1.490
 1084SOL    HW1 3698   0.359   3.243   1.456
 1084SOL    HW2 3699   0.288   3.098   1.477
 1085SOL     OW 3700   1.614   3.154   1.289
 1085SOL    HW1 3701   1.674   3.157   1.369
 1085SOL    HW2 3702   1.539   3.218   1.302
 1086SOL     OW 3703   1.039   2.960   0.696
 1086SOL    HW1 3704   0.969   2.913   0.750
 1086SOL    HW2 3705   1.098   2.892   0.653
 1087SOL     OW 3706   1.014   2.098   0.971
 1087SOL    HW1 3707   1.006   2.062   0.878
 1087SOL    HW2 3708   1.012   2.022   1.036
 1088SOL     OW 3709   0.590   3.349   0.491
 1088SOL    HW1 3710   0.632   3.291   0.421
 1088SOL    HW2 3711   0.546   3.428   0.447
 1089SOL     OW 3712   1.709   2.247   1.381
 1089SOL    HW1 3713   1.782   2.316   1.385
 1089SOL    HW2 3714   1.737   2.172   1.322
 1090SOL     OW 3715   0.255   3.210   0.290
 1090SOL    HW1 3716   0.159   3.211   0.263
 1090SOL    HW2 3717   0.267   3.263   0.374
 1091SOL     OW 3718   0.105   2.875   1.726
 1091SOL    HW1 3719   0.028   2.842   1.780
 1091SOL    HW2 3720   0.190   2.845   1.768
 1092SOL     OW 3721   0.672   2.065   1.489
 1092SOL    HW1 3722   0.762   2.049   1.449
 1092SOL    HW2 3723   0.680   2.070   1.588
 1093SOL     OW 3724   0.075   2.207   0.033
 1093SOL    HW1 3725  -0.017   2.179   0.004
 1093SOL    HW2 3726   0.106   2.284  -0.023
 1094SOL     OW 3727   1.440   2.718   1.398
 1094SOL    HW1 3728   1.383   2.770   1.335
 1094SOL    HW2 3729   1.536   2.730   1.374
 1095SOL     OW 3730   0.072   2.028   0.318
 1095SOL    HW1 3731   0.055   2.111   0.264
 1095SOL    HW2 3732   0.162   1.991   0.296
 1096SOL     OW 3733   1.183   3.197   0.119
 1096SOL    HW1 3734   1.084   3.186   0.121
 1096SOL    HW2 3735   1.217   3.212   0.212
 1097SOL     OW 3736   0.613   2.704   1.431
 1097SOL    HW1 3737   0.669   2.785   1.414
 1097SOL    HW2 3738   0.672   2.624   1.434
 1098SOL     OW 3739   1.493   3.629   0.959
 1098SOL    HW1 3740   1.526   3.693   0.890
 1098SOL    HW2 3741   1.559   3.623   1.034
 1099SOL     OW 3742   0.716   2.427   1.708
 1099SOL    HW1 3743   0.735   2.492   1.782
 1099SOL    HW2 3744   0.776   2.347   1.717
 1100SOL     OW 3745   1.450   3.082   1.633
 1100SOL    HW1 3746   1.441   3.072   1.732
 1100SOL    HW2 3747   1.546   3.075   1.607
 1101SOL     OW 3748   0.390   3.603   1.560
 1101SOL    HW1 3749   0.299   3.644   1.558
 1101SOL    HW2 3750   0.383   3.509   1.592
 1102SOL     OW 3751   1.674   2.745   1.254
 1102SOL    HW1 3752   1.647   2.656   1.217
 1102SOL    HW2 3753   1.675   2.813   1.181
 1103SOL     OW 3754   1.225   2.187   0.449
 1103SOL    HW1 3755   1.290   2.113   0.438
 1103SOL    HW2 3756   1.245   2.237   0.533
 1104SOL     OW 3757   0.594   2.607   0.652
 1104SOL    HW1 3758   0.644   2.692   0.633
 1104SOL    HW2 3759   0.506   2.609   0.604
 1105SOL     OW 3760   1.777   2.204   1.642
 1105SOL    HW1 3761   1.760   2.235   1.548
 1105SOL    HW2 3762   1.693   2.167   1.680
 1106SOL     OW 3763   1.730   2.796   1.517
 1106SOL    HW1 3764   1.768   2.887   1.532
 1106SOL    HW2 3765   1.722   2.779   1.418
 1107SOL     OW 3766   0.859   3.236   0.016
 1107SOL    HW1 3767   0.813   3.251   0.104
 1107SOL    HW2 3768   0.903   3.321  -0.014
 1108SOL     OW 3769   0.661   3.652   0.953
 1108SOL    HW1 3770   0.615   3.740   0.940
 1108SOL    HW2 3771   0.760   3.664   0.946
 1109SOL     OW 3772   0.859   2.818   0.861
 1109SOL    HW1 3773   0.913   2.749   0.909
 1109SOL    HW2 3774   0.827   2.887   0.927
 1110SOL     OW 3775   1.083   2.846   0.087
 1110SOL    HW1 3776   1.060   2.899   0.005
 1110SOL    HW2 3777   1.164   2.790   0.068
 1111SOL     OW 3778   1.861   3.431   0.851
 1111SOL    HW1 3779   1.790   3.419   0.781
 1111SOL    HW2 3780   1.862   3.352   0.911
 1112SOL     OW 3781   0.221   3.176   1.844
 1112SOL    HW1 3782   0.156   3.103   1.823
 1112SOL    HW2 3783   0.225   3.190   1.942
 1113SOL     OW 3784   0.079   3.102   0.653
 1113SOL    HW1 3785   0.078   3.055   0.741
 1113SOL    HW2 3786   0.161   3.074   0.602
 1114SOL     OW 3787   0.672   3.253   1.624
 1114SOL    HW1 3788   0.594   3.203   1.662
 1114SOL    HW2 3789   0.669   3.348   1.655
 1115SOL     OW 3790   1.824   2.054   1.227
 1115SOL    HW1 3791   1.820   1.964   1.271
 1115SOL    HW2 3792   1.827   2.043   1.128
 1116SOL     OW 3793   0.428   2.286   0.520
 1116SOL    HW1 3794   0.458   2.214   0.458
 1116SOL    HW2 3795   0.389   2.246   0.603
 1117SOL     OW 3796   1.705   3.349   1.104
 1117SOL    HW1 3797   1.612   3.324   1.077
 1117SOL    HW2 3798   1.731   3.299   1.186
 1118SOL     OW 3799   0.317   2.409   1.280
 1118SOL    HW1 3800   0.355   2.350   1.352
 1118SOL    HW2 3801   0.357   2.383   1.192
 1119SOL     OW 3802   0.812   3.448   0.687
 1119SOL    HW1 3803   0.844   3.458   0.593
 1119SOL    HW2 3804   0.733   3.386   0.689
 1120SOL     OW 3805   1.424   2.076   1.112
 1120SOL    HW1 3806   1.476   2.011   1.167
 1120SOL    HW2 3807   1.375   2.139   1.173
 1121SOL     OW 3808   1.001   1.896   1.154
 1121SOL    HW1 3809   0.938   1.824   1.123
 1121SOL    HW2 3810   1.094   1.860   1.154
 1122SOL     OW 3811   0.770   3.192   0.301
 1122SOL    HW1 3812   0.724   3.105   0.318
 1122SOL    HW2 3813   0.861   3.189   0.342
 1123SOL     OW 3814   0.618   3.429   1.284
 1123SOL    HW1 3815   0.613   3.511   1.341
 1123SOL    HW2 3816   0.707   3.426   1.239
 1124SOL     OW 3817   1.352   1.914   0.168
 1124SOL    HW1 3818   1.387   1.873   0.084
 1124SOL    HW2 3819   1.262   1.876   0.188
 1125SOL     OW 3820   1.300   2.315   0.691
 1125SOL    HW1 3821   1.241   2.395   0.695
 1125SOL    HW2 3822   1.315   2.280   0.784
 1126SOL     OW 3823   1.593   2.083   0.882
 1126SOL    HW1 3824   1.509   2.082   0.936
 1126SOL    HW2 3825   1.595   2.166   0.826
 1127SOL     OW 3826   0.039   2.939   0.300
 1127SOL    HW1 3827   0.138   2.928   0.291
 1127SOL    HW2 3828  -0.001   2.853   0.332
 1128SOL     OW 3829   0.875   3.508   0.337
 1128SOL    HW1 3830   0.798   3.473   0.283
 1128SOL    HW2 3831   0.843   3.579   0.399
 1129SOL     OW 3832   0.230   2.490   1.975
 1129SOL    HW1 3833   0.137   2.488   2.012
 1129SOL    HW2 3834   0.231   2.451   1.883
 1130SOL     OW 3835   0.225   2.137   2.858
 1130SOL    HW1 3836   0.260   2.120   2.950
 1130SOL    HW2 3837   0.137   2.092   2.846
 1131SOL     OW 3838   0.019   2.230   2.509
 1131SOL    HW1 3839  -0.063   2.273   2.548
 1131SOL    HW2 3840  -0.009   2.157   2.446
 1132SOL     OW 3841   0.569   3.137   3.027
 1132SOL    HW1 3842   0.476   3.130   2.990
 1132SOL    HW2 3843   0.580   3.226   3.071
 1133SOL     OW 3844   1.555   3.373   2.565
 1133SOL    HW1 3845   1.498   3.357   2.646
 1133SOL    HW2 3846   1.496   3.383   2.485
 1134SOL     OW 3847   1.135   2.565   2.579
 1134SOL    HW1 3848   1.192   2.643   2.554
 1134SOL    HW2 3849   1.075   2.591   2.655
 1135SOL     OW 3850   1.755   2.469   2.093
 1135SOL    HW1 3851   1.743   2.456   1.994
 1135SOL    HW2 3852   1.725   2.388   2.142
 1136SOL     OW 3853   0.768   3.006   2.885
 1136SOL    HW1 3854   0.690   3.023   2.945
 1136SOL    HW2 3855   0.802   3.093   2.849
 1137SOL     OW 3856   0.850   2.660   3.685
 1137SOL    HW1 3857   0.846   2.736   3.750
 1137SOL    HW2 3858   0.872   2.696   3.594
 1138SOL     OW 3859   0.685   2.874   2.527
 1138SOL    HW1 3860   0.754   2.858   2.597
 1138SOL    HW2 3861   0.612   2.931   2.565
 1139SOL     OW 3862   0.686   3.023   3.665
 1139SOL    HW1 3863   0.746   3.102   3.679
 1139SOL    HW2 3864   0.600   3.054   3.624
 1140SOL     OW 3865   0.335   3.297   2.923
 1140SOL    HW1 3866   0.257   3.266   2.870
 1140SOL    HW2 3867   0.393   3.355   2.866
 1141SOL     OW 3868   1.460   3.367   3.201
 1141SOL    HW1 3869   1.484   3.461   3.227
 1141SOL    HW2 3870   1.444   3.313   3.283
 1142SOL     OW 3871   0.438   2.254   3.361
 1142SOL    HW1 3872   0.520   2.198   3.370
 1142SOL    HW2 3873   0.357   2.196   3.365
 1143SOL     OW 3874   1.603   2.309   2.599
 1143SOL    HW1 3875   1.529   2.355   2.549
 1143SOL    HW2 3876   1.654   2.377   2.652
 1144SOL     OW 3877   0.231   3.575   2.345
 1144SOL    HW1 3878   0.265   3.652   2.399
 1144SOL    HW2 3879   0.275   3.575   2.255
 1145SOL     OW 3880   1.127   3.203   3.552
 1145SOL    HW1 3881   1.174   3.203   3.640
 1145SOL    HW2 3882   1.079   3.116   3.541
 1146SOL     OW 3883   0.230   3.296   2.400
 1146SOL    HW1 3884   0.204   3.392   2.400
 1146SOL    HW2 3885   0.159   3.242   2.445
 1147SOL     OW 3886   0.240   2.953   2.748
 1147SOL    HW1 3887   0.254   2.869   2.800
 1147SOL    HW2 3888   0.185   3.017   2.803
 1148SOL     OW 3889   0.620   3.648   3.301
 1148SOL    HW1 3890   0.528   3.631   3.336
 1148SOL    HW2 3891   0.648   3.740   3.327
 1149SOL     OW 3892   0.606   2.826   1.985
 1149SOL    HW1 3893   0.613   2.910   1.931
 1149SOL    HW2 3894   0.652   2.839   2.073
 1150SOL     OW 3895   1.594   1.976   3.342
 1150SOL    HW1 3896   1.576   2.043   3.270
 1150SOL    HW2 3897   1.591   2.022   3.431
 1151SOL     OW 3898   0.122   2.505   2.425
 1151SOL    HW1 3899   0.077   2.417   2.442
 1151SOL    HW2 3900   0.121   2.559   2.509
 1152SOL     OW 3901   1.842   3.629   2.221
 1152SOL    HW1 3902   1.896   3.600   2.301
 1152SOL    HW2 3903   1.872   3.719   2.192
 1153SOL     OW 3904   0.027   3.458   1.979
 1153SOL    HW1 3905   0.008   3.362   2.000
 1153SOL    HW2 3906  -0.006   3.516   2.054
 1154SOL     OW 3907   1.689   2.784   2.474
 1154SOL    HW1 3908   1.784   2.755   2.482
 1154SOL    HW2 3909   1.681   2.849   2.399
 1155SOL     OW 3910   1.641   2.970   2.294
 1155SOL    HW1 3911   1.727   2.972   2.242
 1155SOL    HW2 3912   1.655   3.017   2.382
 1156SOL     OW 3913   0.113   2.599   3.459
 1156SOL    HW1 3914   0.201   2.586   3.504
 1156SOL    HW2 3915   0.100   2.696   3.437
 1157SOL     OW 3916   0.613   3.227   2.588
 1157SOL    HW1 3917   0.564   3.140   2.597
 1157SOL    HW2 3918   0.590   3.270   2.501
 1158SOL     OW 3919   1.293   3.090   3.285
 1158SOL    HW1 3920   1.330   3.017   3.227
 1158SOL    HW2 3921   1.345   3.095   3.370
 1159SOL     OW 3922   0.809   1.866   2.364
 1159SOL    HW1 3923   0.849   1.957   2.355
 1159SOL    HW2 3924   0.709   1.874   2.370
 1160SOL     OW 3925   0.197   2.838   3.126
 1160SOL    HW1 3926   0.286   2.793   3.112
 1160SOL    HW2 3927   0.124   2.773   3.107
 1161SOL     OW 3928   1.525   2.861   2.052
 1161SOL    HW1 3929   1.462   2.785   2.065
 1161SOL    HW2 3930   1.573   2.879   2.138
 1162SOL     OW 3931   1.187   3.654   3.478
 1162SOL    HW1 3932   1.211   3.714   3.402
 1162SOL    HW2 3933   1.194   3.559   3.448
 1163SOL     OW 3934   0.317   2.113   3.663
 1163SOL    HW1 3935   0.388   2.184   3.669
 1163SOL    HW2 3936   0.229   2.152   3.691
 1164SOL     OW 3937   1.466   3.279   2.815
 1164SOL    HW1 3938   1.407   3.285   2.895
 1164SOL    HW2 3939   1.451   3.191   2.769
 1165SOL     OW 3940   1.667   3.576   2.434
 1165SOL    HW1 3941   1.626   3.553   2.346
 1165SOL    HW2 3942   1.649   3.502   2.499
 1166SOL     OW 3943   0.598   2.591   2.132
 1166SOL    HW1 3944   0.622   2.660   2.064
 1166SOL    HW2 3945   0.520   2.624   2.186
 1167SOL     OW 3946   1.281   2.207   2.806
 1167SOL    HW1 3947   1.195   2.157   2.793
 1167SOL    HW2 3948   1.343   2.153   2.862
 1168SOL     OW 3949   1.576   3.524   2.169
 1168SOL    HW1 3950   1.665   3.570   2.172
 1168SOL    HW2 3951   1.555   3.500   2.074
 1169SOL     OW 3952   0.807   2.467   3.327
 1169SOL    HW1 3953   0.760   2.464   3.416
 1169SOL    HW2 3954   0.756   2.412   3.261
 1170SOL     OW 3955   1.394   2.331   3.536
 1170SOL    HW1 3956   1.374   2.374   3.624
 1170SOL    HW2 3957   1.472   2.269   3.545
 1171SOL     OW 3958   0.973   2.752   3.434
 1171SOL    HW1 3959   1.019   2.668   3.405
 1171SOL    HW2 3960   0.917   2.786   3.359
 1172SOL     OW 3961   0.991   2.272   3.104
 1172SOL    HW1 3962   0.914   2.306   3.158
 1172SOL    HW2 3963   0.957   2.221   3.025
 1173SOL     OW 3964   1.041   2.563   2.291
 1173SOL    HW1 3965   1.067   2.559   2.387
 1173SOL    HW2 3966   0.956   2.512   2.277
 1174SOL     OW 3967   0.076   2.673   2.651
 1174SOL    HW1 3968   0.175   2.661   2.660
 1174SOL    HW2 3969   0.052   2.768   2.672
 1175SOL     OW 3970   0.130   3.683   3.433
 1175SOL    HW1 3971   0.120   3.668   3.532
 1175SOL    HW2 3972   0.044   3.719   3.397
 1176SOL     OW 3973   0.865   2.210   2.057
 1176SOL    HW1 3974   0.924   2.273   2.008
 1176SOL    HW2 3975   0.884   2.116   2.028
 1177SOL     OW 3976   1.719   2.447   3.693
 1177SOL    HW1 3977   1.693   2.536   3.657
 1177SOL    HW2 3978   1.717   2.379   3.620
 1178SOL     OW 3979   1.362   3.006   2.407
 1178SOL    HW1 3980   1.445   2.977   2.359
 1178SOL    HW2 3981   1.313   3.073   2.351
 1179SOL     OW 3982   0.550   2.058   2.747
 1179SOL    HW1 3983   0.545   2.053   2.847
 1179SOL    HW2 3984   0.552   2.154   2.718
 1180SOL     OW 3985   1.008   3.318   2.339
 1180SOL    HW1 3986   0.962   3.390   2.287
 1180SOL    HW2 3987   1.004   3.338   2.437
 1181SOL     OW 3988   0.351   3.663   2.715
 1181SOL    HW1 3989   0.401   3.577   2.721
 1181SOL    HW2 3990   0.416   3.740   2.712
 1182SOL     OW 3991   1.795   2.928   2.735
 1182SOL    HW1 3992   1.733   2.913   2.659
 1182SOL    HW2 3993   1.743   2.939   2.820
 1183SOL     OW 3994   1.227   3.412   3.368
 1183SOL    HW1 3995   1.233   3.335   3.432
 1183SOL    HW2 3996   1.175   3.386   3.288
 1184SOL     OW 3997   0.321   2.805   2.104
 1184SOL    HW1 3998   0.403   2.844   2.062
 1184SOL    HW2 3999   0.294   2.723   2.055
 1185SOL     OW 4000   1.458   2.597   2.590
 1185SOL    HW1 4001   1.453   2.532   2.665
 1185SOL    HW2 4002   1.538   2.656   2.603
 1186SOL     OW 4003   0.461   3.128   3.589
 1186SOL    HW1 4004   0.411   3.129   3.503
 1186SOL    HW2 4005   0.398   3.110   3.665
 1187SOL     OW 4006   1.111   3.638   2.099
 1187SOL    HW1 4007   1.051   3.576   2.149
 1187SOL    HW2 4008   1.142   3.594   2.014
 1188SOL     OW 4009   0.202   2.147   3.360
 1188SOL    HW1 4010   0.122   2.207   3.347
 1188SOL    HW2 4011   0.192   2.098   3.446
 1189SOL     OW 4012   1.632   3.239   1.943
 1189SOL    HW1 4013   1.600   3.333   1.933
 1189SOL    HW2 4014   1.556   3.176   1.931
 1190SOL     OW 4015   0.464   3.605   2.185
 1190SOL    HW1 4016   0.497   3.644   2.271
 1190SOL    HW2 4017   0.540   3.598   2.120
 1191SOL     OW 4018   1.400   1.969   2.288
 1191SOL    HW1 4019   1.376   1.932   2.198
 1191SOL    HW2 4020   1.499   1.985   2.292
 1192SOL     OW 4021   0.249   3.647   3.103
 1192SOL    HW1 4022   0.306   3.582   3.153
 1192SOL    HW2 4023   0.233   3.614   3.010
 1193SOL     OW 4024   0.940   3.560   2.766
 1193SOL    HW1 4025   1.020   3.503   2.787
 1193SOL    HW2 4026   0.891   3.520   2.689
 1194SOL     OW 4027   0.382   2.562   2.342
 1194SOL    HW1 4028   0.427   2.472   2.339
 1194SOL    HW2 4029   0.288   2.551   2.375
 1195SOL     OW 4030   1.547   2.084   3.591
 1195SOL    HW1 4031   1.542   2.121   3.683
 1195SOL    HW2 4032   1.475   2.015   3.579
 1196SOL     OW 4033   0.614   1.984   1.979
 1196SOL    HW1 4034   0.712   1.962   1.986
 1196SOL    HW2 4035   0.583   1.967   1.886
 1197SOL     OW 4036   0.781   2.126   3.611
 1197SOL    HW1 4037   0.848   2.065   3.654
 1197SOL    HW2 4038   0.708   2.145   3.676
 1198SOL     OW 4039   0.888   3.376   3.057
 1198SOL    HW1 4040   0.865   3.351   2.963
 1198SOL    HW2 4041   0.949   3.307   3.096
 1199SOL     OW 4042   1.351   2.452   3.295
 1199SOL    HW1 4043   1.379   2.409   3.380
 1199SOL    HW2 4044   1.376   2.548   3.296
 1200SOL     OW 4045   0.803   3.264   2.786
 1200SOL    HW1 4046   0.893   3.278   2.744
 1200SOL    HW2 4047   0.732   3.266   2.715
 1201SOL     OW 4048   0.922   2.365   2.761
 1201SOL    HW1 4049   0.897   2.356   2.665
 1201SOL    HW2 4050   0.970   2.283   2.792
 1202SOL     OW 4051   0.539   1.926   2.374
 1202SOL    HW1 4052   0.458   1.927   2.432
 1202SOL    HW2 4053   0.542   2.009   2.319
 1203SOL     OW 4054   1.434   3.050   1.903
 1203SOL    HW1 4055   1.466   2.974   1.960
 1203SOL    HW2 4056   1.342   3.077   1.933
 1204SOL     OW 4057   0.297   1.897   2.033
 1204SOL    HW1 4058   0.346   1.981   2.012
 1204SOL    HW2 4059   0.359   1.832   2.078
 1205SOL     OW 4060   0.935   2.098   2.342
 1205SOL    HW1 4061   0.887   2.139   2.264
 1205SOL    HW2 4062   1.034   2.096   2.323
 1206SOL     OW 4063   1.076   2.545   3.326
 1206SOL    HW1 4064   0.996   2.484   3.329
 1206SOL    HW2 4065   1.157   2.492   3.302
 1207SOL     OW 4066   1.227   3.432   2.655
 1207SOL    HW1 4067   1.248   3.506   2.590
 1207SOL    HW2 4068   1.295   3.432   2.728
 1208SOL     OW 4069   0.459   3.014   2.603
 1208SOL    HW1 4070   0.388   2.987   2.668
 1208SOL    HW2 4071   0.433   2.986   2.510
 1209SOL     OW 4072   1.271   3.659   2.453
 1209SOL    HW1 4073   1.315   3.723   2.389
 1209SOL    HW2 4074   1.221   3.711   2.523
 1210SOL     OW 4075   1.032   2.411   1.878
 1210SOL    HW1 4076   0.991   2.493   1.839
 1210SOL    HW2 4077   1.096   2.437   1.951
 1211SOL     OW 4078   0.078   2.418   3.248
 1211SOL    HW1 4079   0.170   2.417   3.207
 1211SOL    HW2 4080   0.072   2.492   3.315
 1212SOL     OW 4081   0.561   2.084   3.009
 1212SOL    HW1 4082   0.599   2.000   3.046
 1212SOL    HW2 4083   0.473   2.103   3.053
 1213SOL     OW 4084   0.866   2.316   2.504
 1213SOL    HW1 4085   0.834   2.388   2.442
 1213SOL    HW2 4086   0.890   2.235   2.451
 1214SOL     OW 4087   1.017   1.901   2.615
 1214SOL    HW1 4088   0.945   1.906   2.546
 1214SOL    HW2 4089   0.993   1.832   2.684
 1215SOL     OW 4090   1.429   3.035   2.729
 1215SOL    HW1 4091   1.374   2.951   2.722
 1215SOL    HW2 4092   1.455   3.064   2.637
 1216SOL     OW 4093   1.466   2.452   2.854
 1216SOL    HW1 4094   1.436   2.357   2.861
 1216SOL    HW2 4095   1.539   2.468   2.920
 1217SOL     OW 4096   1.857   2.695   2.239
 1217SOL    HW1 4097   1.899   2.631   2.303
 1217SOL    HW2 4098   1.819   2.644   2.161
 1218SOL     OW 4099   0.488   3.247   2.036
 1218SOL    HW1 4100   0.401   3.232   2.083
 1218SOL    HW2 4101   0.471   3.273   1.941
 1219SOL     OW 4102   1.664   3.142   2.519
 1219SOL    HW1 4103   1.763   3.150   2.533
 1219SOL    HW2 4104   1.619   3.226   2.550
 1220SOL     OW 4105   1.390   2.437   1.940
 1220SOL    HW1 4106   1.336   2.416   2.021
 1220SOL    HW2 4107   1.481   2.396   1.949
 1221SOL     OW 4108   0.527   2.118   2.190
 1221SOL    HW1 4109   0.554   2.059   2.115
 1221SOL    HW2 4110   0.527   2.213   2.159
 1222SOL     OW 4111   1.754   3.085   3.450
 1222SOL    HW1 4112   1.845   3.046   3.437
 1222SOL    HW2 4113   1.762   3.181   3.474
 1223SOL     OW 4114   1.064   3.209   3.202
 1223SOL    HW1 4115   0.984   3.186   3.257
 1223SOL    HW2 4116   1.147   3.183   3.251
 1224SOL     OW 4117   1.592   3.491   3.487
 1224SOL    HW1 4118   1.619   3.525   3.397
 1224SOL    HW2 4119   1.671   3.453   3.533
 1225SOL     OW 4120   1.111   3.057   2.962
 1225SOL    HW1 4121   1.071   3.101   3.043
 1225SOL    HW2 4122   1.070   3.094   2.879
 1226SOL     OW 4123   1.638   2.961   2.941
 1226SOL    HW1 4124   1.643   3.042   3.000
 1226SOL    HW2 4125   1.552   2.963   2.890
 1227SOL     OW 4126   0.915   1.951   3.264
 1227SOL    HW1 4127   0.940   1.931   3.169
 1227SOL    HW2 4128   0.987   2.007   3.306
 1228SOL     OW 4129   0.980   2.978   3.581
 1228SOL    HW1 4130   0.881   2.984   3.591
 1228SOL    HW2 4131   1.003   2.898   3.525
 1229SOL     OW 4132   0.705   2.912   2.230
 1229SOL    HW1 4133   0.691   2.919   2.329
 1229SOL    HW2 4134   0.789   2.861   2.212
 1230SOL     OW 4135   0.410   2.675   3.113
 1230SOL    HW1 4136   0.496   2.687   3.163
 1230SOL    HW2 4137   0.368   2.588   3.140
 1231SOL     OW 4138   1.274   2.248   3.124
 1231SOL    HW1 4139   1.295   2.322   3.188
 1231SOL    HW2 4140   1.185   2.265   3.081
 1232SOL     OW 4141   0.064   3.426   3.193
 1232SOL    HW1 4142   0.018   3.508   3.159
 1232SOL    HW2 4143   0.162   3.445   3.202
 1233SOL     OW 4144   0.367   2.962   2.363
 1233SOL    HW1 4145   0.360   3.045   2.307
 1233SOL    HW2 4146   0.371   2.882   2.303
 1234SOL     OW 4147   0.566   2.399   2.727
 1234SOL    HW1 4148   0.578   2.465   2.653
 1234SOL    HW2 4149   0.612   2.433   2.810
 1235SOL     OW 4150   1.252   3.210   2.250
 1235SOL    HW1 4151   1.302   3.287   2.290
 1235SOL    HW2 4152   1.157   3.212   2.282
 1236SOL     OW 4153   1.272   3.307   3.004
 1236SOL    HW1 4154   1.319   3.320   3.091
 1236SOL    HW2 4155   1.206   3.233   3.013
 1237SOL     OW 4156   1.582   2.501   2.334
 1237SOL    HW1 4157   1.551   2.562   2.407
 1237SOL    HW2 4158   1.632   2.553   2.265
 1238SOL     OW 4159   0.354   3.372   3.191
 1238SOL    HW1 4160   0.333   3.328   3.104
 1238SOL    HW2 4161   0.451   3.398   3.194
 1239SOL     OW 4162   0.402   2.613   3.460
 1239SOL    HW1 4163   0.470   2.668   3.413
 1239SOL    HW2 4164   0.442   2.525   3.487
 1240SOL     OW 4165   1.587   2.641   3.532
 1240SOL    HW1 4166   1.495   2.679   3.527
 1240SOL    HW2 4167   1.647   2.688   3.467
 1241SOL     OW 4168   1.013   1.967   3.632
 1241SOL    HW1 4169   1.019   2.052   3.580
 1241SOL    HW2 4170   1.045   1.891   3.575
 1242SOL     OW 4171   0.504   1.912   3.602
 1242SOL    HW1 4172   0.462   1.855   3.532
 1242SOL    HW2 4173   0.438   1.981   3.634
 1243SOL     OW 4174   0.573   2.732   2.891
 1243SOL    HW1 4175   0.617   2.821   2.882
 1243SOL    HW2 4176   0.510   2.732   2.968
 1244SOL     OW 4177   1.360   2.724   2.907
 1244SOL    HW1 4178   1.285   2.724   2.841
 1244SOL    HW2 4179   1.397   2.632   2.916
 1245SOL     OW 4180   1.209   2.387   2.137
 1245SOL    HW1 4181   1.222   2.303   2.191
 1245SOL    HW2 4182   1.180   2.461   2.197
 1246SOL     OW 4183   0.307   2.075   3.093
 1246SOL    HW1 4184   0.284   2.112   3.183
 1246SOL    HW2 4185   0.277   1.980   3.087
 1247SOL     OW 4186   0.037   3.172   3.144
 1247SOL    HW1 4187   0.090   3.123   3.212
 1247SOL    HW2 4188   0.059   3.270   3.149
 1248SOL     OW 4189   0.732   2.496   2.926
 1248SOL    HW1 4190   0.791   2.470   2.850
 1248SOL    HW2 4191   0.704   2.592   2.915
 1249SOL     OW 4192   1.728   2.797   3.716
 1249SOL    HW1 4193   1.682   2.790   3.627
 1249SOL    HW2 4194   1.666   2.841   3.782
 1250SOL     OW 4195   0.307   1.925   2.480
 1250SOL    HW1 4196   0.296   2.019   2.513
 1250SOL    HW2 4197   0.302   1.862   2.557
 1251SOL     OW 4198   1.622   2.229   2.236
 1251SOL    HW1 4199   1.624   2.153   2.300
 1251SOL    HW2 4200   1.574   2.306   2.276
 1252SOL     OW 4201   1.023   2.628   2.828
 1252SOL    HW1 4202   1.038   2.649   2.924
 1252SOL    HW2 4203   0.993   2.533   2.819
 1253SOL     OW 4204   0.980   3.435   3.562
 1253SOL    HW1 4205   0.960   3.479   3.474
 1253SOL    HW2 4206   1.019   3.344   3.546
 1254SOL     OW 4207   1.859   3.380   3.467
 1254SOL    HW1 4208   1.873   3.407   3.372
 1254SOL    HW2 4209   1.942   3.402   3.520
 1255SOL     OW 4210   0.350   2.760   3.666
 1255SOL    HW1 4211   0.426   2.804   3.714
 1255SOL    HW2 4212   0.385   2.713   3.584
 1256SOL     OW 4213   1.540   2.136   1.987
 1256SOL    HW1 4214   1.479   2.061   2.010
 1256SOL    HW2 4215   1.562   2.188   2.070
 1257SOL     OW 4216   1.303   2.700   1.904
 1257SOL    HW1 4217   1.337   2.607   1.919
 1257SOL    HW2 4218   1.321   2.727   1.809
 1258SOL     OW 4219   1.068   3.195   2.711
 1258SOL    HW1 4220   1.075   3.111   2.656
 1258SOL    HW2 4221   1.130   3.264   2.675
 1259SOL     OW 4222   0.319   2.672   2.811
 1259SOL    HW1 4223   0.412   2.708   2.816
 1259SOL    HW2 4224   0.313   2.587   2.863
 1260SOL     OW 4225   0.339   2.371   2.868
 1260SOL    HW1 4226   0.287   2.288   2.851
 1260SOL    HW2 4227   0.416   2.376   2.804
 1261SOL     OW 4228   1.138   2.242   3.540
 1261SOL    HW1 4229   1.093   2.305   3.604
 1261SOL    HW2 4230   1.231   2.273   3.523
 1262SOL     OW 4231   1.160   2.069   3.339
 1262SOL    HW1 4232   1.160   2.133   3.416
 1262SOL    HW2 4233   1.188   2.117   3.256
 1263SOL     OW 4234   0.008   3.188   2.062
 1263SOL    HW1 4235  -0.085   3.209   2.031
 1263SOL    HW2 4236   0.018   3.089   2.075
 1264SOL     OW 4237   0.088   3.663   2.789
 1264SOL    HW1 4238   0.046   3.577   2.762
 1264SOL    HW2 4239   0.182   3.666   2.755
 1265SOL     OW 4240   0.504   3.430   2.772
 1265SOL    HW1 4241   0.570   3.504   2.781
 1265SOL    HW2 4242   0.548   3.351   2.730
 1266SOL     OW 4243   1.002   2.658   3.100
 1266SOL    HW1 4244   1.043   2.626   3.186
 1266SOL    HW2 4245   0.906   2.631   3.097
 1267SOL     OW 4246   0.040   2.406   2.976
 1267SOL    HW1 4247   0.125   2.373   2.935
 1267SOL    HW2 4248   0.053   2.421   3.074
 1268SOL     OW 4249   0.189   2.382   3.584
 1268SOL    HW1 4250   0.248   2.342   3.514
 1268SOL    HW2 4251   0.131   2.453   3.543
 1269SOL     OW 4252   1.369   2.812   3.522
 1269SOL    HW1 4253   1.408   2.901   3.542
 1269SOL    HW2 4254   1.379   2.792   3.425
 1270SOL     OW 4255   0.815   2.434   2.187
 1270SOL    HW1 4256   0.822   2.345   2.141
 1270SOL    HW2 4257   0.721   2.468   2.179
 1271SOL     OW 4258   1.657   2.466   3.068
 1271SOL    HW1 4259   1.619   2.397   3.130
 1271SOL    HW2 4260   1.739   2.430   3.024
 1272SOL     OW 4261   0.252   3.426   3.606
 1272SOL    HW1 4262   0.222   3.483   3.682
 1272SOL    HW2 4263   0.245   3.329   3.632
 1273SOL     OW 4264   0.671   2.326   3.131
 1273SOL    HW1 4265   0.637   2.237   3.101
 1273SOL    HW2 4266   0.697   2.380   3.051
 1274SOL     OW 4267   0.930   3.540   3.327
 1274SOL    HW1 4268   0.906   3.522   3.232
 1274SOL    HW2 4269   0.960   3.634   3.337
 1275SOL     OW 4270   0.473   2.362   2.053
 1275SOL    HW1 4271   0.534   2.442   2.057
 1275SOL    HW2 4272   0.378   2.393   2.060
 1276SOL     OW 4273   0.159   2.999   3.328
 1276SOL    HW1 4274   0.181   2.938   3.404
 1276SOL    HW2 4275   0.169   2.950   3.242
 1277SOL     OW 4276   1.347   2.921   3.096
 1277SOL    HW1 4277   1.371   2.858   3.022
 1277SOL    HW2 4278   1.257   2.961   3.078
 1278SOL     OW 4279   1.302   2.717   2.171
 1278SOL    HW1 4280   1.216   2.686   2.213
 1278SOL    HW2 4281   1.298   2.703   2.072
 1279SOL     OW 4282   1.759   3.609   3.016
 1279SOL    HW1 4283   1.820   3.639   2.943
 1279SOL    HW2 4284   1.721   3.520   2.994
 1280SOL     OW 4285   1.252   3.593   2.990
 1280SOL    HW1 4286   1.336   3.598   2.936
 1280SOL    HW2 4287   1.229   3.497   3.008
 1281SOL     OW 4288   0.083   3.120   2.884
 1281SOL    HW1 4289   0.078   3.119   2.984
 1281SOL    HW2 4290   0.000   3.079   2.846
 1282SOL     OW 4291   0.688   3.524   3.578
 1282SOL    HW1 4292   0.632   3.605   3.587
 1282SOL    HW2 4293   0.740   3.528   3.492
 1283SOL     OW 4294   1.726   1.997   2.385
 1283SOL    HW1 4295   1.799   1.980   2.318
 1283SOL    HW2 4296   1.695   1.910   2.423
 1284SOL     OW 4297   1.388   3.435   2.339
 1284SOL    HW1 4298   1.455   3.447   2.265
 1284SOL    HW2 4299   1.348   3.524   2.362
 1285SOL     OW 4300   0.130   3.656   3.713
 1285SOL    HW1 4301   0.089   3.582   3.766
 1285SOL    HW2 4302   0.194   3.707   3.771
 1286SOL     OW 4303   1.280   2.789   2.534
 1286SOL    HW1 4304   1.340   2.708   2.536
 1286SOL    HW2 4305   1.320   2.858   2.474
 1287SOL     OW 4306   0.830   3.135   3.284
 1287SOL    HW1 4307   0.825   3.168   3.379
 1287SOL    HW2 4308   0.744   3.154   3.238
 1288SOL     OW 4309   0.672   3.478   2.016
 1288SOL    HW1 4310   0.681   3.488   1.917
 1288SOL    HW2 4311   0.632   3.389   2.037
 1289SOL     OW 4312   1.650   3.582   3.256
 1289SOL    HW1 4313   1.703   3.592   3.172
 1289SOL    HW2 4314   1.623   3.672   3.290
 1290SOL     OW 4315   1.841   2.037   2.825
 1290SOL    HW1 4316   1.880   1.952   2.789
 1290SOL    HW2 4317   1.743   2.039   2.806
 1291SOL     OW 4318   0.263   2.188   2.582
 1291SOL    HW1 4319   0.184   2.239   2.548
 1291SOL    HW2 4320   0.254   2.173   2.680
 1292SOL     OW 4321   1.194   3.474   1.893
 1292SOL    HW1 4322   1.200   3.381   1.930
 1292SOL    HW2 4323   1.135   3.474   1.813
 1293SOL     OW 4324   0.822   2.864   3.234
 1293SOL    HW1 4325   0.862   2.863   3.142
 1293SOL    HW2 4326   0.832   2.956   3.274
 1294SOL     OW 4327   0.916   2.772   2.153
 1294SOL    HW1 4328   0.979   2.810   2.085
 1294SOL    HW2 4329   0.956   2.689   2.192
 1295SOL     OW 4330   1.504   3.469   1.906
 1295SOL    HW1 4331   1.412   3.506   1.913
 1295SOL    HW2 4332   1.542   3.489   1.816
 1296SOL     OW 4333   0.372   3.150   3.352
 1296SOL    HW1 4334   0.359   3.243   3.318
 1296SOL    HW2 4335   0.288   3.098   3.339
 1297SOL     OW 4336   1.614   3.154   3.151
 1297SOL    HW1 4337   1.674   3.157   3.231
 1297SOL    HW2 4338   1.539   3.218   3.164
 1298SOL     OW 4339   1.039   2.960   2.558
 1298SOL    HW1 4340   0.969   2.913   2.612
 1298SOL    HW2 4341   1.098   2.892   2.515
 1299SOL     OW 4342   1.014   2.098   2.833
 1299SOL    HW1 4343   1.006   2.062   2.740
 1299SOL    HW2 4344   1.012   2.022   2.898
 1300SOL     OW 4345   0.590   3.349   2.353
 1300SOL    HW1 4346   0.632   3.291   2.283
 1300SOL    HW2 4347   0.546   3.428   2.309
 1301SOL     OW 4348   1.709   2.247   3.243
 1301SOL    HW1 4349   1.782   2.316   3.247
 1301SOL    HW2 4350   1.737   2.172   3.184
 1302SOL     OW 4351   0.255   3.210   2.152
 1302SOL    HW1 4352   0.159   3.211   2.125
 1302SOL    HW2 4353   0.267   3.263   2.236
 1303SOL     OW 4354   0.105   2.875   3.588
 1303SOL    HW1 4355   0.028   2.842   3.642
 1303SOL    HW2 4356   0.190   2.845   3.630
 1304SOL     OW 4357   0.672   2.065   3.351
 1304SOL    HW1 4358   0.762   2.049   3.311
 1304SOL    HW2 4359   0.680   2.070   3.450
 1305SOL     OW 4360   0.075   2.207   1.895
 1305SOL    HW1 4361  -0.017   2.179   1.866
 1305SOL    HW2 4362   0.106   2.284   1.839
 1306SOL     OW 4363   1.440   2.718   3.260
 1306SOL    HW1 4364   1.383   2.770   3.197
 1306SOL    HW2 4365   1.536   2.730   3.236
 1307SOL     OW 4366   0.072   2.028   2.180
 1307SOL    HW1 4367   0.055   2.111   2.126
 1307SOL    HW2 4368   0.162   1.991   2.158
 1308SOL     OW 4369   1.183   3.197   1.981
 1308SOL    HW1 4370   1.084   3.186   1.983
 1308SOL    HW2 4371   1.217   3.212   2.074
 1309SOL     OW 4372   0.613   2.704   3.293
 1309SOL    HW1 4373   0.669   2.785   3.276
 1309SOL    HW2 4374   0.672   2.624   3.296
 1310SOL     OW 4375   1.493   3.629   2.821
 1310SOL    HW1 4376   1.526   3.693   2.752
 1310SOL    HW2 4377   1.559   3.623   2.896
 1311SOL     OW 4378   0.716   2.427   3.570
 1311SOL    HW1 4379   0.735   2.492   3.644
 1311SOL    HW2 4380   0.776   2.347   3.579
 1312SOL     OW 4381   1.450   3.082   3.495
 1312SOL    HW1 4382   1.441   3.072   3.594
 1312SOL    HW2 4383   1.546   3.075   3.469
 1313SOL     OW 4384   0.390   3.603   3.422
 1313SOL    HW1 4385   0.299   3.644   3.420
 1313SOL    HW2 4386   0.383   3.509   3.454
 1314SOL     OW 4387   1.674   2.745   3.116
 1314SOL    HW1 4388   1.647   2.656   3.079
 1314SOL    HW2 4389   1.675   2.813   3.043
 1315SOL     OW 4390   1.225   2.187   2.311
 1315SOL    HW1 4391   1.290   2.113   2.300
 1315SOL    HW2 4392   1.245   2.237   2.395
 1316SOL     OW 4393   0.594   2.607   2.514
 1316SOL    HW1 4394   0.644   2.692   2.495
 1316SOL    HW2 4395   0.506   2.609   2.466
 1317SOL     OW 4396   1.777   2.204   3.504
 1317SOL    HW1 4397   1.760   2.235   3.410
 1317SOL    HW2 4398   1.693   2.167   3.542
 1318SOL     OW 4399   1.730   2.796   3.379
 1318SOL    HW1 4400   1.768   2.887   3.394
 1318SOL    HW2 4401   1.722   2.779   3.280
 1319SOL     OW 4402   0.859   3.236   1.878
 1319SOL    HW1 4403   0.813   3.251   1.966
 1319SOL    HW2 4404   0.903   3.321   1.848
 1320SOL     OW 4405   0.661   3.652   2.815
 1320SOL    HW1 4406   0.615   3.740   2.802
 1320SOL    HW2 4407   0.760   3.664   2.808
 1321SOL     OW 4408   0.859   2.818   2.723
 1321SOL    HW1 4409   0.913   2.749   2.771
 1321SOL    HW2 4410   0.827   2.887   2.789
 1322SOL     OW 4411   1.083   2.846   1.949
 1322SOL    HW1 4412   1.060   2.899   1.867
 1322SOL    HW2 4413   1.164   2.790   1.930
 1323SOL     OW 4414   1.861   3.431   2.713
 1323SOL    HW1 4415   1.790   3.419   2.643
 1323SOL    HW2 4416   1.862   3.352   2.773
 1324SOL     OW 4417   0.221   3.176   3.706
 1324SOL    HW1 4418   0.156   3.103   3.685
 1324SOL    HW2 4419   0.225   3.190   3.804
 1325SOL     OW 4420   0.079   3.102   2.515
 1325SOL    HW1 4421   0.078   3.055   2.603
 1325SOL    HW2 4422   0.161   3.074   2.464
 1326SOL     OW 4423   0.672   3.253   3.486
 1326SOL    HW1 4424   0.594   3.203   3.524
 1326SOL    HW2 4425   0.669   3.348   3.517
 1327SOL     OW 4426   1.824   2.054   3.089
 1327SOL    HW1 4427   1.820   1.964   3.133
 1327SOL    HW2 4428   1.827   2.043   2.990
 1328SOL     OW 4429   0.428   2.286   2.382
 1328SOL    HW1 4430   0.458   2.214   2.320
 1328SOL    HW2 4431   0.389   2.246   2.465
 1329SOL     OW 4432   1.705   3.349   2.966
 1329SOL    HW1 4433   1.612   3.324   2.939
 1329SOL    HW2 4434   1.731   3.299   3.048
 1330SOL     OW 4435   0.317   2.409   3.142
 1330SOL    HW1 4436   0.355   2.350   3.214
 1330SOL    HW2 4437   0.357   2.383   3.054
 1331SOL     OW 4438   0.812   3.448   2.549
 1331SOL    HW1 4439   0.844   3.458   2.455
 1331SOL    HW2 4440   0.733   3.386   2.551
 1332SOL     OW 4441   1.424   2.076   2.974
 1332SOL    HW1 4442   1.476   2.011   3.029
 1332SOL    HW2 4443   1.375   2.139   3.035
 1333SOL     OW 4444   1.001   1.896   3.016
 1333SOL    HW1 4445   0.938   1.824   2.985
 1333SOL    HW2 4446   1.094   1.860   3.016
 1334SOL     OW 4447   0.770   3.192   2.163
 1334SOL    HW1 4448   0.724   3.105   2.180
 1334SOL    HW2 4449   0.861   3.189   2.204
 1335SOL     OW 4450   0.618   3.429   3.146
 1335SOL    HW1 4451   0.613   3.511   3.203
 1335SOL    HW2 4452   0.707   3.426   3.101
 1336SOL     OW 4453   1.352   1.914   2.030
 1336SOL    HW1 4454   1.387   1.873   1.946
 1336SOL    HW2 4455   1.262   1.876   2.050
 1337SOL     OW 4456   1.300   2.315   2.553
 1337SOL    HW1 4457   1.241   2.395   2.557
 1337SOL    HW2 4458   1.315   2.280   2.646
 1338SOL     OW 4459   1.593   2.083   2.744
 1338SOL    HW1 4460   1.509   2.082   2.798
 1338SOL    HW2 4461   1.595   2.166   2.688
 1339SOL     OW 4462   0.039   2.939   2.162
 1339SOL    HW1 4463   0.138   2.928   2.153
 1339SOL    HW2 4464  -0.001   2.853   2.194
 1340SOL     OW 4465   0.875   3.508   2.199
 1340SOL    HW1 4466   0.798   3.473   2.145
 1340SOL    HW2 4467   0.843   3.579   2.261
 1341SOL     OW 4468   0.230   2.490   3.837
 1341SOL    HW1 4469   0.137   2.488   3.874
 1341SOL    HW2 4470   0.231   2.451   3.745
 1342SOL     OW 4471   0.225   2.137   4.720
 1342SOL    HW1 4472   0.260   2.120   4.812
 1342SOL    HW2 4473   0.137   2.092   4.708
 1343SOL     OW 4474   0.019   2.230   4.371
 1343SOL    HW1 4475  -0.063   2.273   4.410
 1343SOL    HW2 4476  -0.009   2.157   4.308
 1344SOL     OW 4477   0.569   3.137   4.889
 1344SOL    HW1 4478   0.476   3.130   4.852
 1344SOL    HW2 4479   0.580   3.226   4.933
 1345SOL     OW 4480   1.555   3.373   4.427
 1345SOL    HW1 4481   1.498   3.357   4.508
 1345SOL    HW2 4482   1.496   3.383   4.347
 1346SOL     OW 4483   1.135   2.565   4.441
 1346SOL    HW1 4484   1.192   2.643   4.416
 1346SOL    HW2 4485   1.075   2.591   4.517
 1347SOL     OW 4486   0.768   3.006   4.747
 1347SOL    HW1 4487   0.690   3.023   4.807
 1347SOL    HW2 4488   0.802   3.093   4.711
 1348SOL     OW 4489   0.850   2.660   5.547
 1348SOL    HW1 4490   0.846   2.736   5.612
 1348SOL    HW2 4491   0.872   2.696   5.456
 1349SOL     OW 4492   0.685   2.874   4.389
 1349SOL    HW1 4493   0.754   2.858   4.459
 1349SOL    HW2 4494   0.612   2.931   4.427
 1350SOL     OW 4495   0.686   3.023   5.527
 1350SOL    HW1 4496   0.746   3.102   5.541
 1350SOL    HW2 4497   0.600   3.054   5.486
 1351SOL     OW 4498   0.335   3.297   4.785
 1351SOL    HW1 4499   0.257   3.266   4.732
 1351SOL    HW2 4500   0.393   3.355   4.728
 1352SOL     OW 4501   1.460   3.367   5.063
 1352SOL    HW1 4502   1.484   3.461   5.089
 1352SOL    HW2 4503   1.444   3.313   5.145
 1353SOL     OW 4504   0.438   2.254   5.223
 1353SOL    HW1 4505   0.520   2.198   5.232
 1353SOL    HW2 4506   0.357   2.196   5.227
 1354SOL     OW 4507   1.603   2.309   4.461
 1354SOL    HW1 4508   1.529   2.355   4.411
 1354SOL    HW2 4509   1.654   2.377   4.514
 1355SOL     OW 4510   0.231   3.575   4.207
 1355SOL    HW1 4511   0.265   3.652   4.261
 1355SOL    HW2 4512   0.275   3.575   4.117
 1356SOL     OW 4513   1.127   3.203   5.414
 1356SOL    HW1 4514   1.174   3.203   5.502
 1356SOL    HW2 4515   1.079   3.116   5.403
 1357SOL     OW 4516   0.230   3.296   4.262
 1357SOL    HW1 4517   0.204   3.392   4.262
 1357SOL    HW2 4518   0.159   3.242   4.307
 1358SOL     OW 4519   0.240   2.953   4.610
 1358SOL    HW1 4520   0.254   2.869   4.662
 1358SOL    HW2 4521   0.185   3.017   4.665
 1359SOL     OW 4522   0.620   3.648   5.163
 1359SOL    HW1 4523   0.528   3.631   5.198
 1359SOL    HW2 4524   0.648   3.740   5.189
 1360SOL     OW 4525   0.606   2.826   3.847
 1360SOL    HW1 4526   0.613   2.910   3.793
 1360SOL    HW2 4527   0.652   2.839   3.935
 1361SOL     OW 4528   1.594   1.976   5.204
 1361SOL    HW1 4529   1.576   2.043   5.132
 1361SOL    HW2 4530   1.591   2.022   5.293
 1362SOL     OW 4531   0.122   2.505   4.287
 1362SOL    HW1 4532   0.077   2.417   4.304
 1362SOL    HW2 4533   0.121   2.559   4.371
 1363SOL     OW 4534   1.842   3.629   4.083
 1363SOL    HW1 4535   1.896   3.600   4.163
 1363SOL    HW2 4536   1.872   3.719   4.054
 1364SOL     OW 4537   0.027   3.458   3.841
 1364SOL    HW1 4538   0.008   3.362   3.862
 1364SOL    HW2 4539  -0.006   3.516   3.916
 1365SOL     OW 4540   1.689   2.784   4.336
 1365SOL    HW1 4541   1.784   2.755   4.344
 1365SOL    HW2 4542   1.681   2.849   4.261
 1366SOL     OW 4543   1.641   2.970   4.156
 1366SOL    HW1 4544   1.727   2.972   4.104
 1366SOL    HW2 4545   1.655   3.017   4.244
 1367SOL     OW 4546   0.113   2.599   5.321
 1367SOL    HW1 4547   0.201   2.586   5.366
 1367SOL    HW2 4548   0.100   2.696   5.299
 1368SOL     OW 4549   0.613   3.227   4.450
 1368SOL    HW1 4550   0.564   3.140   4.459
 1368SOL    HW2 4551   0.590   3.270   4.363
 1369SOL     OW 4552   1.293   3.090   5.147
 1369SOL    HW1 4553   1.330   3.017   5.089
 1369SOL    HW2 4554   1.345   3.095   5.232
 1370SOL     OW 4555   0.809   1.866   4.226
 1370SOL    HW1 4556   0.849   1.957   4.217
 1370SOL    HW2 4557   0.709   1.874   4.232
 1371SOL     OW 4558   0.197   2.838   4.988
 1371SOL    HW1 4559   0.286   2.793   4.974
 1371SOL    HW2 4560   0.124   2.773   4.969
 1372SOL     OW 4561   1.525   2.861   3.914
 1372SOL    HW1 4562   1.462   2.785   3.927
 1372SOL    HW2 4563   1.573   2.879   4.000
 1373SOL     OW 4564   1.187   3.654   5.340
 1373SOL    HW1 4565   1.211   3.714   5.264
 1373SOL    HW2 4566   1.194   3.559   5.310
 1374SOL     OW 4567   0.317   2.113   5.525
 1374SOL    HW1 4568   0.388   2.184   5.531
 1374SOL    HW2 4569   0.229   2.152   5.553
 1375SOL     OW 4570   1.466   3.279   4.677
 1375SOL    HW1 4571   1.407   3.285   4.757
 1375SOL    HW2 4572   1.451   3.191   4.631
 1376SOL     OW 4573   1.667   3.576   4.296
 1376SOL    HW1 4574   1.626   3.553   4.208
 1376SOL    HW2 4575   1.649   3.502   4.361
 1377SOL     OW 4576   0.598   2.591   3.994
 1377SOL    HW1 4577   0.622   2.660   3.926
 1377SOL    HW2 4578   0.520   2.624   4.048
 1378SOL     OW 4579   1.281   2.207   4.668
 1378SOL    HW1 4580   1.195   2.157   4.655
 1378SOL    HW2 4581   1.343   2.153   4.724
 1379SOL     OW 4582   1.576   3.524   4.031
 1379SOL    HW1 4583   1.665   3.570   4.034
 1379SOL    HW2 4584   1.555   3.500   3.936
 1380SOL     OW 4585   0.807   2.467   5.189
 1380SOL    HW1 4586   0.760   2.464   5.278
 1380SOL    HW2 4587   0.756   2.412   5.123
 1381SOL     OW 4588   1.394   2.331   5.398
 1381SOL    HW1 4589   1.374   2.374   5.486
 1381SOL    HW2 4590   1.472   2.269   5.407
 1382SOL     OW 4591   0.973   2.752   5.296
 1382SOL    HW1 4592   1.019   2.668   5.267
 1382SOL    HW2 4593   0.917   2.786   5.221
 1383SOL     OW 4594   0.991   2.272   4.966
 1383SOL    HW1 4595   0.914   2.306   5.020
 1383SOL    HW2 4596   0.957   2.221   4.887
 1384SOL     OW 4597   1.041   2.563   4.153
 1384SOL    HW1 4598   1.067   2.559   4.249
 1384SOL    HW2 4599   0.956   2.512   4.139
 1385SOL     OW 4600   0.076   2.673   4.513
 1385SOL    HW1 4601   0.175   2.661   4.522
 1385SOL    HW2 4602   0.052   2.768   4.534
 1386SOL     OW 4603   0.130   3.683   5.295
 1386SOL    HW1 4604   0.120   3.668   5.394
 1386SOL    HW2 4605   0.044   3.719   5.259
 1387SOL     OW 4606   0.865   2.210   3.919
 1387SOL    HW1 4607   0.924   2.273   3.870
 1387SOL    HW2 4608   0.884   2.116   3.890
 1388SOL     OW 4609   1.719   2.447   5.555
 1388SOL    HW1 4610   1.693   2.536   5.519
 1388SOL    HW2 4611   1.717   2.379   5.482
 1389SOL     OW 4612   1.362   3.006   4.269
 1389SOL    HW1 4613   1.445   2.977   4.221
 1389SOL    HW2 4614   1.313   3.073   4.213
 1390SOL     OW 4615   0.550   2.058   4.609
 1390SOL    HW1 4616   0.545   2.053   4.709
 1390SOL    HW2 4617   0.552   2.154   4.580
 1391SOL     OW 4618   1.008   3.318   4.201
 1391SOL    HW1 4619   0.962   3.390   4.149
 1391SOL    HW2 4620   1.004   3.338   4.299
 1392SOL     OW 4621   0.351   3.663   4.577
 1392SOL    HW1 4622   0.401   3.577   4.583
 1392SOL    HW2 4623   0.416   3.740   4.574
 1393SOL     OW 4624   1.795   2.928   4.597
 1393SOL    HW1 4625   1.733   2.913   4.521
 1393SOL    HW2 4626   1.743   2.939   4.682
 1394SOL     OW 4627   1.227   3.412   5.230
 1394SOL    HW1 4628   1.233   3.335   5.294
 1394SOL    HW2 4629   1.175   3.386   5.150
 1395SOL     OW 4630   0.321   2.805   3.966
 1395SOL    HW1 4631   0.403   2.844   3.924
 1395SOL    HW2 4632   0.294   2.723   3.917
 1396SOL     OW 4633   1.458   2.597   4.452
 1396SOL    HW1 4634   1.453   2.532   4.527
 1396SOL    HW2 4635   1.538   2.656   4.465
 1397SOL     OW 4636   0.461   3.128   5.451
 1397SOL    HW1 4637   0.411   3.129   5.365
 1397SOL    HW2 4638   0.398   3.110   5.527
 1398SOL     OW 4639   1.111   3.638   3.961
 1398SOL    HW1 4640   1.051   3.576   4.011
 1398SOL    HW2 4641   1.142   3.594   3.876
 1399SOL     OW 4642   0.202   2.147   5.222
 1399SOL    HW1 4643   0.122   2.207   5.209
 1399SOL    HW2 4644   0.192   2.098   5.308
 1400SOL     OW 4645   1.632   3.239   3.805
 1400SOL    HW1 4646   1.600   3.333   3.795
 1400SOL    HW2 4647   1.556   3.176   3.793
 1401SOL     OW 4648   0.464   3.605   4.047
 1401SOL    HW1 4649   0.497   3.644   4.133
 1401SOL    HW2 4650   0.540   3.598   3.982
 1402SOL     OW 4651   1.400   1.969   4.150
 1402SOL    HW1 4652   1.376   1.932   4.060
 1402SOL    HW2 4653   1.499   1.985   4.154
 1403SOL     OW 4654   0.249   3.647   4.965
 1403SOL    HW1 4655   0.306   3.582   5.015
 1403SOL    HW2 4656   0.233   3.614   4.872
 1404SOL     OW 4657   0.940   3.560   4.628
 1404SOL    HW1 4658   1.020   3.503   4.649
 1404SOL    HW2 4659   0.891   3.520   4.551
 1405SOL     OW 4660   0.382   2.562   4.204
 1405SOL    HW1 4661   0.427   2.472   4.201
 1405SOL    HW2 4662   0.288   2.551   4.237
 1406SOL     OW 4663   1.547   2.084   5.453
 1406SOL    HW1 4664   1.542   2.121   5.545
 1406SOL    HW2 4665   1.475   2.015   5.441
 1407SOL     OW 4666   0.614   1.984   3.841
 1407SOL    HW1 4667   0.712   1.962   3.848
 1407SOL    HW2 4668   0.583   1.967   3.748
 1408SOL     OW 4669   0.781   2.126   5.473
 1408SOL    HW1 4670   0.848   2.065   5.516
 1408SOL    HW2 4671   0.708   2.145   5.538
 1409SOL     OW 4672   0.888   3.376   4.919
 1409SOL    HW1 4673   0.865   3.351   4.825
 1409SOL    HW2 4674   0.949   3.307   4.958
 1410SOL     OW 4675   1.351   2.452   5.157
 1410SOL    HW1 4676   1.379   2.409   5.242
 1410SOL    HW2 4677   1.376   2.548   5.158
 1411SOL     OW 4678   0.803   3.264   4.648
 1411SOL    HW1 4679   0.893   3.278   4.606
 1411SOL    HW2 4680   0.732   3.266   4.577
 1412SOL     OW 4681   0.922   2.365   4.623
 1412SOL    HW1 4682   0.897   2.356   4.527
 1412SOL    HW2 4683   0.970   2.283   4.654
 1413SOL     OW 4684   0.539   1.926   4.236
 1413SOL    HW1 4685   0.458   1.927   4.294
 1413SOL    HW2 4686   0.542   2.009   4.181
 1414SOL     OW 4687   1.434   3.050   3.765
 1414SOL    HW1 4688   1.466   2.974   3.822
 1414SOL    HW2 4689   1.342   3.077   3.795
 1415SOL     OW 4690   0.297   1.897   3.895
 1415SOL    HW1 4691   0.346   1.981   3.874
 1415SOL    HW2 4692   0.359   1.832   3.940
 1416SOL     OW 4693   0.935   2.098   4.204
 1416SOL    HW1 4694   0.887   2.139   4.126
 1416SOL    HW2 4695   1.034   2.096   4.185
 1417SOL     OW 4696   1.076   2.545   5.188
 1417SOL    HW1 4697   0.996   2.484   5.191
 1417SOL    HW2 4698   1.157   2.492   5.164
 1418SOL     OW 4699   1.227   3.432   4.517
 1418SOL    HW1 4700   1.248   3.506   4.452
 1418SOL    HW2 4701   1.295   3.432   4.590
 1419SOL     OW 4702   0.459   3.014   4.465
 1419SOL    HW1 4703   0.388   2.987   4.530
 1419SOL    HW2 4704   0.433   2.986   4.372
 1420SOL     OW 4705   1.271   3.659   4.315
 1420SOL    HW1 4706   1.315   3.723   4.251
 1420SOL    HW2 4707   1.221   3.711   4.385
 1421SOL     OW 4708   1.032   2.411   3.740
 1421SOL    HW1 4709   0.991   2.493   3.701
 1421SOL    HW2 4710   1.096   2.437   3.813
 1422SOL     OW 4711   0.078   2.418   5.110
 1422SOL    HW1 4712   0.170   2.417   5.069
 1422SOL    HW2 4713   0.072   2.492   5.177
 1423SOL     OW 4714   0.561   2.084   4.871
 1423SOL    HW1 4715   0.599   2.000   4.908
 1423SOL    HW2 4716   0.473   2.103   4.915
 1424SOL     OW 4717   0.866   2.316   4.366
 1424SOL    HW1 4718   0.834   2.388   4.304
 1424SOL    HW2 4719   0.890   2.235   4.313
 1425SOL     OW 4720   1.017   1.901   4.477
 1425SOL    HW1 4721   0.945   1.906   4.408
 1425SOL    HW2 4722   0.993   1.832   4.546
 1426SOL     OW 4723   1.429   3.035   4.591
 1426SOL    HW1 4724   1.374   2.951   4.584
 1426SOL    HW2 4725   1.455   3.064   4.499
 1427SOL     OW 4726   1.466   2.452   4.716
 1427SOL    HW1 4727   1.436   2.357   4.723
 1427SOL    HW2 4728   1.539   2.468   4.782
 1428SOL     OW 4729   0.488   3.247   3.898
 1428SOL    HW1 4730   0.401   3.232   3.945
 1428SOL    HW2 4731   0.471   3.273   3.803
 1429SOL     OW 4732   1.664   3.142   4.381
 1429SOL    HW1 4733   1.763   3.150   4.395
 1429SOL    HW2 4734   1.619   3.226   4.412
 1430SOL     OW 4735   1.390   2.437   3.802
 1430SOL    HW1 4736   1.336   2.416   3.883
 1430SOL    HW2 4737   1.481   2.396   3.811
 1431SOL     OW 4738   0.527   2.118   4.052
 1431SOL    HW1 4739   0.554   2.059   3.977
 1431SOL    HW2 4740   0.527   2.213   4.021
 1432SOL     OW 4741   1.754   3.085   5.312
 1432SOL    HW1 4742   1.845   3.046   5.299
 1432SOL    HW2 4743   1.762   3.181   5.336
 1433SOL     OW 4744   1.064   3.209   5.064
 1433SOL    HW1 4745   0.984   3.186   5.119
 1433SOL    HW2 4746   1.147   3.183   5.113
 1434SOL     OW 4747   1.592   3.491   5.349
 1434SOL    HW1 4748   1.619   3.525   5.259
 1434SOL    HW2 4749   1.671   3.453   5.395
 1435SOL     OW 4750   1.111   3.057   4.824
 1435SOL    HW1 4751   1.071   3.101   4.905
 1435SOL    HW2 4752   1.070   3.094   4.741
 1436SOL     OW 4753   1.638   2.961   4.803
 1436SOL    HW1 4754   1.643   3.042   4.862
 1436SOL    HW2 4755   1.552   2.963   4.752
 1437SOL     OW 4756   0.915   1.951   5.126
 1437SOL    HW1 4757   0.940   1.931   5.031
 1437SOL    HW2 4758   0.987   2.007   5.168
 1438SOL     OW 4759   0.980   2.978   5.443
 1438SOL    HW1 4760   0.881   2.984   5.453
 1438SOL    HW2 4761   1.003   2.898   5.387
 1439SOL     OW 4762   0.705   2.912   4.092
 1439SOL    HW1 4763   0.691   2.919   4.191
 1439SOL    HW2 4764   0.789   2.861   4.074
 1440SOL     OW 4765   0.410   2.675   4.975
 1440SOL    HW1 4766   0.496   2.687   5.025
 1440SOL    HW2 4767   0.368   2.588   5.002
 1441SOL     OW 4768   1.274   2.248   4.986
 1441SOL    HW1 4769   1.295   2.322   5.050
 1441SOL    HW2 4770   1.185   2.265   4.943
 1442SOL     OW 4771   0.064   3.426   5.055
 1442SOL    HW1 4772   0.018   3.508   5.021
 1442SOL    HW2 4773   0.162   3.445   5.064
 1443SOL     OW 4774   0.367   2.962   4.225
 1443SOL    HW1 4775   0.360   3.045   4.169
 1443SOL    HW2 4776   0.371   2.882   4.165
 1444SOL     OW 4777   0.566   2.399   4.589
 1444SOL    HW1 4778   0.578   2.465   4.515
 1444SOL    HW2 4779   0.612   2.433   4.672
 1445SOL     OW 4780   1.252   3.210   4.112
 1445SOL    HW1 4781   1.302   3.287   4.152
 1445SOL    HW2 4782   1.157   3.212   4.144
 1446SOL     OW 4783   1.272   3.307   4.866
 1446SOL    HW1 4784   1.319   3.320   4.953
 1446SOL    HW2 4785   1.206   3.233   4.875
 1447SOL     OW 4786   1.582   2.501   4.196
 1447SOL    HW1 4787   1.551   2.562   4.269
 1447SOL    HW2 4788   1.632   2.553   4.127
 1448SOL     OW 4789   0.354   3.372   5.053
 1448SOL    HW1 4790   0.333   3.328   4.966
 1448SOL    HW2 4791   0.451   3.398   5.056
 1449SOL     OW 4792   0.402   2.613   5.322
 1449SOL    HW1 4793   0.470   2.668   5.275
 1449SOL    HW2 4794   0.442   2.525   5.349
 1450SOL     OW 4795   1.587   2.641   5.394
 1450SOL    HW1 4796   1.495   2.679   5.389
 1450SOL    HW2 4797   1.647   2.688   5.329
 1451SOL     OW 4798   1.013   1.967   5.494
 1451SOL    HW1 4799   1.019   2.052   5.442
 1451SOL    HW2 4800   1.045   1.891   5.437
 1452SOL     OW 4801   0.504   1.912   5.464
 1452SOL    HW1 4802   0.462   1.855   5.394
 1452SOL    HW2 4803   0.438   1.981   5.496
 1453SOL     OW 4804   0.573   2.732   4.753
 1453SOL    HW1 4805   0.617   2.821   4.744
 1453SOL    HW2 4806   0.510   2.732   4.830
 1454SOL     OW 4807   1.360   2.724   4.769
 1454SOL    HW1 4808   1.285   2.724   4.703
 1454SOL    HW2 4809   1.397   2.632   4.778
 1455SOL     OW 4810   1.209   2.387   3.999
 1455SOL    HW1 4811   1.222   2.303   4.053
 1455SOL    HW2 4812   1.180   2.461   4.059
 1456SOL     OW 4813   0.307   2.075   4.955
 1456SOL    HW1 4814   0.284   2.112   5.045
 1456SOL    HW2 4815   0.277   1.980   4.949
 1457SOL     OW 4816   0.037   3.172   5.006
 1457SOL    HW1 4817   0.090   3.123   5.074
 1457SOL    HW2 4818   0.059   3.270   5.011
 1458SOL     OW 4819   0.732   2.496   4.788
 1458SOL    HW1 4820   0.791   2.470   4.712
 1458SOL    HW2 4821   0.704   2.592   4.777
 1459SOL     OW 4822   1.728   2.797   5.578
 1459SOL    HW1 4823   1.682   2.790   5.489
 1459SOL    HW2 4824   1.666   2.841   5.644
 1460SOL     OW 4825   0.307   1.925   4.342
 1460SOL    HW1 4826   0.296   2.019   4.375
 1460SOL    HW2 4827   0.302   1.862   4.419
 1461SOL     OW 4828   1.622   2.229   4.098
 1461SOL    HW1 4829   1.624   2.153   4.162
 1461SOL    HW2 4830   1.574   2.306   4.138
 1462SOL     OW 4831   1.023   2.628   4.690
 1462SOL    HW1 4832   1.038   2.649   4.786
 1462SOL    HW2 4833   0.993   2.533   4.681
 1463SOL     OW 4834   0.980   3.435   5.424
 1463SOL    HW1 4835   0.960   3.479   5.336
 1463SOL    HW2 4836   1.019   3.344   5.408
 1464SOL     OW 4837   1.859   3.380   5.329
 1464SOL    HW1 4838   1.873   3.407   5.234
 1464SOL    HW2 4839   1.942   3.402   5.382
 1465SOL     OW 4840   0.350   2.760   5.528
 1465SOL    HW1 4841   0.426   2.804   5.576
 1465SOL    HW2 4842   0.385   2.713   5.446
 1466SOL     OW 4843   1.540   2.136   3.849
 1466SOL    HW1 4844   1.479   2.061   3.872
 1466SOL    HW2 4845   1.562   2.188   3.932
 1467SOL     OW 4846   1.303   2.700   3.766
 1467SOL    HW1 4847   1.337   2.607   3.781
 1467SOL    HW2 4848   1.321   2.727   3.671
 1468SOL     OW 4849   1.068   3.195   4.573
 1468SOL    HW1 4850   1.075   3.111   4.518
 1468SOL    HW2 4851   1.130   3.264   4.537
 1469SOL     OW 4852   0.319   2.672   4.673
 1469SOL    HW1 4853   0.412   2.708   4.678
 1469SOL    HW2 4854   0.313   2.587   4.725
 1470SOL     OW 4855   0.339   2.371   4.730
 1470SOL    HW1 4856   0.287   2.288   4.713
 1470SOL    HW2 4857   0.416   2.376   4.666
 1471SOL     OW 4858   1.138   2.242   5.402
 1471SOL    HW1 4859   1.093   2.305   5.466
 1471SOL    HW2 4860   1.231   2.273   5.385
 1472SOL     OW 4861   1.160   2.069   5.201
 1472SOL    HW1 4862   1.160   2.133   5.278
 1472SOL    HW2 4863   1.188   2.117   5.118
 1473SOL     OW 4864   0.008   3.188   3.924
 1473SOL    HW1 4865  -0.085   3.209   3.893
 1473SOL    HW2 4866   0.018   3.089   3.937
 1474SOL     OW 4867   0.088   3.663   4.651
 1474SOL    HW1 4868   0.046   3.577   4.624
 1474SOL    HW2 4869   0.182   3.666   4.617
 1475SOL     OW 4870   0.504   3.430   4.634
 1475SOL    HW1 4871   0.570   3.504   4.643
 1475SOL    HW2 4872   0.548   3.351   4.592
 1476SOL     OW 4873   1.002   2.658   4.962
 1476SOL    HW1 4874   1.043   2.626   5.048
 1476SOL    HW2 4875   0.906   2.631   4.959
 1477SOL     OW 4876   0.040   2.406   4.838
 1477SOL    HW1 4877   0.125   2.373   4.797
 1477SOL    HW2 4878   0.053   2.421   4.936
 1478SOL     OW 4879   0.189   2.382   5.446
 1478SOL    HW1 4880   0.248   2.342   5.376
 1478SOL    HW2 4881   0.131   2.453   5.405
 1479SOL     OW 4882   1.369   2.812   5.384
 1479SOL    HW1 4883   1.408   2.901   5.404
 1479SOL    HW2 4884   1.379   2.792   5.287
 1480SOL     OW 4885   0.815   2.434   4.049
 1480SOL    HW1 4886   0.822   2.345   4.003
 1480SOL    HW2 4887   0.721   2.468   4.041
 1481SOL     OW 4888   1.657   2.466   4.930
 1481SOL    HW1 4889   1.619   2.397   4.992
 1481SOL    HW2 4890   1.739   2.430   4.886
 1482SOL     OW 4891   0.252   3.426   5.468
 1482SOL    HW1 4892   0.222   3.483   5.544
 1482SOL    HW2 4893   0.245   3.329   5.494
 1483SOL     OW 4894   0.671   2.326   4.993
 1483SOL    HW1 4895   0.637   2.237   4.963
 1483SOL    HW2 4896   0.697   2.380   4.913
 1484SOL     OW 4897   0.930   3.540   5.189
 1484SOL    HW1 4898   0.906   3.522   5.094
 1484SOL    HW2 4899   0.960   3.634   5.199
 1485SOL     OW 4900   0.473   2.362   3.915
 1485SOL    HW1 4901   0.534   2.442   3.919
 1485SOL    HW2 4902   0.378   2.393   3.922
 1486SOL     OW 4903   0.159   2.999   5.190
 1486SOL    HW1 4904   0.181   2.938   5.266
 1486SOL    HW2 4905   0.169   2.950   5.104
 1487SOL     OW 4906   1.347   2.921   4.958
 1487SOL    HW1 4907   1.371   2.858   4.884
 1487SOL    HW2 4908   1.257   2.961   4.940
 1488SOL     OW 4909   1.302   2.717   4.033
 1488SOL    HW1 4910   1.216   2.686   4.075
 1488SOL    HW2 4911   1.298   2.703   3.934
 1489SOL     OW 4912   1.759   3.609   4.878
 1489SOL    HW1 4913   1.820   3.639   4.805
 1489SOL    HW2 4914   1.721   3.520   4.856
 1490SOL     OW 4915   1.252   3.593   4.852
 1490SOL    HW1 4916   1.336   3.598   4.798
 1490SOL    HW2 4917   1.229   3.497   4.870
 1491SOL     OW 4918   0.083   3.120   4.746
 1491SOL    HW1 4919   0.078   3.119   4.846
 1491SOL    HW2 4920   0.000   3.079   4.708
 1492SOL     OW 4921   0.688   3.524   5.440
 1492SOL    HW1 4922   0.632   3.605   5.449
 1492SOL    HW2 4923   0.740   3.528   5.354
 1493SOL     OW 4924   1.726   1.997   4.247
 1493SOL    HW1 4925   1.799   1.980   4.180
 1493SOL    HW2 4926   1.695   1.910   4.285
 1494SOL     OW 4927   1.388   3.435   4.201
 1494SOL    HW1 4928   1.455   3.447   4.127
 1494SOL    HW2 4929   1.348   3.524   4.224
 1495SOL     OW 4930   0.130   3.656   5.575
 1495SOL    HW1 4931   0.089   3.582   5.628
 1495SOL    HW2 4932   0.194   3.707   5.633
 1496SOL     OW 4933   1.280   2.789   4.396
 1496SOL    HW1 4934   1.340   2.708   4.398
 1496SOL    HW2 4935   1.320   2.858   4.336
 1497SOL     OW 4936   0.830   3.135   5.146
 1497SOL    HW1 4937   0.825   3.168   5.241
 1497SOL    HW2 4938   0.744   3.154   5.100
 1498SOL     OW 4939   0.672   3.478   3.878
 1498SOL    HW1 4940   0.681   3.488   3.779
 1498SOL    HW2 4941   0.632   3.389   3.899
 1499SOL     OW 4942   1.650   3.582   5.118
 1499SOL    HW1 4943   1.703   3.592   5.034
 1499SOL    HW2 4944   1.623   3.672   5.152
 1500SOL     OW 4945   1.841   2.037   4.687
 1500SOL    HW1 4946   1.880   1.952   4.651
 1500SOL    HW2 4947   1.743   2.039   4.668
 1501SOL     OW 4948   0.263   2.188   4.444
 1501SOL    HW1 4949   0.184   2.239   4.410
 1501SOL    HW2 4950   0.254   2.173   4.542
 1502SOL     OW 4951   1.194   3.474   3.755
 1502SOL    HW1 4952   1.200   3.381   3.792
 1502SOL    HW2 4953   1.135   3.474   3.675
 1503SOL     OW 4954   0.822   2.864   5.096
 1503SOL    HW1 4955   0.862   2.863   5.004
 1503SOL    HW2 4956   0.832   2.956   5.136
 1504SOL     OW 4957   0.916   2.772   4.015
 1504SOL    HW1 4958   0.979   2.810   3.947
 1504SOL    HW2 4959   0.956   2.689   4.054
 1505SOL     OW 4960   1.504   3.469   3.768
 1505SOL    HW1 4961   1.412   3.506   3.775
 1505SOL    HW2 4962   1.542   3.489   3.678
 1506SOL     OW 4963   0.372   3.150   5.214
 1506SOL    HW1 4964   0.359   3.243   5.180
 1506SOL    HW2 4965   0.288   3.098   5.201
 1507SOL     OW 4966   1.614   3.154   5.013
 1507SOL    HW1 4967   1.674   3.157   5.093
 1507SOL    HW2 4968   1.539   3.218   5.026
 1508SOL     OW 4969   1.039   2.960   4.420
 1508SOL    HW1 4970   0.969   2.913   4.474
 1508SOL    HW2 4971   1.098   2.892   4.377
 1509SOL     OW 4972   1.014   2.098   4.695
 1509SOL    HW1 4973   1.006   2.062   4.602
 1509SOL    HW2 4974   1.012   2.022   4.760
 1510SOL     OW 4975   0.590   3.349   4.215
 1510SOL    HW1 4976   0.632   3.291   4.145
 1510SOL    HW2 4977   0.546   3.428   4.171
 1511SOL     OW 4978   1.709   2.247   5.105
 1511SOL    HW1 4979   1.782   2.316   5.109
 1511SOL    HW2 4980   1.737   2.172   5.046
 1512SOL     OW 4981   0.255   3.210   4.014
 1512SOL    HW1 4982   0.159   3.211   3.987
 1512SOL    HW2 4983   0.267   3.263   4.098
 1513SOL     OW 4984   0.105   2.875   5.450
 1513SOL    HW1 4985   0.028   2.842   5.504
 1513SOL    HW2 4986   0.190   2.845   5.492
 1514SOL     OW 4987   0.672   2.065   5.213
 1514SOL    HW1 4988   0.762   2.049   5.173
 1514SOL    HW2 4989   0.680   2.070   5.312
 1515SOL     OW 4990   0.075   2.207   3.757
 1515SOL    HW1 4991  -0.017   2.179   3.728
 1515SOL    HW2 4992   0.106   2.284   3.701
 1516SOL     OW 4993   1.440   2.718   5.122
 1516SOL    HW1 4994   1.383   2.770   5.059
 1516SOL    HW2 4995   1.536   2.730   5.098
 1517SOL     OW 4996   0.072   2.028   4.042
 1517SOL    HW1 4997   0.055   2.111   3.988
 1517SOL    HW2 4998   0.162   1.991   4.020
 1518SOL     OW 4999   1.183   3.197   3.843
 1518SOL    HW1 5000   1.084   3.186   3.845
 1518SOL    HW2 5001   1.217   3.212   3.936
 1519SOL     OW 5002   0.613   2.704   5.155
 1519SOL    HW1 5003   0.669   2.785   5.138
 1519SOL    HW2 5004   0.672   2.624   5.158
 1520SOL     OW 5005   1.493   3.629   4.683
 1520SOL    HW1 5006   1.526   3.693   4.614
 1520SOL    HW2 5007   1.559   3.623   4.758
 1521SOL     OW 5008   0.716   2.427   5.432
 1521SOL    HW1 5009   0.735   2.492   5.506
 1521SOL    HW2 5010   0.776   2.347   5.441
 1522SOL     OW 5011   1.450   3.082   5.357
 1522SOL    HW1 5012   1.441   3.072   5.456
 1522SOL    HW2 5013   1.546   3.075   5.331
 1523SOL     OW 5014   0.390   3.603   5.284
 1523SOL    HW1 5015   0.299   3.644   5.282
 1523SOL    HW2 5016   0.383   3.509   5.316
 1524SOL     OW 5017   1.674   2.745   4.978
 1524SOL    HW1 5018   1.647   2.656   4.941
 1524SOL    HW2 5019   1.675   2.813   4.905
 1525SOL     OW 5020   1.225   2.187   4.173
 1525SOL    HW1 5021   1.290   2.113   4.162
 1525SOL    HW2 5022   1.245   2.237   4.257
 1526SOL     OW 5023   0.594   2.607   4.376
 1526SOL    HW1 5024   0.644   2.692   4.357
 1526SOL    HW2 5025   0.506   2.609   4.328
 1527SOL     OW 5026   1.777   2.204   5.366
 1527SOL    HW1 5027   1.760   2.235   5.272
 1527SOL    HW2 5028   1.693   2.167   5.404
 1528SOL     OW 5029   1.730   2.796   5.241
 1528SOL    HW1 5030   1.768   2.887   5.256
 1528SOL    HW2 5031   1.722   2.779   5.142
 1529SOL     OW 5032   0.859   3.236   3.740
 1529SOL    HW1 5033   0.813   3.251   3.828
 1529SOL    HW2 5034   0.903   3.321   3.710
 1530SOL     OW 5035   0.661   3.652   4.677
 1530SOL    HW1 5036   0.615   3.740   4.664
 1530SOL    HW2 5037   0.760   3.664   4.670
 1531SOL     OW 5038   0.859   2.818   4.585
 1531SOL    HW1 5039   0.913   2.749   4.633
 1531SOL    HW2 5040   0.827   2.887   4.651
 1532SOL     OW 5041   1.083   2.846   3.811
 1532SOL    HW1 5042   1.060   2.899   3.729
 1532SOL    HW2 5043   1.164   2.790   3.792
 1533SOL     OW 5044   1.861   3.431   4.575
 1533SOL    HW1 5045   1.790   3.419   4.505
 1533SOL    HW2 5046   1.862   3.352   4.635
 1534SOL     OW 5047   0.221   3.176   5.568
 1534SOL    HW1 5048   0.156   3.103   5.547
 1534SOL    HW2 5049   0.225   3.190   5.666
 1535SOL     OW 5050   0.079   3.102   4.377
 1535SOL    HW1 5051   0.078   3.055   4.465
 1535SOL    HW2 5052   0.161   3.074   4.326
 1536SOL     OW 5053   0.672   3.253   5.348
 1536SOL    HW1 5054   0.594   3.203   5.386
 1536SOL    HW2 5055   0.669   3.348   5.379
 1537SOL     OW 5056   1.824   2.054   4.951
 1537SOL    HW1 5057   1.820   1.964   4.995
 1537SOL    HW2 5058   1.827   2.043   4.852
 1538SOL     OW 5059   0.428   2.286   4.244
 1538SOL    HW1 5060   0.458   2.214   4.182
 1538SOL    HW2 5061   0.389   2.246   4.327
 1539SOL     OW 5062   1.705   3.349   4.828
 1539SOL    HW1 5063   1.612   3.324   4.801
 1539SOL    HW2 5064   1.731   3.299   4.910
 1540SOL     OW 5065   0.317   2.409   5.004
 1540SOL    HW1 5066   0.355   2.350   5.076
 1540SOL    HW2 5067   0.357   2.383   4.916
 1541SOL     OW 5068   0.812   3.448   4.411
 1541SOL    HW1 5069   0.844   3.458   4.317
 1541SOL    HW2 5070   0.733   3.386   4.413
 1542SOL     OW 5071   1.424   2.076   4.836
 1542SOL    HW1 5072   1.476   2.011   4.891
 1542SOL    HW2 5073   1.375   2.139   4.897
 1543SOL     OW 5074   1.001   1.896   4.878
 1543SOL    HW1 5075   0.938   1.824   4.847
 1543SOL    HW2 5076   1.094   1.860   4.878
 1544SOL     OW 5077   0.770   3.192   4.025
 1544SOL    HW1 5078   0.724   3.105   4.042
 1544SOL    HW2 5079   0.861   3.189   4.066
 1545SOL     OW 5080   0.618   3.429   5.008
 1545SOL    HW1 5081   0.613   3.511   5.065
 1545SOL    HW2 5082   0.707   3.426   4.963
 1546SOL     OW 5083   1.352   1.914   3.892
 1546SOL    HW1 5084   1.387   1.873   3.808
 1546SOL    HW2 5085   1.262   1.876   3.912
 1547SOL     OW 5086   1.300   2.315   4.415
 1547SOL    HW1 5087   1.241   2.395   4.419
 1547SOL    HW2 5088   1.315   2.280   4.508
 1548SOL     OW 5089   1.593   2.083   4.606
 1548SOL    HW1 5090   1.509   2.082   4.660
 1548SOL    HW2 5091   1.595   2.166   4.550
 1549SOL     OW 5092   0.039   2.939   4.024
 1549SOL    HW1 5093   0.138   2.928   4.015
 1549SOL    HW2 5094  -0.001   2.853   4.056
 1550SOL     OW 5095   0.875   3.508   4.061
 1550SOL    HW1 5096   0.798   3.473   4.007
 1550SOL    HW2 5097   0.843   3.579   4.123
 1551SOL     OW 5098   0.230   2.490   5.699
 1551SOL    HW1 5099   0.137   2.488   5.736
 1551SOL    HW2 5100   0.231   2.451   5.607
 1552SOL     OW 5101   0.225   2.137   6.582
 1552SOL    HW1 5102   0.260   2.120   6.674
 1552SOL    HW2 5103   0.137   2.092   6.570
 1553SOL     OW 5104   0.019   2.230   6.233
 1553SOL    HW1 5105  -0.063   2.273   6.272
 1553SOL    HW2 5106  -0.009   2.157   6.170
 1554SOL     OW 5107   0.569   3.137   6.751
 1554SOL    HW1 5108   0.476   3.130   6.714
 1554SOL    HW2 5109   0.580   3.226   6.795
 1555SOL     OW 5110   1.555   3.373   6.289
 1555SOL    HW1 5111   1.498   3.357   6.370
 1555SOL    HW2 5112   1.496   3.383   6.209
 1556SOL     OW 5113   1.135   2.565   6.303
 1556SOL    HW1 5114   1.192   2.643   6.278
 1556SOL    HW2 5115   1.075   2.591   6.379
 1557SOL     OW 5116   1.755   2.469   5.817
 1557SOL    HW1 5117   1.743   2.456   5.718
 1557SOL    HW2 5118   1.725   2.388   5.866
 1558SOL     OW 5119   0.768   3.006   6.609
 1558SOL    HW1 5120   0.690   3.023   6.669
 1558SOL    HW2 5121   0.802   3.093   6.573
 1559SOL     OW 5122   0.850   2.660   7.409
 1559SOL    HW1 5123   0.846   2.736   7.474
 1559SOL    HW2 5124   0.872   2.696   7.318
 1560SOL     OW 5125   0.685   2.874   6.251
 1560SOL    HW1 5126   0.754   2.858   6.321
 1560SOL    HW2 5127   0.612   2.931   6.289
 1561SOL     OW 5128   0.686   3.023   7.389
 1561SOL    HW1 5129   0.746   3.102   7.403
 1561SOL    HW2 5130   0.600   3.054   7.348
 1562SOL     OW 5131   0.335   3.297   6.647
 1562SOL    HW1 5132   0.257   3.266   6.594
 1562SOL    HW2 5133   0.393   3.355   6.590
 1563SOL     OW 5134   1.460   3.367   6.925
 1563SOL    HW1 5135   1.484   3.461   6.951
 1563SOL    HW2 5136   1.444   3.313   7.007
 1564SOL     OW 5137   0.438   2.254   7.085
 1564SOL    HW1 5138   0.520   2.198   7.094
 1564SOL    HW2 5139   0.357   2.196   7.089
 1565SOL     OW 5140   1.603   2.309   6.323
 1565SOL    HW1 5141   1.529   2.355   6.273
 1565SOL    HW2 5142   1.654   2.377   6.376
 1566SOL     OW 5143   0.231   3.575   6.069
 1566SOL    HW1 5144   0.265   3.652   6.123
 1566SOL    HW2 5145   0.275   3.575   5.979
 1567SOL     OW 5146   1.127   3.203   7.276
 1567SOL    HW1 5147   1.174   3.203   7.364
 1567SOL    HW2 5148   1.079   3.116   7.265
 1568SOL     OW 5149   0.230   3.296   6.124
 1568SOL    HW1 5150   0.204   3.392   6.124
 1568SOL    HW2 5151   0.159   3.242   6.169
 1569SOL     OW 5152   0.240   2.953   6.472
 1569SOL    HW1 5153   0.254   2.869   6.524
 1569SOL    HW2 5154   0.185   3.017   6.527
 1570SOL     OW 5155   0.620   3.648   7.025
 1570SOL    HW1 5156   0.528   3.631   7.060
 1570SOL    HW2 5157   0.648   3.740   7.051
 1571SOL     OW 5158   0.606   2.826   5.709
 1571SOL    HW1 5159   0.613   2.910   5.655
 1571SOL    HW2 5160   0.652   2.839   5.797
 1572SOL     OW 5161   1.594   1.976   7.066
 1572SOL    HW1 5162   1.576   2.043   6.994
 1572SOL    HW2 5163   1.591   2.022   7.155
 1573SOL     OW 5164   0.122   2.505   6.149
 1573SOL    HW1 5165   0.077   2.417   6.166
 1573SOL    HW2 5166   0.121   2.559   6.233
 1574SOL     OW 5167   1.842   3.629   5.945
 1574SOL    HW1 5168   1.896   3.600   6.025
 1574SOL    HW2 5169   1.872   3.719   5.916
 1575SOL     OW 5170   0.027   3.458   5.703
 1575SOL    HW1 5171   0.008   3.362   5.724
 1575SOL    HW2 5172  -0.006   3.516   5.778
 1576SOL     OW 5173   1.689   2.784   6.198
 1576SOL    HW1 5174   1.784   2.755   6.206
 1576SOL    HW2 5175   1.681   2.849   6.123
 1577SOL     OW 5176   1.641   2.970   6.018
 1577SOL    HW1 5177   1.727   2.972   5.966
 1577SOL    HW2 5178   1.655   3.017   6.106
 1578SOL     OW 5179   0.113   2.599   7.183
 1578SOL    HW1 5180   0.201   2.586   7.228
 1578SOL    HW2 5181   0.100   2.696   7.161
 1579SOL     OW 5182   0.613   3.227   6.312
 1579SOL    HW1 5183   0.564   3.140   6.321
 1579SOL    HW2 5184   0.590   3.270   6.225
 1580SOL     OW 5185   1.293   3.090   7.009
 1580SOL    HW1 5186   1.330   3.017   6.951
 1580SOL    HW2 5187   1.345   3.095   7.094
 1581SOL     OW 5188   0.809   1.866   6.088
 1581SOL    HW1 5189   0.849   1.957   6.079
 1581SOL    HW2 5190   0.709   1.874   6.094
 1582SOL     OW 5191   0.197   2.838   6.850
 1582SOL    HW1 5192   0.286   2.793   6.836
 1582SOL    HW2 5193   0.124   2.773   6.831
 1583SOL     OW 5194   1.525   2.861   5.776
 1583SOL    HW1 5195   1.462   2.785   5.789
 1583SOL    HW2 5196   1.573   2.879   5.862
 1584SOL     OW 5197   1.187   3.654   7.202
 1584SOL    HW1 5198   1.211   3.714   7.126
 1584SOL    HW2 5199   1.194   3.559   7.172
 1585SOL     OW 5200   0.317   2.113   7.387
 1585SOL    HW1 5201   0.388   2.184   7.393
 1585SOL    HW2 5202   0.229   2.152   7.415
 1586SOL     OW 5203   1.466   3.279   6.539
 1586SOL    HW1 5204   1.407   3.285   6.619
 1586SOL    HW2 5205   1.451   3.191   6.493
 1587SOL     OW 5206   1.667   3.576   6.158
 1587SOL    HW1 5207   1.626   3.553   6.070
 1587SOL    HW2 5208   1.649   3.502   6.223
 1588SOL     OW 5209   0.598   2.591   5.856
 1588SOL    HW1 5210   0.622   2.660   5.788
 1588SOL    HW2 5211   0.520   2.624   5.910
 1589SOL     OW 5212   1.281   2.207   6.530
 1589SOL    HW1 5213   1.195   2.157   6.517
 1589SOL    HW2 5214   1.343   2.153   6.586
 1590SOL     OW 5215   1.576   3.524   5.893
 1590SOL    HW1 5216   1.665   3.570   5.896
 1590SOL    HW2 5217   1.555   3.500   5.798
 1591SOL     OW 5218   0.807   2.467   7.051
 1591SOL    HW1 5219   0.760   2.464   7.140
 1591SOL    HW2 5220   0.756   2.412   6.985
 1592SOL     OW 5221   1.394   2.331   7.260
 1592SOL    HW1 5222   1.374   2.374   7.348
 1592SOL    HW2 5223   1.472   2.269   7.269
 1593SOL     OW 5224   0.973   2.752   7.158
 1593SOL    HW1 5225   1.019   2.668   7.129
 1593SOL    HW2 5226   0.917   2.786   7.083
 1594SOL     OW 5227   0.991   2.272   6.828
 1594SOL    HW1 5228   0.914   2.306   6.882
 1594SOL    HW2 5229   0.957   2.221   6.749
 1595SOL     OW 5230   1.041   2.563   6.015
 1595SOL    HW1 5231   1.067   2.559   6.111
 1595SOL    HW2 5232   0.956   2.512   6.001
 1596SOL     OW 5233   0.076   2.673   6.375
 1596SOL    HW1 5234   0.175   2.661   6.384
 1596SOL    HW2 5235   0.052   2.768   6.396
 1597SOL     OW 5236   0.130   3.683   7.157
 1597SOL    HW1 5237   0.120   3.668   7.256
 1597SOL    HW2 5238   0.044   3.719   7.121
 1598SOL     OW 5239   0.865   2.210   5.781
 1598SOL    HW1 5240   0.924   2.273   5.732
 1598SOL    HW2 5241   0.884   2.116   5.752
 1599SOL     OW 5242   1.719   2.447   7.417
 1599SOL    HW1 5243   1.693   2.536   7.381
 1599SOL    HW2 5244   1.717   2.379   7.344
 1600SOL     OW 5245   1.362   3.006   6.131
 1600SOL    HW1 5246   1.445   2.977   6.083
 1600SOL    HW2 5247   1.313   3.073   6.075
 1601SOL     OW 5248   0.550   2.058   6.471
 1601SOL    HW1 5249   0.545   2.053   6.571
 1601SOL    HW2 5250   0.552   2.154   6.442
 1602SOL     OW 5251   1.008   3.318   6.063
 1602SOL    HW1 5252   0.962   3.390   6.011
 1602SOL    HW2 5253   1.004   3.338   6.161
 1603SOL     OW 5254   0.351   3.663   6.439
 1603SOL    HW1 5255   0.401   3.577   6.445
 1603SOL    HW2 5256   0.416   3.740   6.436
 1604SOL     OW 5257   1.795   2.928   6.459
 1604SOL    HW1 5258   1.733   2.913   6.383
 1604SOL    HW2 5259   1.743   2.939   6.544
 1605SOL     OW 5260   1.227   3.412   7.092
 1605SOL    HW1 5261   1.233   3.335   7.156
 1605SOL    HW2 5262   1.175   3.386   7.012
 1606SOL     OW 5263   0.321   2.805   5.828
 1606SOL    HW1 5264   0.403   2.844   5.786
 1606SOL    HW2 5265   0.294   2.723   5.779
 1607SOL     OW 5266   1.458   2.597   6.314
 1607SOL    HW1 5267   1.453   2.532   6.389
 1607SOL    HW2 5268   1.538   2.656   6.327
 1608SOL     OW 5269   0.461   3.128   7.313
 1608SOL    HW1 5270   0.411   3.129   7.227
 1608SOL    HW2 5271   0.398   3.110   7.389
 1609SOL     OW 5272   1.111   3.638   5.823
 1609SOL    HW1 5273   1.051   3.576   5.873
 1609SOL    HW2 5274   1.142   3.594   5.738
 1610SOL     OW 5275   0.202   2.147   7.084
 1610SOL    HW1 5276   0.122   2.207   7.071
 1610SOL    HW2 5277   0.192   2.098   7.170
 1611SOL     OW 5278   1.632   3.239   5.667
 1611SOL    HW1 5279   1.600   3.333   5.657
 1611SOL    HW2 5280   1.556   3.176   5.655
 1612SOL     OW 5281   0.464   3.605   5.909
 1612SOL    HW1 5282   0.497   3.644   5.995
 1612SOL    HW2 5283   0.540   3.598   5.844
 1613SOL     OW 5284   1.400   1.969   6.012
 1613SOL    HW1 5285   1.376   1.932   5.922
 1613SOL    HW2 5286   1.499   1.985   6.016
 1614SOL     OW 5287   0.249   3.647   6.827
 1614SOL    HW1 5288   0.306   3.582   6.877
 1614SOL    HW2 5289   0.233   3.614   6.734
 1615SOL     OW 5290   0.940   3.560   6.490
 1615SOL    HW1 5291   1.020   3.503   6.511
 1615SOL    HW2 5292   0.891   3.520   6.413
 1616SOL     OW 5293   0.382   2.562   6.066
 1616SOL    HW1 5294   0.427   2.472   6.063
 1616SOL    HW2 5295   0.288   2.551   6.099
 1617SOL     OW 5296   1.547   2.084   7.315
 1617SOL    HW1 5297   1.542   2.121   7.407
 1617SOL    HW2 5298   1.475   2.015   7.303
 1618SOL     OW 5299   0.614   1.984   5.703
 1618SOL    HW1 5300   0.712   1.962   5.710
 1618SOL    HW2 5301   0.583   1.967   5.610
 1619SOL     OW 5302   0.781   2.126   7.335
 1619SOL    HW1 5303   0.848   2.065   7.378
 1619SOL    HW2 5304   0.708   2.145   7.400
 1620SOL     OW 5305   0.888   3.376   6.781
 1620SOL    HW1 5306   0.865   3.351   6.687
 1620SOL    HW2 5307   0.949   3.307   6.820
 1621SOL     OW 5308   1.351   2.452   7.019
 1621SOL    HW1 5309   1.379   2.409   7.104
 1621SOL    HW2 5310   1.376   2.548   7.020
 1622SOL     OW 5311   0.803   3.264   6.510
 1622SOL    HW1 5312   0.893   3.278   6.468
 1622SOL    HW2 5313   0.732   3.266   6.439
 1623SOL     OW 5314   0.922   2.365   6.485
 1623SOL    HW1 5315   0.897   2.356   6.389
 1623SOL    HW2 5316   0.970   2.283   6.516
 1624SOL     OW 5317   0.539   1.926   6.098
 1624SOL    HW1 5318   0.458   1.927   6.156
 1624SOL    HW2 5319   0.542   2.009   6.043
 1625SOL     OW 5320   1.434   3.050   5.627
 1625SOL    HW1 5321   1.466   2.974   5.684
 1625SOL    HW2 5322   1.342   3.077   5.657
 1626SOL     OW 5323   0.297   1.897   5.757
 1626SOL    HW1 5324   0.346   1.981   5.736
 1626SOL    HW2 5325   0.359   1.832   5.802
 1627SOL     OW 5326   0.935   2.098   6.066
 1627SOL    HW1 5327   0.887   2.139   5.988
 1627SOL    HW2 5328   1.034   2.096   6.047
 1628SOL     OW 5329   1.076   2.545   7.050
 1628SOL    HW1 5330   0.996   2.484   7.053
 1628SOL    HW2 5331   1.157   2.492   7.026
 1629SOL     OW 5332   1.227   3.432   6.379
 1629SOL    HW1 5333   1.248   3.506   6.314
 1629SOL    HW2 5334   1.295   3.432   6.452
 1630SOL     OW 5335   0.459   3.014   6.327
 1630SOL    HW1 5336   0.388   2.987   6.392
 1630SOL    HW2 5337   0.433   2.986   6.234
 1631SOL     OW 5338   1.271   3.659   6.177
 1631SOL    HW1 5339   1.315   3.723   6.113
 1631SOL    HW2 5340   1.221   3.711   6.247
 1632SOL     OW 5341   1.032   2.411   5.602
 1632SOL    HW1 5342   0.991   2.493   5.563
 1632SOL    HW2 5343   1.096   2.437   5.675
 1633SOL     OW 5344   0.078   2.418   6.972
 1633SOL    HW1 5345   0.170   2.417   6.931
 1633SOL    HW2 5346   0.072   2.492   7.039
 1634SOL     OW 5347   0.561   2.084   6.733
 1634SOL    HW1 5348   0.599   2.000   6.770
 1634SOL    HW2 5349   0.473   2.103   6.777
 1635SOL     OW 5350   0.866   2.316   6.228
 1635SOL    HW1 5351   0.834   2.388   6.166
 1635SOL    HW2 5352   0.890   2.235   6.175
 1636SOL     OW 5353   1.017   1.901   6.339
 1636SOL    HW1 5354   0.945   1.906   6.270
 1636SOL    HW2 5355   0.993   1.832   6.408
 1637SOL     OW 5356   1.429   3.035   6.453
 1637SOL    HW1 5357   1.374   2.951   6.446
 1637SOL    HW2 5358   1.455   3.064   6.361
 1638SOL     OW 5359   1.466   2.452   6.578
 1638SOL    HW1 5360   1.436   2.357   6.585
 1638SOL    HW2 5361   1.539   2.468   6.644
 1639SOL     OW 5362   1.857   2.695   5.963
 1639SOL    HW1 5363   1.899   2.631   6.027
 1639SOL    HW2 5364   1.819   2.644   5.885
 1640SOL     OW 5365   0.488   3.247   5.760
 1640SOL    HW1 5366   0.401   3.232   5.807
 1640SOL    HW2 5367   0.471   3.273   5.665
 1641SOL     OW 5368   1.664   3.142   6.243
 1641SOL    HW1 5369   1.763   3.150   6.257
 1641SOL    HW2 5370   1.619   3.226   6.274
 1642SOL     OW 5371   1.390   2.437   5.664
 1642SOL    HW1 5372   1.336   2.416   5.745
 1642SOL    HW2 5373   1.481   2.396   5.673
 1643SOL     OW 5374   0.527   2.118   5.914
 1643SOL    HW1 5375   0.554   2.059   5.839
 1643SOL    HW2 5376   0.527   2.213   5.883
 1644SOL     OW 5377   1.754   3.085   7.174
 1644SOL    HW1 5378   1.845   3.046   7.161
 1644SOL    HW2 5379   1.762   3.181   7.198
 1645SOL     OW 5380   1.064   3.209   6.926
 1645SOL    HW1 5381   0.984   3.186   6.981
 1645SOL    HW2 5382   1.147   3.183   6.975
 1646SOL     OW 5383   1.592   3.491   7.211
 1646SOL    HW1 5384   1.619   3.525   7.121
 1646SOL    HW2 5385   1.671   3.453   7.257
 1647SOL     OW 5386   1.111   3.057   6.686
 1647SOL    HW1 5387   1.071   3.101   6.767
 1647SOL    HW2 5388   1.070   3.094   6.603
 1648SOL     OW 5389   1.638   2.961   6.665
 1648SOL    HW1 5390   1.643   3.042   6.724
 1648SOL    HW2 5391   1.552   2.963   6.614
 1649SOL     OW 5392   0.915   1.951   6.988
 1649SOL    HW1 5393   0.940   1.931   6.893
 1649SOL    HW2 5394   0.987   2.007   7.030
 1650SOL     OW 5395   0.980   2.978   7.305
 1650SOL    HW1 5396   0.881   2.984   7.315
 1650SOL    HW2 5397   1.003   2.898   7.249
 1651SOL     OW 5398   0.705   2.912   5.954
 1651SOL    HW1 5399   0.691   2.919   6.053
 1651SOL    HW2 5400   0.789   2.861   5.936
 1652SOL     OW 5401   0.410   2.675   6.837
 1652SOL    HW1 5402   0.496   2.687   6.887
 1652SOL    HW2 5403   0.368   2.588   6.864
 1653SOL     OW 5404   1.274   2.248   6.848
 1653SOL    HW1 5405   1.295   2.322   6.912
 1653SOL    HW2 5406   1.185   2.265   6.805
 1654SOL     OW 5407   0.064   3.426   6.917
 1654SOL    HW1 5408   0.018   3.508   6.883
 1654SOL    HW2 5409   0.162   3.445   6.926
 1655SOL     OW 5410   0.367   2.962   6.087
 1655SOL    HW1 5411   0.360   3.045   6.031
 1655SOL    HW2 5412   0.371   2.882   6.027
 1656SOL     OW 5413   0.566   2.399   6.451
 1656SOL    HW1 5414   0.578   2.465   6.377
 1656SOL    HW2 5415   0.612   2.433   6.534
 1657SOL     OW 5416   1.252   3.210   5.974
 1657SOL    HW1 5417   1.302   3.287   6.014
 1657SOL    HW2 5418   1.157   3.212   6.006
 1658SOL     OW 5419   1.272   3.307   6.728
 1658SOL    HW1 5420   1.319   3.320   6.815
 1658SOL    HW2 5421   1.206   3.233   6.737
 1659SOL     OW 5422   1.582   2.501   6.058
 1659SOL    HW1 5423   1.551   2.562   6.131
 1659SOL    HW2 5424   1.632   2.553   5.989
 1660SOL     OW 5425   0.354   3.372   6.915
 1660SOL    HW1 5426   0.333   3.328   6.828
 1660SOL    HW2 5427   0.451   3.398   6.918
 1661SOL     OW 5428   0.402   2.613   7.184
 1661SOL    HW1 5429   0.470   2.668   7.137
 1661SOL    HW2 5430   0.442   2.525   7.211
 1662SOL     OW 5431   1.587   2.641   7.256
 1662SOL    HW1 5432   1.495   2.679   7.251
 1662SOL    HW2 5433   1.647   2.688   7.191
 1663SOL     OW 5434   1.013   1.967   7.356
 1663SOL    HW1 5435   1.019   2.052   7.304
 1663SOL    HW2 5436   1.045   1.891   7.299
 1664SOL     OW 5437   0.504   1.912   7.326
 1664SOL    HW1 5438   0.462   1.855   7.256
 1664SOL    HW2 5439   0.438   1.981   7.358
 1665SOL     OW 5440   0.573   2.732   6.615
 1665SOL    HW1 5441   0.617   2.821   6.606
 1665SOL    HW2 5442   0.510   2.732   6.692
 1666SOL     OW 5443   1.360   2.724   6.631
 1666SOL    HW1 5444   1.285   2.724   6.565
 1666SOL    HW2 5445   1.397   2.632   6.640
 1667SOL     OW 5446   1.209   2.387   5.861
 1667SOL    HW1 5447   1.222   2.303   5.915
 1667SOL    HW2 5448   1.180   2.461   5.921
 1668SOL     OW 5449   0.307   2.075   6.817
 1668SOL    HW1 5450   0.284   2.112   6.907
 1668SOL    HW2 5451   0.277   1.980   6.811
 1669SOL     OW 5452   0.037   3.172   6.868
 1669SOL    HW1 5453   0.090   3.123   6.936
 1669SOL    HW2 5454   0.059   3.270   6.873
 1670SOL     OW 5455   0.732   2.496   6.650
 1670SOL    HW1 5456   0.791   2.470   6.574
 1670SOL    HW2 5457   0.704   2.592   6.639
 1671SOL     OW 5458   1.728   2.797   7.440
 1671SOL    HW1 5459   1.682   2.790   7.351
 1671SOL    HW2 5460   1.666   2.841   7.506
 1672SOL     OW 5461   0.307   1.925   6.204
 1672SOL    HW1 5462   0.296   2.019   6.237
 1672SOL    HW2 5463   0.302   1.862   6.281
 1673SOL     OW 5464   1.622   2.229   5.960
 1673SOL    HW1 5465   1.624   2.153   6.024
 1673SOL    HW2 5466   1.574   2.306   6.000
 1674SOL     OW 5467   1.023   2.628   6.552
 1674SOL    HW1 5468   1.038   2.649   6.648
 1674SOL    HW2 5469   0.993   2.533   6.543
 1675SOL     OW 5470   0.980   3.435   7.286
 1675SOL    HW1 5471   0.960   3.479   7.198
 1675SOL    HW2 5472   1.019   3.344   7.270
 1676SOL     OW 5473   1.859   3.380   7.191
 1676SOL    HW1 5474   1.873   3.407   7.096
 1676SOL    HW2 5475   1.942   3.402   7.244
 1677SOL     OW 5476   0.350   2.760   7.390
 1677SOL    HW1 5477   0.426   2.804   7.438
 1677SOL    HW2 5478   0.385   2.713   7.308
 1678SOL     OW 5479   1.540   2.136   5.711
 1678SOL    HW1 5480   1.479   2.061   5.734
 1678SOL    HW2 5481   1.562   2.188   5.794
 1679SOL     OW 5482   1.303   2.700   5.628
 1679SOL    HW1 5483   1.337   2.607   5.643
 1679SOL    HW2 5484   1.321   2.727   5.533
 1680SOL     OW 5485   1.068   3.195   6.435
 1680SOL    HW1 5486   1.075   3.111   6.380
 1680SOL    HW2 5487   1.130   3.264   6.399
 1681SOL     OW 5488   0.319   2.672   6.535
 1681SOL    HW1 5489   0.412   2.708   6.540
 1681SOL    HW2 5490   0.313   2.587   6.587
 1682SOL     OW 5491   0.339   2.371   6.592
 1682SOL    HW1 5492   0.287   2.288   6.575
 1682SOL    HW2 5493   0.416   2.376   6.528
 1683SOL     OW 5494   1.138   2.242   7.264
 1683SOL    HW1 5495   1.093   2.305   7.328
 1683SOL    HW2 5496   1.231   2.273   7.247
 1684SOL     OW 5497   1.160   2.069   7.063
 1684SOL    HW1 5498   1.160   2.133   7.140
 1684SOL    HW2 5499   1.188   2.117   6.980
 1685SOL     OW 5500   0.008   3.188   5.786
 1685SOL    HW1 5501  -0.085   3.209   5.755
 1685SOL    HW2 5502   0.018   3.089   5.799
 1686SOL     OW 5503   0.088   3.663   6.513
 1686SOL    HW1 5504   0.046   3.577   6.486
 1686SOL    HW2 5505   0.182   3.666   6.479
 1687SOL     OW 5506   0.504   3.430   6.496
 1687SOL    HW1 5507   0.570   3.504   6.505
 1687SOL    HW2 5508   0.548   3.351   6.454
 1688SOL     OW 5509   1.002   2.658   6.824
 1688SOL    HW1 5510   1.043   2.626   6.910
 1688SOL    HW2 5511   0.906   2.631   6.821
 1689SOL     OW 5512   0.040   2.406   6.700
 1689SOL    HW1 5513   0.125   2.373   6.659
 1689SOL    HW2 5514   0.053   2.421   6.798
 1690SOL     OW 5515   0.189   2.382   7.308
 1690SOL    HW1 5516   0.248   2.342   7.238
 1690SOL    HW2 5517   0.131   2.453   7.267
 1691SOL     OW 5518   1.369   2.812   7.246
 1691SOL    HW1 5519   1.408   2.901   7.266
 1691SOL    HW2 5520   1.379   2.792   7.149
 1692SOL     OW 5521   0.815   2.434   5.911
 1692SOL    HW1 5522   0.822   2.345   5.865
 1692SOL    HW2 5523   0.721   2.468   5.903
 1693SOL     OW 5524   1.657   2.466   6.792
 1693SOL    HW1 5525   1.619   2.397   6.854
 1693SOL    HW2 5526   1.739   2.430   6.748
 1694SOL     OW 5527   0.252   3.426   7.330
 1694SOL    HW1 5528   0.222   3.483   7.406
 1694SOL    HW2 5529   0.245   3.329   7.356
 1695SOL     OW 5530   0.671   2.326   6.855
 1695SOL    HW1 5531   0.637   2.237   6.825
 1695SOL    HW2 5532   0.697   2.380   6.775
 1696SOL     OW 5533   0.930   3.540   7.051
 1696SOL    HW1 5534   0.906   3.522   6.956
 1696SOL    HW2 5535   0.960   3.634   7.061
 1697SOL     OW 5536   0.473   2.362   5.777
 1697SOL    HW1 5537   0.534   2.442   5.781
 1697SOL    HW2 5538   0.378   2.393   5.784
 1698SOL     OW 5539   0.159   2.999   7.052
 1698SOL    HW1 5540   0.181   2.938   7.128
 1698SOL    HW2 5541   0.169   2.950   6.966
 1699SOL     OW 5542   1.347   2.921   6.820
 1699SOL    HW1 5543   1.371   2.858   6.746
 1699SOL    HW2 5544   1.257   2.961   6.802
 1700SOL     OW 5545   1.302   2.717   5.895
 1700SOL    HW1 5546   1.216   2.686   5.937
 1700SOL    HW2 5547   1.298   2.703   5.796
 1701SOL     OW 5548   1.759   3.609   6.740
 1701SOL    HW1 5549   1.820   3.639   6.667
 1701SOL    HW2 5550   1.721   3.520   6.718
 1702SOL     OW 5551   1.252   3.593   6.714
 1702SOL    HW1 5552   1.336   3.598   6.660
 1702SOL    HW2 5553   1.229   3.497   6.732
 1703SOL     OW 5554   0.083   3.120   6.608
 1703SOL    HW1 5555   0.078   3.119   6.708
 1703SOL    HW2 5556   0.000   3.079   6.570
 1704SOL     OW 5557   0.688   3.524   7.302
 1704SOL    HW1 5558   0.632   3.605   7.311
 1704SOL    HW2 5559   0.740   3.528   7.216
 1705SOL     OW 5560   1.726   1.997   6.109
 1705SOL    HW1 5561   1.799   1.980   6.042
 1705SOL    HW2 5562   1.695   1.910   6.147
 1706SOL     OW 5563   1.388   3.435   6.063
 1706SOL    HW1 5564   1.455   3.447   5.989
 1706SOL    HW2 5565   1.348   3.524   6.086
 1707SOL     OW 5566   0.130   3.656   7.437
 1707SOL    HW1 5567   0.089   3.582   7.490
 1707SOL    HW2 5568   0.194   3.707   7.495
 1708SOL     OW 5569   1.280   2.789   6.258
 1708SOL    HW1 5570   1.340   2.708   6.260
 1708SOL    HW2 5571   1.320   2.858   6.198
 1709SOL     OW 5572   0.830   3.135   7.008
 1709SOL    HW1 5573   0.825   3.168   7.103
 1709SOL    HW2 5574   0.744   3.154   6.962
 1710SOL     OW 5575   0.672   3.478   5.740
 1710SOL    HW1 5576   0.681   3.488   5.641
 1710SOL    HW2 5577   0.632   3.389   5.761
 1711SOL     OW 5578   1.650   3.582   6.980
 1711SOL    HW1 5579   1.703   3.592   6.896
 1711SOL    HW2 5580   1.623   3.672   7.014
 1712SOL     OW 5581   1.841   2.037   6.549
 1712SOL    HW1 5582   1.880   1.952   6.513
 1712SOL    HW2 5583   1.743   2.039   6.530
 1713SOL     OW 5584   0.263   2.188   6.306
 1713SOL    HW1 5585   0.184   2.239   6.272
 1713SOL    HW2 5586   0.254   2.173   6.404
 1714SOL     OW 5587   1.194   3.474   5.617
 1714SOL    HW1 5588   1.200   3.381   5.654
 1714SOL    HW2 5589   1.135   3.474   5.537
 1715SOL     OW 5590   0.822   2.864   6.958
 1715SOL    HW1 5591   0.862   2.863   6.866
 1715SOL    HW2 5592   0.832   2.956   6.998
 1716SOL     OW 5593   0.916   2.772   5.877
 1716SOL    HW1 5594   0.979   2.810   5.809
 1716SOL    HW2 5595   0.956   2.689   5.916
 1717SOL     OW 5596   1.504   3.469   5.630
 1717SOL    HW1 5597   1.412   3.506   5.637
 1717SOL    HW2 5598   1.542   3.489   5.540
 1718SOL     OW 5599   0.372   3.150   7.076
 1718SOL    HW1 5600   0.359   3.243   7.042
 1718SOL    HW2 5601   0.288   3.098   7.063
 1719SOL     OW 5602   1.614   3.154   6.875
 1719SOL    HW1 5603   1.674   3.157   6.955
 1719SOL    HW2 5604   1.539   3.218   6.888
 1720SOL     OW 5605   1.039   2.960   6.282
 1720SOL    HW1 5606   0.969   2.913   6.336
 1720SOL    HW2 5607   1.098   2.892   6.239
 1721SOL     OW 5608   1.014   2.098   6.557
 1721SOL    HW1 5609   1.006   2.062   6.464
 1721SOL    HW2 5610   1.012   2.022   6.622
 1722SOL     OW 5611   0.590   3.349   6.077
 1722SOL    HW1 5612   0.632   3.291   6.007
 1722SOL    HW2 5613   0.546   3.428   6.033
 1723SOL     OW 5614   1.709   2.247   6.967
 1723SOL    HW1 5615   1.782   2.316   6.971
 1723SOL    HW2 5616   1.737   2.172   6.908
 1724SOL     OW 5617   0.255   3.210   5.876
 1724SOL    HW1 5618   0.159   3.211   5.849
 1724SOL    HW2 5619   0.267   3.263   5.960
 1725SOL     OW 5620   0.105   2.875   7.312
 1725SOL    HW1 5621   0.028   2.842   7.366
 1725SOL    HW2 5622   0.190   2.845   7.354
 1726SOL     OW 5623   0.672   2.065   7.075
 1726SOL    HW1 5624   0.762   2.049   7.035
 1726SOL    HW2 5625   0.680   2.070   7.174
 1727SOL     OW 5626   0.075   2.207   5.619
 1727SOL    HW1 5627  -0.017   2.179   5.590
 1727SOL    HW2 5628   0.106   2.284   5.563
 1728SOL     OW 5629   1.440   2.718   6.984
 1728SOL    HW1 5630   1.383   2.770   6.921
 1728SOL    HW2 5631   1.536   2.730   6.960
 1729SOL     OW 5632   0.072   2.028   5.904
 1729SOL    HW1 5633   0.055   2.111   5.850
 1729SOL    HW2 5634   0.162   1.991   5.882
 1730SOL     OW 5635   1.183   3.197   5.705
 1730SOL    HW1 5636   1.084   3.186   5.707
 1730SOL    HW2 5637   1.217   3.212   5.798
 1731SOL     OW 5638   0.613   2.704   7.017
 1731SOL    HW1 5639   0.669   2.785   7.000
 1731SOL    HW2 5640   0.672   2.624   7.020
 1732SOL     OW 5641   1.493   3.629   6.545
 1732SOL    HW1 5642   1.526   3.693   6.476
 1732SOL    HW2 5643   1.559   3.623   6.620
 1733SOL     OW 5644   0.716   2.427   7.294
 1733SOL    HW1 5645   0.735   2.492   7.368
 1733SOL    HW2 5646   0.776   2.347   7.303
 1734SOL     OW 5647   1.450   3.082   7.219
 1734SOL    HW1 5648   1.441   3.072   7.318
 1734SOL    HW2 5649   1.546   3.075   7.193
 1735SOL     OW 5650   0.390   3.603   7.146
 1735SOL    HW1 5651   0.299   3.644   7.144
 1735SOL    HW2 5652   0.383   3.509   7.178
 1736SOL     OW 5653   1.674   2.745   6.840
 1736SOL    HW1 5654   1.647   2.656   6.803
 1736SOL    HW2 5655   1.675   2.813   6.767
 1737SOL     OW 5656   1.225   2.187   6.035
 1737SOL    HW1 5657   1.290   2.113   6.024
 1737SOL    HW2 5658   1.245   2.237   6.119
 1738SOL     OW 5659   0.594   2.607   6.238
 1738SOL    HW1 5660   0.644   2.692   6.219
 1738SOL    HW2 5661   0.506   2.609   6.190
 1739SOL     OW 5662   1.777   2.204   7.228
 1739SOL    HW1 5663   1.760   2.235   7.134
 1739SOL    HW2 5664   1.693   2.167   7.266
 1740SOL     OW 5665   1.730   2.796   7.103
 1740SOL    HW1 5666   1.768   2.887   7.118
 1740SOL    HW2 5667   1.722   2.779   7.004
 1741SOL     OW 5668   0.859   3.236   5.602
 1741SOL    HW1 5669   0.813   3.251   5.690
 1741SOL    HW2 5670   0.903   3.321   5.572
 1742SOL     OW 5671   0.661   3.652   6.539
 1742SOL    HW1 5672   0.615   3.740   6.526
 1742SOL    HW2 5673   0.760   3.664   6.532
 1743SOL     OW 5674   0.859   2.818   6.447
 1743SOL    HW1 5675   0.913   2.749   6.495
 1743SOL    HW2 5676   0.827   2.887   6.513
 1744SOL     OW 5677   1.083   2.846   5.673
 1744SOL    HW1 5678   1.060   2.899   5.591
 1744SOL    HW2 5679   1.164   2.790   5.654
 1745SOL     OW 5680   1.861   3.431   6.437
 1745SOL    HW1 5681   1.790   3.419   6.367
 1745SOL    HW2 5682   1.862   3.352   6.497
 1746SOL     OW 5683   0.221   3.176   7.430
 1746SOL    HW1 5684   0.156   3.103   7.409
 1746SOL    HW2 5685   0.225   3.190   7.528
 1747SOL     OW 5686   0.079   3.102   6.239
 1747SOL    HW1 5687   0.078   3.055   6.327
 1747SOL    HW2 5688   0.161   3.074   6.188
 1748SOL     OW 5689   0.672   3.253   7.210
 1748SOL    HW1 5690   0.594   3.203   7.248
 1748SOL    HW2 5691   0.669   3.348   7.241
 1749SOL     OW 5692   1.824   2.054   6.813
 1749SOL    HW1 5693   1.820   1.964   6.857
 1749SOL    HW2 5694   1.827   2.043   6.714
 1750SOL     OW 5695   0.428   2.286   6.106
 1750SOL    HW1 5696   0.458   2.214   6.044
 1750SOL    HW2 5697   0.389   2.246   6.189
 1751SOL     OW 5698   1.705   3.349   6.690
 1751SOL    HW1 5699   1.612   3.324   6.663
 1751SOL    HW2 5700   1.731   3.299   6.772
 1752SOL     OW 5701   0.317   2.409   6.866
 1752SOL    HW1 5702   0.355   2.350   6.938
 1752SOL    HW2 5703   0.357   2.383   6.778
 1753SOL     OW 5704   0.812   3.448   6.273
 1753SOL    HW1 5705   0.844   3.458   6.179
 1753SOL    HW2 5706   0.733   3.386   6.275
 1754SOL     OW 5707   1.424   2.076   6.698
 1754SOL    HW1 5708   1.476   2.011   6.753
 1754SOL    HW2 5709   1.375   2.139   6.759
 1755SOL     OW 5710   1.001   1.896   6.740
 1755SOL    HW1 5711   0.938   1.824   6.709
 1755SOL    HW2 5712   1.094   1.860   6.740
 1756SOL     OW 5713   0.770   3.192   5.887
 1756SOL    HW1 5714   0.724   3.105   5.904
 1756SOL    HW2 5715   0.861   3.189   5.928
 1757SOL     OW 5716   0.618   3.429   6.870
 1757SOL    HW1 5717   0.613   3.511   6.927
 1757SOL    HW2 5718   0.707   3.426   6.825
 1758SOL     OW 5719   1.352   1.914   5.754
 1758SOL    HW1 5720   1.387   1.873   5.670
 1758SOL    HW2 5721   1.262   1.876   5.774
 1759SOL     OW 5722   1.300   2.315   6.277
 1759SOL    HW1 5723   1.241   2.395   6.281
 1759SOL    HW2 5724   1.315   2.280   6.370
 1760SOL     OW 5725   1.593   2.083   6.468
 1760SOL    HW1 5726   1.509   2.082   6.522
 1760SOL    HW2 5727   1.595   2.166   6.412
 1761SOL     OW 5728   0.039   2.939   5.886
 1761SOL    HW1 5729   0.138   2.928   5.877
 1761SOL    HW2 5730  -0.001   2.853   5.918
 1762SOL     OW 5731   0.875   3.508   5.923
 1762SOL    HW1 5732   0.798   3.473   5.869
 1762SOL    HW2 5733   0.843   3.579   5.985
 1763SOL     OW 5734   0.230   2.490   7.561
 1763SOL    HW1 5735   0.137   2.488   7.598
 1763SOL    HW2 5736   0.231   2.451   7.469
 1764SOL     OW 5737   1.755   2.469   7.679
 1764SOL    HW1 5738   1.743   2.456   7.580
 1764SOL    HW2 5739   1.725   2.388   7.728
 1765SOL     OW 5740   0.231   3.575   7.931
 1765SOL    HW1 5741   0.265   3.652   7.985
 1765SOL    HW2 5742   0.275   3.575   7.841
 1766SOL     OW 5743   0.230   3.296   7.986
 1766SOL    HW1 5744   0.204   3.392   7.986
 1766SOL    HW2 5745   0.159   3.242   8.031
 1767SOL     OW 5746   0.606   2.826   7.571
 1767SOL    HW1 5747   0.613   2.910   7.517
 1767SOL    HW2 5748   0.652   2.839   7.659
 1768SOL     OW 5749   1.842   3.629   7.807
 1768SOL    HW1 5750   1.896   3.600   7.887
 1768SOL    HW2 5751   1.872   3.719   7.778
 1769SOL     OW 5752   0.027   3.458   7.565
 1769SOL    HW1 5753   0.008   3.362   7.586
 1769SOL    HW2 5754  -0.006   3.516   7.640
 1770SOL     OW 5755   1.689   2.784   8.060
 1770SOL    HW1 5756   1.784   2.755   8.068
 1770SOL    HW2 5757   1.681   2.849   7.985
 1771SOL     OW 5758   1.641   2.970   7.880
 1771SOL    HW1 5759   1.727   2.972   7.828
 1771SOL    HW2 5760   1.655   3.017   7.968
 1772SOL     OW 5761   0.809   1.866   7.950
 1772SOL    HW1 5762   0.849   1.957   7.941
 1772SOL    HW2 5763   0.709   1.874   7.956
 1773SOL     OW 5764   1.525   2.861   7.638
 1773SOL    HW1 5765   1.462   2.785   7.651
 1773SOL    HW2 5766   1.573   2.879   7.724
 1774SOL     OW 5767   0.598   2.591   7.718
 1774SOL    HW1 5768   0.622   2.660   7.650
 1774SOL    HW2 5769   0.520   2.624   7.772
 1775SOL     OW 5770   1.576   3.524   7.755
 1775SOL    HW1 5771   1.665   3.570   7.758
 1775SOL    HW2 5772   1.555   3.500   7.660
 1776SOL     OW 5773   0.076   2.673   8.237
 1776SOL    HW1 5774   0.175   2.661   8.246
 1776SOL    HW2 5775   0.052   2.768   8.258
 1777SOL     OW 5776   0.865   2.210   7.643
 1777SOL    HW1 5777   0.924   2.273   7.594
 1777SOL    HW2 5778   0.884   2.116   7.614
 1778SOL     OW 5779   0.321   2.805   7.690
 1778SOL    HW1 5780   0.403   2.844   7.648
 1778SOL    HW2 5781   0.294   2.723   7.641
 1779SOL     OW 5782   1.111   3.638   7.685
 1779SOL    HW1 5783   1.051   3.576   7.735
 1779SOL    HW2 5784   1.142   3.594   7.600
 1780SOL     OW 5785   1.632   3.239   7.529
 1780SOL    HW1 5786   1.600   3.333   7.519
 1780SOL    HW2 5787   1.556   3.176   7.517
 1781SOL     OW 5788   0.464   3.605   7.771
 1781SOL    HW1 5789   0.497   3.644   7.857
 1781SOL    HW2 5790   0.540   3.598   7.706
 1782SOL     OW 5791   1.400   1.969   7.874
 1782SOL    HW1 5792   1.376   1.932   7.784
 1782SOL    HW2 5793   1.499   1.985   7.878
 1783SOL     OW 5794   0.382   2.562   7.928
 1783SOL    HW1 5795   0.427   2.472   7.925
 1783SOL    HW2 5796   0.288   2.551   7.961
 1784SOL     OW 5797   0.614   1.984   7.565
 1784SOL    HW1 5798   0.712   1.962   7.572
 1784SOL    HW2 5799   0.583   1.967   7.472
 1785SOL     OW 5800   0.539   1.926   7.960
 1785SOL    HW1 5801   0.458   1.927   8.018
 1785SOL    HW2 5802   0.542   2.009   7.905
 1786SOL     OW 5803   1.434   3.050   7.489
 1786SOL    HW1 5804   1.466   2.974   7.546
 1786SOL    HW2 5805   1.342   3.077   7.519
 1787SOL     OW 5806   0.297   1.897   7.619
 1787SOL    HW1 5807   0.346   1.981   7.598
 1787SOL    HW2 5808   0.359   1.832   7.664
 1788SOL     OW 5809   0.935   2.098   7.928
 1788SOL    HW1 5810   0.887   2.139   7.850
 1788SOL    HW2 5811   1.034   2.096   7.909
 1789SOL     OW 5812   0.459   3.014   8.189
 1789SOL    HW1 5813   0.388   2.987   8.254
 1789SOL    HW2 5814   0.433   2.986   8.096
 1790SOL     OW 5815   1.271   3.659   8.039
 1790SOL    HW1 5816   1.315   3.723   7.975
 1790SOL    HW2 5817   1.221   3.711   8.109
 1791SOL     OW 5818   1.032   2.411   7.464
 1791SOL    HW1 5819   0.991   2.493   7.425
 1791SOL    HW2 5820   1.096   2.437   7.537
 1792SOL     OW 5821   1.857   2.695   7.825
 1792SOL    HW1 5822   1.899   2.631   7.889
 1792SOL    HW2 5823   1.819   2.644   7.747
 1793SOL     OW 5824   0.488   3.247   7.622
 1793SOL    HW1 5825   0.401   3.232   7.669
 1793SOL    HW2 5826   0.471   3.273   7.527
 1794SOL     OW 5827   1.390   2.437   7.526
 1794SOL    HW1 5828   1.336   2.416   7.607
 1794SOL    HW2 5829   1.481   2.396   7.535
 1795SOL     OW 5830   0.527   2.118   7.776
 1795SOL    HW1 5831   0.554   2.059   7.701
 1795SOL    HW2 5832   0.527   2.213   7.745
 1796SOL     OW 5833   0.705   2.912   7.816
 1796SOL    HW1 5834   0.691   2.919   7.915
 1796SOL    HW2 5835   0.789   2.861   7.798
 1797SOL     OW 5836   0.367   2.962   7.949
 1797SOL    HW1 5837   0.360   3.045   7.893
 1797SOL    HW2 5838   0.371   2.882   7.889
 1798SOL     OW 5839   1.252   3.210   7.836
 1798SOL    HW1 5840   1.302   3.287   7.876
 1798SOL    HW2 5841   1.157   3.212   7.868
 1799SOL     OW 5842   1.582   2.501   7.920
 1799SOL    HW1 5843   1.551   2.562   7.993
 1799SOL    HW2 5844   1.632   2.553   7.851
 1800SOL     OW 5845   1.209   2.387   7.723
 1800SOL    HW1 5846   1.222   2.303   7.777
 1800SOL    HW2 5847   1.180   2.461   7.783
 1801SOL     OW 5848   1.622   2.229   7.822
 1801SOL    HW1 5849   1.624   2.153   7.886
 1801SOL    HW2 5850   1.574   2.306   7.862
 1802SOL     OW 5851   1.540   2.136   7.573
 1802SOL    HW1 5852   1.479   2.061   7.596
 1802SOL    HW2 5853   1.562   2.188   7.656
 1803SOL     OW 5854   1.303   2.700   7.490
 1803SOL    HW1 5855   1.337   2.607   7.505
 1803SOL    HW2 5856   1.321   2.727   7.395
 1804SOL     OW 5857   0.008   3.188   7.648
 1804SOL    HW1 5858  -0.085   3.209   7.617
 1804SOL    HW2 5859   0.018   3.089   7.661
 1805SOL     OW 5860   0.815   2.434   7.773
 1805SOL    HW1 5861   0.822   2.345   7.727
 1805SOL    HW2 5862   0.721   2.468   7.765
 1806SOL     OW 5863   0.473   2.362   7.639
 1806SOL    HW1 5864   0.534   2.442   7.643
 1806SOL    HW2 5865   0.378   2.393   7.646
 1807SOL     OW 5866   1.302   2.717   7.757
 1807SOL    HW1 5867   1.216   2.686   7.799
 1807SOL    HW2 5868   1.298   2.703   7.658
 1808SOL     OW 5869   1.726   1.997   7.971
 1808SOL    HW1 5870   1.799   1.980   7.904
 1808SOL    HW2 5871   1.695   1.910   8.009
 1809SOL     OW 5872   1.388   3.435   7.925
 1809SOL    HW1 5873   1.455   3.447   7.851
 1809SOL    HW2 5874   1.348   3.524   7.948
 1810SOL     OW 5875   0.672   3.478   7.602
 1810SOL    HW1 5876   0.681   3.488   7.503
 1810SOL    HW2 5877   0.632   3.389   7.623
 1811SOL     OW 5878   1.194   3.474   7.479
 1811SOL    HW1 5879   1.200   3.381   7.516
 1811SOL    HW2 5880   1.135   3.474   7.399
 1812SOL     OW 5881   0.916   2.772   7.739
 1812SOL    HW1 5882   0.979   2.810   7.671
 1812SOL    HW2 5883   0.956   2.689   7.778
 1813SOL     OW 5884   1.504   3.469   7.492
 1813SOL    HW1 5885   1.412   3.506   7.499
 1813SOL    HW2 5886   1.542   3.489   7.402
 1814SOL     OW 5887   0.590   3.349   7.939
 1814SOL    HW1 5888   0.632   3.291   7.869
 1814SOL    HW2 5889   0.546   3.428   7.895
 1815SOL     OW 5890   0.255   3.210   7.738
 1815SOL    HW1 5891   0.159   3.211   7.711
 1815SOL    HW2 5892   0.267   3.263   7.822
 1816SOL     OW 5893   0.075   2.207   7.481
 1816SOL    HW1 5894  -0.017   2.179   7.452
 1816SOL    HW2 5895   0.106   2.284   7.425
 1817SOL     OW 5896   0.072   2.028   7.766
 1817SOL    HW1 5897   0.055   2.111   7.712
 1817SOL    HW2 5898   0.162   1.991   7.744
 1818SOL     OW 5899   1.183   3.197   7.567
 1818SOL    HW1 5900   1.084   3.186   7.569
 1818SOL    HW2 5901   1.217   3.212   7.660
 1819SOL     OW 5902   1.225   2.187   7.897
 1819SOL    HW1 5903   1.290   2.113   7.886
 1819SOL    HW2 5904   1.245   2.237   7.981
 1820SOL     OW 5905   0.594   2.607   8.100
 1820SOL    HW1 5906   0.644   2.692   8.081
 1820SOL    HW2 5907   0.506   2.609   8.052
 1821SOL     OW 5908   0.859   3.236   7.464
 1821SOL    HW1 5909   0.813   3.251   7.552
 1821SOL    HW2 5910   0.903   3.321   7.434
 1822SOL     OW 5911   1.083   2.846   7.535
 1822SOL    HW1 5912   1.060   2.899   7.453
 1822SOL    HW2 5913   1.164   2.790   7.516
 1823SOL     OW 5914   0.428   2.286   7.968
 1823SOL    HW1 5915   0.458   2.214   7.906
 1823SOL    HW2 5916   0.389   2.246   8.051
 1824SOL     OW 5917   0.770   3.192   7.749
 1824SOL    HW1 5918   0.724   3.105   7.766
 1824SOL    HW2 5919   0.861   3.189   7.790
 1825SOL     OW 5920   1.352   1.914   7.616
 1825SOL    HW1 5921   1.387   1.873   7.532
 1825SOL    HW2 5922   1.262   1.876   7.636
 1826SOL     OW 5923   0.039   2.939   7.748
 1826SOL    HW1 5924   0.138   2.928   7.739
 1826SOL    HW2 5925  -0.001   2.853   7.780
 1827SOL     OW 5926   0.875   3.508   7.785
 1827SOL    HW1 5927   0.798   3.473   7.731
 1827SOL    HW2 5928   0.843   3.579   7.847
 1828SOL     OW 5929   0.230   4.352   0.113
 1828SOL    HW1 5930   0.137   4.350   0.150
 1828SOL    HW2 5931   0.231   4.313   0.021
 1829SOL     OW 5932   0.225   3.999   0.996
 1829SOL    HW1 5933   0.260   3.982   1.088
 1829SOL    HW2 5934   0.137   3.954   0.984
 1830SOL     OW 5935   0.019   4.092   0.647
 1830SOL    HW1 5936  -0.063   4.135   0.686
 1830SOL    HW2 5937  -0.009   4.019   0.584
 1831SOL     OW 5938   0.569   4.999   1.165
 1831SOL    HW1 5939   0.476   4.992   1.128
 1831SOL    HW2 5940   0.580   5.088   1.209
 1832SOL     OW 5941   1.555   5.235   0.703
 1832SOL    HW1 5942   1.498   5.219   0.784
 1832SOL    HW2 5943   1.496   5.245   0.623
 1833SOL     OW 5944   1.135   4.427   0.717
 1833SOL    HW1 5945   1.192   4.505   0.692
 1833SOL    HW2 5946   1.075   4.453   0.793
 1834SOL     OW 5947   1.755   4.331   0.231
 1834SOL    HW1 5948   1.743   4.318   0.132
 1834SOL    HW2 5949   1.725   4.250   0.280
 1835SOL     OW 5950   0.768   4.868   1.023
 1835SOL    HW1 5951   0.690   4.885   1.083
 1835SOL    HW2 5952   0.802   4.955   0.987
 1836SOL     OW 5953   0.850   4.522   1.823
 1836SOL    HW1 5954   0.846   4.598   1.888
 1836SOL    HW2 5955   0.872   4.558   1.732
 1837SOL     OW 5956   0.685   4.736   0.665
 1837SOL    HW1 5957   0.754   4.720   0.735
 1837SOL    HW2 5958   0.612   4.793   0.703
 1838SOL     OW 5959   0.686   4.885   1.803
 1838SOL    HW1 5960   0.746   4.964   1.817
 1838SOL    HW2 5961   0.600   4.916   1.762
 1839SOL     OW 5962   0.335   5.159   1.061
 1839SOL    HW1 5963   0.257   5.128   1.008
 1839SOL    HW2 5964   0.393   5.217   1.004
 1840SOL     OW 5965   1.460   5.229   1.339
 1840SOL    HW1 5966   1.484   5.323   1.365
 1840SOL    HW2 5967   1.444   5.175   1.421
 1841SOL     OW 5968   0.438   4.116   1.499
 1841SOL    HW1 5969   0.520   4.060   1.508
 1841SOL    HW2 5970   0.357   4.058   1.503
 1842SOL     OW 5971   1.603   4.171   0.737
 1842SOL    HW1 5972   1.529   4.217   0.687
 1842SOL    HW2 5973   1.654   4.239   0.790
 1843SOL     OW 5974   1.127   5.065   1.690
 1843SOL    HW1 5975   1.174   5.065   1.778
 1843SOL    HW2 5976   1.079   4.978   1.679
 1844SOL     OW 5977   0.230   5.158   0.538
 1844SOL    HW1 5978   0.204   5.254   0.538
 1844SOL    HW2 5979   0.159   5.104   0.583
 1845SOL     OW 5980   0.240   4.815   0.886
 1845SOL    HW1 5981   0.254   4.731   0.938
 1845SOL    HW2 5982   0.185   4.879   0.941
 1846SOL     OW 5983   0.606   4.688   0.123
 1846SOL    HW1 5984   0.613   4.772   0.069
 1846SOL    HW2 5985   0.652   4.701   0.211
 1847SOL     OW 5986   1.594   3.838   1.480
 1847SOL    HW1 5987   1.576   3.905   1.408
 1847SOL    HW2 5988   1.591   3.884   1.569
 1848SOL     OW 5989   0.122   4.367   0.563
 1848SOL    HW1 5990   0.077   4.279   0.580
 1848SOL    HW2 5991   0.121   4.421   0.647
 1849SOL     OW 5992   0.027   5.320   0.117
 1849SOL    HW1 5993   0.008   5.224   0.138
 1849SOL    HW2 5994  -0.006   5.378   0.192
 1850SOL     OW 5995   1.689   4.646   0.612
 1850SOL    HW1 5996   1.784   4.617   0.620
 1850SOL    HW2 5997   1.681   4.711   0.537
 1851SOL     OW 5998   1.641   4.832   0.432
 1851SOL    HW1 5999   1.727   4.834   0.380
 1851SOL    HW2 6000   1.655   4.879   0.520
 1852SOL     OW 6001   0.113   4.461   1.597
 1852SOL    HW1 6002   0.201   4.448   1.642
 1852SOL    HW2 6003   0.100   4.558   1.575
 1853SOL     OW 6004   0.613   5.089   0.726
 1853SOL    HW1 6005   0.564   5.002   0.735
 1853SOL    HW2 6006   0.590   5.132   0.639
 1854SOL     OW 6007   1.293   4.952   1.423
 1854SOL    HW1 6008   1.330   4.879   1.365
 1854SOL    HW2 6009   1.345   4.957   1.508
 1855SOL     OW 6010   0.809   3.728   0.502
 1855SOL    HW1 6011   0.849   3.819   0.493
 1855SOL    HW2 6012   0.709   3.736   0.508
 1856SOL     OW 6013   0.197   4.700   1.264
 1856SOL    HW1 6014   0.286   4.655   1.250
 1856SOL    HW2 6015   0.124   4.635   1.245
 1857SOL     OW 6016   1.525   4.723   0.190
 1857SOL    HW1 6017   1.462   4.647   0.203
 1857SOL    HW2 6018   1.573   4.741   0.276
 1858SOL     OW 6019   0.317   3.975   1.801
 1858SOL    HW1 6020   0.388   4.046   1.807
 1858SOL    HW2 6021   0.229   4.014   1.829
 1859SOL     OW 6022   1.466   5.141   0.953
 1859SOL    HW1 6023   1.407   5.147   1.033
 1859SOL    HW2 6024   1.451   5.053   0.907
 1860SOL     OW 6025   0.598   4.453   0.270
 1860SOL    HW1 6026   0.622   4.522   0.202
 1860SOL    HW2 6027   0.520   4.486   0.324
 1861SOL     OW 6028   1.281   4.069   0.944
 1861SOL    HW1 6029   1.195   4.019   0.931
 1861SOL    HW2 6030   1.343   4.015   1.000
 1862SOL     OW 6031   0.807   4.329   1.465
 1862SOL    HW1 6032   0.760   4.326   1.554
 1862SOL    HW2 6033   0.756   4.274   1.399
 1863SOL     OW 6034   1.394   4.193   1.674
 1863SOL    HW1 6035   1.374   4.236   1.762
 1863SOL    HW2 6036   1.472   4.131   1.683
 1864SOL     OW 6037   0.973   4.614   1.572
 1864SOL    HW1 6038   1.019   4.530   1.543
 1864SOL    HW2 6039   0.917   4.648   1.497
 1865SOL     OW 6040   0.991   4.134   1.242
 1865SOL    HW1 6041   0.914   4.168   1.296
 1865SOL    HW2 6042   0.957   4.083   1.163
 1866SOL     OW 6043   1.041   4.425   0.429
 1866SOL    HW1 6044   1.067   4.421   0.525
 1866SOL    HW2 6045   0.956   4.374   0.415
 1867SOL     OW 6046   0.076   4.535   0.789
 1867SOL    HW1 6047   0.175   4.523   0.798
 1867SOL    HW2 6048   0.052   4.630   0.810
 1868SOL     OW 6049   0.865   4.072   0.195
 1868SOL    HW1 6050   0.924   4.135   0.146
 1868SOL    HW2 6051   0.884   3.978   0.166
 1869SOL     OW 6052   1.719   4.309   1.831
 1869SOL    HW1 6053   1.693   4.398   1.795
 1869SOL    HW2 6054   1.717   4.241   1.758
 1870SOL     OW 6055   1.362   4.868   0.545
 1870SOL    HW1 6056   1.445   4.839   0.497
 1870SOL    HW2 6057   1.313   4.935   0.489
 1871SOL     OW 6058   0.550   3.920   0.885
 1871SOL    HW1 6059   0.545   3.915   0.985
 1871SOL    HW2 6060   0.552   4.016   0.856
 1872SOL     OW 6061   1.008   5.180   0.477
 1872SOL    HW1 6062   0.962   5.252   0.425
 1872SOL    HW2 6063   1.004   5.200   0.575
 1873SOL     OW 6064   1.795   4.790   0.873
 1873SOL    HW1 6065   1.733   4.775   0.797
 1873SOL    HW2 6066   1.743   4.801   0.958
 1874SOL     OW 6067   1.227   5.274   1.506
 1874SOL    HW1 6068   1.233   5.197   1.570
 1874SOL    HW2 6069   1.175   5.248   1.426
 1875SOL     OW 6070   0.321   4.667   0.242
 1875SOL    HW1 6071   0.403   4.706   0.200
 1875SOL    HW2 6072   0.294   4.585   0.193
 1876SOL     OW 6073   1.458   4.459   0.728
 1876SOL    HW1 6074   1.453   4.394   0.803
 1876SOL    HW2 6075   1.538   4.518   0.741
 1877SOL     OW 6076   0.461   4.990   1.727
 1877SOL    HW1 6077   0.411   4.991   1.641
 1877SOL    HW2 6078   0.398   4.972   1.803
 1878SOL     OW 6079   1.111   5.500   0.237
 1878SOL    HW1 6080   1.051   5.438   0.287
 1878SOL    HW2 6081   1.142   5.456   0.152
 1879SOL     OW 6082   0.202   4.009   1.498
 1879SOL    HW1 6083   0.122   4.069   1.485
 1879SOL    HW2 6084   0.192   3.960   1.584
 1880SOL     OW 6085   1.632   5.101   0.081
 1880SOL    HW1 6086   1.600   5.195   0.071
 1880SOL    HW2 6087   1.556   5.038   0.069
 1881SOL     OW 6088   1.400   3.831   0.426
 1881SOL    HW1 6089   1.376   3.794   0.336
 1881SOL    HW2 6090   1.499   3.847   0.430
 1882SOL     OW 6091   0.382   4.424   0.480
 1882SOL    HW1 6092   0.427   4.334   0.477
 1882SOL    HW2 6093   0.288   4.413   0.513
 1883SOL     OW 6094   1.547   3.946   1.729
 1883SOL    HW1 6095   1.542   3.983   1.821
 1883SOL    HW2 6096   1.475   3.877   1.717
 1884SOL     OW 6097   0.614   3.846   0.117
 1884SOL    HW1 6098   0.712   3.824   0.124
 1884SOL    HW2 6099   0.583   3.829   0.024
 1885SOL     OW 6100   0.781   3.988   1.749
 1885SOL    HW1 6101   0.848   3.927   1.792
 1885SOL    HW2 6102   0.708   4.007   1.814
 1886SOL     OW 6103   1.351   4.314   1.433
 1886SOL    HW1 6104   1.379   4.271   1.518
 1886SOL    HW2 6105   1.376   4.410   1.434
 1887SOL     OW 6106   0.803   5.126   0.924
 1887SOL    HW1 6107   0.893   5.140   0.882
 1887SOL    HW2 6108   0.732   5.128   0.853
 1888SOL     OW 6109   0.922   4.227   0.899
 1888SOL    HW1 6110   0.897   4.218   0.803
 1888SOL    HW2 6111   0.970   4.145   0.930
 1889SOL     OW 6112   0.539   3.788   0.512
 1889SOL    HW1 6113   0.458   3.789   0.570
 1889SOL    HW2 6114   0.542   3.871   0.457
 1890SOL     OW 6115   1.434   4.912   0.041
 1890SOL    HW1 6116   1.466   4.836   0.098
 1890SOL    HW2 6117   1.342   4.939   0.071
 1891SOL     OW 6118   0.297   3.759   0.171
 1891SOL    HW1 6119   0.346   3.843   0.150
 1891SOL    HW2 6120   0.359   3.694   0.216
 1892SOL     OW 6121   0.935   3.960   0.480
 1892SOL    HW1 6122   0.887   4.001   0.402
 1892SOL    HW2 6123   1.034   3.958   0.461
 1893SOL     OW 6124   1.076   4.407   1.464
 1893SOL    HW1 6125   0.996   4.346   1.467
 1893SOL    HW2 6126   1.157   4.354   1.440
 1894SOL     OW 6127   1.227   5.294   0.793
 1894SOL    HW1 6128   1.248   5.368   0.728
 1894SOL    HW2 6129   1.295   5.294   0.866
 1895SOL     OW 6130   0.459   4.876   0.741
 1895SOL    HW1 6131   0.388   4.849   0.806
 1895SOL    HW2 6132   0.433   4.848   0.648
 1896SOL     OW 6133   1.032   4.273   0.016
 1896SOL    HW1 6134   0.991   4.355  -0.023
 1896SOL    HW2 6135   1.096   4.299   0.089
 1897SOL     OW 6136   0.078   4.280   1.386
 1897SOL    HW1 6137   0.170   4.279   1.345
 1897SOL    HW2 6138   0.072   4.354   1.453
 1898SOL     OW 6139   0.561   3.946   1.147
 1898SOL    HW1 6140   0.599   3.862   1.184
 1898SOL    HW2 6141   0.473   3.965   1.191
 1899SOL     OW 6142   0.866   4.178   0.642
 1899SOL    HW1 6143   0.834   4.250   0.580
 1899SOL    HW2 6144   0.890   4.097   0.589
 1900SOL     OW 6145   1.017   3.763   0.753
 1900SOL    HW1 6146   0.945   3.768   0.684
 1900SOL    HW2 6147   0.993   3.694   0.822
 1901SOL     OW 6148   1.429   4.897   0.867
 1901SOL    HW1 6149   1.374   4.813   0.860
 1901SOL    HW2 6150   1.455   4.926   0.775
 1902SOL     OW 6151   1.466   4.314   0.992
 1902SOL    HW1 6152   1.436   4.219   0.999
 1902SOL    HW2 6153   1.539   4.330   1.058
 1903SOL     OW 6154   1.857   4.557   0.377
 1903SOL    HW1 6155   1.899   4.493   0.441
 1903SOL    HW2 6156   1.819   4.506   0.299
 1904SOL     OW 6157   0.488   5.109   0.174
 1904SOL    HW1 6158   0.401   5.094   0.221
 1904SOL    HW2 6159   0.471   5.135   0.079
 1905SOL     OW 6160   1.664   5.004   0.657
 1905SOL    HW1 6161   1.763   5.012   0.671
 1905SOL    HW2 6162   1.619   5.088   0.688
 1906SOL     OW 6163   1.390   4.299   0.078
 1906SOL    HW1 6164   1.336   4.278   0.159
 1906SOL    HW2 6165   1.481   4.258   0.087
 1907SOL     OW 6166   0.527   3.980   0.328
 1907SOL    HW1 6167   0.554   3.921   0.253
 1907SOL    HW2 6168   0.527   4.075   0.297
 1908SOL     OW 6169   1.754   4.947   1.588
 1908SOL    HW1 6170   1.845   4.908   1.575
 1908SOL    HW2 6171   1.762   5.043   1.612
 1909SOL     OW 6172   1.064   5.071   1.340
 1909SOL    HW1 6173   0.984   5.048   1.395
 1909SOL    HW2 6174   1.147   5.045   1.389
 1910SOL     OW 6175   1.111   4.919   1.100
 1910SOL    HW1 6176   1.071   4.963   1.181
 1910SOL    HW2 6177   1.070   4.956   1.017
 1911SOL     OW 6178   1.638   4.823   1.079
 1911SOL    HW1 6179   1.643   4.904   1.138
 1911SOL    HW2 6180   1.552   4.825   1.028
 1912SOL     OW 6181   0.915   3.813   1.402
 1912SOL    HW1 6182   0.940   3.793   1.307
 1912SOL    HW2 6183   0.987   3.869   1.444
 1913SOL     OW 6184   0.980   4.840   1.719
 1913SOL    HW1 6185   0.881   4.846   1.729
 1913SOL    HW2 6186   1.003   4.760   1.663
 1914SOL     OW 6187   0.705   4.774   0.368
 1914SOL    HW1 6188   0.691   4.781   0.467
 1914SOL    HW2 6189   0.789   4.723   0.350
 1915SOL     OW 6190   0.410   4.537   1.251
 1915SOL    HW1 6191   0.496   4.549   1.301
 1915SOL    HW2 6192   0.368   4.450   1.278
 1916SOL     OW 6193   1.274   4.110   1.262
 1916SOL    HW1 6194   1.295   4.184   1.326
 1916SOL    HW2 6195   1.185   4.127   1.219
 1917SOL     OW 6196   0.064   5.288   1.331
 1917SOL    HW1 6197   0.018   5.370   1.297
 1917SOL    HW2 6198   0.162   5.307   1.340
 1918SOL     OW 6199   0.367   4.824   0.501
 1918SOL    HW1 6200   0.360   4.907   0.445
 1918SOL    HW2 6201   0.371   4.744   0.441
 1919SOL     OW 6202   0.566   4.261   0.865
 1919SOL    HW1 6203   0.578   4.327   0.791
 1919SOL    HW2 6204   0.612   4.295   0.948
 1920SOL     OW 6205   1.252   5.072   0.388
 1920SOL    HW1 6206   1.302   5.149   0.428
 1920SOL    HW2 6207   1.157   5.074   0.420
 1921SOL     OW 6208   1.272   5.169   1.142
 1921SOL    HW1 6209   1.319   5.182   1.229
 1921SOL    HW2 6210   1.206   5.095   1.151
 1922SOL     OW 6211   1.582   4.363   0.472
 1922SOL    HW1 6212   1.551   4.424   0.545
 1922SOL    HW2 6213   1.632   4.415   0.403
 1923SOL     OW 6214   0.354   5.234   1.329
 1923SOL    HW1 6215   0.333   5.190   1.242
 1923SOL    HW2 6216   0.451   5.260   1.332
 1924SOL     OW 6217   0.402   4.475   1.598
 1924SOL    HW1 6218   0.470   4.530   1.551
 1924SOL    HW2 6219   0.442   4.387   1.625
 1925SOL     OW 6220   1.587   4.503   1.670
 1925SOL    HW1 6221   1.495   4.541   1.665
 1925SOL    HW2 6222   1.647   4.550   1.605
 1926SOL     OW 6223   1.013   3.829   1.770
 1926SOL    HW1 6224   1.019   3.914   1.718
 1926SOL    HW2 6225   1.045   3.753   1.713
 1927SOL     OW 6226   0.504   3.774   1.740
 1927SOL    HW1 6227   0.462   3.717   1.670
 1927SOL    HW2 6228   0.438   3.843   1.772
 1928SOL     OW 6229   0.573   4.594   1.029
 1928SOL    HW1 6230   0.617   4.683   1.020
 1928SOL    HW2 6231   0.510   4.594   1.106
 1929SOL     OW 6232   1.360   4.586   1.045
 1929SOL    HW1 6233   1.285   4.586   0.979
 1929SOL    HW2 6234   1.397   4.494   1.054
 1930SOL     OW 6235   1.209   4.249   0.275
 1930SOL    HW1 6236   1.222   4.165   0.329
 1930SOL    HW2 6237   1.180   4.323   0.335
 1931SOL     OW 6238   0.307   3.937   1.231
 1931SOL    HW1 6239   0.284   3.974   1.321
 1931SOL    HW2 6240   0.277   3.842   1.225
 1932SOL     OW 6241   0.037   5.034   1.282
 1932SOL    HW1 6242   0.090   4.985   1.350
 1932SOL    HW2 6243   0.059   5.132   1.287
 1933SOL     OW 6244   0.732   4.358   1.064
 1933SOL    HW1 6245   0.791   4.332   0.988
 1933SOL    HW2 6246   0.704   4.454   1.053
 1934SOL     OW 6247   1.728   4.659   1.854
 1934SOL    HW1 6248   1.682   4.652   1.765
 1934SOL    HW2 6249   1.666   4.703   1.920
 1935SOL     OW 6250   0.307   3.787   0.618
 1935SOL    HW1 6251   0.296   3.881   0.651
 1935SOL    HW2 6252   0.302   3.724   0.695
 1936SOL     OW 6253   1.622   4.091   0.374
 1936SOL    HW1 6254   1.624   4.015   0.438
 1936SOL    HW2 6255   1.574   4.168   0.414
 1937SOL     OW 6256   1.023   4.490   0.966
 1937SOL    HW1 6257   1.038   4.511   1.062
 1937SOL    HW2 6258   0.993   4.395   0.957
 1938SOL     OW 6259   1.859   5.242   1.605
 1938SOL    HW1 6260   1.873   5.269   1.510
 1938SOL    HW2 6261   1.942   5.264   1.658
 1939SOL     OW 6262   0.350   4.622   1.804
 1939SOL    HW1 6263   0.426   4.666   1.852
 1939SOL    HW2 6264   0.385   4.575   1.722
 1940SOL     OW 6265   1.540   3.998   0.125
 1940SOL    HW1 6266   1.479   3.923   0.148
 1940SOL    HW2 6267   1.562   4.050   0.208
 1941SOL     OW 6268   1.303   4.562   0.042
 1941SOL    HW1 6269   1.337   4.469   0.057
 1941SOL    HW2 6270   1.321   4.589  -0.053
 1942SOL     OW 6271   1.068   5.057   0.849
 1942SOL    HW1 6272   1.075   4.973   0.794
 1942SOL    HW2 6273   1.130   5.126   0.813
 1943SOL     OW 6274   0.319   4.534   0.949
 1943SOL    HW1 6275   0.412   4.570   0.954
 1943SOL    HW2 6276   0.313   4.449   1.001
 1944SOL     OW 6277   0.339   4.233   1.006
 1944SOL    HW1 6278   0.287   4.150   0.989
 1944SOL    HW2 6279   0.416   4.238   0.942
 1945SOL     OW 6280   1.138   4.104   1.678
 1945SOL    HW1 6281   1.093   4.167   1.742
 1945SOL    HW2 6282   1.231   4.135   1.661
 1946SOL     OW 6283   1.160   3.931   1.477
 1946SOL    HW1 6284   1.160   3.995   1.554
 1946SOL    HW2 6285   1.188   3.979   1.394
 1947SOL     OW 6286   0.008   5.050   0.200
 1947SOL    HW1 6287  -0.085   5.071   0.169
 1947SOL    HW2 6288   0.018   4.951   0.213
 1948SOL     OW 6289   1.002   4.520   1.238
 1948SOL    HW1 6290   1.043   4.488   1.324
 1948SOL    HW2 6291   0.906   4.493   1.235
 1949SOL     OW 6292   0.040   4.268   1.114
 1949SOL    HW1 6293   0.125   4.235   1.073
 1949SOL    HW2 6294   0.053   4.283   1.212
 1950SOL     OW 6295   0.189   4.244   1.722
 1950SOL    HW1 6296   0.248   4.204   1.652
 1950SOL    HW2 6297   0.131   4.315   1.681
 1951SOL     OW 6298   1.369   4.674   1.660
 1951SOL    HW1 6299   1.408   4.763   1.680
 1951SOL    HW2 6300   1.379   4.654   1.563
 1952SOL     OW 6301   0.815   4.296   0.325
 1952SOL    HW1 6302   0.822   4.207   0.279
 1952SOL    HW2 6303   0.721   4.330   0.317
 1953SOL     OW 6304   1.657   4.328   1.206
 1953SOL    HW1 6305   1.619   4.259   1.268
 1953SOL    HW2 6306   1.739   4.292   1.162
 1954SOL     OW 6307   0.252   5.288   1.744
 1954SOL    HW1 6308   0.222   5.345   1.820
 1954SOL    HW2 6309   0.245   5.191   1.770
 1955SOL     OW 6310   0.671   4.188   1.269
 1955SOL    HW1 6311   0.637   4.099   1.239
 1955SOL    HW2 6312   0.697   4.242   1.189
 1956SOL     OW 6313   0.473   4.224   0.191
 1956SOL    HW1 6314   0.534   4.304   0.195
 1956SOL    HW2 6315   0.378   4.255   0.198
 1957SOL     OW 6316   0.159   4.861   1.466
 1957SOL    HW1 6317   0.181   4.800   1.542
 1957SOL    HW2 6318   0.169   4.812   1.380
 1958SOL     OW 6319   1.347   4.783   1.234
 1958SOL    HW1 6320   1.371   4.720   1.160
 1958SOL    HW2 6321   1.257   4.823   1.216
 1959SOL     OW 6322   1.302   4.579   0.309
 1959SOL    HW1 6323   1.216   4.548   0.351
 1959SOL    HW2 6324   1.298   4.565   0.210
 1960SOL     OW 6325   0.083   4.982   1.022
 1960SOL    HW1 6326   0.078   4.981   1.122
 1960SOL    HW2 6327   0.000   4.941   0.984
 1961SOL     OW 6328   0.688   5.386   1.716
 1961SOL    HW1 6329   0.632   5.467   1.725
 1961SOL    HW2 6330   0.740   5.390   1.630
 1962SOL     OW 6331   0.903   3.810   0.133
 1962SOL    HW1 6332   0.954   3.811   0.047
 1962SOL    HW2 6333   0.959   3.768   0.204
 1963SOL     OW 6334   1.726   3.859   0.523
 1963SOL    HW1 6335   1.799   3.842   0.456
 1963SOL    HW2 6336   1.695   3.772   0.561
 1964SOL     OW 6337   1.280   4.651   0.672
 1964SOL    HW1 6338   1.340   4.570   0.674
 1964SOL    HW2 6339   1.320   4.720   0.612
 1965SOL     OW 6340   0.830   4.997   1.422
 1965SOL    HW1 6341   0.825   5.030   1.517
 1965SOL    HW2 6342   0.744   5.016   1.376
 1966SOL     OW 6343   1.841   3.899   0.963
 1966SOL    HW1 6344   1.880   3.814   0.927
 1966SOL    HW2 6345   1.743   3.901   0.944
 1967SOL     OW 6346   0.263   4.050   0.720
 1967SOL    HW1 6347   0.184   4.101   0.686
 1967SOL    HW2 6348   0.254   4.035   0.818
 1968SOL     OW 6349   1.194   5.336   0.031
 1968SOL    HW1 6350   1.200   5.243   0.068
 1968SOL    HW2 6351   1.135   5.336  -0.049
 1969SOL     OW 6352   0.822   4.726   1.372
 1969SOL    HW1 6353   0.862   4.725   1.280
 1969SOL    HW2 6354   0.832   4.818   1.412
 1970SOL     OW 6355   0.916   4.634   0.291
 1970SOL    HW1 6356   0.979   4.672   0.223
 1970SOL    HW2 6357   0.956   4.551   0.330
 1971SOL     OW 6358   0.372   5.012   1.490
 1971SOL    HW1 6359   0.359   5.105   1.456
 1971SOL    HW2 6360   0.288   4.960   1.477
 1972SOL     OW 6361   1.614   5.016   1.289
 1972SOL    HW1 6362   1.674   5.019   1.369
 1972SOL    HW2 6363   1.539   5.080   1.302
 1973SOL     OW 6364   1.039   4.822   0.696
 1973SOL    HW1 6365   0.969   4.775   0.750
 1973SOL    HW2 6366   1.098   4.754   0.653
 1974SOL     OW 6367   1.014   3.960   0.971
 1974SOL    HW1 6368   1.006   3.924   0.878
 1974SOL    HW2 6369   1.012   3.884   1.036
 1975SOL     OW 6370   1.709   4.109   1.381
 1975SOL    HW1 6371   1.782   4.178   1.385
 1975SOL    HW2 6372   1.737   4.034   1.322
 1976SOL     OW 6373   0.255   5.072   0.290
 1976SOL    HW1 6374   0.159   5.073   0.263
 1976SOL    HW2 6375   0.267   5.125   0.374
 1977SOL     OW 6376   0.105   4.737   1.726
 1977SOL    HW1 6377   0.028   4.704   1.780
 1977SOL    HW2 6378   0.190   4.707   1.768
 1978SOL     OW 6379   0.672   3.927   1.489
 1978SOL    HW1 6380   0.762   3.911   1.449
 1978SOL    HW2 6381   0.680   3.932   1.588
 1979SOL     OW 6382   0.075   4.069   0.033
 1979SOL    HW1 6383  -0.017   4.041   0.004
 1979SOL    HW2 6384   0.106   4.146  -0.023
 1980SOL     OW 6385   1.440   4.580   1.398
 1980SOL    HW1 6386   1.383   4.632   1.335
 1980SOL    HW2 6387   1.536   4.592   1.374
 1981SOL     OW 6388   0.072   3.890   0.318
 1981SOL    HW1 6389   0.055   3.973   0.264
 1981SOL    HW2 6390   0.162   3.853   0.296
 1982SOL     OW 6391   1.183   5.059   0.119
 1982SOL    HW1 6392   1.084   5.048   0.121
 1982SOL    HW2 6393   1.217   5.074   0.212
 1983SOL     OW 6394   0.613   4.566   1.431
 1983SOL    HW1 6395   0.669   4.647   1.414
 1983SOL    HW2 6396   0.672   4.486   1.434
 1984SOL     OW 6397   0.716   4.289   1.708
 1984SOL    HW1 6398   0.735   4.354   1.782
 1984SOL    HW2 6399   0.776   4.209   1.717
 1985SOL     OW 6400   1.450   4.944   1.633
 1985SOL    HW1 6401   1.441   4.934   1.732
 1985SOL    HW2 6402   1.546   4.937   1.607
 1986SOL     OW 6403   1.674   4.607   1.254
 1986SOL    HW1 6404   1.647   4.518   1.217
 1986SOL    HW2 6405   1.675   4.675   1.181
 1987SOL     OW 6406   1.225   4.049   0.449
 1987SOL    HW1 6407   1.290   3.975   0.438
 1987SOL    HW2 6408   1.245   4.099   0.533
 1988SOL     OW 6409   0.594   4.469   0.652
 1988SOL    HW1 6410   0.644   4.554   0.633
 1988SOL    HW2 6411   0.506   4.471   0.604
 1989SOL     OW 6412   1.777   4.066   1.642
 1989SOL    HW1 6413   1.760   4.097   1.548
 1989SOL    HW2 6414   1.693   4.029   1.680
 1990SOL     OW 6415   1.730   4.658   1.517
 1990SOL    HW1 6416   1.768   4.749   1.532
 1990SOL    HW2 6417   1.722   4.641   1.418
 1991SOL     OW 6418   0.859   5.098   0.016
 1991SOL    HW1 6419   0.813   5.113   0.104
 1991SOL    HW2 6420   0.903   5.183  -0.014
 1992SOL     OW 6421   0.859   4.680   0.861
 1992SOL    HW1 6422   0.913   4.611   0.909
 1992SOL    HW2 6423   0.827   4.749   0.927
 1993SOL     OW 6424   1.083   4.708   0.087
 1993SOL    HW1 6425   1.060   4.761   0.005
 1993SOL    HW2 6426   1.164   4.652   0.068
 1994SOL     OW 6427   0.221   5.038   1.844
 1994SOL    HW1 6428   0.156   4.965   1.823
 1994SOL    HW2 6429   0.225   5.052   1.942
 1995SOL     OW 6430   0.079   4.964   0.653
 1995SOL    HW1 6431   0.078   4.917   0.741
 1995SOL    HW2 6432   0.161   4.936   0.602
 1996SOL     OW 6433   0.672   5.115   1.624
 1996SOL    HW1 6434   0.594   5.065   1.662
 1996SOL    HW2 6435   0.669   5.210   1.655
 1997SOL     OW 6436   1.824   3.916   1.227
 1997SOL    HW1 6437   1.820   3.826   1.271
 1997SOL    HW2 6438   1.827   3.905   1.128
 1998SOL     OW 6439   0.428   4.148   0.520
 1998SOL    HW1 6440   0.458   4.076   0.458
 1998SOL    HW2 6441   0.389   4.108   0.603
 1999SOL     OW 6442   1.705   5.211   1.104
 1999SOL    HW1 6443   1.612   5.186   1.077
 1999SOL    HW2 6444   1.731   5.161   1.186
 2000SOL     OW 6445   0.317   4.271   1.280
 2000SOL    HW1 6446   0.355   4.212   1.352
 2000SOL    HW2 6447   0.357   4.245   1.192
 2001SOL     OW 6448   1.424   3.938   1.112
 2001SOL    HW1 6449   1.476   3.873   1.167
 2001SOL    HW2 6450   1.375   4.001   1.173
 2002SOL     OW 6451   1.001   3.758   1.154
 2002SOL    HW1 6452   0.938   3.686   1.123
 2002SOL    HW2 6453   1.094   3.722   1.154
 2003SOL     OW 6454   0.770   5.054   0.301
 2003SOL    HW1 6455   0.724   4.967   0.318
 2003SOL    HW2 6456   0.861   5.051   0.342
 2004SOL     OW 6457   0.618   5.291   1.284
 2004SOL    HW1 6458   0.613   5.373   1.341
 2004SOL    HW2 6459   0.707   5.288   1.239
 2005SOL     OW 6460   1.352   3.776   0.168
 2005SOL    HW1 6461   1.387   3.735   0.084
 2005SOL    HW2 6462   1.262   3.738   0.188
 2006SOL     OW 6463   1.300   4.177   0.691
 2006SOL    HW1 6464   1.241   4.257   0.695
 2006SOL    HW2 6465   1.315   4.142   0.784
 2007SOL     OW 6466   1.593   3.945   0.882
 2007SOL    HW1 6467   1.509   3.944   0.936
 2007SOL    HW2 6468   1.595   4.028   0.826
 2008SOL     OW 6469   0.039   4.801   0.300
 2008SOL    HW1 6470   0.138   4.790   0.291
 2008SOL    HW2 6471  -0.001   4.715   0.332
 2009SOL     OW 6472   0.230   4.352   1.975
 2009SOL    HW1 6473   0.137   4.350   2.012
 2009SOL    HW2 6474   0.231   4.313   1.883
 2010SOL     OW 6475   0.225   3.999   2.858
 2010SOL    HW1 6476   0.260   3.982   2.950
 2010SOL    HW2 6477   0.137   3.954   2.846
 2011SOL     OW 6478   0.019   4.092   2.509
 2011SOL    HW1 6479  -0.063   4.135   2.548
 2011SOL    HW2 6480  -0.009   4.019   2.446
 2012SOL     OW 6481   0.569   4.999   3.027
 2012SOL    HW1 6482   0.476   4.992   2.990
 2012SOL    HW2 6483   0.580   5.088   3.071
 2013SOL     OW 6484   1.555   5.235   2.565
 2013SOL    HW1 6485   1.498   5.219   2.646
 2013SOL    HW2 6486   1.496   5.245   2.485
 2014SOL     OW 6487   1.135   4.427   2.579
 2014SOL    HW1 6488   1.192   4.505   2.554
 2014SOL    HW2 6489   1.075   4.453   2.655
 2015SOL     OW 6490   1.755   4.331   2.093
 2015SOL    HW1 6491   1.743   4.318   1.994
 2015SOL    HW2 6492   1.725   4.250   2.142
 2016SOL     OW 6493   0.768   4.868   2.885
 2016SOL    HW1 6494   0.690   4.885   2.945
 2016SOL    HW2 6495   0.802   4.955   2.849
 2017SOL     OW 6496   0.850   4.522   3.685
 2017SOL    HW1 6497   0.846   4.598   3.750
 2017SOL    HW2 6498   0.872   4.558   3.594
 2018SOL     OW 6499   0.685   4.736   2.527
 2018SOL    HW1 6500   0.754   4.720   2.597
 2018SOL    HW2 6501   0.612   4.793   2.565
 2019SOL     OW 6502   0.686   4.885   3.665
 2019SOL    HW1 6503   0.746   4.964   3.679
 2019SOL    HW2 6504   0.600   4.916   3.624
 2020SOL     OW 6505   0.335   5.159   2.923
 2020SOL    HW1 6506   0.257   5.128   2.870
 2020SOL    HW2 6507   0.393   5.217   2.866
 2021SOL     OW 6508   1.460   5.229   3.201
 2021SOL    HW1 6509   1.484   5.323   3.227
 2021SOL    HW2 6510   1.444   5.175   3.283
 2022SOL     OW 6511   0.438   4.116   3.361
 2022SOL    HW1 6512   0.520   4.060   3.370
 2022SOL    HW2 6513   0.357   4.058   3.365
 2023SOL     OW 6514   1.603   4.171   2.599
 2023SOL    HW1 6515   1.529   4.217   2.549
 2023SOL    HW2 6516   1.654   4.239   2.652
 2024SOL     OW 6517   1.127   5.065   3.552
 2024SOL    HW1 6518   1.174   5.065   3.640
 2024SOL    HW2 6519   1.079   4.978   3.541
 2025SOL     OW 6520   0.230   5.158   2.400
 2025SOL    HW1 6521   0.204   5.254   2.400
 2025SOL    HW2 6522   0.159   5.104   2.445
 2026SOL     OW 6523   0.240   4.815   2.748
 2026SOL    HW1 6524   0.254   4.731   2.800
 2026SOL    HW2 6525   0.185   4.879   2.803
 2027SOL     OW 6526   0.606   4.688   1.985
 2027SOL    HW1 6527   0.613   4.772   1.931
 2027SOL    HW2 6528   0.652   4.701   2.073
 2028SOL     OW 6529   1.594   3.838   3.342
 2028SOL    HW1 6530   1.576   3.905   3.270
 2028SOL    HW2 6531   1.591   3.884   3.431
 2029SOL     OW 6532   0.122   4.367   2.425
 2029SOL    HW1 6533   0.077   4.279   2.442
 2029SOL    HW2 6534   0.121   4.421   2.509
 2030SOL     OW 6535   0.027   5.320   1.979
 2030SOL    HW1 6536   0.008   5.224   2.000
 2030SOL    HW2 6537  -0.006   5.378   2.054
 2031SOL     OW 6538   1.689   4.646   2.474
 2031SOL    HW1 6539   1.784   4.617   2.482
 2031SOL    HW2 6540   1.681   4.711   2.399
 2032SOL     OW 6541   1.641   4.832   2.294
 2032SOL    HW1 6542   1.727   4.834   2.242
 2032SOL    HW2 6543   1.655   4.879   2.382
 2033SOL     OW 6544   0.113   4.461   3.459
 2033SOL    HW1 6545   0.201   4.448   3.504
 2033SOL    HW2 6546   0.100   4.558   3.437
 2034SOL     OW 6547   0.613   5.089   2.588
 2034SOL    HW1 6548   0.564   5.002   2.597
 2034SOL    HW2 6549   0.590   5.132   2.501
 2035SOL     OW 6550   1.293   4.952   3.285
 2035SOL    HW1 6551   1.330   4.879   3.227
 2035SOL    HW2 6552   1.345   4.957   3.370
 2036SOL     OW 6553   0.809   3.728   2.364
 2036SOL    HW1 6554   0.849   3.819   2.355
 2036SOL    HW2 6555   0.709   3.736   2.370
 2037SOL     OW 6556   0.197   4.700   3.126
 2037SOL    HW1 6557   0.286   4.655   3.112
 2037SOL    HW2 6558   0.124   4.635   3.107
 2038SOL     OW 6559   1.525   4.723   2.052
 2038SOL    HW1 6560   1.462   4.647   2.065
 2038SOL    HW2 6561   1.573   4.741   2.138
 2039SOL     OW 6562   0.317   3.975   3.663
 2039SOL    HW1 6563   0.388   4.046   3.669
 2039SOL    HW2 6564   0.229   4.014   3.691
 2040SOL     OW 6565   1.466   5.141   2.815
 2040SOL    HW1 6566   1.407   5.147   2.895
 2040SOL    HW2 6567   1.451   5.053   2.769
 2041SOL     OW 6568   0.598   4.453   2.132
 2041SOL    HW1 6569   0.622   4.522   2.064
 2041SOL    HW2 6570   0.520   4.486   2.186
 2042SOL     OW 6571   1.281   4.069   2.806
 2042SOL    HW1 6572   1.195   4.019   2.793
 2042SOL    HW2 6573   1.343   4.015   2.862
 2043SOL     OW 6574   0.807   4.329   3.327
 2043SOL    HW1 6575   0.760   4.326   3.416
 2043SOL    HW2 6576   0.756   4.274   3.261
 2044SOL     OW 6577   1.394   4.193   3.536
 2044SOL    HW1 6578   1.374   4.236   3.624
 2044SOL    HW2 6579   1.472   4.131   3.545
 2045SOL     OW 6580   0.973   4.614   3.434
 2045SOL    HW1 6581   1.019   4.530   3.405
 2045SOL    HW2 6582   0.917   4.648   3.359
 2046SOL     OW 6583   0.991   4.134   3.104
 2046SOL    HW1 6584   0.914   4.168   3.158
 2046SOL    HW2 6585   0.957   4.083   3.025
 2047SOL     OW 6586   1.041   4.425   2.291
 2047SOL    HW1 6587   1.067   4.421   2.387
 2047SOL    HW2 6588   0.956   4.374   2.277
 2048SOL     OW 6589   0.076   4.535   2.651
 2048SOL    HW1 6590   0.175   4.523   2.660
 2048SOL    HW2 6591   0.052   4.630   2.672
 2049SOL     OW 6592   0.865   4.072   2.057
 2049SOL    HW1 6593   0.924   4.135   2.008
 2049SOL    HW2 6594   0.884   3.978   2.028
 2050SOL     OW 6595   1.719   4.309   3.693
 2050SOL    HW1 6596   1.693   4.398   3.657
 2050SOL    HW2 6597   1.717   4.241   3.620
 2051SOL     OW 6598   1.362   4.868   2.407
 2051SOL    HW1 6599   1.445   4.839   2.359
 2051SOL    HW2 6600   1.313   4.935   2.351
 2052SOL     OW 6601   0.550   3.920   2.747
 2052SOL    HW1 6602   0.545   3.915   2.847
 2052SOL    HW2 6603   0.552   4.016   2.718
 2053SOL     OW 6604   1.008   5.180   2.339
 2053SOL    HW1 6605   0.962   5.252   2.287
 2053SOL    HW2 6606   1.004   5.200   2.437
 2054SOL     OW 6607   1.795   4.790   2.735
 2054SOL    HW1 6608   1.733   4.775   2.659
 2054SOL    HW2 6609   1.743   4.801   2.820
 2055SOL     OW 6610   1.227   5.274   3.368
 2055SOL    HW1 6611   1.233   5.197   3.432
 2055SOL    HW2 6612   1.175   5.248   3.288
 2056SOL     OW 6613   0.321   4.667   2.104
 2056SOL    HW1 6614   0.403   4.706   2.062
 2056SOL    HW2 6615   0.294   4.585   2.055
 2057SOL     OW 6616   1.458   4.459   2.590
 2057SOL    HW1 6617   1.453   4.394   2.665
 2057SOL    HW2 6618   1.538   4.518   2.603
 2058SOL     OW 6619   0.461   4.990   3.589
 2058SOL    HW1 6620   0.411   4.991   3.503
 2058SOL    HW2 6621   0.398   4.972   3.665
 2059SOL     OW 6622   1.111   5.500   2.099
 2059SOL    HW1 6623   1.051   5.438   2.149
 2059SOL    HW2 6624   1.142   5.456   2.014
 2060SOL     OW 6625   0.202   4.009   3.360
 2060SOL    HW1 6626   0.122   4.069   3.347
 2060SOL    HW2 6627   0.192   3.960   3.446
 2061SOL     OW 6628   1.632   5.101   1.943
 2061SOL    HW1 6629   1.600   5.195   1.933
 2061SOL    HW2 6630   1.556   5.038   1.931
 2062SOL     OW 6631   1.400   3.831   2.288
 2062SOL    HW1 6632   1.376   3.794   2.198
 2062SOL    HW2 6633   1.499   3.847   2.292
 2063SOL     OW 6634   0.382   4.424   2.342
 2063SOL    HW1 6635   0.427   4.334   2.339
 2063SOL    HW2 6636   0.288   4.413   2.375
 2064SOL     OW 6637   1.547   3.946   3.591
 2064SOL    HW1 6638   1.542   3.983   3.683
 2064SOL    HW2 6639   1.475   3.877   3.579
 2065SOL     OW 6640   0.614   3.846   1.979
 2065SOL    HW1 6641   0.712   3.824   1.986
 2065SOL    HW2 6642   0.583   3.829   1.886
 2066SOL     OW 6643   0.781   3.988   3.611
 2066SOL    HW1 6644   0.848   3.927   3.654
 2066SOL    HW2 6645   0.708   4.007   3.676
 2067SOL     OW 6646   1.351   4.314   3.295
 2067SOL    HW1 6647   1.379   4.271   3.380
 2067SOL    HW2 6648   1.376   4.410   3.296
 2068SOL     OW 6649   0.803   5.126   2.786
 2068SOL    HW1 6650   0.893   5.140   2.744
 2068SOL    HW2 6651   0.732   5.128   2.715
 2069SOL     OW 6652   0.922   4.227   2.761
 2069SOL    HW1 6653   0.897   4.218   2.665
 2069SOL    HW2 6654   0.970   4.145   2.792
 2070SOL     OW 6655   0.539   3.788   2.374
 2070SOL    HW1 6656   0.458   3.789   2.432
 2070SOL    HW2 6657   0.542   3.871   2.319
 2071SOL     OW 6658   1.434   4.912   1.903
 2071SOL    HW1 6659   1.466   4.836   1.960
 2071SOL    HW2 6660   1.342   4.939   1.933
 2072SOL     OW 6661   0.297   3.759   2.033
 2072SOL    HW1 6662   0.346   3.843   2.012
 2072SOL    HW2 6663   0.359   3.694   2.078
 2073SOL     OW 6664   0.935   3.960   2.342
 2073SOL    HW1 6665   0.887   4.001   2.264
 2073SOL    HW2 6666   1.034   3.958   2.323
 2074SOL     OW 6667   1.076   4.407   3.326
 2074SOL    HW1 6668   0.996   4.346   3.329
 2074SOL    HW2 6669   1.157   4.354   3.302
 2075SOL     OW 6670   1.227   5.294   2.655
 2075SOL    HW1 6671   1.248   5.368   2.590
 2075SOL    HW2 6672   1.295   5.294   2.728
 2076SOL     OW 6673   0.459   4.876   2.603
 2076SOL    HW1 6674   0.388   4.849   2.668
 2076SOL    HW2 6675   0.433   4.848   2.510
 2077SOL     OW 6676   1.032   4.273   1.878
 2077SOL    HW1 6677   0.991   4.355   1.839
 2077SOL    HW2 6678   1.096   4.299   1.951
 2078SOL     OW 6679   0.078   4.280   3.248
 2078SOL    HW1 6680   0.170   4.279   3.207
 2078SOL    HW2 6681   0.072   4.354   3.315
 2079SOL     OW 6682   0.561   3.946   3.009
 2079SOL    HW1 6683   0.599   3.862   3.046
 2079SOL    HW2 6684   0.473   3.965   3.053
 2080SOL     OW 6685   0.866   4.178   2.504
 2080SOL    HW1 6686   0.834   4.250   2.442
 2080SOL    HW2 6687   0.890   4.097   2.451
 2081SOL     OW 6688   1.017   3.763   2.615
 2081SOL    HW1 6689   0.945   3.768   2.546
 2081SOL    HW2 6690   0.993   3.694   2.684
 2082SOL     OW 6691   1.429   4.897   2.729
 2082SOL    HW1 6692   1.374   4.813   2.722
 2082SOL    HW2 6693   1.455   4.926   2.637
 2083SOL     OW 6694   1.466   4.314   2.854
 2083SOL    HW1 6695   1.436   4.219   2.861
 2083SOL    HW2 6696   1.539   4.330   2.920
 2084SOL     OW 6697   1.857   4.557   2.239
 2084SOL    HW1 6698   1.899   4.493   2.303
 2084SOL    HW2 6699   1.819   4.506   2.161
 2085SOL     OW 6700   0.488   5.109   2.036
 2085SOL    HW1 6701   0.401   5.094   2.083
 2085SOL    HW2 6702   0.471   5.135   1.941
 2086SOL     OW 6703   1.664   5.004   2.519
 2086SOL    HW1 6704   1.763   5.012   2.533
 2086SOL    HW2 6705   1.619   5.088   2.550
 2087SOL     OW 6706   1.390   4.299   1.940
 2087SOL    HW1 6707   1.336   4.278   2.021
 2087SOL    HW2 6708   1.481   4.258   1.949
 2088SOL     OW 6709   0.527   3.980   2.190
 2088SOL    HW1 6710   0.554   3.921   2.115
 2088SOL    HW2 6711   0.527   4.075   2.159
 2089SOL     OW 6712   1.754   4.947   3.450
 2089SOL    HW1 6713   1.845   4.908   3.437
 2089SOL    HW2 6714   1.762   5.043   3.474
 2090SOL     OW 6715   1.064   5.071   3.202
 2090SOL    HW1 6716   0.984   5.048   3.257
 2090SOL    HW2 6717   1.147   5.045   3.251
 2091SOL     OW 6718   1.111   4.919   2.962
 2091SOL    HW1 6719   1.071   4.963   3.043
 2091SOL    HW2 6720   1.070   4.956   2.879
 2092SOL     OW 6721   1.638   4.823   2.941
 2092SOL    HW1 6722   1.643   4.904   3.000
 2092SOL    HW2 6723   1.552   4.825   2.890
 2093SOL     OW 6724   0.915   3.813   3.264
 2093SOL    HW1 6725   0.940   3.793   3.169
 2093SOL    HW2 6726   0.987   3.869   3.306
 2094SOL     OW 6727   0.980   4.840   3.581
 2094SOL    HW1 6728   0.881   4.846   3.591
 2094SOL    HW2 6729   1.003   4.760   3.525
 2095SOL     OW 6730   0.705   4.774   2.230
 2095SOL    HW1 6731   0.691   4.781   2.329
 2095SOL    HW2 6732   0.789   4.723   2.212
 2096SOL     OW 6733   0.410   4.537   3.113
 2096SOL    HW1 6734   0.496   4.549   3.163
 2096SOL    HW2 6735   0.368   4.450   3.140
 2097SOL     OW 6736   1.274   4.110   3.124
 2097SOL    HW1 6737   1.295   4.184   3.188
 2097SOL    HW2 6738   1.185   4.127   3.081
 2098SOL     OW 6739   0.064   5.288   3.193
 2098SOL    HW1 6740   0.018   5.370   3.159
 2098SOL    HW2 6741   0.162   5.307   3.202
 2099SOL     OW 6742   0.367   4.824   2.363
 2099SOL    HW1 6743   0.360   4.907   2.307
 2099SOL    HW2 6744   0.371   4.744   2.303
 2100SOL     OW 6745   0.566   4.261   2.727
 2100SOL    HW1 6746   0.578   4.327   2.653
 2100SOL    HW2 6747   0.612   4.295   2.810
 2101SOL     OW 6748   1.252   5.072   2.250
 2101SOL    HW1 6749   1.302   5.149   2.290
 2101SOL    HW2 6750   1.157   5.074   2.282
 2102SOL     OW 6751   1.272   5.169   3.004
 2102SOL    HW1 6752   1.319   5.182   3.091
 2102SOL    HW2 6753   1.206   5.095   3.013
 2103SOL     OW 6754   1.582   4.363   2.334
 2103SOL    HW1 6755   1.551   4.424   2.407
 2103SOL    HW2 6756   1.632   4.415   2.265
 2104SOL     OW 6757   0.354   5.234   3.191
 2104SOL    HW1 6758   0.333   5.190   3.104
 2104SOL    HW2 6759   0.451   5.260   3.194
 2105SOL     OW 6760   0.402   4.475   3.460
 2105SOL    HW1 6761   0.470   4.530   3.413
 2105SOL    HW2 6762   0.442   4.387   3.487
 2106SOL     OW 6763   1.587   4.503   3.532
 2106SOL    HW1 6764   1.495   4.541   3.527
 2106SOL    HW2 6765   1.647   4.550   3.467
 2107SOL     OW 6766   1.013   3.829   3.632
 2107SOL    HW1 6767   1.019   3.914   3.580
 2107SOL    HW2 6768   1.045   3.753   3.575
 2108SOL     OW 6769   0.504   3.774   3.602
 2108SOL    HW1 6770   0.462   3.717   3.532
 2108SOL    HW2 6771   0.438   3.843   3.634
 2109SOL     OW 6772   0.573   4.594   2.891
 2109SOL    HW1 6773   0.617   4.683   2.882
 2109SOL    HW2 6774   0.510   4.594   2.968
 2110SOL     OW 6775   1.360   4.586   2.907
 2110SOL    HW1 6776   1.285   4.586   2.841
 2110SOL    HW2 6777   1.397   4.494   2.916
 2111SOL     OW 6778   1.209   4.249   2.137
 2111SOL    HW1 6779   1.222   4.165   2.191
 2111SOL    HW2 6780   1.180   4.323   2.197
 2112SOL     OW 6781   0.307   3.937   3.093
 2112SOL    HW1 6782   0.284   3.974   3.183
 2112SOL    HW2 6783   0.277   3.842   3.087
 2113SOL     OW 6784   0.037   5.034   3.144
 2113SOL    HW1 6785   0.090   4.985   3.212
 2113SOL    HW2 6786   0.059   5.132   3.149
 2114SOL     OW 6787   0.732   4.358   2.926
 2114SOL    HW1 6788   0.791   4.332   2.850
 2114SOL    HW2 6789   0.704   4.454   2.915
 2115SOL     OW 6790   1.728   4.659   3.716
 2115SOL    HW1 6791   1.682   4.652   3.627
 2115SOL    HW2 6792   1.666   4.703   3.782
 2116SOL     OW 6793   0.307   3.787   2.480
 2116SOL    HW1 6794   0.296   3.881   2.513
 2116SOL    HW2 6795   0.302   3.724   2.557
 2117SOL     OW 6796   1.622   4.091   2.236
 2117SOL    HW1 6797   1.624   4.015   2.300
 2117SOL    HW2 6798   1.574   4.168   2.276
 2118SOL     OW 6799   1.023   4.490   2.828
 2118SOL    HW1 6800   1.038   4.511   2.924
 2118SOL    HW2 6801   0.993   4.395   2.819
 2119SOL     OW 6802   1.859   5.242   3.467
 2119SOL    HW1 6803   1.873   5.269   3.372
 2119SOL    HW2 6804   1.942   5.264   3.520
 2120SOL     OW 6805   0.350   4.622   3.666
 2120SOL    HW1 6806   0.426   4.666   3.714
 2120SOL    HW2 6807   0.385   4.575   3.584
 2121SOL     OW 6808   1.540   3.998   1.987
 2121SOL    HW1 6809   1.479   3.923   2.010
 2121SOL    HW2 6810   1.562   4.050   2.070
 2122SOL     OW 6811   1.303   4.562   1.904
 2122SOL    HW1 6812   1.337   4.469   1.919
 2122SOL    HW2 6813   1.321   4.589   1.809
 2123SOL     OW 6814   1.068   5.057   2.711
 2123SOL    HW1 6815   1.075   4.973   2.656
 2123SOL    HW2 6816   1.130   5.126   2.675
 2124SOL     OW 6817   0.319   4.534   2.811
 2124SOL    HW1 6818   0.412   4.570   2.816
 2124SOL    HW2 6819   0.313   4.449   2.863
 2125SOL     OW 6820   0.339   4.233   2.868
 2125SOL    HW1 6821   0.287   4.150   2.851
 2125SOL    HW2 6822   0.416   4.238   2.804
 2126SOL     OW 6823   1.138   4.104   3.540
 2126SOL    HW1 6824   1.093   4.167   3.604
 2126SOL    HW2 6825   1.231   4.135   3.523
 2127SOL     OW 6826   1.160   3.931   3.339
 2127SOL    HW1 6827   1.160   3.995   3.416
 2127SOL    HW2 6828   1.188   3.979   3.256
 2128SOL     OW 6829   0.008   5.050   2.062
 2128SOL    HW1 6830  -0.085   5.071   2.031
 2128SOL    HW2 6831   0.018   4.951   2.075
 2129SOL     OW 6832   1.002   4.520   3.100
 2129SOL    HW1 6833   1.043   4.488   3.186
 2129SOL    HW2 6834   0.906   4.493   3.097
 2130SOL     OW 6835   0.040   4.268   2.976
 2130SOL    HW1 6836   0.125   4.235   2.935
 2130SOL    HW2 6837   0.053   4.283   3.074
 2131SOL     OW 6838   0.189   4.244   3.584
 2131SOL    HW1 6839   0.248   4.204   3.514
 2131SOL    HW2 6840   0.131   4.315   3.543
 2132SOL     OW 6841   1.369   4.674   3.522
 2132SOL    HW1 6842   1.408   4.763   3.542
 2132SOL    HW2 6843   1.379   4.654   3.425
 2133SOL     OW 6844   0.815   4.296   2.187
 2133SOL    HW1 6845   0.822   4.207   2.141
 2133SOL    HW2 6846   0.721   4.330   2.179
 2134SOL     OW 6847   1.657   4.328   3.068
 2134SOL    HW1 6848   1.619   4.259   3.130
 2134SOL    HW2 6849   1.739   4.292   3.024
 2135SOL     OW 6850   0.252   5.288   3.606
 2135SOL    HW1 6851   0.222   5.345   3.682
 2135SOL    HW2 6852   0.245   5.191   3.632
 2136SOL     OW 6853   0.671   4.188   3.131
 2136SOL    HW1 6854   0.637   4.099   3.101
 2136SOL    HW2 6855   0.697   4.242   3.051
 2137SOL     OW 6856   0.473   4.224   2.053
 2137SOL    HW1 6857   0.534   4.304   2.057
 2137SOL    HW2 6858   0.378   4.255   2.060
 2138SOL     OW 6859   0.159   4.861   3.328
 2138SOL    HW1 6860   0.181   4.800   3.404
 2138SOL    HW2 6861   0.169   4.812   3.242
 2139SOL     OW 6862   1.347   4.783   3.096
 2139SOL    HW1 6863   1.371   4.720   3.022
 2139SOL    HW2 6864   1.257   4.823   3.078
 2140SOL     OW 6865   1.302   4.579   2.171
 2140SOL    HW1 6866   1.216   4.548   2.213
 2140SOL    HW2 6867   1.298   4.565   2.072
 2141SOL     OW 6868   0.083   4.982   2.884
 2141SOL    HW1 6869   0.078   4.981   2.984
 2141SOL    HW2 6870   0.000   4.941   2.846
 2142SOL     OW 6871   0.688   5.386   3.578
 2142SOL    HW1 6872   0.632   5.467   3.587
 2142SOL    HW2 6873   0.740   5.390   3.492
 2143SOL     OW 6874   1.726   3.859   2.385
 2143SOL    HW1 6875   1.799   3.842   2.318
 2143SOL    HW2 6876   1.695   3.772   2.423
 2144SOL     OW 6877   1.280   4.651   2.534
 2144SOL    HW1 6878   1.340   4.570   2.536
 2144SOL    HW2 6879   1.320   4.720   2.474
 2145SOL     OW 6880   0.830   4.997   3.284
 2145SOL    HW1 6881   0.825   5.030   3.379
 2145SOL    HW2 6882   0.744   5.016   3.238
 2146SOL     OW 6883   1.841   3.899   2.825
 2146SOL    HW1 6884   1.880   3.814   2.789
 2146SOL    HW2 6885   1.743   3.901   2.806
 2147SOL     OW 6886   0.263   4.050   2.582
 2147SOL    HW1 6887   0.184   4.101   2.548
 2147SOL    HW2 6888   0.254   4.035   2.680
 2148SOL     OW 6889   0.822   4.726   3.234
 2148SOL    HW1 6890   0.862   4.725   3.142
 2148SOL    HW2 6891   0.832   4.818   3.274
 2149SOL     OW 6892   0.916   4.634   2.153
 2149SOL    HW1 6893   0.979   4.672   2.085
 2149SOL    HW2 6894   0.956   4.551   2.192
 2150SOL     OW 6895   0.372   5.012   3.352
 2150SOL    HW1 6896   0.359   5.105   3.318
 2150SOL    HW2 6897   0.288   4.960   3.339
 2151SOL     OW 6898   1.614   5.016   3.151
 2151SOL    HW1 6899   1.674   5.019   3.231
 2151SOL    HW2 6900   1.539   5.080   3.164
 2152SOL     OW 6901   1.039   4.822   2.558
 2152SOL    HW1 6902   0.969   4.775   2.612
 2152SOL    HW2 6903   1.098   4.754   2.515
 2153SOL     OW 6904   1.014   3.960   2.833
 2153SOL    HW1 6905   1.006   3.924   2.740
 2153SOL    HW2 6906   1.012   3.884   2.898
 2154SOL     OW 6907   1.709   4.109   3.243
 2154SOL    HW1 6908   1.782   4.178   3.247
 2154SOL    HW2 6909   1.737   4.034   3.184
 2155SOL     OW 6910   0.255   5.072   2.152
 2155SOL    HW1 6911   0.159   5.073   2.125
 2155SOL    HW2 6912   0.267   5.125   2.236
 2156SOL     OW 6913   0.105   4.737   3.588
 2156SOL    HW1 6914   0.028   4.704   3.642
 2156SOL    HW2 6915   0.190   4.707   3.630
 2157SOL     OW 6916   0.672   3.927   3.351
 2157SOL    HW1 6917   0.762   3.911   3.311
 2157SOL    HW2 6918   0.680   3.932   3.450
 2158SOL     OW 6919   0.075   4.069   1.895
 2158SOL    HW1 6920  -0.017   4.041   1.866
 2158SOL    HW2 6921   0.106   4.146   1.839
 2159SOL     OW 6922   1.440   4.580   3.260
 2159SOL    HW1 6923   1.383   4.632   3.197
 2159SOL    HW2 6924   1.536   4.592   3.236
 2160SOL     OW 6925   0.072   3.890   2.180
 2160SOL    HW1 6926   0.055   3.973   2.126
 2160SOL    HW2 6927   0.162   3.853   2.158
 2161SOL     OW 6928   1.183   5.059   1.981
 2161SOL    HW1 6929   1.084   5.048   1.983
 2161SOL    HW2 6930   1.217   5.074   2.074
 2162SOL     OW 6931   0.613   4.566   3.293
 2162SOL    HW1 6932   0.669   4.647   3.276
 2162SOL    HW2 6933   0.672   4.486   3.296
 2163SOL     OW 6934   0.716   4.289   3.570
 2163SOL    HW1 6935   0.735   4.354   3.644
 2163SOL    HW2 6936   0.776   4.209   3.579
 2164SOL     OW 6937   1.450   4.944   3.495
 2164SOL    HW1 6938   1.441   4.934   3.594
 2164SOL    HW2 6939   1.546   4.937   3.469
 2165SOL     OW 6940   1.674   4.607   3.116
 2165SOL    HW1 6941   1.647   4.518   3.079
 2165SOL    HW2 6942   1.675   4.675   3.043
 2166SOL     OW 6943   1.225   4.049   2.311
 2166SOL    HW1 6944   1.290   3.975   2.300
 2166SOL    HW2 6945   1.245   4.099   2.395
 2167SOL     OW 6946   0.594   4.469   2.514
 2167SOL    HW1 6947   0.644   4.554   2.495
 2167SOL    HW2 6948   0.506   4.471   2.466
 2168SOL     OW 6949   1.777   4.066   3.504
 2168SOL    HW1 6950   1.760   4.097   3.410
 2168SOL    HW2 6951   1.693   4.029   3.542
 2169SOL     OW 6952   1.730   4.658   3.379
 2169SOL    HW1 6953   1.768   4.749   3.394
 2169SOL    HW2 6954   1.722   4.641   3.280
 2170SOL     OW 6955   0.859   5.098   1.878
 2170SOL    HW1 6956   0.813   5.113   1.966
 2170SOL    HW2 6957   0.903   5.183   1.848
 2171SOL     OW 6958   0.859   4.680   2.723
 2171SOL    HW1 6959   0.913   4.611   2.771
 2171SOL    HW2 6960   0.827   4.749   2.789
 2172SOL     OW 6961   1.083   4.708   1.949
 2172SOL    HW1 6962   1.060   4.761   1.867
 2172SOL    HW2 6963   1.164   4.652   1.930
 2173SOL     OW 6964   0.221   5.038   3.706
 2173SOL    HW1 6965   0.156   4.965   3.685
 2173SOL    HW2 6966   0.225   5.052   3.804
 2174SOL     OW 6967   0.079   4.964   2.515
 2174SOL    HW1 6968   0.078   4.917   2.603
 2174SOL    HW2 6969   0.161   4.936   2.464
 2175SOL     OW 6970   0.672   5.115   3.486
 2175SOL    HW1 6971   0.594   5.065   3.524
 2175SOL    HW2 6972   0.669   5.210   3.517
 2176SOL     OW 6973   1.824   3.916   3.089
 2176SOL    HW1 6974   1.820   3.826   3.133
 2176SOL    HW2 6975   1.827   3.905   2.990
 2177SOL     OW 6976   0.428   4.148   2.382
 2177SOL    HW1 6977   0.458   4.076   2.320
 2177SOL    HW2 6978   0.389   4.108   2.465
 2178SOL     OW 6979   1.705   5.211   2.966
 2178SOL    HW1 6980   1.612   5.186   2.939
 2178SOL    HW2 6981   1.731   5.161   3.048
 2179SOL     OW 6982   0.317   4.271   3.142
 2179SOL    HW1 6983   0.355   4.212   3.214
 2179SOL    HW2 6984   0.357   4.245   3.054
 2180SOL     OW 6985   1.424   3.938   2.974
 2180SOL    HW1 6986   1.476   3.873   3.029
 2180SOL    HW2 6987   1.375   4.001   3.035
 2181SOL     OW 6988   1.001   3.758   3.016
 2181SOL    HW1 6989   0.938   3.686   2.985
 2181SOL    HW2 6990   1.094   3.722   3.016
 2182SOL     OW 6991   0.770   5.054   2.163
 2182SOL    HW1 6992   0.724   4.967   2.180
 2182SOL    HW2 6993   0.861   5.051   2.204
 2183SOL     OW 6994   0.618   5.291   3.146
 2183SOL    HW1 6995   0.613   5.373   3.203
 2183SOL    HW2 6996   0.707   5.288   3.101
 2184SOL     OW 6997   1.352   3.776   2.030
 2184SOL    HW1 6998   1.387   3.735   1.946
 2184SOL    HW2 6999   1.262   3.738   2.050
 2185SOL     OW 7000   1.300   4.177   2.553
 2185SOL    HW1 7001   1.241   4.257   2.557
 2185SOL    HW2 7002   1.315   4.142   2.646
 2186SOL     OW 7003   1.593   3.945   2.744
 2186SOL    HW1 7004   1.509   3.944   2.798
 2186SOL    HW2 7005   1.595   4.028   2.688
 2187SOL     OW 7006   0.039   4.801   2.162
 2187SOL    HW1 7007   0.138   4.790   2.153
 2187SOL    HW2 7008  -0.001   4.715   2.194
 2188SOL     OW 7009   0.230   4.352   3.837
 2188SOL    HW1 7010   0.137   4.350   3.874
 2188SOL    HW2 7011   0.231   4.313   3.745
 2189SOL     OW 7012   0.225   3.999   4.720
 2189SOL    HW1 7013   0.260   3.982   4.812
 2189SOL    HW2 7014   0.137   3.954   4.708
 2190SOL     OW 7015   0.019   4.092   4.371
 2190SOL    HW1 7016  -0.063   4.135   4.410
 2190SOL    HW2 7017  -0.009   4.019   4.308
 2191SOL     OW 7018   0.569   4.999   4.889
 2191SOL    HW1 7019   0.476   4.992   4.852
 2191SOL    HW2 7020   0.580   5.088   4.933
 2192SOL     OW 7021   1.555   5.235   4.427
 2192SOL    HW1 7022   1.498   5.219   4.508
 2192SOL    HW2 7023   1.496   5.245   4.347
 2193SOL     OW 7024   1.135   4.427   4.441
 2193SOL    HW1 7025   1.192   4.505   4.416
 2193SOL    HW2 7026   1.075   4.453   4.517
 2194SOL     OW 7027   1.755   4.331   3.955
 2194SOL    HW1 7028   1.743   4.318   3.856
 2194SOL    HW2 7029   1.725   4.250   4.004
 2195SOL     OW 7030   0.768   4.868   4.747
 2195SOL    HW1 7031   0.690   4.885   4.807
 2195SOL    HW2 7032   0.802   4.955   4.711
 2196SOL     OW 7033   0.850   4.522   5.547
 2196SOL    HW1 7034   0.846   4.598   5.612
 2196SOL    HW2 7035   0.872   4.558   5.456
 2197SOL     OW 7036   0.685   4.736   4.389
 2197SOL    HW1 7037   0.754   4.720   4.459
 2197SOL    HW2 7038   0.612   4.793   4.427
 2198SOL     OW 7039   0.686   4.885   5.527
 2198SOL    HW1 7040   0.746   4.964   5.541
 2198SOL    HW2 7041   0.600   4.916   5.486
 2199SOL     OW 7042   0.335   5.159   4.785
 2199SOL    HW1 7043   0.257   5.128   4.732
 2199SOL    HW2 7044   0.393   5.217   4.728
 2200SOL     OW 7045   1.460   5.229   5.063
 2200SOL    HW1 7046   1.484   5.323   5.089
 2200SOL    HW2 7047   1.444   5.175   5.145
 2201SOL     OW 7048   0.438   4.116   5.223
 2201SOL    HW1 7049   0.520   4.060   5.232
 2201SOL    HW2 7050   0.357   4.058   5.227
 2202SOL     OW 7051   1.603   4.171   4.461
 2202SOL    HW1 7052   1.529   4.217   4.411
 2202SOL    HW2 7053   1.654   4.239   4.514
 2203SOL     OW 7054   1.127   5.065   5.414
 2203SOL    HW1 7055   1.174   5.065   5.502
 2203SOL    HW2 7056   1.079   4.978   5.403
 2204SOL     OW 7057   0.230   5.158   4.262
 2204SOL    HW1 7058   0.204   5.254   4.262
 2204SOL    HW2 7059   0.159   5.104   4.307
 2205SOL     OW 7060   0.240   4.815   4.610
 2205SOL    HW1 7061   0.254   4.731   4.662
 2205SOL    HW2 7062   0.185   4.879   4.665
 2206SOL     OW 7063   0.606   4.688   3.847
 2206SOL    HW1 7064   0.613   4.772   3.793
 2206SOL    HW2 7065   0.652   4.701   3.935
 2207SOL     OW 7066   1.594   3.838   5.204
 2207SOL    HW1 7067   1.576   3.905   5.132
 2207SOL    HW2 7068   1.591   3.884   5.293
 2208SOL     OW 7069   0.122   4.367   4.287
 2208SOL    HW1 7070   0.077   4.279   4.304
 2208SOL    HW2 7071   0.121   4.421   4.371
 2209SOL     OW 7072   0.027   5.320   3.841
 2209SOL    HW1 7073   0.008   5.224   3.862
 2209SOL    HW2 7074  -0.006   5.378   3.916
 2210SOL     OW 7075   1.689   4.646   4.336
 2210SOL    HW1 7076   1.784   4.617   4.344
 2210SOL    HW2 7077   1.681   4.711   4.261
 2211SOL     OW 7078   1.641   4.832   4.156
 2211SOL    HW1 7079   1.727   4.834   4.104
 2211SOL    HW2 7080   1.655   4.879   4.244
 2212SOL     OW 7081   0.113   4.461   5.321
 2212SOL    HW1 7082   0.201   4.448   5.366
 2212SOL    HW2 7083   0.100   4.558   5.299
 2213SOL     OW 7084   0.613   5.089   4.450
 2213SOL    HW1 7085   0.564   5.002   4.459
 2213SOL    HW2 7086   0.590   5.132   4.363
 2214SOL     OW 7087   1.293   4.952   5.147
 2214SOL    HW1 7088   1.330   4.879   5.089
 2214SOL    HW2 7089   1.345   4.957   5.232
 2215SOL     OW 7090   0.809   3.728   4.226
 2215SOL    HW1 7091   0.849   3.819   4.217
 2215SOL    HW2 7092   0.709   3.736   4.232
 2216SOL     OW 7093   0.197   4.700   4.988
 2216SOL    HW1 7094   0.286   4.655   4.974
 2216SOL    HW2 7095   0.124   4.635   4.969
 2217SOL     OW 7096   1.525   4.723   3.914
 2217SOL    HW1 7097   1.462   4.647   3.927
 2217SOL    HW2 7098   1.573   4.741   4.000
 2218SOL     OW 7099   0.317   3.975   5.525
 2218SOL    HW1 7100   0.388   4.046   5.531
 2218SOL    HW2 7101   0.229   4.014   5.553
 2219SOL     OW 7102   1.466   5.141   4.677
 2219SOL    HW1 7103   1.407   5.147   4.757
 2219SOL    HW2 7104   1.451   5.053   4.631
 2220SOL     OW 7105   0.598   4.453   3.994
 2220SOL    HW1 7106   0.622   4.522   3.926
 2220SOL    HW2 7107   0.520   4.486   4.048
 2221SOL     OW 7108   1.281   4.069   4.668
 2221SOL    HW1 7109   1.195   4.019   4.655
 2221SOL    HW2 7110   1.343   4.015   4.724
 2222SOL     OW 7111   0.807   4.329   5.189
 2222SOL    HW1 7112   0.760   4.326   5.278
 2222SOL    HW2 7113   0.756   4.274   5.123
 2223SOL     OW 7114   1.394   4.193   5.398
 2223SOL    HW1 7115   1.374   4.236   5.486
 2223SOL    HW2 7116   1.472   4.131   5.407
 2224SOL     OW 7117   0.973   4.614   5.296
 2224SOL    HW1 7118   1.019   4.530   5.267
 2224SOL    HW2 7119   0.917   4.648   5.221
 2225SOL     OW 7120   0.991   4.134   4.966
 2225SOL    HW1 7121   0.914   4.168   5.020
 2225SOL    HW2 7122   0.957   4.083   4.887
 2226SOL     OW 7123   1.041   4.425   4.153
 2226SOL    HW1 7124   1.067   4.421   4.249
 2226SOL    HW2 7125   0.956   4.374   4.139
 2227SOL     OW 7126   0.076   4.535   4.513
 2227SOL    HW1 7127   0.175   4.523   4.522
 2227SOL    HW2 7128   0.052   4.630   4.534
 2228SOL     OW 7129   0.865   4.072   3.919
 2228SOL    HW1 7130   0.924   4.135   3.870
 2228SOL    HW2 7131   0.884   3.978   3.890
 2229SOL     OW 7132   1.719   4.309   5.555
 2229SOL    HW1 7133   1.693   4.398   5.519
 2229SOL    HW2 7134   1.717   4.241   5.482
 2230SOL     OW 7135   1.362   4.868   4.269
 2230SOL    HW1 7136   1.445   4.839   4.221
 2230SOL    HW2 7137   1.313   4.935   4.213
 2231SOL     OW 7138   0.550   3.920   4.609
 2231SOL    HW1 7139   0.545   3.915   4.709
 2231SOL    HW2 7140   0.552   4.016   4.580
 2232SOL     OW 7141   1.008   5.180   4.201
 2232SOL    HW1 7142   0.962   5.252   4.149
 2232SOL    HW2 7143   1.004   5.200   4.299
 2233SOL     OW 7144   1.795   4.790   4.597
 2233SOL    HW1 7145   1.733   4.775   4.521
 2233SOL    HW2 7146   1.743   4.801   4.682
 2234SOL     OW 7147   1.227   5.274   5.230
 2234SOL    HW1 7148   1.233   5.197   5.294
 2234SOL    HW2 7149   1.175   5.248   5.150
 2235SOL     OW 7150   0.321   4.667   3.966
 2235SOL    HW1 7151   0.403   4.706   3.924
 2235SOL    HW2 7152   0.294   4.585   3.917
 2236SOL     OW 7153   1.458   4.459   4.452
 2236SOL    HW1 7154   1.453   4.394   4.527
 2236SOL    HW2 7155   1.538   4.518   4.465
 2237SOL     OW 7156   0.461   4.990   5.451
 2237SOL    HW1 7157   0.411   4.991   5.365
 2237SOL    HW2 7158   0.398   4.972   5.527
 2238SOL     OW 7159   1.111   5.500   3.961
 2238SOL    HW1 7160   1.051   5.438   4.011
 2238SOL    HW2 7161   1.142   5.456   3.876
 2239SOL     OW 7162   0.202   4.009   5.222
 2239SOL    HW1 7163   0.122   4.069   5.209
 2239SOL    HW2 7164   0.192   3.960   5.308
 2240SOL     OW 7165   1.632   5.101   3.805
 2240SOL    HW1 7166   1.600   5.195   3.795
 2240SOL    HW2 7167   1.556   5.038   3.793
 2241SOL     OW 7168   1.400   3.831   4.150
 2241SOL    HW1 7169   1.376   3.794   4.060
 2241SOL    HW2 7170   1.499   3.847   4.154
 2242SOL     OW 7171   0.382   4.424   4.204
 2242SOL    HW1 7172   0.427   4.334   4.201
 2242SOL    HW2 7173   0.288   4.413   4.237
 2243SOL     OW 7174   1.547   3.946   5.453
 2243SOL    HW1 7175   1.542   3.983   5.545
 2243SOL    HW2 7176   1.475   3.877   5.441
 2244SOL     OW 7177   0.614   3.846   3.841
 2244SOL    HW1 7178   0.712   3.824   3.848
 2244SOL    HW2 7179   0.583   3.829   3.748
 2245SOL     OW 7180   0.781   3.988   5.473
 2245SOL    HW1 7181   0.848   3.927   5.516
 2245SOL    HW2 7182   0.708   4.007   5.538
 2246SOL     OW 7183   1.351   4.314   5.157
 2246SOL    HW1 7184   1.379   4.271   5.242
 2246SOL    HW2 7185   1.376   4.410   5.158
 2247SOL     OW 7186   0.803   5.126   4.648
 2247SOL    HW1 7187   0.893   5.140   4.606
 2247SOL    HW2 7188   0.732   5.128   4.577
 2248SOL     OW 7189   0.922   4.227   4.623
 2248SOL    HW1 7190   0.897   4.218   4.527
 2248SOL    HW2 7191   0.970   4.145   4.654
 2249SOL     OW 7192   0.539   3.788   4.236
 2249SOL    HW1 7193   0.458   3.789   4.294
 2249SOL    HW2 7194   0.542   3.871   4.181
 2250SOL     OW 7195   1.434   4.912   3.765
 2250SOL    HW1 7196   1.466   4.836   3.822
 2250SOL    HW2 7197   1.342   4.939   3.795
 2251SOL     OW 7198   0.297   3.759   3.895
 2251SOL    HW1 7199   0.346   3.843   3.874
 2251SOL    HW2 7200   0.359   3.694   3.940
 2252SOL     OW 7201   0.935   3.960   4.204
 2252SOL    HW1 7202   0.887   4.001   4.126
 2252SOL    HW2 7203   1.034   3.958   4.185
 2253SOL     OW 7204   1.076   4.407   5.188
 2253SOL    HW1 7205   0.996   4.346   5.191
 2253SOL    HW2 7206   1.157   4.354   5.164
 2254SOL     OW 7207   1.227   5.294   4.517
 2254SOL    HW1 7208   1.248   5.368   4.452
 2254SOL    HW2 7209   1.295   5.294   4.590
 2255SOL     OW 7210   0.459   4.876   4.465
 2255SOL    HW1 7211   0.388   4.849   4.530
 2255SOL    HW2 7212   0.433   4.848   4.372
 2256SOL     OW 7213   1.032   4.273   3.740
 2256SOL    HW1 7214   0.991   4.355   3.701
 2256SOL    HW2 7215   1.096   4.299   3.813
 2257SOL     OW 7216   0.078   4.280   5.110
 2257SOL    HW1 7217   0.170   4.279   5.069
 2257SOL    HW2 7218   0.072   4.354   5.177
 2258SOL     OW 7219   0.561   3.946   4.871
 2258SOL    HW1 7220   0.599   3.862   4.908
 2258SOL    HW2 7221   0.473   3.965   4.915
 2259SOL     OW 7222   0.866   4.178   4.366
 2259SOL    HW1 7223   0.834   4.250   4.304
 2259SOL    HW2 7224   0.890   4.097   4.313
 2260SOL     OW 7225   1.017   3.763   4.477
 2260SOL    HW1 7226   0.945   3.768   4.408
 2260SOL    HW2 7227   0.993   3.694   4.546
 2261SOL     OW 7228   1.429   4.897   4.591
 2261SOL    HW1 7229   1.374   4.813   4.584
 2261SOL    HW2 7230   1.455   4.926   4.499
 2262SOL     OW 7231   1.466   4.314   4.716
 2262SOL    HW1 7232   1.436   4.219   4.723
 2262SOL    HW2 7233   1.539   4.330   4.782
 2263SOL     OW 7234   1.857   4.557   4.101
 2263SOL    HW1 7235   1.899   4.493   4.165
 2263SOL    HW2 7236   1.819   4.506   4.023
 2264SOL     OW 7237   0.488   5.109   3.898
 2264SOL    HW1 7238   0.401   5.094   3.945
 2264SOL    HW2 7239   0.471   5.135   3.803
 2265SOL     OW 7240   1.664   5.004   4.381
 2265SOL    HW1 7241   1.763   5.012   4.395
 2265SOL    HW2 7242   1.619   5.088   4.412
 2266SOL     OW 7243   1.390   4.299   3.802
 2266SOL    HW1 7244   1.336   4.278   3.883
 2266SOL    HW2 7245   1.481   4.258   3.811
 2267SOL     OW 7246   0.527   3.980   4.052
 2267SOL    HW1 7247   0.554   3.921   3.977
 2267SOL    HW2 7248   0.527   4.075   4.021
 2268SOL     OW 7249   1.754   4.947   5.312
 2268SOL    HW1 7250   1.845   4.908   5.299
 2268SOL    HW2 7251   1.762   5.043   5.336
 2269SOL     OW 7252   1.064   5.071   5.064
 2269SOL    HW1 7253   0.984   5.048   5.119
 2269SOL    HW2 7254   1.147   5.045   5.113
 2270SOL     OW 7255   1.111   4.919   4.824
 2270SOL    HW1 7256   1.071   4.963   4.905
 2270SOL    HW2 7257   1.070   4.956   4.741
 2271SOL     OW 7258   1.638   4.823   4.803
 2271SOL    HW1 7259   1.643   4.904   4.862
 2271SOL    HW2 7260   1.552   4.825   4.752
 2272SOL     OW 7261   0.915   3.813   5.126
 2272SOL    HW1 7262   0.940   3.793   5.031
 2272SOL    HW2 7263   0.987   3.869   5.168
 2273SOL     OW 7264   0.980   4.840   5.443
 2273SOL    HW1 7265   0.881   4.846   5.453
 2273SOL    HW2 7266   1.003   4.760   5.387
 2274SOL     OW 7267   0.705   4.774   4.092
 2274SOL    HW1 7268   0.691   4.781   4.191
 2274SOL    HW2 7269   0.789   4.723   4.074
 2275SOL     OW 7270   0.410   4.537   4.975
 2275SOL    HW1 7271   0.496   4.549   5.025
 2275SOL    HW2 7272   0.368   4.450   5.002
 2276SOL     OW 7273   1.274   4.110   4.986
 2276SOL    HW1 7274   1.295   4.184   5.050
 2276SOL    HW2 7275   1.185   4.127   4.943
 2277SOL     OW 7276   0.064   5.288   5.055
 2277SOL    HW1 7277   0.018   5.370   5.021
 2277SOL    HW2 7278   0.162   5.307   5.064
 2278SOL     OW 7279   0.367   4.824   4.225
 2278SOL    HW1 7280   0.360   4.907   4.169
 2278SOL    HW2 7281   0.371   4.744   4.165
 2279SOL     OW 7282   0.566   4.261   4.589
 2279SOL    HW1 7283   0.578   4.327   4.515
 2279SOL    HW2 7284   0.612   4.295   4.672
 2280SOL     OW 7285   1.252   5.072   4.112
 2280SOL    HW1 7286   1.302   5.149   4.152
 2280SOL    HW2 7287   1.157   5.074   4.144
 2281SOL     OW 7288   1.272   5.169   4.866
 2281SOL    HW1 7289   1.319   5.182   4.953
 2281SOL    HW2 7290   1.206   5.095   4.875
 2282SOL     OW 7291   1.582   4.363   4.196
 2282SOL    HW1 7292   1.551   4.424   4.269
 2282SOL    HW2 7293   1.632   4.415   4.127
 2283SOL     OW 7294   0.354   5.234   5.053
 2283SOL    HW1 7295   0.333   5.190   4.966
 2283SOL    HW2 7296   0.451   5.260   5.056
 2284SOL     OW 7297   0.402   4.475   5.322
 2284SOL    HW1 7298   0.470   4.530   5.275
 2284SOL    HW2 7299   0.442   4.387   5.349
 2285SOL     OW 7300   1.587   4.503   5.394
 2285SOL    HW1 7301   1.495   4.541   5.389
 2285SOL    HW2 7302   1.647   4.550   5.329
 2286SOL     OW 7303   1.013   3.829   5.494
 2286SOL    HW1 7304   1.019   3.914   5.442
 2286SOL    HW2 7305   1.045   3.753   5.437
 2287SOL     OW 7306   0.504   3.774   5.464
 2287SOL    HW1 7307   0.462   3.717   5.394
 2287SOL    HW2 7308   0.438   3.843   5.496
 2288SOL     OW 7309   0.573   4.594   4.753
 2288SOL    HW1 7310   0.617   4.683   4.744
 2288SOL    HW2 7311   0.510   4.594   4.830
 2289SOL     OW 7312   1.360   4.586   4.769
 2289SOL    HW1 7313   1.285   4.586   4.703
 2289SOL    HW2 7314   1.397   4.494   4.778
 2290SOL     OW 7315   1.209   4.249   3.999
 2290SOL    HW1 7316   1.222   4.165   4.053
 2290SOL    HW2 7317   1.180   4.323   4.059
 2291SOL     OW 7318   0.307   3.937   4.955
 2291SOL    HW1 7319   0.284   3.974   5.045
 2291SOL    HW2 7320   0.277   3.842   4.949
 2292SOL     OW 7321   0.037   5.034   5.006
 2292SOL    HW1 7322   0.090   4.985   5.074
 2292SOL    HW2 7323   0.059   5.132   5.011
 2293SOL     OW 7324   0.732   4.358   4.788
 2293SOL    HW1 7325   0.791   4.332   4.712
 2293SOL    HW2 7326   0.704   4.454   4.777
 2294SOL     OW 7327   1.728   4.659   5.578
 2294SOL    HW1 7328   1.682   4.652   5.489
 2294SOL    HW2 7329   1.666   4.703   5.644
 2295SOL     OW 7330   0.307   3.787   4.342
 2295SOL    HW1 7331   0.296   3.881   4.375
 2295SOL    HW2 7332   0.302   3.724   4.419
 2296SOL     OW 7333   1.622   4.091   4.098
 2296SOL    HW1 7334   1.624   4.015   4.162
 2296SOL    HW2 7335   1.574   4.168   4.138
 2297SOL     OW 7336   1.023   4.490   4.690
 2297SOL    HW1 7337   1.038   4.511   4.786
 2297SOL    HW2 7338   0.993   4.395   4.681
 2298SOL     OW 7339   1.859   5.242   5.329
 2298SOL    HW1 7340   1.873   5.269   5.234
 2298SOL    HW2 7341   1.942   5.264   5.382
 2299SOL     OW 7342   0.350   4.622   5.528
 2299SOL    HW1 7343   0.426   4.666   5.576
 2299SOL    HW2 7344   0.385   4.575   5.446
 2300SOL     OW 7345   1.540   3.998   3.849
 2300SOL    HW1 7346   1.479   3.923   3.872
 2300SOL    HW2 7347   1.562   4.050   3.932
 2301SOL     OW 7348   1.303   4.562   3.766
 2301SOL    HW1 7349   1.337   4.469   3.781
 2301SOL    HW2 7350   1.321   4.589   3.671
 2302SOL     OW 7351   1.068   5.057   4.573
 2302SOL    HW1 7352   1.075   4.973   4.518
 2302SOL    HW2 7353   1.130   5.126   4.537
 2303SOL     OW 7354   0.319   4.534   4.673
 2303SOL    HW1 7355   0.412   4.570   4.678
 2303SOL    HW2 7356   0.313   4.449   4.725
 2304SOL     OW 7357   0.339   4.233   4.730
 2304SOL    HW1 7358   0.287   4.150   4.713
 2304SOL    HW2 7359   0.416   4.238   4.666
 2305SOL     OW 7360   1.138   4.104   5.402
 2305SOL    HW1 7361   1.093   4.167   5.466
 2305SOL    HW2 7362   1.231   4.135   5.385
 2306SOL     OW 7363   1.160   3.931   5.201
 2306SOL    HW1 7364   1.160   3.995   5.278
 2306SOL    HW2 7365   1.188   3.979   5.118
 2307SOL     OW 7366   0.008   5.050   3.924
 2307SOL    HW1 7367  -0.085   5.071   3.893
 2307SOL    HW2 7368   0.018   4.951   3.937
 2308SOL     OW 7369   1.002   4.520   4.962
 2308SOL    HW1 7370   1.043   4.488   5.048
 2308SOL    HW2 7371   0.906   4.493   4.959
 2309SOL     OW 7372   0.040   4.268   4.838
 2309SOL    HW1 7373   0.125   4.235   4.797
 2309SOL    HW2 7374   0.053   4.283   4.936
 2310SOL     OW 7375   0.189   4.244   5.446
 2310SOL    HW1 7376   0.248   4.204   5.376
 2310SOL    HW2 7377   0.131   4.315   5.405
 2311SOL     OW 7378   1.369   4.674   5.384
 2311SOL    HW1 7379   1.408   4.763   5.404
 2311SOL    HW2 7380   1.379   4.654   5.287
 2312SOL     OW 7381   0.815   4.296   4.049
 2312SOL    HW1 7382   0.822   4.207   4.003
 2312SOL    HW2 7383   0.721   4.330   4.041
 2313SOL     OW 7384   1.657   4.328   4.930
 2313SOL    HW1 7385   1.619   4.259   4.992
 2313SOL    HW2 7386   1.739   4.292   4.886
 2314SOL     OW 7387   0.252   5.288   5.468
 2314SOL    HW1 7388   0.222   5.345   5.544
 2314SOL    HW2 7389   0.245   5.191   5.494
 2315SOL     OW 7390   0.671   4.188   4.993
 2315SOL    HW1 7391   0.637   4.099   4.963
 2315SOL    HW2 7392   0.697   4.242   4.913
 2316SOL     OW 7393   0.473   4.224   3.915
 2316SOL    HW1 7394   0.534   4.304   3.919
 2316SOL    HW2 7395   0.378   4.255   3.922
 2317SOL     OW 7396   0.159   4.861   5.190
 2317SOL    HW1 7397   0.181   4.800   5.266
 2317SOL    HW2 7398   0.169   4.812   5.104
 2318SOL     OW 7399   1.347   4.783   4.958
 2318SOL    HW1 7400   1.371   4.720   4.884
 2318SOL    HW2 7401   1.257   4.823   4.940
 2319SOL     OW 7402   1.302   4.579   4.033
 2319SOL    HW1 7403   1.216   4.548   4.075
 2319SOL    HW2 7404   1.298   4.565   3.934
 2320SOL     OW 7405   0.083   4.982   4.746
 2320SOL    HW1 7406   0.078   4.981   4.846
 2320SOL    HW2 7407   0.000   4.941   4.708
 2321SOL     OW 7408   0.688   5.386   5.440
 2321SOL    HW1 7409   0.632   5.467   5.449
 2321SOL    HW2 7410   0.740   5.390   5.354
 2322SOL     OW 7411   1.726   3.859   4.247
 2322SOL    HW1 7412   1.799   3.842   4.180
 2322SOL    HW2 7413   1.695   3.772   4.285
 2323SOL     OW 7414   1.280   4.651   4.396
 2323SOL    HW1 7415   1.340   4.570   4.398
 2323SOL    HW2 7416   1.320   4.720   4.336
 2324SOL     OW 7417   0.830   4.997   5.146
 2324SOL    HW1 7418   0.825   5.030   5.241
 2324SOL    HW2 7419   0.744   5.016   5.100
 2325SOL     OW 7420   1.841   3.899   4.687
 2325SOL    HW1 7421   1.880   3.814   4.651
 2325SOL    HW2 7422   1.743   3.901   4.668
 2326SOL     OW 7423   0.263   4.050   4.444
 2326SOL    HW1 7424   0.184   4.101   4.410
 2326SOL    HW2 7425   0.254   4.035   4.542
 2327SOL     OW 7426   0.822   4.726   5.096
 2327SOL    HW1 7427   0.862   4.725   5.004
 2327SOL    HW2 7428   0.832   4.818   5.136
 2328SOL     OW 7429   0.916   4.634   4.015
 2328SOL    HW1 7430   0.979   4.672   3.947
 2328SOL    HW2 7431   0.956   4.551   4.054
 2329SOL     OW 7432   0.372   5.012   5.214
 2329SOL    HW1 7433   0.359   5.105   5.180
 2329SOL    HW2 7434   0.288   4.960   5.201
 2330SOL     OW 7435   1.614   5.016   5.013
 2330SOL    HW1 7436   1.674   5.019   5.093
 2330SOL    HW2 7437   1.539   5.080   5.026
 2331SOL     OW 7438   1.039   4.822   4.420
 2331SOL    HW1 7439   0.969   4.775   4.474
 2331SOL    HW2 7440   1.098   4.754   4.377
 2332SOL     OW 7441   1.014   3.960   4.695
 2332SOL    HW1 7442   1.006   3.924   4.602
 2332SOL    HW2 7443   1.012   3.884   4.760
 2333SOL     OW 7444   1.709   4.109   5.105
 2333SOL    HW1 7445   1.782   4.178   5.109
 2333SOL    HW2 7446   1.737   4.034   5.046
 2334SOL     OW 7447   0.255   5.072   4.014
 2334SOL    HW1 7448   0.159   5.073   3.987
 2334SOL    HW2 7449   0.267   5.125   4.098
 2335SOL     OW 7450   0.105   4.737   5.450
 2335SOL    HW1 7451   0.028   4.704   5.504
 2335SOL    HW2 7452   0.190   4.707   5.492
 2336SOL     OW 7453   0.672   3.927   5.213
 2336SOL    HW1 7454   0.762   3.911   5.173
 2336SOL    HW2 7455   0.680   3.932   5.312
 2337SOL     OW 7456   0.075   4.069   3.757
 2337SOL    HW1 7457  -0.017   4.041   3.728
 2337SOL    HW2 7458   0.106   4.146   3.701
 2338SOL     OW 7459   1.440   4.580   5.122
 2338SOL    HW1 7460   1.383   4.632   5.059
 2338SOL    HW2 7461   1.536   4.592   5.098
 2339SOL     OW 7462   0.072   3.890   4.042
 2339SOL    HW1 7463   0.055   3.973   3.988
 2339SOL    HW2 7464   0.162   3.853   4.020
 2340SOL     OW 7465   1.183   5.059   3.843
 2340SOL    HW1 7466   1.084   5.048   3.845
 2340SOL    HW2 7467   1.217   5.074   3.936
 2341SOL     OW 7468   0.613   4.566   5.155
 2341SOL    HW1 7469   0.669   4.647   5.138
 2341SOL    HW2 7470   0.672   4.486   5.158
 2342SOL     OW 7471   0.716   4.289   5.432
 2342SOL    HW1 7472   0.735   4.354   5.506
 2342SOL    HW2 7473   0.776   4.209   5.441
 2343SOL     OW 7474   1.450   4.944   5.357
 2343SOL    HW1 7475   1.441   4.934   5.456
 2343SOL    HW2 7476   1.546   4.937   5.331
 2344SOL     OW 7477   1.674   4.607   4.978
 2344SOL    HW1 7478   1.647   4.518   4.941
 2344SOL    HW2 7479   1.675   4.675   4.905
 2345SOL     OW 7480   1.225   4.049   4.173
 2345SOL    HW1 7481   1.290   3.975   4.162
 2345SOL    HW2 7482   1.245   4.099   4.257
 2346SOL     OW 7483   0.594   4.469   4.376
 2346SOL    HW1 7484   0.644   4.554   4.357
 2346SOL    HW2 7485   0.506   4.471   4.328
 2347SOL     OW 7486   1.777   4.066   5.366
 2347SOL    HW1 7487   1.760   4.097   5.272
 2347SOL    HW2 7488   1.693   4.029   5.404
 2348SOL     OW 7489   1.730   4.658   5.241
 2348SOL    HW1 7490   1.768   4.749   5.256
 2348SOL    HW2 7491   1.722   4.641   5.142
 2349SOL     OW 7492   0.859   5.098   3.740
 2349SOL    HW1 7493   0.813   5.113   3.828
 2349SOL    HW2 7494   0.903   5.183   3.710
 2350SOL     OW 7495   0.859   4.680   4.585
 2350SOL    HW1 7496   0.913   4.611   4.633
 2350SOL    HW2 7497   0.827   4.749   4.651
 2351SOL     OW 7498   1.083   4.708   3.811
 2351SOL    HW1 7499   1.060   4.761   3.729
 2351SOL    HW2 7500   1.164   4.652   3.792
 2352SOL     OW 7501   0.221   5.038   5.568
 2352SOL    HW1 7502   0.156   4.965   5.547
 2352SOL    HW2 7503   0.225   5.052   5.666
 2353SOL     OW 7504   0.079   4.964   4.377
 2353SOL    HW1 7505   0.078   4.917   4.465
 2353SOL    HW2 7506   0.161   4.936   4.326
 2354SOL     OW 7507   0.672   5.115   5.348
 2354SOL    HW1 7508   0.594   5.065   5.386
 2354SOL    HW2 7509   0.669   5.210   5.379
 2355SOL     OW 7510   1.824   3.916   4.951
 2355SOL    HW1 7511   1.820   3.826   4.995
 2355SOL    HW2 7512   1.827   3.905   4.852
 2356SOL     OW 7513   0.428   4.148   4.244
 2356SOL    HW1 7514   0.458   4.076   4.182
 2356SOL    HW2 7515   0.389   4.108   4.327
 2357SOL     OW 7516   1.705   5.211   4.828
 2357SOL    HW1 7517   1.612   5.186   4.801
 2357SOL    HW2 7518   1.731   5.161   4.910
 2358SOL     OW 7519   0.317   4.271   5.004
 2358SOL    HW1 7520   0.355   4.212   5.076
 2358SOL    HW2 7521   0.357   4.245   4.916
 2359SOL     OW 7522   1.424   3.938   4.836
 2359SOL    HW1 7523   1.476   3.873   4.891
 2359SOL    HW2 7524   1.375   4.001   4.897
 2360SOL     OW 7525   1.001   3.758   4.878
 2360SOL    HW1 7526   0.938   3.686   4.847
 2360SOL    HW2 7527   1.094   3.722   4.878
 2361SOL     OW 7528   0.770   5.054   4.025
 2361SOL    HW1 7529   0.724   4.967   4.042
 2361SOL    HW2 7530   0.861   5.051   4.066
 2362SOL     OW 7531   0.618   5.291   5.008
 2362SOL    HW1 7532   0.613   5.373   5.065
 2362SOL    HW2 7533   0.707   5.288   4.963
 2363SOL     OW 7534   1.352   3.776   3.892
 2363SOL    HW1 7535   1.387   3.735   3.808
 2363SOL    HW2 7536   1.262   3.738   3.912
 2364SOL     OW 7537   1.300   4.177   4.415
 2364SOL    HW1 7538   1.241   4.257   4.419
 2364SOL    HW2 7539   1.315   4.142   4.508
 2365SOL     OW 7540   1.593   3.945   4.606
 2365SOL    HW1 7541   1.509   3.944   4.660
 2365SOL    HW2 7542   1.595   4.028   4.550
 2366SOL     OW 7543   0.039   4.801   4.024
 2366SOL    HW1 7544   0.138   4.790   4.015
 2366SOL    HW2 7545  -0.001   4.715   4.056
 2367SOL     OW 7546   0.230   4.352   5.699
 2367SOL    HW1 7547   0.137   4.350   5.736
 2367SOL    HW2 7548   0.231   4.313   5.607
 2368SOL     OW 7549   0.225   3.999   6.582
 2368SOL    HW1 7550   0.260   3.982   6.674
 2368SOL    HW2 7551   0.137   3.954   6.570
 2369SOL     OW 7552   0.019   4.092   6.233
 2369SOL    HW1 7553  -0.063   4.135   6.272
 2369SOL    HW2 7554  -0.009   4.019   6.170
 2370SOL     OW 7555   0.569   4.999   6.751
 2370SOL    HW1 7556   0.476   4.992   6.714
 2370SOL    HW2 7557   0.580   5.088   6.795
 2371SOL     OW 7558   1.555   5.235   6.289
 2371SOL    HW1 7559   1.498   5.219   6.370
 2371SOL    HW2 7560   1.496   5.245   6.209
 2372SOL     OW 7561   1.135   4.427   6.303
 2372SOL    HW1 7562   1.192   4.505   6.278
 2372SOL    HW2 7563   1.075   4.453   6.379
 2373SOL     OW 7564   1.755   4.331   5.817
 2373SOL    HW1 7565   1.743   4.318   5.718
 2373SOL    HW2 7566   1.725   4.250   5.866
 2374SOL     OW 7567   0.768   4.868   6.609
 2374SOL    HW1 7568   0.690   4.885   6.669
 2374SOL    HW2 7569   0.802   4.955   6.573
 2375SOL     OW 7570   0.850   4.522   7.409
 2375SOL    HW1 7571   0.846   4.598   7.474
 2375SOL    HW2 7572   0.872   4.558   7.318
 2376SOL     OW 7573   0.685   4.736   6.251
 2376SOL    HW1 7574   0.754   4.720   6.321
 2376SOL    HW2 7575   0.612   4.793   6.289
 2377SOL     OW 7576   0.686   4.885   7.389
 2377SOL    HW1 7577   0.746   4.964   7.403
 2377SOL    HW2 7578   0.600   4.916   7.348
 2378SOL     OW 7579   0.335   5.159   6.647
 2378SOL    HW1 7580   0.257   5.128   6.594
 2378SOL    HW2 7581   0.393   5.217   6.590
 2379SOL     OW 7582   1.460   5.229   6.925
 2379SOL    HW1 7583   1.484   5.323   6.951
 2379SOL    HW2 7584   1.444   5.175   7.007
 2380SOL     OW 7585   0.438   4.116   7.085
 2380SOL    HW1 7586   0.520   4.060   7.094
 2380SOL    HW2 7587   0.357   4.058   7.089
 2381SOL     OW 7588   1.603   4.171   6.323
 2381SOL    HW1 7589   1.529   4.217   6.273
 2381SOL    HW2 7590   1.654   4.239   6.376
 2382SOL     OW 7591   1.127   5.065   7.276
 2382SOL    HW1 7592   1.174   5.065   7.364
 2382SOL    HW2 7593   1.079   4.978   7.265
 2383SOL     OW 7594   0.230   5.158   6.124
 2383SOL    HW1 7595   0.204   5.254   6.124
 2383SOL    HW2 7596   0.159   5.104   6.169
 2384SOL     OW 7597   0.240   4.815   6.472
 2384SOL    HW1 7598   0.254   4.731   6.524
 2384SOL    HW2 7599   0.185   4.879   6.527
 2385SOL     OW 7600   0.606   4.688   5.709
 2385SOL    HW1 7601   0.613   4.772   5.655
 2385SOL    HW2 7602   0.652   4.701   5.797
 2386SOL     OW 7603   1.594   3.838   7.066
 2386SOL    HW1 7604   1.576   3.905   6.994
 2386SOL    HW2 7605   1.591   3.884   7.155
 2387SOL     OW 7606   0.122   4.367   6.149
 2387SOL    HW1 7607   0.077   4.279   6.166
 2387SOL    HW2 7608   0.121   4.421   6.233
 2388SOL     OW 7609   0.027   5.320   5.703
 2388SOL    HW1 7610   0.008   5.224   5.724
 2388SOL    HW2 7611  -0.006   5.378   5.778
 2389SOL     OW 7612   1.689   4.646   6.198
 2389SOL    HW1 7613   1.784   4.617   6.206
 2389SOL    HW2 7614   1.681   4.711   6.123
 2390SOL     OW 7615   1.641   4.832   6.018
 2390SOL    HW1 7616   1.727   4.834   5.966
 2390SOL    HW2 7617   1.655   4.879   6.106
 2391SOL     OW 7618   0.113   4.461   7.183
 2391SOL    HW1 7619   0.201   4.448   7.228
 2391SOL    HW2 7620   0.100   4.558   7.161
 2392SOL     OW 7621   0.613   5.089   6.312
 2392SOL    HW1 7622   0.564   5.002   6.321
 2392SOL    HW2 7623   0.590   5.132   6.225
 2393SOL     OW 7624   1.293   4.952   7.009
 2393SOL    HW1 7625   1.330   4.879   6.951
 2393SOL    HW2 7626   1.345   4.957   7.094
 2394SOL     OW 7627   0.809   3.728   6.088
 2394SOL    HW1 7628   0.849   3.819   6.079
 2394SOL    HW2 7629   0.709   3.736   6.094
 2395SOL     OW 7630   0.197   4.700   6.850
 2395SOL    HW1 7631   0.286   4.655   6.836
 2395SOL    HW2 7632   0.124   4.635   6.831
 2396SOL     OW 7633   1.525   4.723   5.776
 2396SOL    HW1 7634   1.462   4.647   5.789
 2396SOL    HW2 7635   1.573   4.741   5.862
 2397SOL     OW 7636   0.317   3.975   7.387
 2397SOL    HW1 7637   0.388   4.046   7.393
 2397SOL    HW2 7638   0.229   4.014   7.415
 2398SOL     OW 7639   1.466   5.141   6.539
 2398SOL    HW1 7640   1.407   5.147   6.619
 2398SOL    HW2 7641   1.451   5.053   6.493
 2399SOL     OW 7642   0.598   4.453   5.856
 2399SOL    HW1 7643   0.622   4.522   5.788
 2399SOL    HW2 7644   0.520   4.486   5.910
 2400SOL     OW 7645   1.281   4.069   6.530
 2400SOL    HW1 7646   1.195   4.019   6.517
 2400SOL    HW2 7647   1.343   4.015   6.586
 2401SOL     OW 7648   0.807   4.329   7.051
 2401SOL    HW1 7649   0.760   4.326   7.140
 2401SOL    HW2 7650   0.756   4.274   6.985
 2402SOL     OW 7651   1.394   4.193   7.260
 2402SOL    HW1 7652   1.374   4.236   7.348
 2402SOL    HW2 7653   1.472   4.131   7.269
 2403SOL     OW 7654   0.973   4.614   7.158
 2403SOL    HW1 7655   1.019   4.530   7.129
 2403SOL    HW2 7656   0.917   4.648   7.083
 2404SOL     OW 7657   0.991   4.134   6.828
 2404SOL    HW1 7658   0.914   4.168   6.882
 2404SOL    HW2 7659   0.957   4.083   6.749
 2405SOL     OW 7660   1.041   4.425   6.015
 2405SOL    HW1 7661   1.067   4.421   6.111
 2405SOL    HW2 7662   0.956   4.374   6.001
 2406SOL     OW 7663   0.076   4.535   6.375
 2406SOL    HW1 7664   0.175   4.523   6.384
 2406SOL    HW2 7665   0.052   4.630   6.396
 2407SOL     OW 7666   0.865   4.072   5.781
 2407SOL    HW1 7667   0.924   4.135   5.732
 2407SOL    HW2 7668   0.884   3.978   5.752
 2408SOL     OW 7669   1.719   4.309   7.417
 2408SOL    HW1 7670   1.693   4.398   7.381
 2408SOL    HW2 7671   1.717   4.241   7.344
 2409SOL     OW 7672   1.362   4.868   6.131
 2409SOL    HW1 7673   1.445   4.839   6.083
 2409SOL    HW2 7674   1.313   4.935   6.075
 2410SOL     OW 7675   0.550   3.920   6.471
 2410SOL    HW1 7676   0.545   3.915   6.571
 2410SOL    HW2 7677   0.552   4.016   6.442
 2411SOL     OW 7678   1.008   5.180   6.063
 2411SOL    HW1 7679   0.962   5.252   6.011
 2411SOL    HW2 7680   1.004   5.200   6.161
 2412SOL     OW 7681   1.795   4.790   6.459
 2412SOL    HW1 7682   1.733   4.775   6.383
 2412SOL    HW2 7683   1.743   4.801   6.544
 2413SOL     OW 7684   1.227   5.274   7.092
 2413SOL    HW1 7685   1.233   5.197   7.156
 2413SOL    HW2 7686   1.175   5.248   7.012
 2414SOL     OW 7687   0.321   4.667   5.828
 2414SOL    HW1 7688   0.403   4.706   5.786
 2414SOL    HW2 7689   0.294   4.585   5.779
 2415SOL     OW 7690   1.458   4.459   6.314
 2415SOL    HW1 7691   1.453   4.394   6.389
 2415SOL    HW2 7692   1.538   4.518   6.327
 2416SOL     OW 7693   0.461   4.990   7.313
 2416SOL    HW1 7694   0.411   4.991   7.227
 2416SOL    HW2 7695   0.398   4.972   7.389
 2417SOL     OW 7696   1.111   5.500   5.823
 2417SOL    HW1 7697   1.051   5.438   5.873
 2417SOL    HW2 7698   1.142   5.456   5.738
 2418SOL     OW 7699   0.202   4.009   7.084
 2418SOL    HW1 7700   0.122   4.069   7.071
 2418SOL    HW2 7701   0.192   3.960   7.170
 2419SOL     OW 7702   1.632   5.101   5.667
 2419SOL    HW1 7703   1.600   5.195   5.657
 2419SOL    HW2 7704   1.556   5.038   5.655
 2420SOL     OW 7705   1.400   3.831   6.012
 2420SOL    HW1 7706   1.376   3.794   5.922
 2420SOL    HW2 7707   1.499   3.847   6.016
 2421SOL     OW 7708   0.382   4.424   6.066
 2421SOL    HW1 7709   0.427   4.334   6.063
 2421SOL    HW2 7710   0.288   4.413   6.099
 2422SOL     OW 7711   1.547   3.946   7.315
 2422SOL    HW1 7712   1.542   3.983   7.407
 2422SOL    HW2 7713   1.475   3.877   7.303
 2423SOL     OW 7714   0.614   3.846   5.703
 2423SOL    HW1 7715   0.712   3.824   5.710
 2423SOL    HW2 7716   0.583   3.829   5.610
 2424SOL     OW 7717   0.781   3.988   7.335
 2424SOL    HW1 7718   0.848   3.927   7.378
 2424SOL    HW2 7719   0.708   4.007   7.400
 2425SOL     OW 7720   1.351   4.314   7.019
 2425SOL    HW1 7721   1.379   4.271   7.104
 2425SOL    HW2 7722   1.376   4.410   7.020
 2426SOL     OW 7723   0.803   5.126   6.510
 2426SOL    HW1 7724   0.893   5.140   6.468
 2426SOL    HW2 7725   0.732   5.128   6.439
 2427SOL     OW 7726   0.922   4.227   6.485
 2427SOL    HW1 7727   0.897   4.218   6.389
 2427SOL    HW2 7728   0.970   4.145   6.516
 2428SOL     OW 7729   0.539   3.788   6.098
 2428SOL    HW1 7730   0.458   3.789   6.156
 2428SOL    HW2 7731   0.542   3.871   6.043
 2429SOL     OW 7732   1.434   4.912   5.627
 2429SOL    HW1 7733   1.466   4.836   5.684
 2429SOL    HW2 7734   1.342   4.939   5.657
 2430SOL     OW 7735   0.297   3.759   5.757
 2430SOL    HW1 7736   0.346   3.843   5.736
 2430SOL    HW2 7737   0.359   3.694   5.802
 2431SOL     OW 7738   0.935   3.960   6.066
 2431SOL    HW1 7739   0.887   4.001   5.988
 2431SOL    HW2 7740   1.034   3.958   6.047
 2432SOL     OW 7741   1.076   4.407   7.050
 2432SOL    HW1 7742   0.996   4.346   7.053
 2432SOL    HW2 7743   1.157   4.354   7.026
 2433SOL     OW 7744   1.227   5.294   6.379
 2433SOL    HW1 7745   1.248   5.368   6.314
 2433SOL    HW2 7746   1.295   5.294   6.452
 2434SOL     OW 7747   0.459   4.876   6.327
 2434SOL    HW1 7748   0.388   4.849   6.392
 2434SOL    HW2 7749   0.433   4.848   6.234
 2435SOL     OW 7750   1.032   4.273   5.602
 2435SOL    HW1 7751   0.991   4.355   5.563
 2435SOL    HW2 7752   1.096   4.299   5.675
 2436SOL     OW 7753   0.078   4.280   6.972
 2436SOL    HW1 7754   0.170   4.279   6.931
 2436SOL    HW2 7755   0.072   4.354   7.039
 2437SOL     OW 7756   0.561   3.946   6.733
 2437SOL    HW1 7757   0.599   3.862   6.770
 2437SOL    HW2 7758   0.473   3.965   6.777
 2438SOL     OW 7759   0.866   4.178   6.228
 2438SOL    HW1 7760   0.834   4.250   6.166
 2438SOL    HW2 7761   0.890   4.097   6.175
 2439SOL     OW 7762   1.017   3.763   6.339
 2439SOL    HW1 7763   0.945   3.768   6.270
 2439SOL    HW2 7764   0.993   3.694   6.408
 2440SOL     OW 7765   1.429   4.897   6.453
 2440SOL    HW1 7766   1.374   4.813   6.446
 2440SOL    HW2 7767   1.455   4.926   6.361
 2441SOL     OW 7768   1.466   4.314   6.578
 2441SOL    HW1 7769   1.436   4.219   6.585
 2441SOL    HW2 7770   1.539   4.330   6.644
 2442SOL     OW 7771   1.857   4.557   5.963
 2442SOL    HW1 7772   1.899   4.493   6.027
 2442SOL    HW2 7773   1.819   4.506   5.885
 2443SOL     OW 7774   0.488   5.109   5.760
 2443SOL    HW1 7775   0.401   5.094   5.807
 2443SOL    HW2 7776   0.471   5.135   5.665
 2444SOL     OW 7777   1.664   5.004   6.243
 2444SOL    HW1 7778   1.763   5.012   6.257
 2444SOL    HW2 7779   1.619   5.088   6.274
 2445SOL     OW 7780   1.390   4.299   5.664
 2445SOL    HW1 7781   1.336   4.278   5.745
 2445SOL    HW2 7782   1.481   4.258   5.673
 2446SOL     OW 7783   0.527   3.980   5.914
 2446SOL    HW1 7784   0.554   3.921   5.839
 2446SOL    HW2 7785   0.527   4.075   5.883
 2447SOL     OW 7786   1.754   4.947   7.174
 2447SOL    HW1 7787   1.845   4.908   7.161
 2447SOL    HW2 7788   1.762   5.043   7.198
 2448SOL     OW 7789   1.064   5.071   6.926
 2448SOL    HW1 7790   0.984   5.048   6.981
 2448SOL    HW2 7791   1.147   5.045   6.975
 2449SOL     OW 7792   1.111   4.919   6.686
 2449SOL    HW1 7793   1.071   4.963   6.767
 2449SOL    HW2 7794   1.070   4.956   6.603
 2450SOL     OW 7795   1.638   4.823   6.665
 2450SOL    HW1 7796   1.643   4.904   6.724
 2450SOL    HW2 7797   1.552   4.825   6.614
 2451SOL     OW 7798   0.915   3.813   6.988
 2451SOL    HW1 7799   0.940   3.793   6.893
 2451SOL    HW2 7800   0.987   3.869   7.030
 2452SOL     OW 7801   0.980   4.840   7.305
 2452SOL    HW1 7802   0.881   4.846   7.315
 2452SOL    HW2 7803   1.003   4.760   7.249
 2453SOL     OW 7804   0.705   4.774   5.954
 2453SOL    HW1 7805   0.691   4.781   6.053
 2453SOL    HW2 7806   0.789   4.723   5.936
 2454SOL     OW 7807   0.410   4.537   6.837
 2454SOL    HW1 7808   0.496   4.549   6.887
 2454SOL    HW2 7809   0.368   4.450   6.864
 2455SOL     OW 7810   1.274   4.110   6.848
 2455SOL    HW1 7811   1.295   4.184   6.912
 2455SOL    HW2 7812   1.185   4.127   6.805
 2456SOL     OW 7813   0.064   5.288   6.917
 2456SOL    HW1 7814   0.018   5.370   6.883
 2456SOL    HW2 7815   0.162   5.307   6.926
 2457SOL     OW 7816   0.367   4.824   6.087
 2457SOL    HW1 7817   0.360   4.907   6.031
 2457SOL    HW2 7818   0.371   4.744   6.027
 2458SOL     OW 7819   0.566   4.261   6.451
 2458SOL    HW1 7820   0.578   4.327   6.377
 2458SOL    HW2 7821   0.612   4.295   6.534
 2459SOL     OW 7822   1.252   5.072   5.974
 2459SOL    HW1 7823   1.302   5.149   6.014
 2459SOL    HW2 7824   1.157   5.074   6.006
 2460SOL     OW 7825   1.272   5.169   6.728
 2460SOL    HW1 7826   1.319   5.182   6.815
 2460SOL    HW2 7827   1.206   5.095   6.737
 2461SOL     OW 7828   1.582   4.363   6.058
 2461SOL    HW1 7829   1.551   4.424   6.131
 2461SOL    HW2 7830   1.632   4.415   5.989
 2462SOL     OW 7831   0.354   5.234   6.915
 2462SOL    HW1 7832   0.333   5.190   6.828
 2462SOL    HW2 7833   0.451   5.260   6.918
 2463SOL     OW 7834   0.402   4.475   7.184
 2463SOL    HW1 7835   0.470   4.530   7.137
 2463SOL    HW2 7836   0.442   4.387   7.211
 2464SOL     OW 7837   1.587   4.503   7.256
 2464SOL    HW1 7838   1.495   4.541   7.251
 2464SOL    HW2 7839   1.647   4.550   7.191
 2465SOL     OW 7840   1.013   3.829   7.356
 2465SOL    HW1 7841   1.019   3.914   7.304
 2465SOL    HW2 7842   1.045   3.753   7.299
 2466SOL     OW 7843   0.504   3.774   7.326
 2466SOL    HW1 7844   0.462   3.717   7.256
 2466SOL    HW2 7845   0.438   3.843   7.358
 2467SOL     OW 7846   0.573   4.594   6.615
 2467SOL    HW1 7847   0.617   4.683   6.606
 2467SOL    HW2 7848   0.510   4.594   6.692
 2468SOL     OW 7849   1.360   4.586   6.631
 2468SOL    HW1 7850   1.285   4.586   6.565
 2468SOL    HW2 7851   1.397   4.494   6.640
 2469SOL     OW 7852   1.209   4.249   5.861
 2469SOL    HW1 7853   1.222   4.165   5.915
 2469SOL    HW2 7854   1.180   4.323   5.921
 2470SOL     OW 7855   0.307   3.937   6.817
 2470SOL    HW1 7856   0.284   3.974   6.907
 2470SOL    HW2 7857   0.277   3.842   6.811
 2471SOL     OW 7858   0.037   5.034   6.868
 2471SOL    HW1 7859   0.090   4.985   6.936
 2471SOL    HW2 7860   0.059   5.132   6.873
 2472SOL     OW 7861   0.732   4.358   6.650
 2472SOL    HW1 7862   0.791   4.332   6.574
 2472SOL    HW2 7863   0.704   4.454   6.639
 2473SOL     OW 7864   1.728   4.659   7.440
 2473SOL    HW1 7865   1.682   4.652   7.351
 2473SOL    HW2 7866   1.666   4.703   7.506
 2474SOL     OW 7867   0.307   3.787   6.204
 2474SOL    HW1 7868   0.296   3.881   6.237
 2474SOL    HW2 7869   0.302   3.724   6.281
 2475SOL     OW 7870   1.622   4.091   5.960
 2475SOL    HW1 7871   1.624   4.015   6.024
 2475SOL    HW2 7872   1.574   4.168   6.000
 2476SOL     OW 7873   1.023   4.490   6.552
 2476SOL    HW1 7874   1.038   4.511   6.648
 2476SOL    HW2 7875   0.993   4.395   6.543
 2477SOL     OW 7876   1.859   5.242   7.191
 2477SOL    HW1 7877   1.873   5.269   7.096
 2477SOL    HW2 7878   1.942   5.264   7.244
 2478SOL     OW 7879   0.350   4.622   7.390
 2478SOL    HW1 7880   0.426   4.666   7.438
 2478SOL    HW2 7881   0.385   4.575   7.308
 2479SOL     OW 7882   1.540   3.998   5.711
 2479SOL    HW1 7883   1.479   3.923   5.734
 2479SOL    HW2 7884   1.562   4.050   5.794
 2480SOL     OW 7885   1.303   4.562   5.628
 2480SOL    HW1 7886   1.337   4.469   5.643
 2480SOL    HW2 7887   1.321   4.589   5.533
 2481SOL     OW 7888   1.068   5.057   6.435
 2481SOL    HW1 7889   1.075   4.973   6.380
 2481SOL    HW2 7890   1.130   5.126   6.399
 2482SOL     OW 7891   0.319   4.534   6.535
 2482SOL    HW1 7892   0.412   4.570   6.540
 2482SOL    HW2 7893   0.313   4.449   6.587
 2483SOL     OW 7894   0.339   4.233   6.592
 2483SOL    HW1 7895   0.287   4.150   6.575
 2483SOL    HW2 7896   0.416   4.238   6.528
 2484SOL     OW 7897   1.138   4.104   7.264
 2484SOL    HW1 7898   1.093   4.167   7.328
 2484SOL    HW2 7899   1.231   4.135   7.247
 2485SOL     OW 7900   1.160   3.931   7.063
 2485SOL    HW1 7901   1.160   3.995   7.140
 2485SOL    HW2 7902   1.188   3.979   6.980
 2486SOL     OW 7903   0.008   5.050   5.786
 2486SOL    HW1 7904  -0.085   5.071   5.755
 2486SOL    HW2 7905   0.018   4.951   5.799
 2487SOL     OW 7906   1.002   4.520   6.824
 2487SOL    HW1 7907   1.043   4.488   6.910
 2487SOL    HW2 7908   0.906   4.493   6.821
 2488SOL     OW 7909   0.040   4.268   6.700
 2488SOL    HW1 7910   0.125   4.235   6.659
 2488SOL    HW2 7911   0.053   4.283   6.798
 2489SOL     OW 7912   0.189   4.244   7.308
 2489SOL    HW1 7913   0.248   4.204   7.238
 2489SOL    HW2 7914   0.131   4.315   7.267
 2490SOL     OW 7915   1.369   4.674   7.246
 2490SOL    HW1 7916   1.408   4.763   7.266
 2490SOL    HW2 7917   1.379   4.654   7.149
 2491SOL     OW 7918   0.815   4.296   5.911
 2491SOL    HW1 7919   0.822   4.207   5.865
 2491SOL    HW2 7920   0.721   4.330   5.903
 2492SOL     OW 7921   1.657   4.328   6.792
 2492SOL    HW1 7922   1.619   4.259   6.854
 2492SOL    HW2 7923   1.739   4.292   6.748
 2493SOL     OW 7924   0.252   5.288   7.330
 2493SOL    HW1 7925   0.222   5.345   7.406
 2493SOL    HW2 7926   0.245   5.191   7.356
 2494SOL     OW 7927   0.671   4.188   6.855
 2494SOL    HW1 7928   0.637   4.099   6.825
 2494SOL    HW2 7929   0.697   4.242   6.775
 2495SOL     OW 7930   0.473   4.224   5.777
 2495SOL    HW1 7931   0.534   4.304   5.781
 2495SOL    HW2 7932   0.378   4.255   5.784
 2496SOL     OW 7933   0.159   4.861   7.052
 2496SOL    HW1 7934   0.181   4.800   7.128
 2496SOL    HW2 7935   0.169   4.812   6.966
 2497SOL     OW 7936   1.347   4.783   6.820
 2497SOL    HW1 7937   1.371   4.720   6.746
 2497SOL    HW2 7938   1.257   4.823   6.802
 2498SOL     OW 7939   1.302   4.579   5.895
 2498SOL    HW1 7940   1.216   4.548   5.937
 2498SOL    HW2 7941   1.298   4.565   5.796
 2499SOL     OW 7942   0.083   4.982   6.608
 2499SOL    HW1 7943   0.078   4.981   6.708
 2499SOL    HW2 7944   0.000   4.941   6.570
 2500SOL     OW 7945   0.688   5.386   7.302
 2500SOL    HW1 7946   0.632   5.467   7.311
 2500SOL    HW2 7947   0.740   5.390   7.216
 2501SOL     OW 7948   1.726   3.859   6.109
 2501SOL    HW1 7949   1.799   3.842   6.042
 2501SOL    HW2 7950   1.695   3.772   6.147
 2502SOL     OW 7951   1.280   4.651   6.258
 2502SOL    HW1 7952   1.340   4.570   6.260
 2502SOL    HW2 7953   1.320   4.720   6.198
 2503SOL     OW 7954   0.830   4.997   7.008
 2503SOL    HW1 7955   0.825   5.030   7.103
 2503SOL    HW2 7956   0.744   5.016   6.962
 2504SOL     OW 7957   1.841   3.899   6.549
 2504SOL    HW1 7958   1.880   3.814   6.513
 2504SOL    HW2 7959   1.743   3.901   6.530
 2505SOL     OW 7960   0.263   4.050   6.306
 2505SOL    HW1 7961   0.184   4.101   6.272
 2505SOL    HW2 7962   0.254   4.035   6.404
 2506SOL     OW 7963   0.822   4.726   6.958
 2506SOL    HW1 7964   0.862   4.725   6.866
 2506SOL    HW2 7965   0.832   4.818   6.998
 2507SOL     OW 7966   0.916   4.634   5.877
 2507SOL    HW1 7967   0.979   4.672   5.809
 2507SOL    HW2 7968   0.956   4.551   5.916
 2508SOL     OW 7969   0.372   5.012   7.076
 2508SOL    HW1 7970   0.359   5.105   7.042
 2508SOL    HW2 7971   0.288   4.960   7.063
 2509SOL     OW 7972   1.614   5.016   6.875
 2509SOL    HW1 7973   1.674   5.019   6.955
 2509SOL    HW2 7974   1.539   5.080   6.888
 2510SOL     OW 7975   1.039   4.822   6.282
 2510SOL    HW1 7976   0.969   4.775   6.336
 2510SOL    HW2 7977   1.098   4.754   6.239
 2511SOL     OW 7978   1.014   3.960   6.557
 2511SOL    HW1 7979   1.006   3.924   6.464
 2511SOL    HW2 7980   1.012   3.884   6.622
 2512SOL     OW 7981   1.709   4.109   6.967
 2512SOL    HW1 7982   1.782   4.178   6.971
 2512SOL    HW2 7983   1.737   4.034   6.908
 2513SOL     OW 7984   0.255   5.072   5.876
 2513SOL    HW1 7985   0.159   5.073   5.849
 2513SOL    HW2 7986   0.267   5.125   5.960
 2514SOL     OW 7987   0.105   4.737   7.312
 2514SOL    HW1 7988   0.028   4.704   7.366
 2514SOL    HW2 7989   0.190   4.707   7.354
 2515SOL     OW 7990   0.672   3.927   7.075
 2515SOL    HW1 7991   0.762   3.911   7.035
 2515SOL    HW2 7992   0.680   3.932   7.174
 2516SOL     OW 7993   0.075   4.069   5.619
 2516SOL    HW1 7994  -0.017   4.041   5.590
 2516SOL    HW2 7995   0.106   4.146   5.563
 2517SOL     OW 7996   1.440   4.580   6.984
 2517SOL    HW1 7997   1.383   4.632   6.921
 2517SOL    HW2 7998   1.536   4.592   6.960
 2518SOL     OW 7999   0.072   3.890   5.904
 2518SOL    HW1 8000   0.055   3.973   5.850
 2518SOL    HW2 8001   0.162   3.853   5.882
 2519SOL     OW 8002   1.183   5.059   5.705
 2519SOL    HW1 8003   1.084   5.048   5.707
 2519SOL    HW2 8004   1.217   5.074   5.798
 2520SOL     OW 8005   0.613   4.566   7.017
 2520SOL    HW1 8006   0.669   4.647   7.000
 2520SOL    HW2 8007   0.672   4.486   7.020
 2521SOL     OW 8008   0.716   4.289   7.294
 2521SOL    HW1 8009   0.735   4.354   7.368
 2521SOL    HW2 8010   0.776   4.209   7.303
 2522SOL     OW 8011   1.450   4.944   7.219
 2522SOL    HW1 8012   1.441   4.934   7.318
 2522SOL    HW2 8013   1.546   4.937   7.193
 2523SOL     OW 8014   1.674   4.607   6.840
 2523SOL    HW1 8015   1.647   4.518   6.803
 2523SOL    HW2 8016   1.675   4.675   6.767
 2524SOL     OW 8017   1.225   4.049   6.035
 2524SOL    HW1 8018   1.290   3.975   6.024
 2524SOL    HW2 8019   1.245   4.099   6.119
 2525SOL     OW 8020   0.594   4.469   6.238
 2525SOL    HW1 8021   0.644   4.554   6.219
 2525SOL    HW2 8022   0.506   4.471   6.190
 2526SOL     OW 8023   1.777   4.066   7.228
 2526SOL    HW1 8024   1.760   4.097   7.134
 2526SOL    HW2 8025   1.693   4.029   7.266
 2527SOL     OW 8026   1.730   4.658   7.103
 2527SOL    HW1 8027   1.768   4.749   7.118
 2527SOL    HW2 8028   1.722   4.641   7.004
 2528SOL     OW 8029   0.859   5.098   5.602
 2528SOL    HW1 8030   0.813   5.113   5.690
 2528SOL    HW2 8031   0.903   5.183   5.572
 2529SOL     OW 8032   0.859   4.680   6.447
 2529SOL    HW1 8033   0.913   4.611   6.495
 2529SOL    HW2 8034   0.827   4.749   6.513
 2530SOL     OW 8035   1.083   4.708   5.673
 2530SOL    HW1 8036   1.060   4.761   5.591
 2530SOL    HW2 8037   1.164   4.652   5.654
 2531SOL     OW 8038   0.221   5.038   7.430
 2531SOL    HW1 8039   0.156   4.965   7.409
 2531SOL    HW2 8040   0.225   5.052   7.528
 2532SOL     OW 8041   0.079   4.964   6.239
 2532SOL    HW1 8042   0.078   4.917   6.327
 2532SOL    HW2 8043   0.161   4.936   6.188
 2533SOL     OW 8044   0.672   5.115   7.210
 2533SOL    HW1 8045   0.594   5.065   7.248
 2533SOL    HW2 8046   0.669   5.210   7.241
 2534SOL     OW 8047   1.824   3.916   6.813
 2534SOL    HW1 8048   1.820   3.826   6.857
 2534SOL    HW2 8049   1.827   3.905   6.714
 2535SOL     OW 8050   0.428   4.148   6.106
 2535SOL    HW1 8051   0.458   4.076   6.044
 2535SOL    HW2 8052   0.389   4.108   6.189
 2536SOL     OW 8053   1.705   5.211   6.690
 2536SOL    HW1 8054   1.612   5.186   6.663
 2536SOL    HW2 8055   1.731   5.161   6.772
 2537SOL     OW 8056   0.317   4.271   6.866
 2537SOL    HW1 8057   0.355   4.212   6.938
 2537SOL    HW2 8058   0.357   4.245   6.778
 2538SOL     OW 8059   1.424   3.938   6.698
 2538SOL    HW1 8060   1.476   3.873   6.753
 2538SOL    HW2 8061   1.375   4.001   6.759
 2539SOL     OW 8062   1.001   3.758   6.740
 2539SOL    HW1 8063   0.938   3.686   6.709
 2539SOL    HW2 8064   1.094   3.722   6.740
 2540SOL     OW 8065   0.770   5.054   5.887
 2540SOL    HW1 8066   0.724   4.967   5.904
 2540SOL    HW2 8067   0.861   5.051   5.928
 2541SOL     OW 8068   0.618   5.291   6.870
 2541SOL    HW1 8069   0.613   5.373   6.927
 2541SOL    HW2 8070   0.707   5.288   6.825
 2542SOL     OW 8071   1.352   3.776   5.754
 2542SOL    HW1 8072   1.387   3.735   5.670
 2542SOL    HW2 8073   1.262   3.738   5.774
 2543SOL     OW 8074   1.300   4.177   6.277
 2543SOL    HW1 8075   1.241   4.257   6.281
 2543SOL    HW2 8076   1.315   4.142   6.370
 2544SOL     OW 8077   1.593   3.945   6.468
 2544SOL    HW1 8078   1.509   3.944   6.522
 2544SOL    HW2 8079   1.595   4.028   6.412
 2545SOL     OW 8080   0.039   4.801   5.886
 2545SOL    HW1 8081   0.138   4.790   5.877
 2545SOL    HW2 8082  -0.001   4.715   5.918
 2546SOL     OW 8083   0.230   4.352   7.561
 2546SOL    HW1 8084   0.137   4.350   7.598
 2546SOL    HW2 8085   0.231   4.313   7.469
 2547SOL     OW 8086   1.755   4.331   7.679
 2547SOL    HW1 8087   1.743   4.318   7.580
 2547SOL    HW2 8088   1.725   4.250   7.728
 2548SOL     OW 8089   0.231   5.437   7.931
 2548SOL    HW1 8090   0.265   5.514   7.985
 2548SOL    HW2 8091   0.275   5.437   7.841
 2549SOL     OW 8092   0.230   5.158   7.986
 2549SOL    HW1 8093   0.204   5.254   7.986
 2549SOL    HW2 8094   0.159   5.104   8.031
 2550SOL     OW 8095   0.606   4.688   7.571
 2550SOL    HW1 8096   0.613   4.772   7.517
 2550SOL    HW2 8097   0.652   4.701   7.659
 2551SOL     OW 8098   0.027   5.320   7.565
 2551SOL    HW1 8099   0.008   5.224   7.586
 2551SOL    HW2 8100  -0.006   5.378   7.640
 2552SOL     OW 8101   1.689   4.646   8.060
 2552SOL    HW1 8102   1.784   4.617   8.068
 2552SOL    HW2 8103   1.681   4.711   7.985
 2553SOL     OW 8104   1.641   4.832   7.880
 2553SOL    HW1 8105   1.727   4.834   7.828
 2553SOL    HW2 8106   1.655   4.879   7.968
 2554SOL     OW 8107   0.809   3.728   7.950
 2554SOL    HW1 8108   0.849   3.819   7.941
 2554SOL    HW2 8109   0.709   3.736   7.956
 2555SOL     OW 8110   1.525   4.723   7.638
 2555SOL    HW1 8111   1.462   4.647   7.651
 2555SOL    HW2 8112   1.573   4.741   7.724
 2556SOL     OW 8113   0.598   4.453   7.718
 2556SOL    HW1 8114   0.622   4.522   7.650
 2556SOL    HW2 8115   0.520   4.486   7.772
 2557SOL     OW 8116   0.076   4.535   8.237
 2557SOL    HW1 8117   0.175   4.523   8.246
 2557SOL    HW2 8118   0.052   4.630   8.258
 2558SOL     OW 8119   0.865   4.072   7.643
 2558SOL    HW1 8120   0.924   4.135   7.594
 2558SOL    HW2 8121   0.884   3.978   7.614
 2559SOL     OW 8122   0.321   4.667   7.690
 2559SOL    HW1 8123   0.403   4.706   7.648
 2559SOL    HW2 8124   0.294   4.585   7.641
 2560SOL     OW 8125   1.111   5.500   7.685
 2560SOL    HW1 8126   1.051   5.438   7.735
 2560SOL    HW2 8127   1.142   5.456   7.600
 2561SOL     OW 8128   1.632   5.101   7.529
 2561SOL    HW1 8129   1.600   5.195   7.519
 2561SOL    HW2 8130   1.556   5.038   7.517
 2562SOL     OW 8131   1.400   3.831   7.874
 2562SOL    HW1 8132   1.376   3.794   7.784
 2562SOL    HW2 8133   1.499   3.847   7.878
 2563SOL     OW 8134   0.382   4.424   7.928
 2563SOL    HW1 8135   0.427   4.334   7.925
 2563SOL    HW2 8136   0.288   4.413   7.961
 2564SOL     OW 8137   0.614   3.846   7.565
 2564SOL    HW1 8138   0.712   3.824   7.572
 2564SOL    HW2 8139   0.583   3.829   7.472
 2565SOL     OW 8140   0.539   3.788   7.960
 2565SOL    HW1 8141   0.458   3.789   8.018
 2565SOL    HW2 8142   0.542   3.871   7.905
 2566SOL     OW 8143   1.434   4.912   7.489
 2566SOL    HW1 8144   1.466   4.836   7.546
 2566SOL    HW2 8145   1.342   4.939   7.519
 2567SOL     OW 8146   0.297   3.759   7.619
 2567SOL    HW1 8147   0.346   3.843   7.598
 2567SOL    HW2 8148   0.359   3.694   7.664
 2568SOL     OW 8149   0.935   3.960   7.928
 2568SOL    HW1 8150   0.887   4.001   7.850
 2568SOL    HW2 8151   1.034   3.958   7.909
 2569SOL     OW 8152   0.459   4.876   8.189
 2569SOL    HW1 8153   0.388   4.849   8.254
 2569SOL    HW2 8154   0.433   4.848   8.096
 2570SOL     OW 8155   1.032   4.273   7.464
 2570SOL    HW1 8156   0.991   4.355   7.425
 2570SOL    HW2 8157   1.096   4.299   7.537
 2571SOL     OW 8158   1.857   4.557   7.825
 2571SOL    HW1 8159   1.899   4.493   7.889
 2571SOL    HW2 8160   1.819   4.506   7.747
 2572SOL     OW 8161   0.488   5.109   7.622
 2572SOL    HW1 8162   0.401   5.094   7.669
 2572SOL    HW2 8163   0.471   5.135   7.527
 2573SOL     OW 8164   1.390   4.299   7.526
 2573SOL    HW1 8165   1.336   4.278   7.607
 2573SOL    HW2 8166   1.481   4.258   7.535
 2574SOL     OW 8167   0.527   3.980   7.776
 2574SOL    HW1 8168   0.554   3.921   7.701
 2574SOL    HW2 8169   0.527   4.075   7.745
 2575SOL     OW 8170   0.705   4.774   7.816
 2575SOL    HW1 8171   0.691   4.781   7.915
 2575SOL    HW2 8172   0.789   4.723   7.798
 2576SOL     OW 8173   0.367   4.824   7.949
 2576SOL    HW1 8174   0.360   4.907   7.893
 2576SOL    HW2 8175   0.371   4.744   7.889
 2577SOL     OW 8176   1.252   5.072   7.836
 2577SOL    HW1 8177   1.302   5.149   7.876
 2577SOL    HW2 8178   1.157   5.074   7.868
 2578SOL     OW 8179   1.582   4.363   7.920
 2578SOL    HW1 8180   1.551   4.424   7.993
 2578SOL    HW2 8181   1.632   4.415   7.851
 2579SOL     OW 8182   1.209   4.249   7.723
 2579SOL    HW1 8183   1.222   4.165   7.777
 2579SOL    HW2 8184   1.180   4.323   7.783
 2580SOL     OW 8185   1.622   4.091   7.822
 2580SOL    HW1 8186   1.624   4.015   7.886
 2580SOL    HW2 8187   1.574   4.168   7.862
 2581SOL     OW 8188   1.540   3.998   7.573
 2581SOL    HW1 8189   1.479   3.923   7.596
 2581SOL    HW2 8190   1.562   4.050   7.656
 2582SOL     OW 8191   1.303   4.562   7.490
 2582SOL    HW1 8192   1.337   4.469   7.505
 2582SOL    HW2 8193   1.321   4.589   7.395
 2583SOL     OW 8194   0.008   5.050   7.648
 2583SOL    HW1 8195  -0.085   5.071   7.617
 2583SOL    HW2 8196   0.018   4.951   7.661
 2584SOL     OW 8197   0.815   4.296   7.773
 2584SOL    HW1 8198   0.822   4.207   7.727
 2584SOL    HW2 8199   0.721   4.330   7.765
 2585SOL     OW 8200   0.473   4.224   7.639
 2585SOL    HW1 8201   0.534   4.304   7.643
 2585SOL    HW2 8202   0.378   4.255   7.646
 2586SOL     OW 8203   1.302   4.579   7.757
 2586SOL    HW1 8204   1.216   4.548   7.799
 2586SOL    HW2 8205   1.298   4.565   7.658
 2587SOL     OW 8206   1.726   3.859   7.971
 2587SOL    HW1 8207   1.799   3.842   7.904
 2587SOL    HW2 8208   1.695   3.772   8.009
 2588SOL     OW 8209   0.916   4.634   7.739
 2588SOL    HW1 8210   0.979   4.672   7.671
 2588SOL    HW2 8211   0.956   4.551   7.778
 2589SOL     OW 8212   0.255   5.072   7.738
 2589SOL    HW1 8213   0.159   5.073   7.711
 2589SOL    HW2 8214   0.267   5.125   7.822
 2590SOL     OW 8215   0.075   4.069   7.481
 2590SOL    HW1 8216  -0.017   4.041   7.452
 2590SOL    HW2 8217   0.106   4.146   7.425
 2591SOL     OW 8218   0.072   3.890   7.766
 2591SOL    HW1 8219   0.055   3.973   7.712
 2591SOL    HW2 8220   0.162   3.853   7.744
 2592SOL     OW 8221   1.183   5.059   7.567
 2592SOL    HW1 8222   1.084   5.048   7.569
 2592SOL    HW2 8223   1.217   5.074   7.660
 2593SOL     OW 8224   1.225   4.049   7.897
 2593SOL    HW1 8225   1.290   3.975   7.886
 2593SOL    HW2 8226   1.245   4.099   7.981
 2594SOL     OW 8227   0.594   4.469   8.100
 2594SOL    HW1 8228   0.644   4.554   8.081
 2594SOL    HW2 8229   0.506   4.471   8.052
 2595SOL     OW 8230   0.859   5.098   7.464
 2595SOL    HW1 8231   0.813   5.113   7.552
 2595SOL    HW2 8232   0.903   5.183   7.434
 2596SOL     OW 8233   1.083   4.708   7.535
 2596SOL    HW1 8234   1.060   4.761   7.453
 2596SOL    HW2 8235   1.164   4.652   7.516
 2597SOL     OW 8236   0.428   4.148   7.968
 2597SOL    HW1 8237   0.458   4.076   7.906
 2597SOL    HW2 8238   0.389   4.108   8.051
 2598SOL     OW 8239   0.770   5.054   7.749
 2598SOL    HW1 8240   0.724   4.967   7.766
 2598SOL    HW2 8241   0.861   5.051   7.790
 2599SOL     OW 8242   1.352   3.776   7.616
 2599SOL    HW1 8243   1.387   3.735   7.532
 2599SOL    HW2 8244   1.262   3.738   7.636
 2600SOL     OW 8245   0.039   4.801   7.748
 2600SOL    HW1 8246   0.138   4.790   7.739
 2600SOL    HW2 8247  -0.001   4.715   7.780
 2601SOL     OW 8248   2.092   0.628   0.113
 2601SOL    HW1 8249   1.999   0.626   0.150
 2601SOL    HW2 8250   2.093   0.589   0.021
 2602SOL     OW 8251   2.087   0.275   0.996
 2602SOL    HW1 8252   2.122   0.258   1.088
 2602SOL    HW2 8253   1.999   0.230   0.984
 2603SOL     OW 8254   1.881   0.368   0.647
 2603SOL    HW1 8255   1.799   0.411   0.686
 2603SOL    HW2 8256   1.853   0.295   0.584
 2604SOL     OW 8257   2.431   1.275   1.165
 2604SOL    HW1 8258   2.338   1.268   1.128
 2604SOL    HW2 8259   2.442   1.364   1.209
 2605SOL     OW 8260   3.417   1.511   0.703
 2605SOL    HW1 8261   3.360   1.495   0.784
 2605SOL    HW2 8262   3.358   1.521   0.623
 2606SOL     OW 8263   2.997   0.703   0.717
 2606SOL    HW1 8264   3.054   0.781   0.692
 2606SOL    HW2 8265   2.937   0.729   0.793
 2607SOL     OW 8266   3.617   0.607   0.231
 2607SOL    HW1 8267   3.605   0.594   0.132
 2607SOL    HW2 8268   3.587   0.526   0.280
 2608SOL     OW 8269   2.630   1.144   1.023
 2608SOL    HW1 8270   2.552   1.161   1.083
 2608SOL    HW2 8271   2.664   1.231   0.987
 2609SOL     OW 8272   2.712   0.798   1.823
 2609SOL    HW1 8273   2.708   0.874   1.888
 2609SOL    HW2 8274   2.734   0.834   1.732
 2610SOL     OW 8275   2.547   1.012   0.665
 2610SOL    HW1 8276   2.616   0.996   0.735
 2610SOL    HW2 8277   2.474   1.069   0.703
 2611SOL     OW 8278   2.548   1.161   1.803
 2611SOL    HW1 8279   2.608   1.240   1.817
 2611SOL    HW2 8280   2.462   1.192   1.762
 2612SOL     OW 8281   2.197   1.435   1.061
 2612SOL    HW1 8282   2.119   1.404   1.008
 2612SOL    HW2 8283   2.255   1.493   1.004
 2613SOL     OW 8284   3.322   1.505   1.339
 2613SOL    HW1 8285   3.346   1.599   1.365
 2613SOL    HW2 8286   3.306   1.451   1.421
 2614SOL     OW 8287   2.300   0.392   1.499
 2614SOL    HW1 8288   2.382   0.336   1.508
 2614SOL    HW2 8289   2.219   0.334   1.503
 2615SOL     OW 8290   3.465   0.447   0.737
 2615SOL    HW1 8291   3.391   0.493   0.687
 2615SOL    HW2 8292   3.516   0.515   0.790
 2616SOL     OW 8293   2.093   1.713   0.483
 2616SOL    HW1 8294   2.127   1.790   0.537
 2616SOL    HW2 8295   2.137   1.713   0.393
 2617SOL     OW 8296   2.989   1.341   1.690
 2617SOL    HW1 8297   3.036   1.341   1.778
 2617SOL    HW2 8298   2.941   1.254   1.679
 2618SOL     OW 8299   2.092   1.434   0.538
 2618SOL    HW1 8300   2.066   1.530   0.538
 2618SOL    HW2 8301   2.021   1.380   0.583
 2619SOL     OW 8302   2.102   1.091   0.886
 2619SOL    HW1 8303   2.116   1.007   0.938
 2619SOL    HW2 8304   2.047   1.155   0.941
 2620SOL     OW 8305   2.482   1.786   1.439
 2620SOL    HW1 8306   2.390   1.769   1.474
 2620SOL    HW2 8307   2.510   1.878   1.465
 2621SOL     OW 8308   2.468   0.964   0.123
 2621SOL    HW1 8309   2.475   1.048   0.069
 2621SOL    HW2 8310   2.514   0.977   0.211
 2622SOL     OW 8311   3.456   0.114   1.480
 2622SOL    HW1 8312   3.438   0.181   1.408
 2622SOL    HW2 8313   3.453   0.160   1.569
 2623SOL     OW 8314   1.984   0.643   0.563
 2623SOL    HW1 8315   1.939   0.555   0.580
 2623SOL    HW2 8316   1.983   0.697   0.647
 2624SOL     OW 8317   3.704   1.767   0.359
 2624SOL    HW1 8318   3.758   1.738   0.439
 2624SOL    HW2 8319   3.734   1.857   0.330
 2625SOL     OW 8320   1.889   1.596   0.117
 2625SOL    HW1 8321   1.870   1.500   0.138
 2625SOL    HW2 8322   1.856   1.654   0.192
 2626SOL     OW 8323   3.551   0.922   0.612
 2626SOL    HW1 8324   3.646   0.893   0.620
 2626SOL    HW2 8325   3.543   0.987   0.537
 2627SOL     OW 8326   3.503   1.108   0.432
 2627SOL    HW1 8327   3.589   1.110   0.380
 2627SOL    HW2 8328   3.517   1.155   0.520
 2628SOL     OW 8329   1.975   0.737   1.597
 2628SOL    HW1 8330   2.063   0.724   1.642
 2628SOL    HW2 8331   1.962   0.834   1.575
 2629SOL     OW 8332   2.475   1.365   0.726
 2629SOL    HW1 8333   2.426   1.278   0.735
 2629SOL    HW2 8334   2.452   1.408   0.639
 2630SOL     OW 8335   3.155   1.228   1.423
 2630SOL    HW1 8336   3.192   1.155   1.365
 2630SOL    HW2 8337   3.207   1.233   1.508
 2631SOL     OW 8338   2.671   0.004   0.502
 2631SOL    HW1 8339   2.711   0.095   0.493
 2631SOL    HW2 8340   2.571   0.012   0.508
 2632SOL     OW 8341   2.059   0.976   1.264
 2632SOL    HW1 8342   2.148   0.931   1.250
 2632SOL    HW2 8343   1.986   0.911   1.245
 2633SOL     OW 8344   3.387   0.999   0.190
 2633SOL    HW1 8345   3.324   0.923   0.203
 2633SOL    HW2 8346   3.435   1.017   0.276
 2634SOL     OW 8347   3.049   1.792   1.616
 2634SOL    HW1 8348   3.073   1.852   1.540
 2634SOL    HW2 8349   3.056   1.697   1.586
 2635SOL     OW 8350   2.179   0.251   1.801
 2635SOL    HW1 8351   2.250   0.322   1.807
 2635SOL    HW2 8352   2.091   0.290   1.829
 2636SOL     OW 8353   3.328   1.417   0.953
 2636SOL    HW1 8354   3.269   1.423   1.033
 2636SOL    HW2 8355   3.313   1.329   0.907
 2637SOL     OW 8356   3.529   1.714   0.572
 2637SOL    HW1 8357   3.488   1.691   0.484
 2637SOL    HW2 8358   3.511   1.640   0.637
 2638SOL     OW 8359   2.460   0.729   0.270
 2638SOL    HW1 8360   2.484   0.798   0.202
 2638SOL    HW2 8361   2.382   0.762   0.324
 2639SOL     OW 8362   3.143   0.345   0.944
 2639SOL    HW1 8363   3.057   0.295   0.931
 2639SOL    HW2 8364   3.205   0.291   1.000
 2640SOL     OW 8365   3.438   1.662   0.307
 2640SOL    HW1 8366   3.527   1.708   0.310
 2640SOL    HW2 8367   3.417   1.638   0.212
 2641SOL     OW 8368   2.669   0.605   1.465
 2641SOL    HW1 8369   2.622   0.602   1.554
 2641SOL    HW2 8370   2.618   0.550   1.399
 2642SOL     OW 8371   3.256   0.469   1.674
 2642SOL    HW1 8372   3.236   0.512   1.762
 2642SOL    HW2 8373   3.334   0.407   1.683
 2643SOL     OW 8374   2.835   0.890   1.572
 2643SOL    HW1 8375   2.881   0.806   1.543
 2643SOL    HW2 8376   2.779   0.924   1.497
 2644SOL     OW 8377   2.853   0.410   1.242
 2644SOL    HW1 8378   2.776   0.444   1.296
 2644SOL    HW2 8379   2.819   0.359   1.163
 2645SOL     OW 8380   2.903   0.701   0.429
 2645SOL    HW1 8381   2.929   0.697   0.525
 2645SOL    HW2 8382   2.818   0.650   0.415
 2646SOL     OW 8383   1.938   0.811   0.789
 2646SOL    HW1 8384   2.037   0.799   0.798
 2646SOL    HW2 8385   1.914   0.906   0.810
 2647SOL     OW 8386   1.992   1.821   1.571
 2647SOL    HW1 8387   1.982   1.806   1.670
 2647SOL    HW2 8388   1.906   1.857   1.535
 2648SOL     OW 8389   2.727   0.348   0.195
 2648SOL    HW1 8390   2.786   0.411   0.146
 2648SOL    HW2 8391   2.746   0.254   0.166
 2649SOL     OW 8392   3.581   0.585   1.831
 2649SOL    HW1 8393   3.555   0.674   1.795
 2649SOL    HW2 8394   3.579   0.517   1.758
 2650SOL     OW 8395   3.224   1.144   0.545
 2650SOL    HW1 8396   3.307   1.115   0.497
 2650SOL    HW2 8397   3.175   1.211   0.489
 2651SOL     OW 8398   2.412   0.196   0.885
 2651SOL    HW1 8399   2.407   0.191   0.985
 2651SOL    HW2 8400   2.414   0.292   0.856
 2652SOL     OW 8401   2.870   1.456   0.477
 2652SOL    HW1 8402   2.824   1.528   0.425
 2652SOL    HW2 8403   2.866   1.476   0.575
 2653SOL     OW 8404   2.213   1.801   0.853
 2653SOL    HW1 8405   2.263   1.715   0.859
 2653SOL    HW2 8406   2.278   1.878   0.850
 2654SOL     OW 8407   3.657   1.066   0.873
 2654SOL    HW1 8408   3.595   1.051   0.797
 2654SOL    HW2 8409   3.605   1.077   0.958
 2655SOL     OW 8410   3.089   1.550   1.506
 2655SOL    HW1 8411   3.095   1.473   1.570
 2655SOL    HW2 8412   3.037   1.524   1.426
 2656SOL     OW 8413   2.183   0.943   0.242
 2656SOL    HW1 8414   2.265   0.982   0.200
 2656SOL    HW2 8415   2.156   0.861   0.193
 2657SOL     OW 8416   3.320   0.735   0.728
 2657SOL    HW1 8417   3.315   0.670   0.803
 2657SOL    HW2 8418   3.400   0.794   0.741
 2658SOL     OW 8419   2.323   1.266   1.727
 2658SOL    HW1 8420   2.273   1.267   1.641
 2658SOL    HW2 8421   2.260   1.248   1.803
 2659SOL     OW 8422   2.973   1.776   0.237
 2659SOL    HW1 8423   2.913   1.714   0.287
 2659SOL    HW2 8424   3.004   1.732   0.152
 2660SOL     OW 8425   2.064   0.285   1.498
 2660SOL    HW1 8426   1.984   0.345   1.485
 2660SOL    HW2 8427   2.054   0.236   1.584
 2661SOL     OW 8428   3.494   1.377   0.081
 2661SOL    HW1 8429   3.462   1.471   0.071
 2661SOL    HW2 8430   3.418   1.314   0.069
 2662SOL     OW 8431   2.326   1.743   0.323
 2662SOL    HW1 8432   2.359   1.782   0.409
 2662SOL    HW2 8433   2.402   1.736   0.258
 2663SOL     OW 8434   3.262   0.107   0.426
 2663SOL    HW1 8435   3.238   0.070   0.336
 2663SOL    HW2 8436   3.361   0.123   0.430
 2664SOL     OW 8437   2.111   1.785   1.241
 2664SOL    HW1 8438   2.168   1.720   1.291
 2664SOL    HW2 8439   2.095   1.752   1.148
 2665SOL     OW 8440   2.802   1.698   0.904
 2665SOL    HW1 8441   2.882   1.641   0.925
 2665SOL    HW2 8442   2.753   1.658   0.827
 2666SOL     OW 8443   2.244   0.700   0.480
 2666SOL    HW1 8444   2.289   0.610   0.477
 2666SOL    HW2 8445   2.150   0.689   0.513
 2667SOL     OW 8446   3.409   0.222   1.729
 2667SOL    HW1 8447   3.404   0.259   1.821
 2667SOL    HW2 8448   3.337   0.153   1.717
 2668SOL     OW 8449   2.476   0.122   0.117
 2668SOL    HW1 8450   2.574   0.100   0.124
 2668SOL    HW2 8451   2.445   0.105   0.024
 2669SOL     OW 8452   2.643   0.264   1.749
 2669SOL    HW1 8453   2.710   0.203   1.792
 2669SOL    HW2 8454   2.570   0.283   1.814
 2670SOL     OW 8455   2.750   1.514   1.195
 2670SOL    HW1 8456   2.727   1.489   1.101
 2670SOL    HW2 8457   2.811   1.445   1.234
 2671SOL     OW 8458   3.213   0.590   1.433
 2671SOL    HW1 8459   3.241   0.547   1.518
 2671SOL    HW2 8460   3.238   0.686   1.434
 2672SOL     OW 8461   2.665   1.402   0.924
 2672SOL    HW1 8462   2.755   1.416   0.882
 2672SOL    HW2 8463   2.594   1.404   0.853
 2673SOL     OW 8464   2.784   0.503   0.899
 2673SOL    HW1 8465   2.759   0.494   0.803
 2673SOL    HW2 8466   2.832   0.421   0.930
 2674SOL     OW 8467   2.401   0.064   0.512
 2674SOL    HW1 8468   2.320   0.065   0.570
 2674SOL    HW2 8469   2.404   0.147   0.457
 2675SOL     OW 8470   3.296   1.188   0.041
 2675SOL    HW1 8471   3.328   1.112   0.098
 2675SOL    HW2 8472   3.204   1.215   0.071
 2676SOL     OW 8473   2.159   0.035   0.171
 2676SOL    HW1 8474   2.208   0.119   0.150
 2676SOL    HW2 8475   2.221  -0.030   0.216
 2677SOL     OW 8476   2.797   0.236   0.480
 2677SOL    HW1 8477   2.749   0.277   0.402
 2677SOL    HW2 8478   2.896   0.234   0.461
 2678SOL     OW 8479   2.938   0.683   1.464
 2678SOL    HW1 8480   2.858   0.622   1.467
 2678SOL    HW2 8481   3.019   0.630   1.440
 2679SOL     OW 8482   3.089   1.570   0.793
 2679SOL    HW1 8483   3.110   1.644   0.728
 2679SOL    HW2 8484   3.157   1.570   0.866
 2680SOL     OW 8485   2.321   1.152   0.741
 2680SOL    HW1 8486   2.250   1.125   0.806
 2680SOL    HW2 8487   2.295   1.124   0.648
 2681SOL     OW 8488   3.133   1.797   0.591
 2681SOL    HW1 8489   3.177   1.861   0.527
 2681SOL    HW2 8490   3.083   1.849   0.661
 2682SOL     OW 8491   2.894   0.549   0.016
 2682SOL    HW1 8492   2.853   0.631  -0.023
 2682SOL    HW2 8493   2.958   0.575   0.089
 2683SOL     OW 8494   1.940   0.556   1.386
 2683SOL    HW1 8495   2.032   0.555   1.345
 2683SOL    HW2 8496   1.934   0.630   1.453
 2684SOL     OW 8497   2.423   0.222   1.147
 2684SOL    HW1 8498   2.461   0.138   1.184
 2684SOL    HW2 8499   2.335   0.241   1.191
 2685SOL     OW 8500   2.728   0.454   0.642
 2685SOL    HW1 8501   2.696   0.526   0.580
 2685SOL    HW2 8502   2.752   0.373   0.589
 2686SOL     OW 8503   2.879   0.039   0.753
 2686SOL    HW1 8504   2.807   0.044   0.684
 2686SOL    HW2 8505   2.855  -0.030   0.822
 2687SOL     OW 8506   3.291   1.173   0.867
 2687SOL    HW1 8507   3.236   1.089   0.860
 2687SOL    HW2 8508   3.317   1.202   0.775
 2688SOL     OW 8509   3.328   0.590   0.992
 2688SOL    HW1 8510   3.298   0.495   0.999
 2688SOL    HW2 8511   3.401   0.606   1.058
 2689SOL     OW 8512   3.719   0.833   0.377
 2689SOL    HW1 8513   3.761   0.769   0.441
 2689SOL    HW2 8514   3.681   0.782   0.299
 2690SOL     OW 8515   2.350   1.385   0.174
 2690SOL    HW1 8516   2.263   1.370   0.221
 2690SOL    HW2 8517   2.333   1.411   0.079
 2691SOL     OW 8518   3.526   1.280   0.657
 2691SOL    HW1 8519   3.625   1.288   0.671
 2691SOL    HW2 8520   3.481   1.364   0.688
 2692SOL     OW 8521   3.252   0.575   0.078
 2692SOL    HW1 8522   3.198   0.554   0.159
 2692SOL    HW2 8523   3.343   0.534   0.087
 2693SOL     OW 8524   2.389   0.256   0.328
 2693SOL    HW1 8525   2.416   0.197   0.253
 2693SOL    HW2 8526   2.389   0.351   0.297
 2694SOL     OW 8527   3.616   1.223   1.588
 2694SOL    HW1 8528   3.707   1.184   1.575
 2694SOL    HW2 8529   3.624   1.319   1.612
 2695SOL     OW 8530   2.926   1.347   1.340
 2695SOL    HW1 8531   2.846   1.324   1.395
 2695SOL    HW2 8532   3.009   1.321   1.389
 2696SOL     OW 8533   3.454   1.629   1.625
 2696SOL    HW1 8534   3.481   1.663   1.535
 2696SOL    HW2 8535   3.533   1.591   1.671
 2697SOL     OW 8536   2.973   1.195   1.100
 2697SOL    HW1 8537   2.933   1.239   1.181
 2697SOL    HW2 8538   2.932   1.232   1.017
 2698SOL     OW 8539   3.500   1.099   1.079
 2698SOL    HW1 8540   3.505   1.180   1.138
 2698SOL    HW2 8541   3.414   1.101   1.028
 2699SOL     OW 8542   2.777   0.089   1.402
 2699SOL    HW1 8543   2.802   0.069   1.307
 2699SOL    HW2 8544   2.849   0.145   1.444
 2700SOL     OW 8545   2.842   1.116   1.719
 2700SOL    HW1 8546   2.743   1.122   1.729
 2700SOL    HW2 8547   2.865   1.036   1.663
 2701SOL     OW 8548   2.567   1.050   0.368
 2701SOL    HW1 8549   2.553   1.057   0.467
 2701SOL    HW2 8550   2.651   0.999   0.350
 2702SOL     OW 8551   2.272   0.813   1.251
 2702SOL    HW1 8552   2.358   0.825   1.301
 2702SOL    HW2 8553   2.230   0.726   1.278
 2703SOL     OW 8554   3.136   0.386   1.262
 2703SOL    HW1 8555   3.157   0.460   1.326
 2703SOL    HW2 8556   3.047   0.403   1.219
 2704SOL     OW 8557   1.926   1.564   1.331
 2704SOL    HW1 8558   1.880   1.646   1.297
 2704SOL    HW2 8559   2.024   1.583   1.340
 2705SOL     OW 8560   2.229   1.100   0.501
 2705SOL    HW1 8561   2.222   1.183   0.445
 2705SOL    HW2 8562   2.233   1.020   0.441
 2706SOL     OW 8563   2.428   0.537   0.865
 2706SOL    HW1 8564   2.440   0.603   0.791
 2706SOL    HW2 8565   2.474   0.571   0.948
 2707SOL     OW 8566   3.114   1.348   0.388
 2707SOL    HW1 8567   3.164   1.425   0.428
 2707SOL    HW2 8568   3.019   1.350   0.420
 2708SOL     OW 8569   3.134   1.445   1.142
 2708SOL    HW1 8570   3.181   1.458   1.229
 2708SOL    HW2 8571   3.068   1.371   1.151
 2709SOL     OW 8572   3.444   0.639   0.472
 2709SOL    HW1 8573   3.413   0.700   0.545
 2709SOL    HW2 8574   3.494   0.691   0.403
 2710SOL     OW 8575   2.216   1.510   1.329
 2710SOL    HW1 8576   2.195   1.466   1.242
 2710SOL    HW2 8577   2.313   1.536   1.332
 2711SOL     OW 8578   2.264   0.751   1.598
 2711SOL    HW1 8579   2.332   0.806   1.551
 2711SOL    HW2 8580   2.304   0.663   1.625
 2712SOL     OW 8581   3.449   0.779   1.670
 2712SOL    HW1 8582   3.357   0.817   1.665
 2712SOL    HW2 8583   3.509   0.826   1.605
 2713SOL     OW 8584   2.875   0.105   1.770
 2713SOL    HW1 8585   2.881   0.190   1.718
 2713SOL    HW2 8586   2.907   0.029   1.713
 2714SOL     OW 8587   2.366   0.050   1.740
 2714SOL    HW1 8588   2.324  -0.007   1.670
 2714SOL    HW2 8589   2.300   0.119   1.772
 2715SOL     OW 8590   2.435   0.870   1.029
 2715SOL    HW1 8591   2.479   0.959   1.020
 2715SOL    HW2 8592   2.372   0.870   1.106
 2716SOL     OW 8593   3.222   0.862   1.045
 2716SOL    HW1 8594   3.147   0.862   0.979
 2716SOL    HW2 8595   3.259   0.770   1.054
 2717SOL     OW 8596   3.071   0.525   0.275
 2717SOL    HW1 8597   3.084   0.441   0.329
 2717SOL    HW2 8598   3.042   0.599   0.335
 2718SOL     OW 8599   2.169   0.213   1.231
 2718SOL    HW1 8600   2.146   0.250   1.321
 2718SOL    HW2 8601   2.139   0.118   1.225
 2719SOL     OW 8602   1.899   1.310   1.282
 2719SOL    HW1 8603   1.952   1.261   1.350
 2719SOL    HW2 8604   1.921   1.408   1.287
 2720SOL     OW 8605   2.594   0.634   1.064
 2720SOL    HW1 8606   2.653   0.608   0.988
 2720SOL    HW2 8607   2.566   0.730   1.053
 2721SOL     OW 8608   3.590   0.935   1.854
 2721SOL    HW1 8609   3.544   0.928   1.765
 2721SOL    HW2 8610   3.528   0.979   1.920
 2722SOL     OW 8611   2.169   0.063   0.618
 2722SOL    HW1 8612   2.158   0.157   0.651
 2722SOL    HW2 8613   2.164   0.000   0.695
 2723SOL     OW 8614   3.484   0.367   0.374
 2723SOL    HW1 8615   3.486   0.291   0.438
 2723SOL    HW2 8616   3.436   0.444   0.414
 2724SOL     OW 8617   2.885   0.766   0.966
 2724SOL    HW1 8618   2.900   0.787   1.062
 2724SOL    HW2 8619   2.855   0.671   0.957
 2725SOL     OW 8620   2.842   1.573   1.700
 2725SOL    HW1 8621   2.822   1.617   1.612
 2725SOL    HW2 8622   2.881   1.482   1.684
 2726SOL     OW 8623   3.721   1.518   1.605
 2726SOL    HW1 8624   3.735   1.545   1.510
 2726SOL    HW2 8625   3.804   1.540   1.658
 2727SOL     OW 8626   2.212   0.898   1.804
 2727SOL    HW1 8627   2.288   0.942   1.852
 2727SOL    HW2 8628   2.247   0.851   1.722
 2728SOL     OW 8629   3.402   0.274   0.125
 2728SOL    HW1 8630   3.341   0.199   0.148
 2728SOL    HW2 8631   3.424   0.326   0.208
 2729SOL     OW 8632   3.165   0.838   0.042
 2729SOL    HW1 8633   3.199   0.745   0.057
 2729SOL    HW2 8634   3.183   0.865  -0.053
 2730SOL     OW 8635   2.930   1.333   0.849
 2730SOL    HW1 8636   2.937   1.249   0.794
 2730SOL    HW2 8637   2.992   1.402   0.813
 2731SOL     OW 8638   2.181   0.810   0.949
 2731SOL    HW1 8639   2.274   0.846   0.954
 2731SOL    HW2 8640   2.175   0.725   1.001
 2732SOL     OW 8641   2.201   0.509   1.006
 2732SOL    HW1 8642   2.149   0.426   0.989
 2732SOL    HW2 8643   2.278   0.514   0.942
 2733SOL     OW 8644   3.000   0.380   1.678
 2733SOL    HW1 8645   2.955   0.443   1.742
 2733SOL    HW2 8646   3.093   0.411   1.661
 2734SOL     OW 8647   3.022   0.207   1.477
 2734SOL    HW1 8648   3.022   0.271   1.554
 2734SOL    HW2 8649   3.050   0.255   1.394
 2735SOL     OW 8650   1.870   1.326   0.200
 2735SOL    HW1 8651   1.777   1.347   0.169
 2735SOL    HW2 8652   1.880   1.227   0.213
 2736SOL     OW 8653   1.950   1.801   0.927
 2736SOL    HW1 8654   1.908   1.715   0.900
 2736SOL    HW2 8655   2.044   1.804   0.893
 2737SOL     OW 8656   2.366   1.568   0.910
 2737SOL    HW1 8657   2.432   1.642   0.919
 2737SOL    HW2 8658   2.410   1.489   0.868
 2738SOL     OW 8659   2.864   0.796   1.238
 2738SOL    HW1 8660   2.905   0.764   1.324
 2738SOL    HW2 8661   2.768   0.769   1.235
 2739SOL     OW 8662   1.902   0.544   1.114
 2739SOL    HW1 8663   1.987   0.511   1.073
 2739SOL    HW2 8664   1.915   0.559   1.212
 2740SOL     OW 8665   2.051   0.520   1.722
 2740SOL    HW1 8666   2.110   0.480   1.652
 2740SOL    HW2 8667   1.993   0.591   1.681
 2741SOL     OW 8668   3.231   0.950   1.660
 2741SOL    HW1 8669   3.270   1.039   1.680
 2741SOL    HW2 8670   3.241   0.930   1.563
 2742SOL     OW 8671   2.677   0.572   0.325
 2742SOL    HW1 8672   2.684   0.483   0.279
 2742SOL    HW2 8673   2.583   0.606   0.317
 2743SOL     OW 8674   3.519   0.604   1.206
 2743SOL    HW1 8675   3.481   0.535   1.268
 2743SOL    HW2 8676   3.601   0.568   1.162
 2744SOL     OW 8677   2.114   1.564   1.744
 2744SOL    HW1 8678   2.084   1.621   1.820
 2744SOL    HW2 8679   2.107   1.467   1.770
 2745SOL     OW 8680   2.533   0.464   1.269
 2745SOL    HW1 8681   2.499   0.375   1.239
 2745SOL    HW2 8682   2.559   0.518   1.189
 2746SOL     OW 8683   2.792   1.678   1.465
 2746SOL    HW1 8684   2.768   1.660   1.370
 2746SOL    HW2 8685   2.822   1.772   1.475
 2747SOL     OW 8686   2.335   0.500   0.191
 2747SOL    HW1 8687   2.396   0.580   0.195
 2747SOL    HW2 8688   2.240   0.531   0.198
 2748SOL     OW 8689   2.021   1.137   1.466
 2748SOL    HW1 8690   2.043   1.076   1.542
 2748SOL    HW2 8691   2.031   1.088   1.380
 2749SOL     OW 8692   3.209   1.059   1.234
 2749SOL    HW1 8693   3.233   0.996   1.160
 2749SOL    HW2 8694   3.119   1.099   1.216
 2750SOL     OW 8695   3.164   0.855   0.309
 2750SOL    HW1 8696   3.078   0.824   0.351
 2750SOL    HW2 8697   3.160   0.841   0.210
 2751SOL     OW 8698   3.621   1.747   1.154
 2751SOL    HW1 8699   3.682   1.777   1.081
 2751SOL    HW2 8700   3.583   1.658   1.132
 2752SOL     OW 8701   3.114   1.731   1.128
 2752SOL    HW1 8702   3.198   1.736   1.074
 2752SOL    HW2 8703   3.091   1.635   1.146
 2753SOL     OW 8704   1.945   1.258   1.022
 2753SOL    HW1 8705   1.940   1.257   1.122
 2753SOL    HW2 8706   1.862   1.217   0.984
 2754SOL     OW 8707   2.550   1.662   1.716
 2754SOL    HW1 8708   2.494   1.743   1.725
 2754SOL    HW2 8709   2.602   1.666   1.630
 2755SOL     OW 8710   2.765   0.086   0.133
 2755SOL    HW1 8711   2.816   0.087   0.047
 2755SOL    HW2 8712   2.821   0.044   0.204
 2756SOL     OW 8713   3.588   0.135   0.523
 2756SOL    HW1 8714   3.661   0.118   0.456
 2756SOL    HW2 8715   3.557   0.048   0.561
 2757SOL     OW 8716   3.250   1.573   0.477
 2757SOL    HW1 8717   3.317   1.585   0.403
 2757SOL    HW2 8718   3.210   1.662   0.500
 2758SOL     OW 8719   1.992   1.794   1.851
 2758SOL    HW1 8720   1.951   1.720   1.904
 2758SOL    HW2 8721   2.056   1.845   1.909
 2759SOL     OW 8722   3.142   0.927   0.672
 2759SOL    HW1 8723   3.202   0.846   0.674
 2759SOL    HW2 8724   3.182   0.996   0.612
 2760SOL     OW 8725   2.692   1.273   1.422
 2760SOL    HW1 8726   2.687   1.306   1.517
 2760SOL    HW2 8727   2.606   1.292   1.376
 2761SOL     OW 8728   2.534   1.616   0.154
 2761SOL    HW1 8729   2.543   1.626   0.055
 2761SOL    HW2 8730   2.494   1.527   0.175
 2762SOL     OW 8731   3.512   1.720   1.394
 2762SOL    HW1 8732   3.565   1.730   1.310
 2762SOL    HW2 8733   3.485   1.810   1.428
 2763SOL     OW 8734   3.703   0.175   0.963
 2763SOL    HW1 8735   3.742   0.090   0.927
 2763SOL    HW2 8736   3.605   0.177   0.944
 2764SOL     OW 8737   2.125   0.326   0.720
 2764SOL    HW1 8738   2.046   0.377   0.686
 2764SOL    HW2 8739   2.116   0.311   0.818
 2765SOL     OW 8740   3.056   1.612   0.031
 2765SOL    HW1 8741   3.062   1.519   0.068
 2765SOL    HW2 8742   2.997   1.612  -0.049
 2766SOL     OW 8743   2.684   1.002   1.372
 2766SOL    HW1 8744   2.724   1.001   1.280
 2766SOL    HW2 8745   2.694   1.094   1.412
 2767SOL     OW 8746   2.778   0.910   0.291
 2767SOL    HW1 8747   2.841   0.948   0.223
 2767SOL    HW2 8748   2.818   0.827   0.330
 2768SOL     OW 8749   3.366   1.607   0.044
 2768SOL    HW1 8750   3.274   1.644   0.051
 2768SOL    HW2 8751   3.404   1.627  -0.046
 2769SOL     OW 8752   2.234   1.288   1.490
 2769SOL    HW1 8753   2.221   1.381   1.456
 2769SOL    HW2 8754   2.150   1.236   1.477
 2770SOL     OW 8755   3.476   1.292   1.289
 2770SOL    HW1 8756   3.536   1.295   1.369
 2770SOL    HW2 8757   3.401   1.356   1.302
 2771SOL     OW 8758   2.901   1.098   0.696
 2771SOL    HW1 8759   2.831   1.051   0.750
 2771SOL    HW2 8760   2.960   1.030   0.653
 2772SOL     OW 8761   2.876   0.236   0.971
 2772SOL    HW1 8762   2.868   0.200   0.878
 2772SOL    HW2 8763   2.874   0.160   1.036
 2773SOL     OW 8764   2.452   1.487   0.491
 2773SOL    HW1 8765   2.494   1.429   0.421
 2773SOL    HW2 8766   2.408   1.566   0.447
 2774SOL     OW 8767   3.571   0.385   1.381
 2774SOL    HW1 8768   3.644   0.454   1.385
 2774SOL    HW2 8769   3.599   0.310   1.322
 2775SOL     OW 8770   2.117   1.348   0.290
 2775SOL    HW1 8771   2.021   1.349   0.263
 2775SOL    HW2 8772   2.129   1.401   0.374
 2776SOL     OW 8773   1.967   1.013   1.726
 2776SOL    HW1 8774   1.890   0.980   1.780
 2776SOL    HW2 8775   2.052   0.983   1.768
 2777SOL     OW 8776   2.534   0.203   1.489
 2777SOL    HW1 8777   2.624   0.187   1.449
 2777SOL    HW2 8778   2.542   0.208   1.588
 2778SOL     OW 8779   1.937   0.345   0.033
 2778SOL    HW1 8780   1.845   0.317   0.004
 2778SOL    HW2 8781   1.968   0.422  -0.023
 2779SOL     OW 8782   3.302   0.856   1.398
 2779SOL    HW1 8783   3.245   0.908   1.335
 2779SOL    HW2 8784   3.398   0.868   1.374
 2780SOL     OW 8785   1.934   0.166   0.318
 2780SOL    HW1 8786   1.917   0.249   0.264
 2780SOL    HW2 8787   2.024   0.129   0.296
 2781SOL     OW 8788   3.045   1.335   0.119
 2781SOL    HW1 8789   2.946   1.324   0.121
 2781SOL    HW2 8790   3.079   1.350   0.212
 2782SOL     OW 8791   2.475   0.842   1.431
 2782SOL    HW1 8792   2.531   0.923   1.414
 2782SOL    HW2 8793   2.534   0.762   1.434
 2783SOL     OW 8794   3.355   1.767   0.959
 2783SOL    HW1 8795   3.388   1.831   0.890
 2783SOL    HW2 8796   3.421   1.761   1.034
 2784SOL     OW 8797   2.578   0.565   1.708
 2784SOL    HW1 8798   2.597   0.630   1.782
 2784SOL    HW2 8799   2.638   0.485   1.717
 2785SOL     OW 8800   3.312   1.220   1.633
 2785SOL    HW1 8801   3.303   1.210   1.732
 2785SOL    HW2 8802   3.408   1.213   1.607
 2786SOL     OW 8803   2.252   1.741   1.560
 2786SOL    HW1 8804   2.161   1.782   1.558
 2786SOL    HW2 8805   2.245   1.647   1.592
 2787SOL     OW 8806   3.536   0.883   1.254
 2787SOL    HW1 8807   3.509   0.794   1.217
 2787SOL    HW2 8808   3.537   0.951   1.181
 2788SOL     OW 8809   3.087   0.325   0.449
 2788SOL    HW1 8810   3.152   0.251   0.438
 2788SOL    HW2 8811   3.107   0.375   0.533
 2789SOL     OW 8812   2.456   0.745   0.652
 2789SOL    HW1 8813   2.506   0.830   0.633
 2789SOL    HW2 8814   2.368   0.747   0.604
 2790SOL     OW 8815   3.639   0.342   1.642
 2790SOL    HW1 8816   3.622   0.373   1.548
 2790SOL    HW2 8817   3.555   0.305   1.680
 2791SOL     OW 8818   3.592   0.934   1.517
 2791SOL    HW1 8819   3.630   1.025   1.532
 2791SOL    HW2 8820   3.584   0.917   1.418
 2792SOL     OW 8821   2.721   1.374   0.016
 2792SOL    HW1 8822   2.675   1.389   0.104
 2792SOL    HW2 8823   2.765   1.459  -0.014
 2793SOL     OW 8824   2.523   1.790   0.953
 2793SOL    HW1 8825   2.477   1.878   0.940
 2793SOL    HW2 8826   2.622   1.802   0.946
 2794SOL     OW 8827   2.721   0.956   0.861
 2794SOL    HW1 8828   2.775   0.887   0.909
 2794SOL    HW2 8829   2.689   1.025   0.927
 2795SOL     OW 8830   2.945   0.984   0.087
 2795SOL    HW1 8831   2.922   1.037   0.005
 2795SOL    HW2 8832   3.026   0.928   0.068
 2796SOL     OW 8833   3.723   1.569   0.851
 2796SOL    HW1 8834   3.652   1.557   0.781
 2796SOL    HW2 8835   3.724   1.490   0.911
 2797SOL     OW 8836   2.083   1.314   1.844
 2797SOL    HW1 8837   2.018   1.241   1.823
 2797SOL    HW2 8838   2.087   1.328   1.942
 2798SOL     OW 8839   1.941   1.240   0.653
 2798SOL    HW1 8840   1.940   1.193   0.741
 2798SOL    HW2 8841   2.023   1.212   0.602
 2799SOL     OW 8842   2.534   1.391   1.624
 2799SOL    HW1 8843   2.456   1.341   1.662
 2799SOL    HW2 8844   2.531   1.486   1.655
 2800SOL     OW 8845   3.686   0.192   1.227
 2800SOL    HW1 8846   3.682   0.102   1.271
 2800SOL    HW2 8847   3.689   0.181   1.128
 2801SOL     OW 8848   2.290   0.424   0.520
 2801SOL    HW1 8849   2.320   0.352   0.458
 2801SOL    HW2 8850   2.251   0.384   0.603
 2802SOL     OW 8851   3.567   1.487   1.104
 2802SOL    HW1 8852   3.474   1.462   1.077
 2802SOL    HW2 8853   3.593   1.437   1.186
 2803SOL     OW 8854   2.179   0.547   1.280
 2803SOL    HW1 8855   2.217   0.488   1.352
 2803SOL    HW2 8856   2.219   0.521   1.192
 2804SOL     OW 8857   2.674   1.586   0.687
 2804SOL    HW1 8858   2.706   1.596   0.593
 2804SOL    HW2 8859   2.595   1.524   0.689
 2805SOL     OW 8860   3.286   0.214   1.112
 2805SOL    HW1 8861   3.338   0.149   1.167
 2805SOL    HW2 8862   3.237   0.277   1.173
 2806SOL     OW 8863   2.863   0.034   1.154
 2806SOL    HW1 8864   2.800  -0.038   1.123
 2806SOL    HW2 8865   2.956  -0.002   1.154
 2807SOL     OW 8866   2.632   1.330   0.301
 2807SOL    HW1 8867   2.586   1.243   0.318
 2807SOL    HW2 8868   2.723   1.327   0.342
 2808SOL     OW 8869   2.480   1.567   1.284
 2808SOL    HW1 8870   2.475   1.649   1.341
 2808SOL    HW2 8871   2.569   1.564   1.239
 2809SOL     OW 8872   3.214   0.052   0.168
 2809SOL    HW1 8873   3.249   0.011   0.084
 2809SOL    HW2 8874   3.124   0.014   0.188
 2810SOL     OW 8875   3.162   0.453   0.691
 2810SOL    HW1 8876   3.103   0.533   0.695
 2810SOL    HW2 8877   3.177   0.418   0.784
 2811SOL     OW 8878   3.455   0.221   0.882
 2811SOL    HW1 8879   3.371   0.220   0.936
 2811SOL    HW2 8880   3.457   0.304   0.826
 2812SOL     OW 8881   1.901   1.077   0.300
 2812SOL    HW1 8882   2.000   1.066   0.291
 2812SOL    HW2 8883   1.861   0.991   0.332
 2813SOL     OW 8884   2.737   1.646   0.337
 2813SOL    HW1 8885   2.660   1.611   0.283
 2813SOL    HW2 8886   2.705   1.717   0.399
 2814SOL     OW 8887   2.092   0.628   1.975
 2814SOL    HW1 8888   1.999   0.626   2.012
 2814SOL    HW2 8889   2.093   0.589   1.883
 2815SOL     OW 8890   2.087   0.275   2.858
 2815SOL    HW1 8891   2.122   0.258   2.950
 2815SOL    HW2 8892   1.999   0.230   2.846
 2816SOL     OW 8893   1.881   0.368   2.509
 2816SOL    HW1 8894   1.799   0.411   2.548
 2816SOL    HW2 8895   1.853   0.295   2.446
 2817SOL     OW 8896   2.431   1.275   3.027
 2817SOL    HW1 8897   2.338   1.268   2.990
 2817SOL    HW2 8898   2.442   1.364   3.071
 2818SOL     OW 8899   3.417   1.511   2.565
 2818SOL    HW1 8900   3.360   1.495   2.646
 2818SOL    HW2 8901   3.358   1.521   2.485
 2819SOL     OW 8902   2.997   0.703   2.579
 2819SOL    HW1 8903   3.054   0.781   2.554
 2819SOL    HW2 8904   2.937   0.729   2.655
 2820SOL     OW 8905   3.617   0.607   2.093
 2820SOL    HW1 8906   3.605   0.594   1.994
 2820SOL    HW2 8907   3.587   0.526   2.142
 2821SOL     OW 8908   2.630   1.144   2.885
 2821SOL    HW1 8909   2.552   1.161   2.945
 2821SOL    HW2 8910   2.664   1.231   2.849
 2822SOL     OW 8911   2.712   0.798   3.685
 2822SOL    HW1 8912   2.708   0.874   3.750
 2822SOL    HW2 8913   2.734   0.834   3.594
 2823SOL     OW 8914   2.547   1.012   2.527
 2823SOL    HW1 8915   2.616   0.996   2.597
 2823SOL    HW2 8916   2.474   1.069   2.565
 2824SOL     OW 8917   2.548   1.161   3.665
 2824SOL    HW1 8918   2.608   1.240   3.679
 2824SOL    HW2 8919   2.462   1.192   3.624
 2825SOL     OW 8920   2.197   1.435   2.923
 2825SOL    HW1 8921   2.119   1.404   2.870
 2825SOL    HW2 8922   2.255   1.493   2.866
 2826SOL     OW 8923   3.322   1.505   3.201
 2826SOL    HW1 8924   3.346   1.599   3.227
 2826SOL    HW2 8925   3.306   1.451   3.283
 2827SOL     OW 8926   2.300   0.392   3.361
 2827SOL    HW1 8927   2.382   0.336   3.370
 2827SOL    HW2 8928   2.219   0.334   3.365
 2828SOL     OW 8929   3.465   0.447   2.599
 2828SOL    HW1 8930   3.391   0.493   2.549
 2828SOL    HW2 8931   3.516   0.515   2.652
 2829SOL     OW 8932   2.093   1.713   2.345
 2829SOL    HW1 8933   2.127   1.790   2.399
 2829SOL    HW2 8934   2.137   1.713   2.255
 2830SOL     OW 8935   2.989   1.341   3.552
 2830SOL    HW1 8936   3.036   1.341   3.640
 2830SOL    HW2 8937   2.941   1.254   3.541
 2831SOL     OW 8938   2.092   1.434   2.400
 2831SOL    HW1 8939   2.066   1.530   2.400
 2831SOL    HW2 8940   2.021   1.380   2.445
 2832SOL     OW 8941   2.102   1.091   2.748
 2832SOL    HW1 8942   2.116   1.007   2.800
 2832SOL    HW2 8943   2.047   1.155   2.803
 2833SOL     OW 8944   2.482   1.786   3.301
 2833SOL    HW1 8945   2.390   1.769   3.336
 2833SOL    HW2 8946   2.510   1.878   3.327
 2834SOL     OW 8947   2.468   0.964   1.985
 2834SOL    HW1 8948   2.475   1.048   1.931
 2834SOL    HW2 8949   2.514   0.977   2.073
 2835SOL     OW 8950   3.456   0.114   3.342
 2835SOL    HW1 8951   3.438   0.181   3.270
 2835SOL    HW2 8952   3.453   0.160   3.431
 2836SOL     OW 8953   1.984   0.643   2.425
 2836SOL    HW1 8954   1.939   0.555   2.442
 2836SOL    HW2 8955   1.983   0.697   2.509
 2837SOL     OW 8956   3.704   1.767   2.221
 2837SOL    HW1 8957   3.758   1.738   2.301
 2837SOL    HW2 8958   3.734   1.857   2.192
 2838SOL     OW 8959   1.889   1.596   1.979
 2838SOL    HW1 8960   1.870   1.500   2.000
 2838SOL    HW2 8961   1.856   1.654   2.054
 2839SOL     OW 8962   3.551   0.922   2.474
 2839SOL    HW1 8963   3.646   0.893   2.482
 2839SOL    HW2 8964   3.543   0.987   2.399
 2840SOL     OW 8965   3.503   1.108   2.294
 2840SOL    HW1 8966   3.589   1.110   2.242
 2840SOL    HW2 8967   3.517   1.155   2.382
 2841SOL     OW 8968   1.975   0.737   3.459
 2841SOL    HW1 8969   2.063   0.724   3.504
 2841SOL    HW2 8970   1.962   0.834   3.437
 2842SOL     OW 8971   2.475   1.365   2.588
 2842SOL    HW1 8972   2.426   1.278   2.597
 2842SOL    HW2 8973   2.452   1.408   2.501
 2843SOL     OW 8974   3.155   1.228   3.285
 2843SOL    HW1 8975   3.192   1.155   3.227
 2843SOL    HW2 8976   3.207   1.233   3.370
 2844SOL     OW 8977   2.671   0.004   2.364
 2844SOL    HW1 8978   2.711   0.095   2.355
 2844SOL    HW2 8979   2.571   0.012   2.370
 2845SOL     OW 8980   2.059   0.976   3.126
 2845SOL    HW1 8981   2.148   0.931   3.112
 2845SOL    HW2 8982   1.986   0.911   3.107
 2846SOL     OW 8983   3.387   0.999   2.052
 2846SOL    HW1 8984   3.324   0.923   2.065
 2846SOL    HW2 8985   3.435   1.017   2.138
 2847SOL     OW 8986   3.049   1.792   3.478
 2847SOL    HW1 8987   3.073   1.852   3.402
 2847SOL    HW2 8988   3.056   1.697   3.448
 2848SOL     OW 8989   2.179   0.251   3.663
 2848SOL    HW1 8990   2.250   0.322   3.669
 2848SOL    HW2 8991   2.091   0.290   3.691
 2849SOL     OW 8992   3.328   1.417   2.815
 2849SOL    HW1 8993   3.269   1.423   2.895
 2849SOL    HW2 8994   3.313   1.329   2.769
 2850SOL     OW 8995   3.529   1.714   2.434
 2850SOL    HW1 8996   3.488   1.691   2.346
 2850SOL    HW2 8997   3.511   1.640   2.499
 2851SOL     OW 8998   2.460   0.729   2.132
 2851SOL    HW1 8999   2.484   0.798   2.064
 2851SOL    HW2 9000   2.382   0.762   2.186
 2852SOL     OW 9001   3.143   0.345   2.806
 2852SOL    HW1 9002   3.057   0.295   2.793
 2852SOL    HW2 9003   3.205   0.291   2.862
 2853SOL     OW 9004   3.438   1.662   2.169
 2853SOL    HW1 9005   3.527   1.708   2.172
 2853SOL    HW2 9006   3.417   1.638   2.074
 2854SOL     OW 9007   2.669   0.605   3.327
 2854SOL    HW1 9008   2.622   0.602   3.416
 2854SOL    HW2 9009   2.618   0.550   3.261
 2855SOL     OW 9010   3.256   0.469   3.536
 2855SOL    HW1 9011   3.236   0.512   3.624
 2855SOL    HW2 9012   3.334   0.407   3.545
 2856SOL     OW 9013   2.835   0.890   3.434
 2856SOL    HW1 9014   2.881   0.806   3.405
 2856SOL    HW2 9015   2.779   0.924   3.359
 2857SOL     OW 9016   2.853   0.410   3.104
 2857SOL    HW1 9017   2.776   0.444   3.158
 2857SOL    HW2 9018   2.819   0.359   3.025
 2858SOL     OW 9019   2.903   0.701   2.291
 2858SOL    HW1 9020   2.929   0.697   2.387
 2858SOL    HW2 9021   2.818   0.650   2.277
 2859SOL     OW 9022   1.938   0.811   2.651
 2859SOL    HW1 9023   2.037   0.799   2.660
 2859SOL    HW2 9024   1.914   0.906   2.672
 2860SOL     OW 9025   1.992   1.821   3.433
 2860SOL    HW1 9026   1.982   1.806   3.532
 2860SOL    HW2 9027   1.906   1.857   3.397
 2861SOL     OW 9028   2.727   0.348   2.057
 2861SOL    HW1 9029   2.786   0.411   2.008
 2861SOL    HW2 9030   2.746   0.254   2.028
 2862SOL     OW 9031   3.581   0.585   3.693
 2862SOL    HW1 9032   3.555   0.674   3.657
 2862SOL    HW2 9033   3.579   0.517   3.620
 2863SOL     OW 9034   3.224   1.144   2.407
 2863SOL    HW1 9035   3.307   1.115   2.359
 2863SOL    HW2 9036   3.175   1.211   2.351
 2864SOL     OW 9037   2.412   0.196   2.747
 2864SOL    HW1 9038   2.407   0.191   2.847
 2864SOL    HW2 9039   2.414   0.292   2.718
 2865SOL     OW 9040   2.870   1.456   2.339
 2865SOL    HW1 9041   2.824   1.528   2.287
 2865SOL    HW2 9042   2.866   1.476   2.437
 2866SOL     OW 9043   2.213   1.801   2.715
 2866SOL    HW1 9044   2.263   1.715   2.721
 2866SOL    HW2 9045   2.278   1.878   2.712
 2867SOL     OW 9046   3.657   1.066   2.735
 2867SOL    HW1 9047   3.595   1.051   2.659
 2867SOL    HW2 9048   3.605   1.077   2.820
 2868SOL     OW 9049   3.089   1.550   3.368
 2868SOL    HW1 9050   3.095   1.473   3.432
 2868SOL    HW2 9051   3.037   1.524   3.288
 2869SOL     OW 9052   2.183   0.943   2.104
 2869SOL    HW1 9053   2.265   0.982   2.062
 2869SOL    HW2 9054   2.156   0.861   2.055
 2870SOL     OW 9055   3.320   0.735   2.590
 2870SOL    HW1 9056   3.315   0.670   2.665
 2870SOL    HW2 9057   3.400   0.794   2.603
 2871SOL     OW 9058   2.323   1.266   3.589
 2871SOL    HW1 9059   2.273   1.267   3.503
 2871SOL    HW2 9060   2.260   1.248   3.665
 2872SOL     OW 9061   2.973   1.776   2.099
 2872SOL    HW1 9062   2.913   1.714   2.149
 2872SOL    HW2 9063   3.004   1.732   2.014
 2873SOL     OW 9064   2.064   0.285   3.360
 2873SOL    HW1 9065   1.984   0.345   3.347
 2873SOL    HW2 9066   2.054   0.236   3.446
 2874SOL     OW 9067   3.494   1.377   1.943
 2874SOL    HW1 9068   3.462   1.471   1.933
 2874SOL    HW2 9069   3.418   1.314   1.931
 2875SOL     OW 9070   2.326   1.743   2.185
 2875SOL    HW1 9071   2.359   1.782   2.271
 2875SOL    HW2 9072   2.402   1.736   2.120
 2876SOL     OW 9073   3.262   0.107   2.288
 2876SOL    HW1 9074   3.238   0.070   2.198
 2876SOL    HW2 9075   3.361   0.123   2.292
 2877SOL     OW 9076   2.111   1.785   3.103
 2877SOL    HW1 9077   2.168   1.720   3.153
 2877SOL    HW2 9078   2.095   1.752   3.010
 2878SOL     OW 9079   2.802   1.698   2.766
 2878SOL    HW1 9080   2.882   1.641   2.787
 2878SOL    HW2 9081   2.753   1.658   2.689
 2879SOL     OW 9082   2.244   0.700   2.342
 2879SOL    HW1 9083   2.289   0.610   2.339
 2879SOL    HW2 9084   2.150   0.689   2.375
 2880SOL     OW 9085   3.409   0.222   3.591
 2880SOL    HW1 9086   3.404   0.259   3.683
 2880SOL    HW2 9087   3.337   0.153   3.579
 2881SOL     OW 9088   2.476   0.122   1.979
 2881SOL    HW1 9089   2.574   0.100   1.986
 2881SOL    HW2 9090   2.445   0.105   1.886
 2882SOL     OW 9091   2.643   0.264   3.611
 2882SOL    HW1 9092   2.710   0.203   3.654
 2882SOL    HW2 9093   2.570   0.283   3.676
 2883SOL     OW 9094   2.750   1.514   3.057
 2883SOL    HW1 9095   2.727   1.489   2.963
 2883SOL    HW2 9096   2.811   1.445   3.096
 2884SOL     OW 9097   3.213   0.590   3.295
 2884SOL    HW1 9098   3.241   0.547   3.380
 2884SOL    HW2 9099   3.238   0.686   3.296
 2885SOL     OW 9100   2.665   1.402   2.786
 2885SOL    HW1 9101   2.755   1.416   2.744
 2885SOL    HW2 9102   2.594   1.404   2.715
 2886SOL     OW 9103   2.784   0.503   2.761
 2886SOL    HW1 9104   2.759   0.494   2.665
 2886SOL    HW2 9105   2.832   0.421   2.792
 2887SOL     OW 9106   2.401   0.064   2.374
 2887SOL    HW1 9107   2.320   0.065   2.432
 2887SOL    HW2 9108   2.404   0.147   2.319
 2888SOL     OW 9109   3.296   1.188   1.903
 2888SOL    HW1 9110   3.328   1.112   1.960
 2888SOL    HW2 9111   3.204   1.215   1.933
 2889SOL     OW 9112   2.159   0.035   2.033
 2889SOL    HW1 9113   2.208   0.119   2.012
 2889SOL    HW2 9114   2.221  -0.030   2.078
 2890SOL     OW 9115   2.797   0.236   2.342
 2890SOL    HW1 9116   2.749   0.277   2.264
 2890SOL    HW2 9117   2.896   0.234   2.323
 2891SOL     OW 9118   2.938   0.683   3.326
 2891SOL    HW1 9119   2.858   0.622   3.329
 2891SOL    HW2 9120   3.019   0.630   3.302
 2892SOL     OW 9121   3.089   1.570   2.655
 2892SOL    HW1 9122   3.110   1.644   2.590
 2892SOL    HW2 9123   3.157   1.570   2.728
 2893SOL     OW 9124   2.321   1.152   2.603
 2893SOL    HW1 9125   2.250   1.125   2.668
 2893SOL    HW2 9126   2.295   1.124   2.510
 2894SOL     OW 9127   3.133   1.797   2.453
 2894SOL    HW1 9128   3.177   1.861   2.389
 2894SOL    HW2 9129   3.083   1.849   2.523
 2895SOL     OW 9130   2.894   0.549   1.878
 2895SOL    HW1 9131   2.853   0.631   1.839
 2895SOL    HW2 9132   2.958   0.575   1.951
 2896SOL     OW 9133   1.940   0.556   3.248
 2896SOL    HW1 9134   2.032   0.555   3.207
 2896SOL    HW2 9135   1.934   0.630   3.315
 2897SOL     OW 9136   2.423   0.222   3.009
 2897SOL    HW1 9137   2.461   0.138   3.046
 2897SOL    HW2 9138   2.335   0.241   3.053
 2898SOL     OW 9139   2.728   0.454   2.504
 2898SOL    HW1 9140   2.696   0.526   2.442
 2898SOL    HW2 9141   2.752   0.373   2.451
 2899SOL     OW 9142   2.879   0.039   2.615
 2899SOL    HW1 9143   2.807   0.044   2.546
 2899SOL    HW2 9144   2.855  -0.030   2.684
 2900SOL     OW 9145   3.291   1.173   2.729
 2900SOL    HW1 9146   3.236   1.089   2.722
 2900SOL    HW2 9147   3.317   1.202   2.637
 2901SOL     OW 9148   3.328   0.590   2.854
 2901SOL    HW1 9149   3.298   0.495   2.861
 2901SOL    HW2 9150   3.401   0.606   2.920
 2902SOL     OW 9151   3.719   0.833   2.239
 2902SOL    HW1 9152   3.761   0.769   2.303
 2902SOL    HW2 9153   3.681   0.782   2.161
 2903SOL     OW 9154   2.350   1.385   2.036
 2903SOL    HW1 9155   2.263   1.370   2.083
 2903SOL    HW2 9156   2.333   1.411   1.941
 2904SOL     OW 9157   3.526   1.280   2.519
 2904SOL    HW1 9158   3.625   1.288   2.533
 2904SOL    HW2 9159   3.481   1.364   2.550
 2905SOL     OW 9160   3.252   0.575   1.940
 2905SOL    HW1 9161   3.198   0.554   2.021
 2905SOL    HW2 9162   3.343   0.534   1.949
 2906SOL     OW 9163   2.389   0.256   2.190
 2906SOL    HW1 9164   2.416   0.197   2.115
 2906SOL    HW2 9165   2.389   0.351   2.159
 2907SOL     OW 9166   3.616   1.223   3.450
 2907SOL    HW1 9167   3.707   1.184   3.437
 2907SOL    HW2 9168   3.624   1.319   3.474
 2908SOL     OW 9169   2.926   1.347   3.202
 2908SOL    HW1 9170   2.846   1.324   3.257
 2908SOL    HW2 9171   3.009   1.321   3.251
 2909SOL     OW 9172   3.454   1.629   3.487
 2909SOL    HW1 9173   3.481   1.663   3.397
 2909SOL    HW2 9174   3.533   1.591   3.533
 2910SOL     OW 9175   2.973   1.195   2.962
 2910SOL    HW1 9176   2.933   1.239   3.043
 2910SOL    HW2 9177   2.932   1.232   2.879
 2911SOL     OW 9178   3.500   1.099   2.941
 2911SOL    HW1 9179   3.505   1.180   3.000
 2911SOL    HW2 9180   3.414   1.101   2.890
 2912SOL     OW 9181   2.777   0.089   3.264
 2912SOL    HW1 9182   2.802   0.069   3.169
 2912SOL    HW2 9183   2.849   0.145   3.306
 2913SOL     OW 9184   2.842   1.116   3.581
 2913SOL    HW1 9185   2.743   1.122   3.591
 2913SOL    HW2 9186   2.865   1.036   3.525
 2914SOL     OW 9187   2.567   1.050   2.230
 2914SOL    HW1 9188   2.553   1.057   2.329
 2914SOL    HW2 9189   2.651   0.999   2.212
 2915SOL     OW 9190   2.272   0.813   3.113
 2915SOL    HW1 9191   2.358   0.825   3.163
 2915SOL    HW2 9192   2.230   0.726   3.140
 2916SOL     OW 9193   3.136   0.386   3.124
 2916SOL    HW1 9194   3.157   0.460   3.188
 2916SOL    HW2 9195   3.047   0.403   3.081
 2917SOL     OW 9196   1.926   1.564   3.193
 2917SOL    HW1 9197   1.880   1.646   3.159
 2917SOL    HW2 9198   2.024   1.583   3.202
 2918SOL     OW 9199   2.229   1.100   2.363
 2918SOL    HW1 9200   2.222   1.183   2.307
 2918SOL    HW2 9201   2.233   1.020   2.303
 2919SOL     OW 9202   2.428   0.537   2.727
 2919SOL    HW1 9203   2.440   0.603   2.653
 2919SOL    HW2 9204   2.474   0.571   2.810
 2920SOL     OW 9205   3.114   1.348   2.250
 2920SOL    HW1 9206   3.164   1.425   2.290
 2920SOL    HW2 9207   3.019   1.350   2.282
 2921SOL     OW 9208   3.134   1.445   3.004
 2921SOL    HW1 9209   3.181   1.458   3.091
 2921SOL    HW2 9210   3.068   1.371   3.013
 2922SOL     OW 9211   3.444   0.639   2.334
 2922SOL    HW1 9212   3.413   0.700   2.407
 2922SOL    HW2 9213   3.494   0.691   2.265
 2923SOL     OW 9214   2.216   1.510   3.191
 2923SOL    HW1 9215   2.195   1.466   3.104
 2923SOL    HW2 9216   2.313   1.536   3.194
 2924SOL     OW 9217   2.264   0.751   3.460
 2924SOL    HW1 9218   2.332   0.806   3.413
 2924SOL    HW2 9219   2.304   0.663   3.487
 2925SOL     OW 9220   3.449   0.779   3.532
 2925SOL    HW1 9221   3.357   0.817   3.527
 2925SOL    HW2 9222   3.509   0.826   3.467
 2926SOL     OW 9223   2.875   0.105   3.632
 2926SOL    HW1 9224   2.881   0.190   3.580
 2926SOL    HW2 9225   2.907   0.029   3.575
 2927SOL     OW 9226   2.366   0.050   3.602
 2927SOL    HW1 9227   2.324  -0.007   3.532
 2927SOL    HW2 9228   2.300   0.119   3.634
 2928SOL     OW 9229   2.435   0.870   2.891
 2928SOL    HW1 9230   2.479   0.959   2.882
 2928SOL    HW2 9231   2.372   0.870   2.968
 2929SOL     OW 9232   3.222   0.862   2.907
 2929SOL    HW1 9233   3.147   0.862   2.841
 2929SOL    HW2 9234   3.259   0.770   2.916
 2930SOL     OW 9235   3.071   0.525   2.137
 2930SOL    HW1 9236   3.084   0.441   2.191
 2930SOL    HW2 9237   3.042   0.599   2.197
 2931SOL     OW 9238   2.169   0.213   3.093
 2931SOL    HW1 9239   2.146   0.250   3.183
 2931SOL    HW2 9240   2.139   0.118   3.087
 2932SOL     OW 9241   1.899   1.310   3.144
 2932SOL    HW1 9242   1.952   1.261   3.212
 2932SOL    HW2 9243   1.921   1.408   3.149
 2933SOL     OW 9244   2.594   0.634   2.926
 2933SOL    HW1 9245   2.653   0.608   2.850
 2933SOL    HW2 9246   2.566   0.730   2.915
 2934SOL     OW 9247   3.590   0.935   3.716
 2934SOL    HW1 9248   3.544   0.928   3.627
 2934SOL    HW2 9249   3.528   0.979   3.782
 2935SOL     OW 9250   2.169   0.063   2.480
 2935SOL    HW1 9251   2.158   0.157   2.513
 2935SOL    HW2 9252   2.164   0.000   2.557
 2936SOL     OW 9253   3.484   0.367   2.236
 2936SOL    HW1 9254   3.486   0.291   2.300
 2936SOL    HW2 9255   3.436   0.444   2.276
 2937SOL     OW 9256   2.885   0.766   2.828
 2937SOL    HW1 9257   2.900   0.787   2.924
 2937SOL    HW2 9258   2.855   0.671   2.819
 2938SOL     OW 9259   2.842   1.573   3.562
 2938SOL    HW1 9260   2.822   1.617   3.474
 2938SOL    HW2 9261   2.881   1.482   3.546
 2939SOL     OW 9262   3.721   1.518   3.467
 2939SOL    HW1 9263   3.735   1.545   3.372
 2939SOL    HW2 9264   3.804   1.540   3.520
 2940SOL     OW 9265   2.212   0.898   3.666
 2940SOL    HW1 9266   2.288   0.942   3.714
 2940SOL    HW2 9267   2.247   0.851   3.584
 2941SOL     OW 9268   3.402   0.274   1.987
 2941SOL    HW1 9269   3.341   0.199   2.010
 2941SOL    HW2 9270   3.424   0.326   2.070
 2942SOL     OW 9271   3.165   0.838   1.904
 2942SOL    HW1 9272   3.199   0.745   1.919
 2942SOL    HW2 9273   3.183   0.865   1.809
 2943SOL     OW 9274   2.930   1.333   2.711
 2943SOL    HW1 9275   2.937   1.249   2.656
 2943SOL    HW2 9276   2.992   1.402   2.675
 2944SOL     OW 9277   2.181   0.810   2.811
 2944SOL    HW1 9278   2.274   0.846   2.816
 2944SOL    HW2 9279   2.175   0.725   2.863
 2945SOL     OW 9280   2.201   0.509   2.868
 2945SOL    HW1 9281   2.149   0.426   2.851
 2945SOL    HW2 9282   2.278   0.514   2.804
 2946SOL     OW 9283   3.000   0.380   3.540
 2946SOL    HW1 9284   2.955   0.443   3.604
 2946SOL    HW2 9285   3.093   0.411   3.523
 2947SOL     OW 9286   3.022   0.207   3.339
 2947SOL    HW1 9287   3.022   0.271   3.416
 2947SOL    HW2 9288   3.050   0.255   3.256
 2948SOL     OW 9289   1.870   1.326   2.062
 2948SOL    HW1 9290   1.777   1.347   2.031
 2948SOL    HW2 9291   1.880   1.227   2.075
 2949SOL     OW 9292   1.950   1.801   2.789
 2949SOL    HW1 9293   1.908   1.715   2.762
 2949SOL    HW2 9294   2.044   1.804   2.755
 2950SOL     OW 9295   2.366   1.568   2.772
 2950SOL    HW1 9296   2.432   1.642   2.781
 2950SOL    HW2 9297   2.410   1.489   2.730
 2951SOL     OW 9298   2.864   0.796   3.100
 2951SOL    HW1 9299   2.905   0.764   3.186
 2951SOL    HW2 9300   2.768   0.769   3.097
 2952SOL     OW 9301   1.902   0.544   2.976
 2952SOL    HW1 9302   1.987   0.511   2.935
 2952SOL    HW2 9303   1.915   0.559   3.074
 2953SOL     OW 9304   2.051   0.520   3.584
 2953SOL    HW1 9305   2.110   0.480   3.514
 2953SOL    HW2 9306   1.993   0.591   3.543
 2954SOL     OW 9307   3.231   0.950   3.522
 2954SOL    HW1 9308   3.270   1.039   3.542
 2954SOL    HW2 9309   3.241   0.930   3.425
 2955SOL     OW 9310   2.677   0.572   2.187
 2955SOL    HW1 9311   2.684   0.483   2.141
 2955SOL    HW2 9312   2.583   0.606   2.179
 2956SOL     OW 9313   3.519   0.604   3.068
 2956SOL    HW1 9314   3.481   0.535   3.130
 2956SOL    HW2 9315   3.601   0.568   3.024
 2957SOL     OW 9316   2.114   1.564   3.606
 2957SOL    HW1 9317   2.084   1.621   3.682
 2957SOL    HW2 9318   2.107   1.467   3.632
 2958SOL     OW 9319   2.533   0.464   3.131
 2958SOL    HW1 9320   2.499   0.375   3.101
 2958SOL    HW2 9321   2.559   0.518   3.051
 2959SOL     OW 9322   2.792   1.678   3.327
 2959SOL    HW1 9323   2.768   1.660   3.232
 2959SOL    HW2 9324   2.822   1.772   3.337
 2960SOL     OW 9325   2.335   0.500   2.053
 2960SOL    HW1 9326   2.396   0.580   2.057
 2960SOL    HW2 9327   2.240   0.531   2.060
 2961SOL     OW 9328   2.021   1.137   3.328
 2961SOL    HW1 9329   2.043   1.076   3.404
 2961SOL    HW2 9330   2.031   1.088   3.242
 2962SOL     OW 9331   3.209   1.059   3.096
 2962SOL    HW1 9332   3.233   0.996   3.022
 2962SOL    HW2 9333   3.119   1.099   3.078
 2963SOL     OW 9334   3.164   0.855   2.171
 2963SOL    HW1 9335   3.078   0.824   2.213
 2963SOL    HW2 9336   3.160   0.841   2.072
 2964SOL     OW 9337   3.621   1.747   3.016
 2964SOL    HW1 9338   3.682   1.777   2.943
 2964SOL    HW2 9339   3.583   1.658   2.994
 2965SOL     OW 9340   3.114   1.731   2.990
 2965SOL    HW1 9341   3.198   1.736   2.936
 2965SOL    HW2 9342   3.091   1.635   3.008
 2966SOL     OW 9343   1.945   1.258   2.884
 2966SOL    HW1 9344   1.940   1.257   2.984
 2966SOL    HW2 9345   1.862   1.217   2.846
 2967SOL     OW 9346   2.550   1.662   3.578
 2967SOL    HW1 9347   2.494   1.743   3.587
 2967SOL    HW2 9348   2.602   1.666   3.492
 2968SOL     OW 9349   3.588   0.135   2.385
 2968SOL    HW1 9350   3.661   0.118   2.318
 2968SOL    HW2 9351   3.557   0.048   2.423
 2969SOL     OW 9352   3.250   1.573   2.339
 2969SOL    HW1 9353   3.317   1.585   2.265
 2969SOL    HW2 9354   3.210   1.662   2.362
 2970SOL     OW 9355   1.992   1.794   3.713
 2970SOL    HW1 9356   1.951   1.720   3.766
 2970SOL    HW2 9357   2.056   1.845   3.771
 2971SOL     OW 9358   3.142   0.927   2.534
 2971SOL    HW1 9359   3.202   0.846   2.536
 2971SOL    HW2 9360   3.182   0.996   2.474
 2972SOL     OW 9361   2.692   1.273   3.284
 2972SOL    HW1 9362   2.687   1.306   3.379
 2972SOL    HW2 9363   2.606   1.292   3.238
 2973SOL     OW 9364   2.534   1.616   2.016
 2973SOL    HW1 9365   2.543   1.626   1.917
 2973SOL    HW2 9366   2.494   1.527   2.037
 2974SOL     OW 9367   3.512   1.720   3.256
 2974SOL    HW1 9368   3.565   1.730   3.172
 2974SOL    HW2 9369   3.485   1.810   3.290
 2975SOL     OW 9370   3.703   0.175   2.825
 2975SOL    HW1 9371   3.742   0.090   2.789
 2975SOL    HW2 9372   3.605   0.177   2.806
 2976SOL     OW 9373   2.125   0.326   2.582
 2976SOL    HW1 9374   2.046   0.377   2.548
 2976SOL    HW2 9375   2.116   0.311   2.680
 2977SOL     OW 9376   3.056   1.612   1.893
 2977SOL    HW1 9377   3.062   1.519   1.930
 2977SOL    HW2 9378   2.997   1.612   1.813
 2978SOL     OW 9379   2.684   1.002   3.234
 2978SOL    HW1 9380   2.724   1.001   3.142
 2978SOL    HW2 9381   2.694   1.094   3.274
 2979SOL     OW 9382   2.778   0.910   2.153
 2979SOL    HW1 9383   2.841   0.948   2.085
 2979SOL    HW2 9384   2.818   0.827   2.192
 2980SOL     OW 9385   3.366   1.607   1.906
 2980SOL    HW1 9386   3.274   1.644   1.913
 2980SOL    HW2 9387   3.404   1.627   1.816
 2981SOL     OW 9388   2.234   1.288   3.352
 2981SOL    HW1 9389   2.221   1.381   3.318
 2981SOL    HW2 9390   2.150   1.236   3.339
 2982SOL     OW 9391   3.476   1.292   3.151
 2982SOL    HW1 9392   3.536   1.295   3.231
 2982SOL    HW2 9393   3.401   1.356   3.164
 2983SOL     OW 9394   2.901   1.098   2.558
 2983SOL    HW1 9395   2.831   1.051   2.612
 2983SOL    HW2 9396   2.960   1.030   2.515
 2984SOL     OW 9397   2.876   0.236   2.833
 2984SOL    HW1 9398   2.868   0.200   2.740
 2984SOL    HW2 9399   2.874   0.160   2.898
 2985SOL     OW 9400   2.452   1.487   2.353
 2985SOL    HW1 9401   2.494   1.429   2.283
 2985SOL    HW2 9402   2.408   1.566   2.309
 2986SOL     OW 9403   3.571   0.385   3.243
 2986SOL    HW1 9404   3.644   0.454   3.247
 2986SOL    HW2 9405   3.599   0.310   3.184
 2987SOL     OW 9406   2.117   1.348   2.152
 2987SOL    HW1 9407   2.021   1.349   2.125
 2987SOL    HW2 9408   2.129   1.401   2.236
 2988SOL     OW 9409   1.967   1.013   3.588
 2988SOL    HW1 9410   1.890   0.980   3.642
 2988SOL    HW2 9411   2.052   0.983   3.630
 2989SOL     OW 9412   2.534   0.203   3.351
 2989SOL    HW1 9413   2.624   0.187   3.311
 2989SOL    HW2 9414   2.542   0.208   3.450
 2990SOL     OW 9415   1.937   0.345   1.895
 2990SOL    HW1 9416   1.845   0.317   1.866
 2990SOL    HW2 9417   1.968   0.422   1.839
 2991SOL     OW 9418   3.302   0.856   3.260
 2991SOL    HW1 9419   3.245   0.908   3.197
 2991SOL    HW2 9420   3.398   0.868   3.236
 2992SOL     OW 9421   1.934   0.166   2.180
 2992SOL    HW1 9422   1.917   0.249   2.126
 2992SOL    HW2 9423   2.024   0.129   2.158
 2993SOL     OW 9424   3.045   1.335   1.981
 2993SOL    HW1 9425   2.946   1.324   1.983
 2993SOL    HW2 9426   3.079   1.350   2.074
 2994SOL     OW 9427   2.475   0.842   3.293
 2994SOL    HW1 9428   2.531   0.923   3.276
 2994SOL    HW2 9429   2.534   0.762   3.296
 2995SOL     OW 9430   3.355   1.767   2.821
 2995SOL    HW1 9431   3.388   1.831   2.752
 2995SOL    HW2 9432   3.421   1.761   2.896
 2996SOL     OW 9433   2.578   0.565   3.570
 2996SOL    HW1 9434   2.597   0.630   3.644
 2996SOL    HW2 9435   2.638   0.485   3.579
 2997SOL     OW 9436   3.312   1.220   3.495
 2997SOL    HW1 9437   3.303   1.210   3.594
 2997SOL    HW2 9438   3.408   1.213   3.469
 2998SOL     OW 9439   2.252   1.741   3.422
 2998SOL    HW1 9440   2.161   1.782   3.420
 2998SOL    HW2 9441   2.245   1.647   3.454
 2999SOL     OW 9442   3.536   0.883   3.116
 2999SOL    HW1 9443   3.509   0.794   3.079
 2999SOL    HW2 9444   3.537   0.951   3.043
 3000SOL     OW 9445   3.087   0.325   2.311
 3000SOL    HW1 9446   3.152   0.251   2.300
 3000SOL    HW2 9447   3.107   0.375   2.395
 3001SOL     OW 9448   2.456   0.745   2.514
 3001SOL    HW1 9449   2.506   0.830   2.495
 3001SOL    HW2 9450   2.368   0.747   2.466
 3002SOL     OW 9451   3.639   0.342   3.504
 3002SOL    HW1 9452   3.622   0.373   3.410
 3002SOL    HW2 9453   3.555   0.305   3.542
 3003SOL     OW 9454   3.592   0.934   3.379
 3003SOL    HW1 9455   3.630   1.025   3.394
 3003SOL    HW2 9456   3.584   0.917   3.280
 3004SOL     OW 9457   2.721   1.374   1.878
 3004SOL    HW1 9458   2.675   1.389   1.966
 3004SOL    HW2 9459   2.765   1.459   1.848
 3005SOL     OW 9460   2.523   1.790   2.815
 3005SOL    HW1 9461   2.477   1.878   2.802
 3005SOL    HW2 9462   2.622   1.802   2.808
 3006SOL     OW 9463   2.721   0.956   2.723
 3006SOL    HW1 9464   2.775   0.887   2.771
 3006SOL    HW2 9465   2.689   1.025   2.789
 3007SOL     OW 9466   2.945   0.984   1.949
 3007SOL    HW1 9467   2.922   1.037   1.867
 3007SOL    HW2 9468   3.026   0.928   1.930
 3008SOL     OW 9469   3.723   1.569   2.713
 3008SOL    HW1 9470   3.652   1.557   2.643
 3008SOL    HW2 9471   3.724   1.490   2.773
 3009SOL     OW 9472   2.083   1.314   3.706
 3009SOL    HW1 9473   2.018   1.241   3.685
 3009SOL    HW2 9474   2.087   1.328   3.804
 3010SOL     OW 9475   1.941   1.240   2.515
 3010SOL    HW1 9476   1.940   1.193   2.603
 3010SOL    HW2 9477   2.023   1.212   2.464
 3011SOL     OW 9478   2.534   1.391   3.486
 3011SOL    HW1 9479   2.456   1.341   3.524
 3011SOL    HW2 9480   2.531   1.486   3.517
 3012SOL     OW 9481   3.686   0.192   3.089
 3012SOL    HW1 9482   3.682   0.102   3.133
 3012SOL    HW2 9483   3.689   0.181   2.990
 3013SOL     OW 9484   2.290   0.424   2.382
 3013SOL    HW1 9485   2.320   0.352   2.320
 3013SOL    HW2 9486   2.251   0.384   2.465
 3014SOL     OW 9487   3.567   1.487   2.966
 3014SOL    HW1 9488   3.474   1.462   2.939
 3014SOL    HW2 9489   3.593   1.437   3.048
 3015SOL     OW 9490   2.179   0.547   3.142
 3015SOL    HW1 9491   2.217   0.488   3.214
 3015SOL    HW2 9492   2.219   0.521   3.054
 3016SOL     OW 9493   2.674   1.586   2.549
 3016SOL    HW1 9494   2.706   1.596   2.455
 3016SOL    HW2 9495   2.595   1.524   2.551
 3017SOL     OW 9496   3.286   0.214   2.974
 3017SOL    HW1 9497   3.338   0.149   3.029
 3017SOL    HW2 9498   3.237   0.277   3.035
 3018SOL     OW 9499   2.863   0.034   3.016
 3018SOL    HW1 9500   2.800  -0.038   2.985
 3018SOL    HW2 9501   2.956  -0.002   3.016
 3019SOL     OW 9502   2.632   1.330   2.163
 3019SOL    HW1 9503   2.586   1.243   2.180
 3019SOL    HW2 9504   2.723   1.327   2.204
 3020SOL     OW 9505   2.480   1.567   3.146
 3020SOL    HW1 9506   2.475   1.649   3.203
 3020SOL    HW2 9507   2.569   1.564   3.101
 3021SOL     OW 9508   3.214   0.052   2.030
 3021SOL    HW1 9509   3.249   0.011   1.946
 3021SOL    HW2 9510   3.124   0.014   2.050
 3022SOL     OW 9511   3.162   0.453   2.553
 3022SOL    HW1 9512   3.103   0.533   2.557
 3022SOL    HW2 9513   3.177   0.418   2.646
 3023SOL     OW 9514   3.455   0.221   2.744
 3023SOL    HW1 9515   3.371   0.220   2.798
 3023SOL    HW2 9516   3.457   0.304   2.688
 3024SOL     OW 9517   1.901   1.077   2.162
 3024SOL    HW1 9518   2.000   1.066   2.153
 3024SOL    HW2 9519   1.861   0.991   2.194
 3025SOL     OW 9520   2.737   1.646   2.199
 3025SOL    HW1 9521   2.660   1.611   2.145
 3025SOL    HW2 9522   2.705   1.717   2.261
 3026SOL     OW 9523   2.092   0.628   3.837
 3026SOL    HW1 9524   1.999   0.626   3.874
 3026SOL    HW2 9525   2.093   0.589   3.745
 3027SOL     OW 9526   2.087   0.275   4.720
 3027SOL    HW1 9527   2.122   0.258   4.812
 3027SOL    HW2 9528   1.999   0.230   4.708
 3028SOL     OW 9529   1.881   0.368   4.371
 3028SOL    HW1 9530   1.799   0.411   4.410
 3028SOL    HW2 9531   1.853   0.295   4.308
 3029SOL     OW 9532   2.431   1.275   4.889
 3029SOL    HW1 9533   2.338   1.268   4.852
 3029SOL    HW2 9534   2.442   1.364   4.933
 3030SOL     OW 9535   3.417   1.511   4.427
 3030SOL    HW1 9536   3.360   1.495   4.508
 3030SOL    HW2 9537   3.358   1.521   4.347
 3031SOL     OW 9538   2.997   0.703   4.441
 3031SOL    HW1 9539   3.054   0.781   4.416
 3031SOL    HW2 9540   2.937   0.729   4.517
 3032SOL     OW 9541   3.617   0.607   3.955
 3032SOL    HW1 9542   3.605   0.594   3.856
 3032SOL    HW2 9543   3.587   0.526   4.004
 3033SOL     OW 9544   2.630   1.144   4.747
 3033SOL    HW1 9545   2.552   1.161   4.807
 3033SOL    HW2 9546   2.664   1.231   4.711
 3034SOL     OW 9547   2.712   0.798   5.547
 3034SOL    HW1 9548   2.708   0.874   5.612
 3034SOL    HW2 9549   2.734   0.834   5.456
 3035SOL     OW 9550   2.547   1.012   4.389
 3035SOL    HW1 9551   2.616   0.996   4.459
 3035SOL    HW2 9552   2.474   1.069   4.427
 3036SOL     OW 9553   2.548   1.161   5.527
 3036SOL    HW1 9554   2.608   1.240   5.541
 3036SOL    HW2 9555   2.462   1.192   5.486
 3037SOL     OW 9556   2.197   1.435   4.785
 3037SOL    HW1 9557   2.119   1.404   4.732
 3037SOL    HW2 9558   2.255   1.493   4.728
 3038SOL     OW 9559   3.322   1.505   5.063
 3038SOL    HW1 9560   3.346   1.599   5.089
 3038SOL    HW2 9561   3.306   1.451   5.145
 3039SOL     OW 9562   2.300   0.392   5.223
 3039SOL    HW1 9563   2.382   0.336   5.232
 3039SOL    HW2 9564   2.219   0.334   5.227
 3040SOL     OW 9565   3.465   0.447   4.461
 3040SOL    HW1 9566   3.391   0.493   4.411
 3040SOL    HW2 9567   3.516   0.515   4.514
 3041SOL     OW 9568   2.093   1.713   4.207
 3041SOL    HW1 9569   2.127   1.790   4.261
 3041SOL    HW2 9570   2.137   1.713   4.117
 3042SOL     OW 9571   2.989   1.341   5.414
 3042SOL    HW1 9572   3.036   1.341   5.502
 3042SOL    HW2 9573   2.941   1.254   5.403
 3043SOL     OW 9574   2.092   1.434   4.262
 3043SOL    HW1 9575   2.066   1.530   4.262
 3043SOL    HW2 9576   2.021   1.380   4.307
 3044SOL     OW 9577   2.102   1.091   4.610
 3044SOL    HW1 9578   2.116   1.007   4.662
 3044SOL    HW2 9579   2.047   1.155   4.665
 3045SOL     OW 9580   2.482   1.786   5.163
 3045SOL    HW1 9581   2.390   1.769   5.198
 3045SOL    HW2 9582   2.510   1.878   5.189
 3046SOL     OW 9583   2.468   0.964   3.847
 3046SOL    HW1 9584   2.475   1.048   3.793
 3046SOL    HW2 9585   2.514   0.977   3.935
 3047SOL     OW 9586   3.456   0.114   5.204
 3047SOL    HW1 9587   3.438   0.181   5.132
 3047SOL    HW2 9588   3.453   0.160   5.293
 3048SOL     OW 9589   1.984   0.643   4.287
 3048SOL    HW1 9590   1.939   0.555   4.304
 3048SOL    HW2 9591   1.983   0.697   4.371
 3049SOL     OW 9592   3.704   1.767   4.083
 3049SOL    HW1 9593   3.758   1.738   4.163
 3049SOL    HW2 9594   3.734   1.857   4.054
 3050SOL     OW 9595   1.889   1.596   3.841
 3050SOL    HW1 9596   1.870   1.500   3.862
 3050SOL    HW2 9597   1.856   1.654   3.916
 3051SOL     OW 9598   3.551   0.922   4.336
 3051SOL    HW1 9599   3.646   0.893   4.344
 3051SOL    HW2 9600   3.543   0.987   4.261
 3052SOL     OW 9601   3.503   1.108   4.156
 3052SOL    HW1 9602   3.589   1.110   4.104
 3052SOL    HW2 9603   3.517   1.155   4.244
 3053SOL     OW 9604   1.975   0.737   5.321
 3053SOL    HW1 9605   2.063   0.724   5.366
 3053SOL    HW2 9606   1.962   0.834   5.299
 3054SOL     OW 9607   2.475   1.365   4.450
 3054SOL    HW1 9608   2.426   1.278   4.459
 3054SOL    HW2 9609   2.452   1.408   4.363
 3055SOL     OW 9610   3.155   1.228   5.147
 3055SOL    HW1 9611   3.192   1.155   5.089
 3055SOL    HW2 9612   3.207   1.233   5.232
 3056SOL     OW 9613   2.671   0.004   4.226
 3056SOL    HW1 9614   2.711   0.095   4.217
 3056SOL    HW2 9615   2.571   0.012   4.232
 3057SOL     OW 9616   2.059   0.976   4.988
 3057SOL    HW1 9617   2.148   0.931   4.974
 3057SOL    HW2 9618   1.986   0.911   4.969
 3058SOL     OW 9619   3.387   0.999   3.914
 3058SOL    HW1 9620   3.324   0.923   3.927
 3058SOL    HW2 9621   3.435   1.017   4.000
 3059SOL     OW 9622   3.049   1.792   5.340
 3059SOL    HW1 9623   3.073   1.852   5.264
 3059SOL    HW2 9624   3.056   1.697   5.310
 3060SOL     OW 9625   2.179   0.251   5.525
 3060SOL    HW1 9626   2.250   0.322   5.531
 3060SOL    HW2 9627   2.091   0.290   5.553
 3061SOL     OW 9628   3.328   1.417   4.677
 3061SOL    HW1 9629   3.269   1.423   4.757
 3061SOL    HW2 9630   3.313   1.329   4.631
 3062SOL     OW 9631   3.529   1.714   4.296
 3062SOL    HW1 9632   3.488   1.691   4.208
 3062SOL    HW2 9633   3.511   1.640   4.361
 3063SOL     OW 9634   2.460   0.729   3.994
 3063SOL    HW1 9635   2.484   0.798   3.926
 3063SOL    HW2 9636   2.382   0.762   4.048
 3064SOL     OW 9637   3.143   0.345   4.668
 3064SOL    HW1 9638   3.057   0.295   4.655
 3064SOL    HW2 9639   3.205   0.291   4.724
 3065SOL     OW 9640   3.438   1.662   4.031
 3065SOL    HW1 9641   3.527   1.708   4.034
 3065SOL    HW2 9642   3.417   1.638   3.936
 3066SOL     OW 9643   2.669   0.605   5.189
 3066SOL    HW1 9644   2.622   0.602   5.278
 3066SOL    HW2 9645   2.618   0.550   5.123
 3067SOL     OW 9646   3.256   0.469   5.398
 3067SOL    HW1 9647   3.236   0.512   5.486
 3067SOL    HW2 9648   3.334   0.407   5.407
 3068SOL     OW 9649   2.835   0.890   5.296
 3068SOL    HW1 9650   2.881   0.806   5.267
 3068SOL    HW2 9651   2.779   0.924   5.221
 3069SOL     OW 9652   2.853   0.410   4.966
 3069SOL    HW1 9653   2.776   0.444   5.020
 3069SOL    HW2 9654   2.819   0.359   4.887
 3070SOL     OW 9655   2.903   0.701   4.153
 3070SOL    HW1 9656   2.929   0.697   4.249
 3070SOL    HW2 9657   2.818   0.650   4.139
 3071SOL     OW 9658   1.938   0.811   4.513
 3071SOL    HW1 9659   2.037   0.799   4.522
 3071SOL    HW2 9660   1.914   0.906   4.534
 3072SOL     OW 9661   1.992   1.821   5.295
 3072SOL    HW1 9662   1.982   1.806   5.394
 3072SOL    HW2 9663   1.906   1.857   5.259
 3073SOL     OW 9664   2.727   0.348   3.919
 3073SOL    HW1 9665   2.786   0.411   3.870
 3073SOL    HW2 9666   2.746   0.254   3.890
 3074SOL     OW 9667   3.581   0.585   5.555
 3074SOL    HW1 9668   3.555   0.674   5.519
 3074SOL    HW2 9669   3.579   0.517   5.482
 3075SOL     OW 9670   3.224   1.144   4.269
 3075SOL    HW1 9671   3.307   1.115   4.221
 3075SOL    HW2 9672   3.175   1.211   4.213
 3076SOL     OW 9673   2.412   0.196   4.609
 3076SOL    HW1 9674   2.407   0.191   4.709
 3076SOL    HW2 9675   2.414   0.292   4.580
 3077SOL     OW 9676   2.870   1.456   4.201
 3077SOL    HW1 9677   2.824   1.528   4.149
 3077SOL    HW2 9678   2.866   1.476   4.299
 3078SOL     OW 9679   2.213   1.801   4.577
 3078SOL    HW1 9680   2.263   1.715   4.583
 3078SOL    HW2 9681   2.278   1.878   4.574
 3079SOL     OW 9682   3.657   1.066   4.597
 3079SOL    HW1 9683   3.595   1.051   4.521
 3079SOL    HW2 9684   3.605   1.077   4.682
 3080SOL     OW 9685   3.089   1.550   5.230
 3080SOL    HW1 9686   3.095   1.473   5.294
 3080SOL    HW2 9687   3.037   1.524   5.150
 3081SOL     OW 9688   2.183   0.943   3.966
 3081SOL    HW1 9689   2.265   0.982   3.924
 3081SOL    HW2 9690   2.156   0.861   3.917
 3082SOL     OW 9691   3.320   0.735   4.452
 3082SOL    HW1 9692   3.315   0.670   4.527
 3082SOL    HW2 9693   3.400   0.794   4.465
 3083SOL     OW 9694   2.323   1.266   5.451
 3083SOL    HW1 9695   2.273   1.267   5.365
 3083SOL    HW2 9696   2.260   1.248   5.527
 3084SOL     OW 9697   2.064   0.285   5.222
 3084SOL    HW1 9698   1.984   0.345   5.209
 3084SOL    HW2 9699   2.054   0.236   5.308
 3085SOL     OW 9700   3.494   1.377   3.805
 3085SOL    HW1 9701   3.462   1.471   3.795
 3085SOL    HW2 9702   3.418   1.314   3.793
 3086SOL     OW 9703   2.326   1.743   4.047
 3086SOL    HW1 9704   2.359   1.782   4.133
 3086SOL    HW2 9705   2.402   1.736   3.982
 3087SOL     OW 9706   3.262   0.107   4.150
 3087SOL    HW1 9707   3.238   0.070   4.060
 3087SOL    HW2 9708   3.361   0.123   4.154
 3088SOL     OW 9709   2.111   1.785   4.965
 3088SOL    HW1 9710   2.168   1.720   5.015
 3088SOL    HW2 9711   2.095   1.752   4.872
 3089SOL     OW 9712   2.802   1.698   4.628
 3089SOL    HW1 9713   2.882   1.641   4.649
 3089SOL    HW2 9714   2.753   1.658   4.551
 3090SOL     OW 9715   2.244   0.700   4.204
 3090SOL    HW1 9716   2.289   0.610   4.201
 3090SOL    HW2 9717   2.150   0.689   4.237
 3091SOL     OW 9718   3.409   0.222   5.453
 3091SOL    HW1 9719   3.404   0.259   5.545
 3091SOL    HW2 9720   3.337   0.153   5.441
 3092SOL     OW 9721   2.476   0.122   3.841
 3092SOL    HW1 9722   2.574   0.100   3.848
 3092SOL    HW2 9723   2.445   0.105   3.748
 3093SOL     OW 9724   2.643   0.264   5.473
 3093SOL    HW1 9725   2.710   0.203   5.516
 3093SOL    HW2 9726   2.570   0.283   5.538
 3094SOL     OW 9727   2.750   1.514   4.919
 3094SOL    HW1 9728   2.727   1.489   4.825
 3094SOL    HW2 9729   2.811   1.445   4.958
 3095SOL     OW 9730   3.213   0.590   5.157
 3095SOL    HW1 9731   3.241   0.547   5.242
 3095SOL    HW2 9732   3.238   0.686   5.158
 3096SOL     OW 9733   2.665   1.402   4.648
 3096SOL    HW1 9734   2.755   1.416   4.606
 3096SOL    HW2 9735   2.594   1.404   4.577
 3097SOL     OW 9736   2.784   0.503   4.623
 3097SOL    HW1 9737   2.759   0.494   4.527
 3097SOL    HW2 9738   2.832   0.421   4.654
 3098SOL     OW 9739   2.401   0.064   4.236
 3098SOL    HW1 9740   2.320   0.065   4.294
 3098SOL    HW2 9741   2.404   0.147   4.181
 3099SOL     OW 9742   3.296   1.188   3.765
 3099SOL    HW1 9743   3.328   1.112   3.822
 3099SOL    HW2 9744   3.204   1.215   3.795
 3100SOL     OW 9745   2.159   0.035   3.895
 3100SOL    HW1 9746   2.208   0.119   3.874
 3100SOL    HW2 9747   2.221  -0.030   3.940
 3101SOL     OW 9748   2.797   0.236   4.204
 3101SOL    HW1 9749   2.749   0.277   4.126
 3101SOL    HW2 9750   2.896   0.234   4.185
 3102SOL     OW 9751   2.938   0.683   5.188
 3102SOL    HW1 9752   2.858   0.622   5.191
 3102SOL    HW2 9753   3.019   0.630   5.164
 3103SOL     OW 9754   3.089   1.570   4.517
 3103SOL    HW1 9755   3.110   1.644   4.452
 3103SOL    HW2 9756   3.157   1.570   4.590
 3104SOL     OW 9757   2.321   1.152   4.465
 3104SOL    HW1 9758   2.250   1.125   4.530
 3104SOL    HW2 9759   2.295   1.124   4.372
 3105SOL     OW 9760   3.133   1.797   4.315
 3105SOL    HW1 9761   3.177   1.861   4.251
 3105SOL    HW2 9762   3.083   1.849   4.385
 3106SOL     OW 9763   2.894   0.549   3.740
 3106SOL    HW1 9764   2.853   0.631   3.701
 3106SOL    HW2 9765   2.958   0.575   3.813
 3107SOL     OW 9766   1.940   0.556   5.110
 3107SOL    HW1 9767   2.032   0.555   5.069
 3107SOL    HW2 9768   1.934   0.630   5.177
 3108SOL     OW 9769   2.423   0.222   4.871
 3108SOL    HW1 9770   2.461   0.138   4.908
 3108SOL    HW2 9771   2.335   0.241   4.915
 3109SOL     OW 9772   2.728   0.454   4.366
 3109SOL    HW1 9773   2.696   0.526   4.304
 3109SOL    HW2 9774   2.752   0.373   4.313
 3110SOL     OW 9775   2.879   0.039   4.477
 3110SOL    HW1 9776   2.807   0.044   4.408
 3110SOL    HW2 9777   2.855  -0.030   4.546
 3111SOL     OW 9778   3.291   1.173   4.591
 3111SOL    HW1 9779   3.236   1.089   4.584
 3111SOL    HW2 9780   3.317   1.202   4.499
 3112SOL     OW 9781   3.328   0.590   4.716
 3112SOL    HW1 9782   3.298   0.495   4.723
 3112SOL    HW2 9783   3.401   0.606   4.782
 3113SOL     OW 9784   3.719   0.833   4.101
 3113SOL    HW1 9785   3.761   0.769   4.165
 3113SOL    HW2 9786   3.681   0.782   4.023
 3114SOL     OW 9787   2.350   1.385   3.898
 3114SOL    HW1 9788   2.263   1.370   3.945
 3114SOL    HW2 9789   2.333   1.411   3.803
 3115SOL     OW 9790   3.526   1.280   4.381
 3115SOL    HW1 9791   3.625   1.288   4.395
 3115SOL    HW2 9792   3.481   1.364   4.412
 3116SOL     OW 9793   3.252   0.575   3.802
 3116SOL    HW1 9794   3.198   0.554   3.883
 3116SOL    HW2 9795   3.343   0.534   3.811
 3117SOL     OW 9796   2.389   0.256   4.052
 3117SOL    HW1 9797   2.416   0.197   3.977
 3117SOL    HW2 9798   2.389   0.351   4.021
 3118SOL     OW 9799   3.616   1.223   5.312
 3118SOL    HW1 9800   3.707   1.184   5.299
 3118SOL    HW2 9801   3.624   1.319   5.336
 3119SOL     OW 9802   2.926   1.347   5.064
 3119SOL    HW1 9803   2.846   1.324   5.119
 3119SOL    HW2 9804   3.009   1.321   5.113
 3120SOL     OW 9805   3.454   1.629   5.349
 3120SOL    HW1 9806   3.481   1.663   5.259
 3120SOL    HW2 9807   3.533   1.591   5.395
 3121SOL     OW 9808   2.973   1.195   4.824
 3121SOL    HW1 9809   2.933   1.239   4.905
 3121SOL    HW2 9810   2.932   1.232   4.741
 3122SOL     OW 9811   3.500   1.099   4.803
 3122SOL    HW1 9812   3.505   1.180   4.862
 3122SOL    HW2 9813   3.414   1.101   4.752
 3123SOL     OW 9814   2.777   0.089   5.126
 3123SOL    HW1 9815   2.802   0.069   5.031
 3123SOL    HW2 9816   2.849   0.145   5.168
 3124SOL     OW 9817   2.842   1.116   5.443
 3124SOL    HW1 9818   2.743   1.122   5.453
 3124SOL    HW2 9819   2.865   1.036   5.387
 3125SOL     OW 9820   2.567   1.050   4.092
 3125SOL    HW1 9821   2.553   1.057   4.191
 3125SOL    HW2 9822   2.651   0.999   4.074
 3126SOL     OW 9823   2.272   0.813   4.975
 3126SOL    HW1 9824   2.358   0.825   5.025
 3126SOL    HW2 9825   2.230   0.726   5.002
 3127SOL     OW 9826   3.136   0.386   4.986
 3127SOL    HW1 9827   3.157   0.460   5.050
 3127SOL    HW2 9828   3.047   0.403   4.943
 3128SOL     OW 9829   1.926   1.564   5.055
 3128SOL    HW1 9830   1.880   1.646   5.021
 3128SOL    HW2 9831   2.024   1.583   5.064
 3129SOL     OW 9832   2.229   1.100   4.225
 3129SOL    HW1 9833   2.222   1.183   4.169
 3129SOL    HW2 9834   2.233   1.020   4.165
 3130SOL     OW 9835   2.428   0.537   4.589
 3130SOL    HW1 9836   2.440   0.603   4.515
 3130SOL    HW2 9837   2.474   0.571   4.672
 3131SOL     OW 9838   3.114   1.348   4.112
 3131SOL    HW1 9839   3.164   1.425   4.152
 3131SOL    HW2 9840   3.019   1.350   4.144
 3132SOL     OW 9841   3.134   1.445   4.866
 3132SOL    HW1 9842   3.181   1.458   4.953
 3132SOL    HW2 9843   3.068   1.371   4.875
 3133SOL     OW 9844   3.444   0.639   4.196
 3133SOL    HW1 9845   3.413   0.700   4.269
 3133SOL    HW2 9846   3.494   0.691   4.127
 3134SOL     OW 9847   2.216   1.510   5.053
 3134SOL    HW1 9848   2.195   1.466   4.966
 3134SOL    HW2 9849   2.313   1.536   5.056
 3135SOL     OW 9850   2.264   0.751   5.322
 3135SOL    HW1 9851   2.332   0.806   5.275
 3135SOL    HW2 9852   2.304   0.663   5.349
 3136SOL     OW 9853   3.449   0.779   5.394
 3136SOL    HW1 9854   3.357   0.817   5.389
 3136SOL    HW2 9855   3.509   0.826   5.329
 3137SOL     OW 9856   2.875   0.105   5.494
 3137SOL    HW1 9857   2.881   0.190   5.442
 3137SOL    HW2 9858   2.907   0.029   5.437
 3138SOL     OW 9859   2.366   0.050   5.464
 3138SOL    HW1 9860   2.324  -0.007   5.394
 3138SOL    HW2 9861   2.300   0.119   5.496
 3139SOL     OW 9862   2.435   0.870   4.753
 3139SOL    HW1 9863   2.479   0.959   4.744
 3139SOL    HW2 9864   2.372   0.870   4.830
 3140SOL     OW 9865   3.222   0.862   4.769
 3140SOL    HW1 9866   3.147   0.862   4.703
 3140SOL    HW2 9867   3.259   0.770   4.778
 3141SOL     OW 9868   3.071   0.525   3.999
 3141SOL    HW1 9869   3.084   0.441   4.053
 3141SOL    HW2 9870   3.042   0.599   4.059
 3142SOL     OW 9871   2.169   0.213   4.955
 3142SOL    HW1 9872   2.146   0.250   5.045
 3142SOL    HW2 9873   2.139   0.118   4.949
 3143SOL     OW 9874   1.899   1.310   5.006
 3143SOL    HW1 9875   1.952   1.261   5.074
 3143SOL    HW2 9876   1.921   1.408   5.011
 3144SOL     OW 9877   2.594   0.634   4.788
 3144SOL    HW1 9878   2.653   0.608   4.712
 3144SOL    HW2 9879   2.566   0.730   4.777
 3145SOL     OW 9880   3.590   0.935   5.578
 3145SOL    HW1 9881   3.544   0.928   5.489
 3145SOL    HW2 9882   3.528   0.979   5.644
 3146SOL     OW 9883   2.169   0.063   4.342
 3146SOL    HW1 9884   2.158   0.157   4.375
 3146SOL    HW2 9885   2.164   0.000   4.419
 3147SOL     OW 9886   3.484   0.367   4.098
 3147SOL    HW1 9887   3.486   0.291   4.162
 3147SOL    HW2 9888   3.436   0.444   4.138
 3148SOL     OW 9889   2.885   0.766   4.690
 3148SOL    HW1 9890   2.900   0.787   4.786
 3148SOL    HW2 9891   2.855   0.671   4.681
 3149SOL     OW 9892   2.842   1.573   5.424
 3149SOL    HW1 9893   2.822   1.617   5.336
 3149SOL    HW2 9894   2.881   1.482   5.408
 3150SOL     OW 9895   3.721   1.518   5.329
 3150SOL    HW1 9896   3.735   1.545   5.234
 3150SOL    HW2 9897   3.804   1.540   5.382
 3151SOL     OW 9898   2.212   0.898   5.528
 3151SOL    HW1 9899   2.288   0.942   5.576
 3151SOL    HW2 9900   2.247   0.851   5.446
 3152SOL     OW 9901   3.402   0.274   3.849
 3152SOL    HW1 9902   3.341   0.199   3.872
 3152SOL    HW2 9903   3.424   0.326   3.932
 3153SOL     OW 9904   3.165   0.838   3.766
 3153SOL    HW1 9905   3.199   0.745   3.781
 3153SOL    HW2 9906   3.183   0.865   3.671
 3154SOL     OW 9907   2.930   1.333   4.573
 3154SOL    HW1 9908   2.937   1.249   4.518
 3154SOL    HW2 9909   2.992   1.402   4.537
 3155SOL     OW 9910   2.181   0.810   4.673
 3155SOL    HW1 9911   2.274   0.846   4.678
 3155SOL    HW2 9912   2.175   0.725   4.725
 3156SOL     OW 9913   2.201   0.509   4.730
 3156SOL    HW1 9914   2.149   0.426   4.713
 3156SOL    HW2 9915   2.278   0.514   4.666
 3157SOL     OW 9916   3.000   0.380   5.402
 3157SOL    HW1 9917   2.955   0.443   5.466
 3157SOL    HW2 9918   3.093   0.411   5.385
 3158SOL     OW 9919   3.022   0.207   5.201
 3158SOL    HW1 9920   3.022   0.271   5.278
 3158SOL    HW2 9921   3.050   0.255   5.118
 3159SOL     OW 9922   1.870   1.326   3.924
 3159SOL    HW1 9923   1.777   1.347   3.893
 3159SOL    HW2 9924   1.880   1.227   3.937
 3160SOL     OW 9925   1.950   1.801   4.651
 3160SOL    HW1 9926   1.908   1.715   4.624
 3160SOL    HW2 9927   2.044   1.804   4.617
 3161SOL     OW 9928   2.366   1.568   4.634
 3161SOL    HW1 9929   2.432   1.642   4.643
 3161SOL    HW2 9930   2.410   1.489   4.592
 3162SOL     OW 9931   2.864   0.796   4.962
 3162SOL    HW1 9932   2.905   0.764   5.048
 3162SOL    HW2 9933   2.768   0.769   4.959
 3163SOL     OW 9934   1.902   0.544   4.838
 3163SOL    HW1 9935   1.987   0.511   4.797
 3163SOL    HW2 9936   1.915   0.559   4.936
 3164SOL     OW 9937   2.051   0.520   5.446
 3164SOL    HW1 9938   2.110   0.480   5.376
 3164SOL    HW2 9939   1.993   0.591   5.405
 3165SOL     OW 9940   3.231   0.950   5.384
 3165SOL    HW1 9941   3.270   1.039   5.404
 3165SOL    HW2 9942   3.241   0.930   5.287
 3166SOL     OW 9943   2.677   0.572   4.049
 3166SOL    HW1 9944   2.684   0.483   4.003
 3166SOL    HW2 9945   2.583   0.606   4.041
 3167SOL     OW 9946   3.519   0.604   4.930
 3167SOL    HW1 9947   3.481   0.535   4.992
 3167SOL    HW2 9948   3.601   0.568   4.886
 3168SOL     OW 9949   2.114   1.564   5.468
 3168SOL    HW1 9950   2.084   1.621   5.544
 3168SOL    HW2 9951   2.107   1.467   5.494
 3169SOL     OW 9952   2.533   0.464   4.993
 3169SOL    HW1 9953   2.499   0.375   4.963
 3169SOL    HW2 9954   2.559   0.518   4.913
 3170SOL     OW 9955   2.792   1.678   5.189
 3170SOL    HW1 9956   2.768   1.660   5.094
 3170SOL    HW2 9957   2.822   1.772   5.199
 3171SOL     OW 9958   2.335   0.500   3.915
 3171SOL    HW1 9959   2.396   0.580   3.919
 3171SOL    HW2 9960   2.240   0.531   3.922
 3172SOL     OW 9961   2.021   1.137   5.190
 3172SOL    HW1 9962   2.043   1.076   5.266
 3172SOL    HW2 9963   2.031   1.088   5.104
 3173SOL     OW 9964   3.209   1.059   4.958
 3173SOL    HW1 9965   3.233   0.996   4.884
 3173SOL    HW2 9966   3.119   1.099   4.940
 3174SOL     OW 9967   3.164   0.855   4.033
 3174SOL    HW1 9968   3.078   0.824   4.075
 3174SOL    HW2 9969   3.160   0.841   3.934
 3175SOL     OW 9970   3.621   1.747   4.878
 3175SOL    HW1 9971   3.682   1.777   4.805
 3175SOL    HW2 9972   3.583   1.658   4.856
 3176SOL     OW 9973   3.114   1.731   4.852
 3176SOL    HW1 9974   3.198   1.736   4.798
 3176SOL    HW2 9975   3.091   1.635   4.870
 3177SOL     OW 9976   1.945   1.258   4.746
 3177SOL    HW1 9977   1.940   1.257   4.846
 3177SOL    HW2 9978   1.862   1.217   4.708
 3178SOL     OW 9979   2.550   1.662   5.440
 3178SOL    HW1 9980   2.494   1.743   5.449
 3178SOL    HW2 9981   2.602   1.666   5.354
 3179SOL     OW 9982   3.588   0.135   4.247
 3179SOL    HW1 9983   3.661   0.118   4.180
 3179SOL    HW2 9984   3.557   0.048   4.285
 3180SOL     OW 9985   3.250   1.573   4.201
 3180SOL    HW1 9986   3.317   1.585   4.127
 3180SOL    HW2 9987   3.210   1.662   4.224
 3181SOL     OW 9988   1.992   1.794   5.575
 3181SOL    HW1 9989   1.951   1.720   5.628
 3181SOL    HW2 9990   2.056   1.845   5.633
 3182SOL     OW 9991   3.142   0.927   4.396
 3182SOL    HW1 9992   3.202   0.846   4.398
 3182SOL    HW2 9993   3.182   0.996   4.336
 3183SOL     OW 9994   2.692   1.273   5.146
 3183SOL    HW1 9995   2.687   1.306   5.241
 3183SOL    HW2 9996   2.606   1.292   5.100
 3184SOL     OW 9997   2.534   1.616   3.878
 3184SOL    HW1 9998   2.543   1.626   3.779
 3184SOL    HW2 9999   2.494   1.527   3.899
 3185SOL     OW10000   3.512   1.720   5.118
 3185SOL    HW110001   3.565   1.730   5.034
 3185SOL    HW210002   3.485   1.810   5.152
 3186SOL     OW10003   3.703   0.175   4.687
 3186SOL    HW110004   3.742   0.090   4.651
 3186SOL    HW210005   3.605   0.177   4.668
 3187SOL     OW10006   2.125   0.326   4.444
 3187SOL    HW110007   2.046   0.377   4.410
 3187SOL    HW210008   2.116   0.311   4.542
 3188SOL     OW10009   3.056   1.612   3.755
 3188SOL    HW110010   3.062   1.519   3.792
 3188SOL    HW210011   2.997   1.612   3.675
 3189SOL     OW10012   2.684   1.002   5.096
 3189SOL    HW110013   2.724   1.001   5.004
 3189SOL    HW210014   2.694   1.094   5.136
 3190SOL     OW10015   2.778   0.910   4.015
 3190SOL    HW110016   2.841   0.948   3.947
 3190SOL    HW210017   2.818   0.827   4.054
 3191SOL     OW10018   3.366   1.607   3.768
 3191SOL    HW110019   3.274   1.644   3.775
 3191SOL    HW210020   3.404   1.627   3.678
 3192SOL     OW10021   2.234   1.288   5.214
 3192SOL    HW110022   2.221   1.381   5.180
 3192SOL    HW210023   2.150   1.236   5.201
 3193SOL     OW10024   3.476   1.292   5.013
 3193SOL    HW110025   3.536   1.295   5.093
 3193SOL    HW210026   3.401   1.356   5.026
 3194SOL     OW10027   2.901   1.098   4.420
 3194SOL    HW110028   2.831   1.051   4.474
 3194SOL    HW210029   2.960   1.030   4.377
 3195SOL     OW10030   2.876   0.236   4.695
 3195SOL    HW110031   2.868   0.200   4.602
 3195SOL    HW210032   2.874   0.160   4.760
 3196SOL     OW10033   2.452   1.487   4.215
 3196SOL    HW110034   2.494   1.429   4.145
 3196SOL    HW210035   2.408   1.566   4.171
 3197SOL     OW10036   3.571   0.385   5.105
 3197SOL    HW110037   3.644   0.454   5.109
 3197SOL    HW210038   3.599   0.310   5.046
 3198SOL     OW10039   2.117   1.348   4.014
 3198SOL    HW110040   2.021   1.349   3.987
 3198SOL    HW210041   2.129   1.401   4.098
 3199SOL     OW10042   1.967   1.013   5.450
 3199SOL    HW110043   1.890   0.980   5.504
 3199SOL    HW210044   2.052   0.983   5.492
 3200SOL     OW10045   2.534   0.203   5.213
 3200SOL    HW110046   2.624   0.187   5.173
 3200SOL    HW210047   2.542   0.208   5.312
 3201SOL     OW10048   1.937   0.345   3.757
 3201SOL    HW110049   1.845   0.317   3.728
 3201SOL    HW210050   1.968   0.422   3.701
 3202SOL     OW10051   3.302   0.856   5.122
 3202SOL    HW110052   3.245   0.908   5.059
 3202SOL    HW210053   3.398   0.868   5.098
 3203SOL     OW10054   1.934   0.166   4.042
 3203SOL    HW110055   1.917   0.249   3.988
 3203SOL    HW210056   2.024   0.129   4.020
 3204SOL     OW10057   3.045   1.335   3.843
 3204SOL    HW110058   2.946   1.324   3.845
 3204SOL    HW210059   3.079   1.350   3.936
 3205SOL     OW10060   2.475   0.842   5.155
 3205SOL    HW110061   2.531   0.923   5.138
 3205SOL    HW210062   2.534   0.762   5.158
 3206SOL     OW10063   3.355   1.767   4.683
 3206SOL    HW110064   3.388   1.831   4.614
 3206SOL    HW210065   3.421   1.761   4.758
 3207SOL     OW10066   2.578   0.565   5.432
 3207SOL    HW110067   2.597   0.630   5.506
 3207SOL    HW210068   2.638   0.485   5.441
 3208SOL     OW10069   3.312   1.220   5.357
 3208SOL    HW110070   3.303   1.210   5.456
 3208SOL    HW210071   3.408   1.213   5.331
 3209SOL     OW10072   2.252   1.741   5.284
 3209SOL    HW110073   2.161   1.782   5.282
 3209SOL    HW210074   2.245   1.647   5.316
 3210SOL     OW10075   3.536   0.883   4.978
 3210SOL    HW110076   3.509   0.794   4.941
 3210SOL    HW210077   3.537   0.951   4.905
 3211SOL     OW10078   3.087   0.325   4.173
 3211SOL    HW110079   3.152   0.251   4.162
 3211SOL    HW210080   3.107   0.375   4.257
 3212SOL     OW10081   2.456   0.745   4.376
 3212SOL    HW110082   2.506   0.830   4.357
 3212SOL    HW210083   2.368   0.747   4.328
 3213SOL     OW10084   3.639   0.342   5.366
 3213SOL    HW110085   3.622   0.373   5.272
 3213SOL    HW210086   3.555   0.305   5.404
 3214SOL     OW10087   3.592   0.934   5.241
 3214SOL    HW110088   3.630   1.025   5.256
 3214SOL    HW210089   3.584   0.917   5.142
 3215SOL     OW10090   2.721   1.374   3.740
 3215SOL    HW110091   2.675   1.389   3.828
 3215SOL    HW210092   2.765   1.459   3.710
 3216SOL     OW10093   2.523   1.790   4.677
 3216SOL    HW110094   2.477   1.878   4.664
 3216SOL    HW210095   2.622   1.802   4.670
 3217SOL     OW10096   2.721   0.956   4.585
 3217SOL    HW110097   2.775   0.887   4.633
 3217SOL    HW210098   2.689   1.025   4.651
 3218SOL     OW10099   2.945   0.984   3.811
 3218SOL    HW110100   2.922   1.037   3.729
 3218SOL    HW210101   3.026   0.928   3.792
 3219SOL     OW10102   3.723   1.569   4.575
 3219SOL    HW110103   3.652   1.557   4.505
 3219SOL    HW210104   3.724   1.490   4.635
 3220SOL     OW10105   2.083   1.314   5.568
 3220SOL    HW110106   2.018   1.241   5.547
 3220SOL    HW210107   2.087   1.328   5.666
 3221SOL     OW10108   1.941   1.240   4.377
 3221SOL    HW110109   1.940   1.193   4.465
 3221SOL    HW210110   2.023   1.212   4.326
 3222SOL     OW10111   2.534   1.391   5.348
 3222SOL    HW110112   2.456   1.341   5.386
 3222SOL    HW210113   2.531   1.486   5.379
 3223SOL     OW10114   3.686   0.192   4.951
 3223SOL    HW110115   3.682   0.102   4.995
 3223SOL    HW210116   3.689   0.181   4.852
 3224SOL     OW10117   2.290   0.424   4.244
 3224SOL    HW110118   2.320   0.352   4.182
 3224SOL    HW210119   2.251   0.384   4.327
 3225SOL     OW10120   3.567   1.487   4.828
 3225SOL    HW110121   3.474   1.462   4.801
 3225SOL    HW210122   3.593   1.437   4.910
 3226SOL     OW10123   2.179   0.547   5.004
 3226SOL    HW110124   2.217   0.488   5.076
 3226SOL    HW210125   2.219   0.521   4.916
 3227SOL     OW10126   2.674   1.586   4.411
 3227SOL    HW110127   2.706   1.596   4.317
 3227SOL    HW210128   2.595   1.524   4.413
 3228SOL     OW10129   3.286   0.214   4.836
 3228SOL    HW110130   3.338   0.149   4.891
 3228SOL    HW210131   3.237   0.277   4.897
 3229SOL     OW10132   2.863   0.034   4.878
 3229SOL    HW110133   2.800  -0.038   4.847
 3229SOL    HW210134   2.956  -0.002   4.878
 3230SOL     OW10135   2.632   1.330   4.025
 3230SOL    HW110136   2.586   1.243   4.042
 3230SOL    HW210137   2.723   1.327   4.066
 3231SOL     OW10138   2.480   1.567   5.008
 3231SOL    HW110139   2.475   1.649   5.065
 3231SOL    HW210140   2.569   1.564   4.963
 3232SOL     OW10141   3.214   0.052   3.892
 3232SOL    HW110142   3.249   0.011   3.808
 3232SOL    HW210143   3.124   0.014   3.912
 3233SOL     OW10144   3.162   0.453   4.415
 3233SOL    HW110145   3.103   0.533   4.419
 3233SOL    HW210146   3.177   0.418   4.508
 3234SOL     OW10147   3.455   0.221   4.606
 3234SOL    HW110148   3.371   0.220   4.660
 3234SOL    HW210149   3.457   0.304   4.550
 3235SOL     OW10150   1.901   1.077   4.024
 3235SOL    HW110151   2.000   1.066   4.015
 3235SOL    HW210152   1.861   0.991   4.056
 3236SOL     OW10153   2.737   1.646   4.061
 3236SOL    HW110154   2.660   1.611   4.007
 3236SOL    HW210155   2.705   1.717   4.123
 3237SOL     OW10156   2.092   0.628   5.699
 3237SOL    HW110157   1.999   0.626   5.736
 3237SOL    HW210158   2.093   0.589   5.607
 3238SOL     OW10159   2.087   0.275   6.582
 3238SOL    HW110160   2.122   0.258   6.674
 3238SOL    HW210161   1.999   0.230   6.570
 3239SOL     OW10162   1.881   0.368   6.233
 3239SOL    HW110163   1.799   0.411   6.272
 3239SOL    HW210164   1.853   0.295   6.170
 3240SOL     OW10165   2.431   1.275   6.751
 3240SOL    HW110166   2.338   1.268   6.714
 3240SOL    HW210167   2.442   1.364   6.795
 3241SOL     OW10168   3.417   1.511   6.289
 3241SOL    HW110169   3.360   1.495   6.370
 3241SOL    HW210170   3.358   1.521   6.209
 3242SOL     OW10171   2.997   0.703   6.303
 3242SOL    HW110172   3.054   0.781   6.278
 3242SOL    HW210173   2.937   0.729   6.379
 3243SOL     OW10174   3.617   0.607   5.817
 3243SOL    HW110175   3.605   0.594   5.718
 3243SOL    HW210176   3.587   0.526   5.866
 3244SOL     OW10177   2.630   1.144   6.609
 3244SOL    HW110178   2.552   1.161   6.669
 3244SOL    HW210179   2.664   1.231   6.573
 3245SOL     OW10180   2.712   0.798   7.409
 3245SOL    HW110181   2.708   0.874   7.474
 3245SOL    HW210182   2.734   0.834   7.318
 3246SOL     OW10183   2.547   1.012   6.251
 3246SOL    HW110184   2.616   0.996   6.321
 3246SOL    HW210185   2.474   1.069   6.289
 3247SOL     OW10186   2.548   1.161   7.389
 3247SOL    HW110187   2.608   1.240   7.403
 3247SOL    HW210188   2.462   1.192   7.348
 3248SOL     OW10189   2.197   1.435   6.647
 3248SOL    HW110190   2.119   1.404   6.594
 3248SOL    HW210191   2.255   1.493   6.590
 3249SOL     OW10192   3.322   1.505   6.925
 3249SOL    HW110193   3.346   1.599   6.951
 3249SOL    HW210194   3.306   1.451   7.007
 3250SOL     OW10195   2.300   0.392   7.085
 3250SOL    HW110196   2.382   0.336   7.094
 3250SOL    HW210197   2.219   0.334   7.089
 3251SOL     OW10198   3.465   0.447   6.323
 3251SOL    HW110199   3.391   0.493   6.273
 3251SOL    HW210200   3.516   0.515   6.376
 3252SOL     OW10201   2.093   1.713   6.069
 3252SOL    HW110202   2.127   1.790   6.123
 3252SOL    HW210203   2.137   1.713   5.979
 3253SOL     OW10204   2.989   1.341   7.276
 3253SOL    HW110205   3.036   1.341   7.364
 3253SOL    HW210206   2.941   1.254   7.265
 3254SOL     OW10207   2.092   1.434   6.124
 3254SOL    HW110208   2.066   1.530   6.124
 3254SOL    HW210209   2.021   1.380   6.169
 3255SOL     OW10210   2.102   1.091   6.472
 3255SOL    HW110211   2.116   1.007   6.524
 3255SOL    HW210212   2.047   1.155   6.527
 3256SOL     OW10213   2.482   1.786   7.025
 3256SOL    HW110214   2.390   1.769   7.060
 3256SOL    HW210215   2.510   1.878   7.051
 3257SOL     OW10216   2.468   0.964   5.709
 3257SOL    HW110217   2.475   1.048   5.655
 3257SOL    HW210218   2.514   0.977   5.797
 3258SOL     OW10219   3.456   0.114   7.066
 3258SOL    HW110220   3.438   0.181   6.994
 3258SOL    HW210221   3.453   0.160   7.155
 3259SOL     OW10222   1.984   0.643   6.149
 3259SOL    HW110223   1.939   0.555   6.166
 3259SOL    HW210224   1.983   0.697   6.233
 3260SOL     OW10225   3.704   1.767   5.945
 3260SOL    HW110226   3.758   1.738   6.025
 3260SOL    HW210227   3.734   1.857   5.916
 3261SOL     OW10228   1.889   1.596   5.703
 3261SOL    HW110229   1.870   1.500   5.724
 3261SOL    HW210230   1.856   1.654   5.778
 3262SOL     OW10231   3.551   0.922   6.198
 3262SOL    HW110232   3.646   0.893   6.206
 3262SOL    HW210233   3.543   0.987   6.123
 3263SOL     OW10234   3.503   1.108   6.018
 3263SOL    HW110235   3.589   1.110   5.966
 3263SOL    HW210236   3.517   1.155   6.106
 3264SOL     OW10237   1.975   0.737   7.183
 3264SOL    HW110238   2.063   0.724   7.228
 3264SOL    HW210239   1.962   0.834   7.161
 3265SOL     OW10240   2.475   1.365   6.312
 3265SOL    HW110241   2.426   1.278   6.321
 3265SOL    HW210242   2.452   1.408   6.225
 3266SOL     OW10243   3.155   1.228   7.009
 3266SOL    HW110244   3.192   1.155   6.951
 3266SOL    HW210245   3.207   1.233   7.094
 3267SOL     OW10246   2.671   0.004   6.088
 3267SOL    HW110247   2.711   0.095   6.079
 3267SOL    HW210248   2.571   0.012   6.094
 3268SOL     OW10249   2.059   0.976   6.850
 3268SOL    HW110250   2.148   0.931   6.836
 3268SOL    HW210251   1.986   0.911   6.831
 3269SOL     OW10252   3.387   0.999   5.776
 3269SOL    HW110253   3.324   0.923   5.789
 3269SOL    HW210254   3.435   1.017   5.862
 3270SOL     OW10255   3.049   1.792   7.202
 3270SOL    HW110256   3.073   1.852   7.126
 3270SOL    HW210257   3.056   1.697   7.172
 3271SOL     OW10258   2.179   0.251   7.387
 3271SOL    HW110259   2.250   0.322   7.393
 3271SOL    HW210260   2.091   0.290   7.415
 3272SOL     OW10261   3.328   1.417   6.539
 3272SOL    HW110262   3.269   1.423   6.619
 3272SOL    HW210263   3.313   1.329   6.493
 3273SOL     OW10264   3.529   1.714   6.158
 3273SOL    HW110265   3.488   1.691   6.070
 3273SOL    HW210266   3.511   1.640   6.223
 3274SOL     OW10267   2.460   0.729   5.856
 3274SOL    HW110268   2.484   0.798   5.788
 3274SOL    HW210269   2.382   0.762   5.910
 3275SOL     OW10270   3.143   0.345   6.530
 3275SOL    HW110271   3.057   0.295   6.517
 3275SOL    HW210272   3.205   0.291   6.586
 3276SOL     OW10273   3.438   1.662   5.893
 3276SOL    HW110274   3.527   1.708   5.896
 3276SOL    HW210275   3.417   1.638   5.798
 3277SOL     OW10276   2.669   0.605   7.051
 3277SOL    HW110277   2.622   0.602   7.140
 3277SOL    HW210278   2.618   0.550   6.985
 3278SOL     OW10279   3.256   0.469   7.260
 3278SOL    HW110280   3.236   0.512   7.348
 3278SOL    HW210281   3.334   0.407   7.269
 3279SOL     OW10282   2.835   0.890   7.158
 3279SOL    HW110283   2.881   0.806   7.129
 3279SOL    HW210284   2.779   0.924   7.083
 3280SOL     OW10285   2.853   0.410   6.828
 3280SOL    HW110286   2.776   0.444   6.882
 3280SOL    HW210287   2.819   0.359   6.749
 3281SOL     OW10288   2.903   0.701   6.015
 3281SOL    HW110289   2.929   0.697   6.111
 3281SOL    HW210290   2.818   0.650   6.001
 3282SOL     OW10291   1.938   0.811   6.375
 3282SOL    HW110292   2.037   0.799   6.384
 3282SOL    HW210293   1.914   0.906   6.396
 3283SOL     OW10294   1.992   1.821   7.157
 3283SOL    HW110295   1.982   1.806   7.256
 3283SOL    HW210296   1.906   1.857   7.121
 3284SOL     OW10297   2.727   0.348   5.781
 3284SOL    HW110298   2.786   0.411   5.732
 3284SOL    HW210299   2.746   0.254   5.752
 3285SOL     OW10300   3.581   0.585   7.417
 3285SOL    HW110301   3.555   0.674   7.381
 3285SOL    HW210302   3.579   0.517   7.344
 3286SOL     OW10303   3.224   1.144   6.131
 3286SOL    HW110304   3.307   1.115   6.083
 3286SOL    HW210305   3.175   1.211   6.075
 3287SOL     OW10306   2.412   0.196   6.471
 3287SOL    HW110307   2.407   0.191   6.571
 3287SOL    HW210308   2.414   0.292   6.442
 3288SOL     OW10309   2.870   1.456   6.063
 3288SOL    HW110310   2.824   1.528   6.011
 3288SOL    HW210311   2.866   1.476   6.161
 3289SOL     OW10312   2.213   1.801   6.439
 3289SOL    HW110313   2.263   1.715   6.445
 3289SOL    HW210314   2.278   1.878   6.436
 3290SOL     OW10315   3.657   1.066   6.459
 3290SOL    HW110316   3.595   1.051   6.383
 3290SOL    HW210317   3.605   1.077   6.544
 3291SOL     OW10318   3.089   1.550   7.092
 3291SOL    HW110319   3.095   1.473   7.156
 3291SOL    HW210320   3.037   1.524   7.012
 3292SOL     OW10321   2.183   0.943   5.828
 3292SOL    HW110322   2.265   0.982   5.786
 3292SOL    HW210323   2.156   0.861   5.779
 3293SOL     OW10324   3.320   0.735   6.314
 3293SOL    HW110325   3.315   0.670   6.389
 3293SOL    HW210326   3.400   0.794   6.327
 3294SOL     OW10327   2.323   1.266   7.313
 3294SOL    HW110328   2.273   1.267   7.227
 3294SOL    HW210329   2.260   1.248   7.389
 3295SOL     OW10330   2.973   1.776   5.823
 3295SOL    HW110331   2.913   1.714   5.873
 3295SOL    HW210332   3.004   1.732   5.738
 3296SOL     OW10333   2.064   0.285   7.084
 3296SOL    HW110334   1.984   0.345   7.071
 3296SOL    HW210335   2.054   0.236   7.170
 3297SOL     OW10336   3.494   1.377   5.667
 3297SOL    HW110337   3.462   1.471   5.657
 3297SOL    HW210338   3.418   1.314   5.655
 3298SOL     OW10339   2.326   1.743   5.909
 3298SOL    HW110340   2.359   1.782   5.995
 3298SOL    HW210341   2.402   1.736   5.844
 3299SOL     OW10342   3.262   0.107   6.012
 3299SOL    HW110343   3.238   0.070   5.922
 3299SOL    HW210344   3.361   0.123   6.016
 3300SOL     OW10345   2.111   1.785   6.827
 3300SOL    HW110346   2.168   1.720   6.877
 3300SOL    HW210347   2.095   1.752   6.734
 3301SOL     OW10348   2.802   1.698   6.490
 3301SOL    HW110349   2.882   1.641   6.511
 3301SOL    HW210350   2.753   1.658   6.413
 3302SOL     OW10351   2.244   0.700   6.066
 3302SOL    HW110352   2.289   0.610   6.063
 3302SOL    HW210353   2.150   0.689   6.099
 3303SOL     OW10354   3.409   0.222   7.315
 3303SOL    HW110355   3.404   0.259   7.407
 3303SOL    HW210356   3.337   0.153   7.303
 3304SOL     OW10357   2.476   0.122   5.703
 3304SOL    HW110358   2.574   0.100   5.710
 3304SOL    HW210359   2.445   0.105   5.610
 3305SOL     OW10360   2.643   0.264   7.335
 3305SOL    HW110361   2.710   0.203   7.378
 3305SOL    HW210362   2.570   0.283   7.400
 3306SOL     OW10363   2.750   1.514   6.781
 3306SOL    HW110364   2.727   1.489   6.687
 3306SOL    HW210365   2.811   1.445   6.820
 3307SOL     OW10366   3.213   0.590   7.019
 3307SOL    HW110367   3.241   0.547   7.104
 3307SOL    HW210368   3.238   0.686   7.020
 3308SOL     OW10369   2.665   1.402   6.510
 3308SOL    HW110370   2.755   1.416   6.468
 3308SOL    HW210371   2.594   1.404   6.439
 3309SOL     OW10372   2.784   0.503   6.485
 3309SOL    HW110373   2.759   0.494   6.389
 3309SOL    HW210374   2.832   0.421   6.516
 3310SOL     OW10375   2.401   0.064   6.098
 3310SOL    HW110376   2.320   0.065   6.156
 3310SOL    HW210377   2.404   0.147   6.043
 3311SOL     OW10378   3.296   1.188   5.627
 3311SOL    HW110379   3.328   1.112   5.684
 3311SOL    HW210380   3.204   1.215   5.657
 3312SOL     OW10381   2.159   0.035   5.757
 3312SOL    HW110382   2.208   0.119   5.736
 3312SOL    HW210383   2.221  -0.030   5.802
 3313SOL     OW10384   2.797   0.236   6.066
 3313SOL    HW110385   2.749   0.277   5.988
 3313SOL    HW210386   2.896   0.234   6.047
 3314SOL     OW10387   2.938   0.683   7.050
 3314SOL    HW110388   2.858   0.622   7.053
 3314SOL    HW210389   3.019   0.630   7.026
 3315SOL     OW10390   3.089   1.570   6.379
 3315SOL    HW110391   3.110   1.644   6.314
 3315SOL    HW210392   3.157   1.570   6.452
 3316SOL     OW10393   2.321   1.152   6.327
 3316SOL    HW110394   2.250   1.125   6.392
 3316SOL    HW210395   2.295   1.124   6.234
 3317SOL     OW10396   3.133   1.797   6.177
 3317SOL    HW110397   3.177   1.861   6.113
 3317SOL    HW210398   3.083   1.849   6.247
 3318SOL     OW10399   2.894   0.549   5.602
 3318SOL    HW110400   2.853   0.631   5.563
 3318SOL    HW210401   2.958   0.575   5.675
 3319SOL     OW10402   1.940   0.556   6.972
 3319SOL    HW110403   2.032   0.555   6.931
 3319SOL    HW210404   1.934   0.630   7.039
 3320SOL     OW10405   2.423   0.222   6.733
 3320SOL    HW110406   2.461   0.138   6.770
 3320SOL    HW210407   2.335   0.241   6.777
 3321SOL     OW10408   2.728   0.454   6.228
 3321SOL    HW110409   2.696   0.526   6.166
 3321SOL    HW210410   2.752   0.373   6.175
 3322SOL     OW10411   2.879   0.039   6.339
 3322SOL    HW110412   2.807   0.044   6.270
 3322SOL    HW210413   2.855  -0.030   6.408
 3323SOL     OW10414   3.291   1.173   6.453
 3323SOL    HW110415   3.236   1.089   6.446
 3323SOL    HW210416   3.317   1.202   6.361
 3324SOL     OW10417   3.328   0.590   6.578
 3324SOL    HW110418   3.298   0.495   6.585
 3324SOL    HW210419   3.401   0.606   6.644
 3325SOL     OW10420   3.719   0.833   5.963
 3325SOL    HW110421   3.761   0.769   6.027
 3325SOL    HW210422   3.681   0.782   5.885
 3326SOL     OW10423   2.350   1.385   5.760
 3326SOL    HW110424   2.263   1.370   5.807
 3326SOL    HW210425   2.333   1.411   5.665
 3327SOL     OW10426   3.526   1.280   6.243
 3327SOL    HW110427   3.625   1.288   6.257
 3327SOL    HW210428   3.481   1.364   6.274
 3328SOL     OW10429   3.252   0.575   5.664
 3328SOL    HW110430   3.198   0.554   5.745
 3328SOL    HW210431   3.343   0.534   5.673
 3329SOL     OW10432   2.389   0.256   5.914
 3329SOL    HW110433   2.416   0.197   5.839
 3329SOL    HW210434   2.389   0.351   5.883
 3330SOL     OW10435   3.616   1.223   7.174
 3330SOL    HW110436   3.707   1.184   7.161
 3330SOL    HW210437   3.624   1.319   7.198
 3331SOL     OW10438   2.926   1.347   6.926
 3331SOL    HW110439   2.846   1.324   6.981
 3331SOL    HW210440   3.009   1.321   6.975
 3332SOL     OW10441   3.454   1.629   7.211
 3332SOL    HW110442   3.481   1.663   7.121
 3332SOL    HW210443   3.533   1.591   7.257
 3333SOL     OW10444   2.973   1.195   6.686
 3333SOL    HW110445   2.933   1.239   6.767
 3333SOL    HW210446   2.932   1.232   6.603
 3334SOL     OW10447   3.500   1.099   6.665
 3334SOL    HW110448   3.505   1.180   6.724
 3334SOL    HW210449   3.414   1.101   6.614
 3335SOL     OW10450   2.777   0.089   6.988
 3335SOL    HW110451   2.802   0.069   6.893
 3335SOL    HW210452   2.849   0.145   7.030
 3336SOL     OW10453   2.842   1.116   7.305
 3336SOL    HW110454   2.743   1.122   7.315
 3336SOL    HW210455   2.865   1.036   7.249
 3337SOL     OW10456   2.567   1.050   5.954
 3337SOL    HW110457   2.553   1.057   6.053
 3337SOL    HW210458   2.651   0.999   5.936
 3338SOL     OW10459   2.272   0.813   6.837
 3338SOL    HW110460   2.358   0.825   6.887
 3338SOL    HW210461   2.230   0.726   6.864
 3339SOL     OW10462   3.136   0.386   6.848
 3339SOL    HW110463   3.157   0.460   6.912
 3339SOL    HW210464   3.047   0.403   6.805
 3340SOL     OW10465   1.926   1.564   6.917
 3340SOL    HW110466   1.880   1.646   6.883
 3340SOL    HW210467   2.024   1.583   6.926
 3341SOL     OW10468   2.229   1.100   6.087
 3341SOL    HW110469   2.222   1.183   6.031
 3341SOL    HW210470   2.233   1.020   6.027
 3342SOL     OW10471   2.428   0.537   6.451
 3342SOL    HW110472   2.440   0.603   6.377
 3342SOL    HW210473   2.474   0.571   6.534
 3343SOL     OW10474   3.114   1.348   5.974
 3343SOL    HW110475   3.164   1.425   6.014
 3343SOL    HW210476   3.019   1.350   6.006
 3344SOL     OW10477   3.134   1.445   6.728
 3344SOL    HW110478   3.181   1.458   6.815
 3344SOL    HW210479   3.068   1.371   6.737
 3345SOL     OW10480   3.444   0.639   6.058
 3345SOL    HW110481   3.413   0.700   6.131
 3345SOL    HW210482   3.494   0.691   5.989
 3346SOL     OW10483   2.216   1.510   6.915
 3346SOL    HW110484   2.195   1.466   6.828
 3346SOL    HW210485   2.313   1.536   6.918
 3347SOL     OW10486   2.264   0.751   7.184
 3347SOL    HW110487   2.332   0.806   7.137
 3347SOL    HW210488   2.304   0.663   7.211
 3348SOL     OW10489   3.449   0.779   7.256
 3348SOL    HW110490   3.357   0.817   7.251
 3348SOL    HW210491   3.509   0.826   7.191
 3349SOL     OW10492   2.875   0.105   7.356
 3349SOL    HW110493   2.881   0.190   7.304
 3349SOL    HW210494   2.907   0.029   7.299
 3350SOL     OW10495   2.366   0.050   7.326
 3350SOL    HW110496   2.324  -0.007   7.256
 3350SOL    HW210497   2.300   0.119   7.358
 3351SOL     OW10498   2.435   0.870   6.615
 3351SOL    HW110499   2.479   0.959   6.606
 3351SOL    HW210500   2.372   0.870   6.692
 3352SOL     OW10501   3.222   0.862   6.631
 3352SOL    HW110502   3.147   0.862   6.565
 3352SOL    HW210503   3.259   0.770   6.640
 3353SOL     OW10504   3.071   0.525   5.861
 3353SOL    HW110505   3.084   0.441   5.915
 3353SOL    HW210506   3.042   0.599   5.921
 3354SOL     OW10507   2.169   0.213   6.817
 3354SOL    HW110508   2.146   0.250   6.907
 3354SOL    HW210509   2.139   0.118   6.811
 3355SOL     OW10510   1.899   1.310   6.868
 3355SOL    HW110511   1.952   1.261   6.936
 3355SOL    HW210512   1.921   1.408   6.873
 3356SOL     OW10513   2.594   0.634   6.650
 3356SOL    HW110514   2.653   0.608   6.574
 3356SOL    HW210515   2.566   0.730   6.639
 3357SOL     OW10516   3.590   0.935   7.440
 3357SOL    HW110517   3.544   0.928   7.351
 3357SOL    HW210518   3.528   0.979   7.506
 3358SOL     OW10519   2.169   0.063   6.204
 3358SOL    HW110520   2.158   0.157   6.237
 3358SOL    HW210521   2.164   0.000   6.281
 3359SOL     OW10522   3.484   0.367   5.960
 3359SOL    HW110523   3.486   0.291   6.024
 3359SOL    HW210524   3.436   0.444   6.000
 3360SOL     OW10525   2.885   0.766   6.552
 3360SOL    HW110526   2.900   0.787   6.648
 3360SOL    HW210527   2.855   0.671   6.543
 3361SOL     OW10528   2.842   1.573   7.286
 3361SOL    HW110529   2.822   1.617   7.198
 3361SOL    HW210530   2.881   1.482   7.270
 3362SOL     OW10531   3.721   1.518   7.191
 3362SOL    HW110532   3.735   1.545   7.096
 3362SOL    HW210533   3.804   1.540   7.244
 3363SOL     OW10534   2.212   0.898   7.390
 3363SOL    HW110535   2.288   0.942   7.438
 3363SOL    HW210536   2.247   0.851   7.308
 3364SOL     OW10537   3.402   0.274   5.711
 3364SOL    HW110538   3.341   0.199   5.734
 3364SOL    HW210539   3.424   0.326   5.794
 3365SOL     OW10540   3.165   0.838   5.628
 3365SOL    HW110541   3.199   0.745   5.643
 3365SOL    HW210542   3.183   0.865   5.533
 3366SOL     OW10543   2.930   1.333   6.435
 3366SOL    HW110544   2.937   1.249   6.380
 3366SOL    HW210545   2.992   1.402   6.399
 3367SOL     OW10546   2.181   0.810   6.535
 3367SOL    HW110547   2.274   0.846   6.540
 3367SOL    HW210548   2.175   0.725   6.587
 3368SOL     OW10549   2.201   0.509   6.592
 3368SOL    HW110550   2.149   0.426   6.575
 3368SOL    HW210551   2.278   0.514   6.528
 3369SOL     OW10552   3.000   0.380   7.264
 3369SOL    HW110553   2.955   0.443   7.328
 3369SOL    HW210554   3.093   0.411   7.247
 3370SOL     OW10555   3.022   0.207   7.063
 3370SOL    HW110556   3.022   0.271   7.140
 3370SOL    HW210557   3.050   0.255   6.980
 3371SOL     OW10558   1.870   1.326   5.786
 3371SOL    HW110559   1.777   1.347   5.755
 3371SOL    HW210560   1.880   1.227   5.799
 3372SOL     OW10561   1.950   1.801   6.513
 3372SOL    HW110562   1.908   1.715   6.486
 3372SOL    HW210563   2.044   1.804   6.479
 3373SOL     OW10564   2.366   1.568   6.496
 3373SOL    HW110565   2.432   1.642   6.505
 3373SOL    HW210566   2.410   1.489   6.454
 3374SOL     OW10567   2.864   0.796   6.824
 3374SOL    HW110568   2.905   0.764   6.910
 3374SOL    HW210569   2.768   0.769   6.821
 3375SOL     OW10570   1.902   0.544   6.700
 3375SOL    HW110571   1.987   0.511   6.659
 3375SOL    HW210572   1.915   0.559   6.798
 3376SOL     OW10573   2.051   0.520   7.308
 3376SOL    HW110574   2.110   0.480   7.238
 3376SOL    HW210575   1.993   0.591   7.267
 3377SOL     OW10576   3.231   0.950   7.246
 3377SOL    HW110577   3.270   1.039   7.266
 3377SOL    HW210578   3.241   0.930   7.149
 3378SOL     OW10579   2.677   0.572   5.911
 3378SOL    HW110580   2.684   0.483   5.865
 3378SOL    HW210581   2.583   0.606   5.903
 3379SOL     OW10582   3.519   0.604   6.792
 3379SOL    HW110583   3.481   0.535   6.854
 3379SOL    HW210584   3.601   0.568   6.748
 3380SOL     OW10585   2.114   1.564   7.330
 3380SOL    HW110586   2.084   1.621   7.406
 3380SOL    HW210587   2.107   1.467   7.356
 3381SOL     OW10588   2.533   0.464   6.855
 3381SOL    HW110589   2.499   0.375   6.825
 3381SOL    HW210590   2.559   0.518   6.775
 3382SOL     OW10591   2.792   1.678   7.051
 3382SOL    HW110592   2.768   1.660   6.956
 3382SOL    HW210593   2.822   1.772   7.061
 3383SOL     OW10594   2.335   0.500   5.777
 3383SOL    HW110595   2.396   0.580   5.781
 3383SOL    HW210596   2.240   0.531   5.784
 3384SOL     OW10597   2.021   1.137   7.052
 3384SOL    HW110598   2.043   1.076   7.128
 3384SOL    HW210599   2.031   1.088   6.966
 3385SOL     OW10600   3.209   1.059   6.820
 3385SOL    HW110601   3.233   0.996   6.746
 3385SOL    HW210602   3.119   1.099   6.802
 3386SOL     OW10603   3.164   0.855   5.895
 3386SOL    HW110604   3.078   0.824   5.937
 3386SOL    HW210605   3.160   0.841   5.796
 3387SOL     OW10606   3.621   1.747   6.740
 3387SOL    HW110607   3.682   1.777   6.667
 3387SOL    HW210608   3.583   1.658   6.718
 3388SOL     OW10609   3.114   1.731   6.714
 3388SOL    HW110610   3.198   1.736   6.660
 3388SOL    HW210611   3.091   1.635   6.732
 3389SOL     OW10612   1.945   1.258   6.608
 3389SOL    HW110613   1.940   1.257   6.708
 3389SOL    HW210614   1.862   1.217   6.570
 3390SOL     OW10615   2.550   1.662   7.302
 3390SOL    HW110616   2.494   1.743   7.311
 3390SOL    HW210617   2.602   1.666   7.216
 3391SOL     OW10618   3.588   0.135   6.109
 3391SOL    HW110619   3.661   0.118   6.042
 3391SOL    HW210620   3.557   0.048   6.147
 3392SOL     OW10621   3.250   1.573   6.063
 3392SOL    HW110622   3.317   1.585   5.989
 3392SOL    HW210623   3.210   1.662   6.086
 3393SOL     OW10624   1.992   1.794   7.437
 3393SOL    HW110625   1.951   1.720   7.490
 3393SOL    HW210626   2.056   1.845   7.495
 3394SOL     OW10627   3.142   0.927   6.258
 3394SOL    HW110628   3.202   0.846   6.260
 3394SOL    HW210629   3.182   0.996   6.198
 3395SOL     OW10630   2.692   1.273   7.008
 3395SOL    HW110631   2.687   1.306   7.103
 3395SOL    HW210632   2.606   1.292   6.962
 3396SOL     OW10633   2.534   1.616   5.740
 3396SOL    HW110634   2.543   1.626   5.641
 3396SOL    HW210635   2.494   1.527   5.761
 3397SOL     OW10636   3.512   1.720   6.980
 3397SOL    HW110637   3.565   1.730   6.896
 3397SOL    HW210638   3.485   1.810   7.014
 3398SOL     OW10639   3.703   0.175   6.549
 3398SOL    HW110640   3.742   0.090   6.513
 3398SOL    HW210641   3.605   0.177   6.530
 3399SOL     OW10642   2.125   0.326   6.306
 3399SOL    HW110643   2.046   0.377   6.272
 3399SOL    HW210644   2.116   0.311   6.404
 3400SOL     OW10645   3.056   1.612   5.617
 3400SOL    HW110646   3.062   1.519   5.654
 3400SOL    HW210647   2.997   1.612   5.537
 3401SOL     OW10648   2.684   1.002   6.958
 3401SOL    HW110649   2.724   1.001   6.866
 3401SOL    HW210650   2.694   1.094   6.998
 3402SOL     OW10651   2.778   0.910   5.877
 3402SOL    HW110652   2.841   0.948   5.809
 3402SOL    HW210653   2.818   0.827   5.916
 3403SOL     OW10654   3.366   1.607   5.630
 3403SOL    HW110655   3.274   1.644   5.637
 3403SOL    HW210656   3.404   1.627   5.540
 3404SOL     OW10657   2.234   1.288   7.076
 3404SOL    HW110658   2.221   1.381   7.042
 3404SOL    HW210659   2.150   1.236   7.063
 3405SOL     OW10660   3.476   1.292   6.875
 3405SOL    HW110661   3.536   1.295   6.955
 3405SOL    HW210662   3.401   1.356   6.888
 3406SOL     OW10663   2.901   1.098   6.282
 3406SOL    HW110664   2.831   1.051   6.336
 3406SOL    HW210665   2.960   1.030   6.239
 3407SOL     OW10666   2.876   0.236   6.557
 3407SOL    HW110667   2.868   0.200   6.464
 3407SOL    HW210668   2.874   0.160   6.622
 3408SOL     OW10669   2.452   1.487   6.077
 3408SOL    HW110670   2.494   1.429   6.007
 3408SOL    HW210671   2.408   1.566   6.033
 3409SOL     OW10672   3.571   0.385   6.967
 3409SOL    HW110673   3.644   0.454   6.971
 3409SOL    HW210674   3.599   0.310   6.908
 3410SOL     OW10675   2.117   1.348   5.876
 3410SOL    HW110676   2.021   1.349   5.849
 3410SOL    HW210677   2.129   1.401   5.960
 3411SOL     OW10678   1.967   1.013   7.312
 3411SOL    HW110679   1.890   0.980   7.366
 3411SOL    HW210680   2.052   0.983   7.354
 3412SOL     OW10681   2.534   0.203   7.075
 3412SOL    HW110682   2.624   0.187   7.035
 3412SOL    HW210683   2.542   0.208   7.174
 3413SOL     OW10684   1.937   0.345   5.619
 3413SOL    HW110685   1.845   0.317   5.590
 3413SOL    HW210686   1.968   0.422   5.563
 3414SOL     OW10687   3.302   0.856   6.984
 3414SOL    HW110688   3.245   0.908   6.921
 3414SOL    HW210689   3.398   0.868   6.960
 3415SOL     OW10690   1.934   0.166   5.904
 3415SOL    HW110691   1.917   0.249   5.850
 3415SOL    HW210692   2.024   0.129   5.882
 3416SOL     OW10693   3.045   1.335   5.705
 3416SOL    HW110694   2.946   1.324   5.707
 3416SOL    HW210695   3.079   1.350   5.798
 3417SOL     OW10696   2.475   0.842   7.017
 3417SOL    HW110697   2.531   0.923   7.000
 3417SOL    HW210698   2.534   0.762   7.020
 3418SOL     OW10699   3.355   1.767   6.545
 3418SOL    HW110700   3.388   1.831   6.476
 3418SOL    HW210701   3.421   1.761   6.620
 3419SOL     OW10702   2.578   0.565   7.294
 3419SOL    HW110703   2.597   0.630   7.368
 3419SOL    HW210704   2.638   0.485   7.303
 3420SOL     OW10705   3.312   1.220   7.219
 3420SOL    HW110706   3.303   1.210   7.318
 3420SOL    HW210707   3.408   1.213   7.193
 3421SOL     OW10708   2.252   1.741   7.146
 3421SOL    HW110709   2.161   1.782   7.144
 3421SOL    HW210710   2.245   1.647   7.178
 3422SOL     OW10711   3.536   0.883   6.840
 3422SOL    HW110712   3.509   0.794   6.803
 3422SOL    HW210713   3.537   0.951   6.767
 3423SOL     OW10714   3.087   0.325   6.035
 3423SOL    HW110715   3.152   0.251   6.024
 3423SOL    HW210716   3.107   0.375   6.119
 3424SOL     OW10717   2.456   0.745   6.238
 3424SOL    HW110718   2.506   0.830   6.219
 3424SOL    HW210719   2.368   0.747   6.190
 3425SOL     OW10720   3.639   0.342   7.228
 3425SOL    HW110721   3.622   0.373   7.134
 3425SOL    HW210722   3.555   0.305   7.266
 3426SOL     OW10723   3.592   0.934   7.103
 3426SOL    HW110724   3.630   1.025   7.118
 3426SOL    HW210725   3.584   0.917   7.004
 3427SOL     OW10726   2.721   1.374   5.602
 3427SOL    HW110727   2.675   1.389   5.690
 3427SOL    HW210728   2.765   1.459   5.572
 3428SOL     OW10729   2.523   1.790   6.539
 3428SOL    HW110730   2.477   1.878   6.526
 3428SOL    HW210731   2.622   1.802   6.532
 3429SOL     OW10732   2.721   0.956   6.447
 3429SOL    HW110733   2.775   0.887   6.495
 3429SOL    HW210734   2.689   1.025   6.513
 3430SOL     OW10735   2.945   0.984   5.673
 3430SOL    HW110736   2.922   1.037   5.591
 3430SOL    HW210737   3.026   0.928   5.654
 3431SOL     OW10738   3.723   1.569   6.437
 3431SOL    HW110739   3.652   1.557   6.367
 3431SOL    HW210740   3.724   1.490   6.497
 3432SOL     OW10741   2.083   1.314   7.430
 3432SOL    HW110742   2.018   1.241   7.409
 3432SOL    HW210743   2.087   1.328   7.528
 3433SOL     OW10744   1.941   1.240   6.239
 3433SOL    HW110745   1.940   1.193   6.327
 3433SOL    HW210746   2.023   1.212   6.188
 3434SOL     OW10747   2.534   1.391   7.210
 3434SOL    HW110748   2.456   1.341   7.248
 3434SOL    HW210749   2.531   1.486   7.241
 3435SOL     OW10750   3.686   0.192   6.813
 3435SOL    HW110751   3.682   0.102   6.857
 3435SOL    HW210752   3.689   0.181   6.714
 3436SOL     OW10753   2.290   0.424   6.106
 3436SOL    HW110754   2.320   0.352   6.044
 3436SOL    HW210755   2.251   0.384   6.189
 3437SOL     OW10756   3.567   1.487   6.690
 3437SOL    HW110757   3.474   1.462   6.663
 3437SOL    HW210758   3.593   1.437   6.772
 3438SOL     OW10759   2.179   0.547   6.866
 3438SOL    HW110760   2.217   0.488   6.938
 3438SOL    HW210761   2.219   0.521   6.778
 3439SOL     OW10762   2.674   1.586   6.273
 3439SOL    HW110763   2.706   1.596   6.179
 3439SOL    HW210764   2.595   1.524   6.275
 3440SOL     OW10765   3.286   0.214   6.698
 3440SOL    HW110766   3.338   0.149   6.753
 3440SOL    HW210767   3.237   0.277   6.759
 3441SOL     OW10768   2.863   0.034   6.740
 3441SOL    HW110769   2.800  -0.038   6.709
 3441SOL    HW210770   2.956  -0.002   6.740
 3442SOL     OW10771   2.632   1.330   5.887
 3442SOL    HW110772   2.586   1.243   5.904
 3442SOL    HW210773   2.723   1.327   5.928
 3443SOL     OW10774   2.480   1.567   6.870
 3443SOL    HW110775   2.475   1.649   6.927
 3443SOL    HW210776   2.569   1.564   6.825
 3444SOL     OW10777   3.214   0.052   5.754
 3444SOL    HW110778   3.249   0.011   5.670
 3444SOL    HW210779   3.124   0.014   5.774
 3445SOL     OW10780   3.162   0.453   6.277
 3445SOL    HW110781   3.103   0.533   6.281
 3445SOL    HW210782   3.177   0.418   6.370
 3446SOL     OW10783   3.455   0.221   6.468
 3446SOL    HW110784   3.371   0.220   6.522
 3446SOL    HW210785   3.457   0.304   6.412
 3447SOL     OW10786   1.901   1.077   5.886
 3447SOL    HW110787   2.000   1.066   5.877
 3447SOL    HW210788   1.861   0.991   5.918
 3448SOL     OW10789   2.737   1.646   5.923
 3448SOL    HW110790   2.660   1.611   5.869
 3448SOL    HW210791   2.705   1.717   5.985
 3449SOL     OW10792   2.092   0.628   7.561
 3449SOL    HW110793   1.999   0.626   7.598
 3449SOL    HW210794   2.093   0.589   7.469
 3450SOL     OW10795   3.617   0.607   7.679
 3450SOL    HW110796   3.605   0.594   7.580
 3450SOL    HW210797   3.587   0.526   7.728
 3451SOL     OW10798   2.093   1.713   7.931
 3451SOL    HW110799   2.127   1.790   7.985
 3451SOL    HW210800   2.137   1.713   7.841
 3452SOL     OW10801   2.092   1.434   7.986
 3452SOL    HW110802   2.066   1.530   7.986
 3452SOL    HW210803   2.021   1.380   8.031
 3453SOL     OW10804   2.468   0.964   7.571
 3453SOL    HW110805   2.475   1.048   7.517
 3453SOL    HW210806   2.514   0.977   7.659
 3454SOL     OW10807   3.704   1.767   7.807
 3454SOL    HW110808   3.758   1.738   7.887
 3454SOL    HW210809   3.734   1.857   7.778
 3455SOL     OW10810   1.889   1.596   7.565
 3455SOL    HW110811   1.870   1.500   7.586
 3455SOL    HW210812   1.856   1.654   7.640
 3456SOL     OW10813   3.551   0.922   8.060
 3456SOL    HW110814   3.646   0.893   8.068
 3456SOL    HW210815   3.543   0.987   7.985
 3457SOL     OW10816   3.503   1.108   7.880
 3457SOL    HW110817   3.589   1.110   7.828
 3457SOL    HW210818   3.517   1.155   7.968
 3458SOL     OW10819   2.671   0.004   7.950
 3458SOL    HW110820   2.711   0.095   7.941
 3458SOL    HW210821   2.571   0.012   7.956
 3459SOL     OW10822   3.387   0.999   7.638
 3459SOL    HW110823   3.324   0.923   7.651
 3459SOL    HW210824   3.435   1.017   7.724
 3460SOL     OW10825   2.460   0.729   7.718
 3460SOL    HW110826   2.484   0.798   7.650
 3460SOL    HW210827   2.382   0.762   7.772
 3461SOL     OW10828   3.438   1.662   7.755
 3461SOL    HW110829   3.527   1.708   7.758
 3461SOL    HW210830   3.417   1.638   7.660
 3462SOL     OW10831   1.938   0.811   8.237
 3462SOL    HW110832   2.037   0.799   8.246
 3462SOL    HW210833   1.914   0.906   8.258
 3463SOL     OW10834   2.727   0.348   7.643
 3463SOL    HW110835   2.786   0.411   7.594
 3463SOL    HW210836   2.746   0.254   7.614
 3464SOL     OW10837   2.183   0.943   7.690
 3464SOL    HW110838   2.265   0.982   7.648
 3464SOL    HW210839   2.156   0.861   7.641
 3465SOL     OW10840   2.973   1.776   7.685
 3465SOL    HW110841   2.913   1.714   7.735
 3465SOL    HW210842   3.004   1.732   7.600
 3466SOL     OW10843   3.494   1.377   7.529
 3466SOL    HW110844   3.462   1.471   7.519
 3466SOL    HW210845   3.418   1.314   7.517
 3467SOL     OW10846   2.326   1.743   7.771
 3467SOL    HW110847   2.359   1.782   7.857
 3467SOL    HW210848   2.402   1.736   7.706
 3468SOL     OW10849   3.262   0.107   7.874
 3468SOL    HW110850   3.238   0.070   7.784
 3468SOL    HW210851   3.361   0.123   7.878
 3469SOL     OW10852   2.244   0.700   7.928
 3469SOL    HW110853   2.289   0.610   7.925
 3469SOL    HW210854   2.150   0.689   7.961
 3470SOL     OW10855   2.476   0.122   7.565
 3470SOL    HW110856   2.574   0.100   7.572
 3470SOL    HW210857   2.445   0.105   7.472
 3471SOL     OW10858   2.401   0.064   7.960
 3471SOL    HW110859   2.320   0.065   8.018
 3471SOL    HW210860   2.404   0.147   7.905
 3472SOL     OW10861   3.296   1.188   7.489
 3472SOL    HW110862   3.328   1.112   7.546
 3472SOL    HW210863   3.204   1.215   7.519
 3473SOL     OW10864   2.159   0.035   7.619
 3473SOL    HW110865   2.208   0.119   7.598
 3473SOL    HW210866   2.221  -0.030   7.664
 3474SOL     OW10867   2.797   0.236   7.928
 3474SOL    HW110868   2.749   0.277   7.850
 3474SOL    HW210869   2.896   0.234   7.909
 3475SOL     OW10870   2.321   1.152   8.189
 3475SOL    HW110871   2.250   1.125   8.254
 3475SOL    HW210872   2.295   1.124   8.096
 3476SOL     OW10873   3.133   1.797   8.039
 3476SOL    HW110874   3.177   1.861   7.975
 3476SOL    HW210875   3.083   1.849   8.109
 3477SOL     OW10876   2.894   0.549   7.464
 3477SOL    HW110877   2.853   0.631   7.425
 3477SOL    HW210878   2.958   0.575   7.537
 3478SOL     OW10879   3.719   0.833   7.825
 3478SOL    HW110880   3.761   0.769   7.889
 3478SOL    HW210881   3.681   0.782   7.747
 3479SOL     OW10882   2.350   1.385   7.622
 3479SOL    HW110883   2.263   1.370   7.669
 3479SOL    HW210884   2.333   1.411   7.527
 3480SOL     OW10885   3.252   0.575   7.526
 3480SOL    HW110886   3.198   0.554   7.607
 3480SOL    HW210887   3.343   0.534   7.535
 3481SOL     OW10888   2.389   0.256   7.776
 3481SOL    HW110889   2.416   0.197   7.701
 3481SOL    HW210890   2.389   0.351   7.745
 3482SOL     OW10891   2.567   1.050   7.816
 3482SOL    HW110892   2.553   1.057   7.915
 3482SOL    HW210893   2.651   0.999   7.798
 3483SOL     OW10894   2.229   1.100   7.949
 3483SOL    HW110895   2.222   1.183   7.893
 3483SOL    HW210896   2.233   1.020   7.889
 3484SOL     OW10897   3.114   1.348   7.836
 3484SOL    HW110898   3.164   1.425   7.876
 3484SOL    HW210899   3.019   1.350   7.868
 3485SOL     OW10900   3.444   0.639   7.920
 3485SOL    HW110901   3.413   0.700   7.993
 3485SOL    HW210902   3.494   0.691   7.851
 3486SOL     OW10903   3.071   0.525   7.723
 3486SOL    HW110904   3.084   0.441   7.777
 3486SOL    HW210905   3.042   0.599   7.783
 3487SOL     OW10906   3.484   0.367   7.822
 3487SOL    HW110907   3.486   0.291   7.886
 3487SOL    HW210908   3.436   0.444   7.862
 3488SOL     OW10909   3.402   0.274   7.573
 3488SOL    HW110910   3.341   0.199   7.596
 3488SOL    HW210911   3.424   0.326   7.656
 3489SOL     OW10912   3.165   0.838   7.490
 3489SOL    HW110913   3.199   0.745   7.505
 3489SOL    HW210914   3.183   0.865   7.395
 3490SOL     OW10915   1.870   1.326   7.648
 3490SOL    HW110916   1.777   1.347   7.617
 3490SOL    HW210917   1.880   1.227   7.661
 3491SOL     OW10918   2.677   0.572   7.773
 3491SOL    HW110919   2.684   0.483   7.727
 3491SOL    HW210920   2.583   0.606   7.765
 3492SOL     OW10921   2.335   0.500   7.639
 3492SOL    HW110922   2.396   0.580   7.643
 3492SOL    HW210923   2.240   0.531   7.646
 3493SOL     OW10924   3.164   0.855   7.757
 3493SOL    HW110925   3.078   0.824   7.799
 3493SOL    HW210926   3.160   0.841   7.658
 3494SOL     OW10927   3.588   0.135   7.971
 3494SOL    HW110928   3.661   0.118   7.904
 3494SOL    HW210929   3.557   0.048   8.009
 3495SOL     OW10930   3.250   1.573   7.925
 3495SOL    HW110931   3.317   1.585   7.851
 3495SOL    HW210932   3.210   1.662   7.948
 3496SOL     OW10933   2.534   1.616   7.602
 3496SOL    HW110934   2.543   1.626   7.503
 3496SOL    HW210935   2.494   1.527   7.623
 3497SOL     OW10936   3.056   1.612   7.479
 3497SOL    HW110937   3.062   1.519   7.516
 3497SOL    HW210938   2.997   1.612   7.399
 3498SOL     OW10939   2.778   0.910   7.739
 3498SOL    HW110940   2.841   0.948   7.671
 3498SOL    HW210941   2.818   0.827   7.778
 3499SOL     OW10942   3.366   1.607   7.492
 3499SOL    HW110943   3.274   1.644   7.499
 3499SOL    HW210944   3.404   1.627   7.402
 3500SOL     OW10945   2.452   1.487   7.939
 3500SOL    HW110946   2.494   1.429   7.869
 3500SOL    HW210947   2.408   1.566   7.895
 3501SOL     OW10948   2.117   1.348   7.738
 3501SOL    HW110949   2.021   1.349   7.711
 3501SOL    HW210950   2.129   1.401   7.822
 3502SOL     OW10951   1.937   0.345   7.481
 3502SOL    HW110952   1.845   0.317   7.452
 3502SOL    HW210953   1.968   0.422   7.425
 3503SOL     OW10954   1.934   0.166   7.766
 3503SOL    HW110955   1.917   0.249   7.712
 3503SOL    HW210956   2.024   0.129   7.744
 3504SOL     OW10957   3.045   1.335   7.567
 3504SOL    HW110958   2.946   1.324   7.569
 3504SOL    HW210959   3.079   1.350   7.660
 3505SOL     OW10960   3.087   0.325   7.897
 3505SOL    HW110961   3.152   0.251   7.886
 3505SOL    HW210962   3.107   0.375   7.981
 3506SOL     OW10963   2.456   0.745   8.100
 3506SOL    HW110964   2.506   0.830   8.081
 3506SOL    HW210965   2.368   0.747   8.052
 3507SOL     OW10966   2.721   1.374   7.464
 3507SOL    HW110967   2.675   1.389   7.552
 3507SOL    HW210968   2.765   1.459   7.434
 3508SOL     OW10969   2.945   0.984   7.535
 3508SOL    HW110970   2.922   1.037   7.453
 3508SOL    HW210971   3.026   0.928   7.516
 3509SOL     OW10972   2.290   0.424   7.968
 3509SOL    HW110973   2.320   0.352   7.906
 3509SOL    HW210974   2.251   0.384   8.051
 3510SOL     OW10975   2.632   1.330   7.749
 3510SOL    HW110976   2.586   1.243   7.766
 3510SOL    HW210977   2.723   1.327   7.790
 3511SOL     OW10978   3.214   0.052   7.616
 3511SOL    HW110979   3.249   0.011   7.532
 3511SOL    HW210980   3.124   0.014   7.636
 3512SOL     OW10981   1.901   1.077   7.748
 3512SOL    HW110982   2.000   1.066   7.739
 3512SOL    HW210983   1.861   0.991   7.780
 3513SOL     OW10984   2.737   1.646   7.785
 3513SOL    HW110985   2.660   1.611   7.731
 3513SOL    HW210986   2.705   1.717   7.847
 3514SOL     OW10987   2.092   2.490   0.113
 3514SOL    HW110988   1.999   2.488   0.150
 3514SOL    HW210989   2.093   2.451   0.021
 3515SOL     OW10990   2.087   2.137   0.996
 3515SOL    HW110991   2.122   2.120   1.088
 3515SOL    HW210992   1.999   2.092   0.984
 3516SOL     OW10993   1.881   2.230   0.647
 3516SOL    HW110994   1.799   2.273   0.686
 3516SOL    HW210995   1.853   2.157   0.584
 3517SOL     OW10996   2.431   3.137   1.165
 3517SOL    HW110997   2.338   3.130   1.128
 3517SOL    HW210998   2.442   3.226   1.209
 3518SOL     OW10999   3.417   3.373   0.703
 3518SOL    HW111000   3.360   3.357   0.784
 3518SOL    HW211001   3.358   3.383   0.623
 3519SOL     OW11002   2.997   2.565   0.717
 3519SOL    HW111003   3.054   2.643   0.692
 3519SOL    HW211004   2.937   2.591   0.793
 3520SOL     OW11005   3.617   2.469   0.231
 3520SOL    HW111006   3.605   2.456   0.132
 3520SOL    HW211007   3.587   2.388   0.280
 3521SOL     OW11008   2.630   3.006   1.023
 3521SOL    HW111009   2.552   3.023   1.083
 3521SOL    HW211010   2.664   3.093   0.987
 3522SOL     OW11011   2.548   3.023   1.803
 3522SOL    HW111012   2.608   3.102   1.817
 3522SOL    HW211013   2.462   3.054   1.762
 3523SOL     OW11014   2.197   3.297   1.061
 3523SOL    HW111015   2.119   3.266   1.008
 3523SOL    HW211016   2.255   3.355   1.004
 3524SOL     OW11017   3.322   3.367   1.339
 3524SOL    HW111018   3.346   3.461   1.365
 3524SOL    HW211019   3.306   3.313   1.421
 3525SOL     OW11020   2.300   2.254   1.499
 3525SOL    HW111021   2.382   2.198   1.508
 3525SOL    HW211022   2.219   2.196   1.503
 3526SOL     OW11023   3.465   2.309   0.737
 3526SOL    HW111024   3.391   2.355   0.687
 3526SOL    HW211025   3.516   2.377   0.790
 3527SOL     OW11026   2.093   3.575   0.483
 3527SOL    HW111027   2.127   3.652   0.537
 3527SOL    HW211028   2.137   3.575   0.393
 3528SOL     OW11029   2.989   3.203   1.690
 3528SOL    HW111030   3.036   3.203   1.778
 3528SOL    HW211031   2.941   3.116   1.679
 3529SOL     OW11032   2.092   3.296   0.538
 3529SOL    HW111033   2.066   3.392   0.538
 3529SOL    HW211034   2.021   3.242   0.583
 3530SOL     OW11035   2.102   2.953   0.886
 3530SOL    HW111036   2.116   2.869   0.938
 3530SOL    HW211037   2.047   3.017   0.941
 3531SOL     OW11038   2.482   3.648   1.439
 3531SOL    HW111039   2.390   3.631   1.474
 3531SOL    HW211040   2.510   3.740   1.465
 3532SOL     OW11041   2.468   2.826   0.123
 3532SOL    HW111042   2.475   2.910   0.069
 3532SOL    HW211043   2.514   2.839   0.211
 3533SOL     OW11044   3.456   1.976   1.480
 3533SOL    HW111045   3.438   2.043   1.408
 3533SOL    HW211046   3.453   2.022   1.569
 3534SOL     OW11047   1.984   2.505   0.563
 3534SOL    HW111048   1.939   2.417   0.580
 3534SOL    HW211049   1.983   2.559   0.647
 3535SOL     OW11050   3.704   3.629   0.359
 3535SOL    HW111051   3.758   3.600   0.439
 3535SOL    HW211052   3.734   3.719   0.330
 3536SOL     OW11053   1.889   3.458   0.117
 3536SOL    HW111054   1.870   3.362   0.138
 3536SOL    HW211055   1.856   3.516   0.192
 3537SOL     OW11056   3.551   2.784   0.612
 3537SOL    HW111057   3.646   2.755   0.620
 3537SOL    HW211058   3.543   2.849   0.537
 3538SOL     OW11059   3.503   2.970   0.432
 3538SOL    HW111060   3.589   2.972   0.380
 3538SOL    HW211061   3.517   3.017   0.520
 3539SOL     OW11062   1.975   2.599   1.597
 3539SOL    HW111063   2.063   2.586   1.642
 3539SOL    HW211064   1.962   2.696   1.575
 3540SOL     OW11065   2.475   3.227   0.726
 3540SOL    HW111066   2.426   3.140   0.735
 3540SOL    HW211067   2.452   3.270   0.639
 3541SOL     OW11068   3.155   3.090   1.423
 3541SOL    HW111069   3.192   3.017   1.365
 3541SOL    HW211070   3.207   3.095   1.508
 3542SOL     OW11071   2.671   1.866   0.502
 3542SOL    HW111072   2.711   1.957   0.493
 3542SOL    HW211073   2.571   1.874   0.508
 3543SOL     OW11074   2.059   2.838   1.264
 3543SOL    HW111075   2.148   2.793   1.250
 3543SOL    HW211076   1.986   2.773   1.245
 3544SOL     OW11077   3.387   2.861   0.190
 3544SOL    HW111078   3.324   2.785   0.203
 3544SOL    HW211079   3.435   2.879   0.276
 3545SOL     OW11080   3.049   3.654   1.616
 3545SOL    HW111081   3.073   3.714   1.540
 3545SOL    HW211082   3.056   3.559   1.586
 3546SOL     OW11083   2.179   2.113   1.801
 3546SOL    HW111084   2.250   2.184   1.807
 3546SOL    HW211085   2.091   2.152   1.829
 3547SOL     OW11086   3.328   3.279   0.953
 3547SOL    HW111087   3.269   3.285   1.033
 3547SOL    HW211088   3.313   3.191   0.907
 3548SOL     OW11089   3.529   3.576   0.572
 3548SOL    HW111090   3.488   3.553   0.484
 3548SOL    HW211091   3.511   3.502   0.637
 3549SOL     OW11092   3.143   2.207   0.944
 3549SOL    HW111093   3.057   2.157   0.931
 3549SOL    HW211094   3.205   2.153   1.000
 3550SOL     OW11095   3.438   3.524   0.307
 3550SOL    HW111096   3.527   3.570   0.310
 3550SOL    HW211097   3.417   3.500   0.212
 3551SOL     OW11098   3.256   2.331   1.674
 3551SOL    HW111099   3.236   2.374   1.762
 3551SOL    HW211100   3.334   2.269   1.683
 3552SOL     OW11101   2.853   2.272   1.242
 3552SOL    HW111102   2.776   2.306   1.296
 3552SOL    HW211103   2.819   2.221   1.163
 3553SOL     OW11104   1.938   2.673   0.789
 3553SOL    HW111105   2.037   2.661   0.798
 3553SOL    HW211106   1.914   2.768   0.810
 3554SOL     OW11107   1.992   3.683   1.571
 3554SOL    HW111108   1.982   3.668   1.670
 3554SOL    HW211109   1.906   3.719   1.535
 3555SOL     OW11110   2.727   2.210   0.195
 3555SOL    HW111111   2.786   2.273   0.146
 3555SOL    HW211112   2.746   2.116   0.166
 3556SOL     OW11113   3.581   2.447   1.831
 3556SOL    HW111114   3.555   2.536   1.795
 3556SOL    HW211115   3.579   2.379   1.758
 3557SOL     OW11116   3.224   3.006   0.545
 3557SOL    HW111117   3.307   2.977   0.497
 3557SOL    HW211118   3.175   3.073   0.489
 3558SOL     OW11119   2.412   2.058   0.885
 3558SOL    HW111120   2.407   2.053   0.985
 3558SOL    HW211121   2.414   2.154   0.856
 3559SOL     OW11122   2.870   3.318   0.477
 3559SOL    HW111123   2.824   3.390   0.425
 3559SOL    HW211124   2.866   3.338   0.575
 3560SOL     OW11125   2.213   3.663   0.853
 3560SOL    HW111126   2.263   3.577   0.859
 3560SOL    HW211127   2.278   3.740   0.850
 3561SOL     OW11128   3.657   2.928   0.873
 3561SOL    HW111129   3.595   2.913   0.797
 3561SOL    HW211130   3.605   2.939   0.958
 3562SOL     OW11131   3.089   3.412   1.506
 3562SOL    HW111132   3.095   3.335   1.570
 3562SOL    HW211133   3.037   3.386   1.426
 3563SOL     OW11134   2.183   2.805   0.242
 3563SOL    HW111135   2.265   2.844   0.200
 3563SOL    HW211136   2.156   2.723   0.193
 3564SOL     OW11137   3.320   2.597   0.728
 3564SOL    HW111138   3.315   2.532   0.803
 3564SOL    HW211139   3.400   2.656   0.741
 3565SOL     OW11140   2.323   3.128   1.727
 3565SOL    HW111141   2.273   3.129   1.641
 3565SOL    HW211142   2.260   3.110   1.803
 3566SOL     OW11143   2.973   3.638   0.237
 3566SOL    HW111144   2.913   3.576   0.287
 3566SOL    HW211145   3.004   3.594   0.152
 3567SOL     OW11146   2.064   2.147   1.498
 3567SOL    HW111147   1.984   2.207   1.485
 3567SOL    HW211148   2.054   2.098   1.584
 3568SOL     OW11149   3.494   3.239   0.081
 3568SOL    HW111150   3.462   3.333   0.071
 3568SOL    HW211151   3.418   3.176   0.069
 3569SOL     OW11152   2.326   3.605   0.323
 3569SOL    HW111153   2.359   3.644   0.409
 3569SOL    HW211154   2.402   3.598   0.258
 3570SOL     OW11155   3.262   1.969   0.426
 3570SOL    HW111156   3.238   1.932   0.336
 3570SOL    HW211157   3.361   1.985   0.430
 3571SOL     OW11158   2.111   3.647   1.241
 3571SOL    HW111159   2.168   3.582   1.291
 3571SOL    HW211160   2.095   3.614   1.148
 3572SOL     OW11161   2.802   3.560   0.904
 3572SOL    HW111162   2.882   3.503   0.925
 3572SOL    HW211163   2.753   3.520   0.827
 3573SOL     OW11164   2.244   2.562   0.480
 3573SOL    HW111165   2.289   2.472   0.477
 3573SOL    HW211166   2.150   2.551   0.513
 3574SOL     OW11167   3.409   2.084   1.729
 3574SOL    HW111168   3.404   2.121   1.821
 3574SOL    HW211169   3.337   2.015   1.717
 3575SOL     OW11170   2.476   1.984   0.117
 3575SOL    HW111171   2.574   1.962   0.124
 3575SOL    HW211172   2.445   1.967   0.024
 3576SOL     OW11173   2.643   2.126   1.749
 3576SOL    HW111174   2.710   2.065   1.792
 3576SOL    HW211175   2.570   2.145   1.814
 3577SOL     OW11176   2.750   3.376   1.195
 3577SOL    HW111177   2.727   3.351   1.101
 3577SOL    HW211178   2.811   3.307   1.234
 3578SOL     OW11179   3.213   2.452   1.433
 3578SOL    HW111180   3.241   2.409   1.518
 3578SOL    HW211181   3.238   2.548   1.434
 3579SOL     OW11182   2.665   3.264   0.924
 3579SOL    HW111183   2.755   3.278   0.882
 3579SOL    HW211184   2.594   3.266   0.853
 3580SOL     OW11185   2.784   2.365   0.899
 3580SOL    HW111186   2.759   2.356   0.803
 3580SOL    HW211187   2.832   2.283   0.930
 3581SOL     OW11188   2.401   1.926   0.512
 3581SOL    HW111189   2.320   1.927   0.570
 3581SOL    HW211190   2.404   2.009   0.457
 3582SOL     OW11191   3.296   3.050   0.041
 3582SOL    HW111192   3.328   2.974   0.098
 3582SOL    HW211193   3.204   3.077   0.071
 3583SOL     OW11194   2.159   1.897   0.171
 3583SOL    HW111195   2.208   1.981   0.150
 3583SOL    HW211196   2.221   1.832   0.216
 3584SOL     OW11197   2.797   2.098   0.480
 3584SOL    HW111198   2.749   2.139   0.402
 3584SOL    HW211199   2.896   2.096   0.461
 3585SOL     OW11200   2.938   2.545   1.464
 3585SOL    HW111201   2.858   2.484   1.467
 3585SOL    HW211202   3.019   2.492   1.440
 3586SOL     OW11203   3.089   3.432   0.793
 3586SOL    HW111204   3.110   3.506   0.728
 3586SOL    HW211205   3.157   3.432   0.866
 3587SOL     OW11206   2.321   3.014   0.741
 3587SOL    HW111207   2.250   2.987   0.806
 3587SOL    HW211208   2.295   2.986   0.648
 3588SOL     OW11209   3.133   3.659   0.591
 3588SOL    HW111210   3.177   3.723   0.527
 3588SOL    HW211211   3.083   3.711   0.661
 3589SOL     OW11212   2.894   2.411   0.016
 3589SOL    HW111213   2.853   2.493  -0.023
 3589SOL    HW211214   2.958   2.437   0.089
 3590SOL     OW11215   1.940   2.418   1.386
 3590SOL    HW111216   2.032   2.417   1.345
 3590SOL    HW211217   1.934   2.492   1.453
 3591SOL     OW11218   2.423   2.084   1.147
 3591SOL    HW111219   2.461   2.000   1.184
 3591SOL    HW211220   2.335   2.103   1.191
 3592SOL     OW11221   2.728   2.316   0.642
 3592SOL    HW111222   2.696   2.388   0.580
 3592SOL    HW211223   2.752   2.235   0.589
 3593SOL     OW11224   2.879   1.901   0.753
 3593SOL    HW111225   2.807   1.906   0.684
 3593SOL    HW211226   2.855   1.832   0.822
 3594SOL     OW11227   3.291   3.035   0.867
 3594SOL    HW111228   3.236   2.951   0.860
 3594SOL    HW211229   3.317   3.064   0.775
 3595SOL     OW11230   3.328   2.452   0.992
 3595SOL    HW111231   3.298   2.357   0.999
 3595SOL    HW211232   3.401   2.468   1.058
 3596SOL     OW11233   3.719   2.695   0.377
 3596SOL    HW111234   3.761   2.631   0.441
 3596SOL    HW211235   3.681   2.644   0.299
 3597SOL     OW11236   2.350   3.247   0.174
 3597SOL    HW111237   2.263   3.232   0.221
 3597SOL    HW211238   2.333   3.273   0.079
 3598SOL     OW11239   3.526   3.142   0.657
 3598SOL    HW111240   3.625   3.150   0.671
 3598SOL    HW211241   3.481   3.226   0.688
 3599SOL     OW11242   3.252   2.437   0.078
 3599SOL    HW111243   3.198   2.416   0.159
 3599SOL    HW211244   3.343   2.396   0.087
 3600SOL     OW11245   2.389   2.118   0.328
 3600SOL    HW111246   2.416   2.059   0.253
 3600SOL    HW211247   2.389   2.213   0.297
 3601SOL     OW11248   3.616   3.085   1.588
 3601SOL    HW111249   3.707   3.046   1.575
 3601SOL    HW211250   3.624   3.181   1.612
 3602SOL     OW11251   2.926   3.209   1.340
 3602SOL    HW111252   2.846   3.186   1.395
 3602SOL    HW211253   3.009   3.183   1.389
 3603SOL     OW11254   3.454   3.491   1.625
 3603SOL    HW111255   3.481   3.525   1.535
 3603SOL    HW211256   3.533   3.453   1.671
 3604SOL     OW11257   2.973   3.057   1.100
 3604SOL    HW111258   2.933   3.101   1.181
 3604SOL    HW211259   2.932   3.094   1.017
 3605SOL     OW11260   3.500   2.961   1.079
 3605SOL    HW111261   3.505   3.042   1.138
 3605SOL    HW211262   3.414   2.963   1.028
 3606SOL     OW11263   2.777   1.951   1.402
 3606SOL    HW111264   2.802   1.931   1.307
 3606SOL    HW211265   2.849   2.007   1.444
 3607SOL     OW11266   2.842   2.978   1.719
 3607SOL    HW111267   2.743   2.984   1.729
 3607SOL    HW211268   2.865   2.898   1.663
 3608SOL     OW11269   2.567   2.912   0.368
 3608SOL    HW111270   2.553   2.919   0.467
 3608SOL    HW211271   2.651   2.861   0.350
 3609SOL     OW11272   2.272   2.675   1.251
 3609SOL    HW111273   2.358   2.687   1.301
 3609SOL    HW211274   2.230   2.588   1.278
 3610SOL     OW11275   3.136   2.248   1.262
 3610SOL    HW111276   3.157   2.322   1.326
 3610SOL    HW211277   3.047   2.265   1.219
 3611SOL     OW11278   1.926   3.426   1.331
 3611SOL    HW111279   1.880   3.508   1.297
 3611SOL    HW211280   2.024   3.445   1.340
 3612SOL     OW11281   2.229   2.962   0.501
 3612SOL    HW111282   2.222   3.045   0.445
 3612SOL    HW211283   2.233   2.882   0.441
 3613SOL     OW11284   2.428   2.399   0.865
 3613SOL    HW111285   2.440   2.465   0.791
 3613SOL    HW211286   2.474   2.433   0.948
 3614SOL     OW11287   3.114   3.210   0.388
 3614SOL    HW111288   3.164   3.287   0.428
 3614SOL    HW211289   3.019   3.212   0.420
 3615SOL     OW11290   3.134   3.307   1.142
 3615SOL    HW111291   3.181   3.320   1.229
 3615SOL    HW211292   3.068   3.233   1.151
 3616SOL     OW11293   3.444   2.501   0.472
 3616SOL    HW111294   3.413   2.562   0.545
 3616SOL    HW211295   3.494   2.553   0.403
 3617SOL     OW11296   2.216   3.372   1.329
 3617SOL    HW111297   2.195   3.328   1.242
 3617SOL    HW211298   2.313   3.398   1.332
 3618SOL     OW11299   2.264   2.613   1.598
 3618SOL    HW111300   2.332   2.668   1.551
 3618SOL    HW211301   2.304   2.525   1.625
 3619SOL     OW11302   3.449   2.641   1.670
 3619SOL    HW111303   3.357   2.679   1.665
 3619SOL    HW211304   3.509   2.688   1.605
 3620SOL     OW11305   2.875   1.967   1.770
 3620SOL    HW111306   2.881   2.052   1.718
 3620SOL    HW211307   2.907   1.891   1.713
 3621SOL     OW11308   2.366   1.912   1.740
 3621SOL    HW111309   2.324   1.855   1.670
 3621SOL    HW211310   2.300   1.981   1.772
 3622SOL     OW11311   3.222   2.724   1.045
 3622SOL    HW111312   3.147   2.724   0.979
 3622SOL    HW211313   3.259   2.632   1.054
 3623SOL     OW11314   3.071   2.387   0.275
 3623SOL    HW111315   3.084   2.303   0.329
 3623SOL    HW211316   3.042   2.461   0.335
 3624SOL     OW11317   2.169   2.075   1.231
 3624SOL    HW111318   2.146   2.112   1.321
 3624SOL    HW211319   2.139   1.980   1.225
 3625SOL     OW11320   1.899   3.172   1.282
 3625SOL    HW111321   1.952   3.123   1.350
 3625SOL    HW211322   1.921   3.270   1.287
 3626SOL     OW11323   3.590   2.797   1.854
 3626SOL    HW111324   3.544   2.790   1.765
 3626SOL    HW211325   3.528   2.841   1.920
 3627SOL     OW11326   2.169   1.925   0.618
 3627SOL    HW111327   2.158   2.019   0.651
 3627SOL    HW211328   2.164   1.862   0.695
 3628SOL     OW11329   3.484   2.229   0.374
 3628SOL    HW111330   3.486   2.153   0.438
 3628SOL    HW211331   3.436   2.306   0.414
 3629SOL     OW11332   2.842   3.435   1.700
 3629SOL    HW111333   2.822   3.479   1.612
 3629SOL    HW211334   2.881   3.344   1.684
 3630SOL     OW11335   3.721   3.380   1.605
 3630SOL    HW111336   3.735   3.407   1.510
 3630SOL    HW211337   3.804   3.402   1.658
 3631SOL     OW11338   2.212   2.760   1.804
 3631SOL    HW111339   2.288   2.804   1.852
 3631SOL    HW211340   2.247   2.713   1.722
 3632SOL     OW11341   3.402   2.136   0.125
 3632SOL    HW111342   3.341   2.061   0.148
 3632SOL    HW211343   3.424   2.188   0.208
 3633SOL     OW11344   3.165   2.700   0.042
 3633SOL    HW111345   3.199   2.607   0.057
 3633SOL    HW211346   3.183   2.727  -0.053
 3634SOL     OW11347   2.930   3.195   0.849
 3634SOL    HW111348   2.937   3.111   0.794
 3634SOL    HW211349   2.992   3.264   0.813
 3635SOL     OW11350   2.181   2.672   0.949
 3635SOL    HW111351   2.274   2.708   0.954
 3635SOL    HW211352   2.175   2.587   1.001
 3636SOL     OW11353   2.201   2.371   1.006
 3636SOL    HW111354   2.149   2.288   0.989
 3636SOL    HW211355   2.278   2.376   0.942
 3637SOL     OW11356   3.000   2.242   1.678
 3637SOL    HW111357   2.955   2.305   1.742
 3637SOL    HW211358   3.093   2.273   1.661
 3638SOL     OW11359   3.022   2.069   1.477
 3638SOL    HW111360   3.022   2.133   1.554
 3638SOL    HW211361   3.050   2.117   1.394
 3639SOL     OW11362   1.870   3.188   0.200
 3639SOL    HW111363   1.777   3.209   0.169
 3639SOL    HW211364   1.880   3.089   0.213
 3640SOL     OW11365   1.950   3.663   0.927
 3640SOL    HW111366   1.908   3.577   0.900
 3640SOL    HW211367   2.044   3.666   0.893
 3641SOL     OW11368   2.366   3.430   0.910
 3641SOL    HW111369   2.432   3.504   0.919
 3641SOL    HW211370   2.410   3.351   0.868
 3642SOL     OW11371   1.902   2.406   1.114
 3642SOL    HW111372   1.987   2.373   1.073
 3642SOL    HW211373   1.915   2.421   1.212
 3643SOL     OW11374   2.051   2.382   1.722
 3643SOL    HW111375   2.110   2.342   1.652
 3643SOL    HW211376   1.993   2.453   1.681
 3644SOL     OW11377   3.231   2.812   1.660
 3644SOL    HW111378   3.270   2.901   1.680
 3644SOL    HW211379   3.241   2.792   1.563
 3645SOL     OW11380   3.519   2.466   1.206
 3645SOL    HW111381   3.481   2.397   1.268
 3645SOL    HW211382   3.601   2.430   1.162
 3646SOL     OW11383   2.114   3.426   1.744
 3646SOL    HW111384   2.084   3.483   1.820
 3646SOL    HW211385   2.107   3.329   1.770
 3647SOL     OW11386   2.533   2.326   1.269
 3647SOL    HW111387   2.499   2.237   1.239
 3647SOL    HW211388   2.559   2.380   1.189
 3648SOL     OW11389   2.792   3.540   1.465
 3648SOL    HW111390   2.768   3.522   1.370
 3648SOL    HW211391   2.822   3.634   1.475
 3649SOL     OW11392   2.335   2.362   0.191
 3649SOL    HW111393   2.396   2.442   0.195
 3649SOL    HW211394   2.240   2.393   0.198
 3650SOL     OW11395   2.021   2.999   1.466
 3650SOL    HW111396   2.043   2.938   1.542
 3650SOL    HW211397   2.031   2.950   1.380
 3651SOL     OW11398   3.209   2.921   1.234
 3651SOL    HW111399   3.233   2.858   1.160
 3651SOL    HW211400   3.119   2.961   1.216
 3652SOL     OW11401   3.164   2.717   0.309
 3652SOL    HW111402   3.078   2.686   0.351
 3652SOL    HW211403   3.160   2.703   0.210
 3653SOL     OW11404   3.621   3.609   1.154
 3653SOL    HW111405   3.682   3.639   1.081
 3653SOL    HW211406   3.583   3.520   1.132
 3654SOL     OW11407   3.114   3.593   1.128
 3654SOL    HW111408   3.198   3.598   1.074
 3654SOL    HW211409   3.091   3.497   1.146
 3655SOL     OW11410   1.945   3.120   1.022
 3655SOL    HW111411   1.940   3.119   1.122
 3655SOL    HW211412   1.862   3.079   0.984
 3656SOL     OW11413   2.550   3.524   1.716
 3656SOL    HW111414   2.494   3.605   1.725
 3656SOL    HW211415   2.602   3.528   1.630
 3657SOL     OW11416   2.765   1.948   0.133
 3657SOL    HW111417   2.816   1.949   0.047
 3657SOL    HW211418   2.821   1.906   0.204
 3658SOL     OW11419   3.588   1.997   0.523
 3658SOL    HW111420   3.661   1.980   0.456
 3658SOL    HW211421   3.557   1.910   0.561
 3659SOL     OW11422   3.250   3.435   0.477
 3659SOL    HW111423   3.317   3.447   0.403
 3659SOL    HW211424   3.210   3.524   0.500
 3660SOL     OW11425   1.992   3.656   1.851
 3660SOL    HW111426   1.951   3.582   1.904
 3660SOL    HW211427   2.056   3.707   1.909
 3661SOL     OW11428   3.142   2.789   0.672
 3661SOL    HW111429   3.202   2.708   0.674
 3661SOL    HW211430   3.182   2.858   0.612
 3662SOL     OW11431   2.692   3.135   1.422
 3662SOL    HW111432   2.687   3.168   1.517
 3662SOL    HW211433   2.606   3.154   1.376
 3663SOL     OW11434   2.534   3.478   0.154
 3663SOL    HW111435   2.543   3.488   0.055
 3663SOL    HW211436   2.494   3.389   0.175
 3664SOL     OW11437   3.512   3.582   1.394
 3664SOL    HW111438   3.565   3.592   1.310
 3664SOL    HW211439   3.485   3.672   1.428
 3665SOL     OW11440   3.703   2.037   0.963
 3665SOL    HW111441   3.742   1.952   0.927
 3665SOL    HW211442   3.605   2.039   0.944
 3666SOL     OW11443   2.125   2.188   0.720
 3666SOL    HW111444   2.046   2.239   0.686
 3666SOL    HW211445   2.116   2.173   0.818
 3667SOL     OW11446   3.056   3.474   0.031
 3667SOL    HW111447   3.062   3.381   0.068
 3667SOL    HW211448   2.997   3.474  -0.049
 3668SOL     OW11449   3.366   3.469   0.044
 3668SOL    HW111450   3.274   3.506   0.051
 3668SOL    HW211451   3.404   3.489  -0.046
 3669SOL     OW11452   2.234   3.150   1.490
 3669SOL    HW111453   2.221   3.243   1.456
 3669SOL    HW211454   2.150   3.098   1.477
 3670SOL     OW11455   3.476   3.154   1.289
 3670SOL    HW111456   3.536   3.157   1.369
 3670SOL    HW211457   3.401   3.218   1.302
 3671SOL     OW11458   2.901   2.960   0.696
 3671SOL    HW111459   2.831   2.913   0.750
 3671SOL    HW211460   2.960   2.892   0.653
 3672SOL     OW11461   2.876   2.098   0.971
 3672SOL    HW111462   2.868   2.062   0.878
 3672SOL    HW211463   2.874   2.022   1.036
 3673SOL     OW11464   2.452   3.349   0.491
 3673SOL    HW111465   2.494   3.291   0.421
 3673SOL    HW211466   2.408   3.428   0.447
 3674SOL     OW11467   3.571   2.247   1.381
 3674SOL    HW111468   3.644   2.316   1.385
 3674SOL    HW211469   3.599   2.172   1.322
 3675SOL     OW11470   2.117   3.210   0.290
 3675SOL    HW111471   2.021   3.211   0.263
 3675SOL    HW211472   2.129   3.263   0.374
 3676SOL     OW11473   1.967   2.875   1.726
 3676SOL    HW111474   1.890   2.842   1.780
 3676SOL    HW211475   2.052   2.845   1.768
 3677SOL     OW11476   2.534   2.065   1.489
 3677SOL    HW111477   2.624   2.049   1.449
 3677SOL    HW211478   2.542   2.070   1.588
 3678SOL     OW11479   1.937   2.207   0.033
 3678SOL    HW111480   1.845   2.179   0.004
 3678SOL    HW211481   1.968   2.284  -0.023
 3679SOL     OW11482   3.302   2.718   1.398
 3679SOL    HW111483   3.245   2.770   1.335
 3679SOL    HW211484   3.398   2.730   1.374
 3680SOL     OW11485   1.934   2.028   0.318
 3680SOL    HW111486   1.917   2.111   0.264
 3680SOL    HW211487   2.024   1.991   0.296
 3681SOL     OW11488   3.045   3.197   0.119
 3681SOL    HW111489   2.946   3.186   0.121
 3681SOL    HW211490   3.079   3.212   0.212
 3682SOL     OW11491   3.355   3.629   0.959
 3682SOL    HW111492   3.388   3.693   0.890
 3682SOL    HW211493   3.421   3.623   1.034
 3683SOL     OW11494   3.312   3.082   1.633
 3683SOL    HW111495   3.303   3.072   1.732
 3683SOL    HW211496   3.408   3.075   1.607
 3684SOL     OW11497   2.252   3.603   1.560
 3684SOL    HW111498   2.161   3.644   1.558
 3684SOL    HW211499   2.245   3.509   1.592
 3685SOL     OW11500   3.536   2.745   1.254
 3685SOL    HW111501   3.509   2.656   1.217
 3685SOL    HW211502   3.537   2.813   1.181
 3686SOL     OW11503   3.087   2.187   0.449
 3686SOL    HW111504   3.152   2.113   0.438
 3686SOL    HW211505   3.107   2.237   0.533
 3687SOL     OW11506   3.639   2.204   1.642
 3687SOL    HW111507   3.622   2.235   1.548
 3687SOL    HW211508   3.555   2.167   1.680
 3688SOL     OW11509   3.592   2.796   1.517
 3688SOL    HW111510   3.630   2.887   1.532
 3688SOL    HW211511   3.584   2.779   1.418
 3689SOL     OW11512   2.721   3.236   0.016
 3689SOL    HW111513   2.675   3.251   0.104
 3689SOL    HW211514   2.765   3.321  -0.014
 3690SOL     OW11515   2.523   3.652   0.953
 3690SOL    HW111516   2.477   3.740   0.940
 3690SOL    HW211517   2.622   3.664   0.946
 3691SOL     OW11518   2.945   2.846   0.087
 3691SOL    HW111519   2.922   2.899   0.005
 3691SOL    HW211520   3.026   2.790   0.068
 3692SOL     OW11521   3.723   3.431   0.851
 3692SOL    HW111522   3.652   3.419   0.781
 3692SOL    HW211523   3.724   3.352   0.911
 3693SOL     OW11524   2.083   3.176   1.844
 3693SOL    HW111525   2.018   3.103   1.823
 3693SOL    HW211526   2.087   3.190   1.942
 3694SOL     OW11527   1.941   3.102   0.653
 3694SOL    HW111528   1.940   3.055   0.741
 3694SOL    HW211529   2.023   3.074   0.602
 3695SOL     OW11530   2.534   3.253   1.624
 3695SOL    HW111531   2.456   3.203   1.662
 3695SOL    HW211532   2.531   3.348   1.655
 3696SOL     OW11533   3.686   2.054   1.227
 3696SOL    HW111534   3.682   1.964   1.271
 3696SOL    HW211535   3.689   2.043   1.128
 3697SOL     OW11536   2.290   2.286   0.520
 3697SOL    HW111537   2.320   2.214   0.458
 3697SOL    HW211538   2.251   2.246   0.603
 3698SOL     OW11539   3.567   3.349   1.104
 3698SOL    HW111540   3.474   3.324   1.077
 3698SOL    HW211541   3.593   3.299   1.186
 3699SOL     OW11542   2.179   2.409   1.280
 3699SOL    HW111543   2.217   2.350   1.352
 3699SOL    HW211544   2.219   2.383   1.192
 3700SOL     OW11545   2.674   3.448   0.687
 3700SOL    HW111546   2.706   3.458   0.593
 3700SOL    HW211547   2.595   3.386   0.689
 3701SOL     OW11548   3.286   2.076   1.112
 3701SOL    HW111549   3.338   2.011   1.167
 3701SOL    HW211550   3.237   2.139   1.173
 3702SOL     OW11551   2.863   1.896   1.154
 3702SOL    HW111552   2.800   1.824   1.123
 3702SOL    HW211553   2.956   1.860   1.154
 3703SOL     OW11554   2.632   3.192   0.301
 3703SOL    HW111555   2.586   3.105   0.318
 3703SOL    HW211556   2.723   3.189   0.342
 3704SOL     OW11557   2.480   3.429   1.284
 3704SOL    HW111558   2.475   3.511   1.341
 3704SOL    HW211559   2.569   3.426   1.239
 3705SOL     OW11560   3.214   1.914   0.168
 3705SOL    HW111561   3.249   1.873   0.084
 3705SOL    HW211562   3.124   1.876   0.188
 3706SOL     OW11563   3.162   2.315   0.691
 3706SOL    HW111564   3.103   2.395   0.695
 3706SOL    HW211565   3.177   2.280   0.784
 3707SOL     OW11566   3.455   2.083   0.882
 3707SOL    HW111567   3.371   2.082   0.936
 3707SOL    HW211568   3.457   2.166   0.826
 3708SOL     OW11569   1.901   2.939   0.300
 3708SOL    HW111570   2.000   2.928   0.291
 3708SOL    HW211571   1.861   2.853   0.332
 3709SOL     OW11572   2.737   3.508   0.337
 3709SOL    HW111573   2.660   3.473   0.283
 3709SOL    HW211574   2.705   3.579   0.399
 3710SOL     OW11575   2.092   2.490   1.975
 3710SOL    HW111576   1.999   2.488   2.012
 3710SOL    HW211577   2.093   2.451   1.883
 3711SOL     OW11578   2.087   2.137   2.858
 3711SOL    HW111579   2.122   2.120   2.950
 3711SOL    HW211580   1.999   2.092   2.846
 3712SOL     OW11581   1.881   2.230   2.509
 3712SOL    HW111582   1.799   2.273   2.548
 3712SOL    HW211583   1.853   2.157   2.446
 3713SOL     OW11584   2.431   3.137   3.027
 3713SOL    HW111585   2.338   3.130   2.990
 3713SOL    HW211586   2.442   3.226   3.071
 3714SOL     OW11587   3.417   3.373   2.565
 3714SOL    HW111588   3.360   3.357   2.646
 3714SOL    HW211589   3.358   3.383   2.485
 3715SOL     OW11590   2.997   2.565   2.579
 3715SOL    HW111591   3.054   2.643   2.554
 3715SOL    HW211592   2.937   2.591   2.655
 3716SOL     OW11593   3.617   2.469   2.093
 3716SOL    HW111594   3.605   2.456   1.994
 3716SOL    HW211595   3.587   2.388   2.142
 3717SOL     OW11596   2.630   3.006   2.885
 3717SOL    HW111597   2.552   3.023   2.945
 3717SOL    HW211598   2.664   3.093   2.849
 3718SOL     OW11599   2.197   3.297   2.923
 3718SOL    HW111600   2.119   3.266   2.870
 3718SOL    HW211601   2.255   3.355   2.866
 3719SOL     OW11602   3.322   3.367   3.201
 3719SOL    HW111603   3.346   3.461   3.227
 3719SOL    HW211604   3.306   3.313   3.283
 3720SOL     OW11605   2.300   2.254   3.361
 3720SOL    HW111606   2.382   2.198   3.370
 3720SOL    HW211607   2.219   2.196   3.365
 3721SOL     OW11608   3.465   2.309   2.599
 3721SOL    HW111609   3.391   2.355   2.549
 3721SOL    HW211610   3.516   2.377   2.652
 3722SOL     OW11611   2.093   3.575   2.345
 3722SOL    HW111612   2.127   3.652   2.399
 3722SOL    HW211613   2.137   3.575   2.255
 3723SOL     OW11614   2.092   3.296   2.400
 3723SOL    HW111615   2.066   3.392   2.400
 3723SOL    HW211616   2.021   3.242   2.445
 3724SOL     OW11617   2.102   2.953   2.748
 3724SOL    HW111618   2.116   2.869   2.800
 3724SOL    HW211619   2.047   3.017   2.803
 3725SOL     OW11620   2.482   3.648   3.301
 3725SOL    HW111621   2.390   3.631   3.336
 3725SOL    HW211622   2.510   3.740   3.327
 3726SOL     OW11623   2.468   2.826   1.985
 3726SOL    HW111624   2.475   2.910   1.931
 3726SOL    HW211625   2.514   2.839   2.073
 3727SOL     OW11626   3.456   1.976   3.342
 3727SOL    HW111627   3.438   2.043   3.270
 3727SOL    HW211628   3.453   2.022   3.431
 3728SOL     OW11629   1.984   2.505   2.425
 3728SOL    HW111630   1.939   2.417   2.442
 3728SOL    HW211631   1.983   2.559   2.509
 3729SOL     OW11632   3.704   3.629   2.221
 3729SOL    HW111633   3.758   3.600   2.301
 3729SOL    HW211634   3.734   3.719   2.192
 3730SOL     OW11635   1.889   3.458   1.979
 3730SOL    HW111636   1.870   3.362   2.000
 3730SOL    HW211637   1.856   3.516   2.054
 3731SOL     OW11638   3.551   2.784   2.474
 3731SOL    HW111639   3.646   2.755   2.482
 3731SOL    HW211640   3.543   2.849   2.399
 3732SOL     OW11641   3.503   2.970   2.294
 3732SOL    HW111642   3.589   2.972   2.242
 3732SOL    HW211643   3.517   3.017   2.382
 3733SOL     OW11644   2.475   3.227   2.588
 3733SOL    HW111645   2.426   3.140   2.597
 3733SOL    HW211646   2.452   3.270   2.501
 3734SOL     OW11647   3.155   3.090   3.285
 3734SOL    HW111648   3.192   3.017   3.227
 3734SOL    HW211649   3.207   3.095   3.370
 3735SOL     OW11650   2.671   1.866   2.364
 3735SOL    HW111651   2.711   1.957   2.355
 3735SOL    HW211652   2.571   1.874   2.370
 3736SOL     OW11653   2.059   2.838   3.126
 3736SOL    HW111654   2.148   2.793   3.112
 3736SOL    HW211655   1.986   2.773   3.107
 3737SOL     OW11656   3.387   2.861   2.052
 3737SOL    HW111657   3.324   2.785   2.065
 3737SOL    HW211658   3.435   2.879   2.138
 3738SOL     OW11659   3.049   3.654   3.478
 3738SOL    HW111660   3.073   3.714   3.402
 3738SOL    HW211661   3.056   3.559   3.448
 3739SOL     OW11662   3.328   3.279   2.815
 3739SOL    HW111663   3.269   3.285   2.895
 3739SOL    HW211664   3.313   3.191   2.769
 3740SOL     OW11665   3.529   3.576   2.434
 3740SOL    HW111666   3.488   3.553   2.346
 3740SOL    HW211667   3.511   3.502   2.499
 3741SOL     OW11668   3.143   2.207   2.806
 3741SOL    HW111669   3.057   2.157   2.793
 3741SOL    HW211670   3.205   2.153   2.862
 3742SOL     OW11671   3.438   3.524   2.169
 3742SOL    HW111672   3.527   3.570   2.172
 3742SOL    HW211673   3.417   3.500   2.074
 3743SOL     OW11674   3.256   2.331   3.536
 3743SOL    HW111675   3.236   2.374   3.624
 3743SOL    HW211676   3.334   2.269   3.545
 3744SOL     OW11677   2.853   2.272   3.104
 3744SOL    HW111678   2.776   2.306   3.158
 3744SOL    HW211679   2.819   2.221   3.025
 3745SOL     OW11680   1.938   2.673   2.651
 3745SOL    HW111681   2.037   2.661   2.660
 3745SOL    HW211682   1.914   2.768   2.672
 3746SOL     OW11683   1.992   3.683   3.433
 3746SOL    HW111684   1.982   3.668   3.532
 3746SOL    HW211685   1.906   3.719   3.397
 3747SOL     OW11686   2.727   2.210   2.057
 3747SOL    HW111687   2.786   2.273   2.008
 3747SOL    HW211688   2.746   2.116   2.028
 3748SOL     OW11689   3.581   2.447   3.693
 3748SOL    HW111690   3.555   2.536   3.657
 3748SOL    HW211691   3.579   2.379   3.620
 3749SOL     OW11692   3.224   3.006   2.407
 3749SOL    HW111693   3.307   2.977   2.359
 3749SOL    HW211694   3.175   3.073   2.351
 3750SOL     OW11695   2.412   2.058   2.747
 3750SOL    HW111696   2.407   2.053   2.847
 3750SOL    HW211697   2.414   2.154   2.718
 3751SOL     OW11698   2.870   3.318   2.339
 3751SOL    HW111699   2.824   3.390   2.287
 3751SOL    HW211700   2.866   3.338   2.437
 3752SOL     OW11701   2.213   3.663   2.715
 3752SOL    HW111702   2.263   3.577   2.721
 3752SOL    HW211703   2.278   3.740   2.712
 3753SOL     OW11704   3.657   2.928   2.735
 3753SOL    HW111705   3.595   2.913   2.659
 3753SOL    HW211706   3.605   2.939   2.820
 3754SOL     OW11707   3.089   3.412   3.368
 3754SOL    HW111708   3.095   3.335   3.432
 3754SOL    HW211709   3.037   3.386   3.288
 3755SOL     OW11710   2.183   2.805   2.104
 3755SOL    HW111711   2.265   2.844   2.062
 3755SOL    HW211712   2.156   2.723   2.055
 3756SOL     OW11713   3.320   2.597   2.590
 3756SOL    HW111714   3.315   2.532   2.665
 3756SOL    HW211715   3.400   2.656   2.603
 3757SOL     OW11716   2.323   3.128   3.589
 3757SOL    HW111717   2.273   3.129   3.503
 3757SOL    HW211718   2.260   3.110   3.665
 3758SOL     OW11719   2.973   3.638   2.099
 3758SOL    HW111720   2.913   3.576   2.149
 3758SOL    HW211721   3.004   3.594   2.014
 3759SOL     OW11722   3.494   3.239   1.943
 3759SOL    HW111723   3.462   3.333   1.933
 3759SOL    HW211724   3.418   3.176   1.931
 3760SOL     OW11725   2.326   3.605   2.185
 3760SOL    HW111726   2.359   3.644   2.271
 3760SOL    HW211727   2.402   3.598   2.120
 3761SOL     OW11728   3.262   1.969   2.288
 3761SOL    HW111729   3.238   1.932   2.198
 3761SOL    HW211730   3.361   1.985   2.292
 3762SOL     OW11731   2.111   3.647   3.103
 3762SOL    HW111732   2.168   3.582   3.153
 3762SOL    HW211733   2.095   3.614   3.010
 3763SOL     OW11734   2.802   3.560   2.766
 3763SOL    HW111735   2.882   3.503   2.787
 3763SOL    HW211736   2.753   3.520   2.689
 3764SOL     OW11737   2.244   2.562   2.342
 3764SOL    HW111738   2.289   2.472   2.339
 3764SOL    HW211739   2.150   2.551   2.375
 3765SOL     OW11740   3.409   2.084   3.591
 3765SOL    HW111741   3.404   2.121   3.683
 3765SOL    HW211742   3.337   2.015   3.579
 3766SOL     OW11743   2.476   1.984   1.979
 3766SOL    HW111744   2.574   1.962   1.986
 3766SOL    HW211745   2.445   1.967   1.886
 3767SOL     OW11746   2.750   3.376   3.057
 3767SOL    HW111747   2.727   3.351   2.963
 3767SOL    HW211748   2.811   3.307   3.096
 3768SOL     OW11749   3.213   2.452   3.295
 3768SOL    HW111750   3.241   2.409   3.380
 3768SOL    HW211751   3.238   2.548   3.296
 3769SOL     OW11752   2.665   3.264   2.786
 3769SOL    HW111753   2.755   3.278   2.744
 3769SOL    HW211754   2.594   3.266   2.715
 3770SOL     OW11755   2.784   2.365   2.761
 3770SOL    HW111756   2.759   2.356   2.665
 3770SOL    HW211757   2.832   2.283   2.792
 3771SOL     OW11758   2.401   1.926   2.374
 3771SOL    HW111759   2.320   1.927   2.432
 3771SOL    HW211760   2.404   2.009   2.319
 3772SOL     OW11761   3.296   3.050   1.903
 3772SOL    HW111762   3.328   2.974   1.960
 3772SOL    HW211763   3.204   3.077   1.933
 3773SOL     OW11764   2.159   1.897   2.033
 3773SOL    HW111765   2.208   1.981   2.012
 3773SOL    HW211766   2.221   1.832   2.078
 3774SOL     OW11767   2.797   2.098   2.342
 3774SOL    HW111768   2.749   2.139   2.264
 3774SOL    HW211769   2.896   2.096   2.323
 3775SOL     OW11770   2.938   2.545   3.326
 3775SOL    HW111771   2.858   2.484   3.329
 3775SOL    HW211772   3.019   2.492   3.302
 3776SOL     OW11773   3.089   3.432   2.655
 3776SOL    HW111774   3.110   3.506   2.590
 3776SOL    HW211775   3.157   3.432   2.728
 3777SOL     OW11776   2.321   3.014   2.603
 3777SOL    HW111777   2.250   2.987   2.668
 3777SOL    HW211778   2.295   2.986   2.510
 3778SOL     OW11779   3.133   3.659   2.453
 3778SOL    HW111780   3.177   3.723   2.389
 3778SOL    HW211781   3.083   3.711   2.523
 3779SOL     OW11782   2.894   2.411   1.878
 3779SOL    HW111783   2.853   2.493   1.839
 3779SOL    HW211784   2.958   2.437   1.951
 3780SOL     OW11785   1.940   2.418   3.248
 3780SOL    HW111786   2.032   2.417   3.207
 3780SOL    HW211787   1.934   2.492   3.315
 3781SOL     OW11788   2.423   2.084   3.009
 3781SOL    HW111789   2.461   2.000   3.046
 3781SOL    HW211790   2.335   2.103   3.053
 3782SOL     OW11791   2.728   2.316   2.504
 3782SOL    HW111792   2.696   2.388   2.442
 3782SOL    HW211793   2.752   2.235   2.451
 3783SOL     OW11794   2.879   1.901   2.615
 3783SOL    HW111795   2.807   1.906   2.546
 3783SOL    HW211796   2.855   1.832   2.684
 3784SOL     OW11797   3.291   3.035   2.729
 3784SOL    HW111798   3.236   2.951   2.722
 3784SOL    HW211799   3.317   3.064   2.637
 3785SOL     OW11800   3.328   2.452   2.854
 3785SOL    HW111801   3.298   2.357   2.861
 3785SOL    HW211802   3.401   2.468   2.920
 3786SOL     OW11803   3.719   2.695   2.239
 3786SOL    HW111804   3.761   2.631   2.303
 3786SOL    HW211805   3.681   2.644   2.161
 3787SOL     OW11806   2.350   3.247   2.036
 3787SOL    HW111807   2.263   3.232   2.083
 3787SOL    HW211808   2.333   3.273   1.941
 3788SOL     OW11809   3.526   3.142   2.519
 3788SOL    HW111810   3.625   3.150   2.533
 3788SOL    HW211811   3.481   3.226   2.550
 3789SOL     OW11812   3.252   2.437   1.940
 3789SOL    HW111813   3.198   2.416   2.021
 3789SOL    HW211814   3.343   2.396   1.949
 3790SOL     OW11815   2.389   2.118   2.190
 3790SOL    HW111816   2.416   2.059   2.115
 3790SOL    HW211817   2.389   2.213   2.159
 3791SOL     OW11818   3.616   3.085   3.450
 3791SOL    HW111819   3.707   3.046   3.437
 3791SOL    HW211820   3.624   3.181   3.474
 3792SOL     OW11821   2.926   3.209   3.202
 3792SOL    HW111822   2.846   3.186   3.257
 3792SOL    HW211823   3.009   3.183   3.251
 3793SOL     OW11824   3.454   3.491   3.487
 3793SOL    HW111825   3.481   3.525   3.397
 3793SOL    HW211826   3.533   3.453   3.533
 3794SOL     OW11827   2.973   3.057   2.962
 3794SOL    HW111828   2.933   3.101   3.043
 3794SOL    HW211829   2.932   3.094   2.879
 3795SOL     OW11830   3.500   2.961   2.941
 3795SOL    HW111831   3.505   3.042   3.000
 3795SOL    HW211832   3.414   2.963   2.890
 3796SOL     OW11833   2.777   1.951   3.264
 3796SOL    HW111834   2.802   1.931   3.169
 3796SOL    HW211835   2.849   2.007   3.306
 3797SOL     OW11836   2.272   2.675   3.113
 3797SOL    HW111837   2.358   2.687   3.163
 3797SOL    HW211838   2.230   2.588   3.140
 3798SOL     OW11839   3.136   2.248   3.124
 3798SOL    HW111840   3.157   2.322   3.188
 3798SOL    HW211841   3.047   2.265   3.081
 3799SOL     OW11842   1.926   3.426   3.193
 3799SOL    HW111843   1.880   3.508   3.159
 3799SOL    HW211844   2.024   3.445   3.202
 3800SOL     OW11845   2.229   2.962   2.363
 3800SOL    HW111846   2.222   3.045   2.307
 3800SOL    HW211847   2.233   2.882   2.303
 3801SOL     OW11848   2.428   2.399   2.727
 3801SOL    HW111849   2.440   2.465   2.653
 3801SOL    HW211850   2.474   2.433   2.810
 3802SOL     OW11851   3.114   3.210   2.250
 3802SOL    HW111852   3.164   3.287   2.290
 3802SOL    HW211853   3.019   3.212   2.282
 3803SOL     OW11854   3.134   3.307   3.004
 3803SOL    HW111855   3.181   3.320   3.091
 3803SOL    HW211856   3.068   3.233   3.013
 3804SOL     OW11857   3.444   2.501   2.334
 3804SOL    HW111858   3.413   2.562   2.407
 3804SOL    HW211859   3.494   2.553   2.265
 3805SOL     OW11860   2.216   3.372   3.191
 3805SOL    HW111861   2.195   3.328   3.104
 3805SOL    HW211862   2.313   3.398   3.194
 3806SOL     OW11863   2.264   2.613   3.460
 3806SOL    HW111864   2.332   2.668   3.413
 3806SOL    HW211865   2.304   2.525   3.487
 3807SOL     OW11866   2.366   1.912   3.602
 3807SOL    HW111867   2.324   1.855   3.532
 3807SOL    HW211868   2.300   1.981   3.634
 3808SOL     OW11869   3.222   2.724   2.907
 3808SOL    HW111870   3.147   2.724   2.841
 3808SOL    HW211871   3.259   2.632   2.916
 3809SOL     OW11872   3.071   2.387   2.137
 3809SOL    HW111873   3.084   2.303   2.191
 3809SOL    HW211874   3.042   2.461   2.197
 3810SOL     OW11875   2.169   2.075   3.093
 3810SOL    HW111876   2.146   2.112   3.183
 3810SOL    HW211877   2.139   1.980   3.087
 3811SOL     OW11878   1.899   3.172   3.144
 3811SOL    HW111879   1.952   3.123   3.212
 3811SOL    HW211880   1.921   3.270   3.149
 3812SOL     OW11881   3.590   2.797   3.716
 3812SOL    HW111882   3.544   2.790   3.627
 3812SOL    HW211883   3.528   2.841   3.782
 3813SOL     OW11884   2.169   1.925   2.480
 3813SOL    HW111885   2.158   2.019   2.513
 3813SOL    HW211886   2.164   1.862   2.557
 3814SOL     OW11887   3.484   2.229   2.236
 3814SOL    HW111888   3.486   2.153   2.300
 3814SOL    HW211889   3.436   2.306   2.276
 3815SOL     OW11890   2.842   3.435   3.562
 3815SOL    HW111891   2.822   3.479   3.474
 3815SOL    HW211892   2.881   3.344   3.546
 3816SOL     OW11893   3.721   3.380   3.467
 3816SOL    HW111894   3.735   3.407   3.372
 3816SOL    HW211895   3.804   3.402   3.520
 3817SOL     OW11896   2.212   2.760   3.666
 3817SOL    HW111897   2.288   2.804   3.714
 3817SOL    HW211898   2.247   2.713   3.584
 3818SOL     OW11899   3.402   2.136   1.987
 3818SOL    HW111900   3.341   2.061   2.010
 3818SOL    HW211901   3.424   2.188   2.070
 3819SOL     OW11902   3.165   2.700   1.904
 3819SOL    HW111903   3.199   2.607   1.919
 3819SOL    HW211904   3.183   2.727   1.809
 3820SOL     OW11905   2.930   3.195   2.711
 3820SOL    HW111906   2.937   3.111   2.656
 3820SOL    HW211907   2.992   3.264   2.675
 3821SOL     OW11908   2.181   2.672   2.811
 3821SOL    HW111909   2.274   2.708   2.816
 3821SOL    HW211910   2.175   2.587   2.863
 3822SOL     OW11911   2.201   2.371   2.868
 3822SOL    HW111912   2.149   2.288   2.851
 3822SOL    HW211913   2.278   2.376   2.804
 3823SOL     OW11914   3.000   2.242   3.540
 3823SOL    HW111915   2.955   2.305   3.604
 3823SOL    HW211916   3.093   2.273   3.523
 3824SOL     OW11917   3.022   2.069   3.339
 3824SOL    HW111918   3.022   2.133   3.416
 3824SOL    HW211919   3.050   2.117   3.256
 3825SOL     OW11920   1.870   3.188   2.062
 3825SOL    HW111921   1.777   3.209   2.031
 3825SOL    HW211922   1.880   3.089   2.075
 3826SOL     OW11923   1.950   3.663   2.789
 3826SOL    HW111924   1.908   3.577   2.762
 3826SOL    HW211925   2.044   3.666   2.755
 3827SOL     OW11926   2.366   3.430   2.772
 3827SOL    HW111927   2.432   3.504   2.781
 3827SOL    HW211928   2.410   3.351   2.730
 3828SOL     OW11929   1.902   2.406   2.976
 3828SOL    HW111930   1.987   2.373   2.935
 3828SOL    HW211931   1.915   2.421   3.074
 3829SOL     OW11932   2.677   2.434   2.187
 3829SOL    HW111933   2.684   2.345   2.141
 3829SOL    HW211934   2.583   2.468   2.179
 3830SOL     OW11935   3.519   2.466   3.068
 3830SOL    HW111936   3.481   2.397   3.130
 3830SOL    HW211937   3.601   2.430   3.024
 3831SOL     OW11938   2.114   3.426   3.606
 3831SOL    HW111939   2.084   3.483   3.682
 3831SOL    HW211940   2.107   3.329   3.632
 3832SOL     OW11941   2.533   2.326   3.131
 3832SOL    HW111942   2.499   2.237   3.101
 3832SOL    HW211943   2.559   2.380   3.051
 3833SOL     OW11944   2.792   3.540   3.327
 3833SOL    HW111945   2.768   3.522   3.232
 3833SOL    HW211946   2.822   3.634   3.337
 3834SOL     OW11947   2.335   2.362   2.053
 3834SOL    HW111948   2.396   2.442   2.057
 3834SOL    HW211949   2.240   2.393   2.060
 3835SOL     OW11950   2.021   2.999   3.328
 3835SOL    HW111951   2.043   2.938   3.404
 3835SOL    HW211952   2.031   2.950   3.242
 3836SOL     OW11953   3.209   2.921   3.096
 3836SOL    HW111954   3.233   2.858   3.022
 3836SOL    HW211955   3.119   2.961   3.078
 3837SOL     OW11956   3.164   2.717   2.171
 3837SOL    HW111957   3.078   2.686   2.213
 3837SOL    HW211958   3.160   2.703   2.072
 3838SOL     OW11959   3.621   3.609   3.016
 3838SOL    HW111960   3.682   3.639   2.943
 3838SOL    HW211961   3.583   3.520   2.994
 3839SOL     OW11962   3.114   3.593   2.990
 3839SOL    HW111963   3.198   3.598   2.936
 3839SOL    HW211964   3.091   3.497   3.008
 3840SOL     OW11965   1.945   3.120   2.884
 3840SOL    HW111966   1.940   3.119   2.984
 3840SOL    HW211967   1.862   3.079   2.846
 3841SOL     OW11968   2.550   3.524   3.578
 3841SOL    HW111969   2.494   3.605   3.587
 3841SOL    HW211970   2.602   3.528   3.492
 3842SOL     OW11971   3.588   1.997   2.385
 3842SOL    HW111972   3.661   1.980   2.318
 3842SOL    HW211973   3.557   1.910   2.423
 3843SOL     OW11974   3.250   3.435   2.339
 3843SOL    HW111975   3.317   3.447   2.265
 3843SOL    HW211976   3.210   3.524   2.362
 3844SOL     OW11977   1.992   3.656   3.713
 3844SOL    HW111978   1.951   3.582   3.766
 3844SOL    HW211979   2.056   3.707   3.771
 3845SOL     OW11980   3.142   2.789   2.534
 3845SOL    HW111981   3.202   2.708   2.536
 3845SOL    HW211982   3.182   2.858   2.474
 3846SOL     OW11983   2.692   3.135   3.284
 3846SOL    HW111984   2.687   3.168   3.379
 3846SOL    HW211985   2.606   3.154   3.238
 3847SOL     OW11986   2.534   3.478   2.016
 3847SOL    HW111987   2.543   3.488   1.917
 3847SOL    HW211988   2.494   3.389   2.037
 3848SOL     OW11989   3.512   3.582   3.256
 3848SOL    HW111990   3.565   3.592   3.172
 3848SOL    HW211991   3.485   3.672   3.290
 3849SOL     OW11992   3.703   2.037   2.825
 3849SOL    HW111993   3.742   1.952   2.789
 3849SOL    HW211994   3.605   2.039   2.806
 3850SOL     OW11995   2.125   2.188   2.582
 3850SOL    HW111996   2.046   2.239   2.548
 3850SOL    HW211997   2.116   2.173   2.680
 3851SOL     OW11998   3.056   3.474   1.893
 3851SOL    HW111999   3.062   3.381   1.930
 3851SOL    HW212000   2.997   3.474   1.813
 3852SOL     OW12001   3.366   3.469   1.906
 3852SOL    HW112002   3.274   3.506   1.913
 3852SOL    HW212003   3.404   3.489   1.816
 3853SOL     OW12004   2.234   3.150   3.352
 3853SOL    HW112005   2.221   3.243   3.318
 3853SOL    HW212006   2.150   3.098   3.339
 3854SOL     OW12007   3.476   3.154   3.151
 3854SOL    HW112008   3.536   3.157   3.231
 3854SOL    HW212009   3.401   3.218   3.164
 3855SOL     OW12010   2.901   2.960   2.558
 3855SOL    HW112011   2.831   2.913   2.612
 3855SOL    HW212012   2.960   2.892   2.515
 3856SOL     OW12013   2.876   2.098   2.833
 3856SOL    HW112014   2.868   2.062   2.740
 3856SOL    HW212015   2.874   2.022   2.898
 3857SOL     OW12016   2.452   3.349   2.353
 3857SOL    HW112017   2.494   3.291   2.283
 3857SOL    HW212018   2.408   3.428   2.309
 3858SOL     OW12019   3.571   2.247   3.243
 3858SOL    HW112020   3.644   2.316   3.247
 3858SOL    HW212021   3.599   2.172   3.184
 3859SOL     OW12022   2.117   3.210   2.152
 3859SOL    HW112023   2.021   3.211   2.125
 3859SOL    HW212024   2.129   3.263   2.236
 3860SOL     OW12025   1.967   2.875   3.588
 3860SOL    HW112026   1.890   2.842   3.642
 3860SOL    HW212027   2.052   2.845   3.630
 3861SOL     OW12028   1.937   2.207   1.895
 3861SOL    HW112029   1.845   2.179   1.866
 3861SOL    HW212030   1.968   2.284   1.839
 3862SOL     OW12031   3.302   2.718   3.260
 3862SOL    HW112032   3.245   2.770   3.197
 3862SOL    HW212033   3.398   2.730   3.236
 3863SOL     OW12034   1.934   2.028   2.180
 3863SOL    HW112035   1.917   2.111   2.126
 3863SOL    HW212036   2.024   1.991   2.158
 3864SOL     OW12037   3.045   3.197   1.981
 3864SOL    HW112038   2.946   3.186   1.983
 3864SOL    HW212039   3.079   3.212   2.074
 3865SOL     OW12040   3.355   3.629   2.821
 3865SOL    HW112041   3.388   3.693   2.752
 3865SOL    HW212042   3.421   3.623   2.896
 3866SOL     OW12043   2.252   3.603   3.422
 3866SOL    HW112044   2.161   3.644   3.420
 3866SOL    HW212045   2.245   3.509   3.454
 3867SOL     OW12046   3.536   2.745   3.116
 3867SOL    HW112047   3.509   2.656   3.079
 3867SOL    HW212048   3.537   2.813   3.043
 3868SOL     OW12049   3.087   2.187   2.311
 3868SOL    HW112050   3.152   2.113   2.300
 3868SOL    HW212051   3.107   2.237   2.395
 3869SOL     OW12052   3.639   2.204   3.504
 3869SOL    HW112053   3.622   2.235   3.410
 3869SOL    HW212054   3.555   2.167   3.542
 3870SOL     OW12055   3.592   2.796   3.379
 3870SOL    HW112056   3.630   2.887   3.394
 3870SOL    HW212057   3.584   2.779   3.280
 3871SOL     OW12058   2.721   3.236   1.878
 3871SOL    HW112059   2.675   3.251   1.966
 3871SOL    HW212060   2.765   3.321   1.848
 3872SOL     OW12061   2.523   3.652   2.815
 3872SOL    HW112062   2.477   3.740   2.802
 3872SOL    HW212063   2.622   3.664   2.808
 3873SOL     OW12064   2.945   2.846   1.949
 3873SOL    HW112065   2.922   2.899   1.867
 3873SOL    HW212066   3.026   2.790   1.930
 3874SOL     OW12067   3.723   3.431   2.713
 3874SOL    HW112068   3.652   3.419   2.643
 3874SOL    HW212069   3.724   3.352   2.773
 3875SOL     OW12070   1.941   3.102   2.515
 3875SOL    HW112071   1.940   3.055   2.603
 3875SOL    HW212072   2.023   3.074   2.464
 3876SOL     OW12073   3.686   2.054   3.089
 3876SOL    HW112074   3.682   1.964   3.133
 3876SOL    HW212075   3.689   2.043   2.990
 3877SOL     OW12076   2.290   2.286   2.382
 3877SOL    HW112077   2.320   2.214   2.320
 3877SOL    HW212078   2.251   2.246   2.465
 3878SOL     OW12079   3.567   3.349   2.966
 3878SOL    HW112080   3.474   3.324   2.939
 3878SOL    HW212081   3.593   3.299   3.048
 3879SOL     OW12082   2.179   2.409   3.142
 3879SOL    HW112083   2.217   2.350   3.214
 3879SOL    HW212084   2.219   2.383   3.054
 3880SOL     OW12085   2.674   3.448   2.549
 3880SOL    HW112086   2.706   3.458   2.455
 3880SOL    HW212087   2.595   3.386   2.551
 3881SOL     OW12088   3.286   2.076   2.974
 3881SOL    HW112089   3.338   2.011   3.029
 3881SOL    HW212090   3.237   2.139   3.035
 3882SOL     OW12091   2.863   1.896   3.016
 3882SOL    HW112092   2.800   1.824   2.985
 3882SOL    HW212093   2.956   1.860   3.016
 3883SOL     OW12094   2.632   3.192   2.163
 3883SOL    HW112095   2.586   3.105   2.180
 3883SOL    HW212096   2.723   3.189   2.204
 3884SOL     OW12097   2.480   3.429   3.146
 3884SOL    HW112098   2.475   3.511   3.203
 3884SOL    HW212099   2.569   3.426   3.101
 3885SOL     OW12100   3.214   1.914   2.030
 3885SOL    HW112101   3.249   1.873   1.946
 3885SOL    HW212102   3.124   1.876   2.050
 3886SOL     OW12103   3.162   2.315   2.553
 3886SOL    HW112104   3.103   2.395   2.557
 3886SOL    HW212105   3.177   2.280   2.646
 3887SOL     OW12106   3.455   2.083   2.744
 3887SOL    HW112107   3.371   2.082   2.798
 3887SOL    HW212108   3.457   2.166   2.688
 3888SOL     OW12109   1.901   2.939   2.162
 3888SOL    HW112110   2.000   2.928   2.153
 3888SOL    HW212111   1.861   2.853   2.194
 3889SOL     OW12112   2.737   3.508   2.199
 3889SOL    HW112113   2.660   3.473   2.145
 3889SOL    HW212114   2.705   3.579   2.261
 3890SOL     OW12115   2.087   2.137   4.720
 3890SOL    HW112116   2.122   2.120   4.812
 3890SOL    HW212117   1.999   2.092   4.708
 3891SOL     OW12118   2.431   3.137   4.889
 3891SOL    HW112119   2.338   3.130   4.852
 3891SOL    HW212120   2.442   3.226   4.933
 3892SOL     OW12121   3.417   3.373   4.427
 3892SOL    HW112122   3.360   3.357   4.508
 3892SOL    HW212123   3.358   3.383   4.347
 3893SOL     OW12124   2.630   3.006   4.747
 3893SOL    HW112125   2.552   3.023   4.807
 3893SOL    HW212126   2.664   3.093   4.711
 3894SOL     OW12127   2.548   3.023   5.527
 3894SOL    HW112128   2.608   3.102   5.541
 3894SOL    HW212129   2.462   3.054   5.486
 3895SOL     OW12130   2.197   3.297   4.785
 3895SOL    HW112131   2.119   3.266   4.732
 3895SOL    HW212132   2.255   3.355   4.728
 3896SOL     OW12133   3.322   3.367   5.063
 3896SOL    HW112134   3.346   3.461   5.089
 3896SOL    HW212135   3.306   3.313   5.145
 3897SOL     OW12136   2.300   2.254   5.223
 3897SOL    HW112137   2.382   2.198   5.232
 3897SOL    HW212138   2.219   2.196   5.227
 3898SOL     OW12139   3.465   2.309   4.461
 3898SOL    HW112140   3.391   2.355   4.411
 3898SOL    HW212141   3.516   2.377   4.514
 3899SOL     OW12142   2.093   3.575   4.207
 3899SOL    HW112143   2.127   3.652   4.261
 3899SOL    HW212144   2.137   3.575   4.117
 3900SOL     OW12145   2.989   3.203   5.414
 3900SOL    HW112146   3.036   3.203   5.502
 3900SOL    HW212147   2.941   3.116   5.403
 3901SOL     OW12148   2.482   3.648   5.163
 3901SOL    HW112149   2.390   3.631   5.198
 3901SOL    HW212150   2.510   3.740   5.189
 3902SOL     OW12151   2.468   2.826   3.847
 3902SOL    HW112152   2.475   2.910   3.793
 3902SOL    HW212153   2.514   2.839   3.935
 3903SOL     OW12154   3.456   1.976   5.204
 3903SOL    HW112155   3.438   2.043   5.132
 3903SOL    HW212156   3.453   2.022   5.293
 3904SOL     OW12157   3.704   3.629   4.083
 3904SOL    HW112158   3.758   3.600   4.163
 3904SOL    HW212159   3.734   3.719   4.054
 3905SOL     OW12160   1.889   3.458   3.841
 3905SOL    HW112161   1.870   3.362   3.862
 3905SOL    HW212162   1.856   3.516   3.916
 3906SOL     OW12163   3.551   2.784   4.336
 3906SOL    HW112164   3.646   2.755   4.344
 3906SOL    HW212165   3.543   2.849   4.261
 3907SOL     OW12166   3.503   2.970   4.156
 3907SOL    HW112167   3.589   2.972   4.104
 3907SOL    HW212168   3.517   3.017   4.244
 3908SOL     OW12169   1.975   2.599   5.321
 3908SOL    HW112170   2.063   2.586   5.366
 3908SOL    HW212171   1.962   2.696   5.299
 3909SOL     OW12172   2.475   3.227   4.450
 3909SOL    HW112173   2.426   3.140   4.459
 3909SOL    HW212174   2.452   3.270   4.363
 3910SOL     OW12175   3.155   3.090   5.147
 3910SOL    HW112176   3.192   3.017   5.089
 3910SOL    HW212177   3.207   3.095   5.232
 3911SOL     OW12178   2.059   2.838   4.988
 3911SOL    HW112179   2.148   2.793   4.974
 3911SOL    HW212180   1.986   2.773   4.969
 3912SOL     OW12181   3.049   3.654   5.340
 3912SOL    HW112182   3.073   3.714   5.264
 3912SOL    HW212183   3.056   3.559   5.310
 3913SOL     OW12184   2.179   2.113   5.525
 3913SOL    HW112185   2.250   2.184   5.531
 3913SOL    HW212186   2.091   2.152   5.553
 3914SOL     OW12187   3.328   3.279   4.677
 3914SOL    HW112188   3.269   3.285   4.757
 3914SOL    HW212189   3.313   3.191   4.631
 3915SOL     OW12190   3.529   3.576   4.296
 3915SOL    HW112191   3.488   3.553   4.208
 3915SOL    HW212192   3.511   3.502   4.361
 3916SOL     OW12193   3.438   3.524   4.031
 3916SOL    HW112194   3.527   3.570   4.034
 3916SOL    HW212195   3.417   3.500   3.936
 3917SOL     OW12196   3.256   2.331   5.398
 3917SOL    HW112197   3.236   2.374   5.486
 3917SOL    HW212198   3.334   2.269   5.407
 3918SOL     OW12199   2.853   2.272   4.966
 3918SOL    HW112200   2.776   2.306   5.020
 3918SOL    HW212201   2.819   2.221   4.887
 3919SOL     OW12202   2.903   2.563   4.153
 3919SOL    HW112203   2.929   2.559   4.249
 3919SOL    HW212204   2.818   2.512   4.139
 3920SOL     OW12205   1.938   2.673   4.513
 3920SOL    HW112206   2.037   2.661   4.522
 3920SOL    HW212207   1.914   2.768   4.534
 3921SOL     OW12208   1.992   3.683   5.295
 3921SOL    HW112209   1.982   3.668   5.394
 3921SOL    HW212210   1.906   3.719   5.259
 3922SOL     OW12211   3.581   2.447   5.555
 3922SOL    HW112212   3.555   2.536   5.519
 3922SOL    HW212213   3.579   2.379   5.482
 3923SOL     OW12214   2.213   3.663   4.577
 3923SOL    HW112215   2.263   3.577   4.583
 3923SOL    HW212216   2.278   3.740   4.574
 3924SOL     OW12217   3.657   2.928   4.597
 3924SOL    HW112218   3.595   2.913   4.521
 3924SOL    HW212219   3.605   2.939   4.682
 3925SOL     OW12220   3.089   3.412   5.230
 3925SOL    HW112221   3.095   3.335   5.294
 3925SOL    HW212222   3.037   3.386   5.150
 3926SOL     OW12223   3.320   2.597   4.452
 3926SOL    HW112224   3.315   2.532   4.527
 3926SOL    HW212225   3.400   2.656   4.465
 3927SOL     OW12226   2.323   3.128   5.451
 3927SOL    HW112227   2.273   3.129   5.365
 3927SOL    HW212228   2.260   3.110   5.527
 3928SOL     OW12229   2.973   3.638   3.961
 3928SOL    HW112230   2.913   3.576   4.011
 3928SOL    HW212231   3.004   3.594   3.876
 3929SOL     OW12232   2.064   2.147   5.222
 3929SOL    HW112233   1.984   2.207   5.209
 3929SOL    HW212234   2.054   2.098   5.308
 3930SOL     OW12235   2.326   3.605   4.047
 3930SOL    HW112236   2.359   3.644   4.133
 3930SOL    HW212237   2.402   3.598   3.982
 3931SOL     OW12238   2.111   3.647   4.965
 3931SOL    HW112239   2.168   3.582   5.015
 3931SOL    HW212240   2.095   3.614   4.872
 3932SOL     OW12241   2.802   3.560   4.628
 3932SOL    HW112242   2.882   3.503   4.649
 3932SOL    HW212243   2.753   3.520   4.551
 3933SOL     OW12244   3.409   2.084   5.453
 3933SOL    HW112245   3.404   2.121   5.545
 3933SOL    HW212246   3.337   2.015   5.441
 3934SOL     OW12247   2.643   2.126   5.473
 3934SOL    HW112248   2.710   2.065   5.516
 3934SOL    HW212249   2.570   2.145   5.538
 3935SOL     OW12250   2.750   3.376   4.919
 3935SOL    HW112251   2.727   3.351   4.825
 3935SOL    HW212252   2.811   3.307   4.958
 3936SOL     OW12253   3.213   2.452   5.157
 3936SOL    HW112254   3.241   2.409   5.242
 3936SOL    HW212255   3.238   2.548   5.158
 3937SOL     OW12256   2.665   3.264   4.648
 3937SOL    HW112257   2.755   3.278   4.606
 3937SOL    HW212258   2.594   3.266   4.577
 3938SOL     OW12259   2.938   2.545   5.188
 3938SOL    HW112260   2.858   2.484   5.191
 3938SOL    HW212261   3.019   2.492   5.164
 3939SOL     OW12262   3.089   3.432   4.517
 3939SOL    HW112263   3.110   3.506   4.452
 3939SOL    HW212264   3.157   3.432   4.590
 3940SOL     OW12265   3.133   3.659   4.315
 3940SOL    HW112266   3.177   3.723   4.251
 3940SOL    HW212267   3.083   3.711   4.385
 3941SOL     OW12268   2.894   2.411   3.740
 3941SOL    HW112269   2.853   2.493   3.701
 3941SOL    HW212270   2.958   2.437   3.813
 3942SOL     OW12271   1.940   2.418   5.110
 3942SOL    HW112272   2.032   2.417   5.069
 3942SOL    HW212273   1.934   2.492   5.177
 3943SOL     OW12274   2.423   2.084   4.871
 3943SOL    HW112275   2.461   2.000   4.908
 3943SOL    HW212276   2.335   2.103   4.915
 3944SOL     OW12277   2.879   1.901   4.477
 3944SOL    HW112278   2.807   1.906   4.408
 3944SOL    HW212279   2.855   1.832   4.546
 3945SOL     OW12280   3.328   2.452   4.716
 3945SOL    HW112281   3.298   2.357   4.723
 3945SOL    HW212282   3.401   2.468   4.782
 3946SOL     OW12283   3.526   3.142   4.381
 3946SOL    HW112284   3.625   3.150   4.395
 3946SOL    HW212285   3.481   3.226   4.412
 3947SOL     OW12286   3.616   3.085   5.312
 3947SOL    HW112287   3.707   3.046   5.299
 3947SOL    HW212288   3.624   3.181   5.336
 3948SOL     OW12289   2.926   3.209   5.064
 3948SOL    HW112290   2.846   3.186   5.119
 3948SOL    HW212291   3.009   3.183   5.113
 3949SOL     OW12292   3.454   3.491   5.349
 3949SOL    HW112293   3.481   3.525   5.259
 3949SOL    HW212294   3.533   3.453   5.395
 3950SOL     OW12295   2.973   3.057   4.824
 3950SOL    HW112296   2.933   3.101   4.905
 3950SOL    HW212297   2.932   3.094   4.741
 3951SOL     OW12298   3.500   2.961   4.803
 3951SOL    HW112299   3.505   3.042   4.862
 3951SOL    HW212300   3.414   2.963   4.752
 3952SOL     OW12301   2.777   1.951   5.126
 3952SOL    HW112302   2.802   1.931   5.031
 3952SOL    HW212303   2.849   2.007   5.168
 3953SOL     OW12304   2.842   2.978   5.443
 3953SOL    HW112305   2.743   2.984   5.453
 3953SOL    HW212306   2.865   2.898   5.387
 3954SOL     OW12307   2.272   2.675   4.975
 3954SOL    HW112308   2.358   2.687   5.025
 3954SOL    HW212309   2.230   2.588   5.002
 3955SOL     OW12310   3.136   2.248   4.986
 3955SOL    HW112311   3.157   2.322   5.050
 3955SOL    HW212312   3.047   2.265   4.943
 3956SOL     OW12313   1.926   3.426   5.055
 3956SOL    HW112314   1.880   3.508   5.021
 3956SOL    HW212315   2.024   3.445   5.064
 3957SOL     OW12316   2.428   2.399   4.589
 3957SOL    HW112317   2.440   2.465   4.515
 3957SOL    HW212318   2.474   2.433   4.672
 3958SOL     OW12319   3.134   3.307   4.866
 3958SOL    HW112320   3.181   3.320   4.953
 3958SOL    HW212321   3.068   3.233   4.875
 3959SOL     OW12322   2.216   3.372   5.053
 3959SOL    HW112323   2.195   3.328   4.966
 3959SOL    HW212324   2.313   3.398   5.056
 3960SOL     OW12325   2.264   2.613   5.322
 3960SOL    HW112326   2.332   2.668   5.275
 3960SOL    HW212327   2.304   2.525   5.349
 3961SOL     OW12328   3.449   2.641   5.394
 3961SOL    HW112329   3.357   2.679   5.389
 3961SOL    HW212330   3.509   2.688   5.329
 3962SOL     OW12331   2.875   1.967   5.494
 3962SOL    HW112332   2.881   2.052   5.442
 3962SOL    HW212333   2.907   1.891   5.437
 3963SOL     OW12334   2.366   1.912   5.464
 3963SOL    HW112335   2.324   1.855   5.394
 3963SOL    HW212336   2.300   1.981   5.496
 3964SOL     OW12337   3.222   2.724   4.769
 3964SOL    HW112338   3.147   2.724   4.703
 3964SOL    HW212339   3.259   2.632   4.778
 3965SOL     OW12340   2.169   2.075   4.955
 3965SOL    HW112341   2.146   2.112   5.045
 3965SOL    HW212342   2.139   1.980   4.949
 3966SOL     OW12343   1.899   3.172   5.006
 3966SOL    HW112344   1.952   3.123   5.074
 3966SOL    HW212345   1.921   3.270   5.011
 3967SOL     OW12346   3.590   2.797   5.578
 3967SOL    HW112347   3.544   2.790   5.489
 3967SOL    HW212348   3.528   2.841   5.644
 3968SOL     OW12349   3.484   2.229   4.098
 3968SOL    HW112350   3.486   2.153   4.162
 3968SOL    HW212351   3.436   2.306   4.138
 3969SOL     OW12352   2.842   3.435   5.424
 3969SOL    HW112353   2.822   3.479   5.336
 3969SOL    HW212354   2.881   3.344   5.408
 3970SOL     OW12355   3.721   3.380   5.329
 3970SOL    HW112356   3.735   3.407   5.234
 3970SOL    HW212357   3.804   3.402   5.382
 3971SOL     OW12358   2.212   2.760   5.528
 3971SOL    HW112359   2.288   2.804   5.576
 3971SOL    HW212360   2.247   2.713   5.446
 3972SOL     OW12361   2.930   3.195   4.573
 3972SOL    HW112362   2.937   3.111   4.518
 3972SOL    HW212363   2.992   3.264   4.537
 3973SOL     OW12364   2.181   2.672   4.673
 3973SOL    HW112365   2.274   2.708   4.678
 3973SOL    HW212366   2.175   2.587   4.725
 3974SOL     OW12367   2.201   2.371   4.730
 3974SOL    HW112368   2.149   2.288   4.713
 3974SOL    HW212369   2.278   2.376   4.666
 3975SOL     OW12370   3.000   2.242   5.402
 3975SOL    HW112371   2.955   2.305   5.466
 3975SOL    HW212372   3.093   2.273   5.385
 3976SOL     OW12373   3.022   2.069   5.201
 3976SOL    HW112374   3.022   2.133   5.278
 3976SOL    HW212375   3.050   2.117   5.118
 3977SOL     OW12376   1.950   3.663   4.651
 3977SOL    HW112377   1.908   3.577   4.624
 3977SOL    HW212378   2.044   3.666   4.617
 3978SOL     OW12379   2.366   3.430   4.634
 3978SOL    HW112380   2.432   3.504   4.643
 3978SOL    HW212381   2.410   3.351   4.592
 3979SOL     OW12382   1.902   2.406   4.838
 3979SOL    HW112383   1.987   2.373   4.797
 3979SOL    HW212384   1.915   2.421   4.936
 3980SOL     OW12385   2.051   2.382   5.446
 3980SOL    HW112386   2.110   2.342   5.376
 3980SOL    HW212387   1.993   2.453   5.405
 3981SOL     OW12388   3.231   2.812   5.384
 3981SOL    HW112389   3.270   2.901   5.404
 3981SOL    HW212390   3.241   2.792   5.287
 3982SOL     OW12391   3.519   2.466   4.930
 3982SOL    HW112392   3.481   2.397   4.992
 3982SOL    HW212393   3.601   2.430   4.886
 3983SOL     OW12394   2.114   3.426   5.468
 3983SOL    HW112395   2.084   3.483   5.544
 3983SOL    HW212396   2.107   3.329   5.494
 3984SOL     OW12397   2.533   2.326   4.993
 3984SOL    HW112398   2.499   2.237   4.963
 3984SOL    HW212399   2.559   2.380   4.913
 3985SOL     OW12400   2.792   3.540   5.189
 3985SOL    HW112401   2.768   3.522   5.094
 3985SOL    HW212402   2.822   3.634   5.199
 3986SOL     OW12403   2.021   2.999   5.190
 3986SOL    HW112404   2.043   2.938   5.266
 3986SOL    HW212405   2.031   2.950   5.104
 3987SOL     OW12406   3.209   2.921   4.958
 3987SOL    HW112407   3.233   2.858   4.884
 3987SOL    HW212408   3.119   2.961   4.940
 3988SOL     OW12409   3.621   3.609   4.878
 3988SOL    HW112410   3.682   3.639   4.805
 3988SOL    HW212411   3.583   3.520   4.856
 3989SOL     OW12412   3.114   3.593   4.852
 3989SOL    HW112413   3.198   3.598   4.798
 3989SOL    HW212414   3.091   3.497   4.870
 3990SOL     OW12415   1.945   3.120   4.746
 3990SOL    HW112416   1.940   3.119   4.846
 3990SOL    HW212417   1.862   3.079   4.708
 3991SOL     OW12418   2.550   3.524   5.440
 3991SOL    HW112419   2.494   3.605   5.449
 3991SOL    HW212420   2.602   3.528   5.354
 3992SOL     OW12421   3.588   1.997   4.247
 3992SOL    HW112422   3.661   1.980   4.180
 3992SOL    HW212423   3.557   1.910   4.285
 3993SOL     OW12424   1.992   3.656   5.575
 3993SOL    HW112425   1.951   3.582   5.628
 3993SOL    HW212426   2.056   3.707   5.633
 3994SOL     OW12427   2.692   3.135   5.146
 3994SOL    HW112428   2.687   3.168   5.241
 3994SOL    HW212429   2.606   3.154   5.100
 3995SOL     OW12430   3.512   3.582   5.118
 3995SOL    HW112431   3.565   3.592   5.034
 3995SOL    HW212432   3.485   3.672   5.152
 3996SOL     OW12433   3.703   2.037   4.687
 3996SOL    HW112434   3.742   1.952   4.651
 3996SOL    HW212435   3.605   2.039   4.668
 3997SOL     OW12436   3.056   3.474   3.755
 3997SOL    HW112437   3.062   3.381   3.792
 3997SOL    HW212438   2.997   3.474   3.675
 3998SOL     OW12439   3.366   3.469   3.768
 3998SOL    HW112440   3.274   3.506   3.775
 3998SOL    HW212441   3.404   3.489   3.678
 3999SOL     OW12442   2.234   3.150   5.214
 3999SOL    HW112443   2.221   3.243   5.180
 3999SOL    HW212444   2.150   3.098   5.201
 4000SOL     OW12445   3.476   3.154   5.013
 4000SOL    HW112446   3.536   3.157   5.093
 4000SOL    HW212447   3.401   3.218   5.026
 4001SOL     OW12448   2.876   2.098   4.695
 4001SOL    HW112449   2.868   2.062   4.602
 4001SOL    HW212450   2.874   2.022   4.760
 4002SOL     OW12451   3.571   2.247   5.105
 4002SOL    HW112452   3.644   2.316   5.109
 4002SOL    HW212453   3.599   2.172   5.046
 4003SOL     OW12454   1.967   2.875   5.450
 4003SOL    HW112455   1.890   2.842   5.504
 4003SOL    HW212456   2.052   2.845   5.492
 4004SOL     OW12457   2.534   2.065   5.213
 4004SOL    HW112458   2.624   2.049   5.173
 4004SOL    HW212459   2.542   2.070   5.312
 4005SOL     OW12460   3.302   2.718   5.122
 4005SOL    HW112461   3.245   2.770   5.059
 4005SOL    HW212462   3.398   2.730   5.098
 4006SOL     OW12463   1.934   2.028   4.042
 4006SOL    HW112464   1.917   2.111   3.988
 4006SOL    HW212465   2.024   1.991   4.020
 4007SOL     OW12466   3.355   3.629   4.683
 4007SOL    HW112467   3.388   3.693   4.614
 4007SOL    HW212468   3.421   3.623   4.758
 4008SOL     OW12469   3.312   3.082   5.357
 4008SOL    HW112470   3.303   3.072   5.456
 4008SOL    HW212471   3.408   3.075   5.331
 4009SOL     OW12472   2.252   3.603   5.284
 4009SOL    HW112473   2.161   3.644   5.282
 4009SOL    HW212474   2.245   3.509   5.316
 4010SOL     OW12475   3.536   2.745   4.978
 4010SOL    HW112476   3.509   2.656   4.941
 4010SOL    HW212477   3.537   2.813   4.905
 4011SOL     OW12478   3.639   2.204   5.366
 4011SOL    HW112479   3.622   2.235   5.272
 4011SOL    HW212480   3.555   2.167   5.404
 4012SOL     OW12481   3.592   2.796   5.241
 4012SOL    HW112482   3.630   2.887   5.256
 4012SOL    HW212483   3.584   2.779   5.142
 4013SOL     OW12484   2.523   3.652   4.677
 4013SOL    HW112485   2.477   3.740   4.664
 4013SOL    HW212486   2.622   3.664   4.670
 4014SOL     OW12487   3.723   3.431   4.575
 4014SOL    HW112488   3.652   3.419   4.505
 4014SOL    HW212489   3.724   3.352   4.635
 4015SOL     OW12490   2.083   3.176   5.568
 4015SOL    HW112491   2.018   3.103   5.547
 4015SOL    HW212492   2.087   3.190   5.666
 4016SOL     OW12493   1.941   3.102   4.377
 4016SOL    HW112494   1.940   3.055   4.465
 4016SOL    HW212495   2.023   3.074   4.326
 4017SOL     OW12496   2.534   3.253   5.348
 4017SOL    HW112497   2.456   3.203   5.386
 4017SOL    HW212498   2.531   3.348   5.379
 4018SOL     OW12499   3.686   2.054   4.951
 4018SOL    HW112500   3.682   1.964   4.995
 4018SOL    HW212501   3.689   2.043   4.852
 4019SOL     OW12502   2.290   2.286   4.244
 4019SOL    HW112503   2.320   2.214   4.182
 4019SOL    HW212504   2.251   2.246   4.327
 4020SOL     OW12505   3.567   3.349   4.828
 4020SOL    HW112506   3.474   3.324   4.801
 4020SOL    HW212507   3.593   3.299   4.910
 4021SOL     OW12508   2.179   2.409   5.004
 4021SOL    HW112509   2.217   2.350   5.076
 4021SOL    HW212510   2.219   2.383   4.916
 4022SOL     OW12511   2.674   3.448   4.411
 4022SOL    HW112512   2.706   3.458   4.317
 4022SOL    HW212513   2.595   3.386   4.413
 4023SOL     OW12514   3.286   2.076   4.836
 4023SOL    HW112515   3.338   2.011   4.891
 4023SOL    HW212516   3.237   2.139   4.897
 4024SOL     OW12517   2.863   1.896   4.878
 4024SOL    HW112518   2.800   1.824   4.847
 4024SOL    HW212519   2.956   1.860   4.878
 4025SOL     OW12520   2.480   3.429   5.008
 4025SOL    HW112521   2.475   3.511   5.065
 4025SOL    HW212522   2.569   3.426   4.963
 4026SOL     OW12523   3.455   2.083   4.606
 4026SOL    HW112524   3.371   2.082   4.660
 4026SOL    HW212525   3.457   2.166   4.550
 4027SOL     OW12526   2.092   2.490   5.699
 4027SOL    HW112527   1.999   2.488   5.736
 4027SOL    HW212528   2.093   2.451   5.607
 4028SOL     OW12529   2.087   2.137   6.582
 4028SOL    HW112530   2.122   2.120   6.674
 4028SOL    HW212531   1.999   2.092   6.570
 4029SOL     OW12532   1.881   2.230   6.233
 4029SOL    HW112533   1.799   2.273   6.272
 4029SOL    HW212534   1.853   2.157   6.170
 4030SOL     OW12535   2.431   3.137   6.751
 4030SOL    HW112536   2.338   3.130   6.714
 4030SOL    HW212537   2.442   3.226   6.795
 4031SOL     OW12538   3.417   3.373   6.289
 4031SOL    HW112539   3.360   3.357   6.370
 4031SOL    HW212540   3.358   3.383   6.209
 4032SOL     OW12541   2.997   2.565   6.303
 4032SOL    HW112542   3.054   2.643   6.278
 4032SOL    HW212543   2.937   2.591   6.379
 4033SOL     OW12544   3.617   2.469   5.817
 4033SOL    HW112545   3.605   2.456   5.718
 4033SOL    HW212546   3.587   2.388   5.866
 4034SOL     OW12547   2.630   3.006   6.609
 4034SOL    HW112548   2.552   3.023   6.669
 4034SOL    HW212549   2.664   3.093   6.573
 4035SOL     OW12550   2.548   3.023   7.389
 4035SOL    HW112551   2.608   3.102   7.403
 4035SOL    HW212552   2.462   3.054   7.348
 4036SOL     OW12553   2.197   3.297   6.647
 4036SOL    HW112554   2.119   3.266   6.594
 4036SOL    HW212555   2.255   3.355   6.590
 4037SOL     OW12556   3.322   3.367   6.925
 4037SOL    HW112557   3.346   3.461   6.951
 4037SOL    HW212558   3.306   3.313   7.007
 4038SOL     OW12559   2.300   2.254   7.085
 4038SOL    HW112560   2.382   2.198   7.094
 4038SOL    HW212561   2.219   2.196   7.089
 4039SOL     OW12562   3.465   2.309   6.323
 4039SOL    HW112563   3.391   2.355   6.273
 4039SOL    HW212564   3.516   2.377   6.376
 4040SOL     OW12565   2.093   3.575   6.069
 4040SOL    HW112566   2.127   3.652   6.123
 4040SOL    HW212567   2.137   3.575   5.979
 4041SOL     OW12568   2.989   3.203   7.276
 4041SOL    HW112569   3.036   3.203   7.364
 4041SOL    HW212570   2.941   3.116   7.265
 4042SOL     OW12571   2.092   3.296   6.124
 4042SOL    HW112572   2.066   3.392   6.124
 4042SOL    HW212573   2.021   3.242   6.169
 4043SOL     OW12574   2.102   2.953   6.472
 4043SOL    HW112575   2.116   2.869   6.524
 4043SOL    HW212576   2.047   3.017   6.527
 4044SOL     OW12577   2.482   3.648   7.025
 4044SOL    HW112578   2.390   3.631   7.060
 4044SOL    HW212579   2.510   3.740   7.051
 4045SOL     OW12580   2.468   2.826   5.709
 4045SOL    HW112581   2.475   2.910   5.655
 4045SOL    HW212582   2.514   2.839   5.797
 4046SOL     OW12583   3.456   1.976   7.066
 4046SOL    HW112584   3.438   2.043   6.994
 4046SOL    HW212585   3.453   2.022   7.155
 4047SOL     OW12586   1.984   2.505   6.149
 4047SOL    HW112587   1.939   2.417   6.166
 4047SOL    HW212588   1.983   2.559   6.233
 4048SOL     OW12589   3.704   3.629   5.945
 4048SOL    HW112590   3.758   3.600   6.025
 4048SOL    HW212591   3.734   3.719   5.916
 4049SOL     OW12592   1.889   3.458   5.703
 4049SOL    HW112593   1.870   3.362   5.724
 4049SOL    HW212594   1.856   3.516   5.778
 4050SOL     OW12595   3.551   2.784   6.198
 4050SOL    HW112596   3.646   2.755   6.206
 4050SOL    HW212597   3.543   2.849   6.123
 4051SOL     OW12598   3.503   2.970   6.018
 4051SOL    HW112599   3.589   2.972   5.966
 4051SOL    HW212600   3.517   3.017   6.106
 4052SOL     OW12601   1.975   2.599   7.183
 4052SOL    HW112602   2.063   2.586   7.228
 4052SOL    HW212603   1.962   2.696   7.161
 4053SOL     OW12604   2.475   3.227   6.312
 4053SOL    HW112605   2.426   3.140   6.321
 4053SOL    HW212606   2.452   3.270   6.225
 4054SOL     OW12607   3.155   3.090   7.009
 4054SOL    HW112608   3.192   3.017   6.951
 4054SOL    HW212609   3.207   3.095   7.094
 4055SOL     OW12610   2.671   1.866   6.088
 4055SOL    HW112611   2.711   1.957   6.079
 4055SOL    HW212612   2.571   1.874   6.094
 4056SOL     OW12613   2.059   2.838   6.850
 4056SOL    HW112614   2.148   2.793   6.836
 4056SOL    HW212615   1.986   2.773   6.831
 4057SOL     OW12616   3.387   2.861   5.776
 4057SOL    HW112617   3.324   2.785   5.789
 4057SOL    HW212618   3.435   2.879   5.862
 4058SOL     OW12619   3.049   3.654   7.202
 4058SOL    HW112620   3.073   3.714   7.126
 4058SOL    HW212621   3.056   3.559   7.172
 4059SOL     OW12622   2.179   2.113   7.387
 4059SOL    HW112623   2.250   2.184   7.393
 4059SOL    HW212624   2.091   2.152   7.415
 4060SOL     OW12625   3.328   3.279   6.539
 4060SOL    HW112626   3.269   3.285   6.619
 4060SOL    HW212627   3.313   3.191   6.493
 4061SOL     OW12628   3.529   3.576   6.158
 4061SOL    HW112629   3.488   3.553   6.070
 4061SOL    HW212630   3.511   3.502   6.223
 4062SOL     OW12631   3.143   2.207   6.530
 4062SOL    HW112632   3.057   2.157   6.517
 4062SOL    HW212633   3.205   2.153   6.586
 4063SOL     OW12634   3.438   3.524   5.893
 4063SOL    HW112635   3.527   3.570   5.896
 4063SOL    HW212636   3.417   3.500   5.798
 4064SOL     OW12637   3.256   2.331   7.260
 4064SOL    HW112638   3.236   2.374   7.348
 4064SOL    HW212639   3.334   2.269   7.269
 4065SOL     OW12640   2.853   2.272   6.828
 4065SOL    HW112641   2.776   2.306   6.882
 4065SOL    HW212642   2.819   2.221   6.749
 4066SOL     OW12643   1.938   2.673   6.375
 4066SOL    HW112644   2.037   2.661   6.384
 4066SOL    HW212645   1.914   2.768   6.396
 4067SOL     OW12646   1.992   3.683   7.157
 4067SOL    HW112647   1.982   3.668   7.256
 4067SOL    HW212648   1.906   3.719   7.121
 4068SOL     OW12649   2.727   2.210   5.781
 4068SOL    HW112650   2.786   2.273   5.732
 4068SOL    HW212651   2.746   2.116   5.752
 4069SOL     OW12652   3.581   2.447   7.417
 4069SOL    HW112653   3.555   2.536   7.381
 4069SOL    HW212654   3.579   2.379   7.344
 4070SOL     OW12655   3.224   3.006   6.131
 4070SOL    HW112656   3.307   2.977   6.083
 4070SOL    HW212657   3.175   3.073   6.075
 4071SOL     OW12658   2.412   2.058   6.471
 4071SOL    HW112659   2.407   2.053   6.571
 4071SOL    HW212660   2.414   2.154   6.442
 4072SOL     OW12661   2.870   3.318   6.063
 4072SOL    HW112662   2.824   3.390   6.011
 4072SOL    HW212663   2.866   3.338   6.161
 4073SOL     OW12664   2.213   3.663   6.439
 4073SOL    HW112665   2.263   3.577   6.445
 4073SOL    HW212666   2.278   3.740   6.436
 4074SOL     OW12667   3.657   2.928   6.459
 4074SOL    HW112668   3.595   2.913   6.383
 4074SOL    HW212669   3.605   2.939   6.544
 4075SOL     OW12670   3.089   3.412   7.092
 4075SOL    HW112671   3.095   3.335   7.156
 4075SOL    HW212672   3.037   3.386   7.012
 4076SOL     OW12673   2.183   2.805   5.828
 4076SOL    HW112674   2.265   2.844   5.786
 4076SOL    HW212675   2.156   2.723   5.779
 4077SOL     OW12676   3.320   2.597   6.314
 4077SOL    HW112677   3.315   2.532   6.389
 4077SOL    HW212678   3.400   2.656   6.327
 4078SOL     OW12679   2.323   3.128   7.313
 4078SOL    HW112680   2.273   3.129   7.227
 4078SOL    HW212681   2.260   3.110   7.389
 4079SOL     OW12682   2.973   3.638   5.823
 4079SOL    HW112683   2.913   3.576   5.873
 4079SOL    HW212684   3.004   3.594   5.738
 4080SOL     OW12685   2.064   2.147   7.084
 4080SOL    HW112686   1.984   2.207   7.071
 4080SOL    HW212687   2.054   2.098   7.170
 4081SOL     OW12688   3.494   3.239   5.667
 4081SOL    HW112689   3.462   3.333   5.657
 4081SOL    HW212690   3.418   3.176   5.655
 4082SOL     OW12691   2.326   3.605   5.909
 4082SOL    HW112692   2.359   3.644   5.995
 4082SOL    HW212693   2.402   3.598   5.844
 4083SOL     OW12694   3.262   1.969   6.012
 4083SOL    HW112695   3.238   1.932   5.922
 4083SOL    HW212696   3.361   1.985   6.016
 4084SOL     OW12697   2.111   3.647   6.827
 4084SOL    HW112698   2.168   3.582   6.877
 4084SOL    HW212699   2.095   3.614   6.734
 4085SOL     OW12700   2.802   3.560   6.490
 4085SOL    HW112701   2.882   3.503   6.511
 4085SOL    HW212702   2.753   3.520   6.413
 4086SOL     OW12703   2.244   2.562   6.066
 4086SOL    HW112704   2.289   2.472   6.063
 4086SOL    HW212705   2.150   2.551   6.099
 4087SOL     OW12706   3.409   2.084   7.315
 4087SOL    HW112707   3.404   2.121   7.407
 4087SOL    HW212708   3.337   2.015   7.303
 4088SOL     OW12709   2.476   1.984   5.703
 4088SOL    HW112710   2.574   1.962   5.710
 4088SOL    HW212711   2.445   1.967   5.610
 4089SOL     OW12712   2.643   2.126   7.335
 4089SOL    HW112713   2.710   2.065   7.378
 4089SOL    HW212714   2.570   2.145   7.400
 4090SOL     OW12715   2.750   3.376   6.781
 4090SOL    HW112716   2.727   3.351   6.687
 4090SOL    HW212717   2.811   3.307   6.820
 4091SOL     OW12718   3.213   2.452   7.019
 4091SOL    HW112719   3.241   2.409   7.104
 4091SOL    HW212720   3.238   2.548   7.020
 4092SOL     OW12721   2.665   3.264   6.510
 4092SOL    HW112722   2.755   3.278   6.468
 4092SOL    HW212723   2.594   3.266   6.439
 4093SOL     OW12724   2.784   2.365   6.485
 4093SOL    HW112725   2.759   2.356   6.389
 4093SOL    HW212726   2.832   2.283   6.516
 4094SOL     OW12727   2.401   1.926   6.098
 4094SOL    HW112728   2.320   1.927   6.156
 4094SOL    HW212729   2.404   2.009   6.043
 4095SOL     OW12730   3.296   3.050   5.627
 4095SOL    HW112731   3.328   2.974   5.684
 4095SOL    HW212732   3.204   3.077   5.657
 4096SOL     OW12733   2.159   1.897   5.757
 4096SOL    HW112734   2.208   1.981   5.736
 4096SOL    HW212735   2.221   1.832   5.802
 4097SOL     OW12736   2.797   2.098   6.066
 4097SOL    HW112737   2.749   2.139   5.988
 4097SOL    HW212738   2.896   2.096   6.047
 4098SOL     OW12739   2.938   2.545   7.050
 4098SOL    HW112740   2.858   2.484   7.053
 4098SOL    HW212741   3.019   2.492   7.026
 4099SOL     OW12742   3.089   3.432   6.379
 4099SOL    HW112743   3.110   3.506   6.314
 4099SOL    HW212744   3.157   3.432   6.452
 4100SOL     OW12745   2.321   3.014   6.327
 4100SOL    HW112746   2.250   2.987   6.392
 4100SOL    HW212747   2.295   2.986   6.234
 4101SOL     OW12748   3.133   3.659   6.177
 4101SOL    HW112749   3.177   3.723   6.113
 4101SOL    HW212750   3.083   3.711   6.247
 4102SOL     OW12751   2.894   2.411   5.602
 4102SOL    HW112752   2.853   2.493   5.563
 4102SOL    HW212753   2.958   2.437   5.675
 4103SOL     OW12754   1.940   2.418   6.972
 4103SOL    HW112755   2.032   2.417   6.931
 4103SOL    HW212756   1.934   2.492   7.039
 4104SOL     OW12757   2.423   2.084   6.733
 4104SOL    HW112758   2.461   2.000   6.770
 4104SOL    HW212759   2.335   2.103   6.777
 4105SOL     OW12760   2.728   2.316   6.228
 4105SOL    HW112761   2.696   2.388   6.166
 4105SOL    HW212762   2.752   2.235   6.175
 4106SOL     OW12763   2.879   1.901   6.339
 4106SOL    HW112764   2.807   1.906   6.270
 4106SOL    HW212765   2.855   1.832   6.408
 4107SOL     OW12766   3.291   3.035   6.453
 4107SOL    HW112767   3.236   2.951   6.446
 4107SOL    HW212768   3.317   3.064   6.361
 4108SOL     OW12769   3.328   2.452   6.578
 4108SOL    HW112770   3.298   2.357   6.585
 4108SOL    HW212771   3.401   2.468   6.644
 4109SOL     OW12772   3.719   2.695   5.963
 4109SOL    HW112773   3.761   2.631   6.027
 4109SOL    HW212774   3.681   2.644   5.885
 4110SOL     OW12775   2.350   3.247   5.760
 4110SOL    HW112776   2.263   3.232   5.807
 4110SOL    HW212777   2.333   3.273   5.665
 4111SOL     OW12778   3.526   3.142   6.243
 4111SOL    HW112779   3.625   3.150   6.257
 4111SOL    HW212780   3.481   3.226   6.274
 4112SOL     OW12781   3.252   2.437   5.664
 4112SOL    HW112782   3.198   2.416   5.745
 4112SOL    HW212783   3.343   2.396   5.673
 4113SOL     OW12784   2.389   2.118   5.914
 4113SOL    HW112785   2.416   2.059   5.839
 4113SOL    HW212786   2.389   2.213   5.883
 4114SOL     OW12787   3.616   3.085   7.174
 4114SOL    HW112788   3.707   3.046   7.161
 4114SOL    HW212789   3.624   3.181   7.198
 4115SOL     OW12790   2.926   3.209   6.926
 4115SOL    HW112791   2.846   3.186   6.981
 4115SOL    HW212792   3.009   3.183   6.975
 4116SOL     OW12793   3.454   3.491   7.211
 4116SOL    HW112794   3.481   3.525   7.121
 4116SOL    HW212795   3.533   3.453   7.257
 4117SOL     OW12796   2.973   3.057   6.686
 4117SOL    HW112797   2.933   3.101   6.767
 4117SOL    HW212798   2.932   3.094   6.603
 4118SOL     OW12799   3.500   2.961   6.665
 4118SOL    HW112800   3.505   3.042   6.724
 4118SOL    HW212801   3.414   2.963   6.614
 4119SOL     OW12802   2.777   1.951   6.988
 4119SOL    HW112803   2.802   1.931   6.893
 4119SOL    HW212804   2.849   2.007   7.030
 4120SOL     OW12805   2.842   2.978   7.305
 4120SOL    HW112806   2.743   2.984   7.315
 4120SOL    HW212807   2.865   2.898   7.249
 4121SOL     OW12808   2.272   2.675   6.837
 4121SOL    HW112809   2.358   2.687   6.887
 4121SOL    HW212810   2.230   2.588   6.864
 4122SOL     OW12811   3.136   2.248   6.848
 4122SOL    HW112812   3.157   2.322   6.912
 4122SOL    HW212813   3.047   2.265   6.805
 4123SOL     OW12814   1.926   3.426   6.917
 4123SOL    HW112815   1.880   3.508   6.883
 4123SOL    HW212816   2.024   3.445   6.926
 4124SOL     OW12817   2.229   2.962   6.087
 4124SOL    HW112818   2.222   3.045   6.031
 4124SOL    HW212819   2.233   2.882   6.027
 4125SOL     OW12820   2.428   2.399   6.451
 4125SOL    HW112821   2.440   2.465   6.377
 4125SOL    HW212822   2.474   2.433   6.534
 4126SOL     OW12823   3.114   3.210   5.974
 4126SOL    HW112824   3.164   3.287   6.014
 4126SOL    HW212825   3.019   3.212   6.006
 4127SOL     OW12826   3.134   3.307   6.728
 4127SOL    HW112827   3.181   3.320   6.815
 4127SOL    HW212828   3.068   3.233   6.737
 4128SOL     OW12829   3.444   2.501   6.058
 4128SOL    HW112830   3.413   2.562   6.131
 4128SOL    HW212831   3.494   2.553   5.989
 4129SOL     OW12832   2.216   3.372   6.915
 4129SOL    HW112833   2.195   3.328   6.828
 4129SOL    HW212834   2.313   3.398   6.918
 4130SOL     OW12835   2.264   2.613   7.184
 4130SOL    HW112836   2.332   2.668   7.137
 4130SOL    HW212837   2.304   2.525   7.211
 4131SOL     OW12838   3.449   2.641   7.256
 4131SOL    HW112839   3.357   2.679   7.251
 4131SOL    HW212840   3.509   2.688   7.191
 4132SOL     OW12841   2.875   1.967   7.356
 4132SOL    HW112842   2.881   2.052   7.304
 4132SOL    HW212843   2.907   1.891   7.299
 4133SOL     OW12844   2.366   1.912   7.326
 4133SOL    HW112845   2.324   1.855   7.256
 4133SOL    HW212846   2.300   1.981   7.358
 4134SOL     OW12847   3.222   2.724   6.631
 4134SOL    HW112848   3.147   2.724   6.565
 4134SOL    HW212849   3.259   2.632   6.640
 4135SOL     OW12850   3.071   2.387   5.861
 4135SOL    HW112851   3.084   2.303   5.915
 4135SOL    HW212852   3.042   2.461   5.921
 4136SOL     OW12853   2.169   2.075   6.817
 4136SOL    HW112854   2.146   2.112   6.907
 4136SOL    HW212855   2.139   1.980   6.811
 4137SOL     OW12856   1.899   3.172   6.868
 4137SOL    HW112857   1.952   3.123   6.936
 4137SOL    HW212858   1.921   3.270   6.873
 4138SOL     OW12859   3.590   2.797   7.440
 4138SOL    HW112860   3.544   2.790   7.351
 4138SOL    HW212861   3.528   2.841   7.506
 4139SOL     OW12862   2.169   1.925   6.204
 4139SOL    HW112863   2.158   2.019   6.237
 4139SOL    HW212864   2.164   1.862   6.281
 4140SOL     OW12865   3.484   2.229   5.960
 4140SOL    HW112866   3.486   2.153   6.024
 4140SOL    HW212867   3.436   2.306   6.000
 4141SOL     OW12868   2.842   3.435   7.286
 4141SOL    HW112869   2.822   3.479   7.198
 4141SOL    HW212870   2.881   3.344   7.270
 4142SOL     OW12871   3.721   3.380   7.191
 4142SOL    HW112872   3.735   3.407   7.096
 4142SOL    HW212873   3.804   3.402   7.244
 4143SOL     OW12874   2.212   2.760   7.390
 4143SOL    HW112875   2.288   2.804   7.438
 4143SOL    HW212876   2.247   2.713   7.308
 4144SOL     OW12877   3.402   2.136   5.711
 4144SOL    HW112878   3.341   2.061   5.734
 4144SOL    HW212879   3.424   2.188   5.794
 4145SOL     OW12880   3.165   2.700   5.628
 4145SOL    HW112881   3.199   2.607   5.643
 4145SOL    HW212882   3.183   2.727   5.533
 4146SOL     OW12883   2.930   3.195   6.435
 4146SOL    HW112884   2.937   3.111   6.380
 4146SOL    HW212885   2.992   3.264   6.399
 4147SOL     OW12886   2.181   2.672   6.535
 4147SOL    HW112887   2.274   2.708   6.540
 4147SOL    HW212888   2.175   2.587   6.587
 4148SOL     OW12889   2.201   2.371   6.592
 4148SOL    HW112890   2.149   2.288   6.575
 4148SOL    HW212891   2.278   2.376   6.528
 4149SOL     OW12892   3.000   2.242   7.264
 4149SOL    HW112893   2.955   2.305   7.328
 4149SOL    HW212894   3.093   2.273   7.247
 4150SOL     OW12895   3.022   2.069   7.063
 4150SOL    HW112896   3.022   2.133   7.140
 4150SOL    HW212897   3.050   2.117   6.980
 4151SOL     OW12898   1.870   3.188   5.786
 4151SOL    HW112899   1.777   3.209   5.755
 4151SOL    HW212900   1.880   3.089   5.799
 4152SOL     OW12901   1.950   3.663   6.513
 4152SOL    HW112902   1.908   3.577   6.486
 4152SOL    HW212903   2.044   3.666   6.479
 4153SOL     OW12904   2.366   3.430   6.496
 4153SOL    HW112905   2.432   3.504   6.505
 4153SOL    HW212906   2.410   3.351   6.454
 4154SOL     OW12907   1.902   2.406   6.700
 4154SOL    HW112908   1.987   2.373   6.659
 4154SOL    HW212909   1.915   2.421   6.798
 4155SOL     OW12910   2.051   2.382   7.308
 4155SOL    HW112911   2.110   2.342   7.238
 4155SOL    HW212912   1.993   2.453   7.267
 4156SOL     OW12913   3.231   2.812   7.246
 4156SOL    HW112914   3.270   2.901   7.266
 4156SOL    HW212915   3.241   2.792   7.149
 4157SOL     OW12916   2.677   2.434   5.911
 4157SOL    HW112917   2.684   2.345   5.865
 4157SOL    HW212918   2.583   2.468   5.903
 4158SOL     OW12919   3.519   2.466   6.792
 4158SOL    HW112920   3.481   2.397   6.854
 4158SOL    HW212921   3.601   2.430   6.748
 4159SOL     OW12922   2.114   3.426   7.330
 4159SOL    HW112923   2.084   3.483   7.406
 4159SOL    HW212924   2.107   3.329   7.356
 4160SOL     OW12925   2.533   2.326   6.855
 4160SOL    HW112926   2.499   2.237   6.825
 4160SOL    HW212927   2.559   2.380   6.775
 4161SOL     OW12928   2.792   3.540   7.051
 4161SOL    HW112929   2.768   3.522   6.956
 4161SOL    HW212930   2.822   3.634   7.061
 4162SOL     OW12931   2.335   2.362   5.777
 4162SOL    HW112932   2.396   2.442   5.781
 4162SOL    HW212933   2.240   2.393   5.784
 4163SOL     OW12934   2.021   2.999   7.052
 4163SOL    HW112935   2.043   2.938   7.128
 4163SOL    HW212936   2.031   2.950   6.966
 4164SOL     OW12937   3.209   2.921   6.820
 4164SOL    HW112938   3.233   2.858   6.746
 4164SOL    HW212939   3.119   2.961   6.802
 4165SOL     OW12940   3.164   2.717   5.895
 4165SOL    HW112941   3.078   2.686   5.937
 4165SOL    HW212942   3.160   2.703   5.796
 4166SOL     OW12943   3.621   3.609   6.740
 4166SOL    HW112944   3.682   3.639   6.667
 4166SOL    HW212945   3.583   3.520   6.718
 4167SOL     OW12946   3.114   3.593   6.714
 4167SOL    HW112947   3.198   3.598   6.660
 4167SOL    HW212948   3.091   3.497   6.732
 4168SOL     OW12949   1.945   3.120   6.608
 4168SOL    HW112950   1.940   3.119   6.708
 4168SOL    HW212951   1.862   3.079   6.570
 4169SOL     OW12952   2.550   3.524   7.302
 4169SOL    HW112953   2.494   3.605   7.311
 4169SOL    HW212954   2.602   3.528   7.216
 4170SOL     OW12955   3.588   1.997   6.109
 4170SOL    HW112956   3.661   1.980   6.042
 4170SOL    HW212957   3.557   1.910   6.147
 4171SOL     OW12958   3.250   3.435   6.063
 4171SOL    HW112959   3.317   3.447   5.989
 4171SOL    HW212960   3.210   3.524   6.086
 4172SOL     OW12961   1.992   3.656   7.437
 4172SOL    HW112962   1.951   3.582   7.490
 4172SOL    HW212963   2.056   3.707   7.495
 4173SOL     OW12964   3.142   2.789   6.258
 4173SOL    HW112965   3.202   2.708   6.260
 4173SOL    HW212966   3.182   2.858   6.198
 4174SOL     OW12967   2.692   3.135   7.008
 4174SOL    HW112968   2.687   3.168   7.103
 4174SOL    HW212969   2.606   3.154   6.962
 4175SOL     OW12970   2.534   3.478   5.740
 4175SOL    HW112971   2.543   3.488   5.641
 4175SOL    HW212972   2.494   3.389   5.761
 4176SOL     OW12973   3.512   3.582   6.980
 4176SOL    HW112974   3.565   3.592   6.896
 4176SOL    HW212975   3.485   3.672   7.014
 4177SOL     OW12976   3.703   2.037   6.549
 4177SOL    HW112977   3.742   1.952   6.513
 4177SOL    HW212978   3.605   2.039   6.530
 4178SOL     OW12979   2.125   2.188   6.306
 4178SOL    HW112980   2.046   2.239   6.272
 4178SOL    HW212981   2.116   2.173   6.404
 4179SOL     OW12982   3.056   3.474   5.617
 4179SOL    HW112983   3.062   3.381   5.654
 4179SOL    HW212984   2.997   3.474   5.537
 4180SOL     OW12985   3.366   3.469   5.630
 4180SOL    HW112986   3.274   3.506   5.637
 4180SOL    HW212987   3.404   3.489   5.540
 4181SOL     OW12988   2.234   3.150   7.076
 4181SOL    HW112989   2.221   3.243   7.042
 4181SOL    HW212990   2.150   3.098   7.063
 4182SOL     OW12991   3.476   3.154   6.875
 4182SOL    HW112992   3.536   3.157   6.955
 4182SOL    HW212993   3.401   3.218   6.888
 4183SOL     OW12994   2.901   2.960   6.282
 4183SOL    HW112995   2.831   2.913   6.336
 4183SOL    HW212996   2.960   2.892   6.239
 4184SOL     OW12997   2.876   2.098   6.557
 4184SOL    HW112998   2.868   2.062   6.464
 4184SOL    HW212999   2.874   2.022   6.622
 4185SOL     OW13000   2.452   3.349   6.077
 4185SOL    HW113001   2.494   3.291   6.007
 4185SOL    HW213002   2.408   3.428   6.033
 4186SOL     OW13003   3.571   2.247   6.967
 4186SOL    HW113004   3.644   2.316   6.971
 4186SOL    HW213005   3.599   2.172   6.908
 4187SOL     OW13006   2.117   3.210   5.876
 4187SOL    HW113007   2.021   3.211   5.849
 4187SOL    HW213008   2.129   3.263   5.960
 4188SOL     OW13009   1.967   2.875   7.312
 4188SOL    HW113010   1.890   2.842   7.366
 4188SOL    HW213011   2.052   2.845   7.354
 4189SOL     OW13012   2.534   2.065   7.075
 4189SOL    HW113013   2.624   2.049   7.035
 4189SOL    HW213014   2.542   2.070   7.174
 4190SOL     OW13015   1.937   2.207   5.619
 4190SOL    HW113016   1.845   2.179   5.590
 4190SOL    HW213017   1.968   2.284   5.563
 4191SOL     OW13018   3.302   2.718   6.984
 4191SOL    HW113019   3.245   2.770   6.921
 4191SOL    HW213020   3.398   2.730   6.960
 4192SOL     OW13021   1.934   2.028   5.904
 4192SOL    HW113022   1.917   2.111   5.850
 4192SOL    HW213023   2.024   1.991   5.882
 4193SOL     OW13024   3.045   3.197   5.705
 4193SOL    HW113025   2.946   3.186   5.707
 4193SOL    HW213026   3.079   3.212   5.798
 4194SOL     OW13027   3.355   3.629   6.545
 4194SOL    HW113028   3.388   3.693   6.476
 4194SOL    HW213029   3.421   3.623   6.620
 4195SOL     OW13030   3.312   3.082   7.219
 4195SOL    HW113031   3.303   3.072   7.318
 4195SOL    HW213032   3.408   3.075   7.193
 4196SOL     OW13033   2.252   3.603   7.146
 4196SOL    HW113034   2.161   3.644   7.144
 4196SOL    HW213035   2.245   3.509   7.178
 4197SOL     OW13036   3.536   2.745   6.840
 4197SOL    HW113037   3.509   2.656   6.803
 4197SOL    HW213038   3.537   2.813   6.767
 4198SOL     OW13039   3.087   2.187   6.035
 4198SOL    HW113040   3.152   2.113   6.024
 4198SOL    HW213041   3.107   2.237   6.119
 4199SOL     OW13042   3.639   2.204   7.228
 4199SOL    HW113043   3.622   2.235   7.134
 4199SOL    HW213044   3.555   2.167   7.266
 4200SOL     OW13045   3.592   2.796   7.103
 4200SOL    HW113046   3.630   2.887   7.118
 4200SOL    HW213047   3.584   2.779   7.004
 4201SOL     OW13048   2.721   3.236   5.602
 4201SOL    HW113049   2.675   3.251   5.690
 4201SOL    HW213050   2.765   3.321   5.572
 4202SOL     OW13051   2.523   3.652   6.539
 4202SOL    HW113052   2.477   3.740   6.526
 4202SOL    HW213053   2.622   3.664   6.532
 4203SOL     OW13054   2.945   2.846   5.673
 4203SOL    HW113055   2.922   2.899   5.591
 4203SOL    HW213056   3.026   2.790   5.654
 4204SOL     OW13057   3.723   3.431   6.437
 4204SOL    HW113058   3.652   3.419   6.367
 4204SOL    HW213059   3.724   3.352   6.497
 4205SOL     OW13060   2.083   3.176   7.430
 4205SOL    HW113061   2.018   3.103   7.409
 4205SOL    HW213062   2.087   3.190   7.528
 4206SOL     OW13063   1.941   3.102   6.239
 4206SOL    HW113064   1.940   3.055   6.327
 4206SOL    HW213065   2.023   3.074   6.188
 4207SOL     OW13066   2.534   3.253   7.210
 4207SOL    HW113067   2.456   3.203   7.248
 4207SOL    HW213068   2.531   3.348   7.241
 4208SOL     OW13069   3.686   2.054   6.813
 4208SOL    HW113070   3.682   1.964   6.857
 4208SOL    HW213071   3.689   2.043   6.714
 4209SOL     OW13072   2.290   2.286   6.106
 4209SOL    HW113073   2.320   2.214   6.044
 4209SOL    HW213074   2.251   2.246   6.189
 4210SOL     OW13075   3.567   3.349   6.690
 4210SOL    HW113076   3.474   3.324   6.663
 4210SOL    HW213077   3.593   3.299   6.772
 4211SOL     OW13078   2.179   2.409   6.866
 4211SOL    HW113079   2.217   2.350   6.938
 4211SOL    HW213080   2.219   2.383   6.778
 4212SOL     OW13081   2.674   3.448   6.273
 4212SOL    HW113082   2.706   3.458   6.179
 4212SOL    HW213083   2.595   3.386   6.275
 4213SOL     OW13084   3.286   2.076   6.698
 4213SOL    HW113085   3.338   2.011   6.753
 4213SOL    HW213086   3.237   2.139   6.759
 4214SOL     OW13087   2.863   1.896   6.740
 4214SOL    HW113088   2.800   1.824   6.709
 4214SOL    HW213089   2.956   1.860   6.740
 4215SOL     OW13090   2.632   3.192   5.887
 4215SOL    HW113091   2.586   3.105   5.904
 4215SOL    HW213092   2.723   3.189   5.928
 4216SOL     OW13093   2.480   3.429   6.870
 4216SOL    HW113094   2.475   3.511   6.927
 4216SOL    HW213095   2.569   3.426   6.825
 4217SOL     OW13096   3.214   1.914   5.754
 4217SOL    HW113097   3.249   1.873   5.670
 4217SOL    HW213098   3.124   1.876   5.774
 4218SOL     OW13099   3.162   2.315   6.277
 4218SOL    HW113100   3.103   2.395   6.281
 4218SOL    HW213101   3.177   2.280   6.370
 4219SOL     OW13102   3.455   2.083   6.468
 4219SOL    HW113103   3.371   2.082   6.522
 4219SOL    HW213104   3.457   2.166   6.412
 4220SOL     OW13105   1.901   2.939   5.886
 4220SOL    HW113106   2.000   2.928   5.877
 4220SOL    HW213107   1.861   2.853   5.918
 4221SOL     OW13108   2.737   3.508   5.923
 4221SOL    HW113109   2.660   3.473   5.869
 4221SOL    HW213110   2.705   3.579   5.985
 4222SOL     OW13111   2.092   2.490   7.561
 4222SOL    HW113112   1.999   2.488   7.598
 4222SOL    HW213113   2.093   2.451   7.469
 4223SOL     OW13114   3.617   2.469   7.679
 4223SOL    HW113115   3.605   2.456   7.580
 4223SOL    HW213116   3.587   2.388   7.728
 4224SOL     OW13117   2.093   3.575   7.931
 4224SOL    HW113118   2.127   3.652   7.985
 4224SOL    HW213119   2.137   3.575   7.841
 4225SOL     OW13120   2.092   3.296   7.986
 4225SOL    HW113121   2.066   3.392   7.986
 4225SOL    HW213122   2.021   3.242   8.031
 4226SOL     OW13123   2.468   2.826   7.571
 4226SOL    HW113124   2.475   2.910   7.517
 4226SOL    HW213125   2.514   2.839   7.659
 4227SOL     OW13126   3.704   3.629   7.807
 4227SOL    HW113127   3.758   3.600   7.887
 4227SOL    HW213128   3.734   3.719   7.778
 4228SOL     OW13129   1.889   3.458   7.565
 4228SOL    HW113130   1.870   3.362   7.586
 4228SOL    HW213131   1.856   3.516   7.640
 4229SOL     OW13132   3.551   2.784   8.060
 4229SOL    HW113133   3.646   2.755   8.068
 4229SOL    HW213134   3.543   2.849   7.985
 4230SOL     OW13135   3.503   2.970   7.880
 4230SOL    HW113136   3.589   2.972   7.828
 4230SOL    HW213137   3.517   3.017   7.968
 4231SOL     OW13138   2.671   1.866   7.950
 4231SOL    HW113139   2.711   1.957   7.941
 4231SOL    HW213140   2.571   1.874   7.956
 4232SOL     OW13141   3.387   2.861   7.638
 4232SOL    HW113142   3.324   2.785   7.651
 4232SOL    HW213143   3.435   2.879   7.724
 4233SOL     OW13144   3.438   3.524   7.755
 4233SOL    HW113145   3.527   3.570   7.758
 4233SOL    HW213146   3.417   3.500   7.660
 4234SOL     OW13147   1.938   2.673   8.237
 4234SOL    HW113148   2.037   2.661   8.246
 4234SOL    HW213149   1.914   2.768   8.258
 4235SOL     OW13150   2.727   2.210   7.643
 4235SOL    HW113151   2.786   2.273   7.594
 4235SOL    HW213152   2.746   2.116   7.614
 4236SOL     OW13153   2.183   2.805   7.690
 4236SOL    HW113154   2.265   2.844   7.648
 4236SOL    HW213155   2.156   2.723   7.641
 4237SOL     OW13156   2.973   3.638   7.685
 4237SOL    HW113157   2.913   3.576   7.735
 4237SOL    HW213158   3.004   3.594   7.600
 4238SOL     OW13159   3.494   3.239   7.529
 4238SOL    HW113160   3.462   3.333   7.519
 4238SOL    HW213161   3.418   3.176   7.517
 4239SOL     OW13162   2.326   3.605   7.771
 4239SOL    HW113163   2.359   3.644   7.857
 4239SOL    HW213164   2.402   3.598   7.706
 4240SOL     OW13165   3.262   1.969   7.874
 4240SOL    HW113166   3.238   1.932   7.784
 4240SOL    HW213167   3.361   1.985   7.878
 4241SOL     OW13168   2.244   2.562   7.928
 4241SOL    HW113169   2.289   2.472   7.925
 4241SOL    HW213170   2.150   2.551   7.961
 4242SOL     OW13171   2.476   1.984   7.565
 4242SOL    HW113172   2.574   1.962   7.572
 4242SOL    HW213173   2.445   1.967   7.472
 4243SOL     OW13174   2.401   1.926   7.960
 4243SOL    HW113175   2.320   1.927   8.018
 4243SOL    HW213176   2.404   2.009   7.905
 4244SOL     OW13177   3.296   3.050   7.489
 4244SOL    HW113178   3.328   2.974   7.546
 4244SOL    HW213179   3.204   3.077   7.519
 4245SOL     OW13180   2.159   1.897   7.619
 4245SOL    HW113181   2.208   1.981   7.598
 4245SOL    HW213182   2.221   1.832   7.664
 4246SOL     OW13183   2.797   2.098   7.928
 4246SOL    HW113184   2.749   2.139   7.850
 4246SOL    HW213185   2.896   2.096   7.909
 4247SOL     OW13186   2.321   3.014   8.189
 4247SOL    HW113187   2.250   2.987   8.254
 4247SOL    HW213188   2.295   2.986   8.096
 4248SOL     OW13189   3.133   3.659   8.039
 4248SOL    HW113190   3.177   3.723   7.975
 4248SOL    HW213191   3.083   3.711   8.109
 4249SOL     OW13192   2.894   2.411   7.464
 4249SOL    HW113193   2.853   2.493   7.425
 4249SOL    HW213194   2.958   2.437   7.537
 4250SOL     OW13195   3.719   2.695   7.825
 4250SOL    HW113196   3.761   2.631   7.889
 4250SOL    HW213197   3.681   2.644   7.747
 4251SOL     OW13198   2.350   3.247   7.622
 4251SOL    HW113199   2.263   3.232   7.669
 4251SOL    HW213200   2.333   3.273   7.527
 4252SOL     OW13201   3.252   2.437   7.526
 4252SOL    HW113202   3.198   2.416   7.607
 4252SOL    HW213203   3.343   2.396   7.535
 4253SOL     OW13204   2.389   2.118   7.776
 4253SOL    HW113205   2.416   2.059   7.701
 4253SOL    HW213206   2.389   2.213   7.745
 4254SOL     OW13207   2.567   2.912   7.816
 4254SOL    HW113208   2.553   2.919   7.915
 4254SOL    HW213209   2.651   2.861   7.798
 4255SOL     OW13210   2.229   2.962   7.949
 4255SOL    HW113211   2.222   3.045   7.893
 4255SOL    HW213212   2.233   2.882   7.889
 4256SOL     OW13213   3.114   3.210   7.836
 4256SOL    HW113214   3.164   3.287   7.876
 4256SOL    HW213215   3.019   3.212   7.868
 4257SOL     OW13216   3.444   2.501   7.920
 4257SOL    HW113217   3.413   2.562   7.993
 4257SOL    HW213218   3.494   2.553   7.851
 4258SOL     OW13219   3.071   2.387   7.723
 4258SOL    HW113220   3.084   2.303   7.777
 4258SOL    HW213221   3.042   2.461   7.783
 4259SOL     OW13222   3.484   2.229   7.822
 4259SOL    HW113223   3.486   2.153   7.886
 4259SOL    HW213224   3.436   2.306   7.862
 4260SOL     OW13225   3.402   2.136   7.573
 4260SOL    HW113226   3.341   2.061   7.596
 4260SOL    HW213227   3.424   2.188   7.656
 4261SOL     OW13228   3.165   2.700   7.490
 4261SOL    HW113229   3.199   2.607   7.505
 4261SOL    HW213230   3.183   2.727   7.395
 4262SOL     OW13231   1.870   3.188   7.648
 4262SOL    HW113232   1.777   3.209   7.617
 4262SOL    HW213233   1.880   3.089   7.661
 4263SOL     OW13234   2.335   2.362   7.639
 4263SOL    HW113235   2.396   2.442   7.643
 4263SOL    HW213236   2.240   2.393   7.646
 4264SOL     OW13237   3.164   2.717   7.757
 4264SOL    HW113238   3.078   2.686   7.799
 4264SOL    HW213239   3.160   2.703   7.658
 4265SOL     OW13240   3.588   1.997   7.971
 4265SOL    HW113241   3.661   1.980   7.904
 4265SOL    HW213242   3.557   1.910   8.009
 4266SOL     OW13243   3.250   3.435   7.925
 4266SOL    HW113244   3.317   3.447   7.851
 4266SOL    HW213245   3.210   3.524   7.948
 4267SOL     OW13246   2.534   3.478   7.602
 4267SOL    HW113247   2.543   3.488   7.503
 4267SOL    HW213248   2.494   3.389   7.623
 4268SOL     OW13249   3.056   3.474   7.479
 4268SOL    HW113250   3.062   3.381   7.516
 4268SOL    HW213251   2.997   3.474   7.399
 4269SOL     OW13252   3.366   3.469   7.492
 4269SOL    HW113253   3.274   3.506   7.499
 4269SOL    HW213254   3.404   3.489   7.402
 4270SOL     OW13255   2.452   3.349   7.939
 4270SOL    HW113256   2.494   3.291   7.869
 4270SOL    HW213257   2.408   3.428   7.895
 4271SOL     OW13258   2.117   3.210   7.738
 4271SOL    HW113259   2.021   3.211   7.711
 4271SOL    HW213260   2.129   3.263   7.822
 4272SOL     OW13261   1.937   2.207   7.481
 4272SOL    HW113262   1.845   2.179   7.452
 4272SOL    HW213263   1.968   2.284   7.425
 4273SOL     OW13264   1.934   2.028   7.766
 4273SOL    HW113265   1.917   2.111   7.712
 4273SOL    HW213266   2.024   1.991   7.744
 4274SOL     OW13267   3.045   3.197   7.567
 4274SOL    HW113268   2.946   3.186   7.569
 4274SOL    HW213269   3.079   3.212   7.660
 4275SOL     OW13270   3.087   2.187   7.897
 4275SOL    HW113271   3.152   2.113   7.886
 4275SOL    HW213272   3.107   2.237   7.981
 4276SOL     OW13273   2.721   3.236   7.464
 4276SOL    HW113274   2.675   3.251   7.552
 4276SOL    HW213275   2.765   3.321   7.434
 4277SOL     OW13276   2.945   2.846   7.535
 4277SOL    HW113277   2.922   2.899   7.453
 4277SOL    HW213278   3.026   2.790   7.516
 4278SOL     OW13279   2.290   2.286   7.968
 4278SOL    HW113280   2.320   2.214   7.906
 4278SOL    HW213281   2.251   2.246   8.051
 4279SOL     OW13282   2.632   3.192   7.749
 4279SOL    HW113283   2.586   3.105   7.766
 4279SOL    HW213284   2.723   3.189   7.790
 4280SOL     OW13285   3.214   1.914   7.616
 4280SOL    HW113286   3.249   1.873   7.532
 4280SOL    HW213287   3.124   1.876   7.636
 4281SOL     OW13288   1.901   2.939   7.748
 4281SOL    HW113289   2.000   2.928   7.739
 4281SOL    HW213290   1.861   2.853   7.780
 4282SOL     OW13291   2.737   3.508   7.785
 4282SOL    HW113292   2.660   3.473   7.731
 4282SOL    HW213293   2.705   3.579   7.847
 4283SOL     OW13294   2.092   4.352   0.113
 4283SOL    HW113295   1.999   4.350   0.150
 4283SOL    HW213296   2.093   4.313   0.021
 4284SOL     OW13297   2.087   3.999   0.996
 4284SOL    HW113298   2.122   3.982   1.088
 4284SOL    HW213299   1.999   3.954   0.984
 4285SOL     OW13300   1.881   4.092   0.647
 4285SOL    HW113301   1.799   4.135   0.686
 4285SOL    HW213302   1.853   4.019   0.584
 4286SOL     OW13303   2.431   4.999   1.165
 4286SOL    HW113304   2.338   4.992   1.128
 4286SOL    HW213305   2.442   5.088   1.209
 4287SOL     OW13306   3.417   5.235   0.703
 4287SOL    HW113307   3.360   5.219   0.784
 4287SOL    HW213308   3.358   5.245   0.623
 4288SOL     OW13309   2.997   4.427   0.717
 4288SOL    HW113310   3.054   4.505   0.692
 4288SOL    HW213311   2.937   4.453   0.793
 4289SOL     OW13312   3.617   4.331   0.231
 4289SOL    HW113313   3.605   4.318   0.132
 4289SOL    HW213314   3.587   4.250   0.280
 4290SOL     OW13315   2.630   4.868   1.023
 4290SOL    HW113316   2.552   4.885   1.083
 4290SOL    HW213317   2.664   4.955   0.987
 4291SOL     OW13318   2.712   4.522   1.823
 4291SOL    HW113319   2.708   4.598   1.888
 4291SOL    HW213320   2.734   4.558   1.732
 4292SOL     OW13321   2.547   4.736   0.665
 4292SOL    HW113322   2.616   4.720   0.735
 4292SOL    HW213323   2.474   4.793   0.703
 4293SOL     OW13324   2.548   4.885   1.803
 4293SOL    HW113325   2.608   4.964   1.817
 4293SOL    HW213326   2.462   4.916   1.762
 4294SOL     OW13327   2.197   5.159   1.061
 4294SOL    HW113328   2.119   5.128   1.008
 4294SOL    HW213329   2.255   5.217   1.004
 4295SOL     OW13330   3.322   5.229   1.339
 4295SOL    HW113331   3.346   5.323   1.365
 4295SOL    HW213332   3.306   5.175   1.421
 4296SOL     OW13333   2.300   4.116   1.499
 4296SOL    HW113334   2.382   4.060   1.508
 4296SOL    HW213335   2.219   4.058   1.503
 4297SOL     OW13336   3.465   4.171   0.737
 4297SOL    HW113337   3.391   4.217   0.687
 4297SOL    HW213338   3.516   4.239   0.790
 4298SOL     OW13339   2.989   5.065   1.690
 4298SOL    HW113340   3.036   5.065   1.778
 4298SOL    HW213341   2.941   4.978   1.679
 4299SOL     OW13342   2.092   5.158   0.538
 4299SOL    HW113343   2.066   5.254   0.538
 4299SOL    HW213344   2.021   5.104   0.583
 4300SOL     OW13345   2.102   4.815   0.886
 4300SOL    HW113346   2.116   4.731   0.938
 4300SOL    HW213347   2.047   4.879   0.941
 4301SOL     OW13348   2.468   4.688   0.123
 4301SOL    HW113349   2.475   4.772   0.069
 4301SOL    HW213350   2.514   4.701   0.211
 4302SOL     OW13351   3.456   3.838   1.480
 4302SOL    HW113352   3.438   3.905   1.408
 4302SOL    HW213353   3.453   3.884   1.569
 4303SOL     OW13354   1.984   4.367   0.563
 4303SOL    HW113355   1.939   4.279   0.580
 4303SOL    HW213356   1.983   4.421   0.647
 4304SOL     OW13357   1.889   5.320   0.117
 4304SOL    HW113358   1.870   5.224   0.138
 4304SOL    HW213359   1.856   5.378   0.192
 4305SOL     OW13360   3.551   4.646   0.612
 4305SOL    HW113361   3.646   4.617   0.620
 4305SOL    HW213362   3.543   4.711   0.537
 4306SOL     OW13363   3.503   4.832   0.432
 4306SOL    HW113364   3.589   4.834   0.380
 4306SOL    HW213365   3.517   4.879   0.520
 4307SOL     OW13366   1.975   4.461   1.597
 4307SOL    HW113367   2.063   4.448   1.642
 4307SOL    HW213368   1.962   4.558   1.575
 4308SOL     OW13369   2.475   5.089   0.726
 4308SOL    HW113370   2.426   5.002   0.735
 4308SOL    HW213371   2.452   5.132   0.639
 4309SOL     OW13372   3.155   4.952   1.423
 4309SOL    HW113373   3.192   4.879   1.365
 4309SOL    HW213374   3.207   4.957   1.508
 4310SOL     OW13375   2.671   3.728   0.502
 4310SOL    HW113376   2.711   3.819   0.493
 4310SOL    HW213377   2.571   3.736   0.508
 4311SOL     OW13378   2.059   4.700   1.264
 4311SOL    HW113379   2.148   4.655   1.250
 4311SOL    HW213380   1.986   4.635   1.245
 4312SOL     OW13381   3.387   4.723   0.190
 4312SOL    HW113382   3.324   4.647   0.203
 4312SOL    HW213383   3.435   4.741   0.276
 4313SOL     OW13384   2.179   3.975   1.801
 4313SOL    HW113385   2.250   4.046   1.807
 4313SOL    HW213386   2.091   4.014   1.829
 4314SOL     OW13387   3.328   5.141   0.953
 4314SOL    HW113388   3.269   5.147   1.033
 4314SOL    HW213389   3.313   5.053   0.907
 4315SOL     OW13390   2.460   4.453   0.270
 4315SOL    HW113391   2.484   4.522   0.202
 4315SOL    HW213392   2.382   4.486   0.324
 4316SOL     OW13393   3.143   4.069   0.944
 4316SOL    HW113394   3.057   4.019   0.931
 4316SOL    HW213395   3.205   4.015   1.000
 4317SOL     OW13396   2.669   4.329   1.465
 4317SOL    HW113397   2.622   4.326   1.554
 4317SOL    HW213398   2.618   4.274   1.399
 4318SOL     OW13399   3.256   4.193   1.674
 4318SOL    HW113400   3.236   4.236   1.762
 4318SOL    HW213401   3.334   4.131   1.683
 4319SOL     OW13402   2.835   4.614   1.572
 4319SOL    HW113403   2.881   4.530   1.543
 4319SOL    HW213404   2.779   4.648   1.497
 4320SOL     OW13405   2.853   4.134   1.242
 4320SOL    HW113406   2.776   4.168   1.296
 4320SOL    HW213407   2.819   4.083   1.163
 4321SOL     OW13408   2.903   4.425   0.429
 4321SOL    HW113409   2.929   4.421   0.525
 4321SOL    HW213410   2.818   4.374   0.415
 4322SOL     OW13411   1.938   4.535   0.789
 4322SOL    HW113412   2.037   4.523   0.798
 4322SOL    HW213413   1.914   4.630   0.810
 4323SOL     OW13414   2.727   4.072   0.195
 4323SOL    HW113415   2.786   4.135   0.146
 4323SOL    HW213416   2.746   3.978   0.166
 4324SOL     OW13417   3.581   4.309   1.831
 4324SOL    HW113418   3.555   4.398   1.795
 4324SOL    HW213419   3.579   4.241   1.758
 4325SOL     OW13420   3.224   4.868   0.545
 4325SOL    HW113421   3.307   4.839   0.497
 4325SOL    HW213422   3.175   4.935   0.489
 4326SOL     OW13423   2.412   3.920   0.885
 4326SOL    HW113424   2.407   3.915   0.985
 4326SOL    HW213425   2.414   4.016   0.856
 4327SOL     OW13426   2.870   5.180   0.477
 4327SOL    HW113427   2.824   5.252   0.425
 4327SOL    HW213428   2.866   5.200   0.575
 4328SOL     OW13429   3.657   4.790   0.873
 4328SOL    HW113430   3.595   4.775   0.797
 4328SOL    HW213431   3.605   4.801   0.958
 4329SOL     OW13432   3.089   5.274   1.506
 4329SOL    HW113433   3.095   5.197   1.570
 4329SOL    HW213434   3.037   5.248   1.426
 4330SOL     OW13435   2.183   4.667   0.242
 4330SOL    HW113436   2.265   4.706   0.200
 4330SOL    HW213437   2.156   4.585   0.193
 4331SOL     OW13438   3.320   4.459   0.728
 4331SOL    HW113439   3.315   4.394   0.803
 4331SOL    HW213440   3.400   4.518   0.741
 4332SOL     OW13441   2.323   4.990   1.727
 4332SOL    HW113442   2.273   4.991   1.641
 4332SOL    HW213443   2.260   4.972   1.803
 4333SOL     OW13444   2.973   5.500   0.237
 4333SOL    HW113445   2.913   5.438   0.287
 4333SOL    HW213446   3.004   5.456   0.152
 4334SOL     OW13447   2.064   4.009   1.498
 4334SOL    HW113448   1.984   4.069   1.485
 4334SOL    HW213449   2.054   3.960   1.584
 4335SOL     OW13450   3.494   5.101   0.081
 4335SOL    HW113451   3.462   5.195   0.071
 4335SOL    HW213452   3.418   5.038   0.069
 4336SOL     OW13453   3.262   3.831   0.426
 4336SOL    HW113454   3.238   3.794   0.336
 4336SOL    HW213455   3.361   3.847   0.430
 4337SOL     OW13456   2.244   4.424   0.480
 4337SOL    HW113457   2.289   4.334   0.477
 4337SOL    HW213458   2.150   4.413   0.513
 4338SOL     OW13459   3.409   3.946   1.729
 4338SOL    HW113460   3.404   3.983   1.821
 4338SOL    HW213461   3.337   3.877   1.717
 4339SOL     OW13462   2.476   3.846   0.117
 4339SOL    HW113463   2.574   3.824   0.124
 4339SOL    HW213464   2.445   3.829   0.024
 4340SOL     OW13465   2.643   3.988   1.749
 4340SOL    HW113466   2.710   3.927   1.792
 4340SOL    HW213467   2.570   4.007   1.814
 4341SOL     OW13468   3.213   4.314   1.433
 4341SOL    HW113469   3.241   4.271   1.518
 4341SOL    HW213470   3.238   4.410   1.434
 4342SOL     OW13471   2.665   5.126   0.924
 4342SOL    HW113472   2.755   5.140   0.882
 4342SOL    HW213473   2.594   5.128   0.853
 4343SOL     OW13474   2.784   4.227   0.899
 4343SOL    HW113475   2.759   4.218   0.803
 4343SOL    HW213476   2.832   4.145   0.930
 4344SOL     OW13477   2.401   3.788   0.512
 4344SOL    HW113478   2.320   3.789   0.570
 4344SOL    HW213479   2.404   3.871   0.457
 4345SOL     OW13480   3.296   4.912   0.041
 4345SOL    HW113481   3.328   4.836   0.098
 4345SOL    HW213482   3.204   4.939   0.071
 4346SOL     OW13483   2.159   3.759   0.171
 4346SOL    HW113484   2.208   3.843   0.150
 4346SOL    HW213485   2.221   3.694   0.216
 4347SOL     OW13486   2.797   3.960   0.480
 4347SOL    HW113487   2.749   4.001   0.402
 4347SOL    HW213488   2.896   3.958   0.461
 4348SOL     OW13489   2.938   4.407   1.464
 4348SOL    HW113490   2.858   4.346   1.467
 4348SOL    HW213491   3.019   4.354   1.440
 4349SOL     OW13492   3.089   5.294   0.793
 4349SOL    HW113493   3.110   5.368   0.728
 4349SOL    HW213494   3.157   5.294   0.866
 4350SOL     OW13495   2.321   4.876   0.741
 4350SOL    HW113496   2.250   4.849   0.806
 4350SOL    HW213497   2.295   4.848   0.648
 4351SOL     OW13498   2.894   4.273   0.016
 4351SOL    HW113499   2.853   4.355  -0.023
 4351SOL    HW213500   2.958   4.299   0.089
 4352SOL     OW13501   1.940   4.280   1.386
 4352SOL    HW113502   2.032   4.279   1.345
 4352SOL    HW213503   1.934   4.354   1.453
 4353SOL     OW13504   2.423   3.946   1.147
 4353SOL    HW113505   2.461   3.862   1.184
 4353SOL    HW213506   2.335   3.965   1.191
 4354SOL     OW13507   2.728   4.178   0.642
 4354SOL    HW113508   2.696   4.250   0.580
 4354SOL    HW213509   2.752   4.097   0.589
 4355SOL     OW13510   2.879   3.763   0.753
 4355SOL    HW113511   2.807   3.768   0.684
 4355SOL    HW213512   2.855   3.694   0.822
 4356SOL     OW13513   3.291   4.897   0.867
 4356SOL    HW113514   3.236   4.813   0.860
 4356SOL    HW213515   3.317   4.926   0.775
 4357SOL     OW13516   3.328   4.314   0.992
 4357SOL    HW113517   3.298   4.219   0.999
 4357SOL    HW213518   3.401   4.330   1.058
 4358SOL     OW13519   3.719   4.557   0.377
 4358SOL    HW113520   3.761   4.493   0.441
 4358SOL    HW213521   3.681   4.506   0.299
 4359SOL     OW13522   2.350   5.109   0.174
 4359SOL    HW113523   2.263   5.094   0.221
 4359SOL    HW213524   2.333   5.135   0.079
 4360SOL     OW13525   3.526   5.004   0.657
 4360SOL    HW113526   3.625   5.012   0.671
 4360SOL    HW213527   3.481   5.088   0.688
 4361SOL     OW13528   3.252   4.299   0.078
 4361SOL    HW113529   3.198   4.278   0.159
 4361SOL    HW213530   3.343   4.258   0.087
 4362SOL     OW13531   2.389   3.980   0.328
 4362SOL    HW113532   2.416   3.921   0.253
 4362SOL    HW213533   2.389   4.075   0.297
 4363SOL     OW13534   3.616   4.947   1.588
 4363SOL    HW113535   3.707   4.908   1.575
 4363SOL    HW213536   3.624   5.043   1.612
 4364SOL     OW13537   2.926   5.071   1.340
 4364SOL    HW113538   2.846   5.048   1.395
 4364SOL    HW213539   3.009   5.045   1.389
 4365SOL     OW13540   2.973   4.919   1.100
 4365SOL    HW113541   2.933   4.963   1.181
 4365SOL    HW213542   2.932   4.956   1.017
 4366SOL     OW13543   3.500   4.823   1.079
 4366SOL    HW113544   3.505   4.904   1.138
 4366SOL    HW213545   3.414   4.825   1.028
 4367SOL     OW13546   2.777   3.813   1.402
 4367SOL    HW113547   2.802   3.793   1.307
 4367SOL    HW213548   2.849   3.869   1.444
 4368SOL     OW13549   2.842   4.840   1.719
 4368SOL    HW113550   2.743   4.846   1.729
 4368SOL    HW213551   2.865   4.760   1.663
 4369SOL     OW13552   2.567   4.774   0.368
 4369SOL    HW113553   2.553   4.781   0.467
 4369SOL    HW213554   2.651   4.723   0.350
 4370SOL     OW13555   2.272   4.537   1.251
 4370SOL    HW113556   2.358   4.549   1.301
 4370SOL    HW213557   2.230   4.450   1.278
 4371SOL     OW13558   3.136   4.110   1.262
 4371SOL    HW113559   3.157   4.184   1.326
 4371SOL    HW213560   3.047   4.127   1.219
 4372SOL     OW13561   2.229   4.824   0.501
 4372SOL    HW113562   2.222   4.907   0.445
 4372SOL    HW213563   2.233   4.744   0.441
 4373SOL     OW13564   2.428   4.261   0.865
 4373SOL    HW113565   2.440   4.327   0.791
 4373SOL    HW213566   2.474   4.295   0.948
 4374SOL     OW13567   3.114   5.072   0.388
 4374SOL    HW113568   3.164   5.149   0.428
 4374SOL    HW213569   3.019   5.074   0.420
 4375SOL     OW13570   3.134   5.169   1.142
 4375SOL    HW113571   3.181   5.182   1.229
 4375SOL    HW213572   3.068   5.095   1.151
 4376SOL     OW13573   3.444   4.363   0.472
 4376SOL    HW113574   3.413   4.424   0.545
 4376SOL    HW213575   3.494   4.415   0.403
 4377SOL     OW13576   2.216   5.234   1.329
 4377SOL    HW113577   2.195   5.190   1.242
 4377SOL    HW213578   2.313   5.260   1.332
 4378SOL     OW13579   2.264   4.475   1.598
 4378SOL    HW113580   2.332   4.530   1.551
 4378SOL    HW213581   2.304   4.387   1.625
 4379SOL     OW13582   3.449   4.503   1.670
 4379SOL    HW113583   3.357   4.541   1.665
 4379SOL    HW213584   3.509   4.550   1.605
 4380SOL     OW13585   2.875   3.829   1.770
 4380SOL    HW113586   2.881   3.914   1.718
 4380SOL    HW213587   2.907   3.753   1.713
 4381SOL     OW13588   2.366   3.774   1.740
 4381SOL    HW113589   2.324   3.717   1.670
 4381SOL    HW213590   2.300   3.843   1.772
 4382SOL     OW13591   2.435   4.594   1.029
 4382SOL    HW113592   2.479   4.683   1.020
 4382SOL    HW213593   2.372   4.594   1.106
 4383SOL     OW13594   3.222   4.586   1.045
 4383SOL    HW113595   3.147   4.586   0.979
 4383SOL    HW213596   3.259   4.494   1.054
 4384SOL     OW13597   3.071   4.249   0.275
 4384SOL    HW113598   3.084   4.165   0.329
 4384SOL    HW213599   3.042   4.323   0.335
 4385SOL     OW13600   2.169   3.937   1.231
 4385SOL    HW113601   2.146   3.974   1.321
 4385SOL    HW213602   2.139   3.842   1.225
 4386SOL     OW13603   1.899   5.034   1.282
 4386SOL    HW113604   1.952   4.985   1.350
 4386SOL    HW213605   1.921   5.132   1.287
 4387SOL     OW13606   2.594   4.358   1.064
 4387SOL    HW113607   2.653   4.332   0.988
 4387SOL    HW213608   2.566   4.454   1.053
 4388SOL     OW13609   3.590   4.659   1.854
 4388SOL    HW113610   3.544   4.652   1.765
 4388SOL    HW213611   3.528   4.703   1.920
 4389SOL     OW13612   2.169   3.787   0.618
 4389SOL    HW113613   2.158   3.881   0.651
 4389SOL    HW213614   2.164   3.724   0.695
 4390SOL     OW13615   3.484   4.091   0.374
 4390SOL    HW113616   3.486   4.015   0.438
 4390SOL    HW213617   3.436   4.168   0.414
 4391SOL     OW13618   2.885   4.490   0.966
 4391SOL    HW113619   2.900   4.511   1.062
 4391SOL    HW213620   2.855   4.395   0.957
 4392SOL     OW13621   3.721   5.242   1.605
 4392SOL    HW113622   3.735   5.269   1.510
 4392SOL    HW213623   3.804   5.264   1.658
 4393SOL     OW13624   2.212   4.622   1.804
 4393SOL    HW113625   2.288   4.666   1.852
 4393SOL    HW213626   2.247   4.575   1.722
 4394SOL     OW13627   3.402   3.998   0.125
 4394SOL    HW113628   3.341   3.923   0.148
 4394SOL    HW213629   3.424   4.050   0.208
 4395SOL     OW13630   3.165   4.562   0.042
 4395SOL    HW113631   3.199   4.469   0.057
 4395SOL    HW213632   3.183   4.589  -0.053
 4396SOL     OW13633   2.930   5.057   0.849
 4396SOL    HW113634   2.937   4.973   0.794
 4396SOL    HW213635   2.992   5.126   0.813
 4397SOL     OW13636   2.181   4.534   0.949
 4397SOL    HW113637   2.274   4.570   0.954
 4397SOL    HW213638   2.175   4.449   1.001
 4398SOL     OW13639   2.201   4.233   1.006
 4398SOL    HW113640   2.149   4.150   0.989
 4398SOL    HW213641   2.278   4.238   0.942
 4399SOL     OW13642   3.000   4.104   1.678
 4399SOL    HW113643   2.955   4.167   1.742
 4399SOL    HW213644   3.093   4.135   1.661
 4400SOL     OW13645   3.022   3.931   1.477
 4400SOL    HW113646   3.022   3.995   1.554
 4400SOL    HW213647   3.050   3.979   1.394
 4401SOL     OW13648   1.870   5.050   0.200
 4401SOL    HW113649   1.777   5.071   0.169
 4401SOL    HW213650   1.880   4.951   0.213
 4402SOL     OW13651   2.864   4.520   1.238
 4402SOL    HW113652   2.905   4.488   1.324
 4402SOL    HW213653   2.768   4.493   1.235
 4403SOL     OW13654   1.902   4.268   1.114
 4403SOL    HW113655   1.987   4.235   1.073
 4403SOL    HW213656   1.915   4.283   1.212
 4404SOL     OW13657   2.051   4.244   1.722
 4404SOL    HW113658   2.110   4.204   1.652
 4404SOL    HW213659   1.993   4.315   1.681
 4405SOL     OW13660   3.231   4.674   1.660
 4405SOL    HW113661   3.270   4.763   1.680
 4405SOL    HW213662   3.241   4.654   1.563
 4406SOL     OW13663   2.677   4.296   0.325
 4406SOL    HW113664   2.684   4.207   0.279
 4406SOL    HW213665   2.583   4.330   0.317
 4407SOL     OW13666   3.519   4.328   1.206
 4407SOL    HW113667   3.481   4.259   1.268
 4407SOL    HW213668   3.601   4.292   1.162
 4408SOL     OW13669   2.114   5.288   1.744
 4408SOL    HW113670   2.084   5.345   1.820
 4408SOL    HW213671   2.107   5.191   1.770
 4409SOL     OW13672   2.533   4.188   1.269
 4409SOL    HW113673   2.499   4.099   1.239
 4409SOL    HW213674   2.559   4.242   1.189
 4410SOL     OW13675   2.335   4.224   0.191
 4410SOL    HW113676   2.396   4.304   0.195
 4410SOL    HW213677   2.240   4.255   0.198
 4411SOL     OW13678   2.021   4.861   1.466
 4411SOL    HW113679   2.043   4.800   1.542
 4411SOL    HW213680   2.031   4.812   1.380
 4412SOL     OW13681   3.209   4.783   1.234
 4412SOL    HW113682   3.233   4.720   1.160
 4412SOL    HW213683   3.119   4.823   1.216
 4413SOL     OW13684   3.164   4.579   0.309
 4413SOL    HW113685   3.078   4.548   0.351
 4413SOL    HW213686   3.160   4.565   0.210
 4414SOL     OW13687   1.945   4.982   1.022
 4414SOL    HW113688   1.940   4.981   1.122
 4414SOL    HW213689   1.862   4.941   0.984
 4415SOL     OW13690   2.550   5.386   1.716
 4415SOL    HW113691   2.494   5.467   1.725
 4415SOL    HW213692   2.602   5.390   1.630
 4416SOL     OW13693   2.765   3.810   0.133
 4416SOL    HW113694   2.816   3.811   0.047
 4416SOL    HW213695   2.821   3.768   0.204
 4417SOL     OW13696   3.588   3.859   0.523
 4417SOL    HW113697   3.661   3.842   0.456
 4417SOL    HW213698   3.557   3.772   0.561
 4418SOL     OW13699   3.142   4.651   0.672
 4418SOL    HW113700   3.202   4.570   0.674
 4418SOL    HW213701   3.182   4.720   0.612
 4419SOL     OW13702   2.692   4.997   1.422
 4419SOL    HW113703   2.687   5.030   1.517
 4419SOL    HW213704   2.606   5.016   1.376
 4420SOL     OW13705   3.703   3.899   0.963
 4420SOL    HW113706   3.742   3.814   0.927
 4420SOL    HW213707   3.605   3.901   0.944
 4421SOL     OW13708   2.125   4.050   0.720
 4421SOL    HW113709   2.046   4.101   0.686
 4421SOL    HW213710   2.116   4.035   0.818
 4422SOL     OW13711   3.056   5.336   0.031
 4422SOL    HW113712   3.062   5.243   0.068
 4422SOL    HW213713   2.997   5.336  -0.049
 4423SOL     OW13714   2.684   4.726   1.372
 4423SOL    HW113715   2.724   4.725   1.280
 4423SOL    HW213716   2.694   4.818   1.412
 4424SOL     OW13717   2.778   4.634   0.291
 4424SOL    HW113718   2.841   4.672   0.223
 4424SOL    HW213719   2.818   4.551   0.330
 4425SOL     OW13720   2.234   5.012   1.490
 4425SOL    HW113721   2.221   5.105   1.456
 4425SOL    HW213722   2.150   4.960   1.477
 4426SOL     OW13723   3.476   5.016   1.289
 4426SOL    HW113724   3.536   5.019   1.369
 4426SOL    HW213725   3.401   5.080   1.302
 4427SOL     OW13726   2.901   4.822   0.696
 4427SOL    HW113727   2.831   4.775   0.750
 4427SOL    HW213728   2.960   4.754   0.653
 4428SOL     OW13729   2.876   3.960   0.971
 4428SOL    HW113730   2.868   3.924   0.878
 4428SOL    HW213731   2.874   3.884   1.036
 4429SOL     OW13732   3.571   4.109   1.381
 4429SOL    HW113733   3.644   4.178   1.385
 4429SOL    HW213734   3.599   4.034   1.322
 4430SOL     OW13735   2.117   5.072   0.290
 4430SOL    HW113736   2.021   5.073   0.263
 4430SOL    HW213737   2.129   5.125   0.374
 4431SOL     OW13738   1.967   4.737   1.726
 4431SOL    HW113739   1.890   4.704   1.780
 4431SOL    HW213740   2.052   4.707   1.768
 4432SOL     OW13741   2.534   3.927   1.489
 4432SOL    HW113742   2.624   3.911   1.449
 4432SOL    HW213743   2.542   3.932   1.588
 4433SOL     OW13744   1.937   4.069   0.033
 4433SOL    HW113745   1.845   4.041   0.004
 4433SOL    HW213746   1.968   4.146  -0.023
 4434SOL     OW13747   3.302   4.580   1.398
 4434SOL    HW113748   3.245   4.632   1.335
 4434SOL    HW213749   3.398   4.592   1.374
 4435SOL     OW13750   1.934   3.890   0.318
 4435SOL    HW113751   1.917   3.973   0.264
 4435SOL    HW213752   2.024   3.853   0.296
 4436SOL     OW13753   3.045   5.059   0.119
 4436SOL    HW113754   2.946   5.048   0.121
 4436SOL    HW213755   3.079   5.074   0.212
 4437SOL     OW13756   2.475   4.566   1.431
 4437SOL    HW113757   2.531   4.647   1.414
 4437SOL    HW213758   2.534   4.486   1.434
 4438SOL     OW13759   2.578   4.289   1.708
 4438SOL    HW113760   2.597   4.354   1.782
 4438SOL    HW213761   2.638   4.209   1.717
 4439SOL     OW13762   3.312   4.944   1.633
 4439SOL    HW113763   3.303   4.934   1.732
 4439SOL    HW213764   3.408   4.937   1.607
 4440SOL     OW13765   3.536   4.607   1.254
 4440SOL    HW113766   3.509   4.518   1.217
 4440SOL    HW213767   3.537   4.675   1.181
 4441SOL     OW13768   3.087   4.049   0.449
 4441SOL    HW113769   3.152   3.975   0.438
 4441SOL    HW213770   3.107   4.099   0.533
 4442SOL     OW13771   2.456   4.469   0.652
 4442SOL    HW113772   2.506   4.554   0.633
 4442SOL    HW213773   2.368   4.471   0.604
 4443SOL     OW13774   3.639   4.066   1.642
 4443SOL    HW113775   3.622   4.097   1.548
 4443SOL    HW213776   3.555   4.029   1.680
 4444SOL     OW13777   3.592   4.658   1.517
 4444SOL    HW113778   3.630   4.749   1.532
 4444SOL    HW213779   3.584   4.641   1.418
 4445SOL     OW13780   2.721   5.098   0.016
 4445SOL    HW113781   2.675   5.113   0.104
 4445SOL    HW213782   2.765   5.183  -0.014
 4446SOL     OW13783   2.721   4.680   0.861
 4446SOL    HW113784   2.775   4.611   0.909
 4446SOL    HW213785   2.689   4.749   0.927
 4447SOL     OW13786   2.945   4.708   0.087
 4447SOL    HW113787   2.922   4.761   0.005
 4447SOL    HW213788   3.026   4.652   0.068
 4448SOL     OW13789   2.083   5.038   1.844
 4448SOL    HW113790   2.018   4.965   1.823
 4448SOL    HW213791   2.087   5.052   1.942
 4449SOL     OW13792   1.941   4.964   0.653
 4449SOL    HW113793   1.940   4.917   0.741
 4449SOL    HW213794   2.023   4.936   0.602
 4450SOL     OW13795   2.534   5.115   1.624
 4450SOL    HW113796   2.456   5.065   1.662
 4450SOL    HW213797   2.531   5.210   1.655
 4451SOL     OW13798   3.686   3.916   1.227
 4451SOL    HW113799   3.682   3.826   1.271
 4451SOL    HW213800   3.689   3.905   1.128
 4452SOL     OW13801   2.290   4.148   0.520
 4452SOL    HW113802   2.320   4.076   0.458
 4452SOL    HW213803   2.251   4.108   0.603
 4453SOL     OW13804   3.567   5.211   1.104
 4453SOL    HW113805   3.474   5.186   1.077
 4453SOL    HW213806   3.593   5.161   1.186
 4454SOL     OW13807   2.179   4.271   1.280
 4454SOL    HW113808   2.217   4.212   1.352
 4454SOL    HW213809   2.219   4.245   1.192
 4455SOL     OW13810   3.286   3.938   1.112
 4455SOL    HW113811   3.338   3.873   1.167
 4455SOL    HW213812   3.237   4.001   1.173
 4456SOL     OW13813   2.863   3.758   1.154
 4456SOL    HW113814   2.800   3.686   1.123
 4456SOL    HW213815   2.956   3.722   1.154
 4457SOL     OW13816   2.632   5.054   0.301
 4457SOL    HW113817   2.586   4.967   0.318
 4457SOL    HW213818   2.723   5.051   0.342
 4458SOL     OW13819   2.480   5.291   1.284
 4458SOL    HW113820   2.475   5.373   1.341
 4458SOL    HW213821   2.569   5.288   1.239
 4459SOL     OW13822   3.214   3.776   0.168
 4459SOL    HW113823   3.249   3.735   0.084
 4459SOL    HW213824   3.124   3.738   0.188
 4460SOL     OW13825   3.162   4.177   0.691
 4460SOL    HW113826   3.103   4.257   0.695
 4460SOL    HW213827   3.177   4.142   0.784
 4461SOL     OW13828   3.455   3.945   0.882
 4461SOL    HW113829   3.371   3.944   0.936
 4461SOL    HW213830   3.457   4.028   0.826
 4462SOL     OW13831   1.901   4.801   0.300
 4462SOL    HW113832   2.000   4.790   0.291
 4462SOL    HW213833   1.861   4.715   0.332
 4463SOL     OW13834   2.092   4.352   1.975
 4463SOL    HW113835   1.999   4.350   2.012
 4463SOL    HW213836   2.093   4.313   1.883
 4464SOL     OW13837   2.087   3.999   2.858
 4464SOL    HW113838   2.122   3.982   2.950
 4464SOL    HW213839   1.999   3.954   2.846
 4465SOL     OW13840   1.881   4.092   2.509
 4465SOL    HW113841   1.799   4.135   2.548
 4465SOL    HW213842   1.853   4.019   2.446
 4466SOL     OW13843   2.431   4.999   3.027
 4466SOL    HW113844   2.338   4.992   2.990
 4466SOL    HW213845   2.442   5.088   3.071
 4467SOL     OW13846   3.417   5.235   2.565
 4467SOL    HW113847   3.360   5.219   2.646
 4467SOL    HW213848   3.358   5.245   2.485
 4468SOL     OW13849   2.997   4.427   2.579
 4468SOL    HW113850   3.054   4.505   2.554
 4468SOL    HW213851   2.937   4.453   2.655
 4469SOL     OW13852   3.617   4.331   2.093
 4469SOL    HW113853   3.605   4.318   1.994
 4469SOL    HW213854   3.587   4.250   2.142
 4470SOL     OW13855   2.630   4.868   2.885
 4470SOL    HW113856   2.552   4.885   2.945
 4470SOL    HW213857   2.664   4.955   2.849
 4471SOL     OW13858   2.712   4.522   3.685
 4471SOL    HW113859   2.708   4.598   3.750
 4471SOL    HW213860   2.734   4.558   3.594
 4472SOL     OW13861   2.547   4.736   2.527
 4472SOL    HW113862   2.616   4.720   2.597
 4472SOL    HW213863   2.474   4.793   2.565
 4473SOL     OW13864   2.548   4.885   3.665
 4473SOL    HW113865   2.608   4.964   3.679
 4473SOL    HW213866   2.462   4.916   3.624
 4474SOL     OW13867   2.197   5.159   2.923
 4474SOL    HW113868   2.119   5.128   2.870
 4474SOL    HW213869   2.255   5.217   2.866
 4475SOL     OW13870   3.322   5.229   3.201
 4475SOL    HW113871   3.346   5.323   3.227
 4475SOL    HW213872   3.306   5.175   3.283
 4476SOL     OW13873   2.300   4.116   3.361
 4476SOL    HW113874   2.382   4.060   3.370
 4476SOL    HW213875   2.219   4.058   3.365
 4477SOL     OW13876   3.465   4.171   2.599
 4477SOL    HW113877   3.391   4.217   2.549
 4477SOL    HW213878   3.516   4.239   2.652
 4478SOL     OW13879   2.989   5.065   3.552
 4478SOL    HW113880   3.036   5.065   3.640
 4478SOL    HW213881   2.941   4.978   3.541
 4479SOL     OW13882   2.092   5.158   2.400
 4479SOL    HW113883   2.066   5.254   2.400
 4479SOL    HW213884   2.021   5.104   2.445
 4480SOL     OW13885   2.102   4.815   2.748
 4480SOL    HW113886   2.116   4.731   2.800
 4480SOL    HW213887   2.047   4.879   2.803
 4481SOL     OW13888   2.468   4.688   1.985
 4481SOL    HW113889   2.475   4.772   1.931
 4481SOL    HW213890   2.514   4.701   2.073
 4482SOL     OW13891   3.456   3.838   3.342
 4482SOL    HW113892   3.438   3.905   3.270
 4482SOL    HW213893   3.453   3.884   3.431
 4483SOL     OW13894   1.984   4.367   2.425
 4483SOL    HW113895   1.939   4.279   2.442
 4483SOL    HW213896   1.983   4.421   2.509
 4484SOL     OW13897   1.889   5.320   1.979
 4484SOL    HW113898   1.870   5.224   2.000
 4484SOL    HW213899   1.856   5.378   2.054
 4485SOL     OW13900   3.551   4.646   2.474
 4485SOL    HW113901   3.646   4.617   2.482
 4485SOL    HW213902   3.543   4.711   2.399
 4486SOL     OW13903   3.503   4.832   2.294
 4486SOL    HW113904   3.589   4.834   2.242
 4486SOL    HW213905   3.517   4.879   2.382
 4487SOL     OW13906   1.975   4.461   3.459
 4487SOL    HW113907   2.063   4.448   3.504
 4487SOL    HW213908   1.962   4.558   3.437
 4488SOL     OW13909   2.475   5.089   2.588
 4488SOL    HW113910   2.426   5.002   2.597
 4488SOL    HW213911   2.452   5.132   2.501
 4489SOL     OW13912   3.155   4.952   3.285
 4489SOL    HW113913   3.192   4.879   3.227
 4489SOL    HW213914   3.207   4.957   3.370
 4490SOL     OW13915   2.671   3.728   2.364
 4490SOL    HW113916   2.711   3.819   2.355
 4490SOL    HW213917   2.571   3.736   2.370
 4491SOL     OW13918   2.059   4.700   3.126
 4491SOL    HW113919   2.148   4.655   3.112
 4491SOL    HW213920   1.986   4.635   3.107
 4492SOL     OW13921   3.387   4.723   2.052
 4492SOL    HW113922   3.324   4.647   2.065
 4492SOL    HW213923   3.435   4.741   2.138
 4493SOL     OW13924   2.179   3.975   3.663
 4493SOL    HW113925   2.250   4.046   3.669
 4493SOL    HW213926   2.091   4.014   3.691
 4494SOL     OW13927   3.328   5.141   2.815
 4494SOL    HW113928   3.269   5.147   2.895
 4494SOL    HW213929   3.313   5.053   2.769
 4495SOL     OW13930   2.460   4.453   2.132
 4495SOL    HW113931   2.484   4.522   2.064
 4495SOL    HW213932   2.382   4.486   2.186
 4496SOL     OW13933   3.143   4.069   2.806
 4496SOL    HW113934   3.057   4.019   2.793
 4496SOL    HW213935   3.205   4.015   2.862
 4497SOL     OW13936   2.669   4.329   3.327
 4497SOL    HW113937   2.622   4.326   3.416
 4497SOL    HW213938   2.618   4.274   3.261
 4498SOL     OW13939   3.256   4.193   3.536
 4498SOL    HW113940   3.236   4.236   3.624
 4498SOL    HW213941   3.334   4.131   3.545
 4499SOL     OW13942   2.835   4.614   3.434
 4499SOL    HW113943   2.881   4.530   3.405
 4499SOL    HW213944   2.779   4.648   3.359
 4500SOL     OW13945   2.853   4.134   3.104
 4500SOL    HW113946   2.776   4.168   3.158
 4500SOL    HW213947   2.819   4.083   3.025
 4501SOL     OW13948   2.903   4.425   2.291
 4501SOL    HW113949   2.929   4.421   2.387
 4501SOL    HW213950   2.818   4.374   2.277
 4502SOL     OW13951   1.938   4.535   2.651
 4502SOL    HW113952   2.037   4.523   2.660
 4502SOL    HW213953   1.914   4.630   2.672
 4503SOL     OW13954   2.727   4.072   2.057
 4503SOL    HW113955   2.786   4.135   2.008
 4503SOL    HW213956   2.746   3.978   2.028
 4504SOL     OW13957   3.581   4.309   3.693
 4504SOL    HW113958   3.555   4.398   3.657
 4504SOL    HW213959   3.579   4.241   3.620
 4505SOL     OW13960   3.224   4.868   2.407
 4505SOL    HW113961   3.307   4.839   2.359
 4505SOL    HW213962   3.175   4.935   2.351
 4506SOL     OW13963   2.412   3.920   2.747
 4506SOL    HW113964   2.407   3.915   2.847
 4506SOL    HW213965   2.414   4.016   2.718
 4507SOL     OW13966   2.870   5.180   2.339
 4507SOL    HW113967   2.824   5.252   2.287
 4507SOL    HW213968   2.866   5.200   2.437
 4508SOL     OW13969   3.657   4.790   2.735
 4508SOL    HW113970   3.595   4.775   2.659
 4508SOL    HW213971   3.605   4.801   2.820
 4509SOL     OW13972   3.089   5.274   3.368
 4509SOL    HW113973   3.095   5.197   3.432
 4509SOL    HW213974   3.037   5.248   3.288
 4510SOL     OW13975   2.183   4.667   2.104
 4510SOL    HW113976   2.265   4.706   2.062
 4510SOL    HW213977   2.156   4.585   2.055
 4511SOL     OW13978   3.320   4.459   2.590
 4511SOL    HW113979   3.315   4.394   2.665
 4511SOL    HW213980   3.400   4.518   2.603
 4512SOL     OW13981   2.323   4.990   3.589
 4512SOL    HW113982   2.273   4.991   3.503
 4512SOL    HW213983   2.260   4.972   3.665
 4513SOL     OW13984   2.973   5.500   2.099
 4513SOL    HW113985   2.913   5.438   2.149
 4513SOL    HW213986   3.004   5.456   2.014
 4514SOL     OW13987   2.064   4.009   3.360
 4514SOL    HW113988   1.984   4.069   3.347
 4514SOL    HW213989   2.054   3.960   3.446
 4515SOL     OW13990   3.494   5.101   1.943
 4515SOL    HW113991   3.462   5.195   1.933
 4515SOL    HW213992   3.418   5.038   1.931
 4516SOL     OW13993   3.262   3.831   2.288
 4516SOL    HW113994   3.238   3.794   2.198
 4516SOL    HW213995   3.361   3.847   2.292
 4517SOL     OW13996   2.244   4.424   2.342
 4517SOL    HW113997   2.289   4.334   2.339
 4517SOL    HW213998   2.150   4.413   2.375
 4518SOL     OW13999   3.409   3.946   3.591
 4518SOL    HW114000   3.404   3.983   3.683
 4518SOL    HW214001   3.337   3.877   3.579
 4519SOL     OW14002   2.476   3.846   1.979
 4519SOL    HW114003   2.574   3.824   1.986
 4519SOL    HW214004   2.445   3.829   1.886
 4520SOL     OW14005   2.643   3.988   3.611
 4520SOL    HW114006   2.710   3.927   3.654
 4520SOL    HW214007   2.570   4.007   3.676
 4521SOL     OW14008   3.213   4.314   3.295
 4521SOL    HW114009   3.241   4.271   3.380
 4521SOL    HW214010   3.238   4.410   3.296
 4522SOL     OW14011   2.665   5.126   2.786
 4522SOL    HW114012   2.755   5.140   2.744
 4522SOL    HW214013   2.594   5.128   2.715
 4523SOL     OW14014   2.784   4.227   2.761
 4523SOL    HW114015   2.759   4.218   2.665
 4523SOL    HW214016   2.832   4.145   2.792
 4524SOL     OW14017   2.401   3.788   2.374
 4524SOL    HW114018   2.320   3.789   2.432
 4524SOL    HW214019   2.404   3.871   2.319
 4525SOL     OW14020   3.296   4.912   1.903
 4525SOL    HW114021   3.328   4.836   1.960
 4525SOL    HW214022   3.204   4.939   1.933
 4526SOL     OW14023   2.159   3.759   2.033
 4526SOL    HW114024   2.208   3.843   2.012
 4526SOL    HW214025   2.221   3.694   2.078
 4527SOL     OW14026   2.797   3.960   2.342
 4527SOL    HW114027   2.749   4.001   2.264
 4527SOL    HW214028   2.896   3.958   2.323
 4528SOL     OW14029   2.938   4.407   3.326
 4528SOL    HW114030   2.858   4.346   3.329
 4528SOL    HW214031   3.019   4.354   3.302
 4529SOL     OW14032   3.089   5.294   2.655
 4529SOL    HW114033   3.110   5.368   2.590
 4529SOL    HW214034   3.157   5.294   2.728
 4530SOL     OW14035   2.321   4.876   2.603
 4530SOL    HW114036   2.250   4.849   2.668
 4530SOL    HW214037   2.295   4.848   2.510
 4531SOL     OW14038   2.894   4.273   1.878
 4531SOL    HW114039   2.853   4.355   1.839
 4531SOL    HW214040   2.958   4.299   1.951
 4532SOL     OW14041   1.940   4.280   3.248
 4532SOL    HW114042   2.032   4.279   3.207
 4532SOL    HW214043   1.934   4.354   3.315
 4533SOL     OW14044   2.423   3.946   3.009
 4533SOL    HW114045   2.461   3.862   3.046
 4533SOL    HW214046   2.335   3.965   3.053
 4534SOL     OW14047   2.728   4.178   2.504
 4534SOL    HW114048   2.696   4.250   2.442
 4534SOL    HW214049   2.752   4.097   2.451
 4535SOL     OW14050   2.879   3.763   2.615
 4535SOL    HW114051   2.807   3.768   2.546
 4535SOL    HW214052   2.855   3.694   2.684
 4536SOL     OW14053   3.291   4.897   2.729
 4536SOL    HW114054   3.236   4.813   2.722
 4536SOL    HW214055   3.317   4.926   2.637
 4537SOL     OW14056   3.328   4.314   2.854
 4537SOL    HW114057   3.298   4.219   2.861
 4537SOL    HW214058   3.401   4.330   2.920
 4538SOL     OW14059   3.719   4.557   2.239
 4538SOL    HW114060   3.761   4.493   2.303
 4538SOL    HW214061   3.681   4.506   2.161
 4539SOL     OW14062   2.350   5.109   2.036
 4539SOL    HW114063   2.263   5.094   2.083
 4539SOL    HW214064   2.333   5.135   1.941
 4540SOL     OW14065   3.526   5.004   2.519
 4540SOL    HW114066   3.625   5.012   2.533
 4540SOL    HW214067   3.481   5.088   2.550
 4541SOL     OW14068   3.252   4.299   1.940
 4541SOL    HW114069   3.198   4.278   2.021
 4541SOL    HW214070   3.343   4.258   1.949
 4542SOL     OW14071   2.389   3.980   2.190
 4542SOL    HW114072   2.416   3.921   2.115
 4542SOL    HW214073   2.389   4.075   2.159
 4543SOL     OW14074   3.616   4.947   3.450
 4543SOL    HW114075   3.707   4.908   3.437
 4543SOL    HW214076   3.624   5.043   3.474
 4544SOL     OW14077   2.926   5.071   3.202
 4544SOL    HW114078   2.846   5.048   3.257
 4544SOL    HW214079   3.009   5.045   3.251
 4545SOL     OW14080   2.973   4.919   2.962
 4545SOL    HW114081   2.933   4.963   3.043
 4545SOL    HW214082   2.932   4.956   2.879
 4546SOL     OW14083   3.500   4.823   2.941
 4546SOL    HW114084   3.505   4.904   3.000
 4546SOL    HW214085   3.414   4.825   2.890
 4547SOL     OW14086   2.777   3.813   3.264
 4547SOL    HW114087   2.802   3.793   3.169
 4547SOL    HW214088   2.849   3.869   3.306
 4548SOL     OW14089   2.842   4.840   3.581
 4548SOL    HW114090   2.743   4.846   3.591
 4548SOL    HW214091   2.865   4.760   3.525
 4549SOL     OW14092   2.567   4.774   2.230
 4549SOL    HW114093   2.553   4.781   2.329
 4549SOL    HW214094   2.651   4.723   2.212
 4550SOL     OW14095   2.272   4.537   3.113
 4550SOL    HW114096   2.358   4.549   3.163
 4550SOL    HW214097   2.230   4.450   3.140
 4551SOL     OW14098   3.136   4.110   3.124
 4551SOL    HW114099   3.157   4.184   3.188
 4551SOL    HW214100   3.047   4.127   3.081
 4552SOL     OW14101   2.229   4.824   2.363
 4552SOL    HW114102   2.222   4.907   2.307
 4552SOL    HW214103   2.233   4.744   2.303
 4553SOL     OW14104   2.428   4.261   2.727
 4553SOL    HW114105   2.440   4.327   2.653
 4553SOL    HW214106   2.474   4.295   2.810
 4554SOL     OW14107   3.114   5.072   2.250
 4554SOL    HW114108   3.164   5.149   2.290
 4554SOL    HW214109   3.019   5.074   2.282
 4555SOL     OW14110   3.134   5.169   3.004
 4555SOL    HW114111   3.181   5.182   3.091
 4555SOL    HW214112   3.068   5.095   3.013
 4556SOL     OW14113   3.444   4.363   2.334
 4556SOL    HW114114   3.413   4.424   2.407
 4556SOL    HW214115   3.494   4.415   2.265
 4557SOL     OW14116   2.216   5.234   3.191
 4557SOL    HW114117   2.195   5.190   3.104
 4557SOL    HW214118   2.313   5.260   3.194
 4558SOL     OW14119   2.264   4.475   3.460
 4558SOL    HW114120   2.332   4.530   3.413
 4558SOL    HW214121   2.304   4.387   3.487
 4559SOL     OW14122   3.449   4.503   3.532
 4559SOL    HW114123   3.357   4.541   3.527
 4559SOL    HW214124   3.509   4.550   3.467
 4560SOL     OW14125   2.875   3.829   3.632
 4560SOL    HW114126   2.881   3.914   3.580
 4560SOL    HW214127   2.907   3.753   3.575
 4561SOL     OW14128   2.366   3.774   3.602
 4561SOL    HW114129   2.324   3.717   3.532
 4561SOL    HW214130   2.300   3.843   3.634
 4562SOL     OW14131   2.435   4.594   2.891
 4562SOL    HW114132   2.479   4.683   2.882
 4562SOL    HW214133   2.372   4.594   2.968
 4563SOL     OW14134   3.222   4.586   2.907
 4563SOL    HW114135   3.147   4.586   2.841
 4563SOL    HW214136   3.259   4.494   2.916
 4564SOL     OW14137   3.071   4.249   2.137
 4564SOL    HW114138   3.084   4.165   2.191
 4564SOL    HW214139   3.042   4.323   2.197
 4565SOL     OW14140   2.169   3.937   3.093
 4565SOL    HW114141   2.146   3.974   3.183
 4565SOL    HW214142   2.139   3.842   3.087
 4566SOL     OW14143   1.899   5.034   3.144
 4566SOL    HW114144   1.952   4.985   3.212
 4566SOL    HW214145   1.921   5.132   3.149
 4567SOL     OW14146   2.594   4.358   2.926
 4567SOL    HW114147   2.653   4.332   2.850
 4567SOL    HW214148   2.566   4.454   2.915
 4568SOL     OW14149   3.590   4.659   3.716
 4568SOL    HW114150   3.544   4.652   3.627
 4568SOL    HW214151   3.528   4.703   3.782
 4569SOL     OW14152   2.169   3.787   2.480
 4569SOL    HW114153   2.158   3.881   2.513
 4569SOL    HW214154   2.164   3.724   2.557
 4570SOL     OW14155   3.484   4.091   2.236
 4570SOL    HW114156   3.486   4.015   2.300
 4570SOL    HW214157   3.436   4.168   2.276
 4571SOL     OW14158   2.885   4.490   2.828
 4571SOL    HW114159   2.900   4.511   2.924
 4571SOL    HW214160   2.855   4.395   2.819
 4572SOL     OW14161   3.721   5.242   3.467
 4572SOL    HW114162   3.735   5.269   3.372
 4572SOL    HW214163   3.804   5.264   3.520
 4573SOL     OW14164   2.212   4.622   3.666
 4573SOL    HW114165   2.288   4.666   3.714
 4573SOL    HW214166   2.247   4.575   3.584
 4574SOL     OW14167   3.402   3.998   1.987
 4574SOL    HW114168   3.341   3.923   2.010
 4574SOL    HW214169   3.424   4.050   2.070
 4575SOL     OW14170   3.165   4.562   1.904
 4575SOL    HW114171   3.199   4.469   1.919
 4575SOL    HW214172   3.183   4.589   1.809
 4576SOL     OW14173   2.930   5.057   2.711
 4576SOL    HW114174   2.937   4.973   2.656
 4576SOL    HW214175   2.992   5.126   2.675
 4577SOL     OW14176   2.181   4.534   2.811
 4577SOL    HW114177   2.274   4.570   2.816
 4577SOL    HW214178   2.175   4.449   2.863
 4578SOL     OW14179   2.201   4.233   2.868
 4578SOL    HW114180   2.149   4.150   2.851
 4578SOL    HW214181   2.278   4.238   2.804
 4579SOL     OW14182   3.000   4.104   3.540
 4579SOL    HW114183   2.955   4.167   3.604
 4579SOL    HW214184   3.093   4.135   3.523
 4580SOL     OW14185   3.022   3.931   3.339
 4580SOL    HW114186   3.022   3.995   3.416
 4580SOL    HW214187   3.050   3.979   3.256
 4581SOL     OW14188   1.870   5.050   2.062
 4581SOL    HW114189   1.777   5.071   2.031
 4581SOL    HW214190   1.880   4.951   2.075
 4582SOL     OW14191   2.864   4.520   3.100
 4582SOL    HW114192   2.905   4.488   3.186
 4582SOL    HW214193   2.768   4.493   3.097
 4583SOL     OW14194   1.902   4.268   2.976
 4583SOL    HW114195   1.987   4.235   2.935
 4583SOL    HW214196   1.915   4.283   3.074
 4584SOL     OW14197   2.051   4.244   3.584
 4584SOL    HW114198   2.110   4.204   3.514
 4584SOL    HW214199   1.993   4.315   3.543
 4585SOL     OW14200   3.231   4.674   3.522
 4585SOL    HW114201   3.270   4.763   3.542
 4585SOL    HW214202   3.241   4.654   3.425
 4586SOL     OW14203   2.677   4.296   2.187
 4586SOL    HW114204   2.684   4.207   2.141
 4586SOL    HW214205   2.583   4.330   2.179
 4587SOL     OW14206   3.519   4.328   3.068
 4587SOL    HW114207   3.481   4.259   3.130
 4587SOL    HW214208   3.601   4.292   3.024
 4588SOL     OW14209   2.114   5.288   3.606
 4588SOL    HW114210   2.084   5.345   3.682
 4588SOL    HW214211   2.107   5.191   3.632
 4589SOL     OW14212   2.533   4.188   3.131
 4589SOL    HW114213   2.499   4.099   3.101
 4589SOL    HW214214   2.559   4.242   3.051
 4590SOL     OW14215   2.335   4.224   2.053
 4590SOL    HW114216   2.396   4.304   2.057
 4590SOL    HW214217   2.240   4.255   2.060
 4591SOL     OW14218   2.021   4.861   3.328
 4591SOL    HW114219   2.043   4.800   3.404
 4591SOL    HW214220   2.031   4.812   3.242
 4592SOL     OW14221   3.209   4.783   3.096
 4592SOL    HW114222   3.233   4.720   3.022
 4592SOL    HW214223   3.119   4.823   3.078
 4593SOL     OW14224   3.164   4.579   2.171
 4593SOL    HW114225   3.078   4.548   2.213
 4593SOL    HW214226   3.160   4.565   2.072
 4594SOL     OW14227   1.945   4.982   2.884
 4594SOL    HW114228   1.940   4.981   2.984
 4594SOL    HW214229   1.862   4.941   2.846
 4595SOL     OW14230   2.550   5.386   3.578
 4595SOL    HW114231   2.494   5.467   3.587
 4595SOL    HW214232   2.602   5.390   3.492
 4596SOL     OW14233   3.588   3.859   2.385
 4596SOL    HW114234   3.661   3.842   2.318
 4596SOL    HW214235   3.557   3.772   2.423
 4597SOL     OW14236   3.142   4.651   2.534
 4597SOL    HW114237   3.202   4.570   2.536
 4597SOL    HW214238   3.182   4.720   2.474
 4598SOL     OW14239   2.692   4.997   3.284
 4598SOL    HW114240   2.687   5.030   3.379
 4598SOL    HW214241   2.606   5.016   3.238
 4599SOL     OW14242   3.703   3.899   2.825
 4599SOL    HW114243   3.742   3.814   2.789
 4599SOL    HW214244   3.605   3.901   2.806
 4600SOL     OW14245   2.125   4.050   2.582
 4600SOL    HW114246   2.046   4.101   2.548
 4600SOL    HW214247   2.116   4.035   2.680
 4601SOL     OW14248   2.684   4.726   3.234
 4601SOL    HW114249   2.724   4.725   3.142
 4601SOL    HW214250   2.694   4.818   3.274
 4602SOL     OW14251   2.778   4.634   2.153
 4602SOL    HW114252   2.841   4.672   2.085
 4602SOL    HW214253   2.818   4.551   2.192
 4603SOL     OW14254   2.234   5.012   3.352
 4603SOL    HW114255   2.221   5.105   3.318
 4603SOL    HW214256   2.150   4.960   3.339
 4604SOL     OW14257   3.476   5.016   3.151
 4604SOL    HW114258   3.536   5.019   3.231
 4604SOL    HW214259   3.401   5.080   3.164
 4605SOL     OW14260   2.901   4.822   2.558
 4605SOL    HW114261   2.831   4.775   2.612
 4605SOL    HW214262   2.960   4.754   2.515
 4606SOL     OW14263   2.876   3.960   2.833
 4606SOL    HW114264   2.868   3.924   2.740
 4606SOL    HW214265   2.874   3.884   2.898
 4607SOL     OW14266   3.571   4.109   3.243
 4607SOL    HW114267   3.644   4.178   3.247
 4607SOL    HW214268   3.599   4.034   3.184
 4608SOL     OW14269   2.117   5.072   2.152
 4608SOL    HW114270   2.021   5.073   2.125
 4608SOL    HW214271   2.129   5.125   2.236
 4609SOL     OW14272   1.967   4.737   3.588
 4609SOL    HW114273   1.890   4.704   3.642
 4609SOL    HW214274   2.052   4.707   3.630
 4610SOL     OW14275   2.534   3.927   3.351
 4610SOL    HW114276   2.624   3.911   3.311
 4610SOL    HW214277   2.542   3.932   3.450
 4611SOL     OW14278   1.937   4.069   1.895
 4611SOL    HW114279   1.845   4.041   1.866
 4611SOL    HW214280   1.968   4.146   1.839
 4612SOL     OW14281   3.302   4.580   3.260
 4612SOL    HW114282   3.245   4.632   3.197
 4612SOL    HW214283   3.398   4.592   3.236
 4613SOL     OW14284   1.934   3.890   2.180
 4613SOL    HW114285   1.917   3.973   2.126
 4613SOL    HW214286   2.024   3.853   2.158
 4614SOL     OW14287   3.045   5.059   1.981
 4614SOL    HW114288   2.946   5.048   1.983
 4614SOL    HW214289   3.079   5.074   2.074
 4615SOL     OW14290   2.475   4.566   3.293
 4615SOL    HW114291   2.531   4.647   3.276
 4615SOL    HW214292   2.534   4.486   3.296
 4616SOL     OW14293   2.578   4.289   3.570
 4616SOL    HW114294   2.597   4.354   3.644
 4616SOL    HW214295   2.638   4.209   3.579
 4617SOL     OW14296   3.312   4.944   3.495
 4617SOL    HW114297   3.303   4.934   3.594
 4617SOL    HW214298   3.408   4.937   3.469
 4618SOL     OW14299   3.536   4.607   3.116
 4618SOL    HW114300   3.509   4.518   3.079
 4618SOL    HW214301   3.537   4.675   3.043
 4619SOL     OW14302   3.087   4.049   2.311
 4619SOL    HW114303   3.152   3.975   2.300
 4619SOL    HW214304   3.107   4.099   2.395
 4620SOL     OW14305   2.456   4.469   2.514
 4620SOL    HW114306   2.506   4.554   2.495
 4620SOL    HW214307   2.368   4.471   2.466
 4621SOL     OW14308   3.639   4.066   3.504
 4621SOL    HW114309   3.622   4.097   3.410
 4621SOL    HW214310   3.555   4.029   3.542
 4622SOL     OW14311   3.592   4.658   3.379
 4622SOL    HW114312   3.630   4.749   3.394
 4622SOL    HW214313   3.584   4.641   3.280
 4623SOL     OW14314   2.721   5.098   1.878
 4623SOL    HW114315   2.675   5.113   1.966
 4623SOL    HW214316   2.765   5.183   1.848
 4624SOL     OW14317   2.721   4.680   2.723
 4624SOL    HW114318   2.775   4.611   2.771
 4624SOL    HW214319   2.689   4.749   2.789
 4625SOL     OW14320   2.945   4.708   1.949
 4625SOL    HW114321   2.922   4.761   1.867
 4625SOL    HW214322   3.026   4.652   1.930
 4626SOL     OW14323   2.083   5.038   3.706
 4626SOL    HW114324   2.018   4.965   3.685
 4626SOL    HW214325   2.087   5.052   3.804
 4627SOL     OW14326   1.941   4.964   2.515
 4627SOL    HW114327   1.940   4.917   2.603
 4627SOL    HW214328   2.023   4.936   2.464
 4628SOL     OW14329   2.534   5.115   3.486
 4628SOL    HW114330   2.456   5.065   3.524
 4628SOL    HW214331   2.531   5.210   3.517
 4629SOL     OW14332   3.686   3.916   3.089
 4629SOL    HW114333   3.682   3.826   3.133
 4629SOL    HW214334   3.689   3.905   2.990
 4630SOL     OW14335   2.290   4.148   2.382
 4630SOL    HW114336   2.320   4.076   2.320
 4630SOL    HW214337   2.251   4.108   2.465
 4631SOL     OW14338   3.567   5.211   2.966
 4631SOL    HW114339   3.474   5.186   2.939
 4631SOL    HW214340   3.593   5.161   3.048
 4632SOL     OW14341   2.179   4.271   3.142
 4632SOL    HW114342   2.217   4.212   3.214
 4632SOL    HW214343   2.219   4.245   3.054
 4633SOL     OW14344   3.286   3.938   2.974
 4633SOL    HW114345   3.338   3.873   3.029
 4633SOL    HW214346   3.237   4.001   3.035
 4634SOL     OW14347   2.863   3.758   3.016
 4634SOL    HW114348   2.800   3.686   2.985
 4634SOL    HW214349   2.956   3.722   3.016
 4635SOL     OW14350   2.632   5.054   2.163
 4635SOL    HW114351   2.586   4.967   2.180
 4635SOL    HW214352   2.723   5.051   2.204
 4636SOL     OW14353   2.480   5.291   3.146
 4636SOL    HW114354   2.475   5.373   3.203
 4636SOL    HW214355   2.569   5.288   3.101
 4637SOL     OW14356   3.214   3.776   2.030
 4637SOL    HW114357   3.249   3.735   1.946
 4637SOL    HW214358   3.124   3.738   2.050
 4638SOL     OW14359   3.162   4.177   2.553
 4638SOL    HW114360   3.103   4.257   2.557
 4638SOL    HW214361   3.177   4.142   2.646
 4639SOL     OW14362   3.455   3.945   2.744
 4639SOL    HW114363   3.371   3.944   2.798
 4639SOL    HW214364   3.457   4.028   2.688
 4640SOL     OW14365   1.901   4.801   2.162
 4640SOL    HW114366   2.000   4.790   2.153
 4640SOL    HW214367   1.861   4.715   2.194
 4641SOL     OW14368   2.092   4.352   3.837
 4641SOL    HW114369   1.999   4.350   3.874
 4641SOL    HW214370   2.093   4.313   3.745
 4642SOL     OW14371   2.087   3.999   4.720
 4642SOL    HW114372   2.122   3.982   4.812
 4642SOL    HW214373   1.999   3.954   4.708
 4643SOL     OW14374   1.881   4.092   4.371
 4643SOL    HW114375   1.799   4.135   4.410
 4643SOL    HW214376   1.853   4.019   4.308
 4644SOL     OW14377   2.431   4.999   4.889
 4644SOL    HW114378   2.338   4.992   4.852
 4644SOL    HW214379   2.442   5.088   4.933
 4645SOL     OW14380   3.417   5.235   4.427
 4645SOL    HW114381   3.360   5.219   4.508
 4645SOL    HW214382   3.358   5.245   4.347
 4646SOL     OW14383   2.997   4.427   4.441
 4646SOL    HW114384   3.054   4.505   4.416
 4646SOL    HW214385   2.937   4.453   4.517
 4647SOL     OW14386   3.617   4.331   3.955
 4647SOL    HW114387   3.605   4.318   3.856
 4647SOL    HW214388   3.587   4.250   4.004
 4648SOL     OW14389   2.630   4.868   4.747
 4648SOL    HW114390   2.552   4.885   4.807
 4648SOL    HW214391   2.664   4.955   4.711
 4649SOL     OW14392   2.712   4.522   5.547
 4649SOL    HW114393   2.708   4.598   5.612
 4649SOL    HW214394   2.734   4.558   5.456
 4650SOL     OW14395   2.547   4.736   4.389
 4650SOL    HW114396   2.616   4.720   4.459
 4650SOL    HW214397   2.474   4.793   4.427
 4651SOL     OW14398   2.548   4.885   5.527
 4651SOL    HW114399   2.608   4.964   5.541
 4651SOL    HW214400   2.462   4.916   5.486
 4652SOL     OW14401   2.197   5.159   4.785
 4652SOL    HW114402   2.119   5.128   4.732
 4652SOL    HW214403   2.255   5.217   4.728
 4653SOL     OW14404   3.322   5.229   5.063
 4653SOL    HW114405   3.346   5.323   5.089
 4653SOL    HW214406   3.306   5.175   5.145
 4654SOL     OW14407   2.300   4.116   5.223
 4654SOL    HW114408   2.382   4.060   5.232
 4654SOL    HW214409   2.219   4.058   5.227
 4655SOL     OW14410   3.465   4.171   4.461
 4655SOL    HW114411   3.391   4.217   4.411
 4655SOL    HW214412   3.516   4.239   4.514
 4656SOL     OW14413   2.989   5.065   5.414
 4656SOL    HW114414   3.036   5.065   5.502
 4656SOL    HW214415   2.941   4.978   5.403
 4657SOL     OW14416   2.092   5.158   4.262
 4657SOL    HW114417   2.066   5.254   4.262
 4657SOL    HW214418   2.021   5.104   4.307
 4658SOL     OW14419   2.102   4.815   4.610
 4658SOL    HW114420   2.116   4.731   4.662
 4658SOL    HW214421   2.047   4.879   4.665
 4659SOL     OW14422   2.468   4.688   3.847
 4659SOL    HW114423   2.475   4.772   3.793
 4659SOL    HW214424   2.514   4.701   3.935
 4660SOL     OW14425   3.456   3.838   5.204
 4660SOL    HW114426   3.438   3.905   5.132
 4660SOL    HW214427   3.453   3.884   5.293
 4661SOL     OW14428   1.984   4.367   4.287
 4661SOL    HW114429   1.939   4.279   4.304
 4661SOL    HW214430   1.983   4.421   4.371
 4662SOL     OW14431   1.889   5.320   3.841
 4662SOL    HW114432   1.870   5.224   3.862
 4662SOL    HW214433   1.856   5.378   3.916
 4663SOL     OW14434   3.551   4.646   4.336
 4663SOL    HW114435   3.646   4.617   4.344
 4663SOL    HW214436   3.543   4.711   4.261
 4664SOL     OW14437   3.503   4.832   4.156
 4664SOL    HW114438   3.589   4.834   4.104
 4664SOL    HW214439   3.517   4.879   4.244
 4665SOL     OW14440   1.975   4.461   5.321
 4665SOL    HW114441   2.063   4.448   5.366
 4665SOL    HW214442   1.962   4.558   5.299
 4666SOL     OW14443   2.475   5.089   4.450
 4666SOL    HW114444   2.426   5.002   4.459
 4666SOL    HW214445   2.452   5.132   4.363
 4667SOL     OW14446   3.155   4.952   5.147
 4667SOL    HW114447   3.192   4.879   5.089
 4667SOL    HW214448   3.207   4.957   5.232
 4668SOL     OW14449   2.671   3.728   4.226
 4668SOL    HW114450   2.711   3.819   4.217
 4668SOL    HW214451   2.571   3.736   4.232
 4669SOL     OW14452   2.059   4.700   4.988
 4669SOL    HW114453   2.148   4.655   4.974
 4669SOL    HW214454   1.986   4.635   4.969
 4670SOL     OW14455   3.387   4.723   3.914
 4670SOL    HW114456   3.324   4.647   3.927
 4670SOL    HW214457   3.435   4.741   4.000
 4671SOL     OW14458   2.179   3.975   5.525
 4671SOL    HW114459   2.250   4.046   5.531
 4671SOL    HW214460   2.091   4.014   5.553
 4672SOL     OW14461   3.328   5.141   4.677
 4672SOL    HW114462   3.269   5.147   4.757
 4672SOL    HW214463   3.313   5.053   4.631
 4673SOL     OW14464   2.460   4.453   3.994
 4673SOL    HW114465   2.484   4.522   3.926
 4673SOL    HW214466   2.382   4.486   4.048
 4674SOL     OW14467   3.143   4.069   4.668
 4674SOL    HW114468   3.057   4.019   4.655
 4674SOL    HW214469   3.205   4.015   4.724
 4675SOL     OW14470   2.669   4.329   5.189
 4675SOL    HW114471   2.622   4.326   5.278
 4675SOL    HW214472   2.618   4.274   5.123
 4676SOL     OW14473   3.256   4.193   5.398
 4676SOL    HW114474   3.236   4.236   5.486
 4676SOL    HW214475   3.334   4.131   5.407
 4677SOL     OW14476   2.835   4.614   5.296
 4677SOL    HW114477   2.881   4.530   5.267
 4677SOL    HW214478   2.779   4.648   5.221
 4678SOL     OW14479   2.853   4.134   4.966
 4678SOL    HW114480   2.776   4.168   5.020
 4678SOL    HW214481   2.819   4.083   4.887
 4679SOL     OW14482   2.903   4.425   4.153
 4679SOL    HW114483   2.929   4.421   4.249
 4679SOL    HW214484   2.818   4.374   4.139
 4680SOL     OW14485   1.938   4.535   4.513
 4680SOL    HW114486   2.037   4.523   4.522
 4680SOL    HW214487   1.914   4.630   4.534
 4681SOL     OW14488   2.727   4.072   3.919
 4681SOL    HW114489   2.786   4.135   3.870
 4681SOL    HW214490   2.746   3.978   3.890
 4682SOL     OW14491   3.581   4.309   5.555
 4682SOL    HW114492   3.555   4.398   5.519
 4682SOL    HW214493   3.579   4.241   5.482
 4683SOL     OW14494   3.224   4.868   4.269
 4683SOL    HW114495   3.307   4.839   4.221
 4683SOL    HW214496   3.175   4.935   4.213
 4684SOL     OW14497   2.412   3.920   4.609
 4684SOL    HW114498   2.407   3.915   4.709
 4684SOL    HW214499   2.414   4.016   4.580
 4685SOL     OW14500   2.870   5.180   4.201
 4685SOL    HW114501   2.824   5.252   4.149
 4685SOL    HW214502   2.866   5.200   4.299
 4686SOL     OW14503   3.657   4.790   4.597
 4686SOL    HW114504   3.595   4.775   4.521
 4686SOL    HW214505   3.605   4.801   4.682
 4687SOL     OW14506   3.089   5.274   5.230
 4687SOL    HW114507   3.095   5.197   5.294
 4687SOL    HW214508   3.037   5.248   5.150
 4688SOL     OW14509   2.183   4.667   3.966
 4688SOL    HW114510   2.265   4.706   3.924
 4688SOL    HW214511   2.156   4.585   3.917
 4689SOL     OW14512   3.320   4.459   4.452
 4689SOL    HW114513   3.315   4.394   4.527
 4689SOL    HW214514   3.400   4.518   4.465
 4690SOL     OW14515   2.323   4.990   5.451
 4690SOL    HW114516   2.273   4.991   5.365
 4690SOL    HW214517   2.260   4.972   5.527
 4691SOL     OW14518   2.973   5.500   3.961
 4691SOL    HW114519   2.913   5.438   4.011
 4691SOL    HW214520   3.004   5.456   3.876
 4692SOL     OW14521   2.064   4.009   5.222
 4692SOL    HW114522   1.984   4.069   5.209
 4692SOL    HW214523   2.054   3.960   5.308
 4693SOL     OW14524   3.494   5.101   3.805
 4693SOL    HW114525   3.462   5.195   3.795
 4693SOL    HW214526   3.418   5.038   3.793
 4694SOL     OW14527   3.262   3.831   4.150
 4694SOL    HW114528   3.238   3.794   4.060
 4694SOL    HW214529   3.361   3.847   4.154
 4695SOL     OW14530   2.244   4.424   4.204
 4695SOL    HW114531   2.289   4.334   4.201
 4695SOL    HW214532   2.150   4.413   4.237
 4696SOL     OW14533   3.409   3.946   5.453
 4696SOL    HW114534   3.404   3.983   5.545
 4696SOL    HW214535   3.337   3.877   5.441
 4697SOL     OW14536   2.476   3.846   3.841
 4697SOL    HW114537   2.574   3.824   3.848
 4697SOL    HW214538   2.445   3.829   3.748
 4698SOL     OW14539   2.643   3.988   5.473
 4698SOL    HW114540   2.710   3.927   5.516
 4698SOL    HW214541   2.570   4.007   5.538
 4699SOL     OW14542   3.213   4.314   5.157
 4699SOL    HW114543   3.241   4.271   5.242
 4699SOL    HW214544   3.238   4.410   5.158
 4700SOL     OW14545   2.665   5.126   4.648
 4700SOL    HW114546   2.755   5.140   4.606
 4700SOL    HW214547   2.594   5.128   4.577
 4701SOL     OW14548   2.784   4.227   4.623
 4701SOL    HW114549   2.759   4.218   4.527
 4701SOL    HW214550   2.832   4.145   4.654
 4702SOL     OW14551   2.401   3.788   4.236
 4702SOL    HW114552   2.320   3.789   4.294
 4702SOL    HW214553   2.404   3.871   4.181
 4703SOL     OW14554   3.296   4.912   3.765
 4703SOL    HW114555   3.328   4.836   3.822
 4703SOL    HW214556   3.204   4.939   3.795
 4704SOL     OW14557   2.159   3.759   3.895
 4704SOL    HW114558   2.208   3.843   3.874
 4704SOL    HW214559   2.221   3.694   3.940
 4705SOL     OW14560   2.797   3.960   4.204
 4705SOL    HW114561   2.749   4.001   4.126
 4705SOL    HW214562   2.896   3.958   4.185
 4706SOL     OW14563   2.938   4.407   5.188
 4706SOL    HW114564   2.858   4.346   5.191
 4706SOL    HW214565   3.019   4.354   5.164
 4707SOL     OW14566   3.089   5.294   4.517
 4707SOL    HW114567   3.110   5.368   4.452
 4707SOL    HW214568   3.157   5.294   4.590
 4708SOL     OW14569   2.321   4.876   4.465
 4708SOL    HW114570   2.250   4.849   4.530
 4708SOL    HW214571   2.295   4.848   4.372
 4709SOL     OW14572   2.894   4.273   3.740
 4709SOL    HW114573   2.853   4.355   3.701
 4709SOL    HW214574   2.958   4.299   3.813
 4710SOL     OW14575   1.940   4.280   5.110
 4710SOL    HW114576   2.032   4.279   5.069
 4710SOL    HW214577   1.934   4.354   5.177
 4711SOL     OW14578   2.423   3.946   4.871
 4711SOL    HW114579   2.461   3.862   4.908
 4711SOL    HW214580   2.335   3.965   4.915
 4712SOL     OW14581   2.728   4.178   4.366
 4712SOL    HW114582   2.696   4.250   4.304
 4712SOL    HW214583   2.752   4.097   4.313
 4713SOL     OW14584   2.879   3.763   4.477
 4713SOL    HW114585   2.807   3.768   4.408
 4713SOL    HW214586   2.855   3.694   4.546
 4714SOL     OW14587   3.291   4.897   4.591
 4714SOL    HW114588   3.236   4.813   4.584
 4714SOL    HW214589   3.317   4.926   4.499
 4715SOL     OW14590   3.328   4.314   4.716
 4715SOL    HW114591   3.298   4.219   4.723
 4715SOL    HW214592   3.401   4.330   4.782
 4716SOL     OW14593   3.719   4.557   4.101
 4716SOL    HW114594   3.761   4.493   4.165
 4716SOL    HW214595   3.681   4.506   4.023
 4717SOL     OW14596   2.350   5.109   3.898
 4717SOL    HW114597   2.263   5.094   3.945
 4717SOL    HW214598   2.333   5.135   3.803
 4718SOL     OW14599   3.526   5.004   4.381
 4718SOL    HW114600   3.625   5.012   4.395
 4718SOL    HW214601   3.481   5.088   4.412
 4719SOL     OW14602   3.252   4.299   3.802
 4719SOL    HW114603   3.198   4.278   3.883
 4719SOL    HW214604   3.343   4.258   3.811
 4720SOL     OW14605   2.389   3.980   4.052
 4720SOL    HW114606   2.416   3.921   3.977
 4720SOL    HW214607   2.389   4.075   4.021
 4721SOL     OW14608   3.616   4.947   5.312
 4721SOL    HW114609   3.707   4.908   5.299
 4721SOL    HW214610   3.624   5.043   5.336
 4722SOL     OW14611   2.926   5.071   5.064
 4722SOL    HW114612   2.846   5.048   5.119
 4722SOL    HW214613   3.009   5.045   5.113
 4723SOL     OW14614   2.973   4.919   4.824
 4723SOL    HW114615   2.933   4.963   4.905
 4723SOL    HW214616   2.932   4.956   4.741
 4724SOL     OW14617   3.500   4.823   4.803
 4724SOL    HW114618   3.505   4.904   4.862
 4724SOL    HW214619   3.414   4.825   4.752
 4725SOL     OW14620   2.777   3.813   5.126
 4725SOL    HW114621   2.802   3.793   5.031
 4725SOL    HW214622   2.849   3.869   5.168
 4726SOL     OW14623   2.842   4.840   5.443
 4726SOL    HW114624   2.743   4.846   5.453
 4726SOL    HW214625   2.865   4.760   5.387
 4727SOL     OW14626   2.567   4.774   4.092
 4727SOL    HW114627   2.553   4.781   4.191
 4727SOL    HW214628   2.651   4.723   4.074
 4728SOL     OW14629   2.272   4.537   4.975
 4728SOL    HW114630   2.358   4.549   5.025
 4728SOL    HW214631   2.230   4.450   5.002
 4729SOL     OW14632   3.136   4.110   4.986
 4729SOL    HW114633   3.157   4.184   5.050
 4729SOL    HW214634   3.047   4.127   4.943
 4730SOL     OW14635   2.229   4.824   4.225
 4730SOL    HW114636   2.222   4.907   4.169
 4730SOL    HW214637   2.233   4.744   4.165
 4731SOL     OW14638   2.428   4.261   4.589
 4731SOL    HW114639   2.440   4.327   4.515
 4731SOL    HW214640   2.474   4.295   4.672
 4732SOL     OW14641   3.114   5.072   4.112
 4732SOL    HW114642   3.164   5.149   4.152
 4732SOL    HW214643   3.019   5.074   4.144
 4733SOL     OW14644   3.134   5.169   4.866
 4733SOL    HW114645   3.181   5.182   4.953
 4733SOL    HW214646   3.068   5.095   4.875
 4734SOL     OW14647   3.444   4.363   4.196
 4734SOL    HW114648   3.413   4.424   4.269
 4734SOL    HW214649   3.494   4.415   4.127
 4735SOL     OW14650   2.216   5.234   5.053
 4735SOL    HW114651   2.195   5.190   4.966
 4735SOL    HW214652   2.313   5.260   5.056
 4736SOL     OW14653   2.264   4.475   5.322
 4736SOL    HW114654   2.332   4.530   5.275
 4736SOL    HW214655   2.304   4.387   5.349
 4737SOL     OW14656   3.449   4.503   5.394
 4737SOL    HW114657   3.357   4.541   5.389
 4737SOL    HW214658   3.509   4.550   5.329
 4738SOL     OW14659   2.875   3.829   5.494
 4738SOL    HW114660   2.881   3.914   5.442
 4738SOL    HW214661   2.907   3.753   5.437
 4739SOL     OW14662   2.366   3.774   5.464
 4739SOL    HW114663   2.324   3.717   5.394
 4739SOL    HW214664   2.300   3.843   5.496
 4740SOL     OW14665   2.435   4.594   4.753
 4740SOL    HW114666   2.479   4.683   4.744
 4740SOL    HW214667   2.372   4.594   4.830
 4741SOL     OW14668   3.222   4.586   4.769
 4741SOL    HW114669   3.147   4.586   4.703
 4741SOL    HW214670   3.259   4.494   4.778
 4742SOL     OW14671   3.071   4.249   3.999
 4742SOL    HW114672   3.084   4.165   4.053
 4742SOL    HW214673   3.042   4.323   4.059
 4743SOL     OW14674   2.169   3.937   4.955
 4743SOL    HW114675   2.146   3.974   5.045
 4743SOL    HW214676   2.139   3.842   4.949
 4744SOL     OW14677   1.899   5.034   5.006
 4744SOL    HW114678   1.952   4.985   5.074
 4744SOL    HW214679   1.921   5.132   5.011
 4745SOL     OW14680   2.594   4.358   4.788
 4745SOL    HW114681   2.653   4.332   4.712
 4745SOL    HW214682   2.566   4.454   4.777
 4746SOL     OW14683   3.590   4.659   5.578
 4746SOL    HW114684   3.544   4.652   5.489
 4746SOL    HW214685   3.528   4.703   5.644
 4747SOL     OW14686   2.169   3.787   4.342
 4747SOL    HW114687   2.158   3.881   4.375
 4747SOL    HW214688   2.164   3.724   4.419
 4748SOL     OW14689   3.484   4.091   4.098
 4748SOL    HW114690   3.486   4.015   4.162
 4748SOL    HW214691   3.436   4.168   4.138
 4749SOL     OW14692   2.885   4.490   4.690
 4749SOL    HW114693   2.900   4.511   4.786
 4749SOL    HW214694   2.855   4.395   4.681
 4750SOL     OW14695   3.721   5.242   5.329
 4750SOL    HW114696   3.735   5.269   5.234
 4750SOL    HW214697   3.804   5.264   5.382
 4751SOL     OW14698   2.212   4.622   5.528
 4751SOL    HW114699   2.288   4.666   5.576
 4751SOL    HW214700   2.247   4.575   5.446
 4752SOL     OW14701   3.402   3.998   3.849
 4752SOL    HW114702   3.341   3.923   3.872
 4752SOL    HW214703   3.424   4.050   3.932
 4753SOL     OW14704   3.165   4.562   3.766
 4753SOL    HW114705   3.199   4.469   3.781
 4753SOL    HW214706   3.183   4.589   3.671
 4754SOL     OW14707   2.930   5.057   4.573
 4754SOL    HW114708   2.937   4.973   4.518
 4754SOL    HW214709   2.992   5.126   4.537
 4755SOL     OW14710   2.181   4.534   4.673
 4755SOL    HW114711   2.274   4.570   4.678
 4755SOL    HW214712   2.175   4.449   4.725
 4756SOL     OW14713   2.201   4.233   4.730
 4756SOL    HW114714   2.149   4.150   4.713
 4756SOL    HW214715   2.278   4.238   4.666
 4757SOL     OW14716   3.000   4.104   5.402
 4757SOL    HW114717   2.955   4.167   5.466
 4757SOL    HW214718   3.093   4.135   5.385
 4758SOL     OW14719   3.022   3.931   5.201
 4758SOL    HW114720   3.022   3.995   5.278
 4758SOL    HW214721   3.050   3.979   5.118
 4759SOL     OW14722   1.870   5.050   3.924
 4759SOL    HW114723   1.777   5.071   3.893
 4759SOL    HW214724   1.880   4.951   3.937
 4760SOL     OW14725   2.864   4.520   4.962
 4760SOL    HW114726   2.905   4.488   5.048
 4760SOL    HW214727   2.768   4.493   4.959
 4761SOL     OW14728   1.902   4.268   4.838
 4761SOL    HW114729   1.987   4.235   4.797
 4761SOL    HW214730   1.915   4.283   4.936
 4762SOL     OW14731   2.051   4.244   5.446
 4762SOL    HW114732   2.110   4.204   5.376
 4762SOL    HW214733   1.993   4.315   5.405
 4763SOL     OW14734   3.231   4.674   5.384
 4763SOL    HW114735   3.270   4.763   5.404
 4763SOL    HW214736   3.241   4.654   5.287
 4764SOL     OW14737   2.677   4.296   4.049
 4764SOL    HW114738   2.684   4.207   4.003
 4764SOL    HW214739   2.583   4.330   4.041
 4765SOL     OW14740   3.519   4.328   4.930
 4765SOL    HW114741   3.481   4.259   4.992
 4765SOL    HW214742   3.601   4.292   4.886
 4766SOL     OW14743   2.114   5.288   5.468
 4766SOL    HW114744   2.084   5.345   5.544
 4766SOL    HW214745   2.107   5.191   5.494
 4767SOL     OW14746   2.533   4.188   4.993
 4767SOL    HW114747   2.499   4.099   4.963
 4767SOL    HW214748   2.559   4.242   4.913
 4768SOL     OW14749   2.335   4.224   3.915
 4768SOL    HW114750   2.396   4.304   3.919
 4768SOL    HW214751   2.240   4.255   3.922
 4769SOL     OW14752   2.021   4.861   5.190
 4769SOL    HW114753   2.043   4.800   5.266
 4769SOL    HW214754   2.031   4.812   5.104
 4770SOL     OW14755   3.209   4.783   4.958
 4770SOL    HW114756   3.233   4.720   4.884
 4770SOL    HW214757   3.119   4.823   4.940
 4771SOL     OW14758   3.164   4.579   4.033
 4771SOL    HW114759   3.078   4.548   4.075
 4771SOL    HW214760   3.160   4.565   3.934
 4772SOL     OW14761   1.945   4.982   4.746
 4772SOL    HW114762   1.940   4.981   4.846
 4772SOL    HW214763   1.862   4.941   4.708
 4773SOL     OW14764   2.550   5.386   5.440
 4773SOL    HW114765   2.494   5.467   5.449
 4773SOL    HW214766   2.602   5.390   5.354
 4774SOL     OW14767   3.588   3.859   4.247
 4774SOL    HW114768   3.661   3.842   4.180
 4774SOL    HW214769   3.557   3.772   4.285
 4775SOL     OW14770   3.142   4.651   4.396
 4775SOL    HW114771   3.202   4.570   4.398
 4775SOL    HW214772   3.182   4.720   4.336
 4776SOL     OW14773   2.692   4.997   5.146
 4776SOL    HW114774   2.687   5.030   5.241
 4776SOL    HW214775   2.606   5.016   5.100
 4777SOL     OW14776   3.703   3.899   4.687
 4777SOL    HW114777   3.742   3.814   4.651
 4777SOL    HW214778   3.605   3.901   4.668
 4778SOL     OW14779   2.125   4.050   4.444
 4778SOL    HW114780   2.046   4.101   4.410
 4778SOL    HW214781   2.116   4.035   4.542
 4779SOL     OW14782   2.684   4.726   5.096
 4779SOL    HW114783   2.724   4.725   5.004
 4779SOL    HW214784   2.694   4.818   5.136
 4780SOL     OW14785   2.778   4.634   4.015
 4780SOL    HW114786   2.841   4.672   3.947
 4780SOL    HW214787   2.818   4.551   4.054
 4781SOL     OW14788   2.234   5.012   5.214
 4781SOL    HW114789   2.221   5.105   5.180
 4781SOL    HW214790   2.150   4.960   5.201
 4782SOL     OW14791   3.476   5.016   5.013
 4782SOL    HW114792   3.536   5.019   5.093
 4782SOL    HW214793   3.401   5.080   5.026
 4783SOL     OW14794   2.901   4.822   4.420
 4783SOL    HW114795   2.831   4.775   4.474
 4783SOL    HW214796   2.960   4.754   4.377
 4784SOL     OW14797   2.876   3.960   4.695
 4784SOL    HW114798   2.868   3.924   4.602
 4784SOL    HW214799   2.874   3.884   4.760
 4785SOL     OW14800   3.571   4.109   5.105
 4785SOL    HW114801   3.644   4.178   5.109
 4785SOL    HW214802   3.599   4.034   5.046
 4786SOL     OW14803   2.117   5.072   4.014
 4786SOL    HW114804   2.021   5.073   3.987
 4786SOL    HW214805   2.129   5.125   4.098
 4787SOL     OW14806   1.967   4.737   5.450
 4787SOL    HW114807   1.890   4.704   5.504
 4787SOL    HW214808   2.052   4.707   5.492
 4788SOL     OW14809   2.534   3.927   5.213
 4788SOL    HW114810   2.624   3.911   5.173
 4788SOL    HW214811   2.542   3.932   5.312
 4789SOL     OW14812   1.937   4.069   3.757
 4789SOL    HW114813   1.845   4.041   3.728
 4789SOL    HW214814   1.968   4.146   3.701
 4790SOL     OW14815   3.302   4.580   5.122
 4790SOL    HW114816   3.245   4.632   5.059
 4790SOL    HW214817   3.398   4.592   5.098
 4791SOL     OW14818   1.934   3.890   4.042
 4791SOL    HW114819   1.917   3.973   3.988
 4791SOL    HW214820   2.024   3.853   4.020
 4792SOL     OW14821   3.045   5.059   3.843
 4792SOL    HW114822   2.946   5.048   3.845
 4792SOL    HW214823   3.079   5.074   3.936
 4793SOL     OW14824   2.475   4.566   5.155
 4793SOL    HW114825   2.531   4.647   5.138
 4793SOL    HW214826   2.534   4.486   5.158
 4794SOL     OW14827   2.578   4.289   5.432
 4794SOL    HW114828   2.597   4.354   5.506
 4794SOL    HW214829   2.638   4.209   5.441
 4795SOL     OW14830   3.312   4.944   5.357
 4795SOL    HW114831   3.303   4.934   5.456
 4795SOL    HW214832   3.408   4.937   5.331
 4796SOL     OW14833   3.536   4.607   4.978
 4796SOL    HW114834   3.509   4.518   4.941
 4796SOL    HW214835   3.537   4.675   4.905
 4797SOL     OW14836   3.087   4.049   4.173
 4797SOL    HW114837   3.152   3.975   4.162
 4797SOL    HW214838   3.107   4.099   4.257
 4798SOL     OW14839   2.456   4.469   4.376
 4798SOL    HW114840   2.506   4.554   4.357
 4798SOL    HW214841   2.368   4.471   4.328
 4799SOL     OW14842   3.639   4.066   5.366
 4799SOL    HW114843   3.622   4.097   5.272
 4799SOL    HW214844   3.555   4.029   5.404
 4800SOL     OW14845   3.592   4.658   5.241
 4800SOL    HW114846   3.630   4.749   5.256
 4800SOL    HW214847   3.584   4.641   5.142
 4801SOL     OW14848   2.721   5.098   3.740
 4801SOL    HW114849   2.675   5.113   3.828
 4801SOL    HW214850   2.765   5.183   3.710
 4802SOL     OW14851   2.721   4.680   4.585
 4802SOL    HW114852   2.775   4.611   4.633
 4802SOL    HW214853   2.689   4.749   4.651
 4803SOL     OW14854   2.945   4.708   3.811
 4803SOL    HW114855   2.922   4.761   3.729
 4803SOL    HW214856   3.026   4.652   3.792
 4804SOL     OW14857   2.083   5.038   5.568
 4804SOL    HW114858   2.018   4.965   5.547
 4804SOL    HW214859   2.087   5.052   5.666
 4805SOL     OW14860   1.941   4.964   4.377
 4805SOL    HW114861   1.940   4.917   4.465
 4805SOL    HW214862   2.023   4.936   4.326
 4806SOL     OW14863   2.534   5.115   5.348
 4806SOL    HW114864   2.456   5.065   5.386
 4806SOL    HW214865   2.531   5.210   5.379
 4807SOL     OW14866   3.686   3.916   4.951
 4807SOL    HW114867   3.682   3.826   4.995
 4807SOL    HW214868   3.689   3.905   4.852
 4808SOL     OW14869   2.290   4.148   4.244
 4808SOL    HW114870   2.320   4.076   4.182
 4808SOL    HW214871   2.251   4.108   4.327
 4809SOL     OW14872   3.567   5.211   4.828
 4809SOL    HW114873   3.474   5.186   4.801
 4809SOL    HW214874   3.593   5.161   4.910
 4810SOL     OW14875   2.179   4.271   5.004
 4810SOL    HW114876   2.217   4.212   5.076
 4810SOL    HW214877   2.219   4.245   4.916
 4811SOL     OW14878   3.286   3.938   4.836
 4811SOL    HW114879   3.338   3.873   4.891
 4811SOL    HW214880   3.237   4.001   4.897
 4812SOL     OW14881   2.863   3.758   4.878
 4812SOL    HW114882   2.800   3.686   4.847
 4812SOL    HW214883   2.956   3.722   4.878
 4813SOL     OW14884   2.632   5.054   4.025
 4813SOL    HW114885   2.586   4.967   4.042
 4813SOL    HW214886   2.723   5.051   4.066
 4814SOL     OW14887   2.480   5.291   5.008
 4814SOL    HW114888   2.475   5.373   5.065
 4814SOL    HW214889   2.569   5.288   4.963
 4815SOL     OW14890   3.214   3.776   3.892
 4815SOL    HW114891   3.249   3.735   3.808
 4815SOL    HW214892   3.124   3.738   3.912
 4816SOL     OW14893   3.162   4.177   4.415
 4816SOL    HW114894   3.103   4.257   4.419
 4816SOL    HW214895   3.177   4.142   4.508
 4817SOL     OW14896   3.455   3.945   4.606
 4817SOL    HW114897   3.371   3.944   4.660
 4817SOL    HW214898   3.457   4.028   4.550
 4818SOL     OW14899   1.901   4.801   4.024
 4818SOL    HW114900   2.000   4.790   4.015
 4818SOL    HW214901   1.861   4.715   4.056
 4819SOL     OW14902   2.092   4.352   5.699
 4819SOL    HW114903   1.999   4.350   5.736
 4819SOL    HW214904   2.093   4.313   5.607
 4820SOL     OW14905   2.087   3.999   6.582
 4820SOL    HW114906   2.122   3.982   6.674
 4820SOL    HW214907   1.999   3.954   6.570
 4821SOL     OW14908   1.881   4.092   6.233
 4821SOL    HW114909   1.799   4.135   6.272
 4821SOL    HW214910   1.853   4.019   6.170
 4822SOL     OW14911   2.431   4.999   6.751
 4822SOL    HW114912   2.338   4.992   6.714
 4822SOL    HW214913   2.442   5.088   6.795
 4823SOL     OW14914   3.417   5.235   6.289
 4823SOL    HW114915   3.360   5.219   6.370
 4823SOL    HW214916   3.358   5.245   6.209
 4824SOL     OW14917   2.997   4.427   6.303
 4824SOL    HW114918   3.054   4.505   6.278
 4824SOL    HW214919   2.937   4.453   6.379
 4825SOL     OW14920   3.617   4.331   5.817
 4825SOL    HW114921   3.605   4.318   5.718
 4825SOL    HW214922   3.587   4.250   5.866
 4826SOL     OW14923   2.630   4.868   6.609
 4826SOL    HW114924   2.552   4.885   6.669
 4826SOL    HW214925   2.664   4.955   6.573
 4827SOL     OW14926   2.712   4.522   7.409
 4827SOL    HW114927   2.708   4.598   7.474
 4827SOL    HW214928   2.734   4.558   7.318
 4828SOL     OW14929   2.547   4.736   6.251
 4828SOL    HW114930   2.616   4.720   6.321
 4828SOL    HW214931   2.474   4.793   6.289
 4829SOL     OW14932   2.548   4.885   7.389
 4829SOL    HW114933   2.608   4.964   7.403
 4829SOL    HW214934   2.462   4.916   7.348
 4830SOL     OW14935   2.197   5.159   6.647
 4830SOL    HW114936   2.119   5.128   6.594
 4830SOL    HW214937   2.255   5.217   6.590
 4831SOL     OW14938   3.322   5.229   6.925
 4831SOL    HW114939   3.346   5.323   6.951
 4831SOL    HW214940   3.306   5.175   7.007
 4832SOL     OW14941   2.300   4.116   7.085
 4832SOL    HW114942   2.382   4.060   7.094
 4832SOL    HW214943   2.219   4.058   7.089
 4833SOL     OW14944   3.465   4.171   6.323
 4833SOL    HW114945   3.391   4.217   6.273
 4833SOL    HW214946   3.516   4.239   6.376
 4834SOL     OW14947   2.989   5.065   7.276
 4834SOL    HW114948   3.036   5.065   7.364
 4834SOL    HW214949   2.941   4.978   7.265
 4835SOL     OW14950   2.092   5.158   6.124
 4835SOL    HW114951   2.066   5.254   6.124
 4835SOL    HW214952   2.021   5.104   6.169
 4836SOL     OW14953   2.102   4.815   6.472
 4836SOL    HW114954   2.116   4.731   6.524
 4836SOL    HW214955   2.047   4.879   6.527
 4837SOL     OW14956   2.468   4.688   5.709
 4837SOL    HW114957   2.475   4.772   5.655
 4837SOL    HW214958   2.514   4.701   5.797
 4838SOL     OW14959   3.456   3.838   7.066
 4838SOL    HW114960   3.438   3.905   6.994
 4838SOL    HW214961   3.453   3.884   7.155
 4839SOL     OW14962   1.984   4.367   6.149
 4839SOL    HW114963   1.939   4.279   6.166
 4839SOL    HW214964   1.983   4.421   6.233
 4840SOL     OW14965   1.889   5.320   5.703
 4840SOL    HW114966   1.870   5.224   5.724
 4840SOL    HW214967   1.856   5.378   5.778
 4841SOL     OW14968   3.551   4.646   6.198
 4841SOL    HW114969   3.646   4.617   6.206
 4841SOL    HW214970   3.543   4.711   6.123
 4842SOL     OW14971   3.503   4.832   6.018
 4842SOL    HW114972   3.589   4.834   5.966
 4842SOL    HW214973   3.517   4.879   6.106
 4843SOL     OW14974   1.975   4.461   7.183
 4843SOL    HW114975   2.063   4.448   7.228
 4843SOL    HW214976   1.962   4.558   7.161
 4844SOL     OW14977   2.475   5.089   6.312
 4844SOL    HW114978   2.426   5.002   6.321
 4844SOL    HW214979   2.452   5.132   6.225
 4845SOL     OW14980   3.155   4.952   7.009
 4845SOL    HW114981   3.192   4.879   6.951
 4845SOL    HW214982   3.207   4.957   7.094
 4846SOL     OW14983   2.671   3.728   6.088
 4846SOL    HW114984   2.711   3.819   6.079
 4846SOL    HW214985   2.571   3.736   6.094
 4847SOL     OW14986   2.059   4.700   6.850
 4847SOL    HW114987   2.148   4.655   6.836
 4847SOL    HW214988   1.986   4.635   6.831
 4848SOL     OW14989   3.387   4.723   5.776
 4848SOL    HW114990   3.324   4.647   5.789
 4848SOL    HW214991   3.435   4.741   5.862
 4849SOL     OW14992   2.179   3.975   7.387
 4849SOL    HW114993   2.250   4.046   7.393
 4849SOL    HW214994   2.091   4.014   7.415
 4850SOL     OW14995   3.328   5.141   6.539
 4850SOL    HW114996   3.269   5.147   6.619
 4850SOL    HW214997   3.313   5.053   6.493
 4851SOL     OW14998   2.460   4.453   5.856
 4851SOL    HW114999   2.484   4.522   5.788
 4851SOL    HW215000   2.382   4.486   5.910
 4852SOL     OW15001   3.143   4.069   6.530
 4852SOL    HW115002   3.057   4.019   6.517
 4852SOL    HW215003   3.205   4.015   6.586
 4853SOL     OW15004   2.669   4.329   7.051
 4853SOL    HW115005   2.622   4.326   7.140
 4853SOL    HW215006   2.618   4.274   6.985
 4854SOL     OW15007   3.256   4.193   7.260
 4854SOL    HW115008   3.236   4.236   7.348
 4854SOL    HW215009   3.334   4.131   7.269
 4855SOL     OW15010   2.835   4.614   7.158
 4855SOL    HW115011   2.881   4.530   7.129
 4855SOL    HW215012   2.779   4.648   7.083
 4856SOL     OW15013   2.853   4.134   6.828
 4856SOL    HW115014   2.776   4.168   6.882
 4856SOL    HW215015   2.819   4.083   6.749
 4857SOL     OW15016   2.903   4.425   6.015
 4857SOL    HW115017   2.929   4.421   6.111
 4857SOL    HW215018   2.818   4.374   6.001
 4858SOL     OW15019   1.938   4.535   6.375
 4858SOL    HW115020   2.037   4.523   6.384
 4858SOL    HW215021   1.914   4.630   6.396
 4859SOL     OW15022   2.727   4.072   5.781
 4859SOL    HW115023   2.786   4.135   5.732
 4859SOL    HW215024   2.746   3.978   5.752
 4860SOL     OW15025   3.581   4.309   7.417
 4860SOL    HW115026   3.555   4.398   7.381
 4860SOL    HW215027   3.579   4.241   7.344
 4861SOL     OW15028   3.224   4.868   6.131
 4861SOL    HW115029   3.307   4.839   6.083
 4861SOL    HW215030   3.175   4.935   6.075
 4862SOL     OW15031   2.412   3.920   6.471
 4862SOL    HW115032   2.407   3.915   6.571
 4862SOL    HW215033   2.414   4.016   6.442
 4863SOL     OW15034   2.870   5.180   6.063
 4863SOL    HW115035   2.824   5.252   6.011
 4863SOL    HW215036   2.866   5.200   6.161
 4864SOL     OW15037   3.657   4.790   6.459
 4864SOL    HW115038   3.595   4.775   6.383
 4864SOL    HW215039   3.605   4.801   6.544
 4865SOL     OW15040   3.089   5.274   7.092
 4865SOL    HW115041   3.095   5.197   7.156
 4865SOL    HW215042   3.037   5.248   7.012
 4866SOL     OW15043   2.183   4.667   5.828
 4866SOL    HW115044   2.265   4.706   5.786
 4866SOL    HW215045   2.156   4.585   5.779
 4867SOL     OW15046   3.320   4.459   6.314
 4867SOL    HW115047   3.315   4.394   6.389
 4867SOL    HW215048   3.400   4.518   6.327
 4868SOL     OW15049   2.323   4.990   7.313
 4868SOL    HW115050   2.273   4.991   7.227
 4868SOL    HW215051   2.260   4.972   7.389
 4869SOL     OW15052   2.973   5.500   5.823
 4869SOL    HW115053   2.913   5.438   5.873
 4869SOL    HW215054   3.004   5.456   5.738
 4870SOL     OW15055   2.064   4.009   7.084
 4870SOL    HW115056   1.984   4.069   7.071
 4870SOL    HW215057   2.054   3.960   7.170
 4871SOL     OW15058   3.494   5.101   5.667
 4871SOL    HW115059   3.462   5.195   5.657
 4871SOL    HW215060   3.418   5.038   5.655
 4872SOL     OW15061   3.262   3.831   6.012
 4872SOL    HW115062   3.238   3.794   5.922
 4872SOL    HW215063   3.361   3.847   6.016
 4873SOL     OW15064   2.244   4.424   6.066
 4873SOL    HW115065   2.289   4.334   6.063
 4873SOL    HW215066   2.150   4.413   6.099
 4874SOL     OW15067   3.409   3.946   7.315
 4874SOL    HW115068   3.404   3.983   7.407
 4874SOL    HW215069   3.337   3.877   7.303
 4875SOL     OW15070   2.476   3.846   5.703
 4875SOL    HW115071   2.574   3.824   5.710
 4875SOL    HW215072   2.445   3.829   5.610
 4876SOL     OW15073   2.643   3.988   7.335
 4876SOL    HW115074   2.710   3.927   7.378
 4876SOL    HW215075   2.570   4.007   7.400
 4877SOL     OW15076   3.213   4.314   7.019
 4877SOL    HW115077   3.241   4.271   7.104
 4877SOL    HW215078   3.238   4.410   7.020
 4878SOL     OW15079   2.665   5.126   6.510
 4878SOL    HW115080   2.755   5.140   6.468
 4878SOL    HW215081   2.594   5.128   6.439
 4879SOL     OW15082   2.784   4.227   6.485
 4879SOL    HW115083   2.759   4.218   6.389
 4879SOL    HW215084   2.832   4.145   6.516
 4880SOL     OW15085   2.401   3.788   6.098
 4880SOL    HW115086   2.320   3.789   6.156
 4880SOL    HW215087   2.404   3.871   6.043
 4881SOL     OW15088   3.296   4.912   5.627
 4881SOL    HW115089   3.328   4.836   5.684
 4881SOL    HW215090   3.204   4.939   5.657
 4882SOL     OW15091   2.159   3.759   5.757
 4882SOL    HW115092   2.208   3.843   5.736
 4882SOL    HW215093   2.221   3.694   5.802
 4883SOL     OW15094   2.797   3.960   6.066
 4883SOL    HW115095   2.749   4.001   5.988
 4883SOL    HW215096   2.896   3.958   6.047
 4884SOL     OW15097   2.938   4.407   7.050
 4884SOL    HW115098   2.858   4.346   7.053
 4884SOL    HW215099   3.019   4.354   7.026
 4885SOL     OW15100   3.089   5.294   6.379
 4885SOL    HW115101   3.110   5.368   6.314
 4885SOL    HW215102   3.157   5.294   6.452
 4886SOL     OW15103   2.321   4.876   6.327
 4886SOL    HW115104   2.250   4.849   6.392
 4886SOL    HW215105   2.295   4.848   6.234
 4887SOL     OW15106   2.894   4.273   5.602
 4887SOL    HW115107   2.853   4.355   5.563
 4887SOL    HW215108   2.958   4.299   5.675
 4888SOL     OW15109   1.940   4.280   6.972
 4888SOL    HW115110   2.032   4.279   6.931
 4888SOL    HW215111   1.934   4.354   7.039
 4889SOL     OW15112   2.423   3.946   6.733
 4889SOL    HW115113   2.461   3.862   6.770
 4889SOL    HW215114   2.335   3.965   6.777
 4890SOL     OW15115   2.728   4.178   6.228
 4890SOL    HW115116   2.696   4.250   6.166
 4890SOL    HW215117   2.752   4.097   6.175
 4891SOL     OW15118   2.879   3.763   6.339
 4891SOL    HW115119   2.807   3.768   6.270
 4891SOL    HW215120   2.855   3.694   6.408
 4892SOL     OW15121   3.291   4.897   6.453
 4892SOL    HW115122   3.236   4.813   6.446
 4892SOL    HW215123   3.317   4.926   6.361
 4893SOL     OW15124   3.328   4.314   6.578
 4893SOL    HW115125   3.298   4.219   6.585
 4893SOL    HW215126   3.401   4.330   6.644
 4894SOL     OW15127   3.719   4.557   5.963
 4894SOL    HW115128   3.761   4.493   6.027
 4894SOL    HW215129   3.681   4.506   5.885
 4895SOL     OW15130   2.350   5.109   5.760
 4895SOL    HW115131   2.263   5.094   5.807
 4895SOL    HW215132   2.333   5.135   5.665
 4896SOL     OW15133   3.526   5.004   6.243
 4896SOL    HW115134   3.625   5.012   6.257
 4896SOL    HW215135   3.481   5.088   6.274
 4897SOL     OW15136   3.252   4.299   5.664
 4897SOL    HW115137   3.198   4.278   5.745
 4897SOL    HW215138   3.343   4.258   5.673
 4898SOL     OW15139   2.389   3.980   5.914
 4898SOL    HW115140   2.416   3.921   5.839
 4898SOL    HW215141   2.389   4.075   5.883
 4899SOL     OW15142   3.616   4.947   7.174
 4899SOL    HW115143   3.707   4.908   7.161
 4899SOL    HW215144   3.624   5.043   7.198
 4900SOL     OW15145   2.926   5.071   6.926
 4900SOL    HW115146   2.846   5.048   6.981
 4900SOL    HW215147   3.009   5.045   6.975
 4901SOL     OW15148   2.973   4.919   6.686
 4901SOL    HW115149   2.933   4.963   6.767
 4901SOL    HW215150   2.932   4.956   6.603
 4902SOL     OW15151   3.500   4.823   6.665
 4902SOL    HW115152   3.505   4.904   6.724
 4902SOL    HW215153   3.414   4.825   6.614
 4903SOL     OW15154   2.777   3.813   6.988
 4903SOL    HW115155   2.802   3.793   6.893
 4903SOL    HW215156   2.849   3.869   7.030
 4904SOL     OW15157   2.842   4.840   7.305
 4904SOL    HW115158   2.743   4.846   7.315
 4904SOL    HW215159   2.865   4.760   7.249
 4905SOL     OW15160   2.567   4.774   5.954
 4905SOL    HW115161   2.553   4.781   6.053
 4905SOL    HW215162   2.651   4.723   5.936
 4906SOL     OW15163   2.272   4.537   6.837
 4906SOL    HW115164   2.358   4.549   6.887
 4906SOL    HW215165   2.230   4.450   6.864
 4907SOL     OW15166   3.136   4.110   6.848
 4907SOL    HW115167   3.157   4.184   6.912
 4907SOL    HW215168   3.047   4.127   6.805
 4908SOL     OW15169   2.229   4.824   6.087
 4908SOL    HW115170   2.222   4.907   6.031
 4908SOL    HW215171   2.233   4.744   6.027
 4909SOL     OW15172   2.428   4.261   6.451
 4909SOL    HW115173   2.440   4.327   6.377
 4909SOL    HW215174   2.474   4.295   6.534
 4910SOL     OW15175   3.114   5.072   5.974
 4910SOL    HW115176   3.164   5.149   6.014
 4910SOL    HW215177   3.019   5.074   6.006
 4911SOL     OW15178   3.134   5.169   6.728
 4911SOL    HW115179   3.181   5.182   6.815
 4911SOL    HW215180   3.068   5.095   6.737
 4912SOL     OW15181   3.444   4.363   6.058
 4912SOL    HW115182   3.413   4.424   6.131
 4912SOL    HW215183   3.494   4.415   5.989
 4913SOL     OW15184   2.216   5.234   6.915
 4913SOL    HW115185   2.195   5.190   6.828
 4913SOL    HW215186   2.313   5.260   6.918
 4914SOL     OW15187   2.264   4.475   7.184
 4914SOL    HW115188   2.332   4.530   7.137
 4914SOL    HW215189   2.304   4.387   7.211
 4915SOL     OW15190   3.449   4.503   7.256
 4915SOL    HW115191   3.357   4.541   7.251
 4915SOL    HW215192   3.509   4.550   7.191
 4916SOL     OW15193   2.875   3.829   7.356
 4916SOL    HW115194   2.881   3.914   7.304
 4916SOL    HW215195   2.907   3.753   7.299
 4917SOL     OW15196   2.366   3.774   7.326
 4917SOL    HW115197   2.324   3.717   7.256
 4917SOL    HW215198   2.300   3.843   7.358
 4918SOL     OW15199   2.435   4.594   6.615
 4918SOL    HW115200   2.479   4.683   6.606
 4918SOL    HW215201   2.372   4.594   6.692
 4919SOL     OW15202   3.222   4.586   6.631
 4919SOL    HW115203   3.147   4.586   6.565
 4919SOL    HW215204   3.259   4.494   6.640
 4920SOL     OW15205   3.071   4.249   5.861
 4920SOL    HW115206   3.084   4.165   5.915
 4920SOL    HW215207   3.042   4.323   5.921
 4921SOL     OW15208   2.169   3.937   6.817
 4921SOL    HW115209   2.146   3.974   6.907
 4921SOL    HW215210   2.139   3.842   6.811
 4922SOL     OW15211   1.899   5.034   6.868
 4922SOL    HW115212   1.952   4.985   6.936
 4922SOL    HW215213   1.921   5.132   6.873
 4923SOL     OW15214   2.594   4.358   6.650
 4923SOL    HW115215   2.653   4.332   6.574
 4923SOL    HW215216   2.566   4.454   6.639
 4924SOL     OW15217   3.590   4.659   7.440
 4924SOL    HW115218   3.544   4.652   7.351
 4924SOL    HW215219   3.528   4.703   7.506
 4925SOL     OW15220   2.169   3.787   6.204
 4925SOL    HW115221   2.158   3.881   6.237
 4925SOL    HW215222   2.164   3.724   6.281
 4926SOL     OW15223   3.484   4.091   5.960
 4926SOL    HW115224   3.486   4.015   6.024
 4926SOL    HW215225   3.436   4.168   6.000
 4927SOL     OW15226   2.885   4.490   6.552
 4927SOL    HW115227   2.900   4.511   6.648
 4927SOL    HW215228   2.855   4.395   6.543
 4928SOL     OW15229   3.721   5.242   7.191
 4928SOL    HW115230   3.735   5.269   7.096
 4928SOL    HW215231   3.804   5.264   7.244
 4929SOL     OW15232   2.212   4.622   7.390
 4929SOL    HW115233   2.288   4.666   7.438
 4929SOL    HW215234   2.247   4.575   7.308
 4930SOL     OW15235   3.402   3.998   5.711
 4930SOL    HW115236   3.341   3.923   5.734
 4930SOL    HW215237   3.424   4.050   5.794
 4931SOL     OW15238   3.165   4.562   5.628
 4931SOL    HW115239   3.199   4.469   5.643
 4931SOL    HW215240   3.183   4.589   5.533
 4932SOL     OW15241   2.930   5.057   6.435
 4932SOL    HW115242   2.937   4.973   6.380
 4932SOL    HW215243   2.992   5.126   6.399
 4933SOL     OW15244   2.181   4.534   6.535
 4933SOL    HW115245   2.274   4.570   6.540
 4933SOL    HW215246   2.175   4.449   6.587
 4934SOL     OW15247   2.201   4.233   6.592
 4934SOL    HW115248   2.149   4.150   6.575
 4934SOL    HW215249   2.278   4.238   6.528
 4935SOL     OW15250   3.000   4.104   7.264
 4935SOL    HW115251   2.955   4.167   7.328
 4935SOL    HW215252   3.093   4.135   7.247
 4936SOL     OW15253   3.022   3.931   7.063
 4936SOL    HW115254   3.022   3.995   7.140
 4936SOL    HW215255   3.050   3.979   6.980
 4937SOL     OW15256   1.870   5.050   5.786
 4937SOL    HW115257   1.777   5.071   5.755
 4937SOL    HW215258   1.880   4.951   5.799
 4938SOL     OW15259   2.864   4.520   6.824
 4938SOL    HW115260   2.905   4.488   6.910
 4938SOL    HW215261   2.768   4.493   6.821
 4939SOL     OW15262   1.902   4.268   6.700
 4939SOL    HW115263   1.987   4.235   6.659
 4939SOL    HW215264   1.915   4.283   6.798
 4940SOL     OW15265   2.051   4.244   7.308
 4940SOL    HW115266   2.110   4.204   7.238
 4940SOL    HW215267   1.993   4.315   7.267
 4941SOL     OW15268   3.231   4.674   7.246
 4941SOL    HW115269   3.270   4.763   7.266
 4941SOL    HW215270   3.241   4.654   7.149
 4942SOL     OW15271   2.677   4.296   5.911
 4942SOL    HW115272   2.684   4.207   5.865
 4942SOL    HW215273   2.583   4.330   5.903
 4943SOL     OW15274   3.519   4.328   6.792
 4943SOL    HW115275   3.481   4.259   6.854
 4943SOL    HW215276   3.601   4.292   6.748
 4944SOL     OW15277   2.114   5.288   7.330
 4944SOL    HW115278   2.084   5.345   7.406
 4944SOL    HW215279   2.107   5.191   7.356
 4945SOL     OW15280   2.533   4.188   6.855
 4945SOL    HW115281   2.499   4.099   6.825
 4945SOL    HW215282   2.559   4.242   6.775
 4946SOL     OW15283   2.335   4.224   5.777
 4946SOL    HW115284   2.396   4.304   5.781
 4946SOL    HW215285   2.240   4.255   5.784
 4947SOL     OW15286   2.021   4.861   7.052
 4947SOL    HW115287   2.043   4.800   7.128
 4947SOL    HW215288   2.031   4.812   6.966
 4948SOL     OW15289   3.209   4.783   6.820
 4948SOL    HW115290   3.233   4.720   6.746
 4948SOL    HW215291   3.119   4.823   6.802
 4949SOL     OW15292   3.164   4.579   5.895
 4949SOL    HW115293   3.078   4.548   5.937
 4949SOL    HW215294   3.160   4.565   5.796
 4950SOL     OW15295   1.945   4.982   6.608
 4950SOL    HW115296   1.940   4.981   6.708
 4950SOL    HW215297   1.862   4.941   6.570
 4951SOL     OW15298   2.550   5.386   7.302
 4951SOL    HW115299   2.494   5.467   7.311
 4951SOL    HW215300   2.602   5.390   7.216
 4952SOL     OW15301   3.588   3.859   6.109
 4952SOL    HW115302   3.661   3.842   6.042
 4952SOL    HW215303   3.557   3.772   6.147
 4953SOL     OW15304   3.142   4.651   6.258
 4953SOL    HW115305   3.202   4.570   6.260
 4953SOL    HW215306   3.182   4.720   6.198
 4954SOL     OW15307   2.692   4.997   7.008
 4954SOL    HW115308   2.687   5.030   7.103
 4954SOL    HW215309   2.606   5.016   6.962
 4955SOL     OW15310   3.703   3.899   6.549
 4955SOL    HW115311   3.742   3.814   6.513
 4955SOL    HW215312   3.605   3.901   6.530
 4956SOL     OW15313   2.125   4.050   6.306
 4956SOL    HW115314   2.046   4.101   6.272
 4956SOL    HW215315   2.116   4.035   6.404
 4957SOL     OW15316   2.684   4.726   6.958
 4957SOL    HW115317   2.724   4.725   6.866
 4957SOL    HW215318   2.694   4.818   6.998
 4958SOL     OW15319   2.778   4.634   5.877
 4958SOL    HW115320   2.841   4.672   5.809
 4958SOL    HW215321   2.818   4.551   5.916
 4959SOL     OW15322   2.234   5.012   7.076
 4959SOL    HW115323   2.221   5.105   7.042
 4959SOL    HW215324   2.150   4.960   7.063
 4960SOL     OW15325   3.476   5.016   6.875
 4960SOL    HW115326   3.536   5.019   6.955
 4960SOL    HW215327   3.401   5.080   6.888
 4961SOL     OW15328   2.901   4.822   6.282
 4961SOL    HW115329   2.831   4.775   6.336
 4961SOL    HW215330   2.960   4.754   6.239
 4962SOL     OW15331   2.876   3.960   6.557
 4962SOL    HW115332   2.868   3.924   6.464
 4962SOL    HW215333   2.874   3.884   6.622
 4963SOL     OW15334   3.571   4.109   6.967
 4963SOL    HW115335   3.644   4.178   6.971
 4963SOL    HW215336   3.599   4.034   6.908
 4964SOL     OW15337   2.117   5.072   5.876
 4964SOL    HW115338   2.021   5.073   5.849
 4964SOL    HW215339   2.129   5.125   5.960
 4965SOL     OW15340   1.967   4.737   7.312
 4965SOL    HW115341   1.890   4.704   7.366
 4965SOL    HW215342   2.052   4.707   7.354
 4966SOL     OW15343   2.534   3.927   7.075
 4966SOL    HW115344   2.624   3.911   7.035
 4966SOL    HW215345   2.542   3.932   7.174
 4967SOL     OW15346   1.937   4.069   5.619
 4967SOL    HW115347   1.845   4.041   5.590
 4967SOL    HW215348   1.968   4.146   5.563
 4968SOL     OW15349   3.302   4.580   6.984
 4968SOL    HW115350   3.245   4.632   6.921
 4968SOL    HW215351   3.398   4.592   6.960
 4969SOL     OW15352   1.934   3.890   5.904
 4969SOL    HW115353   1.917   3.973   5.850
 4969SOL    HW215354   2.024   3.853   5.882
 4970SOL     OW15355   3.045   5.059   5.705
 4970SOL    HW115356   2.946   5.048   5.707
 4970SOL    HW215357   3.079   5.074   5.798
 4971SOL     OW15358   2.475   4.566   7.017
 4971SOL    HW115359   2.531   4.647   7.000
 4971SOL    HW215360   2.534   4.486   7.020
 4972SOL     OW15361   2.578   4.289   7.294
 4972SOL    HW115362   2.597   4.354   7.368
 4972SOL    HW215363   2.638   4.209   7.303
 4973SOL     OW15364   3.312   4.944   7.219
 4973SOL    HW115365   3.303   4.934   7.318
 4973SOL    HW215366   3.408   4.937   7.193
 4974SOL     OW15367   3.536   4.607   6.840
 4974SOL    HW115368   3.509   4.518   6.803
 4974SOL    HW215369   3.537   4.675   6.767
 4975SOL     OW15370   3.087   4.049   6.035
 4975SOL    HW115371   3.152   3.975   6.024
 4975SOL    HW215372   3.107   4.099   6.119
 4976SOL     OW15373   2.456   4.469   6.238
 4976SOL    HW115374   2.506   4.554   6.219
 4976SOL    HW215375   2.368   4.471   6.190
 4977SOL     OW15376   3.639   4.066   7.228
 4977SOL    HW115377   3.622   4.097   7.134
 4977SOL    HW215378   3.555   4.029   7.266
 4978SOL     OW15379   3.592   4.658   7.103
 4978SOL    HW115380   3.630   4.749   7.118
 4978SOL    HW215381   3.584   4.641   7.004
 4979SOL     OW15382   2.721   5.098   5.602
 4979SOL    HW115383   2.675   5.113   5.690
 4979SOL    HW215384   2.765   5.183   5.572
 4980SOL     OW15385   2.721   4.680   6.447
 4980SOL    HW115386   2.775   4.611   6.495
 4980SOL    HW215387   2.689   4.749   6.513
 4981SOL     OW15388   2.945   4.708   5.673
 4981SOL    HW115389   2.922   4.761   5.591
 4981SOL    HW215390   3.026   4.652   5.654
 4982SOL     OW15391   2.083   5.038   7.430
 4982SOL    HW115392   2.018   4.965   7.409
 4982SOL    HW215393   2.087   5.052   7.528
 4983SOL     OW15394   1.941   4.964   6.239
 4983SOL    HW115395   1.940   4.917   6.327
 4983SOL    HW215396   2.023   4.936   6.188
 4984SOL     OW15397   2.534   5.115   7.210
 4984SOL    HW115398   2.456   5.065   7.248
 4984SOL    HW215399   2.531   5.210   7.241
 4985SOL     OW15400   3.686   3.916   6.813
 4985SOL    HW115401   3.682   3.826   6.857
 4985SOL    HW215402   3.689   3.905   6.714
 4986SOL     OW15403   2.290   4.148   6.106
 4986SOL    HW115404   2.320   4.076   6.044
 4986SOL    HW215405   2.251   4.108   6.189
 4987SOL     OW15406   3.567   5.211   6.690
 4987SOL    HW115407   3.474   5.186   6.663
 4987SOL    HW215408   3.593   5.161   6.772
 4988SOL     OW15409   2.179   4.271   6.866
 4988SOL    HW115410   2.217   4.212   6.938
 4988SOL    HW215411   2.219   4.245   6.778
 4989SOL     OW15412   3.286   3.938   6.698
 4989SOL    HW115413   3.338   3.873   6.753
 4989SOL    HW215414   3.237   4.001   6.759
 4990SOL     OW15415   2.863   3.758   6.740
 4990SOL    HW115416   2.800   3.686   6.709
 4990SOL    HW215417   2.956   3.722   6.740
 4991SOL     OW15418   2.632   5.054   5.887
 4991SOL    HW115419   2.586   4.967   5.904
 4991SOL    HW215420   2.723   5.051   5.928
 4992SOL     OW15421   2.480   5.291   6.870
 4992SOL    HW115422   2.475   5.373   6.927
 4992SOL    HW215423   2.569   5.288   6.825
 4993SOL     OW15424   3.214   3.776   5.754
 4993SOL    HW115425   3.249   3.735   5.670
 4993SOL    HW215426   3.124   3.738   5.774
 4994SOL     OW15427   3.162   4.177   6.277
 4994SOL    HW115428   3.103   4.257   6.281
 4994SOL    HW215429   3.177   4.142   6.370
 4995SOL     OW15430   3.455   3.945   6.468
 4995SOL    HW115431   3.371   3.944   6.522
 4995SOL    HW215432   3.457   4.028   6.412
 4996SOL     OW15433   1.901   4.801   5.886
 4996SOL    HW115434   2.000   4.790   5.877
 4996SOL    HW215435   1.861   4.715   5.918
 4997SOL     OW15436   2.092   4.352   7.561
 4997SOL    HW115437   1.999   4.350   7.598
 4997SOL    HW215438   2.093   4.313   7.469
 4998SOL     OW15439   3.617   4.331   7.679
 4998SOL    HW115440   3.605   4.318   7.580
 4998SOL    HW215441   3.587   4.250   7.728
 4999SOL     OW15442   2.093   5.437   7.931
 4999SOL    HW115443   2.127   5.514   7.985
 4999SOL    HW215444   2.137   5.437   7.841
 5000SOL     OW15445   2.092   5.158   7.986
 5000SOL    HW115446   2.066   5.254   7.986
 5000SOL    HW215447   2.021   5.104   8.031
 5001SOL     OW15448   2.468   4.688   7.571
 5001SOL    HW115449   2.475   4.772   7.517
 5001SOL    HW215450   2.514   4.701   7.659
 5002SOL     OW15451   1.889   5.320   7.565
 5002SOL    HW115452   1.870   5.224   7.586
 5002SOL    HW215453   1.856   5.378   7.640
 5003SOL     OW15454   3.551   4.646   8.060
 5003SOL    HW115455   3.646   4.617   8.068
 5003SOL    HW215456   3.543   4.711   7.985
 5004SOL     OW15457   3.503   4.832   7.880
 5004SOL    HW115458   3.589   4.834   7.828
 5004SOL    HW215459   3.517   4.879   7.968
 5005SOL     OW15460   2.671   3.728   7.950
 5005SOL    HW115461   2.711   3.819   7.941
 5005SOL    HW215462   2.571   3.736   7.956
 5006SOL     OW15463   3.387   4.723   7.638
 5006SOL    HW115464   3.324   4.647   7.651
 5006SOL    HW215465   3.435   4.741   7.724
 5007SOL     OW15466   2.460   4.453   7.718
 5007SOL    HW115467   2.484   4.522   7.650
 5007SOL    HW215468   2.382   4.486   7.772
 5008SOL     OW15469   1.938   4.535   8.237
 5008SOL    HW115470   2.037   4.523   8.246
 5008SOL    HW215471   1.914   4.630   8.258
 5009SOL     OW15472   2.727   4.072   7.643
 5009SOL    HW115473   2.786   4.135   7.594
 5009SOL    HW215474   2.746   3.978   7.614
 5010SOL     OW15475   2.183   4.667   7.690
 5010SOL    HW115476   2.265   4.706   7.648
 5010SOL    HW215477   2.156   4.585   7.641
 5011SOL     OW15478   2.973   5.500   7.685
 5011SOL    HW115479   2.913   5.438   7.735
 5011SOL    HW215480   3.004   5.456   7.600
 5012SOL     OW15481   3.494   5.101   7.529
 5012SOL    HW115482   3.462   5.195   7.519
 5012SOL    HW215483   3.418   5.038   7.517
 5013SOL     OW15484   3.262   3.831   7.874
 5013SOL    HW115485   3.238   3.794   7.784
 5013SOL    HW215486   3.361   3.847   7.878
 5014SOL     OW15487   2.244   4.424   7.928
 5014SOL    HW115488   2.289   4.334   7.925
 5014SOL    HW215489   2.150   4.413   7.961
 5015SOL     OW15490   2.476   3.846   7.565
 5015SOL    HW115491   2.574   3.824   7.572
 5015SOL    HW215492   2.445   3.829   7.472
 5016SOL     OW15493   2.401   3.788   7.960
 5016SOL    HW115494   2.320   3.789   8.018
 5016SOL    HW215495   2.404   3.871   7.905
 5017SOL     OW15496   3.296   4.912   7.489
 5017SOL    HW115497   3.328   4.836   7.546
 5017SOL    HW215498   3.204   4.939   7.519
 5018SOL     OW15499   2.159   3.759   7.619
 5018SOL    HW115500   2.208   3.843   7.598
 5018SOL    HW215501   2.221   3.694   7.664
 5019SOL     OW15502   2.797   3.960   7.928
 5019SOL    HW115503   2.749   4.001   7.850
 5019SOL    HW215504   2.896   3.958   7.909
 5020SOL     OW15505   2.321   4.876   8.189
 5020SOL    HW115506   2.250   4.849   8.254
 5020SOL    HW215507   2.295   4.848   8.096
 5021SOL     OW15508   2.894   4.273   7.464
 5021SOL    HW115509   2.853   4.355   7.425
 5021SOL    HW215510   2.958   4.299   7.537
 5022SOL     OW15511   3.719   4.557   7.825
 5022SOL    HW115512   3.761   4.493   7.889
 5022SOL    HW215513   3.681   4.506   7.747
 5023SOL     OW15514   2.350   5.109   7.622
 5023SOL    HW115515   2.263   5.094   7.669
 5023SOL    HW215516   2.333   5.135   7.527
 5024SOL     OW15517   3.252   4.299   7.526
 5024SOL    HW115518   3.198   4.278   7.607
 5024SOL    HW215519   3.343   4.258   7.535
 5025SOL     OW15520   2.389   3.980   7.776
 5025SOL    HW115521   2.416   3.921   7.701
 5025SOL    HW215522   2.389   4.075   7.745
 5026SOL     OW15523   2.567   4.774   7.816
 5026SOL    HW115524   2.553   4.781   7.915
 5026SOL    HW215525   2.651   4.723   7.798
 5027SOL     OW15526   2.229   4.824   7.949
 5027SOL    HW115527   2.222   4.907   7.893
 5027SOL    HW215528   2.233   4.744   7.889
 5028SOL     OW15529   3.114   5.072   7.836
 5028SOL    HW115530   3.164   5.149   7.876
 5028SOL    HW215531   3.019   5.074   7.868
 5029SOL     OW15532   3.444   4.363   7.920
 5029SOL    HW115533   3.413   4.424   7.993
 5029SOL    HW215534   3.494   4.415   7.851
 5030SOL     OW15535   3.071   4.249   7.723
 5030SOL    HW115536   3.084   4.165   7.777
 5030SOL    HW215537   3.042   4.323   7.783
 5031SOL     OW15538   3.484   4.091   7.822
 5031SOL    HW115539   3.486   4.015   7.886
 5031SOL    HW215540   3.436   4.168   7.862
 5032SOL     OW15541   3.402   3.998   7.573
 5032SOL    HW115542   3.341   3.923   7.596
 5032SOL    HW215543   3.424   4.050   7.656
 5033SOL     OW15544   3.165   4.562   7.490
 5033SOL    HW115545   3.199   4.469   7.505
 5033SOL    HW215546   3.183   4.589   7.395
 5034SOL     OW15547   1.870   5.050   7.648
 5034SOL    HW115548   1.777   5.071   7.617
 5034SOL    HW215549   1.880   4.951   7.661
 5035SOL     OW15550   2.677   4.296   7.773
 5035SOL    HW115551   2.684   4.207   7.727
 5035SOL    HW215552   2.583   4.330   7.765
 5036SOL     OW15553   2.335   4.224   7.639
 5036SOL    HW115554   2.396   4.304   7.643
 5036SOL    HW215555   2.240   4.255   7.646
 5037SOL     OW15556   3.164   4.579   7.757
 5037SOL    HW115557   3.078   4.548   7.799
 5037SOL    HW215558   3.160   4.565   7.658
 5038SOL     OW15559   3.588   3.859   7.971
 5038SOL    HW115560   3.661   3.842   7.904
 5038SOL    HW215561   3.557   3.772   8.009
 5039SOL     OW15562   2.778   4.634   7.739
 5039SOL    HW115563   2.841   4.672   7.671
 5039SOL    HW215564   2.818   4.551   7.778
 5040SOL     OW15565   2.117   5.072   7.738
 5040SOL    HW115566   2.021   5.073   7.711
 5040SOL    HW215567   2.129   5.125   7.822
 5041SOL     OW15568   1.937   4.069   7.481
 5041SOL    HW115569   1.845   4.041   7.452
 5041SOL    HW215570   1.968   4.146   7.425
 5042SOL     OW15571   1.934   3.890   7.766
 5042SOL    HW115572   1.917   3.973   7.712
 5042SOL    HW215573   2.024   3.853   7.744
 5043SOL     OW15574   3.045   5.059   7.567
 5043SOL    HW115575   2.946   5.048   7.569
 5043SOL    HW215576   3.079   5.074   7.660
 5044SOL     OW15577   3.087   4.049   7.897
 5044SOL    HW115578   3.152   3.975   7.886
 5044SOL    HW215579   3.107   4.099   7.981
 5045SOL     OW15580   2.456   4.469   8.100
 5045SOL    HW115581   2.506   4.554   8.081
 5045SOL    HW215582   2.368   4.471   8.052
 5046SOL     OW15583   2.721   5.098   7.464
 5046SOL    HW115584   2.675   5.113   7.552
 5046SOL    HW215585   2.765   5.183   7.434
 5047SOL     OW15586   2.945   4.708   7.535
 5047SOL    HW115587   2.922   4.761   7.453
 5047SOL    HW215588   3.026   4.652   7.516
 5048SOL     OW15589   2.290   4.148   7.968
 5048SOL    HW115590   2.320   4.076   7.906
 5048SOL    HW215591   2.251   4.108   8.051
 5049SOL     OW15592   2.632   5.054   7.749
 5049SOL    HW115593   2.586   4.967   7.766
 5049SOL    HW215594   2.723   5.051   7.790
 5050SOL     OW15595   3.214   3.776   7.616
 5050SOL    HW115596   3.249   3.735   7.532
 5050SOL    HW215597   3.124   3.738   7.636
 5051SOL     OW15598   1.901   4.801   7.748
 5051SOL    HW115599   2.000   4.790   7.739
 5051SOL    HW215600   1.861   4.715   7.780
 5052SOL     OW15601   3.954   0.628   0.113
 5052SOL    HW115602   3.861   0.626   0.150
 5052SOL    HW215603   3.955   0.589   0.021
 5053SOL     OW15604   3.949   0.275   0.996
 5053SOL    HW115605   3.984   0.258   1.088
 5053SOL    HW215606   3.861   0.230   0.984
 5054SOL     OW15607   3.743   0.368   0.647
 5054SOL    HW115608   3.661   0.411   0.686
 5054SOL    HW215609   3.715   0.295   0.584
 5055SOL     OW15610   4.293   1.275   1.165
 5055SOL    HW115611   4.200   1.268   1.128
 5055SOL    HW215612   4.304   1.364   1.209
 5056SOL     OW15613   5.279   1.511   0.703
 5056SOL    HW115614   5.222   1.495   0.784
 5056SOL    HW215615   5.220   1.521   0.623
 5057SOL     OW15616   4.859   0.703   0.717
 5057SOL    HW115617   4.916   0.781   0.692
 5057SOL    HW215618   4.799   0.729   0.793
 5058SOL     OW15619   4.492   1.144   1.023
 5058SOL    HW115620   4.414   1.161   1.083
 5058SOL    HW215621   4.526   1.231   0.987
 5059SOL     OW15622   4.574   0.798   1.823
 5059SOL    HW115623   4.570   0.874   1.888
 5059SOL    HW215624   4.596   0.834   1.732
 5060SOL     OW15625   4.409   1.012   0.665
 5060SOL    HW115626   4.478   0.996   0.735
 5060SOL    HW215627   4.336   1.069   0.703
 5061SOL     OW15628   4.410   1.161   1.803
 5061SOL    HW115629   4.470   1.240   1.817
 5061SOL    HW215630   4.324   1.192   1.762
 5062SOL     OW15631   4.059   1.435   1.061
 5062SOL    HW115632   3.981   1.404   1.008
 5062SOL    HW215633   4.117   1.493   1.004
 5063SOL     OW15634   5.184   1.505   1.339
 5063SOL    HW115635   5.208   1.599   1.365
 5063SOL    HW215636   5.168   1.451   1.421
 5064SOL     OW15637   4.162   0.392   1.499
 5064SOL    HW115638   4.244   0.336   1.508
 5064SOL    HW215639   4.081   0.334   1.503
 5065SOL     OW15640   3.955   1.713   0.483
 5065SOL    HW115641   3.989   1.790   0.537
 5065SOL    HW215642   3.999   1.713   0.393
 5066SOL     OW15643   4.851   1.341   1.690
 5066SOL    HW115644   4.898   1.341   1.778
 5066SOL    HW215645   4.803   1.254   1.679
 5067SOL     OW15646   3.954   1.434   0.538
 5067SOL    HW115647   3.928   1.530   0.538
 5067SOL    HW215648   3.883   1.380   0.583
 5068SOL     OW15649   3.964   1.091   0.886
 5068SOL    HW115650   3.978   1.007   0.938
 5068SOL    HW215651   3.909   1.155   0.941
 5069SOL     OW15652   4.344   1.786   1.439
 5069SOL    HW115653   4.252   1.769   1.474
 5069SOL    HW215654   4.372   1.878   1.465
 5070SOL     OW15655   4.330   0.964   0.123
 5070SOL    HW115656   4.337   1.048   0.069
 5070SOL    HW215657   4.376   0.977   0.211
 5071SOL     OW15658   5.318   0.114   1.480
 5071SOL    HW115659   5.300   0.181   1.408
 5071SOL    HW215660   5.315   0.160   1.569
 5072SOL     OW15661   3.846   0.643   0.563
 5072SOL    HW115662   3.801   0.555   0.580
 5072SOL    HW215663   3.845   0.697   0.647
 5073SOL     OW15664   3.751   1.596   0.117
 5073SOL    HW115665   3.732   1.500   0.138
 5073SOL    HW215666   3.718   1.654   0.192
 5074SOL     OW15667   5.413   0.922   0.612
 5074SOL    HW115668   5.508   0.893   0.620
 5074SOL    HW215669   5.405   0.987   0.537
 5075SOL     OW15670   3.837   0.737   1.597
 5075SOL    HW115671   3.925   0.724   1.642
 5075SOL    HW215672   3.824   0.834   1.575
 5076SOL     OW15673   4.337   1.365   0.726
 5076SOL    HW115674   4.288   1.278   0.735
 5076SOL    HW215675   4.314   1.408   0.639
 5077SOL     OW15676   5.017   1.228   1.423
 5077SOL    HW115677   5.054   1.155   1.365
 5077SOL    HW215678   5.069   1.233   1.508
 5078SOL     OW15679   4.533   0.004   0.502
 5078SOL    HW115680   4.573   0.095   0.493
 5078SOL    HW215681   4.433   0.012   0.508
 5079SOL     OW15682   3.921   0.976   1.264
 5079SOL    HW115683   4.010   0.931   1.250
 5079SOL    HW215684   3.848   0.911   1.245
 5080SOL     OW15685   4.911   1.792   1.616
 5080SOL    HW115686   4.935   1.852   1.540
 5080SOL    HW215687   4.918   1.697   1.586
 5081SOL     OW15688   4.041   0.251   1.801
 5081SOL    HW115689   4.112   0.322   1.807
 5081SOL    HW215690   3.953   0.290   1.829
 5082SOL     OW15691   5.190   1.417   0.953
 5082SOL    HW115692   5.131   1.423   1.033
 5082SOL    HW215693   5.175   1.329   0.907
 5083SOL     OW15694   4.322   0.729   0.270
 5083SOL    HW115695   4.346   0.798   0.202
 5083SOL    HW215696   4.244   0.762   0.324
 5084SOL     OW15697   5.005   0.345   0.944
 5084SOL    HW115698   4.919   0.295   0.931
 5084SOL    HW215699   5.067   0.291   1.000
 5085SOL     OW15700   4.531   0.605   1.465
 5085SOL    HW115701   4.484   0.602   1.554
 5085SOL    HW215702   4.480   0.550   1.399
 5086SOL     OW15703   5.118   0.469   1.674
 5086SOL    HW115704   5.098   0.512   1.762
 5086SOL    HW215705   5.196   0.407   1.683
 5087SOL     OW15706   4.697   0.890   1.572
 5087SOL    HW115707   4.743   0.806   1.543
 5087SOL    HW215708   4.641   0.924   1.497
 5088SOL     OW15709   4.715   0.410   1.242
 5088SOL    HW115710   4.638   0.444   1.296
 5088SOL    HW215711   4.681   0.359   1.163
 5089SOL     OW15712   4.765   0.701   0.429
 5089SOL    HW115713   4.791   0.697   0.525
 5089SOL    HW215714   4.680   0.650   0.415
 5090SOL     OW15715   3.800   0.811   0.789
 5090SOL    HW115716   3.899   0.799   0.798
 5090SOL    HW215717   3.776   0.906   0.810
 5091SOL     OW15718   3.854   1.821   1.571
 5091SOL    HW115719   3.844   1.806   1.670
 5091SOL    HW215720   3.768   1.857   1.535
 5092SOL     OW15721   4.589   0.348   0.195
 5092SOL    HW115722   4.648   0.411   0.146
 5092SOL    HW215723   4.608   0.254   0.166
 5093SOL     OW15724   5.086   1.144   0.545
 5093SOL    HW115725   5.169   1.115   0.497
 5093SOL    HW215726   5.037   1.211   0.489
 5094SOL     OW15727   4.274   0.196   0.885
 5094SOL    HW115728   4.269   0.191   0.985
 5094SOL    HW215729   4.276   0.292   0.856
 5095SOL     OW15730   4.732   1.456   0.477
 5095SOL    HW115731   4.686   1.528   0.425
 5095SOL    HW215732   4.728   1.476   0.575
 5096SOL     OW15733   4.075   1.801   0.853
 5096SOL    HW115734   4.125   1.715   0.859
 5096SOL    HW215735   4.140   1.878   0.850
 5097SOL     OW15736   4.951   1.550   1.506
 5097SOL    HW115737   4.957   1.473   1.570
 5097SOL    HW215738   4.899   1.524   1.426
 5098SOL     OW15739   4.045   0.943   0.242
 5098SOL    HW115740   4.127   0.982   0.200
 5098SOL    HW215741   4.018   0.861   0.193
 5099SOL     OW15742   4.185   1.266   1.727
 5099SOL    HW115743   4.135   1.267   1.641
 5099SOL    HW215744   4.122   1.248   1.803
 5100SOL     OW15745   4.835   1.776   0.237
 5100SOL    HW115746   4.775   1.714   0.287
 5100SOL    HW215747   4.866   1.732   0.152
 5101SOL     OW15748   3.926   0.285   1.498
 5101SOL    HW115749   3.846   0.345   1.485
 5101SOL    HW215750   3.916   0.236   1.584
 5102SOL     OW15751   4.188   1.743   0.323
 5102SOL    HW115752   4.221   1.782   0.409
 5102SOL    HW215753   4.264   1.736   0.258
 5103SOL     OW15754   5.124   0.107   0.426
 5103SOL    HW115755   5.100   0.070   0.336
 5103SOL    HW215756   5.223   0.123   0.430
 5104SOL     OW15757   3.973   1.785   1.241
 5104SOL    HW115758   4.030   1.720   1.291
 5104SOL    HW215759   3.957   1.752   1.148
 5105SOL     OW15760   4.664   1.698   0.904
 5105SOL    HW115761   4.744   1.641   0.925
 5105SOL    HW215762   4.615   1.658   0.827
 5106SOL     OW15763   4.106   0.700   0.480
 5106SOL    HW115764   4.151   0.610   0.477
 5106SOL    HW215765   4.012   0.689   0.513
 5107SOL     OW15766   4.338   0.122   0.117
 5107SOL    HW115767   4.436   0.100   0.124
 5107SOL    HW215768   4.307   0.105   0.024
 5108SOL     OW15769   4.505   0.264   1.749
 5108SOL    HW115770   4.572   0.203   1.792
 5108SOL    HW215771   4.432   0.283   1.814
 5109SOL     OW15772   4.612   1.514   1.195
 5109SOL    HW115773   4.589   1.489   1.101
 5109SOL    HW215774   4.673   1.445   1.234
 5110SOL     OW15775   5.075   0.590   1.433
 5110SOL    HW115776   5.103   0.547   1.518
 5110SOL    HW215777   5.100   0.686   1.434
 5111SOL     OW15778   4.527   1.402   0.924
 5111SOL    HW115779   4.617   1.416   0.882
 5111SOL    HW215780   4.456   1.404   0.853
 5112SOL     OW15781   4.646   0.503   0.899
 5112SOL    HW115782   4.621   0.494   0.803
 5112SOL    HW215783   4.694   0.421   0.930
 5113SOL     OW15784   4.263   0.064   0.512
 5113SOL    HW115785   4.182   0.065   0.570
 5113SOL    HW215786   4.266   0.147   0.457
 5114SOL     OW15787   5.158   1.188   0.041
 5114SOL    HW115788   5.190   1.112   0.098
 5114SOL    HW215789   5.066   1.215   0.071
 5115SOL     OW15790   4.021   0.035   0.171
 5115SOL    HW115791   4.070   0.119   0.150
 5115SOL    HW215792   4.083  -0.030   0.216
 5116SOL     OW15793   4.659   0.236   0.480
 5116SOL    HW115794   4.611   0.277   0.402
 5116SOL    HW215795   4.758   0.234   0.461
 5117SOL     OW15796   4.800   0.683   1.464
 5117SOL    HW115797   4.720   0.622   1.467
 5117SOL    HW215798   4.881   0.630   1.440
 5118SOL     OW15799   4.951   1.570   0.793
 5118SOL    HW115800   4.972   1.644   0.728
 5118SOL    HW215801   5.019   1.570   0.866
 5119SOL     OW15802   4.183   1.152   0.741
 5119SOL    HW115803   4.112   1.125   0.806
 5119SOL    HW215804   4.157   1.124   0.648
 5120SOL     OW15805   4.995   1.797   0.591
 5120SOL    HW115806   5.039   1.861   0.527
 5120SOL    HW215807   4.945   1.849   0.661
 5121SOL     OW15808   4.756   0.549   0.016
 5121SOL    HW115809   4.715   0.631  -0.023
 5121SOL    HW215810   4.820   0.575   0.089
 5122SOL     OW15811   3.802   0.556   1.386
 5122SOL    HW115812   3.894   0.555   1.345
 5122SOL    HW215813   3.796   0.630   1.453
 5123SOL     OW15814   4.285   0.222   1.147
 5123SOL    HW115815   4.323   0.138   1.184
 5123SOL    HW215816   4.197   0.241   1.191
 5124SOL     OW15817   4.590   0.454   0.642
 5124SOL    HW115818   4.558   0.526   0.580
 5124SOL    HW215819   4.614   0.373   0.589
 5125SOL     OW15820   4.741   0.039   0.753
 5125SOL    HW115821   4.669   0.044   0.684
 5125SOL    HW215822   4.717  -0.030   0.822
 5126SOL     OW15823   5.153   1.173   0.867
 5126SOL    HW115824   5.098   1.089   0.860
 5126SOL    HW215825   5.179   1.202   0.775
 5127SOL     OW15826   4.212   1.385   0.174
 5127SOL    HW115827   4.125   1.370   0.221
 5127SOL    HW215828   4.195   1.411   0.079
 5128SOL     OW15829   5.114   0.575   0.078
 5128SOL    HW115830   5.060   0.554   0.159
 5128SOL    HW215831   5.205   0.534   0.087
 5129SOL     OW15832   4.251   0.256   0.328
 5129SOL    HW115833   4.278   0.197   0.253
 5129SOL    HW215834   4.251   0.351   0.297
 5130SOL     OW15835   4.788   1.347   1.340
 5130SOL    HW115836   4.708   1.324   1.395
 5130SOL    HW215837   4.871   1.321   1.389
 5131SOL     OW15838   5.316   1.629   1.625
 5131SOL    HW115839   5.343   1.663   1.535
 5131SOL    HW215840   5.395   1.591   1.671
 5132SOL     OW15841   4.835   1.195   1.100
 5132SOL    HW115842   4.795   1.239   1.181
 5132SOL    HW215843   4.794   1.232   1.017
 5133SOL     OW15844   4.639   0.089   1.402
 5133SOL    HW115845   4.664   0.069   1.307
 5133SOL    HW215846   4.711   0.145   1.444
 5134SOL     OW15847   4.704   1.116   1.719
 5134SOL    HW115848   4.605   1.122   1.729
 5134SOL    HW215849   4.727   1.036   1.663
 5135SOL     OW15850   4.429   1.050   0.368
 5135SOL    HW115851   4.415   1.057   0.467
 5135SOL    HW215852   4.513   0.999   0.350
 5136SOL     OW15853   4.134   0.813   1.251
 5136SOL    HW115854   4.220   0.825   1.301
 5136SOL    HW215855   4.092   0.726   1.278
 5137SOL     OW15856   4.998   0.386   1.262
 5137SOL    HW115857   5.019   0.460   1.326
 5137SOL    HW215858   4.909   0.403   1.219
 5138SOL     OW15859   3.788   1.564   1.331
 5138SOL    HW115860   3.742   1.646   1.297
 5138SOL    HW215861   3.886   1.583   1.340
 5139SOL     OW15862   4.091   1.100   0.501
 5139SOL    HW115863   4.084   1.183   0.445
 5139SOL    HW215864   4.095   1.020   0.441
 5140SOL     OW15865   4.290   0.537   0.865
 5140SOL    HW115866   4.302   0.603   0.791
 5140SOL    HW215867   4.336   0.571   0.948
 5141SOL     OW15868   4.976   1.348   0.388
 5141SOL    HW115869   5.026   1.425   0.428
 5141SOL    HW215870   4.881   1.350   0.420
 5142SOL     OW15871   4.996   1.445   1.142
 5142SOL    HW115872   5.043   1.458   1.229
 5142SOL    HW215873   4.930   1.371   1.151
 5143SOL     OW15874   4.078   1.510   1.329
 5143SOL    HW115875   4.057   1.466   1.242
 5143SOL    HW215876   4.175   1.536   1.332
 5144SOL     OW15877   4.126   0.751   1.598
 5144SOL    HW115878   4.194   0.806   1.551
 5144SOL    HW215879   4.166   0.663   1.625
 5145SOL     OW15880   4.737   0.105   1.770
 5145SOL    HW115881   4.743   0.190   1.718
 5145SOL    HW215882   4.769   0.029   1.713
 5146SOL     OW15883   4.228   0.050   1.740
 5146SOL    HW115884   4.186  -0.007   1.670
 5146SOL    HW215885   4.162   0.119   1.772
 5147SOL     OW15886   4.297   0.870   1.029
 5147SOL    HW115887   4.341   0.959   1.020
 5147SOL    HW215888   4.234   0.870   1.106
 5148SOL     OW15889   5.084   0.862   1.045
 5148SOL    HW115890   5.009   0.862   0.979
 5148SOL    HW215891   5.121   0.770   1.054
 5149SOL     OW15892   4.933   0.525   0.275
 5149SOL    HW115893   4.946   0.441   0.329
 5149SOL    HW215894   4.904   0.599   0.335
 5150SOL     OW15895   4.031   0.213   1.231
 5150SOL    HW115896   4.008   0.250   1.321
 5150SOL    HW215897   4.001   0.118   1.225
 5151SOL     OW15898   3.761   1.310   1.282
 5151SOL    HW115899   3.814   1.261   1.350
 5151SOL    HW215900   3.783   1.408   1.287
 5152SOL     OW15901   4.456   0.634   1.064
 5152SOL    HW115902   4.515   0.608   0.988
 5152SOL    HW215903   4.428   0.730   1.053
 5153SOL     OW15904   4.031   0.063   0.618
 5153SOL    HW115905   4.020   0.157   0.651
 5153SOL    HW215906   4.026   0.000   0.695
 5154SOL     OW15907   5.346   0.367   0.374
 5154SOL    HW115908   5.348   0.291   0.438
 5154SOL    HW215909   5.298   0.444   0.414
 5155SOL     OW15910   4.747   0.766   0.966
 5155SOL    HW115911   4.762   0.787   1.062
 5155SOL    HW215912   4.717   0.671   0.957
 5156SOL     OW15913   4.704   1.573   1.700
 5156SOL    HW115914   4.684   1.617   1.612
 5156SOL    HW215915   4.743   1.482   1.684
 5157SOL     OW15916   4.074   0.898   1.804
 5157SOL    HW115917   4.150   0.942   1.852
 5157SOL    HW215918   4.109   0.851   1.722
 5158SOL     OW15919   5.027   0.838   0.042
 5158SOL    HW115920   5.061   0.745   0.057
 5158SOL    HW215921   5.045   0.865  -0.053
 5159SOL     OW15922   4.792   1.333   0.849
 5159SOL    HW115923   4.799   1.249   0.794
 5159SOL    HW215924   4.854   1.402   0.813
 5160SOL     OW15925   4.043   0.810   0.949
 5160SOL    HW115926   4.136   0.846   0.954
 5160SOL    HW215927   4.037   0.725   1.001
 5161SOL     OW15928   4.063   0.509   1.006
 5161SOL    HW115929   4.011   0.426   0.989
 5161SOL    HW215930   4.140   0.514   0.942
 5162SOL     OW15931   4.862   0.380   1.678
 5162SOL    HW115932   4.817   0.443   1.742
 5162SOL    HW215933   4.955   0.411   1.661
 5163SOL     OW15934   4.884   0.207   1.477
 5163SOL    HW115935   4.884   0.271   1.554
 5163SOL    HW215936   4.912   0.255   1.394
 5164SOL     OW15937   3.732   1.326   0.200
 5164SOL    HW115938   3.639   1.347   0.169
 5164SOL    HW215939   3.742   1.227   0.213
 5165SOL     OW15940   3.812   1.801   0.927
 5165SOL    HW115941   3.770   1.715   0.900
 5165SOL    HW215942   3.906   1.804   0.893
 5166SOL     OW15943   4.228   1.568   0.910
 5166SOL    HW115944   4.294   1.642   0.919
 5166SOL    HW215945   4.272   1.489   0.868
 5167SOL     OW15946   4.726   0.796   1.238
 5167SOL    HW115947   4.767   0.764   1.324
 5167SOL    HW215948   4.630   0.769   1.235
 5168SOL     OW15949   3.764   0.544   1.114
 5168SOL    HW115950   3.849   0.511   1.073
 5168SOL    HW215951   3.777   0.559   1.212
 5169SOL     OW15952   3.913   0.520   1.722
 5169SOL    HW115953   3.972   0.480   1.652
 5169SOL    HW215954   3.855   0.591   1.681
 5170SOL     OW15955   5.093   0.950   1.660
 5170SOL    HW115956   5.132   1.039   1.680
 5170SOL    HW215957   5.103   0.930   1.563
 5171SOL     OW15958   4.539   0.572   0.325
 5171SOL    HW115959   4.546   0.483   0.279
 5171SOL    HW215960   4.445   0.606   0.317
 5172SOL     OW15961   3.976   1.564   1.744
 5172SOL    HW115962   3.946   1.621   1.820
 5172SOL    HW215963   3.969   1.467   1.770
 5173SOL     OW15964   4.395   0.464   1.269
 5173SOL    HW115965   4.361   0.375   1.239
 5173SOL    HW215966   4.421   0.518   1.189
 5174SOL     OW15967   4.654   1.678   1.465
 5174SOL    HW115968   4.630   1.660   1.370
 5174SOL    HW215969   4.684   1.772   1.475
 5175SOL     OW15970   4.197   0.500   0.191
 5175SOL    HW115971   4.258   0.580   0.195
 5175SOL    HW215972   4.102   0.531   0.198
 5176SOL     OW15973   3.883   1.137   1.466
 5176SOL    HW115974   3.905   1.076   1.542
 5176SOL    HW215975   3.893   1.088   1.380
 5177SOL     OW15976   5.071   1.059   1.234
 5177SOL    HW115977   5.095   0.996   1.160
 5177SOL    HW215978   4.981   1.099   1.216
 5178SOL     OW15979   5.026   0.855   0.309
 5178SOL    HW115980   4.940   0.824   0.351
 5178SOL    HW215981   5.022   0.841   0.210
 5179SOL     OW15982   4.976   1.731   1.128
 5179SOL    HW115983   5.060   1.736   1.074
 5179SOL    HW215984   4.953   1.635   1.146
 5180SOL     OW15985   3.807   1.258   1.022
 5180SOL    HW115986   3.802   1.257   1.122
 5180SOL    HW215987   3.724   1.217   0.984
 5181SOL     OW15988   4.412   1.662   1.716
 5181SOL    HW115989   4.356   1.743   1.725
 5181SOL    HW215990   4.464   1.666   1.630
 5182SOL     OW15991   4.627   0.086   0.133
 5182SOL    HW115992   4.678   0.087   0.047
 5182SOL    HW215993   4.683   0.044   0.204
 5183SOL     OW15994   5.112   1.573   0.477
 5183SOL    HW115995   5.179   1.585   0.403
 5183SOL    HW215996   5.072   1.662   0.500
 5184SOL     OW15997   3.854   1.794   1.851
 5184SOL    HW115998   3.813   1.720   1.904
 5184SOL    HW215999   3.918   1.845   1.909
 5185SOL     OW16000   5.004   0.927   0.672
 5185SOL    HW116001   5.064   0.846   0.674
 5185SOL    HW216002   5.044   0.996   0.612
 5186SOL     OW16003   4.554   1.273   1.422
 5186SOL    HW116004   4.549   1.306   1.517
 5186SOL    HW216005   4.468   1.292   1.376
 5187SOL     OW16006   4.396   1.616   0.154
 5187SOL    HW116007   4.405   1.626   0.055
 5187SOL    HW216008   4.356   1.527   0.175
 5188SOL     OW16009   3.987   0.326   0.720
 5188SOL    HW116010   3.908   0.377   0.686
 5188SOL    HW216011   3.978   0.311   0.818
 5189SOL     OW16012   4.918   1.612   0.031
 5189SOL    HW116013   4.924   1.519   0.068
 5189SOL    HW216014   4.859   1.612  -0.049
 5190SOL     OW16015   4.546   1.002   1.372
 5190SOL    HW116016   4.586   1.001   1.280
 5190SOL    HW216017   4.556   1.094   1.412
 5191SOL     OW16018   4.640   0.910   0.291
 5191SOL    HW116019   4.703   0.948   0.223
 5191SOL    HW216020   4.680   0.827   0.330
 5192SOL     OW16021   4.096   1.288   1.490
 5192SOL    HW116022   4.083   1.381   1.456
 5192SOL    HW216023   4.012   1.236   1.477
 5193SOL     OW16024   4.763   1.098   0.696
 5193SOL    HW116025   4.693   1.051   0.750
 5193SOL    HW216026   4.822   1.030   0.653
 5194SOL     OW16027   4.738   0.236   0.971
 5194SOL    HW116028   4.730   0.200   0.878
 5194SOL    HW216029   4.736   0.160   1.036
 5195SOL     OW16030   4.314   1.487   0.491
 5195SOL    HW116031   4.356   1.429   0.421
 5195SOL    HW216032   4.270   1.566   0.447
 5196SOL     OW16033   3.979   1.348   0.290
 5196SOL    HW116034   3.883   1.349   0.263
 5196SOL    HW216035   3.991   1.401   0.374
 5197SOL     OW16036   3.829   1.013   1.726
 5197SOL    HW116037   3.752   0.980   1.780
 5197SOL    HW216038   3.914   0.983   1.768
 5198SOL     OW16039   4.396   0.203   1.489
 5198SOL    HW116040   4.486   0.187   1.449
 5198SOL    HW216041   4.404   0.208   1.588
 5199SOL     OW16042   3.799   0.345   0.033
 5199SOL    HW116043   3.707   0.317   0.004
 5199SOL    HW216044   3.830   0.422  -0.023
 5200SOL     OW16045   5.164   0.856   1.398
 5200SOL    HW116046   5.107   0.908   1.335
 5200SOL    HW216047   5.260   0.868   1.374
 5201SOL     OW16048   3.796   0.166   0.318
 5201SOL    HW116049   3.779   0.249   0.264
 5201SOL    HW216050   3.886   0.129   0.296
 5202SOL     OW16051   4.907   1.335   0.119
 5202SOL    HW116052   4.808   1.324   0.121
 5202SOL    HW216053   4.941   1.350   0.212
 5203SOL     OW16054   4.337   0.842   1.431
 5203SOL    HW116055   4.393   0.923   1.414
 5203SOL    HW216056   4.396   0.762   1.434
 5204SOL     OW16057   4.440   0.565   1.708
 5204SOL    HW116058   4.459   0.630   1.782
 5204SOL    HW216059   4.500   0.485   1.717
 5205SOL     OW16060   5.174   1.220   1.633
 5205SOL    HW116061   5.165   1.210   1.732
 5205SOL    HW216062   5.270   1.213   1.607
 5206SOL     OW16063   4.114   1.741   1.560
 5206SOL    HW116064   4.023   1.782   1.558
 5206SOL    HW216065   4.107   1.647   1.592
 5207SOL     OW16066   4.949   0.325   0.449
 5207SOL    HW116067   5.014   0.251   0.438
 5207SOL    HW216068   4.969   0.375   0.533
 5208SOL     OW16069   4.318   0.745   0.652
 5208SOL    HW116070   4.368   0.830   0.633
 5208SOL    HW216071   4.230   0.747   0.604
 5209SOL     OW16072   4.583   1.374   0.016
 5209SOL    HW116073   4.537   1.389   0.104
 5209SOL    HW216074   4.627   1.459  -0.014
 5210SOL     OW16075   4.385   1.790   0.953
 5210SOL    HW116076   4.339   1.878   0.940
 5210SOL    HW216077   4.484   1.802   0.946
 5211SOL     OW16078   4.583   0.956   0.861
 5211SOL    HW116079   4.637   0.887   0.909
 5211SOL    HW216080   4.551   1.025   0.927
 5212SOL     OW16081   4.807   0.984   0.087
 5212SOL    HW116082   4.784   1.037   0.005
 5212SOL    HW216083   4.888   0.928   0.068
 5213SOL     OW16084   3.945   1.314   1.844
 5213SOL    HW116085   3.880   1.241   1.823
 5213SOL    HW216086   3.949   1.328   1.942
 5214SOL     OW16087   3.803   1.240   0.653
 5214SOL    HW116088   3.802   1.193   0.741
 5214SOL    HW216089   3.885   1.212   0.602
 5215SOL     OW16090   4.396   1.391   1.624
 5215SOL    HW116091   4.318   1.341   1.662
 5215SOL    HW216092   4.393   1.486   1.655
 5216SOL     OW16093   4.152   0.424   0.520
 5216SOL    HW116094   4.182   0.352   0.458
 5216SOL    HW216095   4.113   0.384   0.603
 5217SOL     OW16096   5.429   1.487   1.104
 5217SOL    HW116097   5.336   1.462   1.077
 5217SOL    HW216098   5.455   1.437   1.186
 5218SOL     OW16099   4.041   0.547   1.280
 5218SOL    HW116100   4.079   0.488   1.352
 5218SOL    HW216101   4.081   0.521   1.192
 5219SOL     OW16102   4.536   1.586   0.687
 5219SOL    HW116103   4.568   1.596   0.593
 5219SOL    HW216104   4.457   1.524   0.689
 5220SOL     OW16105   5.148   0.214   1.112
 5220SOL    HW116106   5.200   0.149   1.167
 5220SOL    HW216107   5.099   0.277   1.173
 5221SOL     OW16108   4.725   0.034   1.154
 5221SOL    HW116109   4.662  -0.038   1.123
 5221SOL    HW216110   4.818  -0.002   1.154
 5222SOL     OW16111   4.494   1.330   0.301
 5222SOL    HW116112   4.448   1.243   0.318
 5222SOL    HW216113   4.585   1.327   0.342
 5223SOL     OW16114   4.342   1.567   1.284
 5223SOL    HW116115   4.337   1.649   1.341
 5223SOL    HW216116   4.431   1.564   1.239
 5224SOL     OW16117   5.076   0.052   0.168
 5224SOL    HW116118   5.111   0.011   0.084
 5224SOL    HW216119   4.986   0.014   0.188
 5225SOL     OW16120   5.024   0.453   0.691
 5225SOL    HW116121   4.965   0.533   0.695
 5225SOL    HW216122   5.039   0.418   0.784
 5226SOL     OW16123   5.317   0.221   0.882
 5226SOL    HW116124   5.233   0.220   0.936
 5226SOL    HW216125   5.319   0.304   0.826
 5227SOL     OW16126   3.763   1.077   0.300
 5227SOL    HW116127   3.862   1.066   0.291
 5227SOL    HW216128   3.723   0.991   0.332
 5228SOL     OW16129   4.599   1.646   0.337
 5228SOL    HW116130   4.522   1.611   0.283
 5228SOL    HW216131   4.567   1.717   0.399
 5229SOL     OW16132   3.954   0.628   1.975
 5229SOL    HW116133   3.861   0.626   2.012
 5229SOL    HW216134   3.955   0.589   1.883
 5230SOL     OW16135   3.949   0.275   2.858
 5230SOL    HW116136   3.984   0.258   2.950
 5230SOL    HW216137   3.861   0.230   2.846
 5231SOL     OW16138   3.743   0.368   2.509
 5231SOL    HW116139   3.661   0.411   2.548
 5231SOL    HW216140   3.715   0.295   2.446
 5232SOL     OW16141   4.293   1.275   3.027
 5232SOL    HW116142   4.200   1.268   2.990
 5232SOL    HW216143   4.304   1.364   3.071
 5233SOL     OW16144   5.279   1.511   2.565
 5233SOL    HW116145   5.222   1.495   2.646
 5233SOL    HW216146   5.220   1.521   2.485
 5234SOL     OW16147   4.859   0.703   2.579
 5234SOL    HW116148   4.916   0.781   2.554
 5234SOL    HW216149   4.799   0.729   2.655
 5235SOL     OW16150   4.492   1.144   2.885
 5235SOL    HW116151   4.414   1.161   2.945
 5235SOL    HW216152   4.526   1.231   2.849
 5236SOL     OW16153   4.574   0.798   3.685
 5236SOL    HW116154   4.570   0.874   3.750
 5236SOL    HW216155   4.596   0.834   3.594
 5237SOL     OW16156   4.409   1.012   2.527
 5237SOL    HW116157   4.478   0.996   2.597
 5237SOL    HW216158   4.336   1.069   2.565
 5238SOL     OW16159   4.410   1.161   3.665
 5238SOL    HW116160   4.470   1.240   3.679
 5238SOL    HW216161   4.324   1.192   3.624
 5239SOL     OW16162   4.059   1.435   2.923
 5239SOL    HW116163   3.981   1.404   2.870
 5239SOL    HW216164   4.117   1.493   2.866
 5240SOL     OW16165   5.184   1.505   3.201
 5240SOL    HW116166   5.208   1.599   3.227
 5240SOL    HW216167   5.168   1.451   3.283
 5241SOL     OW16168   4.162   0.392   3.361
 5241SOL    HW116169   4.244   0.336   3.370
 5241SOL    HW216170   4.081   0.334   3.365
 5242SOL     OW16171   3.955   1.713   2.345
 5242SOL    HW116172   3.989   1.790   2.399
 5242SOL    HW216173   3.999   1.713   2.255
 5243SOL     OW16174   4.851   1.341   3.552
 5243SOL    HW116175   4.898   1.341   3.640
 5243SOL    HW216176   4.803   1.254   3.541
 5244SOL     OW16177   3.954   1.434   2.400
 5244SOL    HW116178   3.928   1.530   2.400
 5244SOL    HW216179   3.883   1.380   2.445
 5245SOL     OW16180   3.964   1.091   2.748
 5245SOL    HW116181   3.978   1.007   2.800
 5245SOL    HW216182   3.909   1.155   2.803
 5246SOL     OW16183   4.344   1.786   3.301
 5246SOL    HW116184   4.252   1.769   3.336
 5246SOL    HW216185   4.372   1.878   3.327
 5247SOL     OW16186   4.330   0.964   1.985
 5247SOL    HW116187   4.337   1.048   1.931
 5247SOL    HW216188   4.376   0.977   2.073
 5248SOL     OW16189   5.318   0.114   3.342
 5248SOL    HW116190   5.300   0.181   3.270
 5248SOL    HW216191   5.315   0.160   3.431
 5249SOL     OW16192   3.846   0.643   2.425
 5249SOL    HW116193   3.801   0.555   2.442
 5249SOL    HW216194   3.845   0.697   2.509
 5250SOL     OW16195   3.751   1.596   1.979
 5250SOL    HW116196   3.732   1.500   2.000
 5250SOL    HW216197   3.718   1.654   2.054
 5251SOL     OW16198   5.413   0.922   2.474
 5251SOL    HW116199   5.508   0.893   2.482
 5251SOL    HW216200   5.405   0.987   2.399
 5252SOL     OW16201   3.837   0.737   3.459
 5252SOL    HW116202   3.925   0.724   3.504
 5252SOL    HW216203   3.824   0.834   3.437
 5253SOL     OW16204   4.337   1.365   2.588
 5253SOL    HW116205   4.288   1.278   2.597
 5253SOL    HW216206   4.314   1.408   2.501
 5254SOL     OW16207   5.017   1.228   3.285
 5254SOL    HW116208   5.054   1.155   3.227
 5254SOL    HW216209   5.069   1.233   3.370
 5255SOL     OW16210   4.533   0.004   2.364
 5255SOL    HW116211   4.573   0.095   2.355
 5255SOL    HW216212   4.433   0.012   2.370
 5256SOL     OW16213   3.921   0.976   3.126
 5256SOL    HW116214   4.010   0.931   3.112
 5256SOL    HW216215   3.848   0.911   3.107
 5257SOL     OW16216   4.911   1.792   3.478
 5257SOL    HW116217   4.935   1.852   3.402
 5257SOL    HW216218   4.918   1.697   3.448
 5258SOL     OW16219   4.041   0.251   3.663
 5258SOL    HW116220   4.112   0.322   3.669
 5258SOL    HW216221   3.953   0.290   3.691
 5259SOL     OW16222   5.190   1.417   2.815
 5259SOL    HW116223   5.131   1.423   2.895
 5259SOL    HW216224   5.175   1.329   2.769
 5260SOL     OW16225   4.322   0.729   2.132
 5260SOL    HW116226   4.346   0.798   2.064
 5260SOL    HW216227   4.244   0.762   2.186
 5261SOL     OW16228   5.005   0.345   2.806
 5261SOL    HW116229   4.919   0.295   2.793
 5261SOL    HW216230   5.067   0.291   2.862
 5262SOL     OW16231   4.531   0.605   3.327
 5262SOL    HW116232   4.484   0.602   3.416
 5262SOL    HW216233   4.480   0.550   3.261
 5263SOL     OW16234   5.118   0.469   3.536
 5263SOL    HW116235   5.098   0.512   3.624
 5263SOL    HW216236   5.196   0.407   3.545
 5264SOL     OW16237   4.697   0.890   3.434
 5264SOL    HW116238   4.743   0.806   3.405
 5264SOL    HW216239   4.641   0.924   3.359
 5265SOL     OW16240   4.715   0.410   3.104
 5265SOL    HW116241   4.638   0.444   3.158
 5265SOL    HW216242   4.681   0.359   3.025
 5266SOL     OW16243   4.765   0.701   2.291
 5266SOL    HW116244   4.791   0.697   2.387
 5266SOL    HW216245   4.680   0.650   2.277
 5267SOL     OW16246   3.800   0.811   2.651
 5267SOL    HW116247   3.899   0.799   2.660
 5267SOL    HW216248   3.776   0.906   2.672
 5268SOL     OW16249   3.854   1.821   3.433
 5268SOL    HW116250   3.844   1.806   3.532
 5268SOL    HW216251   3.768   1.857   3.397
 5269SOL     OW16252   4.589   0.348   2.057
 5269SOL    HW116253   4.648   0.411   2.008
 5269SOL    HW216254   4.608   0.254   2.028
 5270SOL     OW16255   5.086   1.144   2.407
 5270SOL    HW116256   5.169   1.115   2.359
 5270SOL    HW216257   5.037   1.211   2.351
 5271SOL     OW16258   4.274   0.196   2.747
 5271SOL    HW116259   4.269   0.191   2.847
 5271SOL    HW216260   4.276   0.292   2.718
 5272SOL     OW16261   4.732   1.456   2.339
 5272SOL    HW116262   4.686   1.528   2.287
 5272SOL    HW216263   4.728   1.476   2.437
 5273SOL     OW16264   4.075   1.801   2.715
 5273SOL    HW116265   4.125   1.715   2.721
 5273SOL    HW216266   4.140   1.878   2.712
 5274SOL     OW16267   4.951   1.550   3.368
 5274SOL    HW116268   4.957   1.473   3.432
 5274SOL    HW216269   4.899   1.524   3.288
 5275SOL     OW16270   4.045   0.943   2.104
 5275SOL    HW116271   4.127   0.982   2.062
 5275SOL    HW216272   4.018   0.861   2.055
 5276SOL     OW16273   4.185   1.266   3.589
 5276SOL    HW116274   4.135   1.267   3.503
 5276SOL    HW216275   4.122   1.248   3.665
 5277SOL     OW16276   4.835   1.776   2.099
 5277SOL    HW116277   4.775   1.714   2.149
 5277SOL    HW216278   4.866   1.732   2.014
 5278SOL     OW16279   3.926   0.285   3.360
 5278SOL    HW116280   3.846   0.345   3.347
 5278SOL    HW216281   3.916   0.236   3.446
 5279SOL     OW16282   4.188   1.743   2.185
 5279SOL    HW116283   4.221   1.782   2.271
 5279SOL    HW216284   4.264   1.736   2.120
 5280SOL     OW16285   5.124   0.107   2.288
 5280SOL    HW116286   5.100   0.070   2.198
 5280SOL    HW216287   5.223   0.123   2.292
 5281SOL     OW16288   3.973   1.785   3.103
 5281SOL    HW116289   4.030   1.720   3.153
 5281SOL    HW216290   3.957   1.752   3.010
 5282SOL     OW16291   4.664   1.698   2.766
 5282SOL    HW116292   4.744   1.641   2.787
 5282SOL    HW216293   4.615   1.658   2.689
 5283SOL     OW16294   4.106   0.700   2.342
 5283SOL    HW116295   4.151   0.610   2.339
 5283SOL    HW216296   4.012   0.689   2.375
 5284SOL     OW16297   4.338   0.122   1.979
 5284SOL    HW116298   4.436   0.100   1.986
 5284SOL    HW216299   4.307   0.105   1.886
 5285SOL     OW16300   4.505   0.264   3.611
 5285SOL    HW116301   4.572   0.203   3.654
 5285SOL    HW216302   4.432   0.283   3.676
 5286SOL     OW16303   4.612   1.514   3.057
 5286SOL    HW116304   4.589   1.489   2.963
 5286SOL    HW216305   4.673   1.445   3.096
 5287SOL     OW16306   5.075   0.590   3.295
 5287SOL    HW116307   5.103   0.547   3.380
 5287SOL    HW216308   5.100   0.686   3.296
 5288SOL     OW16309   4.527   1.402   2.786
 5288SOL    HW116310   4.617   1.416   2.744
 5288SOL    HW216311   4.456   1.404   2.715
 5289SOL     OW16312   4.646   0.503   2.761
 5289SOL    HW116313   4.621   0.494   2.665
 5289SOL    HW216314   4.694   0.421   2.792
 5290SOL     OW16315   4.263   0.064   2.374
 5290SOL    HW116316   4.182   0.065   2.432
 5290SOL    HW216317   4.266   0.147   2.319
 5291SOL     OW16318   5.158   1.188   1.903
 5291SOL    HW116319   5.190   1.112   1.960
 5291SOL    HW216320   5.066   1.215   1.933
 5292SOL     OW16321   4.021   0.035   2.033
 5292SOL    HW116322   4.070   0.119   2.012
 5292SOL    HW216323   4.083  -0.030   2.078
 5293SOL     OW16324   4.659   0.236   2.342
 5293SOL    HW116325   4.611   0.277   2.264
 5293SOL    HW216326   4.758   0.234   2.323
 5294SOL     OW16327   4.800   0.683   3.326
 5294SOL    HW116328   4.720   0.622   3.329
 5294SOL    HW216329   4.881   0.630   3.302
 5295SOL     OW16330   4.951   1.570   2.655
 5295SOL    HW116331   4.972   1.644   2.590
 5295SOL    HW216332   5.019   1.570   2.728
 5296SOL     OW16333   4.183   1.152   2.603
 5296SOL    HW116334   4.112   1.125   2.668
 5296SOL    HW216335   4.157   1.124   2.510
 5297SOL     OW16336   4.995   1.797   2.453
 5297SOL    HW116337   5.039   1.861   2.389
 5297SOL    HW216338   4.945   1.849   2.523
 5298SOL     OW16339   4.756   0.549   1.878
 5298SOL    HW116340   4.715   0.631   1.839
 5298SOL    HW216341   4.820   0.575   1.951
 5299SOL     OW16342   3.802   0.556   3.248
 5299SOL    HW116343   3.894   0.555   3.207
 5299SOL    HW216344   3.796   0.630   3.315
 5300SOL     OW16345   4.285   0.222   3.009
 5300SOL    HW116346   4.323   0.138   3.046
 5300SOL    HW216347   4.197   0.241   3.053
 5301SOL     OW16348   4.590   0.454   2.504
 5301SOL    HW116349   4.558   0.526   2.442
 5301SOL    HW216350   4.614   0.373   2.451
 5302SOL     OW16351   4.741   0.039   2.615
 5302SOL    HW116352   4.669   0.044   2.546
 5302SOL    HW216353   4.717  -0.030   2.684
 5303SOL     OW16354   5.153   1.173   2.729
 5303SOL    HW116355   5.098   1.089   2.722
 5303SOL    HW216356   5.179   1.202   2.637
 5304SOL     OW16357   4.212   1.385   2.036
 5304SOL    HW116358   4.125   1.370   2.083
 5304SOL    HW216359   4.195   1.411   1.941
 5305SOL     OW16360   5.114   0.575   1.940
 5305SOL    HW116361   5.060   0.554   2.021
 5305SOL    HW216362   5.205   0.534   1.949
 5306SOL     OW16363   4.251   0.256   2.190
 5306SOL    HW116364   4.278   0.197   2.115
 5306SOL    HW216365   4.251   0.351   2.159
 5307SOL     OW16366   4.788   1.347   3.202
 5307SOL    HW116367   4.708   1.324   3.257
 5307SOL    HW216368   4.871   1.321   3.251
 5308SOL     OW16369   5.316   1.629   3.487
 5308SOL    HW116370   5.343   1.663   3.397
 5308SOL    HW216371   5.395   1.591   3.533
 5309SOL     OW16372   4.835   1.195   2.962
 5309SOL    HW116373   4.795   1.239   3.043
 5309SOL    HW216374   4.794   1.232   2.879
 5310SOL     OW16375   4.639   0.089   3.264
 5310SOL    HW116376   4.664   0.069   3.169
 5310SOL    HW216377   4.711   0.145   3.306
 5311SOL     OW16378   4.704   1.116   3.581
 5311SOL    HW116379   4.605   1.122   3.591
 5311SOL    HW216380   4.727   1.036   3.525
 5312SOL     OW16381   4.429   1.050   2.230
 5312SOL    HW116382   4.415   1.057   2.329
 5312SOL    HW216383   4.513   0.999   2.212
 5313SOL     OW16384   4.134   0.813   3.113
 5313SOL    HW116385   4.220   0.825   3.163
 5313SOL    HW216386   4.092   0.726   3.140
 5314SOL     OW16387   4.998   0.386   3.124
 5314SOL    HW116388   5.019   0.460   3.188
 5314SOL    HW216389   4.909   0.403   3.081
 5315SOL     OW16390   3.788   1.564   3.193
 5315SOL    HW116391   3.742   1.646   3.159
 5315SOL    HW216392   3.886   1.583   3.202
 5316SOL     OW16393   4.091   1.100   2.363
 5316SOL    HW116394   4.084   1.183   2.307
 5316SOL    HW216395   4.095   1.020   2.303
 5317SOL     OW16396   4.290   0.537   2.727
 5317SOL    HW116397   4.302   0.603   2.653
 5317SOL    HW216398   4.336   0.571   2.810
 5318SOL     OW16399   4.976   1.348   2.250
 5318SOL    HW116400   5.026   1.425   2.290
 5318SOL    HW216401   4.881   1.350   2.282
 5319SOL     OW16402   4.996   1.445   3.004
 5319SOL    HW116403   5.043   1.458   3.091
 5319SOL    HW216404   4.930   1.371   3.013
 5320SOL     OW16405   4.078   1.510   3.191
 5320SOL    HW116406   4.057   1.466   3.104
 5320SOL    HW216407   4.175   1.536   3.194
 5321SOL     OW16408   4.126   0.751   3.460
 5321SOL    HW116409   4.194   0.806   3.413
 5321SOL    HW216410   4.166   0.663   3.487
 5322SOL     OW16411   4.737   0.105   3.632
 5322SOL    HW116412   4.743   0.190   3.580
 5322SOL    HW216413   4.769   0.029   3.575
 5323SOL     OW16414   4.228   0.050   3.602
 5323SOL    HW116415   4.186  -0.007   3.532
 5323SOL    HW216416   4.162   0.119   3.634
 5324SOL     OW16417   4.297   0.870   2.891
 5324SOL    HW116418   4.341   0.959   2.882
 5324SOL    HW216419   4.234   0.870   2.968
 5325SOL     OW16420   5.084   0.862   2.907
 5325SOL    HW116421   5.009   0.862   2.841
 5325SOL    HW216422   5.121   0.770   2.916
 5326SOL     OW16423   4.933   0.525   2.137
 5326SOL    HW116424   4.946   0.441   2.191
 5326SOL    HW216425   4.904   0.599   2.197
 5327SOL     OW16426   4.031   0.213   3.093
 5327SOL    HW116427   4.008   0.250   3.183
 5327SOL    HW216428   4.001   0.118   3.087
 5328SOL     OW16429   3.761   1.310   3.144
 5328SOL    HW116430   3.814   1.261   3.212
 5328SOL    HW216431   3.783   1.408   3.149
 5329SOL     OW16432   4.456   0.634   2.926
 5329SOL    HW116433   4.515   0.608   2.850
 5329SOL    HW216434   4.428   0.730   2.915
 5330SOL     OW16435   4.031   0.063   2.480
 5330SOL    HW116436   4.020   0.157   2.513
 5330SOL    HW216437   4.026   0.000   2.557
 5331SOL     OW16438   5.346   0.367   2.236
 5331SOL    HW116439   5.348   0.291   2.300
 5331SOL    HW216440   5.298   0.444   2.276
 5332SOL     OW16441   4.747   0.766   2.828
 5332SOL    HW116442   4.762   0.787   2.924
 5332SOL    HW216443   4.717   0.671   2.819
 5333SOL     OW16444   4.704   1.573   3.562
 5333SOL    HW116445   4.684   1.617   3.474
 5333SOL    HW216446   4.743   1.482   3.546
 5334SOL     OW16447   4.074   0.898   3.666
 5334SOL    HW116448   4.150   0.942   3.714
 5334SOL    HW216449   4.109   0.851   3.584
 5335SOL     OW16450   5.027   0.838   1.904
 5335SOL    HW116451   5.061   0.745   1.919
 5335SOL    HW216452   5.045   0.865   1.809
 5336SOL     OW16453   4.792   1.333   2.711
 5336SOL    HW116454   4.799   1.249   2.656
 5336SOL    HW216455   4.854   1.402   2.675
 5337SOL     OW16456   4.043   0.810   2.811
 5337SOL    HW116457   4.136   0.846   2.816
 5337SOL    HW216458   4.037   0.725   2.863
 5338SOL     OW16459   4.063   0.509   2.868
 5338SOL    HW116460   4.011   0.426   2.851
 5338SOL    HW216461   4.140   0.514   2.804
 5339SOL     OW16462   4.862   0.380   3.540
 5339SOL    HW116463   4.817   0.443   3.604
 5339SOL    HW216464   4.955   0.411   3.523
 5340SOL     OW16465   4.884   0.207   3.339
 5340SOL    HW116466   4.884   0.271   3.416
 5340SOL    HW216467   4.912   0.255   3.256
 5341SOL     OW16468   3.732   1.326   2.062
 5341SOL    HW116469   3.639   1.347   2.031
 5341SOL    HW216470   3.742   1.227   2.075
 5342SOL     OW16471   3.812   1.801   2.789
 5342SOL    HW116472   3.770   1.715   2.762
 5342SOL    HW216473   3.906   1.804   2.755
 5343SOL     OW16474   4.228   1.568   2.772
 5343SOL    HW116475   4.294   1.642   2.781
 5343SOL    HW216476   4.272   1.489   2.730
 5344SOL     OW16477   4.726   0.796   3.100
 5344SOL    HW116478   4.767   0.764   3.186
 5344SOL    HW216479   4.630   0.769   3.097
 5345SOL     OW16480   3.764   0.544   2.976
 5345SOL    HW116481   3.849   0.511   2.935
 5345SOL    HW216482   3.777   0.559   3.074
 5346SOL     OW16483   3.913   0.520   3.584
 5346SOL    HW116484   3.972   0.480   3.514
 5346SOL    HW216485   3.855   0.591   3.543
 5347SOL     OW16486   5.093   0.950   3.522
 5347SOL    HW116487   5.132   1.039   3.542
 5347SOL    HW216488   5.103   0.930   3.425
 5348SOL     OW16489   4.539   0.572   2.187
 5348SOL    HW116490   4.546   0.483   2.141
 5348SOL    HW216491   4.445   0.606   2.179
 5349SOL     OW16492   3.976   1.564   3.606
 5349SOL    HW116493   3.946   1.621   3.682
 5349SOL    HW216494   3.969   1.467   3.632
 5350SOL     OW16495   4.395   0.464   3.131
 5350SOL    HW116496   4.361   0.375   3.101
 5350SOL    HW216497   4.421   0.518   3.051
 5351SOL     OW16498   4.654   1.678   3.327
 5351SOL    HW116499   4.630   1.660   3.232
 5351SOL    HW216500   4.684   1.772   3.337
 5352SOL     OW16501   4.197   0.500   2.053
 5352SOL    HW116502   4.258   0.580   2.057
 5352SOL    HW216503   4.102   0.531   2.060
 5353SOL     OW16504   3.883   1.137   3.328
 5353SOL    HW116505   3.905   1.076   3.404
 5353SOL    HW216506   3.893   1.088   3.242
 5354SOL     OW16507   5.071   1.059   3.096
 5354SOL    HW116508   5.095   0.996   3.022
 5354SOL    HW216509   4.981   1.099   3.078
 5355SOL     OW16510   5.026   0.855   2.171
 5355SOL    HW116511   4.940   0.824   2.213
 5355SOL    HW216512   5.022   0.841   2.072
 5356SOL     OW16513   4.976   1.731   2.990
 5356SOL    HW116514   5.060   1.736   2.936
 5356SOL    HW216515   4.953   1.635   3.008
 5357SOL     OW16516   3.807   1.258   2.884
 5357SOL    HW116517   3.802   1.257   2.984
 5357SOL    HW216518   3.724   1.217   2.846
 5358SOL     OW16519   4.412   1.662   3.578
 5358SOL    HW116520   4.356   1.743   3.587
 5358SOL    HW216521   4.464   1.666   3.492
 5359SOL     OW16522   5.112   1.573   2.339
 5359SOL    HW116523   5.179   1.585   2.265
 5359SOL    HW216524   5.072   1.662   2.362
 5360SOL     OW16525   3.854   1.794   3.713
 5360SOL    HW116526   3.813   1.720   3.766
 5360SOL    HW216527   3.918   1.845   3.771
 5361SOL     OW16528   5.004   0.927   2.534
 5361SOL    HW116529   5.064   0.846   2.536
 5361SOL    HW216530   5.044   0.996   2.474
 5362SOL     OW16531   4.554   1.273   3.284
 5362SOL    HW116532   4.549   1.306   3.379
 5362SOL    HW216533   4.468   1.292   3.238
 5363SOL     OW16534   4.396   1.616   2.016
 5363SOL    HW116535   4.405   1.626   1.917
 5363SOL    HW216536   4.356   1.527   2.037
 5364SOL     OW16537   3.987   0.326   2.582
 5364SOL    HW116538   3.908   0.377   2.548
 5364SOL    HW216539   3.978   0.311   2.680
 5365SOL     OW16540   4.918   1.612   1.893
 5365SOL    HW116541   4.924   1.519   1.930
 5365SOL    HW216542   4.859   1.612   1.813
 5366SOL     OW16543   4.546   1.002   3.234
 5366SOL    HW116544   4.586   1.001   3.142
 5366SOL    HW216545   4.556   1.094   3.274
 5367SOL     OW16546   4.640   0.910   2.153
 5367SOL    HW116547   4.703   0.948   2.085
 5367SOL    HW216548   4.680   0.827   2.192
 5368SOL     OW16549   4.096   1.288   3.352
 5368SOL    HW116550   4.083   1.381   3.318
 5368SOL    HW216551   4.012   1.236   3.339
 5369SOL     OW16552   4.763   1.098   2.558
 5369SOL    HW116553   4.693   1.051   2.612
 5369SOL    HW216554   4.822   1.030   2.515
 5370SOL     OW16555   4.738   0.236   2.833
 5370SOL    HW116556   4.730   0.200   2.740
 5370SOL    HW216557   4.736   0.160   2.898
 5371SOL     OW16558   4.314   1.487   2.353
 5371SOL    HW116559   4.356   1.429   2.283
 5371SOL    HW216560   4.270   1.566   2.309
 5372SOL     OW16561   3.979   1.348   2.152
 5372SOL    HW116562   3.883   1.349   2.125
 5372SOL    HW216563   3.991   1.401   2.236
 5373SOL     OW16564   3.829   1.013   3.588
 5373SOL    HW116565   3.752   0.980   3.642
 5373SOL    HW216566   3.914   0.983   3.630
 5374SOL     OW16567   4.396   0.203   3.351
 5374SOL    HW116568   4.486   0.187   3.311
 5374SOL    HW216569   4.404   0.208   3.450
 5375SOL     OW16570   3.799   0.345   1.895
 5375SOL    HW116571   3.707   0.317   1.866
 5375SOL    HW216572   3.830   0.422   1.839
 5376SOL     OW16573   5.164   0.856   3.260
 5376SOL    HW116574   5.107   0.908   3.197
 5376SOL    HW216575   5.260   0.868   3.236
 5377SOL     OW16576   3.796   0.166   2.180
 5377SOL    HW116577   3.779   0.249   2.126
 5377SOL    HW216578   3.886   0.129   2.158
 5378SOL     OW16579   4.907   1.335   1.981
 5378SOL    HW116580   4.808   1.324   1.983
 5378SOL    HW216581   4.941   1.350   2.074
 5379SOL     OW16582   4.337   0.842   3.293
 5379SOL    HW116583   4.393   0.923   3.276
 5379SOL    HW216584   4.396   0.762   3.296
 5380SOL     OW16585   4.440   0.565   3.570
 5380SOL    HW116586   4.459   0.630   3.644
 5380SOL    HW216587   4.500   0.485   3.579
 5381SOL     OW16588   5.174   1.220   3.495
 5381SOL    HW116589   5.165   1.210   3.594
 5381SOL    HW216590   5.270   1.213   3.469
 5382SOL     OW16591   4.114   1.741   3.422
 5382SOL    HW116592   4.023   1.782   3.420
 5382SOL    HW216593   4.107   1.647   3.454
 5383SOL     OW16594   4.949   0.325   2.311
 5383SOL    HW116595   5.014   0.251   2.300
 5383SOL    HW216596   4.969   0.375   2.395
 5384SOL     OW16597   4.318   0.745   2.514
 5384SOL    HW116598   4.368   0.830   2.495
 5384SOL    HW216599   4.230   0.747   2.466
 5385SOL     OW16600   4.583   1.374   1.878
 5385SOL    HW116601   4.537   1.389   1.966
 5385SOL    HW216602   4.627   1.459   1.848
 5386SOL     OW16603   4.385   1.790   2.815
 5386SOL    HW116604   4.339   1.878   2.802
 5386SOL    HW216605   4.484   1.802   2.808
 5387SOL     OW16606   4.583   0.956   2.723
 5387SOL    HW116607   4.637   0.887   2.771
 5387SOL    HW216608   4.551   1.025   2.789
 5388SOL     OW16609   4.807   0.984   1.949
 5388SOL    HW116610   4.784   1.037   1.867
 5388SOL    HW216611   4.888   0.928   1.930
 5389SOL     OW16612   3.945   1.314   3.706
 5389SOL    HW116613   3.880   1.241   3.685
 5389SOL    HW216614   3.949   1.328   3.804
 5390SOL     OW16615   3.803   1.240   2.515
 5390SOL    HW116616   3.802   1.193   2.603
 5390SOL    HW216617   3.885   1.212   2.464
 5391SOL     OW16618   4.396   1.391   3.486
 5391SOL    HW116619   4.318   1.341   3.524
 5391SOL    HW216620   4.393   1.486   3.517
 5392SOL     OW16621   4.152   0.424   2.382
 5392SOL    HW116622   4.182   0.352   2.320
 5392SOL    HW216623   4.113   0.384   2.465
 5393SOL     OW16624   5.429   1.487   2.966
 5393SOL    HW116625   5.336   1.462   2.939
 5393SOL    HW216626   5.455   1.437   3.048
 5394SOL     OW16627   4.041   0.547   3.142
 5394SOL    HW116628   4.079   0.488   3.214
 5394SOL    HW216629   4.081   0.521   3.054
 5395SOL     OW16630   4.536   1.586   2.549
 5395SOL    HW116631   4.568   1.596   2.455
 5395SOL    HW216632   4.457   1.524   2.551
 5396SOL     OW16633   5.148   0.214   2.974
 5396SOL    HW116634   5.200   0.149   3.029
 5396SOL    HW216635   5.099   0.277   3.035
 5397SOL     OW16636   4.725   0.034   3.016
 5397SOL    HW116637   4.662  -0.038   2.985
 5397SOL    HW216638   4.818  -0.002   3.016
 5398SOL     OW16639   4.494   1.330   2.163
 5398SOL    HW116640   4.448   1.243   2.180
 5398SOL    HW216641   4.585   1.327   2.204
 5399SOL     OW16642   4.342   1.567   3.146
 5399SOL    HW116643   4.337   1.649   3.203
 5399SOL    HW216644   4.431   1.564   3.101
 5400SOL     OW16645   5.076   0.052   2.030
 5400SOL    HW116646   5.111   0.011   1.946
 5400SOL    HW216647   4.986   0.014   2.050
 5401SOL     OW16648   5.024   0.453   2.553
 5401SOL    HW116649   4.965   0.533   2.557
 5401SOL    HW216650   5.039   0.418   2.646
 5402SOL     OW16651   5.317   0.221   2.744
 5402SOL    HW116652   5.233   0.220   2.798
 5402SOL    HW216653   5.319   0.304   2.688
 5403SOL     OW16654   3.763   1.077   2.162
 5403SOL    HW116655   3.862   1.066   2.153
 5403SOL    HW216656   3.723   0.991   2.194
 5404SOL     OW16657   4.599   1.646   2.199
 5404SOL    HW116658   4.522   1.611   2.145
 5404SOL    HW216659   4.567   1.717   2.261
 5405SOL     OW16660   3.954   0.628   3.837
 5405SOL    HW116661   3.861   0.626   3.874
 5405SOL    HW216662   3.955   0.589   3.745
 5406SOL     OW16663   3.949   0.275   4.720
 5406SOL    HW116664   3.984   0.258   4.812
 5406SOL    HW216665   3.861   0.230   4.708
 5407SOL     OW16666   3.743   0.368   4.371
 5407SOL    HW116667   3.661   0.411   4.410
 5407SOL    HW216668   3.715   0.295   4.308
 5408SOL     OW16669   4.293   1.275   4.889
 5408SOL    HW116670   4.200   1.268   4.852
 5408SOL    HW216671   4.304   1.364   4.933
 5409SOL     OW16672   5.279   1.511   4.427
 5409SOL    HW116673   5.222   1.495   4.508
 5409SOL    HW216674   5.220   1.521   4.347
 5410SOL     OW16675   4.859   0.703   4.441
 5410SOL    HW116676   4.916   0.781   4.416
 5410SOL    HW216677   4.799   0.729   4.517
 5411SOL     OW16678   4.492   1.144   4.747
 5411SOL    HW116679   4.414   1.161   4.807
 5411SOL    HW216680   4.526   1.231   4.711
 5412SOL     OW16681   4.574   0.798   5.547
 5412SOL    HW116682   4.570   0.874   5.612
 5412SOL    HW216683   4.596   0.834   5.456
 5413SOL     OW16684   4.409   1.012   4.389
 5413SOL    HW116685   4.478   0.996   4.459
 5413SOL    HW216686   4.336   1.069   4.427
 5414SOL     OW16687   4.410   1.161   5.527
 5414SOL    HW116688   4.470   1.240   5.541
 5414SOL    HW216689   4.324   1.192   5.486
 5415SOL     OW16690   4.059   1.435   4.785
 5415SOL    HW116691   3.981   1.404   4.732
 5415SOL    HW216692   4.117   1.493   4.728
 5416SOL     OW16693   5.184   1.505   5.063
 5416SOL    HW116694   5.208   1.599   5.089
 5416SOL    HW216695   5.168   1.451   5.145
 5417SOL     OW16696   4.162   0.392   5.223
 5417SOL    HW116697   4.244   0.336   5.232
 5417SOL    HW216698   4.081   0.334   5.227
 5418SOL     OW16699   3.955   1.713   4.207
 5418SOL    HW116700   3.989   1.790   4.261
 5418SOL    HW216701   3.999   1.713   4.117
 5419SOL     OW16702   4.851   1.341   5.414
 5419SOL    HW116703   4.898   1.341   5.502
 5419SOL    HW216704   4.803   1.254   5.403
 5420SOL     OW16705   3.954   1.434   4.262
 5420SOL    HW116706   3.928   1.530   4.262
 5420SOL    HW216707   3.883   1.380   4.307
 5421SOL     OW16708   3.964   1.091   4.610
 5421SOL    HW116709   3.978   1.007   4.662
 5421SOL    HW216710   3.909   1.155   4.665
 5422SOL     OW16711   4.344   1.786   5.163
 5422SOL    HW116712   4.252   1.769   5.198
 5422SOL    HW216713   4.372   1.878   5.189
 5423SOL     OW16714   4.330   0.964   3.847
 5423SOL    HW116715   4.337   1.048   3.793
 5423SOL    HW216716   4.376   0.977   3.935
 5424SOL     OW16717   5.318   0.114   5.204
 5424SOL    HW116718   5.300   0.181   5.132
 5424SOL    HW216719   5.315   0.160   5.293
 5425SOL     OW16720   3.846   0.643   4.287
 5425SOL    HW116721   3.801   0.555   4.304
 5425SOL    HW216722   3.845   0.697   4.371
 5426SOL     OW16723   3.751   1.596   3.841
 5426SOL    HW116724   3.732   1.500   3.862
 5426SOL    HW216725   3.718   1.654   3.916
 5427SOL     OW16726   5.413   0.922   4.336
 5427SOL    HW116727   5.508   0.893   4.344
 5427SOL    HW216728   5.405   0.987   4.261
 5428SOL     OW16729   3.837   0.737   5.321
 5428SOL    HW116730   3.925   0.724   5.366
 5428SOL    HW216731   3.824   0.834   5.299
 5429SOL     OW16732   4.337   1.365   4.450
 5429SOL    HW116733   4.288   1.278   4.459
 5429SOL    HW216734   4.314   1.408   4.363
 5430SOL     OW16735   5.017   1.228   5.147
 5430SOL    HW116736   5.054   1.155   5.089
 5430SOL    HW216737   5.069   1.233   5.232
 5431SOL     OW16738   4.533   0.004   4.226
 5431SOL    HW116739   4.573   0.095   4.217
 5431SOL    HW216740   4.433   0.012   4.232
 5432SOL     OW16741   3.921   0.976   4.988
 5432SOL    HW116742   4.010   0.931   4.974
 5432SOL    HW216743   3.848   0.911   4.969
 5433SOL     OW16744   4.911   1.792   5.340
 5433SOL    HW116745   4.935   1.852   5.264
 5433SOL    HW216746   4.918   1.697   5.310
 5434SOL     OW16747   4.041   0.251   5.525
 5434SOL    HW116748   4.112   0.322   5.531
 5434SOL    HW216749   3.953   0.290   5.553
 5435SOL     OW16750   5.190   1.417   4.677
 5435SOL    HW116751   5.131   1.423   4.757
 5435SOL    HW216752   5.175   1.329   4.631
 5436SOL     OW16753   4.322   0.729   3.994
 5436SOL    HW116754   4.346   0.798   3.926
 5436SOL    HW216755   4.244   0.762   4.048
 5437SOL     OW16756   5.005   0.345   4.668
 5437SOL    HW116757   4.919   0.295   4.655
 5437SOL    HW216758   5.067   0.291   4.724
 5438SOL     OW16759   4.531   0.605   5.189
 5438SOL    HW116760   4.484   0.602   5.278
 5438SOL    HW216761   4.480   0.550   5.123
 5439SOL     OW16762   5.118   0.469   5.398
 5439SOL    HW116763   5.098   0.512   5.486
 5439SOL    HW216764   5.196   0.407   5.407
 5440SOL     OW16765   4.697   0.890   5.296
 5440SOL    HW116766   4.743   0.806   5.267
 5440SOL    HW216767   4.641   0.924   5.221
 5441SOL     OW16768   4.715   0.410   4.966
 5441SOL    HW116769   4.638   0.444   5.020
 5441SOL    HW216770   4.681   0.359   4.887
 5442SOL     OW16771   4.765   0.701   4.153
 5442SOL    HW116772   4.791   0.697   4.249
 5442SOL    HW216773   4.680   0.650   4.139
 5443SOL     OW16774   3.800   0.811   4.513
 5443SOL    HW116775   3.899   0.799   4.522
 5443SOL    HW216776   3.776   0.906   4.534
 5444SOL     OW16777   3.854   1.821   5.295
 5444SOL    HW116778   3.844   1.806   5.394
 5444SOL    HW216779   3.768   1.857   5.259
 5445SOL     OW16780   4.589   0.348   3.919
 5445SOL    HW116781   4.648   0.411   3.870
 5445SOL    HW216782   4.608   0.254   3.890
 5446SOL     OW16783   5.086   1.144   4.269
 5446SOL    HW116784   5.169   1.115   4.221
 5446SOL    HW216785   5.037   1.211   4.213
 5447SOL     OW16786   4.274   0.196   4.609
 5447SOL    HW116787   4.269   0.191   4.709
 5447SOL    HW216788   4.276   0.292   4.580
 5448SOL     OW16789   4.732   1.456   4.201
 5448SOL    HW116790   4.686   1.528   4.149
 5448SOL    HW216791   4.728   1.476   4.299
 5449SOL     OW16792   4.075   1.801   4.577
 5449SOL    HW116793   4.125   1.715   4.583
 5449SOL    HW216794   4.140   1.878   4.574
 5450SOL     OW16795   4.951   1.550   5.230
 5450SOL    HW116796   4.957   1.473   5.294
 5450SOL    HW216797   4.899   1.524   5.150
 5451SOL     OW16798   4.045   0.943   3.966
 5451SOL    HW116799   4.127   0.982   3.924
 5451SOL    HW216800   4.018   0.861   3.917
 5452SOL     OW16801   4.185   1.266   5.451
 5452SOL    HW116802   4.135   1.267   5.365
 5452SOL    HW216803   4.122   1.248   5.527
 5453SOL     OW16804   4.835   1.776   3.961
 5453SOL    HW116805   4.775   1.714   4.011
 5453SOL    HW216806   4.866   1.732   3.876
 5454SOL     OW16807   3.926   0.285   5.222
 5454SOL    HW116808   3.846   0.345   5.209
 5454SOL    HW216809   3.916   0.236   5.308
 5455SOL     OW16810   4.188   1.743   4.047
 5455SOL    HW116811   4.221   1.782   4.133
 5455SOL    HW216812   4.264   1.736   3.982
 5456SOL     OW16813   5.124   0.107   4.150
 5456SOL    HW116814   5.100   0.070   4.060
 5456SOL    HW216815   5.223   0.123   4.154
 5457SOL     OW16816   3.973   1.785   4.965
 5457SOL    HW116817   4.030   1.720   5.015
 5457SOL    HW216818   3.957   1.752   4.872
 5458SOL     OW16819   4.664   1.698   4.628
 5458SOL    HW116820   4.744   1.641   4.649
 5458SOL    HW216821   4.615   1.658   4.551
 5459SOL     OW16822   4.106   0.700   4.204
 5459SOL    HW116823   4.151   0.610   4.201
 5459SOL    HW216824   4.012   0.689   4.237
 5460SOL     OW16825   4.338   0.122   3.841
 5460SOL    HW116826   4.436   0.100   3.848
 5460SOL    HW216827   4.307   0.105   3.748
 5461SOL     OW16828   4.505   0.264   5.473
 5461SOL    HW116829   4.572   0.203   5.516
 5461SOL    HW216830   4.432   0.283   5.538
 5462SOL     OW16831   4.612   1.514   4.919
 5462SOL    HW116832   4.589   1.489   4.825
 5462SOL    HW216833   4.673   1.445   4.958
 5463SOL     OW16834   5.075   0.590   5.157
 5463SOL    HW116835   5.103   0.547   5.242
 5463SOL    HW216836   5.100   0.686   5.158
 5464SOL     OW16837   4.527   1.402   4.648
 5464SOL    HW116838   4.617   1.416   4.606
 5464SOL    HW216839   4.456   1.404   4.577
 5465SOL     OW16840   4.646   0.503   4.623
 5465SOL    HW116841   4.621   0.494   4.527
 5465SOL    HW216842   4.694   0.421   4.654
 5466SOL     OW16843   4.263   0.064   4.236
 5466SOL    HW116844   4.182   0.065   4.294
 5466SOL    HW216845   4.266   0.147   4.181
 5467SOL     OW16846   5.158   1.188   3.765
 5467SOL    HW116847   5.190   1.112   3.822
 5467SOL    HW216848   5.066   1.215   3.795
 5468SOL     OW16849   4.021   0.035   3.895
 5468SOL    HW116850   4.070   0.119   3.874
 5468SOL    HW216851   4.083  -0.030   3.940
 5469SOL     OW16852   4.659   0.236   4.204
 5469SOL    HW116853   4.611   0.277   4.126
 5469SOL    HW216854   4.758   0.234   4.185
 5470SOL     OW16855   4.800   0.683   5.188
 5470SOL    HW116856   4.720   0.622   5.191
 5470SOL    HW216857   4.881   0.630   5.164
 5471SOL     OW16858   4.951   1.570   4.517
 5471SOL    HW116859   4.972   1.644   4.452
 5471SOL    HW216860   5.019   1.570   4.590
 5472SOL     OW16861   4.183   1.152   4.465
 5472SOL    HW116862   4.112   1.125   4.530
 5472SOL    HW216863   4.157   1.124   4.372
 5473SOL     OW16864   4.995   1.797   4.315
 5473SOL    HW116865   5.039   1.861   4.251
 5473SOL    HW216866   4.945   1.849   4.385
 5474SOL     OW16867   4.756   0.549   3.740
 5474SOL    HW116868   4.715   0.631   3.701
 5474SOL    HW216869   4.820   0.575   3.813
 5475SOL     OW16870   3.802   0.556   5.110
 5475SOL    HW116871   3.894   0.555   5.069
 5475SOL    HW216872   3.796   0.630   5.177
 5476SOL     OW16873   4.285   0.222   4.871
 5476SOL    HW116874   4.323   0.138   4.908
 5476SOL    HW216875   4.197   0.241   4.915
 5477SOL     OW16876   4.590   0.454   4.366
 5477SOL    HW116877   4.558   0.526   4.304
 5477SOL    HW216878   4.614   0.373   4.313
 5478SOL     OW16879   4.741   0.039   4.477
 5478SOL    HW116880   4.669   0.044   4.408
 5478SOL    HW216881   4.717  -0.030   4.546
 5479SOL     OW16882   5.153   1.173   4.591
 5479SOL    HW116883   5.098   1.089   4.584
 5479SOL    HW216884   5.179   1.202   4.499
 5480SOL     OW16885   4.212   1.385   3.898
 5480SOL    HW116886   4.125   1.370   3.945
 5480SOL    HW216887   4.195   1.411   3.803
 5481SOL     OW16888   5.114   0.575   3.802
 5481SOL    HW116889   5.060   0.554   3.883
 5481SOL    HW216890   5.205   0.534   3.811
 5482SOL     OW16891   4.251   0.256   4.052
 5482SOL    HW116892   4.278   0.197   3.977
 5482SOL    HW216893   4.251   0.351   4.021
 5483SOL     OW16894   4.788   1.347   5.064
 5483SOL    HW116895   4.708   1.324   5.119
 5483SOL    HW216896   4.871   1.321   5.113
 5484SOL     OW16897   5.316   1.629   5.349
 5484SOL    HW116898   5.343   1.663   5.259
 5484SOL    HW216899   5.395   1.591   5.395
 5485SOL     OW16900   4.835   1.195   4.824
 5485SOL    HW116901   4.795   1.239   4.905
 5485SOL    HW216902   4.794   1.232   4.741
 5486SOL     OW16903   4.639   0.089   5.126
 5486SOL    HW116904   4.664   0.069   5.031
 5486SOL    HW216905   4.711   0.145   5.168
 5487SOL     OW16906   4.704   1.116   5.443
 5487SOL    HW116907   4.605   1.122   5.453
 5487SOL    HW216908   4.727   1.036   5.387
 5488SOL     OW16909   4.429   1.050   4.092
 5488SOL    HW116910   4.415   1.057   4.191
 5488SOL    HW216911   4.513   0.999   4.074
 5489SOL     OW16912   4.134   0.813   4.975
 5489SOL    HW116913   4.220   0.825   5.025
 5489SOL    HW216914   4.092   0.726   5.002
 5490SOL     OW16915   4.998   0.386   4.986
 5490SOL    HW116916   5.019   0.460   5.050
 5490SOL    HW216917   4.909   0.403   4.943
 5491SOL     OW16918   3.788   1.564   5.055
 5491SOL    HW116919   3.742   1.646   5.021
 5491SOL    HW216920   3.886   1.583   5.064
 5492SOL     OW16921   4.091   1.100   4.225
 5492SOL    HW116922   4.084   1.183   4.169
 5492SOL    HW216923   4.095   1.020   4.165
 5493SOL     OW16924   4.290   0.537   4.589
 5493SOL    HW116925   4.302   0.603   4.515
 5493SOL    HW216926   4.336   0.571   4.672
 5494SOL     OW16927   4.976   1.348   4.112
 5494SOL    HW116928   5.026   1.425   4.152
 5494SOL    HW216929   4.881   1.350   4.144
 5495SOL     OW16930   4.996   1.445   4.866
 5495SOL    HW116931   5.043   1.458   4.953
 5495SOL    HW216932   4.930   1.371   4.875
 5496SOL     OW16933   4.078   1.510   5.053
 5496SOL    HW116934   4.057   1.466   4.966
 5496SOL    HW216935   4.175   1.536   5.056
 5497SOL     OW16936   4.126   0.751   5.322
 5497SOL    HW116937   4.194   0.806   5.275
 5497SOL    HW216938   4.166   0.663   5.349
 5498SOL     OW16939   4.737   0.105   5.494
 5498SOL    HW116940   4.743   0.190   5.442
 5498SOL    HW216941   4.769   0.029   5.437
 5499SOL     OW16942   4.228   0.050   5.464
 5499SOL    HW116943   4.186  -0.007   5.394
 5499SOL    HW216944   4.162   0.119   5.496
 5500SOL     OW16945   4.297   0.870   4.753
 5500SOL    HW116946   4.341   0.959   4.744
 5500SOL    HW216947   4.234   0.870   4.830
 5501SOL     OW16948   5.084   0.862   4.769
 5501SOL    HW116949   5.009   0.862   4.703
 5501SOL    HW216950   5.121   0.770   4.778
 5502SOL     OW16951   4.933   0.525   3.999
 5502SOL    HW116952   4.946   0.441   4.053
 5502SOL    HW216953   4.904   0.599   4.059
 5503SOL     OW16954   4.031   0.213   4.955
 5503SOL    HW116955   4.008   0.250   5.045
 5503SOL    HW216956   4.001   0.118   4.949
 5504SOL     OW16957   3.761   1.310   5.006
 5504SOL    HW116958   3.814   1.261   5.074
 5504SOL    HW216959   3.783   1.408   5.011
 5505SOL     OW16960   4.456   0.634   4.788
 5505SOL    HW116961   4.515   0.608   4.712
 5505SOL    HW216962   4.428   0.730   4.777
 5506SOL     OW16963   4.031   0.063   4.342
 5506SOL    HW116964   4.020   0.157   4.375
 5506SOL    HW216965   4.026   0.000   4.419
 5507SOL     OW16966   5.346   0.367   4.098
 5507SOL    HW116967   5.348   0.291   4.162
 5507SOL    HW216968   5.298   0.444   4.138
 5508SOL     OW16969   4.747   0.766   4.690
 5508SOL    HW116970   4.762   0.787   4.786
 5508SOL    HW216971   4.717   0.671   4.681
 5509SOL     OW16972   4.704   1.573   5.424
 5509SOL    HW116973   4.684   1.617   5.336
 5509SOL    HW216974   4.743   1.482   5.408
 5510SOL     OW16975   4.074   0.898   5.528
 5510SOL    HW116976   4.150   0.942   5.576
 5510SOL    HW216977   4.109   0.851   5.446
 5511SOL     OW16978   5.027   0.838   3.766
 5511SOL    HW116979   5.061   0.745   3.781
 5511SOL    HW216980   5.045   0.865   3.671
 5512SOL     OW16981   4.792   1.333   4.573
 5512SOL    HW116982   4.799   1.249   4.518
 5512SOL    HW216983   4.854   1.402   4.537
 5513SOL     OW16984   4.043   0.810   4.673
 5513SOL    HW116985   4.136   0.846   4.678
 5513SOL    HW216986   4.037   0.725   4.725
 5514SOL     OW16987   4.063   0.509   4.730
 5514SOL    HW116988   4.011   0.426   4.713
 5514SOL    HW216989   4.140   0.514   4.666
 5515SOL     OW16990   4.862   0.380   5.402
 5515SOL    HW116991   4.817   0.443   5.466
 5515SOL    HW216992   4.955   0.411   5.385
 5516SOL     OW16993   4.884   0.207   5.201
 5516SOL    HW116994   4.884   0.271   5.278
 5516SOL    HW216995   4.912   0.255   5.118
 5517SOL     OW16996   3.732   1.326   3.924
 5517SOL    HW116997   3.639   1.347   3.893
 5517SOL    HW216998   3.742   1.227   3.937
 5518SOL     OW16999   3.812   1.801   4.651
 5518SOL    HW117000   3.770   1.715   4.624
 5518SOL    HW217001   3.906   1.804   4.617
 5519SOL     OW17002   4.228   1.568   4.634
 5519SOL    HW117003   4.294   1.642   4.643
 5519SOL    HW217004   4.272   1.489   4.592
 5520SOL     OW17005   4.726   0.796   4.962
 5520SOL    HW117006   4.767   0.764   5.048
 5520SOL    HW217007   4.630   0.769   4.959
 5521SOL     OW17008   3.764   0.544   4.838
 5521SOL    HW117009   3.849   0.511   4.797
 5521SOL    HW217010   3.777   0.559   4.936
 5522SOL     OW17011   3.913   0.520   5.446
 5522SOL    HW117012   3.972   0.480   5.376
 5522SOL    HW217013   3.855   0.591   5.405
 5523SOL     OW17014   5.093   0.950   5.384
 5523SOL    HW117015   5.132   1.039   5.404
 5523SOL    HW217016   5.103   0.930   5.287
 5524SOL     OW17017   4.539   0.572   4.049
 5524SOL    HW117018   4.546   0.483   4.003
 5524SOL    HW217019   4.445   0.606   4.041
 5525SOL     OW17020   3.976   1.564   5.468
 5525SOL    HW117021   3.946   1.621   5.544
 5525SOL    HW217022   3.969   1.467   5.494
 5526SOL     OW17023   4.395   0.464   4.993
 5526SOL    HW117024   4.361   0.375   4.963
 5526SOL    HW217025   4.421   0.518   4.913
 5527SOL     OW17026   4.654   1.678   5.189
 5527SOL    HW117027   4.630   1.660   5.094
 5527SOL    HW217028   4.684   1.772   5.199
 5528SOL     OW17029   4.197   0.500   3.915
 5528SOL    HW117030   4.258   0.580   3.919
 5528SOL    HW217031   4.102   0.531   3.922
 5529SOL     OW17032   3.883   1.137   5.190
 5529SOL    HW117033   3.905   1.076   5.266
 5529SOL    HW217034   3.893   1.088   5.104
 5530SOL     OW17035   5.071   1.059   4.958
 5530SOL    HW117036   5.095   0.996   4.884
 5530SOL    HW217037   4.981   1.099   4.940
 5531SOL     OW17038   5.026   0.855   4.033
 5531SOL    HW117039   4.940   0.824   4.075
 5531SOL    HW217040   5.022   0.841   3.934
 5532SOL     OW17041   4.976   1.731   4.852
 5532SOL    HW117042   5.060   1.736   4.798
 5532SOL    HW217043   4.953   1.635   4.870
 5533SOL     OW17044   3.807   1.258   4.746
 5533SOL    HW117045   3.802   1.257   4.846
 5533SOL    HW217046   3.724   1.217   4.708
 5534SOL     OW17047   4.412   1.662   5.440
 5534SOL    HW117048   4.356   1.743   5.449
 5534SOL    HW217049   4.464   1.666   5.354
 5535SOL     OW17050   5.112   1.573   4.201
 5535SOL    HW117051   5.179   1.585   4.127
 5535SOL    HW217052   5.072   1.662   4.224
 5536SOL     OW17053   3.854   1.794   5.575
 5536SOL    HW117054   3.813   1.720   5.628
 5536SOL    HW217055   3.918   1.845   5.633
 5537SOL     OW17056   5.004   0.927   4.396
 5537SOL    HW117057   5.064   0.846   4.398
 5537SOL    HW217058   5.044   0.996   4.336
 5538SOL     OW17059   4.554   1.273   5.146
 5538SOL    HW117060   4.549   1.306   5.241
 5538SOL    HW217061   4.468   1.292   5.100
 5539SOL     OW17062   4.396   1.616   3.878
 5539SOL    HW117063   4.405   1.626   3.779
 5539SOL    HW217064   4.356   1.527   3.899
 5540SOL     OW17065   3.987   0.326   4.444
 5540SOL    HW117066   3.908   0.377   4.410
 5540SOL    HW217067   3.978   0.311   4.542
 5541SOL     OW17068   4.918   1.612   3.755
 5541SOL    HW117069   4.924   1.519   3.792
 5541SOL    HW217070   4.859   1.612   3.675
 5542SOL     OW17071   4.546   1.002   5.096
 5542SOL    HW117072   4.586   1.001   5.004
 5542SOL    HW217073   4.556   1.094   5.136
 5543SOL     OW17074   4.640   0.910   4.015
 5543SOL    HW117075   4.703   0.948   3.947
 5543SOL    HW217076   4.680   0.827   4.054
 5544SOL     OW17077   4.096   1.288   5.214
 5544SOL    HW117078   4.083   1.381   5.180
 5544SOL    HW217079   4.012   1.236   5.201
 5545SOL     OW17080   4.763   1.098   4.420
 5545SOL    HW117081   4.693   1.051   4.474
 5545SOL    HW217082   4.822   1.030   4.377
 5546SOL     OW17083   4.738   0.236   4.695
 5546SOL    HW117084   4.730   0.200   4.602
 5546SOL    HW217085   4.736   0.160   4.760
 5547SOL     OW17086   4.314   1.487   4.215
 5547SOL    HW117087   4.356   1.429   4.145
 5547SOL    HW217088   4.270   1.566   4.171
 5548SOL     OW17089   3.979   1.348   4.014
 5548SOL    HW117090   3.883   1.349   3.987
 5548SOL    HW217091   3.991   1.401   4.098
 5549SOL     OW17092   3.829   1.013   5.450
 5549SOL    HW117093   3.752   0.980   5.504
 5549SOL    HW217094   3.914   0.983   5.492
 5550SOL     OW17095   4.396   0.203   5.213
 5550SOL    HW117096   4.486   0.187   5.173
 5550SOL    HW217097   4.404   0.208   5.312
 5551SOL     OW17098   3.799   0.345   3.757
 5551SOL    HW117099   3.707   0.317   3.728
 5551SOL    HW217100   3.830   0.422   3.701
 5552SOL     OW17101   5.164   0.856   5.122
 5552SOL    HW117102   5.107   0.908   5.059
 5552SOL    HW217103   5.260   0.868   5.098
 5553SOL     OW17104   3.796   0.166   4.042
 5553SOL    HW117105   3.779   0.249   3.988
 5553SOL    HW217106   3.886   0.129   4.020
 5554SOL     OW17107   4.907   1.335   3.843
 5554SOL    HW117108   4.808   1.324   3.845
 5554SOL    HW217109   4.941   1.350   3.936
 5555SOL     OW17110   4.337   0.842   5.155
 5555SOL    HW117111   4.393   0.923   5.138
 5555SOL    HW217112   4.396   0.762   5.158
 5556SOL     OW17113   4.440   0.565   5.432
 5556SOL    HW117114   4.459   0.630   5.506
 5556SOL    HW217115   4.500   0.485   5.441
 5557SOL     OW17116   5.174   1.220   5.357
 5557SOL    HW117117   5.165   1.210   5.456
 5557SOL    HW217118   5.270   1.213   5.331
 5558SOL     OW17119   4.114   1.741   5.284
 5558SOL    HW117120   4.023   1.782   5.282
 5558SOL    HW217121   4.107   1.647   5.316
 5559SOL     OW17122   4.949   0.325   4.173
 5559SOL    HW117123   5.014   0.251   4.162
 5559SOL    HW217124   4.969   0.375   4.257
 5560SOL     OW17125   4.318   0.745   4.376
 5560SOL    HW117126   4.368   0.830   4.357
 5560SOL    HW217127   4.230   0.747   4.328
 5561SOL     OW17128   4.583   1.374   3.740
 5561SOL    HW117129   4.537   1.389   3.828
 5561SOL    HW217130   4.627   1.459   3.710
 5562SOL     OW17131   4.385   1.790   4.677
 5562SOL    HW117132   4.339   1.878   4.664
 5562SOL    HW217133   4.484   1.802   4.670
 5563SOL     OW17134   4.583   0.956   4.585
 5563SOL    HW117135   4.637   0.887   4.633
 5563SOL    HW217136   4.551   1.025   4.651
 5564SOL     OW17137   4.807   0.984   3.811
 5564SOL    HW117138   4.784   1.037   3.729
 5564SOL    HW217139   4.888   0.928   3.792
 5565SOL     OW17140   3.945   1.314   5.568
 5565SOL    HW117141   3.880   1.241   5.547
 5565SOL    HW217142   3.949   1.328   5.666
 5566SOL     OW17143   3.803   1.240   4.377
 5566SOL    HW117144   3.802   1.193   4.465
 5566SOL    HW217145   3.885   1.212   4.326
 5567SOL     OW17146   4.396   1.391   5.348
 5567SOL    HW117147   4.318   1.341   5.386
 5567SOL    HW217148   4.393   1.486   5.379
 5568SOL     OW17149   4.152   0.424   4.244
 5568SOL    HW117150   4.182   0.352   4.182
 5568SOL    HW217151   4.113   0.384   4.327
 5569SOL     OW17152   5.429   1.487   4.828
 5569SOL    HW117153   5.336   1.462   4.801
 5569SOL    HW217154   5.455   1.437   4.910
 5570SOL     OW17155   4.041   0.547   5.004
 5570SOL    HW117156   4.079   0.488   5.076
 5570SOL    HW217157   4.081   0.521   4.916
 5571SOL     OW17158   4.536   1.586   4.411
 5571SOL    HW117159   4.568   1.596   4.317
 5571SOL    HW217160   4.457   1.524   4.413
 5572SOL     OW17161   5.148   0.214   4.836
 5572SOL    HW117162   5.200   0.149   4.891
 5572SOL    HW217163   5.099   0.277   4.897
 5573SOL     OW17164   4.725   0.034   4.878
 5573SOL    HW117165   4.662  -0.038   4.847
 5573SOL    HW217166   4.818  -0.002   4.878
 5574SOL     OW17167   4.494   1.330   4.025
 5574SOL    HW117168   4.448   1.243   4.042
 5574SOL    HW217169   4.585   1.327   4.066
 5575SOL     OW17170   4.342   1.567   5.008
 5575SOL    HW117171   4.337   1.649   5.065
 5575SOL    HW217172   4.431   1.564   4.963
 5576SOL     OW17173   5.076   0.052   3.892
 5576SOL    HW117174   5.111   0.011   3.808
 5576SOL    HW217175   4.986   0.014   3.912
 5577SOL     OW17176   5.024   0.453   4.415
 5577SOL    HW117177   4.965   0.533   4.419
 5577SOL    HW217178   5.039   0.418   4.508
 5578SOL     OW17179   5.317   0.221   4.606
 5578SOL    HW117180   5.233   0.220   4.660
 5578SOL    HW217181   5.319   0.304   4.550
 5579SOL     OW17182   3.763   1.077   4.024
 5579SOL    HW117183   3.862   1.066   4.015
 5579SOL    HW217184   3.723   0.991   4.056
 5580SOL     OW17185   4.599   1.646   4.061
 5580SOL    HW117186   4.522   1.611   4.007
 5580SOL    HW217187   4.567   1.717   4.123
 5581SOL     OW17188   3.954   0.628   5.699
 5581SOL    HW117189   3.861   0.626   5.736
 5581SOL    HW217190   3.955   0.589   5.607
 5582SOL     OW17191   3.949   0.275   6.582
 5582SOL    HW117192   3.984   0.258   6.674
 5582SOL    HW217193   3.861   0.230   6.570
 5583SOL     OW17194   3.743   0.368   6.233
 5583SOL    HW117195   3.661   0.411   6.272
 5583SOL    HW217196   3.715   0.295   6.170
 5584SOL     OW17197   4.293   1.275   6.751
 5584SOL    HW117198   4.200   1.268   6.714
 5584SOL    HW217199   4.304   1.364   6.795
 5585SOL     OW17200   5.279   1.511   6.289
 5585SOL    HW117201   5.222   1.495   6.370
 5585SOL    HW217202   5.220   1.521   6.209
 5586SOL     OW17203   4.859   0.703   6.303
 5586SOL    HW117204   4.916   0.781   6.278
 5586SOL    HW217205   4.799   0.729   6.379
 5587SOL     OW17206   4.492   1.144   6.609
 5587SOL    HW117207   4.414   1.161   6.669
 5587SOL    HW217208   4.526   1.231   6.573
 5588SOL     OW17209   4.574   0.798   7.409
 5588SOL    HW117210   4.570   0.874   7.474
 5588SOL    HW217211   4.596   0.834   7.318
 5589SOL     OW17212   4.409   1.012   6.251
 5589SOL    HW117213   4.478   0.996   6.321
 5589SOL    HW217214   4.336   1.069   6.289
 5590SOL     OW17215   4.410   1.161   7.389
 5590SOL    HW117216   4.470   1.240   7.403
 5590SOL    HW217217   4.324   1.192   7.348
 5591SOL     OW17218   4.059   1.435   6.647
 5591SOL    HW117219   3.981   1.404   6.594
 5591SOL    HW217220   4.117   1.493   6.590
 5592SOL     OW17221   5.184   1.505   6.925
 5592SOL    HW117222   5.208   1.599   6.951
 5592SOL    HW217223   5.168   1.451   7.007
 5593SOL     OW17224   4.162   0.392   7.085
 5593SOL    HW117225   4.244   0.336   7.094
 5593SOL    HW217226   4.081   0.334   7.089
 5594SOL     OW17227   3.955   1.713   6.069
 5594SOL    HW117228   3.989   1.790   6.123
 5594SOL    HW217229   3.999   1.713   5.979
 5595SOL     OW17230   4.851   1.341   7.276
 5595SOL    HW117231   4.898   1.341   7.364
 5595SOL    HW217232   4.803   1.254   7.265
 5596SOL     OW17233   3.954   1.434   6.124
 5596SOL    HW117234   3.928   1.530   6.124
 5596SOL    HW217235   3.883   1.380   6.169
 5597SOL     OW17236   3.964   1.091   6.472
 5597SOL    HW117237   3.978   1.007   6.524
 5597SOL    HW217238   3.909   1.155   6.527
 5598SOL     OW17239   4.344   1.786   7.025
 5598SOL    HW117240   4.252   1.769   7.060
 5598SOL    HW217241   4.372   1.878   7.051
 5599SOL     OW17242   4.330   0.964   5.709
 5599SOL    HW117243   4.337   1.048   5.655
 5599SOL    HW217244   4.376   0.977   5.797
 5600SOL     OW17245   5.318   0.114   7.066
 5600SOL    HW117246   5.300   0.181   6.994
 5600SOL    HW217247   5.315   0.160   7.155
 5601SOL     OW17248   3.846   0.643   6.149
 5601SOL    HW117249   3.801   0.555   6.166
 5601SOL    HW217250   3.845   0.697   6.233
 5602SOL     OW17251   3.751   1.596   5.703
 5602SOL    HW117252   3.732   1.500   5.724
 5602SOL    HW217253   3.718   1.654   5.778
 5603SOL     OW17254   5.413   0.922   6.198
 5603SOL    HW117255   5.508   0.893   6.206
 5603SOL    HW217256   5.405   0.987   6.123
 5604SOL     OW17257   3.837   0.737   7.183
 5604SOL    HW117258   3.925   0.724   7.228
 5604SOL    HW217259   3.824   0.834   7.161
 5605SOL     OW17260   4.337   1.365   6.312
 5605SOL    HW117261   4.288   1.278   6.321
 5605SOL    HW217262   4.314   1.408   6.225
 5606SOL     OW17263   5.017   1.228   7.009
 5606SOL    HW117264   5.054   1.155   6.951
 5606SOL    HW217265   5.069   1.233   7.094
 5607SOL     OW17266   4.533   0.004   6.088
 5607SOL    HW117267   4.573   0.095   6.079
 5607SOL    HW217268   4.433   0.012   6.094
 5608SOL     OW17269   3.921   0.976   6.850
 5608SOL    HW117270   4.010   0.931   6.836
 5608SOL    HW217271   3.848   0.911   6.831
 5609SOL     OW17272   4.911   1.792   7.202
 5609SOL    HW117273   4.935   1.852   7.126
 5609SOL    HW217274   4.918   1.697   7.172
 5610SOL     OW17275   4.041   0.251   7.387
 5610SOL    HW117276   4.112   0.322   7.393
 5610SOL    HW217277   3.953   0.290   7.415
 5611SOL     OW17278   5.190   1.417   6.539
 5611SOL    HW117279   5.131   1.423   6.619
 5611SOL    HW217280   5.175   1.329   6.493
 5612SOL     OW17281   4.322   0.729   5.856
 5612SOL    HW117282   4.346   0.798   5.788
 5612SOL    HW217283   4.244   0.762   5.910
 5613SOL     OW17284   5.005   0.345   6.530
 5613SOL    HW117285   4.919   0.295   6.517
 5613SOL    HW217286   5.067   0.291   6.586
 5614SOL     OW17287   4.531   0.605   7.051
 5614SOL    HW117288   4.484   0.602   7.140
 5614SOL    HW217289   4.480   0.550   6.985
 5615SOL     OW17290   5.118   0.469   7.260
 5615SOL    HW117291   5.098   0.512   7.348
 5615SOL    HW217292   5.196   0.407   7.269
 5616SOL     OW17293   4.697   0.890   7.158
 5616SOL    HW117294   4.743   0.806   7.129
 5616SOL    HW217295   4.641   0.924   7.083
 5617SOL     OW17296   4.715   0.410   6.828
 5617SOL    HW117297   4.638   0.444   6.882
 5617SOL    HW217298   4.681   0.359   6.749
 5618SOL     OW17299   4.765   0.701   6.015
 5618SOL    HW117300   4.791   0.697   6.111
 5618SOL    HW217301   4.680   0.650   6.001
 5619SOL     OW17302   3.800   0.811   6.375
 5619SOL    HW117303   3.899   0.799   6.384
 5619SOL    HW217304   3.776   0.906   6.396
 5620SOL     OW17305   3.854   1.821   7.157
 5620SOL    HW117306   3.844   1.806   7.256
 5620SOL    HW217307   3.768   1.857   7.121
 5621SOL     OW17308   4.589   0.348   5.781
 5621SOL    HW117309   4.648   0.411   5.732
 5621SOL    HW217310   4.608   0.254   5.752
 5622SOL     OW17311   5.086   1.144   6.131
 5622SOL    HW117312   5.169   1.115   6.083
 5622SOL    HW217313   5.037   1.211   6.075
 5623SOL     OW17314   4.274   0.196   6.471
 5623SOL    HW117315   4.269   0.191   6.571
 5623SOL    HW217316   4.276   0.292   6.442
 5624SOL     OW17317   4.732   1.456   6.063
 5624SOL    HW117318   4.686   1.528   6.011
 5624SOL    HW217319   4.728   1.476   6.161
 5625SOL     OW17320   4.075   1.801   6.439
 5625SOL    HW117321   4.125   1.715   6.445
 5625SOL    HW217322   4.140   1.878   6.436
 5626SOL     OW17323   4.951   1.550   7.092
 5626SOL    HW117324   4.957   1.473   7.156
 5626SOL    HW217325   4.899   1.524   7.012
 5627SOL     OW17326   4.045   0.943   5.828
 5627SOL    HW117327   4.127   0.982   5.786
 5627SOL    HW217328   4.018   0.861   5.779
 5628SOL     OW17329   4.185   1.266   7.313
 5628SOL    HW117330   4.135   1.267   7.227
 5628SOL    HW217331   4.122   1.248   7.389
 5629SOL     OW17332   4.835   1.776   5.823
 5629SOL    HW117333   4.775   1.714   5.873
 5629SOL    HW217334   4.866   1.732   5.738
 5630SOL     OW17335   3.926   0.285   7.084
 5630SOL    HW117336   3.846   0.345   7.071
 5630SOL    HW217337   3.916   0.236   7.170
 5631SOL     OW17338   4.188   1.743   5.909
 5631SOL    HW117339   4.221   1.782   5.995
 5631SOL    HW217340   4.264   1.736   5.844
 5632SOL     OW17341   5.124   0.107   6.012
 5632SOL    HW117342   5.100   0.070   5.922
 5632SOL    HW217343   5.223   0.123   6.016
 5633SOL     OW17344   3.973   1.785   6.827
 5633SOL    HW117345   4.030   1.720   6.877
 5633SOL    HW217346   3.957   1.752   6.734
 5634SOL     OW17347   4.664   1.698   6.490
 5634SOL    HW117348   4.744   1.641   6.511
 5634SOL    HW217349   4.615   1.658   6.413
 5635SOL     OW17350   4.106   0.700   6.066
 5635SOL    HW117351   4.151   0.610   6.063
 5635SOL    HW217352   4.012   0.689   6.099
 5636SOL     OW17353   4.338   0.122   5.703
 5636SOL    HW117354   4.436   0.100   5.710
 5636SOL    HW217355   4.307   0.105   5.610
 5637SOL     OW17356   4.505   0.264   7.335
 5637SOL    HW117357   4.572   0.203   7.378
 5637SOL    HW217358   4.432   0.283   7.400
 5638SOL     OW17359   4.612   1.514   6.781
 5638SOL    HW117360   4.589   1.489   6.687
 5638SOL    HW217361   4.673   1.445   6.820
 5639SOL     OW17362   5.075   0.590   7.019
 5639SOL    HW117363   5.103   0.547   7.104
 5639SOL    HW217364   5.100   0.686   7.020
 5640SOL     OW17365   4.527   1.402   6.510
 5640SOL    HW117366   4.617   1.416   6.468
 5640SOL    HW217367   4.456   1.404   6.439
 5641SOL     OW17368   4.646   0.503   6.485
 5641SOL    HW117369   4.621   0.494   6.389
 5641SOL    HW217370   4.694   0.421   6.516
 5642SOL     OW17371   4.263   0.064   6.098
 5642SOL    HW117372   4.182   0.065   6.156
 5642SOL    HW217373   4.266   0.147   6.043
 5643SOL     OW17374   5.158   1.188   5.627
 5643SOL    HW117375   5.190   1.112   5.684
 5643SOL    HW217376   5.066   1.215   5.657
 5644SOL     OW17377   4.021   0.035   5.757
 5644SOL    HW117378   4.070   0.119   5.736
 5644SOL    HW217379   4.083  -0.030   5.802
 5645SOL     OW17380   4.659   0.236   6.066
 5645SOL    HW117381   4.611   0.277   5.988
 5645SOL    HW217382   4.758   0.234   6.047
 5646SOL     OW17383   4.800   0.683   7.050
 5646SOL    HW117384   4.720   0.622   7.053
 5646SOL    HW217385   4.881   0.630   7.026
 5647SOL     OW17386   4.951   1.570   6.379
 5647SOL    HW117387   4.972   1.644   6.314
 5647SOL    HW217388   5.019   1.570   6.452
 5648SOL     OW17389   4.183   1.152   6.327
 5648SOL    HW117390   4.112   1.125   6.392
 5648SOL    HW217391   4.157   1.124   6.234
 5649SOL     OW17392   4.995   1.797   6.177
 5649SOL    HW117393   5.039   1.861   6.113
 5649SOL    HW217394   4.945   1.849   6.247
 5650SOL     OW17395   4.756   0.549   5.602
 5650SOL    HW117396   4.715   0.631   5.563
 5650SOL    HW217397   4.820   0.575   5.675
 5651SOL     OW17398   3.802   0.556   6.972
 5651SOL    HW117399   3.894   0.555   6.931
 5651SOL    HW217400   3.796   0.630   7.039
 5652SOL     OW17401   4.285   0.222   6.733
 5652SOL    HW117402   4.323   0.138   6.770
 5652SOL    HW217403   4.197   0.241   6.777
 5653SOL     OW17404   4.590   0.454   6.228
 5653SOL    HW117405   4.558   0.526   6.166
 5653SOL    HW217406   4.614   0.373   6.175
 5654SOL     OW17407   4.741   0.039   6.339
 5654SOL    HW117408   4.669   0.044   6.270
 5654SOL    HW217409   4.717  -0.030   6.408
 5655SOL     OW17410   5.153   1.173   6.453
 5655SOL    HW117411   5.098   1.089   6.446
 5655SOL    HW217412   5.179   1.202   6.361
 5656SOL     OW17413   4.212   1.385   5.760
 5656SOL    HW117414   4.125   1.370   5.807
 5656SOL    HW217415   4.195   1.411   5.665
 5657SOL     OW17416   5.114   0.575   5.664
 5657SOL    HW117417   5.060   0.554   5.745
 5657SOL    HW217418   5.205   0.534   5.673
 5658SOL     OW17419   4.251   0.256   5.914
 5658SOL    HW117420   4.278   0.197   5.839
 5658SOL    HW217421   4.251   0.351   5.883
 5659SOL     OW17422   4.788   1.347   6.926
 5659SOL    HW117423   4.708   1.324   6.981
 5659SOL    HW217424   4.871   1.321   6.975
 5660SOL     OW17425   5.316   1.629   7.211
 5660SOL    HW117426   5.343   1.663   7.121
 5660SOL    HW217427   5.395   1.591   7.257
 5661SOL     OW17428   4.835   1.195   6.686
 5661SOL    HW117429   4.795   1.239   6.767
 5661SOL    HW217430   4.794   1.232   6.603
 5662SOL     OW17431   4.639   0.089   6.988
 5662SOL    HW117432   4.664   0.069   6.893
 5662SOL    HW217433   4.711   0.145   7.030
 5663SOL     OW17434   4.704   1.116   7.305
 5663SOL    HW117435   4.605   1.122   7.315
 5663SOL    HW217436   4.727   1.036   7.249
 5664SOL     OW17437   4.429   1.050   5.954
 5664SOL    HW117438   4.415   1.057   6.053
 5664SOL    HW217439   4.513   0.999   5.936
 5665SOL     OW17440   4.134   0.813   6.837
 5665SOL    HW117441   4.220   0.825   6.887
 5665SOL    HW217442   4.092   0.726   6.864
 5666SOL     OW17443   4.998   0.386   6.848
 5666SOL    HW117444   5.019   0.460   6.912
 5666SOL    HW217445   4.909   0.403   6.805
 5667SOL     OW17446   3.788   1.564   6.917
 5667SOL    HW117447   3.742   1.646   6.883
 5667SOL    HW217448   3.886   1.583   6.926
 5668SOL     OW17449   4.091   1.100   6.087
 5668SOL    HW117450   4.084   1.183   6.031
 5668SOL    HW217451   4.095   1.020   6.027
 5669SOL     OW17452   4.290   0.537   6.451
 5669SOL    HW117453   4.302   0.603   6.377
 5669SOL    HW217454   4.336   0.571   6.534
 5670SOL     OW17455   4.976   1.348   5.974
 5670SOL    HW117456   5.026   1.425   6.014
 5670SOL    HW217457   4.881   1.350   6.006
 5671SOL     OW17458   4.996   1.445   6.728
 5671SOL    HW117459   5.043   1.458   6.815
 5671SOL    HW217460   4.930   1.371   6.737
 5672SOL     OW17461   4.078   1.510   6.915
 5672SOL    HW117462   4.057   1.466   6.828
 5672SOL    HW217463   4.175   1.536   6.918
 5673SOL     OW17464   4.126   0.751   7.184
 5673SOL    HW117465   4.194   0.806   7.137
 5673SOL    HW217466   4.166   0.663   7.211
 5674SOL     OW17467   4.737   0.105   7.356
 5674SOL    HW117468   4.743   0.190   7.304
 5674SOL    HW217469   4.769   0.029   7.299
 5675SOL     OW17470   4.228   0.050   7.326
 5675SOL    HW117471   4.186  -0.007   7.256
 5675SOL    HW217472   4.162   0.119   7.358
 5676SOL     OW17473   4.297   0.870   6.615
 5676SOL    HW117474   4.341   0.959   6.606
 5676SOL    HW217475   4.234   0.870   6.692
 5677SOL     OW17476   5.084   0.862   6.631
 5677SOL    HW117477   5.009   0.862   6.565
 5677SOL    HW217478   5.121   0.770   6.640
 5678SOL     OW17479   4.933   0.525   5.861
 5678SOL    HW117480   4.946   0.441   5.915
 5678SOL    HW217481   4.904   0.599   5.921
 5679SOL     OW17482   4.031   0.213   6.817
 5679SOL    HW117483   4.008   0.250   6.907
 5679SOL    HW217484   4.001   0.118   6.811
 5680SOL     OW17485   3.761   1.310   6.868
 5680SOL    HW117486   3.814   1.261   6.936
 5680SOL    HW217487   3.783   1.408   6.873
 5681SOL     OW17488   4.456   0.634   6.650
 5681SOL    HW117489   4.515   0.608   6.574
 5681SOL    HW217490   4.428   0.730   6.639
 5682SOL     OW17491   4.031   0.063   6.204
 5682SOL    HW117492   4.020   0.157   6.237
 5682SOL    HW217493   4.026   0.000   6.281
 5683SOL     OW17494   5.346   0.367   5.960
 5683SOL    HW117495   5.348   0.291   6.024
 5683SOL    HW217496   5.298   0.444   6.000
 5684SOL     OW17497   4.747   0.766   6.552
 5684SOL    HW117498   4.762   0.787   6.648
 5684SOL    HW217499   4.717   0.671   6.543
 5685SOL     OW17500   4.704   1.573   7.286
 5685SOL    HW117501   4.684   1.617   7.198
 5685SOL    HW217502   4.743   1.482   7.270
 5686SOL     OW17503   4.074   0.898   7.390
 5686SOL    HW117504   4.150   0.942   7.438
 5686SOL    HW217505   4.109   0.851   7.308
 5687SOL     OW17506   5.027   0.838   5.628
 5687SOL    HW117507   5.061   0.745   5.643
 5687SOL    HW217508   5.045   0.865   5.533
 5688SOL     OW17509   4.792   1.333   6.435
 5688SOL    HW117510   4.799   1.249   6.380
 5688SOL    HW217511   4.854   1.402   6.399
 5689SOL     OW17512   4.043   0.810   6.535
 5689SOL    HW117513   4.136   0.846   6.540
 5689SOL    HW217514   4.037   0.725   6.587
 5690SOL     OW17515   4.063   0.509   6.592
 5690SOL    HW117516   4.011   0.426   6.575
 5690SOL    HW217517   4.140   0.514   6.528
 5691SOL     OW17518   4.862   0.380   7.264
 5691SOL    HW117519   4.817   0.443   7.328
 5691SOL    HW217520   4.955   0.411   7.247
 5692SOL     OW17521   4.884   0.207   7.063
 5692SOL    HW117522   4.884   0.271   7.140
 5692SOL    HW217523   4.912   0.255   6.980
 5693SOL     OW17524   3.732   1.326   5.786
 5693SOL    HW117525   3.639   1.347   5.755
 5693SOL    HW217526   3.742   1.227   5.799
 5694SOL     OW17527   3.812   1.801   6.513
 5694SOL    HW117528   3.770   1.715   6.486
 5694SOL    HW217529   3.906   1.804   6.479
 5695SOL     OW17530   4.228   1.568   6.496
 5695SOL    HW117531   4.294   1.642   6.505
 5695SOL    HW217532   4.272   1.489   6.454
 5696SOL     OW17533   4.726   0.796   6.824
 5696SOL    HW117534   4.767   0.764   6.910
 5696SOL    HW217535   4.630   0.769   6.821
 5697SOL     OW17536   3.764   0.544   6.700
 5697SOL    HW117537   3.849   0.511   6.659
 5697SOL    HW217538   3.777   0.559   6.798
 5698SOL     OW17539   3.913   0.520   7.308
 5698SOL    HW117540   3.972   0.480   7.238
 5698SOL    HW217541   3.855   0.591   7.267
 5699SOL     OW17542   5.093   0.950   7.246
 5699SOL    HW117543   5.132   1.039   7.266
 5699SOL    HW217544   5.103   0.930   7.149
 5700SOL     OW17545   4.539   0.572   5.911
 5700SOL    HW117546   4.546   0.483   5.865
 5700SOL    HW217547   4.445   0.606   5.903
 5701SOL     OW17548   3.976   1.564   7.330
 5701SOL    HW117549   3.946   1.621   7.406
 5701SOL    HW217550   3.969   1.467   7.356
 5702SOL     OW17551   4.395   0.464   6.855
 5702SOL    HW117552   4.361   0.375   6.825
 5702SOL    HW217553   4.421   0.518   6.775
 5703SOL     OW17554   4.654   1.678   7.051
 5703SOL    HW117555   4.630   1.660   6.956
 5703SOL    HW217556   4.684   1.772   7.061
 5704SOL     OW17557   4.197   0.500   5.777
 5704SOL    HW117558   4.258   0.580   5.781
 5704SOL    HW217559   4.102   0.531   5.784
 5705SOL     OW17560   3.883   1.137   7.052
 5705SOL    HW117561   3.905   1.076   7.128
 5705SOL    HW217562   3.893   1.088   6.966
 5706SOL     OW17563   5.071   1.059   6.820
 5706SOL    HW117564   5.095   0.996   6.746
 5706SOL    HW217565   4.981   1.099   6.802
 5707SOL     OW17566   5.026   0.855   5.895
 5707SOL    HW117567   4.940   0.824   5.937
 5707SOL    HW217568   5.022   0.841   5.796
 5708SOL     OW17569   4.976   1.731   6.714
 5708SOL    HW117570   5.060   1.736   6.660
 5708SOL    HW217571   4.953   1.635   6.732
 5709SOL     OW17572   3.807   1.258   6.608
 5709SOL    HW117573   3.802   1.257   6.708
 5709SOL    HW217574   3.724   1.217   6.570
 5710SOL     OW17575   4.412   1.662   7.302
 5710SOL    HW117576   4.356   1.743   7.311
 5710SOL    HW217577   4.464   1.666   7.216
 5711SOL     OW17578   5.112   1.573   6.063
 5711SOL    HW117579   5.179   1.585   5.989
 5711SOL    HW217580   5.072   1.662   6.086
 5712SOL     OW17581   3.854   1.794   7.437
 5712SOL    HW117582   3.813   1.720   7.490
 5712SOL    HW217583   3.918   1.845   7.495
 5713SOL     OW17584   5.004   0.927   6.258
 5713SOL    HW117585   5.064   0.846   6.260
 5713SOL    HW217586   5.044   0.996   6.198
 5714SOL     OW17587   4.554   1.273   7.008
 5714SOL    HW117588   4.549   1.306   7.103
 5714SOL    HW217589   4.468   1.292   6.962
 5715SOL     OW17590   4.396   1.616   5.740
 5715SOL    HW117591   4.405   1.626   5.641
 5715SOL    HW217592   4.356   1.527   5.761
 5716SOL     OW17593   3.987   0.326   6.306
 5716SOL    HW117594   3.908   0.377   6.272
 5716SOL    HW217595   3.978   0.311   6.404
 5717SOL     OW17596   4.918   1.612   5.617
 5717SOL    HW117597   4.924   1.519   5.654
 5717SOL    HW217598   4.859   1.612   5.537
 5718SOL     OW17599   4.546   1.002   6.958
 5718SOL    HW117600   4.586   1.001   6.866
 5718SOL    HW217601   4.556   1.094   6.998
 5719SOL     OW17602   4.640   0.910   5.877
 5719SOL    HW117603   4.703   0.948   5.809
 5719SOL    HW217604   4.680   0.827   5.916
 5720SOL     OW17605   4.096   1.288   7.076
 5720SOL    HW117606   4.083   1.381   7.042
 5720SOL    HW217607   4.012   1.236   7.063
 5721SOL     OW17608   4.763   1.098   6.282
 5721SOL    HW117609   4.693   1.051   6.336
 5721SOL    HW217610   4.822   1.030   6.239
 5722SOL     OW17611   4.738   0.236   6.557
 5722SOL    HW117612   4.730   0.200   6.464
 5722SOL    HW217613   4.736   0.160   6.622
 5723SOL     OW17614   4.314   1.487   6.077
 5723SOL    HW117615   4.356   1.429   6.007
 5723SOL    HW217616   4.270   1.566   6.033
 5724SOL     OW17617   3.979   1.348   5.876
 5724SOL    HW117618   3.883   1.349   5.849
 5724SOL    HW217619   3.991   1.401   5.960
 5725SOL     OW17620   3.829   1.013   7.312
 5725SOL    HW117621   3.752   0.980   7.366
 5725SOL    HW217622   3.914   0.983   7.354
 5726SOL     OW17623   4.396   0.203   7.075
 5726SOL    HW117624   4.486   0.187   7.035
 5726SOL    HW217625   4.404   0.208   7.174
 5727SOL     OW17626   3.799   0.345   5.619
 5727SOL    HW117627   3.707   0.317   5.590
 5727SOL    HW217628   3.830   0.422   5.563
 5728SOL     OW17629   5.164   0.856   6.984
 5728SOL    HW117630   5.107   0.908   6.921
 5728SOL    HW217631   5.260   0.868   6.960
 5729SOL     OW17632   3.796   0.166   5.904
 5729SOL    HW117633   3.779   0.249   5.850
 5729SOL    HW217634   3.886   0.129   5.882
 5730SOL     OW17635   4.907   1.335   5.705
 5730SOL    HW117636   4.808   1.324   5.707
 5730SOL    HW217637   4.941   1.350   5.798
 5731SOL     OW17638   4.337   0.842   7.017
 5731SOL    HW117639   4.393   0.923   7.000
 5731SOL    HW217640   4.396   0.762   7.020
 5732SOL     OW17641   4.440   0.565   7.294
 5732SOL    HW117642   4.459   0.630   7.368
 5732SOL    HW217643   4.500   0.485   7.303
 5733SOL     OW17644   5.174   1.220   7.219
 5733SOL    HW117645   5.165   1.210   7.318
 5733SOL    HW217646   5.270   1.213   7.193
 5734SOL     OW17647   4.114   1.741   7.146
 5734SOL    HW117648   4.023   1.782   7.144
 5734SOL    HW217649   4.107   1.647   7.178
 5735SOL     OW17650   4.949   0.325   6.035
 5735SOL    HW117651   5.014   0.251   6.024
 5735SOL    HW217652   4.969   0.375   6.119
 5736SOL     OW17653   4.318   0.745   6.238
 5736SOL    HW117654   4.368   0.830   6.219
 5736SOL    HW217655   4.230   0.747   6.190
 5737SOL     OW17656   4.583   1.374   5.602
 5737SOL    HW117657   4.537   1.389   5.690
 5737SOL    HW217658   4.627   1.459   5.572
 5738SOL     OW17659   4.385   1.790   6.539
 5738SOL    HW117660   4.339   1.878   6.526
 5738SOL    HW217661   4.484   1.802   6.532
 5739SOL     OW17662   4.583   0.956   6.447
 5739SOL    HW117663   4.637   0.887   6.495
 5739SOL    HW217664   4.551   1.025   6.513
 5740SOL     OW17665   4.807   0.984   5.673
 5740SOL    HW117666   4.784   1.037   5.591
 5740SOL    HW217667   4.888   0.928   5.654
 5741SOL     OW17668   3.945   1.314   7.430
 5741SOL    HW117669   3.880   1.241   7.409
 5741SOL    HW217670   3.949   1.328   7.528
 5742SOL     OW17671   3.803   1.240   6.239
 5742SOL    HW117672   3.802   1.193   6.327
 5742SOL    HW217673   3.885   1.212   6.188
 5743SOL     OW17674   4.396   1.391   7.210
 5743SOL    HW117675   4.318   1.341   7.248
 5743SOL    HW217676   4.393   1.486   7.241
 5744SOL     OW17677   4.152   0.424   6.106
 5744SOL    HW117678   4.182   0.352   6.044
 5744SOL    HW217679   4.113   0.384   6.189
 5745SOL     OW17680   5.429   1.487   6.690
 5745SOL    HW117681   5.336   1.462   6.663
 5745SOL    HW217682   5.455   1.437   6.772
 5746SOL     OW17683   4.041   0.547   6.866
 5746SOL    HW117684   4.079   0.488   6.938
 5746SOL    HW217685   4.081   0.521   6.778
 5747SOL     OW17686   4.536   1.586   6.273
 5747SOL    HW117687   4.568   1.596   6.179
 5747SOL    HW217688   4.457   1.524   6.275
 5748SOL     OW17689   5.148   0.214   6.698
 5748SOL    HW117690   5.200   0.149   6.753
 5748SOL    HW217691   5.099   0.277   6.759
 5749SOL     OW17692   4.725   0.034   6.740
 5749SOL    HW117693   4.662  -0.038   6.709
 5749SOL    HW217694   4.818  -0.002   6.740
 5750SOL     OW17695   4.494   1.330   5.887
 5750SOL    HW117696   4.448   1.243   5.904
 5750SOL    HW217697   4.585   1.327   5.928
 5751SOL     OW17698   4.342   1.567   6.870
 5751SOL    HW117699   4.337   1.649   6.927
 5751SOL    HW217700   4.431   1.564   6.825
 5752SOL     OW17701   5.076   0.052   5.754
 5752SOL    HW117702   5.111   0.011   5.670
 5752SOL    HW217703   4.986   0.014   5.774
 5753SOL     OW17704   5.024   0.453   6.277
 5753SOL    HW117705   4.965   0.533   6.281
 5753SOL    HW217706   5.039   0.418   6.370
 5754SOL     OW17707   5.317   0.221   6.468
 5754SOL    HW117708   5.233   0.220   6.522
 5754SOL    HW217709   5.319   0.304   6.412
 5755SOL     OW17710   3.763   1.077   5.886
 5755SOL    HW117711   3.862   1.066   5.877
 5755SOL    HW217712   3.723   0.991   5.918
 5756SOL     OW17713   4.599   1.646   5.923
 5756SOL    HW117714   4.522   1.611   5.869
 5756SOL    HW217715   4.567   1.717   5.985
 5757SOL     OW17716   3.954   0.628   7.561
 5757SOL    HW117717   3.861   0.626   7.598
 5757SOL    HW217718   3.955   0.589   7.469
 5758SOL     OW17719   3.955   1.713   7.931
 5758SOL    HW117720   3.989   1.790   7.985
 5758SOL    HW217721   3.999   1.713   7.841
 5759SOL     OW17722   3.954   1.434   7.986
 5759SOL    HW117723   3.928   1.530   7.986
 5759SOL    HW217724   3.883   1.380   8.031
 5760SOL     OW17725   4.330   0.964   7.571
 5760SOL    HW117726   4.337   1.048   7.517
 5760SOL    HW217727   4.376   0.977   7.659
 5761SOL     OW17728   3.751   1.596   7.565
 5761SOL    HW117729   3.732   1.500   7.586
 5761SOL    HW217730   3.718   1.654   7.640
 5762SOL     OW17731   5.413   0.922   8.060
 5762SOL    HW117732   5.508   0.893   8.068
 5762SOL    HW217733   5.405   0.987   7.985
 5763SOL     OW17734   4.533   0.004   7.950
 5763SOL    HW117735   4.573   0.095   7.941
 5763SOL    HW217736   4.433   0.012   7.956
 5764SOL     OW17737   4.322   0.729   7.718
 5764SOL    HW117738   4.346   0.798   7.650
 5764SOL    HW217739   4.244   0.762   7.772
 5765SOL     OW17740   3.800   0.811   8.237
 5765SOL    HW117741   3.899   0.799   8.246
 5765SOL    HW217742   3.776   0.906   8.258
 5766SOL     OW17743   4.589   0.348   7.643
 5766SOL    HW117744   4.648   0.411   7.594
 5766SOL    HW217745   4.608   0.254   7.614
 5767SOL     OW17746   4.045   0.943   7.690
 5767SOL    HW117747   4.127   0.982   7.648
 5767SOL    HW217748   4.018   0.861   7.641
 5768SOL     OW17749   4.835   1.776   7.685
 5768SOL    HW117750   4.775   1.714   7.735
 5768SOL    HW217751   4.866   1.732   7.600
 5769SOL     OW17752   4.188   1.743   7.771
 5769SOL    HW117753   4.221   1.782   7.857
 5769SOL    HW217754   4.264   1.736   7.706
 5770SOL     OW17755   5.124   0.107   7.874
 5770SOL    HW117756   5.100   0.070   7.784
 5770SOL    HW217757   5.223   0.123   7.878
 5771SOL     OW17758   4.106   0.700   7.928
 5771SOL    HW117759   4.151   0.610   7.925
 5771SOL    HW217760   4.012   0.689   7.961
 5772SOL     OW17761   4.338   0.122   7.565
 5772SOL    HW117762   4.436   0.100   7.572
 5772SOL    HW217763   4.307   0.105   7.472
 5773SOL     OW17764   4.263   0.064   7.960
 5773SOL    HW117765   4.182   0.065   8.018
 5773SOL    HW217766   4.266   0.147   7.905
 5774SOL     OW17767   5.158   1.188   7.489
 5774SOL    HW117768   5.190   1.112   7.546
 5774SOL    HW217769   5.066   1.215   7.519
 5775SOL     OW17770   4.021   0.035   7.619
 5775SOL    HW117771   4.070   0.119   7.598
 5775SOL    HW217772   4.083  -0.030   7.664
 5776SOL     OW17773   4.659   0.236   7.928
 5776SOL    HW117774   4.611   0.277   7.850
 5776SOL    HW217775   4.758   0.234   7.909
 5777SOL     OW17776   4.183   1.152   8.189
 5777SOL    HW117777   4.112   1.125   8.254
 5777SOL    HW217778   4.157   1.124   8.096
 5778SOL     OW17779   4.995   1.797   8.039
 5778SOL    HW117780   5.039   1.861   7.975
 5778SOL    HW217781   4.945   1.849   8.109
 5779SOL     OW17782   4.756   0.549   7.464
 5779SOL    HW117783   4.715   0.631   7.425
 5779SOL    HW217784   4.820   0.575   7.537
 5780SOL     OW17785   4.212   1.385   7.622
 5780SOL    HW117786   4.125   1.370   7.669
 5780SOL    HW217787   4.195   1.411   7.527
 5781SOL     OW17788   5.114   0.575   7.526
 5781SOL    HW117789   5.060   0.554   7.607
 5781SOL    HW217790   5.205   0.534   7.535
 5782SOL     OW17791   4.251   0.256   7.776
 5782SOL    HW117792   4.278   0.197   7.701
 5782SOL    HW217793   4.251   0.351   7.745
 5783SOL     OW17794   4.429   1.050   7.816
 5783SOL    HW117795   4.415   1.057   7.915
 5783SOL    HW217796   4.513   0.999   7.798
 5784SOL     OW17797   4.091   1.100   7.949
 5784SOL    HW117798   4.084   1.183   7.893
 5784SOL    HW217799   4.095   1.020   7.889
 5785SOL     OW17800   4.976   1.348   7.836
 5785SOL    HW117801   5.026   1.425   7.876
 5785SOL    HW217802   4.881   1.350   7.868
 5786SOL     OW17803   5.306   0.639   7.920
 5786SOL    HW117804   5.275   0.700   7.993
 5786SOL    HW217805   5.356   0.691   7.851
 5787SOL     OW17806   4.933   0.525   7.723
 5787SOL    HW117807   4.946   0.441   7.777
 5787SOL    HW217808   4.904   0.599   7.783
 5788SOL     OW17809   5.346   0.367   7.822
 5788SOL    HW117810   5.348   0.291   7.886
 5788SOL    HW217811   5.298   0.444   7.862
 5789SOL     OW17812   5.027   0.838   7.490
 5789SOL    HW117813   5.061   0.745   7.505
 5789SOL    HW217814   5.045   0.865   7.395
 5790SOL     OW17815   3.732   1.326   7.648
 5790SOL    HW117816   3.639   1.347   7.617
 5790SOL    HW217817   3.742   1.227   7.661
 5791SOL     OW17818   4.539   0.572   7.773
 5791SOL    HW117819   4.546   0.483   7.727
 5791SOL    HW217820   4.445   0.606   7.765
 5792SOL     OW17821   4.197   0.500   7.639
 5792SOL    HW117822   4.258   0.580   7.643
 5792SOL    HW217823   4.102   0.531   7.646
 5793SOL     OW17824   5.026   0.855   7.757
 5793SOL    HW117825   4.940   0.824   7.799
 5793SOL    HW217826   5.022   0.841   7.658
 5794SOL     OW17827   5.112   1.573   7.925
 5794SOL    HW117828   5.179   1.585   7.851
 5794SOL    HW217829   5.072   1.662   7.948
 5795SOL     OW17830   4.396   1.616   7.602
 5795SOL    HW117831   4.405   1.626   7.503
 5795SOL    HW217832   4.356   1.527   7.623
 5796SOL     OW17833   4.918   1.612   7.479
 5796SOL    HW117834   4.924   1.519   7.516
 5796SOL    HW217835   4.859   1.612   7.399
 5797SOL     OW17836   4.640   0.910   7.739
 5797SOL    HW117837   4.703   0.948   7.671
 5797SOL    HW217838   4.680   0.827   7.778
 5798SOL     OW17839   4.314   1.487   7.939
 5798SOL    HW117840   4.356   1.429   7.869
 5798SOL    HW217841   4.270   1.566   7.895
 5799SOL     OW17842   3.979   1.348   7.738
 5799SOL    HW117843   3.883   1.349   7.711
 5799SOL    HW217844   3.991   1.401   7.822
 5800SOL     OW17845   3.799   0.345   7.481
 5800SOL    HW117846   3.707   0.317   7.452
 5800SOL    HW217847   3.830   0.422   7.425
 5801SOL     OW17848   3.796   0.166   7.766
 5801SOL    HW117849   3.779   0.249   7.712
 5801SOL    HW217850   3.886   0.129   7.744
 5802SOL     OW17851   4.907   1.335   7.567
 5802SOL    HW117852   4.808   1.324   7.569
 5802SOL    HW217853   4.941   1.350   7.660
 5803SOL     OW17854   5.217   1.767   8.407
 5803SOL    HW117855   5.250   1.831   8.338
 5803SOL    HW217856   5.283   1.761   8.482
 5804SOL     OW17857   4.949   0.325   7.897
 5804SOL    HW117858   5.014   0.251   7.886
 5804SOL    HW217859   4.969   0.375   7.981
 5805SOL     OW17860   4.318   0.745   8.100
 5805SOL    HW117861   4.368   0.830   8.081
 5805SOL    HW217862   4.230   0.747   8.052
 5806SOL     OW17863   4.583   1.374   7.464
 5806SOL    HW117864   4.537   1.389   7.552
 5806SOL    HW217865   4.627   1.459   7.434
 5807SOL     OW17866   4.807   0.984   7.535
 5807SOL    HW117867   4.784   1.037   7.453
 5807SOL    HW217868   4.888   0.928   7.516
 5808SOL     OW17869   4.152   0.424   7.968
 5808SOL    HW117870   4.182   0.352   7.906
 5808SOL    HW217871   4.113   0.384   8.051
 5809SOL     OW17872   4.494   1.330   7.749
 5809SOL    HW117873   4.448   1.243   7.766
 5809SOL    HW217874   4.585   1.327   7.790
 5810SOL     OW17875   5.076   0.052   7.616
 5810SOL    HW117876   5.111   0.011   7.532
 5810SOL    HW217877   4.986   0.014   7.636
 5811SOL     OW17878   3.763   1.077   7.748
 5811SOL    HW117879   3.862   1.066   7.739
 5811SOL    HW217880   3.723   0.991   7.780
 5812SOL     OW17881   4.599   1.646   7.785
 5812SOL    HW117882   4.522   1.611   7.731
 5812SOL    HW217883   4.567   1.717   7.847
 5813SOL     OW17884   3.954   2.490   0.113
 5813SOL    HW117885   3.861   2.488   0.150
 5813SOL    HW217886   3.955   2.451   0.021
 5814SOL     OW17887   3.949   2.137   0.996
 5814SOL    HW117888   3.984   2.120   1.088
 5814SOL    HW217889   3.861   2.092   0.984
 5815SOL     OW17890   3.743   2.230   0.647
 5815SOL    HW117891   3.661   2.273   0.686
 5815SOL    HW217892   3.715   2.157   0.584
 5816SOL     OW17893   4.293   3.137   1.165
 5816SOL    HW117894   4.200   3.130   1.128
 5816SOL    HW217895   4.304   3.226   1.209
 5817SOL     OW17896   5.279   3.373   0.703
 5817SOL    HW117897   5.222   3.357   0.784
 5817SOL    HW217898   5.220   3.383   0.623
 5818SOL     OW17899   4.859   2.565   0.717
 5818SOL    HW117900   4.916   2.643   0.692
 5818SOL    HW217901   4.799   2.591   0.793
 5819SOL     OW17902   4.492   3.006   1.023
 5819SOL    HW117903   4.414   3.023   1.083
 5819SOL    HW217904   4.526   3.093   0.987
 5820SOL     OW17905   4.574   2.660   1.823
 5820SOL    HW117906   4.570   2.736   1.888
 5820SOL    HW217907   4.596   2.696   1.732
 5821SOL     OW17908   4.409   2.874   0.665
 5821SOL    HW117909   4.478   2.858   0.735
 5821SOL    HW217910   4.336   2.931   0.703
 5822SOL     OW17911   4.410   3.023   1.803
 5822SOL    HW117912   4.470   3.102   1.817
 5822SOL    HW217913   4.324   3.054   1.762
 5823SOL     OW17914   4.059   3.297   1.061
 5823SOL    HW117915   3.981   3.266   1.008
 5823SOL    HW217916   4.117   3.355   1.004
 5824SOL     OW17917   5.184   3.367   1.339
 5824SOL    HW117918   5.208   3.461   1.365
 5824SOL    HW217919   5.168   3.313   1.421
 5825SOL     OW17920   4.162   2.254   1.499
 5825SOL    HW117921   4.244   2.198   1.508
 5825SOL    HW217922   4.081   2.196   1.503
 5826SOL     OW17923   3.955   3.575   0.483
 5826SOL    HW117924   3.989   3.652   0.537
 5826SOL    HW217925   3.999   3.575   0.393
 5827SOL     OW17926   4.851   3.203   1.690
 5827SOL    HW117927   4.898   3.203   1.778
 5827SOL    HW217928   4.803   3.116   1.679
 5828SOL     OW17929   3.954   3.296   0.538
 5828SOL    HW117930   3.928   3.392   0.538
 5828SOL    HW217931   3.883   3.242   0.583
 5829SOL     OW17932   3.964   2.953   0.886
 5829SOL    HW117933   3.978   2.869   0.938
 5829SOL    HW217934   3.909   3.017   0.941
 5830SOL     OW17935   4.344   3.648   1.439
 5830SOL    HW117936   4.252   3.631   1.474
 5830SOL    HW217937   4.372   3.740   1.465
 5831SOL     OW17938   4.330   2.826   0.123
 5831SOL    HW117939   4.337   2.910   0.069
 5831SOL    HW217940   4.376   2.839   0.211
 5832SOL     OW17941   3.846   2.505   0.563
 5832SOL    HW117942   3.801   2.417   0.580
 5832SOL    HW217943   3.845   2.559   0.647
 5833SOL     OW17944   3.751   3.458   0.117
 5833SOL    HW117945   3.732   3.362   0.138
 5833SOL    HW217946   3.718   3.516   0.192
 5834SOL     OW17947   5.413   2.784   0.612
 5834SOL    HW117948   5.508   2.755   0.620
 5834SOL    HW217949   5.405   2.849   0.537
 5835SOL     OW17950   3.837   2.599   1.597
 5835SOL    HW117951   3.925   2.586   1.642
 5835SOL    HW217952   3.824   2.696   1.575
 5836SOL     OW17953   4.337   3.227   0.726
 5836SOL    HW117954   4.288   3.140   0.735
 5836SOL    HW217955   4.314   3.270   0.639
 5837SOL     OW17956   5.017   3.090   1.423
 5837SOL    HW117957   5.054   3.017   1.365
 5837SOL    HW217958   5.069   3.095   1.508
 5838SOL     OW17959   4.533   1.866   0.502
 5838SOL    HW117960   4.573   1.957   0.493
 5838SOL    HW217961   4.433   1.874   0.508
 5839SOL     OW17962   3.921   2.838   1.264
 5839SOL    HW117963   4.010   2.793   1.250
 5839SOL    HW217964   3.848   2.773   1.245
 5840SOL     OW17965   4.911   3.654   1.616
 5840SOL    HW117966   4.935   3.714   1.540
 5840SOL    HW217967   4.918   3.559   1.586
 5841SOL     OW17968   4.041   2.113   1.801
 5841SOL    HW117969   4.112   2.184   1.807
 5841SOL    HW217970   3.953   2.152   1.829
 5842SOL     OW17971   5.190   3.279   0.953
 5842SOL    HW117972   5.131   3.285   1.033
 5842SOL    HW217973   5.175   3.191   0.907
 5843SOL     OW17974   4.322   2.591   0.270
 5843SOL    HW117975   4.346   2.660   0.202
 5843SOL    HW217976   4.244   2.624   0.324
 5844SOL     OW17977   5.005   2.207   0.944
 5844SOL    HW117978   4.919   2.157   0.931
 5844SOL    HW217979   5.067   2.153   1.000
 5845SOL     OW17980   4.531   2.467   1.465
 5845SOL    HW117981   4.484   2.464   1.554
 5845SOL    HW217982   4.480   2.412   1.399
 5846SOL     OW17983   5.118   2.331   1.674
 5846SOL    HW117984   5.098   2.374   1.762
 5846SOL    HW217985   5.196   2.269   1.683
 5847SOL     OW17986   4.697   2.752   1.572
 5847SOL    HW117987   4.743   2.668   1.543
 5847SOL    HW217988   4.641   2.786   1.497
 5848SOL     OW17989   4.715   2.272   1.242
 5848SOL    HW117990   4.638   2.306   1.296
 5848SOL    HW217991   4.681   2.221   1.163
 5849SOL     OW17992   4.765   2.563   0.429
 5849SOL    HW117993   4.791   2.559   0.525
 5849SOL    HW217994   4.680   2.512   0.415
 5850SOL     OW17995   3.800   2.673   0.789
 5850SOL    HW117996   3.899   2.661   0.798
 5850SOL    HW217997   3.776   2.768   0.810
 5851SOL     OW17998   3.854   3.683   1.571
 5851SOL    HW117999   3.844   3.668   1.670
 5851SOL    HW218000   3.768   3.719   1.535
 5852SOL     OW18001   4.589   2.210   0.195
 5852SOL    HW118002   4.648   2.273   0.146
 5852SOL    HW218003   4.608   2.116   0.166
 5853SOL     OW18004   5.086   3.006   0.545
 5853SOL    HW118005   5.169   2.977   0.497
 5853SOL    HW218006   5.037   3.073   0.489
 5854SOL     OW18007   4.274   2.058   0.885
 5854SOL    HW118008   4.269   2.053   0.985
 5854SOL    HW218009   4.276   2.154   0.856
 5855SOL     OW18010   4.732   3.318   0.477
 5855SOL    HW118011   4.686   3.390   0.425
 5855SOL    HW218012   4.728   3.338   0.575
 5856SOL     OW18013   4.075   3.663   0.853
 5856SOL    HW118014   4.125   3.577   0.859
 5856SOL    HW218015   4.140   3.740   0.850
 5857SOL     OW18016   4.951   3.412   1.506
 5857SOL    HW118017   4.957   3.335   1.570
 5857SOL    HW218018   4.899   3.386   1.426
 5858SOL     OW18019   4.045   2.805   0.242
 5858SOL    HW118020   4.127   2.844   0.200
 5858SOL    HW218021   4.018   2.723   0.193
 5859SOL     OW18022   4.185   3.128   1.727
 5859SOL    HW118023   4.135   3.129   1.641
 5859SOL    HW218024   4.122   3.110   1.803
 5860SOL     OW18025   4.835   3.638   0.237
 5860SOL    HW118026   4.775   3.576   0.287
 5860SOL    HW218027   4.866   3.594   0.152
 5861SOL     OW18028   3.926   2.147   1.498
 5861SOL    HW118029   3.846   2.207   1.485
 5861SOL    HW218030   3.916   2.098   1.584
 5862SOL     OW18031   4.188   3.605   0.323
 5862SOL    HW118032   4.221   3.644   0.409
 5862SOL    HW218033   4.264   3.598   0.258
 5863SOL     OW18034   5.124   1.969   0.426
 5863SOL    HW118035   5.100   1.932   0.336
 5863SOL    HW218036   5.223   1.985   0.430
 5864SOL     OW18037   3.973   3.647   1.241
 5864SOL    HW118038   4.030   3.582   1.291
 5864SOL    HW218039   3.957   3.614   1.148
 5865SOL     OW18040   4.664   3.560   0.904
 5865SOL    HW118041   4.744   3.503   0.925
 5865SOL    HW218042   4.615   3.520   0.827
 5866SOL     OW18043   4.106   2.562   0.480
 5866SOL    HW118044   4.151   2.472   0.477
 5866SOL    HW218045   4.012   2.551   0.513
 5867SOL     OW18046   4.338   1.984   0.117
 5867SOL    HW118047   4.436   1.962   0.124
 5867SOL    HW218048   4.307   1.967   0.024
 5868SOL     OW18049   4.505   2.126   1.749
 5868SOL    HW118050   4.572   2.065   1.792
 5868SOL    HW218051   4.432   2.145   1.814
 5869SOL     OW18052   4.612   3.376   1.195
 5869SOL    HW118053   4.589   3.351   1.101
 5869SOL    HW218054   4.673   3.307   1.234
 5870SOL     OW18055   5.075   2.452   1.433
 5870SOL    HW118056   5.103   2.409   1.518
 5870SOL    HW218057   5.100   2.548   1.434
 5871SOL     OW18058   4.527   3.264   0.924
 5871SOL    HW118059   4.617   3.278   0.882
 5871SOL    HW218060   4.456   3.266   0.853
 5872SOL     OW18061   4.646   2.365   0.899
 5872SOL    HW118062   4.621   2.356   0.803
 5872SOL    HW218063   4.694   2.283   0.930
 5873SOL     OW18064   4.263   1.926   0.512
 5873SOL    HW118065   4.182   1.927   0.570
 5873SOL    HW218066   4.266   2.009   0.457
 5874SOL     OW18067   5.158   3.050   0.041
 5874SOL    HW118068   5.190   2.974   0.098
 5874SOL    HW218069   5.066   3.077   0.071
 5875SOL     OW18070   4.021   1.897   0.171
 5875SOL    HW118071   4.070   1.981   0.150
 5875SOL    HW218072   4.083   1.832   0.216
 5876SOL     OW18073   4.659   2.098   0.480
 5876SOL    HW118074   4.611   2.139   0.402
 5876SOL    HW218075   4.758   2.096   0.461
 5877SOL     OW18076   4.800   2.545   1.464
 5877SOL    HW118077   4.720   2.484   1.467
 5877SOL    HW218078   4.881   2.492   1.440
 5878SOL     OW18079   4.951   3.432   0.793
 5878SOL    HW118080   4.972   3.506   0.728
 5878SOL    HW218081   5.019   3.432   0.866
 5879SOL     OW18082   4.183   3.014   0.741
 5879SOL    HW118083   4.112   2.987   0.806
 5879SOL    HW218084   4.157   2.986   0.648
 5880SOL     OW18085   4.995   3.659   0.591
 5880SOL    HW118086   5.039   3.723   0.527
 5880SOL    HW218087   4.945   3.711   0.661
 5881SOL     OW18088   4.756   2.411   0.016
 5881SOL    HW118089   4.715   2.493  -0.023
 5881SOL    HW218090   4.820   2.437   0.089
 5882SOL     OW18091   3.802   2.418   1.386
 5882SOL    HW118092   3.894   2.417   1.345
 5882SOL    HW218093   3.796   2.492   1.453
 5883SOL     OW18094   4.285   2.084   1.147
 5883SOL    HW118095   4.323   2.000   1.184
 5883SOL    HW218096   4.197   2.103   1.191
 5884SOL     OW18097   4.590   2.316   0.642
 5884SOL    HW118098   4.558   2.388   0.580
 5884SOL    HW218099   4.614   2.235   0.589
 5885SOL     OW18100   4.741   1.901   0.753
 5885SOL    HW118101   4.669   1.906   0.684
 5885SOL    HW218102   4.717   1.832   0.822
 5886SOL     OW18103   5.153   3.035   0.867
 5886SOL    HW118104   5.098   2.951   0.860
 5886SOL    HW218105   5.179   3.064   0.775
 5887SOL     OW18106   4.212   3.247   0.174
 5887SOL    HW118107   4.125   3.232   0.221
 5887SOL    HW218108   4.195   3.273   0.079
 5888SOL     OW18109   5.114   2.437   0.078
 5888SOL    HW118110   5.060   2.416   0.159
 5888SOL    HW218111   5.205   2.396   0.087
 5889SOL     OW18112   4.251   2.118   0.328
 5889SOL    HW118113   4.278   2.059   0.253
 5889SOL    HW218114   4.251   2.213   0.297
 5890SOL     OW18115   4.788   3.209   1.340
 5890SOL    HW118116   4.708   3.186   1.395
 5890SOL    HW218117   4.871   3.183   1.389
 5891SOL     OW18118   5.316   3.491   1.625
 5891SOL    HW118119   5.343   3.525   1.535
 5891SOL    HW218120   5.395   3.453   1.671
 5892SOL     OW18121   4.835   3.057   1.100
 5892SOL    HW118122   4.795   3.101   1.181
 5892SOL    HW218123   4.794   3.094   1.017
 5893SOL     OW18124   4.639   1.951   1.402
 5893SOL    HW118125   4.664   1.931   1.307
 5893SOL    HW218126   4.711   2.007   1.444
 5894SOL     OW18127   4.704   2.978   1.719
 5894SOL    HW118128   4.605   2.984   1.729
 5894SOL    HW218129   4.727   2.898   1.663
 5895SOL     OW18130   4.429   2.912   0.368
 5895SOL    HW118131   4.415   2.919   0.467
 5895SOL    HW218132   4.513   2.861   0.350
 5896SOL     OW18133   4.134   2.675   1.251
 5896SOL    HW118134   4.220   2.687   1.301
 5896SOL    HW218135   4.092   2.588   1.278
 5897SOL     OW18136   4.998   2.248   1.262
 5897SOL    HW118137   5.019   2.322   1.326
 5897SOL    HW218138   4.909   2.265   1.219
 5898SOL     OW18139   3.788   3.426   1.331
 5898SOL    HW118140   3.742   3.508   1.297
 5898SOL    HW218141   3.886   3.445   1.340
 5899SOL     OW18142   4.091   2.962   0.501
 5899SOL    HW118143   4.084   3.045   0.445
 5899SOL    HW218144   4.095   2.882   0.441
 5900SOL     OW18145   4.290   2.399   0.865
 5900SOL    HW118146   4.302   2.465   0.791
 5900SOL    HW218147   4.336   2.433   0.948
 5901SOL     OW18148   4.976   3.210   0.388
 5901SOL    HW118149   5.026   3.287   0.428
 5901SOL    HW218150   4.881   3.212   0.420
 5902SOL     OW18151   4.996   3.307   1.142
 5902SOL    HW118152   5.043   3.320   1.229
 5902SOL    HW218153   4.930   3.233   1.151
 5903SOL     OW18154   4.078   3.372   1.329
 5903SOL    HW118155   4.057   3.328   1.242
 5903SOL    HW218156   4.175   3.398   1.332
 5904SOL     OW18157   4.126   2.613   1.598
 5904SOL    HW118158   4.194   2.668   1.551
 5904SOL    HW218159   4.166   2.525   1.625
 5905SOL     OW18160   4.737   1.967   1.770
 5905SOL    HW118161   4.743   2.052   1.718
 5905SOL    HW218162   4.769   1.891   1.713
 5906SOL     OW18163   4.228   1.912   1.740
 5906SOL    HW118164   4.186   1.855   1.670
 5906SOL    HW218165   4.162   1.981   1.772
 5907SOL     OW18166   4.297   2.732   1.029
 5907SOL    HW118167   4.341   2.821   1.020
 5907SOL    HW218168   4.234   2.732   1.106
 5908SOL     OW18169   5.084   2.724   1.045
 5908SOL    HW118170   5.009   2.724   0.979
 5908SOL    HW218171   5.121   2.632   1.054
 5909SOL     OW18172   4.933   2.387   0.275
 5909SOL    HW118173   4.946   2.303   0.329
 5909SOL    HW218174   4.904   2.461   0.335
 5910SOL     OW18175   4.031   2.075   1.231
 5910SOL    HW118176   4.008   2.112   1.321
 5910SOL    HW218177   4.001   1.980   1.225
 5911SOL     OW18178   3.761   3.172   1.282
 5911SOL    HW118179   3.814   3.123   1.350
 5911SOL    HW218180   3.783   3.270   1.287
 5912SOL     OW18181   4.456   2.496   1.064
 5912SOL    HW118182   4.515   2.470   0.988
 5912SOL    HW218183   4.428   2.592   1.053
 5913SOL     OW18184   4.031   1.925   0.618
 5913SOL    HW118185   4.020   2.019   0.651
 5913SOL    HW218186   4.026   1.862   0.695
 5914SOL     OW18187   5.346   2.229   0.374
 5914SOL    HW118188   5.348   2.153   0.438
 5914SOL    HW218189   5.298   2.306   0.414
 5915SOL     OW18190   4.747   2.628   0.966
 5915SOL    HW118191   4.762   2.649   1.062
 5915SOL    HW218192   4.717   2.533   0.957
 5916SOL     OW18193   4.704   3.435   1.700
 5916SOL    HW118194   4.684   3.479   1.612
 5916SOL    HW218195   4.743   3.344   1.684
 5917SOL     OW18196   4.074   2.760   1.804
 5917SOL    HW118197   4.150   2.804   1.852
 5917SOL    HW218198   4.109   2.713   1.722
 5918SOL     OW18199   5.027   2.700   0.042
 5918SOL    HW118200   5.061   2.607   0.057
 5918SOL    HW218201   5.045   2.727  -0.053
 5919SOL     OW18202   4.792   3.195   0.849
 5919SOL    HW118203   4.799   3.111   0.794
 5919SOL    HW218204   4.854   3.264   0.813
 5920SOL     OW18205   4.043   2.672   0.949
 5920SOL    HW118206   4.136   2.708   0.954
 5920SOL    HW218207   4.037   2.587   1.001
 5921SOL     OW18208   4.063   2.371   1.006
 5921SOL    HW118209   4.011   2.288   0.989
 5921SOL    HW218210   4.140   2.376   0.942
 5922SOL     OW18211   4.862   2.242   1.678
 5922SOL    HW118212   4.817   2.305   1.742
 5922SOL    HW218213   4.955   2.273   1.661
 5923SOL     OW18214   4.884   2.069   1.477
 5923SOL    HW118215   4.884   2.133   1.554
 5923SOL    HW218216   4.912   2.117   1.394
 5924SOL     OW18217   3.732   3.188   0.200
 5924SOL    HW118218   3.639   3.209   0.169
 5924SOL    HW218219   3.742   3.089   0.213
 5925SOL     OW18220   3.812   3.663   0.927
 5925SOL    HW118221   3.770   3.577   0.900
 5925SOL    HW218222   3.906   3.666   0.893
 5926SOL     OW18223   4.228   3.430   0.910
 5926SOL    HW118224   4.294   3.504   0.919
 5926SOL    HW218225   4.272   3.351   0.868
 5927SOL     OW18226   4.726   2.658   1.238
 5927SOL    HW118227   4.767   2.626   1.324
 5927SOL    HW218228   4.630   2.631   1.235
 5928SOL     OW18229   3.764   2.406   1.114
 5928SOL    HW118230   3.849   2.373   1.073
 5928SOL    HW218231   3.777   2.421   1.212
 5929SOL     OW18232   3.913   2.382   1.722
 5929SOL    HW118233   3.972   2.342   1.652
 5929SOL    HW218234   3.855   2.453   1.681
 5930SOL     OW18235   5.093   2.812   1.660
 5930SOL    HW118236   5.132   2.901   1.680
 5930SOL    HW218237   5.103   2.792   1.563
 5931SOL     OW18238   4.539   2.434   0.325
 5931SOL    HW118239   4.546   2.345   0.279
 5931SOL    HW218240   4.445   2.468   0.317
 5932SOL     OW18241   3.976   3.426   1.744
 5932SOL    HW118242   3.946   3.483   1.820
 5932SOL    HW218243   3.969   3.329   1.770
 5933SOL     OW18244   4.395   2.326   1.269
 5933SOL    HW118245   4.361   2.237   1.239
 5933SOL    HW218246   4.421   2.380   1.189
 5934SOL     OW18247   4.654   3.540   1.465
 5934SOL    HW118248   4.630   3.522   1.370
 5934SOL    HW218249   4.684   3.634   1.475
 5935SOL     OW18250   4.197   2.362   0.191
 5935SOL    HW118251   4.258   2.442   0.195
 5935SOL    HW218252   4.102   2.393   0.198
 5936SOL     OW18253   3.883   2.999   1.466
 5936SOL    HW118254   3.905   2.938   1.542
 5936SOL    HW218255   3.893   2.950   1.380
 5937SOL     OW18256   5.071   2.921   1.234
 5937SOL    HW118257   5.095   2.858   1.160
 5937SOL    HW218258   4.981   2.961   1.216
 5938SOL     OW18259   5.026   2.717   0.309
 5938SOL    HW118260   4.940   2.686   0.351
 5938SOL    HW218261   5.022   2.703   0.210
 5939SOL     OW18262   4.976   3.593   1.128
 5939SOL    HW118263   5.060   3.598   1.074
 5939SOL    HW218264   4.953   3.497   1.146
 5940SOL     OW18265   3.807   3.120   1.022
 5940SOL    HW118266   3.802   3.119   1.122
 5940SOL    HW218267   3.724   3.079   0.984
 5941SOL     OW18268   4.412   3.524   1.716
 5941SOL    HW118269   4.356   3.605   1.725
 5941SOL    HW218270   4.464   3.528   1.630
 5942SOL     OW18271   4.627   1.948   0.133
 5942SOL    HW118272   4.678   1.949   0.047
 5942SOL    HW218273   4.683   1.906   0.204
 5943SOL     OW18274   5.450   1.997   0.523
 5943SOL    HW118275   5.523   1.980   0.456
 5943SOL    HW218276   5.419   1.910   0.561
 5944SOL     OW18277   5.112   3.435   0.477
 5944SOL    HW118278   5.179   3.447   0.403
 5944SOL    HW218279   5.072   3.524   0.500
 5945SOL     OW18280   3.854   3.656   1.851
 5945SOL    HW118281   3.813   3.582   1.904
 5945SOL    HW218282   3.918   3.707   1.909
 5946SOL     OW18283   5.004   2.789   0.672
 5946SOL    HW118284   5.064   2.708   0.674
 5946SOL    HW218285   5.044   2.858   0.612
 5947SOL     OW18286   4.554   3.135   1.422
 5947SOL    HW118287   4.549   3.168   1.517
 5947SOL    HW218288   4.468   3.154   1.376
 5948SOL     OW18289   4.396   3.478   0.154
 5948SOL    HW118290   4.405   3.488   0.055
 5948SOL    HW218291   4.356   3.389   0.175
 5949SOL     OW18292   3.987   2.188   0.720
 5949SOL    HW118293   3.908   2.239   0.686
 5949SOL    HW218294   3.978   2.173   0.818
 5950SOL     OW18295   4.918   3.474   0.031
 5950SOL    HW118296   4.924   3.381   0.068
 5950SOL    HW218297   4.859   3.474  -0.049
 5951SOL     OW18298   4.546   2.864   1.372
 5951SOL    HW118299   4.586   2.863   1.280
 5951SOL    HW218300   4.556   2.956   1.412
 5952SOL     OW18301   4.640   2.772   0.291
 5952SOL    HW118302   4.703   2.810   0.223
 5952SOL    HW218303   4.680   2.689   0.330
 5953SOL     OW18304   4.096   3.150   1.490
 5953SOL    HW118305   4.083   3.243   1.456
 5953SOL    HW218306   4.012   3.098   1.477
 5954SOL     OW18307   4.763   2.960   0.696
 5954SOL    HW118308   4.693   2.913   0.750
 5954SOL    HW218309   4.822   2.892   0.653
 5955SOL     OW18310   4.738   2.098   0.971
 5955SOL    HW118311   4.730   2.062   0.878
 5955SOL    HW218312   4.736   2.022   1.036
 5956SOL     OW18313   4.314   3.349   0.491
 5956SOL    HW118314   4.356   3.291   0.421
 5956SOL    HW218315   4.270   3.428   0.447
 5957SOL     OW18316   3.979   3.210   0.290
 5957SOL    HW118317   3.883   3.211   0.263
 5957SOL    HW218318   3.991   3.263   0.374
 5958SOL     OW18319   3.829   2.875   1.726
 5958SOL    HW118320   3.752   2.842   1.780
 5958SOL    HW218321   3.914   2.845   1.768
 5959SOL     OW18322   4.396   2.065   1.489
 5959SOL    HW118323   4.486   2.049   1.449
 5959SOL    HW218324   4.404   2.070   1.588
 5960SOL     OW18325   3.799   2.207   0.033
 5960SOL    HW118326   3.707   2.179   0.004
 5960SOL    HW218327   3.830   2.284  -0.023
 5961SOL     OW18328   5.164   2.718   1.398
 5961SOL    HW118329   5.107   2.770   1.335
 5961SOL    HW218330   5.260   2.730   1.374
 5962SOL     OW18331   3.796   2.028   0.318
 5962SOL    HW118332   3.779   2.111   0.264
 5962SOL    HW218333   3.886   1.991   0.296
 5963SOL     OW18334   4.907   3.197   0.119
 5963SOL    HW118335   4.808   3.186   0.121
 5963SOL    HW218336   4.941   3.212   0.212
 5964SOL     OW18337   4.337   2.704   1.431
 5964SOL    HW118338   4.393   2.785   1.414
 5964SOL    HW218339   4.396   2.624   1.434
 5965SOL     OW18340   4.440   2.427   1.708
 5965SOL    HW118341   4.459   2.492   1.782
 5965SOL    HW218342   4.500   2.347   1.717
 5966SOL     OW18343   5.174   3.082   1.633
 5966SOL    HW118344   5.165   3.072   1.732
 5966SOL    HW218345   5.270   3.075   1.607
 5967SOL     OW18346   4.114   3.603   1.560
 5967SOL    HW118347   4.023   3.644   1.558
 5967SOL    HW218348   4.107   3.509   1.592
 5968SOL     OW18349   4.949   2.187   0.449
 5968SOL    HW118350   5.014   2.113   0.438
 5968SOL    HW218351   4.969   2.237   0.533
 5969SOL     OW18352   4.318   2.607   0.652
 5969SOL    HW118353   4.368   2.692   0.633
 5969SOL    HW218354   4.230   2.609   0.604
 5970SOL     OW18355   4.583   3.236   0.016
 5970SOL    HW118356   4.537   3.251   0.104
 5970SOL    HW218357   4.627   3.321  -0.014
 5971SOL     OW18358   4.385   3.652   0.953
 5971SOL    HW118359   4.339   3.740   0.940
 5971SOL    HW218360   4.484   3.664   0.946
 5972SOL     OW18361   4.583   2.818   0.861
 5972SOL    HW118362   4.637   2.749   0.909
 5972SOL    HW218363   4.551   2.887   0.927
 5973SOL     OW18364   4.807   2.846   0.087
 5973SOL    HW118365   4.784   2.899   0.005
 5973SOL    HW218366   4.888   2.790   0.068
 5974SOL     OW18367   3.945   3.176   1.844
 5974SOL    HW118368   3.880   3.103   1.823
 5974SOL    HW218369   3.949   3.190   1.942
 5975SOL     OW18370   3.803   3.102   0.653
 5975SOL    HW118371   3.802   3.055   0.741
 5975SOL    HW218372   3.885   3.074   0.602
 5976SOL     OW18373   4.396   3.253   1.624
 5976SOL    HW118374   4.318   3.203   1.662
 5976SOL    HW218375   4.393   3.348   1.655
 5977SOL     OW18376   4.152   2.286   0.520
 5977SOL    HW118377   4.182   2.214   0.458
 5977SOL    HW218378   4.113   2.246   0.603
 5978SOL     OW18379   5.429   3.349   1.104
 5978SOL    HW118380   5.336   3.324   1.077
 5978SOL    HW218381   5.455   3.299   1.186
 5979SOL     OW18382   4.041   2.409   1.280
 5979SOL    HW118383   4.079   2.350   1.352
 5979SOL    HW218384   4.081   2.383   1.192
 5980SOL     OW18385   4.536   3.448   0.687
 5980SOL    HW118386   4.568   3.458   0.593
 5980SOL    HW218387   4.457   3.386   0.689
 5981SOL     OW18388   5.148   2.076   1.112
 5981SOL    HW118389   5.200   2.011   1.167
 5981SOL    HW218390   5.099   2.139   1.173
 5982SOL     OW18391   4.725   1.896   1.154
 5982SOL    HW118392   4.662   1.824   1.123
 5982SOL    HW218393   4.818   1.860   1.154
 5983SOL     OW18394   4.494   3.192   0.301
 5983SOL    HW118395   4.448   3.105   0.318
 5983SOL    HW218396   4.585   3.189   0.342
 5984SOL     OW18397   4.342   3.429   1.284
 5984SOL    HW118398   4.337   3.511   1.341
 5984SOL    HW218399   4.431   3.426   1.239
 5985SOL     OW18400   5.076   1.914   0.168
 5985SOL    HW118401   5.111   1.873   0.084
 5985SOL    HW218402   4.986   1.876   0.188
 5986SOL     OW18403   5.024   2.315   0.691
 5986SOL    HW118404   4.965   2.395   0.695
 5986SOL    HW218405   5.039   2.280   0.784
 5987SOL     OW18406   5.317   2.083   0.882
 5987SOL    HW118407   5.233   2.082   0.936
 5987SOL    HW218408   5.319   2.166   0.826
 5988SOL     OW18409   3.763   2.939   0.300
 5988SOL    HW118410   3.862   2.928   0.291
 5988SOL    HW218411   3.723   2.853   0.332
 5989SOL     OW18412   4.599   3.508   0.337
 5989SOL    HW118413   4.522   3.473   0.283
 5989SOL    HW218414   4.567   3.579   0.399
 5990SOL     OW18415   3.954   2.490   1.975
 5990SOL    HW118416   3.861   2.488   2.012
 5990SOL    HW218417   3.955   2.451   1.883
 5991SOL     OW18418   3.949   2.137   2.858
 5991SOL    HW118419   3.984   2.120   2.950
 5991SOL    HW218420   3.861   2.092   2.846
 5992SOL     OW18421   3.743   2.230   2.509
 5992SOL    HW118422   3.661   2.273   2.548
 5992SOL    HW218423   3.715   2.157   2.446
 5993SOL     OW18424   4.293   3.137   3.027
 5993SOL    HW118425   4.200   3.130   2.990
 5993SOL    HW218426   4.304   3.226   3.071
 5994SOL     OW18427   5.279   3.373   2.565
 5994SOL    HW118428   5.222   3.357   2.646
 5994SOL    HW218429   5.220   3.383   2.485
 5995SOL     OW18430   4.859   2.565   2.579
 5995SOL    HW118431   4.916   2.643   2.554
 5995SOL    HW218432   4.799   2.591   2.655
 5996SOL     OW18433   4.492   3.006   2.885
 5996SOL    HW118434   4.414   3.023   2.945
 5996SOL    HW218435   4.526   3.093   2.849
 5997SOL     OW18436   4.574   2.660   3.685
 5997SOL    HW118437   4.570   2.736   3.750
 5997SOL    HW218438   4.596   2.696   3.594
 5998SOL     OW18439   4.409   2.874   2.527
 5998SOL    HW118440   4.478   2.858   2.597
 5998SOL    HW218441   4.336   2.931   2.565
 5999SOL     OW18442   4.410   3.023   3.665
 5999SOL    HW118443   4.470   3.102   3.679
 5999SOL    HW218444   4.324   3.054   3.624
 6000SOL     OW18445   4.059   3.297   2.923
 6000SOL    HW118446   3.981   3.266   2.870
 6000SOL    HW218447   4.117   3.355   2.866
 6001SOL     OW18448   5.184   3.367   3.201
 6001SOL    HW118449   5.208   3.461   3.227
 6001SOL    HW218450   5.168   3.313   3.283
 6002SOL     OW18451   4.162   2.254   3.361
 6002SOL    HW118452   4.244   2.198   3.370
 6002SOL    HW218453   4.081   2.196   3.365
 6003SOL     OW18454   3.955   3.575   2.345
 6003SOL    HW118455   3.989   3.652   2.399
 6003SOL    HW218456   3.999   3.575   2.255
 6004SOL     OW18457   4.851   3.203   3.552
 6004SOL    HW118458   4.898   3.203   3.640
 6004SOL    HW218459   4.803   3.116   3.541
 6005SOL     OW18460   3.954   3.296   2.400
 6005SOL    HW118461   3.928   3.392   2.400
 6005SOL    HW218462   3.883   3.242   2.445
 6006SOL     OW18463   3.964   2.953   2.748
 6006SOL    HW118464   3.978   2.869   2.800
 6006SOL    HW218465   3.909   3.017   2.803
 6007SOL     OW18466   4.344   3.648   3.301
 6007SOL    HW118467   4.252   3.631   3.336
 6007SOL    HW218468   4.372   3.740   3.327
 6008SOL     OW18469   4.330   2.826   1.985
 6008SOL    HW118470   4.337   2.910   1.931
 6008SOL    HW218471   4.376   2.839   2.073
 6009SOL     OW18472   3.846   2.505   2.425
 6009SOL    HW118473   3.801   2.417   2.442
 6009SOL    HW218474   3.845   2.559   2.509
 6010SOL     OW18475   3.751   3.458   1.979
 6010SOL    HW118476   3.732   3.362   2.000
 6010SOL    HW218477   3.718   3.516   2.054
 6011SOL     OW18478   5.413   2.784   2.474
 6011SOL    HW118479   5.508   2.755   2.482
 6011SOL    HW218480   5.405   2.849   2.399
 6012SOL     OW18481   3.837   2.599   3.459
 6012SOL    HW118482   3.925   2.586   3.504
 6012SOL    HW218483   3.824   2.696   3.437
 6013SOL     OW18484   4.337   3.227   2.588
 6013SOL    HW118485   4.288   3.140   2.597
 6013SOL    HW218486   4.314   3.270   2.501
 6014SOL     OW18487   5.017   3.090   3.285
 6014SOL    HW118488   5.054   3.017   3.227
 6014SOL    HW218489   5.069   3.095   3.370
 6015SOL     OW18490   4.533   1.866   2.364
 6015SOL    HW118491   4.573   1.957   2.355
 6015SOL    HW218492   4.433   1.874   2.370
 6016SOL     OW18493   3.921   2.838   3.126
 6016SOL    HW118494   4.010   2.793   3.112
 6016SOL    HW218495   3.848   2.773   3.107
 6017SOL     OW18496   4.911   3.654   3.478
 6017SOL    HW118497   4.935   3.714   3.402
 6017SOL    HW218498   4.918   3.559   3.448
 6018SOL     OW18499   4.041   2.113   3.663
 6018SOL    HW118500   4.112   2.184   3.669
 6018SOL    HW218501   3.953   2.152   3.691
 6019SOL     OW18502   5.190   3.279   2.815
 6019SOL    HW118503   5.131   3.285   2.895
 6019SOL    HW218504   5.175   3.191   2.769
 6020SOL     OW18505   4.322   2.591   2.132
 6020SOL    HW118506   4.346   2.660   2.064
 6020SOL    HW218507   4.244   2.624   2.186
 6021SOL     OW18508   5.005   2.207   2.806
 6021SOL    HW118509   4.919   2.157   2.793
 6021SOL    HW218510   5.067   2.153   2.862
 6022SOL     OW18511   4.531   2.467   3.327
 6022SOL    HW118512   4.484   2.464   3.416
 6022SOL    HW218513   4.480   2.412   3.261
 6023SOL     OW18514   5.118   2.331   3.536
 6023SOL    HW118515   5.098   2.374   3.624
 6023SOL    HW218516   5.196   2.269   3.545
 6024SOL     OW18517   4.697   2.752   3.434
 6024SOL    HW118518   4.743   2.668   3.405
 6024SOL    HW218519   4.641   2.786   3.359
 6025SOL     OW18520   4.715   2.272   3.104
 6025SOL    HW118521   4.638   2.306   3.158
 6025SOL    HW218522   4.681   2.221   3.025
 6026SOL     OW18523   4.765   2.563   2.291
 6026SOL    HW118524   4.791   2.559   2.387
 6026SOL    HW218525   4.680   2.512   2.277
 6027SOL     OW18526   3.800   2.673   2.651
 6027SOL    HW118527   3.899   2.661   2.660
 6027SOL    HW218528   3.776   2.768   2.672
 6028SOL     OW18529   3.854   3.683   3.433
 6028SOL    HW118530   3.844   3.668   3.532
 6028SOL    HW218531   3.768   3.719   3.397
 6029SOL     OW18532   4.589   2.210   2.057
 6029SOL    HW118533   4.648   2.273   2.008
 6029SOL    HW218534   4.608   2.116   2.028
 6030SOL     OW18535   5.086   3.006   2.407
 6030SOL    HW118536   5.169   2.977   2.359
 6030SOL    HW218537   5.037   3.073   2.351
 6031SOL     OW18538   4.274   2.058   2.747
 6031SOL    HW118539   4.269   2.053   2.847
 6031SOL    HW218540   4.276   2.154   2.718
 6032SOL     OW18541   4.732   3.318   2.339
 6032SOL    HW118542   4.686   3.390   2.287
 6032SOL    HW218543   4.728   3.338   2.437
 6033SOL     OW18544   4.075   3.663   2.715
 6033SOL    HW118545   4.125   3.577   2.721
 6033SOL    HW218546   4.140   3.740   2.712
 6034SOL     OW18547   4.951   3.412   3.368
 6034SOL    HW118548   4.957   3.335   3.432
 6034SOL    HW218549   4.899   3.386   3.288
 6035SOL     OW18550   4.045   2.805   2.104
 6035SOL    HW118551   4.127   2.844   2.062
 6035SOL    HW218552   4.018   2.723   2.055
 6036SOL     OW18553   4.185   3.128   3.589
 6036SOL    HW118554   4.135   3.129   3.503
 6036SOL    HW218555   4.122   3.110   3.665
 6037SOL     OW18556   4.835   3.638   2.099
 6037SOL    HW118557   4.775   3.576   2.149
 6037SOL    HW218558   4.866   3.594   2.014
 6038SOL     OW18559   3.926   2.147   3.360
 6038SOL    HW118560   3.846   2.207   3.347
 6038SOL    HW218561   3.916   2.098   3.446
 6039SOL     OW18562   4.188   3.605   2.185
 6039SOL    HW118563   4.221   3.644   2.271
 6039SOL    HW218564   4.264   3.598   2.120
 6040SOL     OW18565   5.124   1.969   2.288
 6040SOL    HW118566   5.100   1.932   2.198
 6040SOL    HW218567   5.223   1.985   2.292
 6041SOL     OW18568   3.973   3.647   3.103
 6041SOL    HW118569   4.030   3.582   3.153
 6041SOL    HW218570   3.957   3.614   3.010
 6042SOL     OW18571   4.664   3.560   2.766
 6042SOL    HW118572   4.744   3.503   2.787
 6042SOL    HW218573   4.615   3.520   2.689
 6043SOL     OW18574   4.106   2.562   2.342
 6043SOL    HW118575   4.151   2.472   2.339
 6043SOL    HW218576   4.012   2.551   2.375
 6044SOL     OW18577   4.338   1.984   1.979
 6044SOL    HW118578   4.436   1.962   1.986
 6044SOL    HW218579   4.307   1.967   1.886
 6045SOL     OW18580   4.505   2.126   3.611
 6045SOL    HW118581   4.572   2.065   3.654
 6045SOL    HW218582   4.432   2.145   3.676
 6046SOL     OW18583   4.612   3.376   3.057
 6046SOL    HW118584   4.589   3.351   2.963
 6046SOL    HW218585   4.673   3.307   3.096
 6047SOL     OW18586   5.075   2.452   3.295
 6047SOL    HW118587   5.103   2.409   3.380
 6047SOL    HW218588   5.100   2.548   3.296
 6048SOL     OW18589   4.527   3.264   2.786
 6048SOL    HW118590   4.617   3.278   2.744
 6048SOL    HW218591   4.456   3.266   2.715
 6049SOL     OW18592   4.646   2.365   2.761
 6049SOL    HW118593   4.621   2.356   2.665
 6049SOL    HW218594   4.694   2.283   2.792
 6050SOL     OW18595   4.263   1.926   2.374
 6050SOL    HW118596   4.182   1.927   2.432
 6050SOL    HW218597   4.266   2.009   2.319
 6051SOL     OW18598   5.158   3.050   1.903
 6051SOL    HW118599   5.190   2.974   1.960
 6051SOL    HW218600   5.066   3.077   1.933
 6052SOL     OW18601   4.021   1.897   2.033
 6052SOL    HW118602   4.070   1.981   2.012
 6052SOL    HW218603   4.083   1.832   2.078
 6053SOL     OW18604   4.659   2.098   2.342
 6053SOL    HW118605   4.611   2.139   2.264
 6053SOL    HW218606   4.758   2.096   2.323
 6054SOL     OW18607   4.800   2.545   3.326
 6054SOL    HW118608   4.720   2.484   3.329
 6054SOL    HW218609   4.881   2.492   3.302
 6055SOL     OW18610   4.951   3.432   2.655
 6055SOL    HW118611   4.972   3.506   2.590
 6055SOL    HW218612   5.019   3.432   2.728
 6056SOL     OW18613   4.183   3.014   2.603
 6056SOL    HW118614   4.112   2.987   2.668
 6056SOL    HW218615   4.157   2.986   2.510
 6057SOL     OW18616   4.995   3.659   2.453
 6057SOL    HW118617   5.039   3.723   2.389
 6057SOL    HW218618   4.945   3.711   2.523
 6058SOL     OW18619   4.756   2.411   1.878
 6058SOL    HW118620   4.715   2.493   1.839
 6058SOL    HW218621   4.820   2.437   1.951
 6059SOL     OW18622   3.802   2.418   3.248
 6059SOL    HW118623   3.894   2.417   3.207
 6059SOL    HW218624   3.796   2.492   3.315
 6060SOL     OW18625   4.285   2.084   3.009
 6060SOL    HW118626   4.323   2.000   3.046
 6060SOL    HW218627   4.197   2.103   3.053
 6061SOL     OW18628   4.590   2.316   2.504
 6061SOL    HW118629   4.558   2.388   2.442
 6061SOL    HW218630   4.614   2.235   2.451
 6062SOL     OW18631   4.741   1.901   2.615
 6062SOL    HW118632   4.669   1.906   2.546
 6062SOL    HW218633   4.717   1.832   2.684
 6063SOL     OW18634   5.153   3.035   2.729
 6063SOL    HW118635   5.098   2.951   2.722
 6063SOL    HW218636   5.179   3.064   2.637
 6064SOL     OW18637   4.212   3.247   2.036
 6064SOL    HW118638   4.125   3.232   2.083
 6064SOL    HW218639   4.195   3.273   1.941
 6065SOL     OW18640   5.114   2.437   1.940
 6065SOL    HW118641   5.060   2.416   2.021
 6065SOL    HW218642   5.205   2.396   1.949
 6066SOL     OW18643   4.251   2.118   2.190
 6066SOL    HW118644   4.278   2.059   2.115
 6066SOL    HW218645   4.251   2.213   2.159
 6067SOL     OW18646   4.788   3.209   3.202
 6067SOL    HW118647   4.708   3.186   3.257
 6067SOL    HW218648   4.871   3.183   3.251
 6068SOL     OW18649   5.316   3.491   3.487
 6068SOL    HW118650   5.343   3.525   3.397
 6068SOL    HW218651   5.395   3.453   3.533
 6069SOL     OW18652   4.835   3.057   2.962
 6069SOL    HW118653   4.795   3.101   3.043
 6069SOL    HW218654   4.794   3.094   2.879
 6070SOL     OW18655   4.639   1.951   3.264
 6070SOL    HW118656   4.664   1.931   3.169
 6070SOL    HW218657   4.711   2.007   3.306
 6071SOL     OW18658   4.704   2.978   3.581
 6071SOL    HW118659   4.605   2.984   3.591
 6071SOL    HW218660   4.727   2.898   3.525
 6072SOL     OW18661   4.429   2.912   2.230
 6072SOL    HW118662   4.415   2.919   2.329
 6072SOL    HW218663   4.513   2.861   2.212
 6073SOL     OW18664   4.134   2.675   3.113
 6073SOL    HW118665   4.220   2.687   3.163
 6073SOL    HW218666   4.092   2.588   3.140
 6074SOL     OW18667   4.998   2.248   3.124
 6074SOL    HW118668   5.019   2.322   3.188
 6074SOL    HW218669   4.909   2.265   3.081
 6075SOL     OW18670   3.788   3.426   3.193
 6075SOL    HW118671   3.742   3.508   3.159
 6075SOL    HW218672   3.886   3.445   3.202
 6076SOL     OW18673   4.091   2.962   2.363
 6076SOL    HW118674   4.084   3.045   2.307
 6076SOL    HW218675   4.095   2.882   2.303
 6077SOL     OW18676   4.290   2.399   2.727
 6077SOL    HW118677   4.302   2.465   2.653
 6077SOL    HW218678   4.336   2.433   2.810
 6078SOL     OW18679   4.976   3.210   2.250
 6078SOL    HW118680   5.026   3.287   2.290
 6078SOL    HW218681   4.881   3.212   2.282
 6079SOL     OW18682   4.996   3.307   3.004
 6079SOL    HW118683   5.043   3.320   3.091
 6079SOL    HW218684   4.930   3.233   3.013
 6080SOL     OW18685   4.078   3.372   3.191
 6080SOL    HW118686   4.057   3.328   3.104
 6080SOL    HW218687   4.175   3.398   3.194
 6081SOL     OW18688   4.126   2.613   3.460
 6081SOL    HW118689   4.194   2.668   3.413
 6081SOL    HW218690   4.166   2.525   3.487
 6082SOL     OW18691   4.737   1.967   3.632
 6082SOL    HW118692   4.743   2.052   3.580
 6082SOL    HW218693   4.769   1.891   3.575
 6083SOL     OW18694   4.228   1.912   3.602
 6083SOL    HW118695   4.186   1.855   3.532
 6083SOL    HW218696   4.162   1.981   3.634
 6084SOL     OW18697   4.297   2.732   2.891
 6084SOL    HW118698   4.341   2.821   2.882
 6084SOL    HW218699   4.234   2.732   2.968
 6085SOL     OW18700   5.084   2.724   2.907
 6085SOL    HW118701   5.009   2.724   2.841
 6085SOL    HW218702   5.121   2.632   2.916
 6086SOL     OW18703   4.933   2.387   2.137
 6086SOL    HW118704   4.946   2.303   2.191
 6086SOL    HW218705   4.904   2.461   2.197
 6087SOL     OW18706   4.031   2.075   3.093
 6087SOL    HW118707   4.008   2.112   3.183
 6087SOL    HW218708   4.001   1.980   3.087
 6088SOL     OW18709   3.761   3.172   3.144
 6088SOL    HW118710   3.814   3.123   3.212
 6088SOL    HW218711   3.783   3.270   3.149
 6089SOL     OW18712   4.456   2.496   2.926
 6089SOL    HW118713   4.515   2.470   2.850
 6089SOL    HW218714   4.428   2.592   2.915
 6090SOL     OW18715   4.031   1.925   2.480
 6090SOL    HW118716   4.020   2.019   2.513
 6090SOL    HW218717   4.026   1.862   2.557
 6091SOL     OW18718   5.346   2.229   2.236
 6091SOL    HW118719   5.348   2.153   2.300
 6091SOL    HW218720   5.298   2.306   2.276
 6092SOL     OW18721   4.747   2.628   2.828
 6092SOL    HW118722   4.762   2.649   2.924
 6092SOL    HW218723   4.717   2.533   2.819
 6093SOL     OW18724   4.704   3.435   3.562
 6093SOL    HW118725   4.684   3.479   3.474
 6093SOL    HW218726   4.743   3.344   3.546
 6094SOL     OW18727   4.074   2.760   3.666
 6094SOL    HW118728   4.150   2.804   3.714
 6094SOL    HW218729   4.109   2.713   3.584
 6095SOL     OW18730   5.027   2.700   1.904
 6095SOL    HW118731   5.061   2.607   1.919
 6095SOL    HW218732   5.045   2.727   1.809
 6096SOL     OW18733   4.792   3.195   2.711
 6096SOL    HW118734   4.799   3.111   2.656
 6096SOL    HW218735   4.854   3.264   2.675
 6097SOL     OW18736   4.043   2.672   2.811
 6097SOL    HW118737   4.136   2.708   2.816
 6097SOL    HW218738   4.037   2.587   2.863
 6098SOL     OW18739   4.063   2.371   2.868
 6098SOL    HW118740   4.011   2.288   2.851
 6098SOL    HW218741   4.140   2.376   2.804
 6099SOL     OW18742   4.862   2.242   3.540
 6099SOL    HW118743   4.817   2.305   3.604
 6099SOL    HW218744   4.955   2.273   3.523
 6100SOL     OW18745   4.884   2.069   3.339
 6100SOL    HW118746   4.884   2.133   3.416
 6100SOL    HW218747   4.912   2.117   3.256
 6101SOL     OW18748   3.732   3.188   2.062
 6101SOL    HW118749   3.639   3.209   2.031
 6101SOL    HW218750   3.742   3.089   2.075
 6102SOL     OW18751   3.812   3.663   2.789
 6102SOL    HW118752   3.770   3.577   2.762
 6102SOL    HW218753   3.906   3.666   2.755
 6103SOL     OW18754   4.228   3.430   2.772
 6103SOL    HW118755   4.294   3.504   2.781
 6103SOL    HW218756   4.272   3.351   2.730
 6104SOL     OW18757   4.726   2.658   3.100
 6104SOL    HW118758   4.767   2.626   3.186
 6104SOL    HW218759   4.630   2.631   3.097
 6105SOL     OW18760   3.764   2.406   2.976
 6105SOL    HW118761   3.849   2.373   2.935
 6105SOL    HW218762   3.777   2.421   3.074
 6106SOL     OW18763   3.913   2.382   3.584
 6106SOL    HW118764   3.972   2.342   3.514
 6106SOL    HW218765   3.855   2.453   3.543
 6107SOL     OW18766   5.093   2.812   3.522
 6107SOL    HW118767   5.132   2.901   3.542
 6107SOL    HW218768   5.103   2.792   3.425
 6108SOL     OW18769   4.539   2.434   2.187
 6108SOL    HW118770   4.546   2.345   2.141
 6108SOL    HW218771   4.445   2.468   2.179
 6109SOL     OW18772   3.976   3.426   3.606
 6109SOL    HW118773   3.946   3.483   3.682
 6109SOL    HW218774   3.969   3.329   3.632
 6110SOL     OW18775   4.395   2.326   3.131
 6110SOL    HW118776   4.361   2.237   3.101
 6110SOL    HW218777   4.421   2.380   3.051
 6111SOL     OW18778   4.654   3.540   3.327
 6111SOL    HW118779   4.630   3.522   3.232
 6111SOL    HW218780   4.684   3.634   3.337
 6112SOL     OW18781   4.197   2.362   2.053
 6112SOL    HW118782   4.258   2.442   2.057
 6112SOL    HW218783   4.102   2.393   2.060
 6113SOL     OW18784   3.883   2.999   3.328
 6113SOL    HW118785   3.905   2.938   3.404
 6113SOL    HW218786   3.893   2.950   3.242
 6114SOL     OW18787   5.071   2.921   3.096
 6114SOL    HW118788   5.095   2.858   3.022
 6114SOL    HW218789   4.981   2.961   3.078
 6115SOL     OW18790   5.026   2.717   2.171
 6115SOL    HW118791   4.940   2.686   2.213
 6115SOL    HW218792   5.022   2.703   2.072
 6116SOL     OW18793   4.976   3.593   2.990
 6116SOL    HW118794   5.060   3.598   2.936
 6116SOL    HW218795   4.953   3.497   3.008
 6117SOL     OW18796   3.807   3.120   2.884
 6117SOL    HW118797   3.802   3.119   2.984
 6117SOL    HW218798   3.724   3.079   2.846
 6118SOL     OW18799   4.412   3.524   3.578
 6118SOL    HW118800   4.356   3.605   3.587
 6118SOL    HW218801   4.464   3.528   3.492
 6119SOL     OW18802   5.450   1.997   2.385
 6119SOL    HW118803   5.523   1.980   2.318
 6119SOL    HW218804   5.419   1.910   2.423
 6120SOL     OW18805   5.112   3.435   2.339
 6120SOL    HW118806   5.179   3.447   2.265
 6120SOL    HW218807   5.072   3.524   2.362
 6121SOL     OW18808   3.854   3.656   3.713
 6121SOL    HW118809   3.813   3.582   3.766
 6121SOL    HW218810   3.918   3.707   3.771
 6122SOL     OW18811   5.004   2.789   2.534
 6122SOL    HW118812   5.064   2.708   2.536
 6122SOL    HW218813   5.044   2.858   2.474
 6123SOL     OW18814   4.554   3.135   3.284
 6123SOL    HW118815   4.549   3.168   3.379
 6123SOL    HW218816   4.468   3.154   3.238
 6124SOL     OW18817   4.396   3.478   2.016
 6124SOL    HW118818   4.405   3.488   1.917
 6124SOL    HW218819   4.356   3.389   2.037
 6125SOL     OW18820   3.987   2.188   2.582
 6125SOL    HW118821   3.908   2.239   2.548
 6125SOL    HW218822   3.978   2.173   2.680
 6126SOL     OW18823   4.918   3.474   1.893
 6126SOL    HW118824   4.924   3.381   1.930
 6126SOL    HW218825   4.859   3.474   1.813
 6127SOL     OW18826   4.546   2.864   3.234
 6127SOL    HW118827   4.586   2.863   3.142
 6127SOL    HW218828   4.556   2.956   3.274
 6128SOL     OW18829   4.640   2.772   2.153
 6128SOL    HW118830   4.703   2.810   2.085
 6128SOL    HW218831   4.680   2.689   2.192
 6129SOL     OW18832   4.096   3.150   3.352
 6129SOL    HW118833   4.083   3.243   3.318
 6129SOL    HW218834   4.012   3.098   3.339
 6130SOL     OW18835   4.763   2.960   2.558
 6130SOL    HW118836   4.693   2.913   2.612
 6130SOL    HW218837   4.822   2.892   2.515
 6131SOL     OW18838   4.738   2.098   2.833
 6131SOL    HW118839   4.730   2.062   2.740
 6131SOL    HW218840   4.736   2.022   2.898
 6132SOL     OW18841   4.314   3.349   2.353
 6132SOL    HW118842   4.356   3.291   2.283
 6132SOL    HW218843   4.270   3.428   2.309
 6133SOL     OW18844   3.979   3.210   2.152
 6133SOL    HW118845   3.883   3.211   2.125
 6133SOL    HW218846   3.991   3.263   2.236
 6134SOL     OW18847   3.829   2.875   3.588
 6134SOL    HW118848   3.752   2.842   3.642
 6134SOL    HW218849   3.914   2.845   3.630
 6135SOL     OW18850   4.396   2.065   3.351
 6135SOL    HW118851   4.486   2.049   3.311
 6135SOL    HW218852   4.404   2.070   3.450
 6136SOL     OW18853   3.799   2.207   1.895
 6136SOL    HW118854   3.707   2.179   1.866
 6136SOL    HW218855   3.830   2.284   1.839
 6137SOL     OW18856   5.164   2.718   3.260
 6137SOL    HW118857   5.107   2.770   3.197
 6137SOL    HW218858   5.260   2.730   3.236
 6138SOL     OW18859   3.796   2.028   2.180
 6138SOL    HW118860   3.779   2.111   2.126
 6138SOL    HW218861   3.886   1.991   2.158
 6139SOL     OW18862   4.907   3.197   1.981
 6139SOL    HW118863   4.808   3.186   1.983
 6139SOL    HW218864   4.941   3.212   2.074
 6140SOL     OW18865   4.337   2.704   3.293
 6140SOL    HW118866   4.393   2.785   3.276
 6140SOL    HW218867   4.396   2.624   3.296
 6141SOL     OW18868   4.440   2.427   3.570
 6141SOL    HW118869   4.459   2.492   3.644
 6141SOL    HW218870   4.500   2.347   3.579
 6142SOL     OW18871   5.174   3.082   3.495
 6142SOL    HW118872   5.165   3.072   3.594
 6142SOL    HW218873   5.270   3.075   3.469
 6143SOL     OW18874   4.114   3.603   3.422
 6143SOL    HW118875   4.023   3.644   3.420
 6143SOL    HW218876   4.107   3.509   3.454
 6144SOL     OW18877   4.949   2.187   2.311
 6144SOL    HW118878   5.014   2.113   2.300
 6144SOL    HW218879   4.969   2.237   2.395
 6145SOL     OW18880   4.318   2.607   2.514
 6145SOL    HW118881   4.368   2.692   2.495
 6145SOL    HW218882   4.230   2.609   2.466
 6146SOL     OW18883   4.583   3.236   1.878
 6146SOL    HW118884   4.537   3.251   1.966
 6146SOL    HW218885   4.627   3.321   1.848
 6147SOL     OW18886   4.385   3.652   2.815
 6147SOL    HW118887   4.339   3.740   2.802
 6147SOL    HW218888   4.484   3.664   2.808
 6148SOL     OW18889   4.583   2.818   2.723
 6148SOL    HW118890   4.637   2.749   2.771
 6148SOL    HW218891   4.551   2.887   2.789
 6149SOL     OW18892   4.807   2.846   1.949
 6149SOL    HW118893   4.784   2.899   1.867
 6149SOL    HW218894   4.888   2.790   1.930
 6150SOL     OW18895   3.945   3.176   3.706
 6150SOL    HW118896   3.880   3.103   3.685
 6150SOL    HW218897   3.949   3.190   3.804
 6151SOL     OW18898   3.803   3.102   2.515
 6151SOL    HW118899   3.802   3.055   2.603
 6151SOL    HW218900   3.885   3.074   2.464
 6152SOL     OW18901   4.396   3.253   3.486
 6152SOL    HW118902   4.318   3.203   3.524
 6152SOL    HW218903   4.393   3.348   3.517
 6153SOL     OW18904   4.152   2.286   2.382
 6153SOL    HW118905   4.182   2.214   2.320
 6153SOL    HW218906   4.113   2.246   2.465
 6154SOL     OW18907   5.429   3.349   2.966
 6154SOL    HW118908   5.336   3.324   2.939
 6154SOL    HW218909   5.455   3.299   3.048
 6155SOL     OW18910   4.041   2.409   3.142
 6155SOL    HW118911   4.079   2.350   3.214
 6155SOL    HW218912   4.081   2.383   3.054
 6156SOL     OW18913   4.536   3.448   2.549
 6156SOL    HW118914   4.568   3.458   2.455
 6156SOL    HW218915   4.457   3.386   2.551
 6157SOL     OW18916   5.148   2.076   2.974
 6157SOL    HW118917   5.200   2.011   3.029
 6157SOL    HW218918   5.099   2.139   3.035
 6158SOL     OW18919   4.725   1.896   3.016
 6158SOL    HW118920   4.662   1.824   2.985
 6158SOL    HW218921   4.818   1.860   3.016
 6159SOL     OW18922   4.494   3.192   2.163
 6159SOL    HW118923   4.448   3.105   2.180
 6159SOL    HW218924   4.585   3.189   2.204
 6160SOL     OW18925   4.342   3.429   3.146
 6160SOL    HW118926   4.337   3.511   3.203
 6160SOL    HW218927   4.431   3.426   3.101
 6161SOL     OW18928   5.076   1.914   2.030
 6161SOL    HW118929   5.111   1.873   1.946
 6161SOL    HW218930   4.986   1.876   2.050
 6162SOL     OW18931   5.024   2.315   2.553
 6162SOL    HW118932   4.965   2.395   2.557
 6162SOL    HW218933   5.039   2.280   2.646
 6163SOL     OW18934   5.317   2.083   2.744
 6163SOL    HW118935   5.233   2.082   2.798
 6163SOL    HW218936   5.319   2.166   2.688
 6164SOL     OW18937   3.763   2.939   2.162
 6164SOL    HW118938   3.862   2.928   2.153
 6164SOL    HW218939   3.723   2.853   2.194
 6165SOL     OW18940   4.599   3.508   2.199
 6165SOL    HW118941   4.522   3.473   2.145
 6165SOL    HW218942   4.567   3.579   2.261
 6166SOL     OW18943   3.954   2.490   3.837
 6166SOL    HW118944   3.861   2.488   3.874
 6166SOL    HW218945   3.955   2.451   3.745
 6167SOL     OW18946   3.949   2.137   4.720
 6167SOL    HW118947   3.984   2.120   4.812
 6167SOL    HW218948   3.861   2.092   4.708
 6168SOL     OW18949   3.743   2.230   4.371
 6168SOL    HW118950   3.661   2.273   4.410
 6168SOL    HW218951   3.715   2.157   4.308
 6169SOL     OW18952   4.293   3.137   4.889
 6169SOL    HW118953   4.200   3.130   4.852
 6169SOL    HW218954   4.304   3.226   4.933
 6170SOL     OW18955   5.279   3.373   4.427
 6170SOL    HW118956   5.222   3.357   4.508
 6170SOL    HW218957   5.220   3.383   4.347
 6171SOL     OW18958   4.859   2.565   4.441
 6171SOL    HW118959   4.916   2.643   4.416
 6171SOL    HW218960   4.799   2.591   4.517
 6172SOL     OW18961   4.492   3.006   4.747
 6172SOL    HW118962   4.414   3.023   4.807
 6172SOL    HW218963   4.526   3.093   4.711
 6173SOL     OW18964   4.574   2.660   5.547
 6173SOL    HW118965   4.570   2.736   5.612
 6173SOL    HW218966   4.596   2.696   5.456
 6174SOL     OW18967   4.409   2.874   4.389
 6174SOL    HW118968   4.478   2.858   4.459
 6174SOL    HW218969   4.336   2.931   4.427
 6175SOL     OW18970   4.410   3.023   5.527
 6175SOL    HW118971   4.470   3.102   5.541
 6175SOL    HW218972   4.324   3.054   5.486
 6176SOL     OW18973   4.059   3.297   4.785
 6176SOL    HW118974   3.981   3.266   4.732
 6176SOL    HW218975   4.117   3.355   4.728
 6177SOL     OW18976   5.184   3.367   5.063
 6177SOL    HW118977   5.208   3.461   5.089
 6177SOL    HW218978   5.168   3.313   5.145
 6178SOL     OW18979   4.162   2.254   5.223
 6178SOL    HW118980   4.244   2.198   5.232
 6178SOL    HW218981   4.081   2.196   5.227
 6179SOL     OW18982   3.955   3.575   4.207
 6179SOL    HW118983   3.989   3.652   4.261
 6179SOL    HW218984   3.999   3.575   4.117
 6180SOL     OW18985   4.851   3.203   5.414
 6180SOL    HW118986   4.898   3.203   5.502
 6180SOL    HW218987   4.803   3.116   5.403
 6181SOL     OW18988   3.954   3.296   4.262
 6181SOL    HW118989   3.928   3.392   4.262
 6181SOL    HW218990   3.883   3.242   4.307
 6182SOL     OW18991   3.964   2.953   4.610
 6182SOL    HW118992   3.978   2.869   4.662
 6182SOL    HW218993   3.909   3.017   4.665
 6183SOL     OW18994   4.344   3.648   5.163
 6183SOL    HW118995   4.252   3.631   5.198
 6183SOL    HW218996   4.372   3.740   5.189
 6184SOL     OW18997   4.330   2.826   3.847
 6184SOL    HW118998   4.337   2.910   3.793
 6184SOL    HW218999   4.376   2.839   3.935
 6185SOL     OW19000   3.846   2.505   4.287
 6185SOL    HW119001   3.801   2.417   4.304
 6185SOL    HW219002   3.845   2.559   4.371
 6186SOL     OW19003   3.751   3.458   3.841
 6186SOL    HW119004   3.732   3.362   3.862
 6186SOL    HW219005   3.718   3.516   3.916
 6187SOL     OW19006   5.413   2.784   4.336
 6187SOL    HW119007   5.508   2.755   4.344
 6187SOL    HW219008   5.405   2.849   4.261
 6188SOL     OW19009   3.837   2.599   5.321
 6188SOL    HW119010   3.925   2.586   5.366
 6188SOL    HW219011   3.824   2.696   5.299
 6189SOL     OW19012   4.337   3.227   4.450
 6189SOL    HW119013   4.288   3.140   4.459
 6189SOL    HW219014   4.314   3.270   4.363
 6190SOL     OW19015   5.017   3.090   5.147
 6190SOL    HW119016   5.054   3.017   5.089
 6190SOL    HW219017   5.069   3.095   5.232
 6191SOL     OW19018   4.533   1.866   4.226
 6191SOL    HW119019   4.573   1.957   4.217
 6191SOL    HW219020   4.433   1.874   4.232
 6192SOL     OW19021   3.921   2.838   4.988
 6192SOL    HW119022   4.010   2.793   4.974
 6192SOL    HW219023   3.848   2.773   4.969
 6193SOL     OW19024   4.911   3.654   5.340
 6193SOL    HW119025   4.935   3.714   5.264
 6193SOL    HW219026   4.918   3.559   5.310
 6194SOL     OW19027   4.041   2.113   5.525
 6194SOL    HW119028   4.112   2.184   5.531
 6194SOL    HW219029   3.953   2.152   5.553
 6195SOL     OW19030   5.190   3.279   4.677
 6195SOL    HW119031   5.131   3.285   4.757
 6195SOL    HW219032   5.175   3.191   4.631
 6196SOL     OW19033   4.322   2.591   3.994
 6196SOL    HW119034   4.346   2.660   3.926
 6196SOL    HW219035   4.244   2.624   4.048
 6197SOL     OW19036   5.005   2.207   4.668
 6197SOL    HW119037   4.919   2.157   4.655
 6197SOL    HW219038   5.067   2.153   4.724
 6198SOL     OW19039   4.531   2.467   5.189
 6198SOL    HW119040   4.484   2.464   5.278
 6198SOL    HW219041   4.480   2.412   5.123
 6199SOL     OW19042   5.118   2.331   5.398
 6199SOL    HW119043   5.098   2.374   5.486
 6199SOL    HW219044   5.196   2.269   5.407
 6200SOL     OW19045   4.697   2.752   5.296
 6200SOL    HW119046   4.743   2.668   5.267
 6200SOL    HW219047   4.641   2.786   5.221
 6201SOL     OW19048   4.715   2.272   4.966
 6201SOL    HW119049   4.638   2.306   5.020
 6201SOL    HW219050   4.681   2.221   4.887
 6202SOL     OW19051   4.765   2.563   4.153
 6202SOL    HW119052   4.791   2.559   4.249
 6202SOL    HW219053   4.680   2.512   4.139
 6203SOL     OW19054   3.800   2.673   4.513
 6203SOL    HW119055   3.899   2.661   4.522
 6203SOL    HW219056   3.776   2.768   4.534
 6204SOL     OW19057   3.854   3.683   5.295
 6204SOL    HW119058   3.844   3.668   5.394
 6204SOL    HW219059   3.768   3.719   5.259
 6205SOL     OW19060   4.589   2.210   3.919
 6205SOL    HW119061   4.648   2.273   3.870
 6205SOL    HW219062   4.608   2.116   3.890
 6206SOL     OW19063   5.086   3.006   4.269
 6206SOL    HW119064   5.169   2.977   4.221
 6206SOL    HW219065   5.037   3.073   4.213
 6207SOL     OW19066   4.274   2.058   4.609
 6207SOL    HW119067   4.269   2.053   4.709
 6207SOL    HW219068   4.276   2.154   4.580
 6208SOL     OW19069   4.732   3.318   4.201
 6208SOL    HW119070   4.686   3.390   4.149
 6208SOL    HW219071   4.728   3.338   4.299
 6209SOL     OW19072   4.075   3.663   4.577
 6209SOL    HW119073   4.125   3.577   4.583
 6209SOL    HW219074   4.140   3.740   4.574
 6210SOL     OW19075   4.951   3.412   5.230
 6210SOL    HW119076   4.957   3.335   5.294
 6210SOL    HW219077   4.899   3.386   5.150
 6211SOL     OW19078   4.045   2.805   3.966
 6211SOL    HW119079   4.127   2.844   3.924
 6211SOL    HW219080   4.018   2.723   3.917
 6212SOL     OW19081   4.185   3.128   5.451
 6212SOL    HW119082   4.135   3.129   5.365
 6212SOL    HW219083   4.122   3.110   5.527
 6213SOL     OW19084   4.835   3.638   3.961
 6213SOL    HW119085   4.775   3.576   4.011
 6213SOL    HW219086   4.866   3.594   3.876
 6214SOL     OW19087   3.926   2.147   5.222
 6214SOL    HW119088   3.846   2.207   5.209
 6214SOL    HW219089   3.916   2.098   5.308
 6215SOL     OW19090   4.188   3.605   4.047
 6215SOL    HW119091   4.221   3.644   4.133
 6215SOL    HW219092   4.264   3.598   3.982
 6216SOL     OW19093   5.124   1.969   4.150
 6216SOL    HW119094   5.100   1.932   4.060
 6216SOL    HW219095   5.223   1.985   4.154
 6217SOL     OW19096   3.973   3.647   4.965
 6217SOL    HW119097   4.030   3.582   5.015
 6217SOL    HW219098   3.957   3.614   4.872
 6218SOL     OW19099   4.664   3.560   4.628
 6218SOL    HW119100   4.744   3.503   4.649
 6218SOL    HW219101   4.615   3.520   4.551
 6219SOL     OW19102   4.106   2.562   4.204
 6219SOL    HW119103   4.151   2.472   4.201
 6219SOL    HW219104   4.012   2.551   4.237
 6220SOL     OW19105   4.338   1.984   3.841
 6220SOL    HW119106   4.436   1.962   3.848
 6220SOL    HW219107   4.307   1.967   3.748
 6221SOL     OW19108   4.505   2.126   5.473
 6221SOL    HW119109   4.572   2.065   5.516
 6221SOL    HW219110   4.432   2.145   5.538
 6222SOL     OW19111   4.612   3.376   4.919
 6222SOL    HW119112   4.589   3.351   4.825
 6222SOL    HW219113   4.673   3.307   4.958
 6223SOL     OW19114   5.075   2.452   5.157
 6223SOL    HW119115   5.103   2.409   5.242
 6223SOL    HW219116   5.100   2.548   5.158
 6224SOL     OW19117   4.527   3.264   4.648
 6224SOL    HW119118   4.617   3.278   4.606
 6224SOL    HW219119   4.456   3.266   4.577
 6225SOL     OW19120   4.646   2.365   4.623
 6225SOL    HW119121   4.621   2.356   4.527
 6225SOL    HW219122   4.694   2.283   4.654
 6226SOL     OW19123   4.263   1.926   4.236
 6226SOL    HW119124   4.182   1.927   4.294
 6226SOL    HW219125   4.266   2.009   4.181
 6227SOL     OW19126   5.158   3.050   3.765
 6227SOL    HW119127   5.190   2.974   3.822
 6227SOL    HW219128   5.066   3.077   3.795
 6228SOL     OW19129   4.021   1.897   3.895
 6228SOL    HW119130   4.070   1.981   3.874
 6228SOL    HW219131   4.083   1.832   3.940
 6229SOL     OW19132   4.659   2.098   4.204
 6229SOL    HW119133   4.611   2.139   4.126
 6229SOL    HW219134   4.758   2.096   4.185
 6230SOL     OW19135   4.800   2.545   5.188
 6230SOL    HW119136   4.720   2.484   5.191
 6230SOL    HW219137   4.881   2.492   5.164
 6231SOL     OW19138   4.951   3.432   4.517
 6231SOL    HW119139   4.972   3.506   4.452
 6231SOL    HW219140   5.019   3.432   4.590
 6232SOL     OW19141   4.183   3.014   4.465
 6232SOL    HW119142   4.112   2.987   4.530
 6232SOL    HW219143   4.157   2.986   4.372
 6233SOL     OW19144   4.995   3.659   4.315
 6233SOL    HW119145   5.039   3.723   4.251
 6233SOL    HW219146   4.945   3.711   4.385
 6234SOL     OW19147   4.756   2.411   3.740
 6234SOL    HW119148   4.715   2.493   3.701
 6234SOL    HW219149   4.820   2.437   3.813
 6235SOL     OW19150   3.802   2.418   5.110
 6235SOL    HW119151   3.894   2.417   5.069
 6235SOL    HW219152   3.796   2.492   5.177
 6236SOL     OW19153   4.285   2.084   4.871
 6236SOL    HW119154   4.323   2.000   4.908
 6236SOL    HW219155   4.197   2.103   4.915
 6237SOL     OW19156   4.590   2.316   4.366
 6237SOL    HW119157   4.558   2.388   4.304
 6237SOL    HW219158   4.614   2.235   4.313
 6238SOL     OW19159   4.741   1.901   4.477
 6238SOL    HW119160   4.669   1.906   4.408
 6238SOL    HW219161   4.717   1.832   4.546
 6239SOL     OW19162   5.153   3.035   4.591
 6239SOL    HW119163   5.098   2.951   4.584
 6239SOL    HW219164   5.179   3.064   4.499
 6240SOL     OW19165   4.212   3.247   3.898
 6240SOL    HW119166   4.125   3.232   3.945
 6240SOL    HW219167   4.195   3.273   3.803
 6241SOL     OW19168   5.114   2.437   3.802
 6241SOL    HW119169   5.060   2.416   3.883
 6241SOL    HW219170   5.205   2.396   3.811
 6242SOL     OW19171   4.251   2.118   4.052
 6242SOL    HW119172   4.278   2.059   3.977
 6242SOL    HW219173   4.251   2.213   4.021
 6243SOL     OW19174   4.788   3.209   5.064
 6243SOL    HW119175   4.708   3.186   5.119
 6243SOL    HW219176   4.871   3.183   5.113
 6244SOL     OW19177   5.316   3.491   5.349
 6244SOL    HW119178   5.343   3.525   5.259
 6244SOL    HW219179   5.395   3.453   5.395
 6245SOL     OW19180   4.835   3.057   4.824
 6245SOL    HW119181   4.795   3.101   4.905
 6245SOL    HW219182   4.794   3.094   4.741
 6246SOL     OW19183   4.639   1.951   5.126
 6246SOL    HW119184   4.664   1.931   5.031
 6246SOL    HW219185   4.711   2.007   5.168
 6247SOL     OW19186   4.704   2.978   5.443
 6247SOL    HW119187   4.605   2.984   5.453
 6247SOL    HW219188   4.727   2.898   5.387
 6248SOL     OW19189   4.429   2.912   4.092
 6248SOL    HW119190   4.415   2.919   4.191
 6248SOL    HW219191   4.513   2.861   4.074
 6249SOL     OW19192   4.134   2.675   4.975
 6249SOL    HW119193   4.220   2.687   5.025
 6249SOL    HW219194   4.092   2.588   5.002
 6250SOL     OW19195   4.998   2.248   4.986
 6250SOL    HW119196   5.019   2.322   5.050
 6250SOL    HW219197   4.909   2.265   4.943
 6251SOL     OW19198   3.788   3.426   5.055
 6251SOL    HW119199   3.742   3.508   5.021
 6251SOL    HW219200   3.886   3.445   5.064
 6252SOL     OW19201   4.091   2.962   4.225
 6252SOL    HW119202   4.084   3.045   4.169
 6252SOL    HW219203   4.095   2.882   4.165
 6253SOL     OW19204   4.290   2.399   4.589
 6253SOL    HW119205   4.302   2.465   4.515
 6253SOL    HW219206   4.336   2.433   4.672
 6254SOL     OW19207   4.976   3.210   4.112
 6254SOL    HW119208   5.026   3.287   4.152
 6254SOL    HW219209   4.881   3.212   4.144
 6255SOL     OW19210   4.996   3.307   4.866
 6255SOL    HW119211   5.043   3.320   4.953
 6255SOL    HW219212   4.930   3.233   4.875
 6256SOL     OW19213   4.078   3.372   5.053
 6256SOL    HW119214   4.057   3.328   4.966
 6256SOL    HW219215   4.175   3.398   5.056
 6257SOL     OW19216   4.126   2.613   5.322
 6257SOL    HW119217   4.194   2.668   5.275
 6257SOL    HW219218   4.166   2.525   5.349
 6258SOL     OW19219   4.737   1.967   5.494
 6258SOL    HW119220   4.743   2.052   5.442
 6258SOL    HW219221   4.769   1.891   5.437
 6259SOL     OW19222   4.228   1.912   5.464
 6259SOL    HW119223   4.186   1.855   5.394
 6259SOL    HW219224   4.162   1.981   5.496
 6260SOL     OW19225   4.297   2.732   4.753
 6260SOL    HW119226   4.341   2.821   4.744
 6260SOL    HW219227   4.234   2.732   4.830
 6261SOL     OW19228   5.084   2.724   4.769
 6261SOL    HW119229   5.009   2.724   4.703
 6261SOL    HW219230   5.121   2.632   4.778
 6262SOL     OW19231   4.933   2.387   3.999
 6262SOL    HW119232   4.946   2.303   4.053
 6262SOL    HW219233   4.904   2.461   4.059
 6263SOL     OW19234   4.031   2.075   4.955
 6263SOL    HW119235   4.008   2.112   5.045
 6263SOL    HW219236   4.001   1.980   4.949
 6264SOL     OW19237   3.761   3.172   5.006
 6264SOL    HW119238   3.814   3.123   5.074
 6264SOL    HW219239   3.783   3.270   5.011
 6265SOL     OW19240   4.456   2.496   4.788
 6265SOL    HW119241   4.515   2.470   4.712
 6265SOL    HW219242   4.428   2.592   4.777
 6266SOL     OW19243   4.031   1.925   4.342
 6266SOL    HW119244   4.020   2.019   4.375
 6266SOL    HW219245   4.026   1.862   4.419
 6267SOL     OW19246   5.346   2.229   4.098
 6267SOL    HW119247   5.348   2.153   4.162
 6267SOL    HW219248   5.298   2.306   4.138
 6268SOL     OW19249   4.747   2.628   4.690
 6268SOL    HW119250   4.762   2.649   4.786
 6268SOL    HW219251   4.717   2.533   4.681
 6269SOL     OW19252   4.704   3.435   5.424
 6269SOL    HW119253   4.684   3.479   5.336
 6269SOL    HW219254   4.743   3.344   5.408
 6270SOL     OW19255   4.074   2.760   5.528
 6270SOL    HW119256   4.150   2.804   5.576
 6270SOL    HW219257   4.109   2.713   5.446
 6271SOL     OW19258   5.027   2.700   3.766
 6271SOL    HW119259   5.061   2.607   3.781
 6271SOL    HW219260   5.045   2.727   3.671
 6272SOL     OW19261   4.792   3.195   4.573
 6272SOL    HW119262   4.799   3.111   4.518
 6272SOL    HW219263   4.854   3.264   4.537
 6273SOL     OW19264   4.043   2.672   4.673
 6273SOL    HW119265   4.136   2.708   4.678
 6273SOL    HW219266   4.037   2.587   4.725
 6274SOL     OW19267   4.063   2.371   4.730
 6274SOL    HW119268   4.011   2.288   4.713
 6274SOL    HW219269   4.140   2.376   4.666
 6275SOL     OW19270   4.862   2.242   5.402
 6275SOL    HW119271   4.817   2.305   5.466
 6275SOL    HW219272   4.955   2.273   5.385
 6276SOL     OW19273   4.884   2.069   5.201
 6276SOL    HW119274   4.884   2.133   5.278
 6276SOL    HW219275   4.912   2.117   5.118
 6277SOL     OW19276   3.732   3.188   3.924
 6277SOL    HW119277   3.639   3.209   3.893
 6277SOL    HW219278   3.742   3.089   3.937
 6278SOL     OW19279   3.812   3.663   4.651
 6278SOL    HW119280   3.770   3.577   4.624
 6278SOL    HW219281   3.906   3.666   4.617
 6279SOL     OW19282   4.228   3.430   4.634
 6279SOL    HW119283   4.294   3.504   4.643
 6279SOL    HW219284   4.272   3.351   4.592
 6280SOL     OW19285   4.726   2.658   4.962
 6280SOL    HW119286   4.767   2.626   5.048
 6280SOL    HW219287   4.630   2.631   4.959
 6281SOL     OW19288   3.764   2.406   4.838
 6281SOL    HW119289   3.849   2.373   4.797
 6281SOL    HW219290   3.777   2.421   4.936
 6282SOL     OW19291   3.913   2.382   5.446
 6282SOL    HW119292   3.972   2.342   5.376
 6282SOL    HW219293   3.855   2.453   5.405
 6283SOL     OW19294   5.093   2.812   5.384
 6283SOL    HW119295   5.132   2.901   5.404
 6283SOL    HW219296   5.103   2.792   5.287
 6284SOL     OW19297   4.539   2.434   4.049
 6284SOL    HW119298   4.546   2.345   4.003
 6284SOL    HW219299   4.445   2.468   4.041
 6285SOL     OW19300   3.976   3.426   5.468
 6285SOL    HW119301   3.946   3.483   5.544
 6285SOL    HW219302   3.969   3.329   5.494
 6286SOL     OW19303   4.395   2.326   4.993
 6286SOL    HW119304   4.361   2.237   4.963
 6286SOL    HW219305   4.421   2.380   4.913
 6287SOL     OW19306   4.654   3.540   5.189
 6287SOL    HW119307   4.630   3.522   5.094
 6287SOL    HW219308   4.684   3.634   5.199
 6288SOL     OW19309   4.197   2.362   3.915
 6288SOL    HW119310   4.258   2.442   3.919
 6288SOL    HW219311   4.102   2.393   3.922
 6289SOL     OW19312   3.883   2.999   5.190
 6289SOL    HW119313   3.905   2.938   5.266
 6289SOL    HW219314   3.893   2.950   5.104
 6290SOL     OW19315   5.071   2.921   4.958
 6290SOL    HW119316   5.095   2.858   4.884
 6290SOL    HW219317   4.981   2.961   4.940
 6291SOL     OW19318   5.026   2.717   4.033
 6291SOL    HW119319   4.940   2.686   4.075
 6291SOL    HW219320   5.022   2.703   3.934
 6292SOL     OW19321   4.976   3.593   4.852
 6292SOL    HW119322   5.060   3.598   4.798
 6292SOL    HW219323   4.953   3.497   4.870
 6293SOL     OW19324   3.807   3.120   4.746
 6293SOL    HW119325   3.802   3.119   4.846
 6293SOL    HW219326   3.724   3.079   4.708
 6294SOL     OW19327   4.412   3.524   5.440
 6294SOL    HW119328   4.356   3.605   5.449
 6294SOL    HW219329   4.464   3.528   5.354
 6295SOL     OW19330   5.450   1.997   4.247
 6295SOL    HW119331   5.523   1.980   4.180
 6295SOL    HW219332   5.419   1.910   4.285
 6296SOL     OW19333   5.112   3.435   4.201
 6296SOL    HW119334   5.179   3.447   4.127
 6296SOL    HW219335   5.072   3.524   4.224
 6297SOL     OW19336   3.854   3.656   5.575
 6297SOL    HW119337   3.813   3.582   5.628
 6297SOL    HW219338   3.918   3.707   5.633
 6298SOL     OW19339   5.004   2.789   4.396
 6298SOL    HW119340   5.064   2.708   4.398
 6298SOL    HW219341   5.044   2.858   4.336
 6299SOL     OW19342   4.554   3.135   5.146
 6299SOL    HW119343   4.549   3.168   5.241
 6299SOL    HW219344   4.468   3.154   5.100
 6300SOL     OW19345   4.396   3.478   3.878
 6300SOL    HW119346   4.405   3.488   3.779
 6300SOL    HW219347   4.356   3.389   3.899
 6301SOL     OW19348   3.987   2.188   4.444
 6301SOL    HW119349   3.908   2.239   4.410
 6301SOL    HW219350   3.978   2.173   4.542
 6302SOL     OW19351   4.918   3.474   3.755
 6302SOL    HW119352   4.924   3.381   3.792
 6302SOL    HW219353   4.859   3.474   3.675
 6303SOL     OW19354   4.546   2.864   5.096
 6303SOL    HW119355   4.586   2.863   5.004
 6303SOL    HW219356   4.556   2.956   5.136
 6304SOL     OW19357   4.640   2.772   4.015
 6304SOL    HW119358   4.703   2.810   3.947
 6304SOL    HW219359   4.680   2.689   4.054
 6305SOL     OW19360   4.096   3.150   5.214
 6305SOL    HW119361   4.083   3.243   5.180
 6305SOL    HW219362   4.012   3.098   5.201
 6306SOL     OW19363   4.763   2.960   4.420
 6306SOL    HW119364   4.693   2.913   4.474
 6306SOL    HW219365   4.822   2.892   4.377
 6307SOL     OW19366   4.738   2.098   4.695
 6307SOL    HW119367   4.730   2.062   4.602
 6307SOL    HW219368   4.736   2.022   4.760
 6308SOL     OW19369   4.314   3.349   4.215
 6308SOL    HW119370   4.356   3.291   4.145
 6308SOL    HW219371   4.270   3.428   4.171
 6309SOL     OW19372   3.979   3.210   4.014
 6309SOL    HW119373   3.883   3.211   3.987
 6309SOL    HW219374   3.991   3.263   4.098
 6310SOL     OW19375   3.829   2.875   5.450
 6310SOL    HW119376   3.752   2.842   5.504
 6310SOL    HW219377   3.914   2.845   5.492
 6311SOL     OW19378   4.396   2.065   5.213
 6311SOL    HW119379   4.486   2.049   5.173
 6311SOL    HW219380   4.404   2.070   5.312
 6312SOL     OW19381   3.799   2.207   3.757
 6312SOL    HW119382   3.707   2.179   3.728
 6312SOL    HW219383   3.830   2.284   3.701
 6313SOL     OW19384   5.164   2.718   5.122
 6313SOL    HW119385   5.107   2.770   5.059
 6313SOL    HW219386   5.260   2.730   5.098
 6314SOL     OW19387   3.796   2.028   4.042
 6314SOL    HW119388   3.779   2.111   3.988
 6314SOL    HW219389   3.886   1.991   4.020
 6315SOL     OW19390   4.907   3.197   3.843
 6315SOL    HW119391   4.808   3.186   3.845
 6315SOL    HW219392   4.941   3.212   3.936
 6316SOL     OW19393   4.337   2.704   5.155
 6316SOL    HW119394   4.393   2.785   5.138
 6316SOL    HW219395   4.396   2.624   5.158
 6317SOL     OW19396   4.440   2.427   5.432
 6317SOL    HW119397   4.459   2.492   5.506
 6317SOL    HW219398   4.500   2.347   5.441
 6318SOL     OW19399   5.174   3.082   5.357
 6318SOL    HW119400   5.165   3.072   5.456
 6318SOL    HW219401   5.270   3.075   5.331
 6319SOL     OW19402   4.114   3.603   5.284
 6319SOL    HW119403   4.023   3.644   5.282
 6319SOL    HW219404   4.107   3.509   5.316
 6320SOL     OW19405   4.949   2.187   4.173
 6320SOL    HW119406   5.014   2.113   4.162
 6320SOL    HW219407   4.969   2.237   4.257
 6321SOL     OW19408   4.318   2.607   4.376
 6321SOL    HW119409   4.368   2.692   4.357
 6321SOL    HW219410   4.230   2.609   4.328
 6322SOL     OW19411   4.583   3.236   3.740
 6322SOL    HW119412   4.537   3.251   3.828
 6322SOL    HW219413   4.627   3.321   3.710
 6323SOL     OW19414   4.385   3.652   4.677
 6323SOL    HW119415   4.339   3.740   4.664
 6323SOL    HW219416   4.484   3.664   4.670
 6324SOL     OW19417   4.583   2.818   4.585
 6324SOL    HW119418   4.637   2.749   4.633
 6324SOL    HW219419   4.551   2.887   4.651
 6325SOL     OW19420   4.807   2.846   3.811
 6325SOL    HW119421   4.784   2.899   3.729
 6325SOL    HW219422   4.888   2.790   3.792
 6326SOL     OW19423   3.945   3.176   5.568
 6326SOL    HW119424   3.880   3.103   5.547
 6326SOL    HW219425   3.949   3.190   5.666
 6327SOL     OW19426   3.803   3.102   4.377
 6327SOL    HW119427   3.802   3.055   4.465
 6327SOL    HW219428   3.885   3.074   4.326
 6328SOL     OW19429   4.396   3.253   5.348
 6328SOL    HW119430   4.318   3.203   5.386
 6328SOL    HW219431   4.393   3.348   5.379
 6329SOL     OW19432   4.152   2.286   4.244
 6329SOL    HW119433   4.182   2.214   4.182
 6329SOL    HW219434   4.113   2.246   4.327
 6330SOL     OW19435   5.429   3.349   4.828
 6330SOL    HW119436   5.336   3.324   4.801
 6330SOL    HW219437   5.455   3.299   4.910
 6331SOL     OW19438   4.041   2.409   5.004
 6331SOL    HW119439   4.079   2.350   5.076
 6331SOL    HW219440   4.081   2.383   4.916
 6332SOL     OW19441   4.536   3.448   4.411
 6332SOL    HW119442   4.568   3.458   4.317
 6332SOL    HW219443   4.457   3.386   4.413
 6333SOL     OW19444   5.148   2.076   4.836
 6333SOL    HW119445   5.200   2.011   4.891
 6333SOL    HW219446   5.099   2.139   4.897
 6334SOL     OW19447   4.725   1.896   4.878
 6334SOL    HW119448   4.662   1.824   4.847
 6334SOL    HW219449   4.818   1.860   4.878
 6335SOL     OW19450   4.494   3.192   4.025
 6335SOL    HW119451   4.448   3.105   4.042
 6335SOL    HW219452   4.585   3.189   4.066
 6336SOL     OW19453   4.342   3.429   5.008
 6336SOL    HW119454   4.337   3.511   5.065
 6336SOL    HW219455   4.431   3.426   4.963
 6337SOL     OW19456   5.076   1.914   3.892
 6337SOL    HW119457   5.111   1.873   3.808
 6337SOL    HW219458   4.986   1.876   3.912
 6338SOL     OW19459   5.024   2.315   4.415
 6338SOL    HW119460   4.965   2.395   4.419
 6338SOL    HW219461   5.039   2.280   4.508
 6339SOL     OW19462   5.317   2.083   4.606
 6339SOL    HW119463   5.233   2.082   4.660
 6339SOL    HW219464   5.319   2.166   4.550
 6340SOL     OW19465   3.763   2.939   4.024
 6340SOL    HW119466   3.862   2.928   4.015
 6340SOL    HW219467   3.723   2.853   4.056
 6341SOL     OW19468   4.599   3.508   4.061
 6341SOL    HW119469   4.522   3.473   4.007
 6341SOL    HW219470   4.567   3.579   4.123
 6342SOL     OW19471   3.954   2.490   5.699
 6342SOL    HW119472   3.861   2.488   5.736
 6342SOL    HW219473   3.955   2.451   5.607
 6343SOL     OW19474   3.949   2.137   6.582
 6343SOL    HW119475   3.984   2.120   6.674
 6343SOL    HW219476   3.861   2.092   6.570
 6344SOL     OW19477   3.743   2.230   6.233
 6344SOL    HW119478   3.661   2.273   6.272
 6344SOL    HW219479   3.715   2.157   6.170
 6345SOL     OW19480   4.293   3.137   6.751
 6345SOL    HW119481   4.200   3.130   6.714
 6345SOL    HW219482   4.304   3.226   6.795
 6346SOL     OW19483   5.279   3.373   6.289
 6346SOL    HW119484   5.222   3.357   6.370
 6346SOL    HW219485   5.220   3.383   6.209
 6347SOL     OW19486   4.859   2.565   6.303
 6347SOL    HW119487   4.916   2.643   6.278
 6347SOL    HW219488   4.799   2.591   6.379
 6348SOL     OW19489   4.492   3.006   6.609
 6348SOL    HW119490   4.414   3.023   6.669
 6348SOL    HW219491   4.526   3.093   6.573
 6349SOL     OW19492   4.574   2.660   7.409
 6349SOL    HW119493   4.570   2.736   7.474
 6349SOL    HW219494   4.596   2.696   7.318
 6350SOL     OW19495   4.409   2.874   6.251
 6350SOL    HW119496   4.478   2.858   6.321
 6350SOL    HW219497   4.336   2.931   6.289
 6351SOL     OW19498   4.410   3.023   7.389
 6351SOL    HW119499   4.470   3.102   7.403
 6351SOL    HW219500   4.324   3.054   7.348
 6352SOL     OW19501   4.059   3.297   6.647
 6352SOL    HW119502   3.981   3.266   6.594
 6352SOL    HW219503   4.117   3.355   6.590
 6353SOL     OW19504   5.184   3.367   6.925
 6353SOL    HW119505   5.208   3.461   6.951
 6353SOL    HW219506   5.168   3.313   7.007
 6354SOL     OW19507   4.162   2.254   7.085
 6354SOL    HW119508   4.244   2.198   7.094
 6354SOL    HW219509   4.081   2.196   7.089
 6355SOL     OW19510   3.955   3.575   6.069
 6355SOL    HW119511   3.989   3.652   6.123
 6355SOL    HW219512   3.999   3.575   5.979
 6356SOL     OW19513   4.851   3.203   7.276
 6356SOL    HW119514   4.898   3.203   7.364
 6356SOL    HW219515   4.803   3.116   7.265
 6357SOL     OW19516   3.954   3.296   6.124
 6357SOL    HW119517   3.928   3.392   6.124
 6357SOL    HW219518   3.883   3.242   6.169
 6358SOL     OW19519   3.964   2.953   6.472
 6358SOL    HW119520   3.978   2.869   6.524
 6358SOL    HW219521   3.909   3.017   6.527
 6359SOL     OW19522   4.344   3.648   7.025
 6359SOL    HW119523   4.252   3.631   7.060
 6359SOL    HW219524   4.372   3.740   7.051
 6360SOL     OW19525   4.330   2.826   5.709
 6360SOL    HW119526   4.337   2.910   5.655
 6360SOL    HW219527   4.376   2.839   5.797
 6361SOL     OW19528   3.846   2.505   6.149
 6361SOL    HW119529   3.801   2.417   6.166
 6361SOL    HW219530   3.845   2.559   6.233
 6362SOL     OW19531   3.751   3.458   5.703
 6362SOL    HW119532   3.732   3.362   5.724
 6362SOL    HW219533   3.718   3.516   5.778
 6363SOL     OW19534   5.413   2.784   6.198
 6363SOL    HW119535   5.508   2.755   6.206
 6363SOL    HW219536   5.405   2.849   6.123
 6364SOL     OW19537   3.837   2.599   7.183
 6364SOL    HW119538   3.925   2.586   7.228
 6364SOL    HW219539   3.824   2.696   7.161
 6365SOL     OW19540   4.337   3.227   6.312
 6365SOL    HW119541   4.288   3.140   6.321
 6365SOL    HW219542   4.314   3.270   6.225
 6366SOL     OW19543   5.017   3.090   7.009
 6366SOL    HW119544   5.054   3.017   6.951
 6366SOL    HW219545   5.069   3.095   7.094
 6367SOL     OW19546   4.533   1.866   6.088
 6367SOL    HW119547   4.573   1.957   6.079
 6367SOL    HW219548   4.433   1.874   6.094
 6368SOL     OW19549   3.921   2.838   6.850
 6368SOL    HW119550   4.010   2.793   6.836
 6368SOL    HW219551   3.848   2.773   6.831
 6369SOL     OW19552   4.911   3.654   7.202
 6369SOL    HW119553   4.935   3.714   7.126
 6369SOL    HW219554   4.918   3.559   7.172
 6370SOL     OW19555   4.041   2.113   7.387
 6370SOL    HW119556   4.112   2.184   7.393
 6370SOL    HW219557   3.953   2.152   7.415
 6371SOL     OW19558   5.190   3.279   6.539
 6371SOL    HW119559   5.131   3.285   6.619
 6371SOL    HW219560   5.175   3.191   6.493
 6372SOL     OW19561   4.322   2.591   5.856
 6372SOL    HW119562   4.346   2.660   5.788
 6372SOL    HW219563   4.244   2.624   5.910
 6373SOL     OW19564   5.005   2.207   6.530
 6373SOL    HW119565   4.919   2.157   6.517
 6373SOL    HW219566   5.067   2.153   6.586
 6374SOL     OW19567   4.531   2.467   7.051
 6374SOL    HW119568   4.484   2.464   7.140
 6374SOL    HW219569   4.480   2.412   6.985
 6375SOL     OW19570   5.118   2.331   7.260
 6375SOL    HW119571   5.098   2.374   7.348
 6375SOL    HW219572   5.196   2.269   7.269
 6376SOL     OW19573   4.697   2.752   7.158
 6376SOL    HW119574   4.743   2.668   7.129
 6376SOL    HW219575   4.641   2.786   7.083
 6377SOL     OW19576   4.715   2.272   6.828
 6377SOL    HW119577   4.638   2.306   6.882
 6377SOL    HW219578   4.681   2.221   6.749
 6378SOL     OW19579   4.765   2.563   6.015
 6378SOL    HW119580   4.791   2.559   6.111
 6378SOL    HW219581   4.680   2.512   6.001
 6379SOL     OW19582   3.800   2.673   6.375
 6379SOL    HW119583   3.899   2.661   6.384
 6379SOL    HW219584   3.776   2.768   6.396
 6380SOL     OW19585   3.854   3.683   7.157
 6380SOL    HW119586   3.844   3.668   7.256
 6380SOL    HW219587   3.768   3.719   7.121
 6381SOL     OW19588   4.589   2.210   5.781
 6381SOL    HW119589   4.648   2.273   5.732
 6381SOL    HW219590   4.608   2.116   5.752
 6382SOL     OW19591   5.086   3.006   6.131
 6382SOL    HW119592   5.169   2.977   6.083
 6382SOL    HW219593   5.037   3.073   6.075
 6383SOL     OW19594   4.274   2.058   6.471
 6383SOL    HW119595   4.269   2.053   6.571
 6383SOL    HW219596   4.276   2.154   6.442
 6384SOL     OW19597   4.732   3.318   6.063
 6384SOL    HW119598   4.686   3.390   6.011
 6384SOL    HW219599   4.728   3.338   6.161
 6385SOL     OW19600   4.075   3.663   6.439
 6385SOL    HW119601   4.125   3.577   6.445
 6385SOL    HW219602   4.140   3.740   6.436
 6386SOL     OW19603   4.951   3.412   7.092
 6386SOL    HW119604   4.957   3.335   7.156
 6386SOL    HW219605   4.899   3.386   7.012
 6387SOL     OW19606   4.045   2.805   5.828
 6387SOL    HW119607   4.127   2.844   5.786
 6387SOL    HW219608   4.018   2.723   5.779
 6388SOL     OW19609   4.185   3.128   7.313
 6388SOL    HW119610   4.135   3.129   7.227
 6388SOL    HW219611   4.122   3.110   7.389
 6389SOL     OW19612   4.835   3.638   5.823
 6389SOL    HW119613   4.775   3.576   5.873
 6389SOL    HW219614   4.866   3.594   5.738
 6390SOL     OW19615   3.926   2.147   7.084
 6390SOL    HW119616   3.846   2.207   7.071
 6390SOL    HW219617   3.916   2.098   7.170
 6391SOL     OW19618   4.188   3.605   5.909
 6391SOL    HW119619   4.221   3.644   5.995
 6391SOL    HW219620   4.264   3.598   5.844
 6392SOL     OW19621   5.124   1.969   6.012
 6392SOL    HW119622   5.100   1.932   5.922
 6392SOL    HW219623   5.223   1.985   6.016
 6393SOL     OW19624   3.973   3.647   6.827
 6393SOL    HW119625   4.030   3.582   6.877
 6393SOL    HW219626   3.957   3.614   6.734
 6394SOL     OW19627   4.664   3.560   6.490
 6394SOL    HW119628   4.744   3.503   6.511
 6394SOL    HW219629   4.615   3.520   6.413
 6395SOL     OW19630   4.106   2.562   6.066
 6395SOL    HW119631   4.151   2.472   6.063
 6395SOL    HW219632   4.012   2.551   6.099
 6396SOL     OW19633   4.338   1.984   5.703
 6396SOL    HW119634   4.436   1.962   5.710
 6396SOL    HW219635   4.307   1.967   5.610
 6397SOL     OW19636   4.505   2.126   7.335
 6397SOL    HW119637   4.572   2.065   7.378
 6397SOL    HW219638   4.432   2.145   7.400
 6398SOL     OW19639   4.612   3.376   6.781
 6398SOL    HW119640   4.589   3.351   6.687
 6398SOL    HW219641   4.673   3.307   6.820
 6399SOL     OW19642   5.075   2.452   7.019
 6399SOL    HW119643   5.103   2.409   7.104
 6399SOL    HW219644   5.100   2.548   7.020
 6400SOL     OW19645   4.527   3.264   6.510
 6400SOL    HW119646   4.617   3.278   6.468
 6400SOL    HW219647   4.456   3.266   6.439
 6401SOL     OW19648   4.646   2.365   6.485
 6401SOL    HW119649   4.621   2.356   6.389
 6401SOL    HW219650   4.694   2.283   6.516
 6402SOL     OW19651   4.263   1.926   6.098
 6402SOL    HW119652   4.182   1.927   6.156
 6402SOL    HW219653   4.266   2.009   6.043
 6403SOL     OW19654   5.158   3.050   5.627
 6403SOL    HW119655   5.190   2.974   5.684
 6403SOL    HW219656   5.066   3.077   5.657
 6404SOL     OW19657   4.021   1.897   5.757
 6404SOL    HW119658   4.070   1.981   5.736
 6404SOL    HW219659   4.083   1.832   5.802
 6405SOL     OW19660   4.659   2.098   6.066
 6405SOL    HW119661   4.611   2.139   5.988
 6405SOL    HW219662   4.758   2.096   6.047
 6406SOL     OW19663   4.800   2.545   7.050
 6406SOL    HW119664   4.720   2.484   7.053
 6406SOL    HW219665   4.881   2.492   7.026
 6407SOL     OW19666   4.951   3.432   6.379
 6407SOL    HW119667   4.972   3.506   6.314
 6407SOL    HW219668   5.019   3.432   6.452
 6408SOL     OW19669   4.183   3.014   6.327
 6408SOL    HW119670   4.112   2.987   6.392
 6408SOL    HW219671   4.157   2.986   6.234
 6409SOL     OW19672   4.995   3.659   6.177
 6409SOL    HW119673   5.039   3.723   6.113
 6409SOL    HW219674   4.945   3.711   6.247
 6410SOL     OW19675   4.756   2.411   5.602
 6410SOL    HW119676   4.715   2.493   5.563
 6410SOL    HW219677   4.820   2.437   5.675
 6411SOL     OW19678   3.802   2.418   6.972
 6411SOL    HW119679   3.894   2.417   6.931
 6411SOL    HW219680   3.796   2.492   7.039
 6412SOL     OW19681   4.285   2.084   6.733
 6412SOL    HW119682   4.323   2.000   6.770
 6412SOL    HW219683   4.197   2.103   6.777
 6413SOL     OW19684   4.590   2.316   6.228
 6413SOL    HW119685   4.558   2.388   6.166
 6413SOL    HW219686   4.614   2.235   6.175
 6414SOL     OW19687   4.741   1.901   6.339
 6414SOL    HW119688   4.669   1.906   6.270
 6414SOL    HW219689   4.717   1.832   6.408
 6415SOL     OW19690   5.153   3.035   6.453
 6415SOL    HW119691   5.098   2.951   6.446
 6415SOL    HW219692   5.179   3.064   6.361
 6416SOL     OW19693   4.212   3.247   5.760
 6416SOL    HW119694   4.125   3.232   5.807
 6416SOL    HW219695   4.195   3.273   5.665
 6417SOL     OW19696   5.114   2.437   5.664
 6417SOL    HW119697   5.060   2.416   5.745
 6417SOL    HW219698   5.205   2.396   5.673
 6418SOL     OW19699   4.251   2.118   5.914
 6418SOL    HW119700   4.278   2.059   5.839
 6418SOL    HW219701   4.251   2.213   5.883
 6419SOL     OW19702   4.788   3.209   6.926
 6419SOL    HW119703   4.708   3.186   6.981
 6419SOL    HW219704   4.871   3.183   6.975
 6420SOL     OW19705   5.316   3.491   7.211
 6420SOL    HW119706   5.343   3.525   7.121
 6420SOL    HW219707   5.395   3.453   7.257
 6421SOL     OW19708   4.835   3.057   6.686
 6421SOL    HW119709   4.795   3.101   6.767
 6421SOL    HW219710   4.794   3.094   6.603
 6422SOL     OW19711   4.639   1.951   6.988
 6422SOL    HW119712   4.664   1.931   6.893
 6422SOL    HW219713   4.711   2.007   7.030
 6423SOL     OW19714   4.704   2.978   7.305
 6423SOL    HW119715   4.605   2.984   7.315
 6423SOL    HW219716   4.727   2.898   7.249
 6424SOL     OW19717   4.429   2.912   5.954
 6424SOL    HW119718   4.415   2.919   6.053
 6424SOL    HW219719   4.513   2.861   5.936
 6425SOL     OW19720   4.134   2.675   6.837
 6425SOL    HW119721   4.220   2.687   6.887
 6425SOL    HW219722   4.092   2.588   6.864
 6426SOL     OW19723   4.998   2.248   6.848
 6426SOL    HW119724   5.019   2.322   6.912
 6426SOL    HW219725   4.909   2.265   6.805
 6427SOL     OW19726   3.788   3.426   6.917
 6427SOL    HW119727   3.742   3.508   6.883
 6427SOL    HW219728   3.886   3.445   6.926
 6428SOL     OW19729   4.091   2.962   6.087
 6428SOL    HW119730   4.084   3.045   6.031
 6428SOL    HW219731   4.095   2.882   6.027
 6429SOL     OW19732   4.290   2.399   6.451
 6429SOL    HW119733   4.302   2.465   6.377
 6429SOL    HW219734   4.336   2.433   6.534
 6430SOL     OW19735   4.976   3.210   5.974
 6430SOL    HW119736   5.026   3.287   6.014
 6430SOL    HW219737   4.881   3.212   6.006
 6431SOL     OW19738   4.996   3.307   6.728
 6431SOL    HW119739   5.043   3.320   6.815
 6431SOL    HW219740   4.930   3.233   6.737
 6432SOL     OW19741   4.078   3.372   6.915
 6432SOL    HW119742   4.057   3.328   6.828
 6432SOL    HW219743   4.175   3.398   6.918
 6433SOL     OW19744   4.126   2.613   7.184
 6433SOL    HW119745   4.194   2.668   7.137
 6433SOL    HW219746   4.166   2.525   7.211
 6434SOL     OW19747   4.737   1.967   7.356
 6434SOL    HW119748   4.743   2.052   7.304
 6434SOL    HW219749   4.769   1.891   7.299
 6435SOL     OW19750   4.228   1.912   7.326
 6435SOL    HW119751   4.186   1.855   7.256
 6435SOL    HW219752   4.162   1.981   7.358
 6436SOL     OW19753   4.297   2.732   6.615
 6436SOL    HW119754   4.341   2.821   6.606
 6436SOL    HW219755   4.234   2.732   6.692
 6437SOL     OW19756   5.084   2.724   6.631
 6437SOL    HW119757   5.009   2.724   6.565
 6437SOL    HW219758   5.121   2.632   6.640
 6438SOL     OW19759   4.933   2.387   5.861
 6438SOL    HW119760   4.946   2.303   5.915
 6438SOL    HW219761   4.904   2.461   5.921
 6439SOL     OW19762   4.031   2.075   6.817
 6439SOL    HW119763   4.008   2.112   6.907
 6439SOL    HW219764   4.001   1.980   6.811
 6440SOL     OW19765   3.761   3.172   6.868
 6440SOL    HW119766   3.814   3.123   6.936
 6440SOL    HW219767   3.783   3.270   6.873
 6441SOL     OW19768   4.456   2.496   6.650
 6441SOL    HW119769   4.515   2.470   6.574
 6441SOL    HW219770   4.428   2.592   6.639
 6442SOL     OW19771   4.031   1.925   6.204
 6442SOL    HW119772   4.020   2.019   6.237
 6442SOL    HW219773   4.026   1.862   6.281
 6443SOL     OW19774   5.346   2.229   5.960
 6443SOL    HW119775   5.348   2.153   6.024
 6443SOL    HW219776   5.298   2.306   6.000
 6444SOL     OW19777   4.747   2.628   6.552
 6444SOL    HW119778   4.762   2.649   6.648
 6444SOL    HW219779   4.717   2.533   6.543
 6445SOL     OW19780   4.704   3.435   7.286
 6445SOL    HW119781   4.684   3.479   7.198
 6445SOL    HW219782   4.743   3.344   7.270
 6446SOL     OW19783   4.074   2.760   7.390
 6446SOL    HW119784   4.150   2.804   7.438
 6446SOL    HW219785   4.109   2.713   7.308
 6447SOL     OW19786   5.027   2.700   5.628
 6447SOL    HW119787   5.061   2.607   5.643
 6447SOL    HW219788   5.045   2.727   5.533
 6448SOL     OW19789   4.792   3.195   6.435
 6448SOL    HW119790   4.799   3.111   6.380
 6448SOL    HW219791   4.854   3.264   6.399
 6449SOL     OW19792   4.043   2.672   6.535
 6449SOL    HW119793   4.136   2.708   6.540
 6449SOL    HW219794   4.037   2.587   6.587
 6450SOL     OW19795   4.063   2.371   6.592
 6450SOL    HW119796   4.011   2.288   6.575
 6450SOL    HW219797   4.140   2.376   6.528
 6451SOL     OW19798   4.862   2.242   7.264
 6451SOL    HW119799   4.817   2.305   7.328
 6451SOL    HW219800   4.955   2.273   7.247
 6452SOL     OW19801   4.884   2.069   7.063
 6452SOL    HW119802   4.884   2.133   7.140
 6452SOL    HW219803   4.912   2.117   6.980
 6453SOL     OW19804   3.732   3.188   5.786
 6453SOL    HW119805   3.639   3.209   5.755
 6453SOL    HW219806   3.742   3.089   5.799
 6454SOL     OW19807   3.812   3.663   6.513
 6454SOL    HW119808   3.770   3.577   6.486
 6454SOL    HW219809   3.906   3.666   6.479
 6455SOL     OW19810   4.228   3.430   6.496
 6455SOL    HW119811   4.294   3.504   6.505
 6455SOL    HW219812   4.272   3.351   6.454
 6456SOL     OW19813   4.726   2.658   6.824
 6456SOL    HW119814   4.767   2.626   6.910
 6456SOL    HW219815   4.630   2.631   6.821
 6457SOL     OW19816   3.764   2.406   6.700
 6457SOL    HW119817   3.849   2.373   6.659
 6457SOL    HW219818   3.777   2.421   6.798
 6458SOL     OW19819   3.913   2.382   7.308
 6458SOL    HW119820   3.972   2.342   7.238
 6458SOL    HW219821   3.855   2.453   7.267
 6459SOL     OW19822   5.093   2.812   7.246
 6459SOL    HW119823   5.132   2.901   7.266
 6459SOL    HW219824   5.103   2.792   7.149
 6460SOL     OW19825   4.539   2.434   5.911
 6460SOL    HW119826   4.546   2.345   5.865
 6460SOL    HW219827   4.445   2.468   5.903
 6461SOL     OW19828   3.976   3.426   7.330
 6461SOL    HW119829   3.946   3.483   7.406
 6461SOL    HW219830   3.969   3.329   7.356
 6462SOL     OW19831   4.395   2.326   6.855
 6462SOL    HW119832   4.361   2.237   6.825
 6462SOL    HW219833   4.421   2.380   6.775
 6463SOL     OW19834   4.654   3.540   7.051
 6463SOL    HW119835   4.630   3.522   6.956
 6463SOL    HW219836   4.684   3.634   7.061
 6464SOL     OW19837   4.197   2.362   5.777
 6464SOL    HW119838   4.258   2.442   5.781
 6464SOL    HW219839   4.102   2.393   5.784
 6465SOL     OW19840   3.883   2.999   7.052
 6465SOL    HW119841   3.905   2.938   7.128
 6465SOL    HW219842   3.893   2.950   6.966
 6466SOL     OW19843   5.071   2.921   6.820
 6466SOL    HW119844   5.095   2.858   6.746
 6466SOL    HW219845   4.981   2.961   6.802
 6467SOL     OW19846   5.026   2.717   5.895
 6467SOL    HW119847   4.940   2.686   5.937
 6467SOL    HW219848   5.022   2.703   5.796
 6468SOL     OW19849   4.976   3.593   6.714
 6468SOL    HW119850   5.060   3.598   6.660
 6468SOL    HW219851   4.953   3.497   6.732
 6469SOL     OW19852   3.807   3.120   6.608
 6469SOL    HW119853   3.802   3.119   6.708
 6469SOL    HW219854   3.724   3.079   6.570
 6470SOL     OW19855   4.412   3.524   7.302
 6470SOL    HW119856   4.356   3.605   7.311
 6470SOL    HW219857   4.464   3.528   7.216
 6471SOL     OW19858   5.450   1.997   6.109
 6471SOL    HW119859   5.523   1.980   6.042
 6471SOL    HW219860   5.419   1.910   6.147
 6472SOL     OW19861   5.112   3.435   6.063
 6472SOL    HW119862   5.179   3.447   5.989
 6472SOL    HW219863   5.072   3.524   6.086
 6473SOL     OW19864   3.854   3.656   7.437
 6473SOL    HW119865   3.813   3.582   7.490
 6473SOL    HW219866   3.918   3.707   7.495
 6474SOL     OW19867   5.004   2.789   6.258
 6474SOL    HW119868   5.064   2.708   6.260
 6474SOL    HW219869   5.044   2.858   6.198
 6475SOL     OW19870   4.554   3.135   7.008
 6475SOL    HW119871   4.549   3.168   7.103
 6475SOL    HW219872   4.468   3.154   6.962
 6476SOL     OW19873   4.396   3.478   5.740
 6476SOL    HW119874   4.405   3.488   5.641
 6476SOL    HW219875   4.356   3.389   5.761
 6477SOL     OW19876   3.987   2.188   6.306
 6477SOL    HW119877   3.908   2.239   6.272
 6477SOL    HW219878   3.978   2.173   6.404
 6478SOL     OW19879   4.918   3.474   5.617
 6478SOL    HW119880   4.924   3.381   5.654
 6478SOL    HW219881   4.859   3.474   5.537
 6479SOL     OW19882   4.546   2.864   6.958
 6479SOL    HW119883   4.586   2.863   6.866
 6479SOL    HW219884   4.556   2.956   6.998
 6480SOL     OW19885   4.640   2.772   5.877
 6480SOL    HW119886   4.703   2.810   5.809
 6480SOL    HW219887   4.680   2.689   5.916
 6481SOL     OW19888   4.096   3.150   7.076
 6481SOL    HW119889   4.083   3.243   7.042
 6481SOL    HW219890   4.012   3.098   7.063
 6482SOL     OW19891   4.763   2.960   6.282
 6482SOL    HW119892   4.693   2.913   6.336
 6482SOL    HW219893   4.822   2.892   6.239
 6483SOL     OW19894   4.738   2.098   6.557
 6483SOL    HW119895   4.730   2.062   6.464
 6483SOL    HW219896   4.736   2.022   6.622
 6484SOL     OW19897   4.314   3.349   6.077
 6484SOL    HW119898   4.356   3.291   6.007
 6484SOL    HW219899   4.270   3.428   6.033
 6485SOL     OW19900   3.979   3.210   5.876
 6485SOL    HW119901   3.883   3.211   5.849
 6485SOL    HW219902   3.991   3.263   5.960
 6486SOL     OW19903   3.829   2.875   7.312
 6486SOL    HW119904   3.752   2.842   7.366
 6486SOL    HW219905   3.914   2.845   7.354
 6487SOL     OW19906   4.396   2.065   7.075
 6487SOL    HW119907   4.486   2.049   7.035
 6487SOL    HW219908   4.404   2.070   7.174
 6488SOL     OW19909   3.799   2.207   5.619
 6488SOL    HW119910   3.707   2.179   5.590
 6488SOL    HW219911   3.830   2.284   5.563
 6489SOL     OW19912   5.164   2.718   6.984
 6489SOL    HW119913   5.107   2.770   6.921
 6489SOL    HW219914   5.260   2.730   6.960
 6490SOL     OW19915   3.796   2.028   5.904
 6490SOL    HW119916   3.779   2.111   5.850
 6490SOL    HW219917   3.886   1.991   5.882
 6491SOL     OW19918   4.907   3.197   5.705
 6491SOL    HW119919   4.808   3.186   5.707
 6491SOL    HW219920   4.941   3.212   5.798
 6492SOL     OW19921   4.337   2.704   7.017
 6492SOL    HW119922   4.393   2.785   7.000
 6492SOL    HW219923   4.396   2.624   7.020
 6493SOL     OW19924   4.440   2.427   7.294
 6493SOL    HW119925   4.459   2.492   7.368
 6493SOL    HW219926   4.500   2.347   7.303
 6494SOL     OW19927   5.174   3.082   7.219
 6494SOL    HW119928   5.165   3.072   7.318
 6494SOL    HW219929   5.270   3.075   7.193
 6495SOL     OW19930   4.114   3.603   7.146
 6495SOL    HW119931   4.023   3.644   7.144
 6495SOL    HW219932   4.107   3.509   7.178
 6496SOL     OW19933   4.949   2.187   6.035
 6496SOL    HW119934   5.014   2.113   6.024
 6496SOL    HW219935   4.969   2.237   6.119
 6497SOL     OW19936   4.318   2.607   6.238
 6497SOL    HW119937   4.368   2.692   6.219
 6497SOL    HW219938   4.230   2.609   6.190
 6498SOL     OW19939   4.583   3.236   5.602
 6498SOL    HW119940   4.537   3.251   5.690
 6498SOL    HW219941   4.627   3.321   5.572
 6499SOL     OW19942   4.385   3.652   6.539
 6499SOL    HW119943   4.339   3.740   6.526
 6499SOL    HW219944   4.484   3.664   6.532
 6500SOL     OW19945   4.583   2.818   6.447
 6500SOL    HW119946   4.637   2.749   6.495
 6500SOL    HW219947   4.551   2.887   6.513
 6501SOL     OW19948   4.807   2.846   5.673
 6501SOL    HW119949   4.784   2.899   5.591
 6501SOL    HW219950   4.888   2.790   5.654
 6502SOL     OW19951   3.945   3.176   7.430
 6502SOL    HW119952   3.880   3.103   7.409
 6502SOL    HW219953   3.949   3.190   7.528
 6503SOL     OW19954   3.803   3.102   6.239
 6503SOL    HW119955   3.802   3.055   6.327
 6503SOL    HW219956   3.885   3.074   6.188
 6504SOL     OW19957   4.396   3.253   7.210
 6504SOL    HW119958   4.318   3.203   7.248
 6504SOL    HW219959   4.393   3.348   7.241
 6505SOL     OW19960   4.152   2.286   6.106
 6505SOL    HW119961   4.182   2.214   6.044
 6505SOL    HW219962   4.113   2.246   6.189
 6506SOL     OW19963   5.429   3.349   6.690
 6506SOL    HW119964   5.336   3.324   6.663
 6506SOL    HW219965   5.455   3.299   6.772
 6507SOL     OW19966   4.041   2.409   6.866
 6507SOL    HW119967   4.079   2.350   6.938
 6507SOL    HW219968   4.081   2.383   6.778
 6508SOL     OW19969   4.536   3.448   6.273
 6508SOL    HW119970   4.568   3.458   6.179
 6508SOL    HW219971   4.457   3.386   6.275
 6509SOL     OW19972   5.148   2.076   6.698
 6509SOL    HW119973   5.200   2.011   6.753
 6509SOL    HW219974   5.099   2.139   6.759
 6510SOL     OW19975   4.725   1.896   6.740
 6510SOL    HW119976   4.662   1.824   6.709
 6510SOL    HW219977   4.818   1.860   6.740
 6511SOL     OW19978   4.494   3.192   5.887
 6511SOL    HW119979   4.448   3.105   5.904
 6511SOL    HW219980   4.585   3.189   5.928
 6512SOL     OW19981   4.342   3.429   6.870
 6512SOL    HW119982   4.337   3.511   6.927
 6512SOL    HW219983   4.431   3.426   6.825
 6513SOL     OW19984   5.076   1.914   5.754
 6513SOL    HW119985   5.111   1.873   5.670
 6513SOL    HW219986   4.986   1.876   5.774
 6514SOL     OW19987   5.024   2.315   6.277
 6514SOL    HW119988   4.965   2.395   6.281
 6514SOL    HW219989   5.039   2.280   6.370
 6515SOL     OW19990   5.317   2.083   6.468
 6515SOL    HW119991   5.233   2.082   6.522
 6515SOL    HW219992   5.319   2.166   6.412
 6516SOL     OW19993   3.763   2.939   5.886
 6516SOL    HW119994   3.862   2.928   5.877
 6516SOL    HW219995   3.723   2.853   5.918
 6517SOL     OW19996   4.599   3.508   5.923
 6517SOL    HW119997   4.522   3.473   5.869
 6517SOL    HW219998   4.567   3.579   5.985
 6518SOL     OW19999   3.954   2.490   7.561
 6518SOL    HW120000   3.861   2.488   7.598
 6518SOL    HW220001   3.955   2.451   7.469
 6519SOL     OW20002   3.955   3.575   7.931
 6519SOL    HW120003   3.989   3.652   7.985
 6519SOL    HW220004   3.999   3.575   7.841
 6520SOL     OW20005   3.954   3.296   7.986
 6520SOL    HW120006   3.928   3.392   7.986
 6520SOL    HW220007   3.883   3.242   8.031
 6521SOL     OW20008   4.330   2.826   7.571
 6521SOL    HW120009   4.337   2.910   7.517
 6521SOL    HW220010   4.376   2.839   7.659
 6522SOL     OW20011   3.751   3.458   7.565
 6522SOL    HW120012   3.732   3.362   7.586
 6522SOL    HW220013   3.718   3.516   7.640
 6523SOL     OW20014   5.413   2.784   8.060
 6523SOL    HW120015   5.508   2.755   8.068
 6523SOL    HW220016   5.405   2.849   7.985
 6524SOL     OW20017   4.533   1.866   7.950
 6524SOL    HW120018   4.573   1.957   7.941
 6524SOL    HW220019   4.433   1.874   7.956
 6525SOL     OW20020   4.322   2.591   7.718
 6525SOL    HW120021   4.346   2.660   7.650
 6525SOL    HW220022   4.244   2.624   7.772
 6526SOL     OW20023   3.800   2.673   8.237
 6526SOL    HW120024   3.899   2.661   8.246
 6526SOL    HW220025   3.776   2.768   8.258
 6527SOL     OW20026   4.589   2.210   7.643
 6527SOL    HW120027   4.648   2.273   7.594
 6527SOL    HW220028   4.608   2.116   7.614
 6528SOL     OW20029   4.045   2.805   7.690
 6528SOL    HW120030   4.127   2.844   7.648
 6528SOL    HW220031   4.018   2.723   7.641
 6529SOL     OW20032   4.835   3.638   7.685
 6529SOL    HW120033   4.775   3.576   7.735
 6529SOL    HW220034   4.866   3.594   7.600
 6530SOL     OW20035   4.188   3.605   7.771
 6530SOL    HW120036   4.221   3.644   7.857
 6530SOL    HW220037   4.264   3.598   7.706
 6531SOL     OW20038   5.124   1.969   7.874
 6531SOL    HW120039   5.100   1.932   7.784
 6531SOL    HW220040   5.223   1.985   7.878
 6532SOL     OW20041   4.106   2.562   7.928
 6532SOL    HW120042   4.151   2.472   7.925
 6532SOL    HW220043   4.012   2.551   7.961
 6533SOL     OW20044   4.338   1.984   7.565
 6533SOL    HW120045   4.436   1.962   7.572
 6533SOL    HW220046   4.307   1.967   7.472
 6534SOL     OW20047   4.263   1.926   7.960
 6534SOL    HW120048   4.182   1.927   8.018
 6534SOL    HW220049   4.266   2.009   7.905
 6535SOL     OW20050   5.158   3.050   7.489
 6535SOL    HW120051   5.190   2.974   7.546
 6535SOL    HW220052   5.066   3.077   7.519
 6536SOL     OW20053   4.021   1.897   7.619
 6536SOL    HW120054   4.070   1.981   7.598
 6536SOL    HW220055   4.083   1.832   7.664
 6537SOL     OW20056   4.659   2.098   7.928
 6537SOL    HW120057   4.611   2.139   7.850
 6537SOL    HW220058   4.758   2.096   7.909
 6538SOL     OW20059   4.183   3.014   8.189
 6538SOL    HW120060   4.112   2.987   8.254
 6538SOL    HW220061   4.157   2.986   8.096
 6539SOL     OW20062   4.995   3.659   8.039
 6539SOL    HW120063   5.039   3.723   7.975
 6539SOL    HW220064   4.945   3.711   8.109
 6540SOL     OW20065   4.756   2.411   7.464
 6540SOL    HW120066   4.715   2.493   7.425
 6540SOL    HW220067   4.820   2.437   7.537
 6541SOL     OW20068   4.212   3.247   7.622
 6541SOL    HW120069   4.125   3.232   7.669
 6541SOL    HW220070   4.195   3.273   7.527
 6542SOL     OW20071   5.114   2.437   7.526
 6542SOL    HW120072   5.060   2.416   7.607
 6542SOL    HW220073   5.205   2.396   7.535
 6543SOL     OW20074   4.251   2.118   7.776
 6543SOL    HW120075   4.278   2.059   7.701
 6543SOL    HW220076   4.251   2.213   7.745
 6544SOL     OW20077   4.429   2.912   7.816
 6544SOL    HW120078   4.415   2.919   7.915
 6544SOL    HW220079   4.513   2.861   7.798
 6545SOL     OW20080   4.091   2.962   7.949
 6545SOL    HW120081   4.084   3.045   7.893
 6545SOL    HW220082   4.095   2.882   7.889
 6546SOL     OW20083   4.976   3.210   7.836
 6546SOL    HW120084   5.026   3.287   7.876
 6546SOL    HW220085   4.881   3.212   7.868
 6547SOL     OW20086   5.306   2.501   7.920
 6547SOL    HW120087   5.275   2.562   7.993
 6547SOL    HW220088   5.356   2.553   7.851
 6548SOL     OW20089   4.933   2.387   7.723
 6548SOL    HW120090   4.946   2.303   7.777
 6548SOL    HW220091   4.904   2.461   7.783
 6549SOL     OW20092   5.346   2.229   7.822
 6549SOL    HW120093   5.348   2.153   7.886
 6549SOL    HW220094   5.298   2.306   7.862
 6550SOL     OW20095   5.027   2.700   7.490
 6550SOL    HW120096   5.061   2.607   7.505
 6550SOL    HW220097   5.045   2.727   7.395
 6551SOL     OW20098   3.732   3.188   7.648
 6551SOL    HW120099   3.639   3.209   7.617
 6551SOL    HW220100   3.742   3.089   7.661
 6552SOL     OW20101   4.539   2.434   7.773
 6552SOL    HW120102   4.546   2.345   7.727
 6552SOL    HW220103   4.445   2.468   7.765
 6553SOL     OW20104   4.197   2.362   7.639
 6553SOL    HW120105   4.258   2.442   7.643
 6553SOL    HW220106   4.102   2.393   7.646
 6554SOL     OW20107   5.026   2.717   7.757
 6554SOL    HW120108   4.940   2.686   7.799
 6554SOL    HW220109   5.022   2.703   7.658
 6555SOL     OW20110   5.450   1.997   7.971
 6555SOL    HW120111   5.523   1.980   7.904
 6555SOL    HW220112   5.419   1.910   8.009
 6556SOL     OW20113   5.112   3.435   7.925
 6556SOL    HW120114   5.179   3.447   7.851
 6556SOL    HW220115   5.072   3.524   7.948
 6557SOL     OW20116   4.396   3.478   7.602
 6557SOL    HW120117   4.405   3.488   7.503
 6557SOL    HW220118   4.356   3.389   7.623
 6558SOL     OW20119   4.918   3.474   7.479
 6558SOL    HW120120   4.924   3.381   7.516
 6558SOL    HW220121   4.859   3.474   7.399
 6559SOL     OW20122   4.640   2.772   7.739
 6559SOL    HW120123   4.703   2.810   7.671
 6559SOL    HW220124   4.680   2.689   7.778
 6560SOL     OW20125   4.314   3.349   7.939
 6560SOL    HW120126   4.356   3.291   7.869
 6560SOL    HW220127   4.270   3.428   7.895
 6561SOL     OW20128   3.979   3.210   7.738
 6561SOL    HW120129   3.883   3.211   7.711
 6561SOL    HW220130   3.991   3.263   7.822
 6562SOL     OW20131   3.799   2.207   7.481
 6562SOL    HW120132   3.707   2.179   7.452
 6562SOL    HW220133   3.830   2.284   7.425
 6563SOL     OW20134   3.796   2.028   7.766
 6563SOL    HW120135   3.779   2.111   7.712
 6563SOL    HW220136   3.886   1.991   7.744
 6564SOL     OW20137   4.907   3.197   7.567
 6564SOL    HW120138   4.808   3.186   7.569
 6564SOL    HW220139   4.941   3.212   7.660
 6565SOL     OW20140   5.217   3.629   8.407
 6565SOL    HW120141   5.250   3.693   8.338
 6565SOL    HW220142   5.283   3.623   8.482
 6566SOL     OW20143   4.949   2.187   7.897
 6566SOL    HW120144   5.014   2.113   7.886
 6566SOL    HW220145   4.969   2.237   7.981
 6567SOL     OW20146   4.318   2.607   8.100
 6567SOL    HW120147   4.368   2.692   8.081
 6567SOL    HW220148   4.230   2.609   8.052
 6568SOL     OW20149   4.583   3.236   7.464
 6568SOL    HW120150   4.537   3.251   7.552
 6568SOL    HW220151   4.627   3.321   7.434
 6569SOL     OW20152   4.807   2.846   7.535
 6569SOL    HW120153   4.784   2.899   7.453
 6569SOL    HW220154   4.888   2.790   7.516
 6570SOL     OW20155   4.152   2.286   7.968
 6570SOL    HW120156   4.182   2.214   7.906
 6570SOL    HW220157   4.113   2.246   8.051
 6571SOL     OW20158   4.494   3.192   7.749
 6571SOL    HW120159   4.448   3.105   7.766
 6571SOL    HW220160   4.585   3.189   7.790
 6572SOL     OW20161   5.076   1.914   7.616
 6572SOL    HW120162   5.111   1.873   7.532
 6572SOL    HW220163   4.986   1.876   7.636
 6573SOL     OW20164   3.763   2.939   7.748
 6573SOL    HW120165   3.862   2.928   7.739
 6573SOL    HW220166   3.723   2.853   7.780
 6574SOL     OW20167   4.599   3.508   7.785
 6574SOL    HW120168   4.522   3.473   7.731
 6574SOL    HW220169   4.567   3.579   7.847
 6575SOL     OW20170   3.954   4.352   0.113
 6575SOL    HW120171   3.861   4.350   0.150
 6575SOL    HW220172   3.955   4.313   0.021
 6576SOL     OW20173   3.949   3.999   0.996
 6576SOL    HW120174   3.984   3.982   1.088
 6576SOL    HW220175   3.861   3.954   0.984
 6577SOL     OW20176   3.743   4.092   0.647
 6577SOL    HW120177   3.661   4.135   0.686
 6577SOL    HW220178   3.715   4.019   0.584
 6578SOL     OW20179   4.293   4.999   1.165
 6578SOL    HW120180   4.200   4.992   1.128
 6578SOL    HW220181   4.304   5.088   1.209
 6579SOL     OW20182   5.279   5.235   0.703
 6579SOL    HW120183   5.222   5.219   0.784
 6579SOL    HW220184   5.220   5.245   0.623
 6580SOL     OW20185   4.859   4.427   0.717
 6580SOL    HW120186   4.916   4.505   0.692
 6580SOL    HW220187   4.799   4.453   0.793
 6581SOL     OW20188   4.492   4.868   1.023
 6581SOL    HW120189   4.414   4.885   1.083
 6581SOL    HW220190   4.526   4.955   0.987
 6582SOL     OW20191   4.574   4.522   1.823
 6582SOL    HW120192   4.570   4.598   1.888
 6582SOL    HW220193   4.596   4.558   1.732
 6583SOL     OW20194   4.409   4.736   0.665
 6583SOL    HW120195   4.478   4.720   0.735
 6583SOL    HW220196   4.336   4.793   0.703
 6584SOL     OW20197   4.410   4.885   1.803
 6584SOL    HW120198   4.470   4.964   1.817
 6584SOL    HW220199   4.324   4.916   1.762
 6585SOL     OW20200   4.059   5.159   1.061
 6585SOL    HW120201   3.981   5.128   1.008
 6585SOL    HW220202   4.117   5.217   1.004
 6586SOL     OW20203   5.184   5.229   1.339
 6586SOL    HW120204   5.208   5.323   1.365
 6586SOL    HW220205   5.168   5.175   1.421
 6587SOL     OW20206   4.162   4.116   1.499
 6587SOL    HW120207   4.244   4.060   1.508
 6587SOL    HW220208   4.081   4.058   1.503
 6588SOL     OW20209   4.851   5.065   1.690
 6588SOL    HW120210   4.898   5.065   1.778
 6588SOL    HW220211   4.803   4.978   1.679
 6589SOL     OW20212   3.954   5.158   0.538
 6589SOL    HW120213   3.928   5.254   0.538
 6589SOL    HW220214   3.883   5.104   0.583
 6590SOL     OW20215   3.964   4.815   0.886
 6590SOL    HW120216   3.978   4.731   0.938
 6590SOL    HW220217   3.909   4.879   0.941
 6591SOL     OW20218   4.330   4.688   0.123
 6591SOL    HW120219   4.337   4.772   0.069
 6591SOL    HW220220   4.376   4.701   0.211
 6592SOL     OW20221   3.846   4.367   0.563
 6592SOL    HW120222   3.801   4.279   0.580
 6592SOL    HW220223   3.845   4.421   0.647
 6593SOL     OW20224   3.751   5.320   0.117
 6593SOL    HW120225   3.732   5.224   0.138
 6593SOL    HW220226   3.718   5.378   0.192
 6594SOL     OW20227   5.413   4.646   0.612
 6594SOL    HW120228   5.508   4.617   0.620
 6594SOL    HW220229   5.405   4.711   0.537
 6595SOL     OW20230   3.837   4.461   1.597
 6595SOL    HW120231   3.925   4.448   1.642
 6595SOL    HW220232   3.824   4.558   1.575
 6596SOL     OW20233   4.337   5.089   0.726
 6596SOL    HW120234   4.288   5.002   0.735
 6596SOL    HW220235   4.314   5.132   0.639
 6597SOL     OW20236   5.017   4.952   1.423
 6597SOL    HW120237   5.054   4.879   1.365
 6597SOL    HW220238   5.069   4.957   1.508
 6598SOL     OW20239   4.533   3.728   0.502
 6598SOL    HW120240   4.573   3.819   0.493
 6598SOL    HW220241   4.433   3.736   0.508
 6599SOL     OW20242   3.921   4.700   1.264
 6599SOL    HW120243   4.010   4.655   1.250
 6599SOL    HW220244   3.848   4.635   1.245
 6600SOL     OW20245   4.041   3.975   1.801
 6600SOL    HW120246   4.112   4.046   1.807
 6600SOL    HW220247   3.953   4.014   1.829
 6601SOL     OW20248   5.190   5.141   0.953
 6601SOL    HW120249   5.131   5.147   1.033
 6601SOL    HW220250   5.175   5.053   0.907
 6602SOL     OW20251   5.391   5.438   0.572
 6602SOL    HW120252   5.350   5.415   0.484
 6602SOL    HW220253   5.373   5.364   0.637
 6603SOL     OW20254   4.322   4.453   0.270
 6603SOL    HW120255   4.346   4.522   0.202
 6603SOL    HW220256   4.244   4.486   0.324
 6604SOL     OW20257   5.005   4.069   0.944
 6604SOL    HW120258   4.919   4.019   0.931
 6604SOL    HW220259   5.067   4.015   1.000
 6605SOL     OW20260   4.531   4.329   1.465
 6605SOL    HW120261   4.484   4.326   1.554
 6605SOL    HW220262   4.480   4.274   1.399
 6606SOL     OW20263   5.118   4.193   1.674
 6606SOL    HW120264   5.098   4.236   1.762
 6606SOL    HW220265   5.196   4.131   1.683
 6607SOL     OW20266   4.697   4.614   1.572
 6607SOL    HW120267   4.743   4.530   1.543
 6607SOL    HW220268   4.641   4.648   1.497
 6608SOL     OW20269   4.715   4.134   1.242
 6608SOL    HW120270   4.638   4.168   1.296
 6608SOL    HW220271   4.681   4.083   1.163
 6609SOL     OW20272   4.765   4.425   0.429
 6609SOL    HW120273   4.791   4.421   0.525
 6609SOL    HW220274   4.680   4.374   0.415
 6610SOL     OW20275   3.800   4.535   0.789
 6610SOL    HW120276   3.899   4.523   0.798
 6610SOL    HW220277   3.776   4.630   0.810
 6611SOL     OW20278   4.589   4.072   0.195
 6611SOL    HW120279   4.648   4.135   0.146
 6611SOL    HW220280   4.608   3.978   0.166
 6612SOL     OW20281   5.086   4.868   0.545
 6612SOL    HW120282   5.169   4.839   0.497
 6612SOL    HW220283   5.037   4.935   0.489
 6613SOL     OW20284   4.274   3.920   0.885
 6613SOL    HW120285   4.269   3.915   0.985
 6613SOL    HW220286   4.276   4.016   0.856
 6614SOL     OW20287   4.732   5.180   0.477
 6614SOL    HW120288   4.686   5.252   0.425
 6614SOL    HW220289   4.728   5.200   0.575
 6615SOL     OW20290   4.951   5.274   1.506
 6615SOL    HW120291   4.957   5.197   1.570
 6615SOL    HW220292   4.899   5.248   1.426
 6616SOL     OW20293   4.045   4.667   0.242
 6616SOL    HW120294   4.127   4.706   0.200
 6616SOL    HW220295   4.018   4.585   0.193
 6617SOL     OW20296   4.185   4.990   1.727
 6617SOL    HW120297   4.135   4.991   1.641
 6617SOL    HW220298   4.122   4.972   1.803
 6618SOL     OW20299   4.835   5.500   0.237
 6618SOL    HW120300   4.775   5.438   0.287
 6618SOL    HW220301   4.866   5.456   0.152
 6619SOL     OW20302   3.926   4.009   1.498
 6619SOL    HW120303   3.846   4.069   1.485
 6619SOL    HW220304   3.916   3.960   1.584
 6620SOL     OW20305   5.124   3.831   0.426
 6620SOL    HW120306   5.100   3.794   0.336
 6620SOL    HW220307   5.223   3.847   0.430
 6621SOL     OW20308   4.106   4.424   0.480
 6621SOL    HW120309   4.151   4.334   0.477
 6621SOL    HW220310   4.012   4.413   0.513
 6622SOL     OW20311   4.338   3.846   0.117
 6622SOL    HW120312   4.436   3.824   0.124
 6622SOL    HW220313   4.307   3.829   0.024
 6623SOL     OW20314   4.505   3.988   1.749
 6623SOL    HW120315   4.572   3.927   1.792
 6623SOL    HW220316   4.432   4.007   1.814
 6624SOL     OW20317   5.075   4.314   1.433
 6624SOL    HW120318   5.103   4.271   1.518
 6624SOL    HW220319   5.100   4.410   1.434
 6625SOL     OW20320   4.527   5.126   0.924
 6625SOL    HW120321   4.617   5.140   0.882
 6625SOL    HW220322   4.456   5.128   0.853
 6626SOL     OW20323   4.646   4.227   0.899
 6626SOL    HW120324   4.621   4.218   0.803
 6626SOL    HW220325   4.694   4.145   0.930
 6627SOL     OW20326   4.263   3.788   0.512
 6627SOL    HW120327   4.182   3.789   0.570
 6627SOL    HW220328   4.266   3.871   0.457
 6628SOL     OW20329   5.158   4.912   0.041
 6628SOL    HW120330   5.190   4.836   0.098
 6628SOL    HW220331   5.066   4.939   0.071
 6629SOL     OW20332   4.021   3.759   0.171
 6629SOL    HW120333   4.070   3.843   0.150
 6629SOL    HW220334   4.083   3.694   0.216
 6630SOL     OW20335   4.659   3.960   0.480
 6630SOL    HW120336   4.611   4.001   0.402
 6630SOL    HW220337   4.758   3.958   0.461
 6631SOL     OW20338   4.800   4.407   1.464
 6631SOL    HW120339   4.720   4.346   1.467
 6631SOL    HW220340   4.881   4.354   1.440
 6632SOL     OW20341   4.951   5.294   0.793
 6632SOL    HW120342   4.972   5.368   0.728
 6632SOL    HW220343   5.019   5.294   0.866
 6633SOL     OW20344   4.183   4.876   0.741
 6633SOL    HW120345   4.112   4.849   0.806
 6633SOL    HW220346   4.157   4.848   0.648
 6634SOL     OW20347   4.756   4.273   0.016
 6634SOL    HW120348   4.715   4.355  -0.023
 6634SOL    HW220349   4.820   4.299   0.089
 6635SOL     OW20350   3.802   4.280   1.386
 6635SOL    HW120351   3.894   4.279   1.345
 6635SOL    HW220352   3.796   4.354   1.453
 6636SOL     OW20353   4.285   3.946   1.147
 6636SOL    HW120354   4.323   3.862   1.184
 6636SOL    HW220355   4.197   3.965   1.191
 6637SOL     OW20356   4.590   4.178   0.642
 6637SOL    HW120357   4.558   4.250   0.580
 6637SOL    HW220358   4.614   4.097   0.589
 6638SOL     OW20359   4.741   3.763   0.753
 6638SOL    HW120360   4.669   3.768   0.684
 6638SOL    HW220361   4.717   3.694   0.822
 6639SOL     OW20362   5.153   4.897   0.867
 6639SOL    HW120363   5.098   4.813   0.860
 6639SOL    HW220364   5.179   4.926   0.775
 6640SOL     OW20365   4.212   5.109   0.174
 6640SOL    HW120366   4.125   5.094   0.221
 6640SOL    HW220367   4.195   5.135   0.079
 6641SOL     OW20368   5.114   4.299   0.078
 6641SOL    HW120369   5.060   4.278   0.159
 6641SOL    HW220370   5.205   4.258   0.087
 6642SOL     OW20371   4.251   3.980   0.328
 6642SOL    HW120372   4.278   3.921   0.253
 6642SOL    HW220373   4.251   4.075   0.297
 6643SOL     OW20374   4.788   5.071   1.340
 6643SOL    HW120375   4.708   5.048   1.395
 6643SOL    HW220376   4.871   5.045   1.389
 6644SOL     OW20377   4.835   4.919   1.100
 6644SOL    HW120378   4.795   4.963   1.181
 6644SOL    HW220379   4.794   4.956   1.017
 6645SOL     OW20380   4.639   3.813   1.402
 6645SOL    HW120381   4.664   3.793   1.307
 6645SOL    HW220382   4.711   3.869   1.444
 6646SOL     OW20383   4.704   4.840   1.719
 6646SOL    HW120384   4.605   4.846   1.729
 6646SOL    HW220385   4.727   4.760   1.663
 6647SOL     OW20386   4.429   4.774   0.368
 6647SOL    HW120387   4.415   4.781   0.467
 6647SOL    HW220388   4.513   4.723   0.350
 6648SOL     OW20389   4.134   4.537   1.251
 6648SOL    HW120390   4.220   4.549   1.301
 6648SOL    HW220391   4.092   4.450   1.278
 6649SOL     OW20392   4.998   4.110   1.262
 6649SOL    HW120393   5.019   4.184   1.326
 6649SOL    HW220394   4.909   4.127   1.219
 6650SOL     OW20395   4.091   4.824   0.501
 6650SOL    HW120396   4.084   4.907   0.445
 6650SOL    HW220397   4.095   4.744   0.441
 6651SOL     OW20398   4.290   4.261   0.865
 6651SOL    HW120399   4.302   4.327   0.791
 6651SOL    HW220400   4.336   4.295   0.948
 6652SOL     OW20401   4.976   5.072   0.388
 6652SOL    HW120402   5.026   5.149   0.428
 6652SOL    HW220403   4.881   5.074   0.420
 6653SOL     OW20404   4.996   5.169   1.142
 6653SOL    HW120405   5.043   5.182   1.229
 6653SOL    HW220406   4.930   5.095   1.151
 6654SOL     OW20407   4.078   5.234   1.329
 6654SOL    HW120408   4.057   5.190   1.242
 6654SOL    HW220409   4.175   5.260   1.332
 6655SOL     OW20410   4.126   4.475   1.598
 6655SOL    HW120411   4.194   4.530   1.551
 6655SOL    HW220412   4.166   4.387   1.625
 6656SOL     OW20413   4.737   3.829   1.770
 6656SOL    HW120414   4.743   3.914   1.718
 6656SOL    HW220415   4.769   3.753   1.713
 6657SOL     OW20416   4.228   3.774   1.740
 6657SOL    HW120417   4.186   3.717   1.670
 6657SOL    HW220418   4.162   3.843   1.772
 6658SOL     OW20419   4.297   4.594   1.029
 6658SOL    HW120420   4.341   4.683   1.020
 6658SOL    HW220421   4.234   4.594   1.106
 6659SOL     OW20422   5.084   4.586   1.045
 6659SOL    HW120423   5.009   4.586   0.979
 6659SOL    HW220424   5.121   4.494   1.054
 6660SOL     OW20425   4.933   4.249   0.275
 6660SOL    HW120426   4.946   4.165   0.329
 6660SOL    HW220427   4.904   4.323   0.335
 6661SOL     OW20428   4.031   3.937   1.231
 6661SOL    HW120429   4.008   3.974   1.321
 6661SOL    HW220430   4.001   3.842   1.225
 6662SOL     OW20431   3.761   5.034   1.282
 6662SOL    HW120432   3.814   4.985   1.350
 6662SOL    HW220433   3.783   5.132   1.287
 6663SOL     OW20434   4.456   4.358   1.064
 6663SOL    HW120435   4.515   4.332   0.988
 6663SOL    HW220436   4.428   4.454   1.053
 6664SOL     OW20437   4.031   3.787   0.618
 6664SOL    HW120438   4.020   3.881   0.651
 6664SOL    HW220439   4.026   3.724   0.695
 6665SOL     OW20440   5.346   4.091   0.374
 6665SOL    HW120441   5.348   4.015   0.438
 6665SOL    HW220442   5.298   4.168   0.414
 6666SOL     OW20443   4.747   4.490   0.966
 6666SOL    HW120444   4.762   4.511   1.062
 6666SOL    HW220445   4.717   4.395   0.957
 6667SOL     OW20446   4.074   4.622   1.804
 6667SOL    HW120447   4.150   4.666   1.852
 6667SOL    HW220448   4.109   4.575   1.722
 6668SOL     OW20449   5.027   4.562   0.042
 6668SOL    HW120450   5.061   4.469   0.057
 6668SOL    HW220451   5.045   4.589  -0.053
 6669SOL     OW20452   4.792   5.057   0.849
 6669SOL    HW120453   4.799   4.973   0.794
 6669SOL    HW220454   4.854   5.126   0.813
 6670SOL     OW20455   4.043   4.534   0.949
 6670SOL    HW120456   4.136   4.570   0.954
 6670SOL    HW220457   4.037   4.449   1.001
 6671SOL     OW20458   4.063   4.233   1.006
 6671SOL    HW120459   4.011   4.150   0.989
 6671SOL    HW220460   4.140   4.238   0.942
 6672SOL     OW20461   4.862   4.104   1.678
 6672SOL    HW120462   4.817   4.167   1.742
 6672SOL    HW220463   4.955   4.135   1.661
 6673SOL     OW20464   4.884   3.931   1.477
 6673SOL    HW120465   4.884   3.995   1.554
 6673SOL    HW220466   4.912   3.979   1.394
 6674SOL     OW20467   3.732   5.050   0.200
 6674SOL    HW120468   3.639   5.071   0.169
 6674SOL    HW220469   3.742   4.951   0.213
 6675SOL     OW20470   4.726   4.520   1.238
 6675SOL    HW120471   4.767   4.488   1.324
 6675SOL    HW220472   4.630   4.493   1.235
 6676SOL     OW20473   3.764   4.268   1.114
 6676SOL    HW120474   3.849   4.235   1.073
 6676SOL    HW220475   3.777   4.283   1.212
 6677SOL     OW20476   3.913   4.244   1.722
 6677SOL    HW120477   3.972   4.204   1.652
 6677SOL    HW220478   3.855   4.315   1.681
 6678SOL     OW20479   5.093   4.674   1.660
 6678SOL    HW120480   5.132   4.763   1.680
 6678SOL    HW220481   5.103   4.654   1.563
 6679SOL     OW20482   4.539   4.296   0.325
 6679SOL    HW120483   4.546   4.207   0.279
 6679SOL    HW220484   4.445   4.330   0.317
 6680SOL     OW20485   3.976   5.288   1.744
 6680SOL    HW120486   3.946   5.345   1.820
 6680SOL    HW220487   3.969   5.191   1.770
 6681SOL     OW20488   4.395   4.188   1.269
 6681SOL    HW120489   4.361   4.099   1.239
 6681SOL    HW220490   4.421   4.242   1.189
 6682SOL     OW20491   4.197   4.224   0.191
 6682SOL    HW120492   4.258   4.304   0.195
 6682SOL    HW220493   4.102   4.255   0.198
 6683SOL     OW20494   3.883   4.861   1.466
 6683SOL    HW120495   3.905   4.800   1.542
 6683SOL    HW220496   3.893   4.812   1.380
 6684SOL     OW20497   5.071   4.783   1.234
 6684SOL    HW120498   5.095   4.720   1.160
 6684SOL    HW220499   4.981   4.823   1.216
 6685SOL     OW20500   5.026   4.579   0.309
 6685SOL    HW120501   4.940   4.548   0.351
 6685SOL    HW220502   5.022   4.565   0.210
 6686SOL     OW20503   3.807   4.982   1.022
 6686SOL    HW120504   3.802   4.981   1.122
 6686SOL    HW220505   3.724   4.941   0.984
 6687SOL     OW20506   4.412   5.386   1.716
 6687SOL    HW120507   4.356   5.467   1.725
 6687SOL    HW220508   4.464   5.390   1.630
 6688SOL     OW20509   4.627   3.810   0.133
 6688SOL    HW120510   4.678   3.811   0.047
 6688SOL    HW220511   4.683   3.768   0.204
 6689SOL     OW20512   5.450   3.859   0.523
 6689SOL    HW120513   5.523   3.842   0.456
 6689SOL    HW220514   5.419   3.772   0.561
 6690SOL     OW20515   5.004   4.651   0.672
 6690SOL    HW120516   5.064   4.570   0.674
 6690SOL    HW220517   5.044   4.720   0.612
 6691SOL     OW20518   4.554   4.997   1.422
 6691SOL    HW120519   4.549   5.030   1.517
 6691SOL    HW220520   4.468   5.016   1.376
 6692SOL     OW20521   3.987   4.050   0.720
 6692SOL    HW120522   3.908   4.101   0.686
 6692SOL    HW220523   3.978   4.035   0.818
 6693SOL     OW20524   4.918   5.336   0.031
 6693SOL    HW120525   4.924   5.243   0.068
 6693SOL    HW220526   4.859   5.336  -0.049
 6694SOL     OW20527   4.546   4.726   1.372
 6694SOL    HW120528   4.586   4.725   1.280
 6694SOL    HW220529   4.556   4.818   1.412
 6695SOL     OW20530   4.640   4.634   0.291
 6695SOL    HW120531   4.703   4.672   0.223
 6695SOL    HW220532   4.680   4.551   0.330
 6696SOL     OW20533   4.096   5.012   1.490
 6696SOL    HW120534   4.083   5.105   1.456
 6696SOL    HW220535   4.012   4.960   1.477
 6697SOL     OW20536   4.763   4.822   0.696
 6697SOL    HW120537   4.693   4.775   0.750
 6697SOL    HW220538   4.822   4.754   0.653
 6698SOL     OW20539   4.738   3.960   0.971
 6698SOL    HW120540   4.730   3.924   0.878
 6698SOL    HW220541   4.736   3.884   1.036
 6699SOL     OW20542   3.979   5.072   0.290
 6699SOL    HW120543   3.883   5.073   0.263
 6699SOL    HW220544   3.991   5.125   0.374
 6700SOL     OW20545   3.829   4.737   1.726
 6700SOL    HW120546   3.752   4.704   1.780
 6700SOL    HW220547   3.914   4.707   1.768
 6701SOL     OW20548   4.396   3.927   1.489
 6701SOL    HW120549   4.486   3.911   1.449
 6701SOL    HW220550   4.404   3.932   1.588
 6702SOL     OW20551   3.799   4.069   0.033
 6702SOL    HW120552   3.707   4.041   0.004
 6702SOL    HW220553   3.830   4.146  -0.023
 6703SOL     OW20554   5.164   4.580   1.398
 6703SOL    HW120555   5.107   4.632   1.335
 6703SOL    HW220556   5.260   4.592   1.374
 6704SOL     OW20557   3.796   3.890   0.318
 6704SOL    HW120558   3.779   3.973   0.264
 6704SOL    HW220559   3.886   3.853   0.296
 6705SOL     OW20560   4.907   5.059   0.119
 6705SOL    HW120561   4.808   5.048   0.121
 6705SOL    HW220562   4.941   5.074   0.212
 6706SOL     OW20563   4.337   4.566   1.431
 6706SOL    HW120564   4.393   4.647   1.414
 6706SOL    HW220565   4.396   4.486   1.434
 6707SOL     OW20566   4.440   4.289   1.708
 6707SOL    HW120567   4.459   4.354   1.782
 6707SOL    HW220568   4.500   4.209   1.717
 6708SOL     OW20569   5.174   4.944   1.633
 6708SOL    HW120570   5.165   4.934   1.732
 6708SOL    HW220571   5.270   4.937   1.607
 6709SOL     OW20572   4.949   4.049   0.449
 6709SOL    HW120573   5.014   3.975   0.438
 6709SOL    HW220574   4.969   4.099   0.533
 6710SOL     OW20575   4.318   4.469   0.652
 6710SOL    HW120576   4.368   4.554   0.633
 6710SOL    HW220577   4.230   4.471   0.604
 6711SOL     OW20578   4.583   5.098   0.016
 6711SOL    HW120579   4.537   5.113   0.104
 6711SOL    HW220580   4.627   5.183  -0.014
 6712SOL     OW20581   4.583   4.680   0.861
 6712SOL    HW120582   4.637   4.611   0.909
 6712SOL    HW220583   4.551   4.749   0.927
 6713SOL     OW20584   4.807   4.708   0.087
 6713SOL    HW120585   4.784   4.761   0.005
 6713SOL    HW220586   4.888   4.652   0.068
 6714SOL     OW20587   3.945   5.038   1.844
 6714SOL    HW120588   3.880   4.965   1.823
 6714SOL    HW220589   3.949   5.052   1.942
 6715SOL     OW20590   3.803   4.964   0.653
 6715SOL    HW120591   3.802   4.917   0.741
 6715SOL    HW220592   3.885   4.936   0.602
 6716SOL     OW20593   4.396   5.115   1.624
 6716SOL    HW120594   4.318   5.065   1.662
 6716SOL    HW220595   4.393   5.210   1.655
 6717SOL     OW20596   4.152   4.148   0.520
 6717SOL    HW120597   4.182   4.076   0.458
 6717SOL    HW220598   4.113   4.108   0.603
 6718SOL     OW20599   5.429   5.211   1.104
 6718SOL    HW120600   5.336   5.186   1.077
 6718SOL    HW220601   5.455   5.161   1.186
 6719SOL     OW20602   4.041   4.271   1.280
 6719SOL    HW120603   4.079   4.212   1.352
 6719SOL    HW220604   4.081   4.245   1.192
 6720SOL     OW20605   5.148   3.938   1.112
 6720SOL    HW120606   5.200   3.873   1.167
 6720SOL    HW220607   5.099   4.001   1.173
 6721SOL     OW20608   4.725   3.758   1.154
 6721SOL    HW120609   4.662   3.686   1.123
 6721SOL    HW220610   4.818   3.722   1.154
 6722SOL     OW20611   4.494   5.054   0.301
 6722SOL    HW120612   4.448   4.967   0.318
 6722SOL    HW220613   4.585   5.051   0.342
 6723SOL     OW20614   4.342   5.291   1.284
 6723SOL    HW120615   4.337   5.373   1.341
 6723SOL    HW220616   4.431   5.288   1.239
 6724SOL     OW20617   5.076   3.776   0.168
 6724SOL    HW120618   5.111   3.735   0.084
 6724SOL    HW220619   4.986   3.738   0.188
 6725SOL     OW20620   5.024   4.177   0.691
 6725SOL    HW120621   4.965   4.257   0.695
 6725SOL    HW220622   5.039   4.142   0.784
 6726SOL     OW20623   5.317   3.945   0.882
 6726SOL    HW120624   5.233   3.944   0.936
 6726SOL    HW220625   5.319   4.028   0.826
 6727SOL     OW20626   3.763   4.801   0.300
 6727SOL    HW120627   3.862   4.790   0.291
 6727SOL    HW220628   3.723   4.715   0.332
 6728SOL     OW20629   3.954   4.352   1.975
 6728SOL    HW120630   3.861   4.350   2.012
 6728SOL    HW220631   3.955   4.313   1.883
 6729SOL     OW20632   3.949   3.999   2.858
 6729SOL    HW120633   3.984   3.982   2.950
 6729SOL    HW220634   3.861   3.954   2.846
 6730SOL     OW20635   3.743   4.092   2.509
 6730SOL    HW120636   3.661   4.135   2.548
 6730SOL    HW220637   3.715   4.019   2.446
 6731SOL     OW20638   4.293   4.999   3.027
 6731SOL    HW120639   4.200   4.992   2.990
 6731SOL    HW220640   4.304   5.088   3.071
 6732SOL     OW20641   5.279   5.235   2.565
 6732SOL    HW120642   5.222   5.219   2.646
 6732SOL    HW220643   5.220   5.245   2.485
 6733SOL     OW20644   4.859   4.427   2.579
 6733SOL    HW120645   4.916   4.505   2.554
 6733SOL    HW220646   4.799   4.453   2.655
 6734SOL     OW20647   4.492   4.868   2.885
 6734SOL    HW120648   4.414   4.885   2.945
 6734SOL    HW220649   4.526   4.955   2.849
 6735SOL     OW20650   4.574   4.522   3.685
 6735SOL    HW120651   4.570   4.598   3.750
 6735SOL    HW220652   4.596   4.558   3.594
 6736SOL     OW20653   4.409   4.736   2.527
 6736SOL    HW120654   4.478   4.720   2.597
 6736SOL    HW220655   4.336   4.793   2.565
 6737SOL     OW20656   4.410   4.885   3.665
 6737SOL    HW120657   4.470   4.964   3.679
 6737SOL    HW220658   4.324   4.916   3.624
 6738SOL     OW20659   4.059   5.159   2.923
 6738SOL    HW120660   3.981   5.128   2.870
 6738SOL    HW220661   4.117   5.217   2.866
 6739SOL     OW20662   5.184   5.229   3.201
 6739SOL    HW120663   5.208   5.323   3.227
 6739SOL    HW220664   5.168   5.175   3.283
 6740SOL     OW20665   4.162   4.116   3.361
 6740SOL    HW120666   4.244   4.060   3.370
 6740SOL    HW220667   4.081   4.058   3.365
 6741SOL     OW20668   4.851   5.065   3.552
 6741SOL    HW120669   4.898   5.065   3.640
 6741SOL    HW220670   4.803   4.978   3.541
 6742SOL     OW20671   3.954   5.158   2.400
 6742SOL    HW120672   3.928   5.254   2.400
 6742SOL    HW220673   3.883   5.104   2.445
 6743SOL     OW20674   3.964   4.815   2.748
 6743SOL    HW120675   3.978   4.731   2.800
 6743SOL    HW220676   3.909   4.879   2.803
 6744SOL     OW20677   4.330   4.688   1.985
 6744SOL    HW120678   4.337   4.772   1.931
 6744SOL    HW220679   4.376   4.701   2.073
 6745SOL     OW20680   3.846   4.367   2.425
 6745SOL    HW120681   3.801   4.279   2.442
 6745SOL    HW220682   3.845   4.421   2.509
 6746SOL     OW20683   3.751   5.320   1.979
 6746SOL    HW120684   3.732   5.224   2.000
 6746SOL    HW220685   3.718   5.378   2.054
 6747SOL     OW20686   5.413   4.646   2.474
 6747SOL    HW120687   5.508   4.617   2.482
 6747SOL    HW220688   5.405   4.711   2.399
 6748SOL     OW20689   3.837   4.461   3.459
 6748SOL    HW120690   3.925   4.448   3.504
 6748SOL    HW220691   3.824   4.558   3.437
 6749SOL     OW20692   4.337   5.089   2.588
 6749SOL    HW120693   4.288   5.002   2.597
 6749SOL    HW220694   4.314   5.132   2.501
 6750SOL     OW20695   5.017   4.952   3.285
 6750SOL    HW120696   5.054   4.879   3.227
 6750SOL    HW220697   5.069   4.957   3.370
 6751SOL     OW20698   4.533   3.728   2.364
 6751SOL    HW120699   4.573   3.819   2.355
 6751SOL    HW220700   4.433   3.736   2.370
 6752SOL     OW20701   3.921   4.700   3.126
 6752SOL    HW120702   4.010   4.655   3.112
 6752SOL    HW220703   3.848   4.635   3.107
 6753SOL     OW20704   4.041   3.975   3.663
 6753SOL    HW120705   4.112   4.046   3.669
 6753SOL    HW220706   3.953   4.014   3.691
 6754SOL     OW20707   5.190   5.141   2.815
 6754SOL    HW120708   5.131   5.147   2.895
 6754SOL    HW220709   5.175   5.053   2.769
 6755SOL     OW20710   5.391   5.438   2.434
 6755SOL    HW120711   5.350   5.415   2.346
 6755SOL    HW220712   5.373   5.364   2.499
 6756SOL     OW20713   4.322   4.453   2.132
 6756SOL    HW120714   4.346   4.522   2.064
 6756SOL    HW220715   4.244   4.486   2.186
 6757SOL     OW20716   5.005   4.069   2.806
 6757SOL    HW120717   4.919   4.019   2.793
 6757SOL    HW220718   5.067   4.015   2.862
 6758SOL     OW20719   4.531   4.329   3.327
 6758SOL    HW120720   4.484   4.326   3.416
 6758SOL    HW220721   4.480   4.274   3.261
 6759SOL     OW20722   5.118   4.193   3.536
 6759SOL    HW120723   5.098   4.236   3.624
 6759SOL    HW220724   5.196   4.131   3.545
 6760SOL     OW20725   4.697   4.614   3.434
 6760SOL    HW120726   4.743   4.530   3.405
 6760SOL    HW220727   4.641   4.648   3.359
 6761SOL     OW20728   4.715   4.134   3.104
 6761SOL    HW120729   4.638   4.168   3.158
 6761SOL    HW220730   4.681   4.083   3.025
 6762SOL     OW20731   4.765   4.425   2.291
 6762SOL    HW120732   4.791   4.421   2.387
 6762SOL    HW220733   4.680   4.374   2.277
 6763SOL     OW20734   3.800   4.535   2.651
 6763SOL    HW120735   3.899   4.523   2.660
 6763SOL    HW220736   3.776   4.630   2.672
 6764SOL     OW20737   4.589   4.072   2.057
 6764SOL    HW120738   4.648   4.135   2.008
 6764SOL    HW220739   4.608   3.978   2.028
 6765SOL     OW20740   5.086   4.868   2.407
 6765SOL    HW120741   5.169   4.839   2.359
 6765SOL    HW220742   5.037   4.935   2.351
 6766SOL     OW20743   4.274   3.920   2.747
 6766SOL    HW120744   4.269   3.915   2.847
 6766SOL    HW220745   4.276   4.016   2.718
 6767SOL     OW20746   4.732   5.180   2.339
 6767SOL    HW120747   4.686   5.252   2.287
 6767SOL    HW220748   4.728   5.200   2.437
 6768SOL     OW20749   4.951   5.274   3.368
 6768SOL    HW120750   4.957   5.197   3.432
 6768SOL    HW220751   4.899   5.248   3.288
 6769SOL     OW20752   4.045   4.667   2.104
 6769SOL    HW120753   4.127   4.706   2.062
 6769SOL    HW220754   4.018   4.585   2.055
 6770SOL     OW20755   4.185   4.990   3.589
 6770SOL    HW120756   4.135   4.991   3.503
 6770SOL    HW220757   4.122   4.972   3.665
 6771SOL     OW20758   4.835   5.500   2.099
 6771SOL    HW120759   4.775   5.438   2.149
 6771SOL    HW220760   4.866   5.456   2.014
 6772SOL     OW20761   3.926   4.009   3.360
 6772SOL    HW120762   3.846   4.069   3.347
 6772SOL    HW220763   3.916   3.960   3.446
 6773SOL     OW20764   5.124   3.831   2.288
 6773SOL    HW120765   5.100   3.794   2.198
 6773SOL    HW220766   5.223   3.847   2.292
 6774SOL     OW20767   4.106   4.424   2.342
 6774SOL    HW120768   4.151   4.334   2.339
 6774SOL    HW220769   4.012   4.413   2.375
 6775SOL     OW20770   4.338   3.846   1.979
 6775SOL    HW120771   4.436   3.824   1.986
 6775SOL    HW220772   4.307   3.829   1.886
 6776SOL     OW20773   4.505   3.988   3.611
 6776SOL    HW120774   4.572   3.927   3.654
 6776SOL    HW220775   4.432   4.007   3.676
 6777SOL     OW20776   5.075   4.314   3.295
 6777SOL    HW120777   5.103   4.271   3.380
 6777SOL    HW220778   5.100   4.410   3.296
 6778SOL     OW20779   4.527   5.126   2.786
 6778SOL    HW120780   4.617   5.140   2.744
 6778SOL    HW220781   4.456   5.128   2.715
 6779SOL     OW20782   4.646   4.227   2.761
 6779SOL    HW120783   4.621   4.218   2.665
 6779SOL    HW220784   4.694   4.145   2.792
 6780SOL     OW20785   4.263   3.788   2.374
 6780SOL    HW120786   4.182   3.789   2.432
 6780SOL    HW220787   4.266   3.871   2.319
 6781SOL     OW20788   5.158   4.912   1.903
 6781SOL    HW120789   5.190   4.836   1.960
 6781SOL    HW220790   5.066   4.939   1.933
 6782SOL     OW20791   4.021   3.759   2.033
 6782SOL    HW120792   4.070   3.843   2.012
 6782SOL    HW220793   4.083   3.694   2.078
 6783SOL     OW20794   4.659   3.960   2.342
 6783SOL    HW120795   4.611   4.001   2.264
 6783SOL    HW220796   4.758   3.958   2.323
 6784SOL     OW20797   4.800   4.407   3.326
 6784SOL    HW120798   4.720   4.346   3.329
 6784SOL    HW220799   4.881   4.354   3.302
 6785SOL     OW20800   4.951   5.294   2.655
 6785SOL    HW120801   4.972   5.368   2.590
 6785SOL    HW220802   5.019   5.294   2.728
 6786SOL     OW20803   4.183   4.876   2.603
 6786SOL    HW120804   4.112   4.849   2.668
 6786SOL    HW220805   4.157   4.848   2.510
 6787SOL     OW20806   4.756   4.273   1.878
 6787SOL    HW120807   4.715   4.355   1.839
 6787SOL    HW220808   4.820   4.299   1.951
 6788SOL     OW20809   3.802   4.280   3.248
 6788SOL    HW120810   3.894   4.279   3.207
 6788SOL    HW220811   3.796   4.354   3.315
 6789SOL     OW20812   4.285   3.946   3.009
 6789SOL    HW120813   4.323   3.862   3.046
 6789SOL    HW220814   4.197   3.965   3.053
 6790SOL     OW20815   4.590   4.178   2.504
 6790SOL    HW120816   4.558   4.250   2.442
 6790SOL    HW220817   4.614   4.097   2.451
 6791SOL     OW20818   4.741   3.763   2.615
 6791SOL    HW120819   4.669   3.768   2.546
 6791SOL    HW220820   4.717   3.694   2.684
 6792SOL     OW20821   5.153   4.897   2.729
 6792SOL    HW120822   5.098   4.813   2.722
 6792SOL    HW220823   5.179   4.926   2.637
 6793SOL     OW20824   4.212   5.109   2.036
 6793SOL    HW120825   4.125   5.094   2.083
 6793SOL    HW220826   4.195   5.135   1.941
 6794SOL     OW20827   5.114   4.299   1.940
 6794SOL    HW120828   5.060   4.278   2.021
 6794SOL    HW220829   5.205   4.258   1.949
 6795SOL     OW20830   4.251   3.980   2.190
 6795SOL    HW120831   4.278   3.921   2.115
 6795SOL    HW220832   4.251   4.075   2.159
 6796SOL     OW20833   4.788   5.071   3.202
 6796SOL    HW120834   4.708   5.048   3.257
 6796SOL    HW220835   4.871   5.045   3.251
 6797SOL     OW20836   4.835   4.919   2.962
 6797SOL    HW120837   4.795   4.963   3.043
 6797SOL    HW220838   4.794   4.956   2.879
 6798SOL     OW20839   4.639   3.813   3.264
 6798SOL    HW120840   4.664   3.793   3.169
 6798SOL    HW220841   4.711   3.869   3.306
 6799SOL     OW20842   4.704   4.840   3.581
 6799SOL    HW120843   4.605   4.846   3.591
 6799SOL    HW220844   4.727   4.760   3.525
 6800SOL     OW20845   4.429   4.774   2.230
 6800SOL    HW120846   4.415   4.781   2.329
 6800SOL    HW220847   4.513   4.723   2.212
 6801SOL     OW20848   4.134   4.537   3.113
 6801SOL    HW120849   4.220   4.549   3.163
 6801SOL    HW220850   4.092   4.450   3.140
 6802SOL     OW20851   4.998   4.110   3.124
 6802SOL    HW120852   5.019   4.184   3.188
 6802SOL    HW220853   4.909   4.127   3.081
 6803SOL     OW20854   4.091   4.824   2.363
 6803SOL    HW120855   4.084   4.907   2.307
 6803SOL    HW220856   4.095   4.744   2.303
 6804SOL     OW20857   4.290   4.261   2.727
 6804SOL    HW120858   4.302   4.327   2.653
 6804SOL    HW220859   4.336   4.295   2.810
 6805SOL     OW20860   4.976   5.072   2.250
 6805SOL    HW120861   5.026   5.149   2.290
 6805SOL    HW220862   4.881   5.074   2.282
 6806SOL     OW20863   4.996   5.169   3.004
 6806SOL    HW120864   5.043   5.182   3.091
 6806SOL    HW220865   4.930   5.095   3.013
 6807SOL     OW20866   4.078   5.234   3.191
 6807SOL    HW120867   4.057   5.190   3.104
 6807SOL    HW220868   4.175   5.260   3.194
 6808SOL     OW20869   4.126   4.475   3.460
 6808SOL    HW120870   4.194   4.530   3.413
 6808SOL    HW220871   4.166   4.387   3.487
 6809SOL     OW20872   4.737   3.829   3.632
 6809SOL    HW120873   4.743   3.914   3.580
 6809SOL    HW220874   4.769   3.753   3.575
 6810SOL     OW20875   4.228   3.774   3.602
 6810SOL    HW120876   4.186   3.717   3.532
 6810SOL    HW220877   4.162   3.843   3.634
 6811SOL     OW20878   4.297   4.594   2.891
 6811SOL    HW120879   4.341   4.683   2.882
 6811SOL    HW220880   4.234   4.594   2.968
 6812SOL     OW20881   5.084   4.586   2.907
 6812SOL    HW120882   5.009   4.586   2.841
 6812SOL    HW220883   5.121   4.494   2.916
 6813SOL     OW20884   4.933   4.249   2.137
 6813SOL    HW120885   4.946   4.165   2.191
 6813SOL    HW220886   4.904   4.323   2.197
 6814SOL     OW20887   4.031   3.937   3.093
 6814SOL    HW120888   4.008   3.974   3.183
 6814SOL    HW220889   4.001   3.842   3.087
 6815SOL     OW20890   3.761   5.034   3.144
 6815SOL    HW120891   3.814   4.985   3.212
 6815SOL    HW220892   3.783   5.132   3.149
 6816SOL     OW20893   4.456   4.358   2.926
 6816SOL    HW120894   4.515   4.332   2.850
 6816SOL    HW220895   4.428   4.454   2.915
 6817SOL     OW20896   4.031   3.787   2.480
 6817SOL    HW120897   4.020   3.881   2.513
 6817SOL    HW220898   4.026   3.724   2.557
 6818SOL     OW20899   5.346   4.091   2.236
 6818SOL    HW120900   5.348   4.015   2.300
 6818SOL    HW220901   5.298   4.168   2.276
 6819SOL     OW20902   4.747   4.490   2.828
 6819SOL    HW120903   4.762   4.511   2.924
 6819SOL    HW220904   4.717   4.395   2.819
 6820SOL     OW20905   4.074   4.622   3.666
 6820SOL    HW120906   4.150   4.666   3.714
 6820SOL    HW220907   4.109   4.575   3.584
 6821SOL     OW20908   5.027   4.562   1.904
 6821SOL    HW120909   5.061   4.469   1.919
 6821SOL    HW220910   5.045   4.589   1.809
 6822SOL     OW20911   4.792   5.057   2.711
 6822SOL    HW120912   4.799   4.973   2.656
 6822SOL    HW220913   4.854   5.126   2.675
 6823SOL     OW20914   4.043   4.534   2.811
 6823SOL    HW120915   4.136   4.570   2.816
 6823SOL    HW220916   4.037   4.449   2.863
 6824SOL     OW20917   4.063   4.233   2.868
 6824SOL    HW120918   4.011   4.150   2.851
 6824SOL    HW220919   4.140   4.238   2.804
 6825SOL     OW20920   4.862   4.104   3.540
 6825SOL    HW120921   4.817   4.167   3.604
 6825SOL    HW220922   4.955   4.135   3.523
 6826SOL     OW20923   4.884   3.931   3.339
 6826SOL    HW120924   4.884   3.995   3.416
 6826SOL    HW220925   4.912   3.979   3.256
 6827SOL     OW20926   3.732   5.050   2.062
 6827SOL    HW120927   3.639   5.071   2.031
 6827SOL    HW220928   3.742   4.951   2.075
 6828SOL     OW20929   4.726   4.520   3.100
 6828SOL    HW120930   4.767   4.488   3.186
 6828SOL    HW220931   4.630   4.493   3.097
 6829SOL     OW20932   3.764   4.268   2.976
 6829SOL    HW120933   3.849   4.235   2.935
 6829SOL    HW220934   3.777   4.283   3.074
 6830SOL     OW20935   3.913   4.244   3.584
 6830SOL    HW120936   3.972   4.204   3.514
 6830SOL    HW220937   3.855   4.315   3.543
 6831SOL     OW20938   5.093   4.674   3.522
 6831SOL    HW120939   5.132   4.763   3.542
 6831SOL    HW220940   5.103   4.654   3.425
 6832SOL     OW20941   4.539   4.296   2.187
 6832SOL    HW120942   4.546   4.207   2.141
 6832SOL    HW220943   4.445   4.330   2.179
 6833SOL     OW20944   3.976   5.288   3.606
 6833SOL    HW120945   3.946   5.345   3.682
 6833SOL    HW220946   3.969   5.191   3.632
 6834SOL     OW20947   4.395   4.188   3.131
 6834SOL    HW120948   4.361   4.099   3.101
 6834SOL    HW220949   4.421   4.242   3.051
 6835SOL     OW20950   4.197   4.224   2.053
 6835SOL    HW120951   4.258   4.304   2.057
 6835SOL    HW220952   4.102   4.255   2.060
 6836SOL     OW20953   3.883   4.861   3.328
 6836SOL    HW120954   3.905   4.800   3.404
 6836SOL    HW220955   3.893   4.812   3.242
 6837SOL     OW20956   5.071   4.783   3.096
 6837SOL    HW120957   5.095   4.720   3.022
 6837SOL    HW220958   4.981   4.823   3.078
 6838SOL     OW20959   5.026   4.579   2.171
 6838SOL    HW120960   4.940   4.548   2.213
 6838SOL    HW220961   5.022   4.565   2.072
 6839SOL     OW20962   3.807   4.982   2.884
 6839SOL    HW120963   3.802   4.981   2.984
 6839SOL    HW220964   3.724   4.941   2.846
 6840SOL     OW20965   4.412   5.386   3.578
 6840SOL    HW120966   4.356   5.467   3.587
 6840SOL    HW220967   4.464   5.390   3.492
 6841SOL     OW20968   5.450   3.859   2.385
 6841SOL    HW120969   5.523   3.842   2.318
 6841SOL    HW220970   5.419   3.772   2.423
 6842SOL     OW20971   5.004   4.651   2.534
 6842SOL    HW120972   5.064   4.570   2.536
 6842SOL    HW220973   5.044   4.720   2.474
 6843SOL     OW20974   4.554   4.997   3.284
 6843SOL    HW120975   4.549   5.030   3.379
 6843SOL    HW220976   4.468   5.016   3.238
 6844SOL     OW20977   3.987   4.050   2.582
 6844SOL    HW120978   3.908   4.101   2.548
 6844SOL    HW220979   3.978   4.035   2.680
 6845SOL     OW20980   4.546   4.726   3.234
 6845SOL    HW120981   4.586   4.725   3.142
 6845SOL    HW220982   4.556   4.818   3.274
 6846SOL     OW20983   4.640   4.634   2.153
 6846SOL    HW120984   4.703   4.672   2.085
 6846SOL    HW220985   4.680   4.551   2.192
 6847SOL     OW20986   4.096   5.012   3.352
 6847SOL    HW120987   4.083   5.105   3.318
 6847SOL    HW220988   4.012   4.960   3.339
 6848SOL     OW20989   4.763   4.822   2.558
 6848SOL    HW120990   4.693   4.775   2.612
 6848SOL    HW220991   4.822   4.754   2.515
 6849SOL     OW20992   4.738   3.960   2.833
 6849SOL    HW120993   4.730   3.924   2.740
 6849SOL    HW220994   4.736   3.884   2.898
 6850SOL     OW20995   3.979   5.072   2.152
 6850SOL    HW120996   3.883   5.073   2.125
 6850SOL    HW220997   3.991   5.125   2.236
 6851SOL     OW20998   3.829   4.737   3.588
 6851SOL    HW120999   3.752   4.704   3.642
 6851SOL    HW221000   3.914   4.707   3.630
 6852SOL     OW21001   4.396   3.927   3.351
 6852SOL    HW121002   4.486   3.911   3.311
 6852SOL    HW221003   4.404   3.932   3.450
 6853SOL     OW21004   3.799   4.069   1.895
 6853SOL    HW121005   3.707   4.041   1.866
 6853SOL    HW221006   3.830   4.146   1.839
 6854SOL     OW21007   5.164   4.580   3.260
 6854SOL    HW121008   5.107   4.632   3.197
 6854SOL    HW221009   5.260   4.592   3.236
 6855SOL     OW21010   3.796   3.890   2.180
 6855SOL    HW121011   3.779   3.973   2.126
 6855SOL    HW221012   3.886   3.853   2.158
 6856SOL     OW21013   4.907   5.059   1.981
 6856SOL    HW121014   4.808   5.048   1.983
 6856SOL    HW221015   4.941   5.074   2.074
 6857SOL     OW21016   4.337   4.566   3.293
 6857SOL    HW121017   4.393   4.647   3.276
 6857SOL    HW221018   4.396   4.486   3.296
 6858SOL     OW21019   4.440   4.289   3.570
 6858SOL    HW121020   4.459   4.354   3.644
 6858SOL    HW221021   4.500   4.209   3.579
 6859SOL     OW21022   5.174   4.944   3.495
 6859SOL    HW121023   5.165   4.934   3.594
 6859SOL    HW221024   5.270   4.937   3.469
 6860SOL     OW21025   4.949   4.049   2.311
 6860SOL    HW121026   5.014   3.975   2.300
 6860SOL    HW221027   4.969   4.099   2.395
 6861SOL     OW21028   4.318   4.469   2.514
 6861SOL    HW121029   4.368   4.554   2.495
 6861SOL    HW221030   4.230   4.471   2.466
 6862SOL     OW21031   4.583   5.098   1.878
 6862SOL    HW121032   4.537   5.113   1.966
 6862SOL    HW221033   4.627   5.183   1.848
 6863SOL     OW21034   4.583   4.680   2.723
 6863SOL    HW121035   4.637   4.611   2.771
 6863SOL    HW221036   4.551   4.749   2.789
 6864SOL     OW21037   4.807   4.708   1.949
 6864SOL    HW121038   4.784   4.761   1.867
 6864SOL    HW221039   4.888   4.652   1.930
 6865SOL     OW21040   3.945   5.038   3.706
 6865SOL    HW121041   3.880   4.965   3.685
 6865SOL    HW221042   3.949   5.052   3.804
 6866SOL     OW21043   3.803   4.964   2.515
 6866SOL    HW121044   3.802   4.917   2.603
 6866SOL    HW221045   3.885   4.936   2.464
 6867SOL     OW21046   4.396   5.115   3.486
 6867SOL    HW121047   4.318   5.065   3.524
 6867SOL    HW221048   4.393   5.210   3.517
 6868SOL     OW21049   4.152   4.148   2.382
 6868SOL    HW121050   4.182   4.076   2.320
 6868SOL    HW221051   4.113   4.108   2.465
 6869SOL     OW21052   5.429   5.211   2.966
 6869SOL    HW121053   5.336   5.186   2.939
 6869SOL    HW221054   5.455   5.161   3.048
 6870SOL     OW21055   4.041   4.271   3.142
 6870SOL    HW121056   4.079   4.212   3.214
 6870SOL    HW221057   4.081   4.245   3.054
 6871SOL     OW21058   5.148   3.938   2.974
 6871SOL    HW121059   5.200   3.873   3.029
 6871SOL    HW221060   5.099   4.001   3.035
 6872SOL     OW21061   4.725   3.758   3.016
 6872SOL    HW121062   4.662   3.686   2.985
 6872SOL    HW221063   4.818   3.722   3.016
 6873SOL     OW21064   4.494   5.054   2.163
 6873SOL    HW121065   4.448   4.967   2.180
 6873SOL    HW221066   4.585   5.051   2.204
 6874SOL     OW21067   4.342   5.291   3.146
 6874SOL    HW121068   4.337   5.373   3.203
 6874SOL    HW221069   4.431   5.288   3.101
 6875SOL     OW21070   5.076   3.776   2.030
 6875SOL    HW121071   5.111   3.735   1.946
 6875SOL    HW221072   4.986   3.738   2.050
 6876SOL     OW21073   5.024   4.177   2.553
 6876SOL    HW121074   4.965   4.257   2.557
 6876SOL    HW221075   5.039   4.142   2.646
 6877SOL     OW21076   5.317   3.945   2.744
 6877SOL    HW121077   5.233   3.944   2.798
 6877SOL    HW221078   5.319   4.028   2.688
 6878SOL     OW21079   3.763   4.801   2.162
 6878SOL    HW121080   3.862   4.790   2.153
 6878SOL    HW221081   3.723   4.715   2.194
 6879SOL     OW21082   3.954   4.352   3.837
 6879SOL    HW121083   3.861   4.350   3.874
 6879SOL    HW221084   3.955   4.313   3.745
 6880SOL     OW21085   3.949   3.999   4.720
 6880SOL    HW121086   3.984   3.982   4.812
 6880SOL    HW221087   3.861   3.954   4.708
 6881SOL     OW21088   3.743   4.092   4.371
 6881SOL    HW121089   3.661   4.135   4.410
 6881SOL    HW221090   3.715   4.019   4.308
 6882SOL     OW21091   4.293   4.999   4.889
 6882SOL    HW121092   4.200   4.992   4.852
 6882SOL    HW221093   4.304   5.088   4.933
 6883SOL     OW21094   5.279   5.235   4.427
 6883SOL    HW121095   5.222   5.219   4.508
 6883SOL    HW221096   5.220   5.245   4.347
 6884SOL     OW21097   4.859   4.427   4.441
 6884SOL    HW121098   4.916   4.505   4.416
 6884SOL    HW221099   4.799   4.453   4.517
 6885SOL     OW21100   4.492   4.868   4.747
 6885SOL    HW121101   4.414   4.885   4.807
 6885SOL    HW221102   4.526   4.955   4.711
 6886SOL     OW21103   4.574   4.522   5.547
 6886SOL    HW121104   4.570   4.598   5.612
 6886SOL    HW221105   4.596   4.558   5.456
 6887SOL     OW21106   4.409   4.736   4.389
 6887SOL    HW121107   4.478   4.720   4.459
 6887SOL    HW221108   4.336   4.793   4.427
 6888SOL     OW21109   4.410   4.885   5.527
 6888SOL    HW121110   4.470   4.964   5.541
 6888SOL    HW221111   4.324   4.916   5.486
 6889SOL     OW21112   4.059   5.159   4.785
 6889SOL    HW121113   3.981   5.128   4.732
 6889SOL    HW221114   4.117   5.217   4.728
 6890SOL     OW21115   5.184   5.229   5.063
 6890SOL    HW121116   5.208   5.323   5.089
 6890SOL    HW221117   5.168   5.175   5.145
 6891SOL     OW21118   4.162   4.116   5.223
 6891SOL    HW121119   4.244   4.060   5.232
 6891SOL    HW221120   4.081   4.058   5.227
 6892SOL     OW21121   4.851   5.065   5.414
 6892SOL    HW121122   4.898   5.065   5.502
 6892SOL    HW221123   4.803   4.978   5.403
 6893SOL     OW21124   3.954   5.158   4.262
 6893SOL    HW121125   3.928   5.254   4.262
 6893SOL    HW221126   3.883   5.104   4.307
 6894SOL     OW21127   3.964   4.815   4.610
 6894SOL    HW121128   3.978   4.731   4.662
 6894SOL    HW221129   3.909   4.879   4.665
 6895SOL     OW21130   4.330   4.688   3.847
 6895SOL    HW121131   4.337   4.772   3.793
 6895SOL    HW221132   4.376   4.701   3.935
 6896SOL     OW21133   3.846   4.367   4.287
 6896SOL    HW121134   3.801   4.279   4.304
 6896SOL    HW221135   3.845   4.421   4.371
 6897SOL     OW21136   3.751   5.320   3.841
 6897SOL    HW121137   3.732   5.224   3.862
 6897SOL    HW221138   3.718   5.378   3.916
 6898SOL     OW21139   5.413   4.646   4.336
 6898SOL    HW121140   5.508   4.617   4.344
 6898SOL    HW221141   5.405   4.711   4.261
 6899SOL     OW21142   3.837   4.461   5.321
 6899SOL    HW121143   3.925   4.448   5.366
 6899SOL    HW221144   3.824   4.558   5.299
 6900SOL     OW21145   4.337   5.089   4.450
 6900SOL    HW121146   4.288   5.002   4.459
 6900SOL    HW221147   4.314   5.132   4.363
 6901SOL     OW21148   5.017   4.952   5.147
 6901SOL    HW121149   5.054   4.879   5.089
 6901SOL    HW221150   5.069   4.957   5.232
 6902SOL     OW21151   4.533   3.728   4.226
 6902SOL    HW121152   4.573   3.819   4.217
 6902SOL    HW221153   4.433   3.736   4.232
 6903SOL     OW21154   3.921   4.700   4.988
 6903SOL    HW121155   4.010   4.655   4.974
 6903SOL    HW221156   3.848   4.635   4.969
 6904SOL     OW21157   4.041   3.975   5.525
 6904SOL    HW121158   4.112   4.046   5.531
 6904SOL    HW221159   3.953   4.014   5.553
 6905SOL     OW21160   5.190   5.141   4.677
 6905SOL    HW121161   5.131   5.147   4.757
 6905SOL    HW221162   5.175   5.053   4.631
 6906SOL     OW21163   5.391   5.438   4.296
 6906SOL    HW121164   5.350   5.415   4.208
 6906SOL    HW221165   5.373   5.364   4.361
 6907SOL     OW21166   4.322   4.453   3.994
 6907SOL    HW121167   4.346   4.522   3.926
 6907SOL    HW221168   4.244   4.486   4.048
 6908SOL     OW21169   5.005   4.069   4.668
 6908SOL    HW121170   4.919   4.019   4.655
 6908SOL    HW221171   5.067   4.015   4.724
 6909SOL     OW21172   4.531   4.329   5.189
 6909SOL    HW121173   4.484   4.326   5.278
 6909SOL    HW221174   4.480   4.274   5.123
 6910SOL     OW21175   5.118   4.193   5.398
 6910SOL    HW121176   5.098   4.236   5.486
 6910SOL    HW221177   5.196   4.131   5.407
 6911SOL     OW21178   4.697   4.614   5.296
 6911SOL    HW121179   4.743   4.530   5.267
 6911SOL    HW221180   4.641   4.648   5.221
 6912SOL     OW21181   4.715   4.134   4.966
 6912SOL    HW121182   4.638   4.168   5.020
 6912SOL    HW221183   4.681   4.083   4.887
 6913SOL     OW21184   4.765   4.425   4.153
 6913SOL    HW121185   4.791   4.421   4.249
 6913SOL    HW221186   4.680   4.374   4.139
 6914SOL     OW21187   3.800   4.535   4.513
 6914SOL    HW121188   3.899   4.523   4.522
 6914SOL    HW221189   3.776   4.630   4.534
 6915SOL     OW21190   4.589   4.072   3.919
 6915SOL    HW121191   4.648   4.135   3.870
 6915SOL    HW221192   4.608   3.978   3.890
 6916SOL     OW21193   5.086   4.868   4.269
 6916SOL    HW121194   5.169   4.839   4.221
 6916SOL    HW221195   5.037   4.935   4.213
 6917SOL     OW21196   4.274   3.920   4.609
 6917SOL    HW121197   4.269   3.915   4.709
 6917SOL    HW221198   4.276   4.016   4.580
 6918SOL     OW21199   4.732   5.180   4.201
 6918SOL    HW121200   4.686   5.252   4.149
 6918SOL    HW221201   4.728   5.200   4.299
 6919SOL     OW21202   4.951   5.274   5.230
 6919SOL    HW121203   4.957   5.197   5.294
 6919SOL    HW221204   4.899   5.248   5.150
 6920SOL     OW21205   4.045   4.667   3.966
 6920SOL    HW121206   4.127   4.706   3.924
 6920SOL    HW221207   4.018   4.585   3.917
 6921SOL     OW21208   4.185   4.990   5.451
 6921SOL    HW121209   4.135   4.991   5.365
 6921SOL    HW221210   4.122   4.972   5.527
 6922SOL     OW21211   4.835   5.500   3.961
 6922SOL    HW121212   4.775   5.438   4.011
 6922SOL    HW221213   4.866   5.456   3.876
 6923SOL     OW21214   3.926   4.009   5.222
 6923SOL    HW121215   3.846   4.069   5.209
 6923SOL    HW221216   3.916   3.960   5.308
 6924SOL     OW21217   5.124   3.831   4.150
 6924SOL    HW121218   5.100   3.794   4.060
 6924SOL    HW221219   5.223   3.847   4.154
 6925SOL     OW21220   4.106   4.424   4.204
 6925SOL    HW121221   4.151   4.334   4.201
 6925SOL    HW221222   4.012   4.413   4.237
 6926SOL     OW21223   4.338   3.846   3.841
 6926SOL    HW121224   4.436   3.824   3.848
 6926SOL    HW221225   4.307   3.829   3.748
 6927SOL     OW21226   4.505   3.988   5.473
 6927SOL    HW121227   4.572   3.927   5.516
 6927SOL    HW221228   4.432   4.007   5.538
 6928SOL     OW21229   5.075   4.314   5.157
 6928SOL    HW121230   5.103   4.271   5.242
 6928SOL    HW221231   5.100   4.410   5.158
 6929SOL     OW21232   4.527   5.126   4.648
 6929SOL    HW121233   4.617   5.140   4.606
 6929SOL    HW221234   4.456   5.128   4.577
 6930SOL     OW21235   4.646   4.227   4.623
 6930SOL    HW121236   4.621   4.218   4.527
 6930SOL    HW221237   4.694   4.145   4.654
 6931SOL     OW21238   4.263   3.788   4.236
 6931SOL    HW121239   4.182   3.789   4.294
 6931SOL    HW221240   4.266   3.871   4.181
 6932SOL     OW21241   5.158   4.912   3.765
 6932SOL    HW121242   5.190   4.836   3.822
 6932SOL    HW221243   5.066   4.939   3.795
 6933SOL     OW21244   4.021   3.759   3.895
 6933SOL    HW121245   4.070   3.843   3.874
 6933SOL    HW221246   4.083   3.694   3.940
 6934SOL     OW21247   4.659   3.960   4.204
 6934SOL    HW121248   4.611   4.001   4.126
 6934SOL    HW221249   4.758   3.958   4.185
 6935SOL     OW21250   4.800   4.407   5.188
 6935SOL    HW121251   4.720   4.346   5.191
 6935SOL    HW221252   4.881   4.354   5.164
 6936SOL     OW21253   4.951   5.294   4.517
 6936SOL    HW121254   4.972   5.368   4.452
 6936SOL    HW221255   5.019   5.294   4.590
 6937SOL     OW21256   4.183   4.876   4.465
 6937SOL    HW121257   4.112   4.849   4.530
 6937SOL    HW221258   4.157   4.848   4.372
 6938SOL     OW21259   4.756   4.273   3.740
 6938SOL    HW121260   4.715   4.355   3.701
 6938SOL    HW221261   4.820   4.299   3.813
 6939SOL     OW21262   3.802   4.280   5.110
 6939SOL    HW121263   3.894   4.279   5.069
 6939SOL    HW221264   3.796   4.354   5.177
 6940SOL     OW21265   4.285   3.946   4.871
 6940SOL    HW121266   4.323   3.862   4.908
 6940SOL    HW221267   4.197   3.965   4.915
 6941SOL     OW21268   4.590   4.178   4.366
 6941SOL    HW121269   4.558   4.250   4.304
 6941SOL    HW221270   4.614   4.097   4.313
 6942SOL     OW21271   4.741   3.763   4.477
 6942SOL    HW121272   4.669   3.768   4.408
 6942SOL    HW221273   4.717   3.694   4.546
 6943SOL     OW21274   5.153   4.897   4.591
 6943SOL    HW121275   5.098   4.813   4.584
 6943SOL    HW221276   5.179   4.926   4.499
 6944SOL     OW21277   4.212   5.109   3.898
 6944SOL    HW121278   4.125   5.094   3.945
 6944SOL    HW221279   4.195   5.135   3.803
 6945SOL     OW21280   5.114   4.299   3.802
 6945SOL    HW121281   5.060   4.278   3.883
 6945SOL    HW221282   5.205   4.258   3.811
 6946SOL     OW21283   4.251   3.980   4.052
 6946SOL    HW121284   4.278   3.921   3.977
 6946SOL    HW221285   4.251   4.075   4.021
 6947SOL     OW21286   4.788   5.071   5.064
 6947SOL    HW121287   4.708   5.048   5.119
 6947SOL    HW221288   4.871   5.045   5.113
 6948SOL     OW21289   4.835   4.919   4.824
 6948SOL    HW121290   4.795   4.963   4.905
 6948SOL    HW221291   4.794   4.956   4.741
 6949SOL     OW21292   4.639   3.813   5.126
 6949SOL    HW121293   4.664   3.793   5.031
 6949SOL    HW221294   4.711   3.869   5.168
 6950SOL     OW21295   4.704   4.840   5.443
 6950SOL    HW121296   4.605   4.846   5.453
 6950SOL    HW221297   4.727   4.760   5.387
 6951SOL     OW21298   4.429   4.774   4.092
 6951SOL    HW121299   4.415   4.781   4.191
 6951SOL    HW221300   4.513   4.723   4.074
 6952SOL     OW21301   4.134   4.537   4.975
 6952SOL    HW121302   4.220   4.549   5.025
 6952SOL    HW221303   4.092   4.450   5.002
 6953SOL     OW21304   4.998   4.110   4.986
 6953SOL    HW121305   5.019   4.184   5.050
 6953SOL    HW221306   4.909   4.127   4.943
 6954SOL     OW21307   4.091   4.824   4.225
 6954SOL    HW121308   4.084   4.907   4.169
 6954SOL    HW221309   4.095   4.744   4.165
 6955SOL     OW21310   4.290   4.261   4.589
 6955SOL    HW121311   4.302   4.327   4.515
 6955SOL    HW221312   4.336   4.295   4.672
 6956SOL     OW21313   4.976   5.072   4.112
 6956SOL    HW121314   5.026   5.149   4.152
 6956SOL    HW221315   4.881   5.074   4.144
 6957SOL     OW21316   4.996   5.169   4.866
 6957SOL    HW121317   5.043   5.182   4.953
 6957SOL    HW221318   4.930   5.095   4.875
 6958SOL     OW21319   4.078   5.234   5.053
 6958SOL    HW121320   4.057   5.190   4.966
 6958SOL    HW221321   4.175   5.260   5.056
 6959SOL     OW21322   4.126   4.475   5.322
 6959SOL    HW121323   4.194   4.530   5.275
 6959SOL    HW221324   4.166   4.387   5.349
 6960SOL     OW21325   4.737   3.829   5.494
 6960SOL    HW121326   4.743   3.914   5.442
 6960SOL    HW221327   4.769   3.753   5.437
 6961SOL     OW21328   4.228   3.774   5.464
 6961SOL    HW121329   4.186   3.717   5.394
 6961SOL    HW221330   4.162   3.843   5.496
 6962SOL     OW21331   4.297   4.594   4.753
 6962SOL    HW121332   4.341   4.683   4.744
 6962SOL    HW221333   4.234   4.594   4.830
 6963SOL     OW21334   5.084   4.586   4.769
 6963SOL    HW121335   5.009   4.586   4.703
 6963SOL    HW221336   5.121   4.494   4.778
 6964SOL     OW21337   4.933   4.249   3.999
 6964SOL    HW121338   4.946   4.165   4.053
 6964SOL    HW221339   4.904   4.323   4.059
 6965SOL     OW21340   4.031   3.937   4.955
 6965SOL    HW121341   4.008   3.974   5.045
 6965SOL    HW221342   4.001   3.842   4.949
 6966SOL     OW21343   3.761   5.034   5.006
 6966SOL    HW121344   3.814   4.985   5.074
 6966SOL    HW221345   3.783   5.132   5.011
 6967SOL     OW21346   4.456   4.358   4.788
 6967SOL    HW121347   4.515   4.332   4.712
 6967SOL    HW221348   4.428   4.454   4.777
 6968SOL     OW21349   4.031   3.787   4.342
 6968SOL    HW121350   4.020   3.881   4.375
 6968SOL    HW221351   4.026   3.724   4.419
 6969SOL     OW21352   5.346   4.091   4.098
 6969SOL    HW121353   5.348   4.015   4.162
 6969SOL    HW221354   5.298   4.168   4.138
 6970SOL     OW21355   4.747   4.490   4.690
 6970SOL    HW121356   4.762   4.511   4.786
 6970SOL    HW221357   4.717   4.395   4.681
 6971SOL     OW21358   4.074   4.622   5.528
 6971SOL    HW121359   4.150   4.666   5.576
 6971SOL    HW221360   4.109   4.575   5.446
 6972SOL     OW21361   5.027   4.562   3.766
 6972SOL    HW121362   5.061   4.469   3.781
 6972SOL    HW221363   5.045   4.589   3.671
 6973SOL     OW21364   4.792   5.057   4.573
 6973SOL    HW121365   4.799   4.973   4.518
 6973SOL    HW221366   4.854   5.126   4.537
 6974SOL     OW21367   4.043   4.534   4.673
 6974SOL    HW121368   4.136   4.570   4.678
 6974SOL    HW221369   4.037   4.449   4.725
 6975SOL     OW21370   4.063   4.233   4.730
 6975SOL    HW121371   4.011   4.150   4.713
 6975SOL    HW221372   4.140   4.238   4.666
 6976SOL     OW21373   4.862   4.104   5.402
 6976SOL    HW121374   4.817   4.167   5.466
 6976SOL    HW221375   4.955   4.135   5.385
 6977SOL     OW21376   4.884   3.931   5.201
 6977SOL    HW121377   4.884   3.995   5.278
 6977SOL    HW221378   4.912   3.979   5.118
 6978SOL     OW21379   3.732   5.050   3.924
 6978SOL    HW121380   3.639   5.071   3.893
 6978SOL    HW221381   3.742   4.951   3.937
 6979SOL     OW21382   4.726   4.520   4.962
 6979SOL    HW121383   4.767   4.488   5.048
 6979SOL    HW221384   4.630   4.493   4.959
 6980SOL     OW21385   3.764   4.268   4.838
 6980SOL    HW121386   3.849   4.235   4.797
 6980SOL    HW221387   3.777   4.283   4.936
 6981SOL     OW21388   3.913   4.244   5.446
 6981SOL    HW121389   3.972   4.204   5.376
 6981SOL    HW221390   3.855   4.315   5.405
 6982SOL     OW21391   5.093   4.674   5.384
 6982SOL    HW121392   5.132   4.763   5.404
 6982SOL    HW221393   5.103   4.654   5.287
 6983SOL     OW21394   4.539   4.296   4.049
 6983SOL    HW121395   4.546   4.207   4.003
 6983SOL    HW221396   4.445   4.330   4.041
 6984SOL     OW21397   3.976   5.288   5.468
 6984SOL    HW121398   3.946   5.345   5.544
 6984SOL    HW221399   3.969   5.191   5.494
 6985SOL     OW21400   4.395   4.188   4.993
 6985SOL    HW121401   4.361   4.099   4.963
 6985SOL    HW221402   4.421   4.242   4.913
 6986SOL     OW21403   4.197   4.224   3.915
 6986SOL    HW121404   4.258   4.304   3.919
 6986SOL    HW221405   4.102   4.255   3.922
 6987SOL     OW21406   3.883   4.861   5.190
 6987SOL    HW121407   3.905   4.800   5.266
 6987SOL    HW221408   3.893   4.812   5.104
 6988SOL     OW21409   5.071   4.783   4.958
 6988SOL    HW121410   5.095   4.720   4.884
 6988SOL    HW221411   4.981   4.823   4.940
 6989SOL     OW21412   5.026   4.579   4.033
 6989SOL    HW121413   4.940   4.548   4.075
 6989SOL    HW221414   5.022   4.565   3.934
 6990SOL     OW21415   3.807   4.982   4.746
 6990SOL    HW121416   3.802   4.981   4.846
 6990SOL    HW221417   3.724   4.941   4.708
 6991SOL     OW21418   4.412   5.386   5.440
 6991SOL    HW121419   4.356   5.467   5.449
 6991SOL    HW221420   4.464   5.390   5.354
 6992SOL     OW21421   5.450   3.859   4.247
 6992SOL    HW121422   5.523   3.842   4.180
 6992SOL    HW221423   5.419   3.772   4.285
 6993SOL     OW21424   5.004   4.651   4.396
 6993SOL    HW121425   5.064   4.570   4.398
 6993SOL    HW221426   5.044   4.720   4.336
 6994SOL     OW21427   4.554   4.997   5.146
 6994SOL    HW121428   4.549   5.030   5.241
 6994SOL    HW221429   4.468   5.016   5.100
 6995SOL     OW21430   3.987   4.050   4.444
 6995SOL    HW121431   3.908   4.101   4.410
 6995SOL    HW221432   3.978   4.035   4.542
 6996SOL     OW21433   4.546   4.726   5.096
 6996SOL    HW121434   4.586   4.725   5.004
 6996SOL    HW221435   4.556   4.818   5.136
 6997SOL     OW21436   4.640   4.634   4.015
 6997SOL    HW121437   4.703   4.672   3.947
 6997SOL    HW221438   4.680   4.551   4.054
 6998SOL     OW21439   4.096   5.012   5.214
 6998SOL    HW121440   4.083   5.105   5.180
 6998SOL    HW221441   4.012   4.960   5.201
 6999SOL     OW21442   4.763   4.822   4.420
 6999SOL    HW121443   4.693   4.775   4.474
 6999SOL    HW221444   4.822   4.754   4.377
 7000SOL     OW21445   4.738   3.960   4.695
 7000SOL    HW121446   4.730   3.924   4.602
 7000SOL    HW221447   4.736   3.884   4.760
 7001SOL     OW21448   3.979   5.072   4.014
 7001SOL    HW121449   3.883   5.073   3.987
 7001SOL    HW221450   3.991   5.125   4.098
 7002SOL     OW21451   3.829   4.737   5.450
 7002SOL    HW121452   3.752   4.704   5.504
 7002SOL    HW221453   3.914   4.707   5.492
 7003SOL     OW21454   4.396   3.927   5.213
 7003SOL    HW121455   4.486   3.911   5.173
 7003SOL    HW221456   4.404   3.932   5.312
 7004SOL     OW21457   3.799   4.069   3.757
 7004SOL    HW121458   3.707   4.041   3.728
 7004SOL    HW221459   3.830   4.146   3.701
 7005SOL     OW21460   5.164   4.580   5.122
 7005SOL    HW121461   5.107   4.632   5.059
 7005SOL    HW221462   5.260   4.592   5.098
 7006SOL     OW21463   3.796   3.890   4.042
 7006SOL    HW121464   3.779   3.973   3.988
 7006SOL    HW221465   3.886   3.853   4.020
 7007SOL     OW21466   4.907   5.059   3.843
 7007SOL    HW121467   4.808   5.048   3.845
 7007SOL    HW221468   4.941   5.074   3.936
 7008SOL     OW21469   4.337   4.566   5.155
 7008SOL    HW121470   4.393   4.647   5.138
 7008SOL    HW221471   4.396   4.486   5.158
 7009SOL     OW21472   4.440   4.289   5.432
 7009SOL    HW121473   4.459   4.354   5.506
 7009SOL    HW221474   4.500   4.209   5.441
 7010SOL     OW21475   5.174   4.944   5.357
 7010SOL    HW121476   5.165   4.934   5.456
 7010SOL    HW221477   5.270   4.937   5.331
 7011SOL     OW21478   4.949   4.049   4.173
 7011SOL    HW121479   5.014   3.975   4.162
 7011SOL    HW221480   4.969   4.099   4.257
 7012SOL     OW21481   4.318   4.469   4.376
 7012SOL    HW121482   4.368   4.554   4.357
 7012SOL    HW221483   4.230   4.471   4.328
 7013SOL     OW21484   4.583   5.098   3.740
 7013SOL    HW121485   4.537   5.113   3.828
 7013SOL    HW221486   4.627   5.183   3.710
 7014SOL     OW21487   4.583   4.680   4.585
 7014SOL    HW121488   4.637   4.611   4.633
 7014SOL    HW221489   4.551   4.749   4.651
 7015SOL     OW21490   4.807   4.708   3.811
 7015SOL    HW121491   4.784   4.761   3.729
 7015SOL    HW221492   4.888   4.652   3.792
 7016SOL     OW21493   3.945   5.038   5.568
 7016SOL    HW121494   3.880   4.965   5.547
 7016SOL    HW221495   3.949   5.052   5.666
 7017SOL     OW21496   3.803   4.964   4.377
 7017SOL    HW121497   3.802   4.917   4.465
 7017SOL    HW221498   3.885   4.936   4.326
 7018SOL     OW21499   4.396   5.115   5.348
 7018SOL    HW121500   4.318   5.065   5.386
 7018SOL    HW221501   4.393   5.210   5.379
 7019SOL     OW21502   4.152   4.148   4.244
 7019SOL    HW121503   4.182   4.076   4.182
 7019SOL    HW221504   4.113   4.108   4.327
 7020SOL     OW21505   5.429   5.211   4.828
 7020SOL    HW121506   5.336   5.186   4.801
 7020SOL    HW221507   5.455   5.161   4.910
 7021SOL     OW21508   4.041   4.271   5.004
 7021SOL    HW121509   4.079   4.212   5.076
 7021SOL    HW221510   4.081   4.245   4.916
 7022SOL     OW21511   5.148   3.938   4.836
 7022SOL    HW121512   5.200   3.873   4.891
 7022SOL    HW221513   5.099   4.001   4.897
 7023SOL     OW21514   4.725   3.758   4.878
 7023SOL    HW121515   4.662   3.686   4.847
 7023SOL    HW221516   4.818   3.722   4.878
 7024SOL     OW21517   4.494   5.054   4.025
 7024SOL    HW121518   4.448   4.967   4.042
 7024SOL    HW221519   4.585   5.051   4.066
 7025SOL     OW21520   4.342   5.291   5.008
 7025SOL    HW121521   4.337   5.373   5.065
 7025SOL    HW221522   4.431   5.288   4.963
 7026SOL     OW21523   5.076   3.776   3.892
 7026SOL    HW121524   5.111   3.735   3.808
 7026SOL    HW221525   4.986   3.738   3.912
 7027SOL     OW21526   5.024   4.177   4.415
 7027SOL    HW121527   4.965   4.257   4.419
 7027SOL    HW221528   5.039   4.142   4.508
 7028SOL     OW21529   5.317   3.945   4.606
 7028SOL    HW121530   5.233   3.944   4.660
 7028SOL    HW221531   5.319   4.028   4.550
 7029SOL     OW21532   3.763   4.801   4.024
 7029SOL    HW121533   3.862   4.790   4.015
 7029SOL    HW221534   3.723   4.715   4.056
 7030SOL     OW21535   3.954   4.352   5.699
 7030SOL    HW121536   3.861   4.350   5.736
 7030SOL    HW221537   3.955   4.313   5.607
 7031SOL     OW21538   3.949   3.999   6.582
 7031SOL    HW121539   3.984   3.982   6.674
 7031SOL    HW221540   3.861   3.954   6.570
 7032SOL     OW21541   3.743   4.092   6.233
 7032SOL    HW121542   3.661   4.135   6.272
 7032SOL    HW221543   3.715   4.019   6.170
 7033SOL     OW21544   4.293   4.999   6.751
 7033SOL    HW121545   4.200   4.992   6.714
 7033SOL    HW221546   4.304   5.088   6.795
 7034SOL     OW21547   5.279   5.235   6.289
 7034SOL    HW121548   5.222   5.219   6.370
 7034SOL    HW221549   5.220   5.245   6.209
 7035SOL     OW21550   4.859   4.427   6.303
 7035SOL    HW121551   4.916   4.505   6.278
 7035SOL    HW221552   4.799   4.453   6.379
 7036SOL     OW21553   4.492   4.868   6.609
 7036SOL    HW121554   4.414   4.885   6.669
 7036SOL    HW221555   4.526   4.955   6.573
 7037SOL     OW21556   4.574   4.522   7.409
 7037SOL    HW121557   4.570   4.598   7.474
 7037SOL    HW221558   4.596   4.558   7.318
 7038SOL     OW21559   4.409   4.736   6.251
 7038SOL    HW121560   4.478   4.720   6.321
 7038SOL    HW221561   4.336   4.793   6.289
 7039SOL     OW21562   4.410   4.885   7.389
 7039SOL    HW121563   4.470   4.964   7.403
 7039SOL    HW221564   4.324   4.916   7.348
 7040SOL     OW21565   4.059   5.159   6.647
 7040SOL    HW121566   3.981   5.128   6.594
 7040SOL    HW221567   4.117   5.217   6.590
 7041SOL     OW21568   5.184   5.229   6.925
 7041SOL    HW121569   5.208   5.323   6.951
 7041SOL    HW221570   5.168   5.175   7.007
 7042SOL     OW21571   4.162   4.116   7.085
 7042SOL    HW121572   4.244   4.060   7.094
 7042SOL    HW221573   4.081   4.058   7.089
 7043SOL     OW21574   4.851   5.065   7.276
 7043SOL    HW121575   4.898   5.065   7.364
 7043SOL    HW221576   4.803   4.978   7.265
 7044SOL     OW21577   3.954   5.158   6.124
 7044SOL    HW121578   3.928   5.254   6.124
 7044SOL    HW221579   3.883   5.104   6.169
 7045SOL     OW21580   3.964   4.815   6.472
 7045SOL    HW121581   3.978   4.731   6.524
 7045SOL    HW221582   3.909   4.879   6.527
 7046SOL     OW21583   4.330   4.688   5.709
 7046SOL    HW121584   4.337   4.772   5.655
 7046SOL    HW221585   4.376   4.701   5.797
 7047SOL     OW21586   3.846   4.367   6.149
 7047SOL    HW121587   3.801   4.279   6.166
 7047SOL    HW221588   3.845   4.421   6.233
 7048SOL     OW21589   3.751   5.320   5.703
 7048SOL    HW121590   3.732   5.224   5.724
 7048SOL    HW221591   3.718   5.378   5.778
 7049SOL     OW21592   5.413   4.646   6.198
 7049SOL    HW121593   5.508   4.617   6.206
 7049SOL    HW221594   5.405   4.711   6.123
 7050SOL     OW21595   3.837   4.461   7.183
 7050SOL    HW121596   3.925   4.448   7.228
 7050SOL    HW221597   3.824   4.558   7.161
 7051SOL     OW21598   4.337   5.089   6.312
 7051SOL    HW121599   4.288   5.002   6.321
 7051SOL    HW221600   4.314   5.132   6.225
 7052SOL     OW21601   5.017   4.952   7.009
 7052SOL    HW121602   5.054   4.879   6.951
 7052SOL    HW221603   5.069   4.957   7.094
 7053SOL     OW21604   4.533   3.728   6.088
 7053SOL    HW121605   4.573   3.819   6.079
 7053SOL    HW221606   4.433   3.736   6.094
 7054SOL     OW21607   3.921   4.700   6.850
 7054SOL    HW121608   4.010   4.655   6.836
 7054SOL    HW221609   3.848   4.635   6.831
 7055SOL     OW21610   4.041   3.975   7.387
 7055SOL    HW121611   4.112   4.046   7.393
 7055SOL    HW221612   3.953   4.014   7.415
 7056SOL     OW21613   5.190   5.141   6.539
 7056SOL    HW121614   5.131   5.147   6.619
 7056SOL    HW221615   5.175   5.053   6.493
 7057SOL     OW21616   5.391   5.438   6.158
 7057SOL    HW121617   5.350   5.415   6.070
 7057SOL    HW221618   5.373   5.364   6.223
 7058SOL     OW21619   4.322   4.453   5.856
 7058SOL    HW121620   4.346   4.522   5.788
 7058SOL    HW221621   4.244   4.486   5.910
 7059SOL     OW21622   5.005   4.069   6.530
 7059SOL    HW121623   4.919   4.019   6.517
 7059SOL    HW221624   5.067   4.015   6.586
 7060SOL     OW21625   4.531   4.329   7.051
 7060SOL    HW121626   4.484   4.326   7.140
 7060SOL    HW221627   4.480   4.274   6.985
 7061SOL     OW21628   5.118   4.193   7.260
 7061SOL    HW121629   5.098   4.236   7.348
 7061SOL    HW221630   5.196   4.131   7.269
 7062SOL     OW21631   4.697   4.614   7.158
 7062SOL    HW121632   4.743   4.530   7.129
 7062SOL    HW221633   4.641   4.648   7.083
 7063SOL     OW21634   4.715   4.134   6.828
 7063SOL    HW121635   4.638   4.168   6.882
 7063SOL    HW221636   4.681   4.083   6.749
 7064SOL     OW21637   4.765   4.425   6.015
 7064SOL    HW121638   4.791   4.421   6.111
 7064SOL    HW221639   4.680   4.374   6.001
 7065SOL     OW21640   3.800   4.535   6.375
 7065SOL    HW121641   3.899   4.523   6.384
 7065SOL    HW221642   3.776   4.630   6.396
 7066SOL     OW21643   4.589   4.072   5.781
 7066SOL    HW121644   4.648   4.135   5.732
 7066SOL    HW221645   4.608   3.978   5.752
 7067SOL     OW21646   5.086   4.868   6.131
 7067SOL    HW121647   5.169   4.839   6.083
 7067SOL    HW221648   5.037   4.935   6.075
 7068SOL     OW21649   4.274   3.920   6.471
 7068SOL    HW121650   4.269   3.915   6.571
 7068SOL    HW221651   4.276   4.016   6.442
 7069SOL     OW21652   4.732   5.180   6.063
 7069SOL    HW121653   4.686   5.252   6.011
 7069SOL    HW221654   4.728   5.200   6.161
 7070SOL     OW21655   4.951   5.274   7.092
 7070SOL    HW121656   4.957   5.197   7.156
 7070SOL    HW221657   4.899   5.248   7.012
 7071SOL     OW21658   4.045   4.667   5.828
 7071SOL    HW121659   4.127   4.706   5.786
 7071SOL    HW221660   4.018   4.585   5.779
 7072SOL     OW21661   4.185   4.990   7.313
 7072SOL    HW121662   4.135   4.991   7.227
 7072SOL    HW221663   4.122   4.972   7.389
 7073SOL     OW21664   4.835   5.500   5.823
 7073SOL    HW121665   4.775   5.438   5.873
 7073SOL    HW221666   4.866   5.456   5.738
 7074SOL     OW21667   3.926   4.009   7.084
 7074SOL    HW121668   3.846   4.069   7.071
 7074SOL    HW221669   3.916   3.960   7.170
 7075SOL     OW21670   5.124   3.831   6.012
 7075SOL    HW121671   5.100   3.794   5.922
 7075SOL    HW221672   5.223   3.847   6.016
 7076SOL     OW21673   4.106   4.424   6.066
 7076SOL    HW121674   4.151   4.334   6.063
 7076SOL    HW221675   4.012   4.413   6.099
 7077SOL     OW21676   4.338   3.846   5.703
 7077SOL    HW121677   4.436   3.824   5.710
 7077SOL    HW221678   4.307   3.829   5.610
 7078SOL     OW21679   4.505   3.988   7.335
 7078SOL    HW121680   4.572   3.927   7.378
 7078SOL    HW221681   4.432   4.007   7.400
 7079SOL     OW21682   5.075   4.314   7.019
 7079SOL    HW121683   5.103   4.271   7.104
 7079SOL    HW221684   5.100   4.410   7.020
 7080SOL     OW21685   4.527   5.126   6.510
 7080SOL    HW121686   4.617   5.140   6.468
 7080SOL    HW221687   4.456   5.128   6.439
 7081SOL     OW21688   4.646   4.227   6.485
 7081SOL    HW121689   4.621   4.218   6.389
 7081SOL    HW221690   4.694   4.145   6.516
 7082SOL     OW21691   4.263   3.788   6.098
 7082SOL    HW121692   4.182   3.789   6.156
 7082SOL    HW221693   4.266   3.871   6.043
 7083SOL     OW21694   5.158   4.912   5.627
 7083SOL    HW121695   5.190   4.836   5.684
 7083SOL    HW221696   5.066   4.939   5.657
 7084SOL     OW21697   4.021   3.759   5.757
 7084SOL    HW121698   4.070   3.843   5.736
 7084SOL    HW221699   4.083   3.694   5.802
 7085SOL     OW21700   4.659   3.960   6.066
 7085SOL    HW121701   4.611   4.001   5.988
 7085SOL    HW221702   4.758   3.958   6.047
 7086SOL     OW21703   4.800   4.407   7.050
 7086SOL    HW121704   4.720   4.346   7.053
 7086SOL    HW221705   4.881   4.354   7.026
 7087SOL     OW21706   4.951   5.294   6.379
 7087SOL    HW121707   4.972   5.368   6.314
 7087SOL    HW221708   5.019   5.294   6.452
 7088SOL     OW21709   4.183   4.876   6.327
 7088SOL    HW121710   4.112   4.849   6.392
 7088SOL    HW221711   4.157   4.848   6.234
 7089SOL     OW21712   4.756   4.273   5.602
 7089SOL    HW121713   4.715   4.355   5.563
 7089SOL    HW221714   4.820   4.299   5.675
 7090SOL     OW21715   3.802   4.280   6.972
 7090SOL    HW121716   3.894   4.279   6.931
 7090SOL    HW221717   3.796   4.354   7.039
 7091SOL     OW21718   4.285   3.946   6.733
 7091SOL    HW121719   4.323   3.862   6.770
 7091SOL    HW221720   4.197   3.965   6.777
 7092SOL     OW21721   4.590   4.178   6.228
 7092SOL    HW121722   4.558   4.250   6.166
 7092SOL    HW221723   4.614   4.097   6.175
 7093SOL     OW21724   4.741   3.763   6.339
 7093SOL    HW121725   4.669   3.768   6.270
 7093SOL    HW221726   4.717   3.694   6.408
 7094SOL     OW21727   5.153   4.897   6.453
 7094SOL    HW121728   5.098   4.813   6.446
 7094SOL    HW221729   5.179   4.926   6.361
 7095SOL     OW21730   4.212   5.109   5.760
 7095SOL    HW121731   4.125   5.094   5.807
 7095SOL    HW221732   4.195   5.135   5.665
 7096SOL     OW21733   5.114   4.299   5.664
 7096SOL    HW121734   5.060   4.278   5.745
 7096SOL    HW221735   5.205   4.258   5.673
 7097SOL     OW21736   4.251   3.980   5.914
 7097SOL    HW121737   4.278   3.921   5.839
 7097SOL    HW221738   4.251   4.075   5.883
 7098SOL     OW21739   4.788   5.071   6.926
 7098SOL    HW121740   4.708   5.048   6.981
 7098SOL    HW221741   4.871   5.045   6.975
 7099SOL     OW21742   4.835   4.919   6.686
 7099SOL    HW121743   4.795   4.963   6.767
 7099SOL    HW221744   4.794   4.956   6.603
 7100SOL     OW21745   4.639   3.813   6.988
 7100SOL    HW121746   4.664   3.793   6.893
 7100SOL    HW221747   4.711   3.869   7.030
 7101SOL     OW21748   4.704   4.840   7.305
 7101SOL    HW121749   4.605   4.846   7.315
 7101SOL    HW221750   4.727   4.760   7.249
 7102SOL     OW21751   4.429   4.774   5.954
 7102SOL    HW121752   4.415   4.781   6.053
 7102SOL    HW221753   4.513   4.723   5.936
 7103SOL     OW21754   4.134   4.537   6.837
 7103SOL    HW121755   4.220   4.549   6.887
 7103SOL    HW221756   4.092   4.450   6.864
 7104SOL     OW21757   4.998   4.110   6.848
 7104SOL    HW121758   5.019   4.184   6.912
 7104SOL    HW221759   4.909   4.127   6.805
 7105SOL     OW21760   4.091   4.824   6.087
 7105SOL    HW121761   4.084   4.907   6.031
 7105SOL    HW221762   4.095   4.744   6.027
 7106SOL     OW21763   4.290   4.261   6.451
 7106SOL    HW121764   4.302   4.327   6.377
 7106SOL    HW221765   4.336   4.295   6.534
 7107SOL     OW21766   4.976   5.072   5.974
 7107SOL    HW121767   5.026   5.149   6.014
 7107SOL    HW221768   4.881   5.074   6.006
 7108SOL     OW21769   4.996   5.169   6.728
 7108SOL    HW121770   5.043   5.182   6.815
 7108SOL    HW221771   4.930   5.095   6.737
 7109SOL     OW21772   4.078   5.234   6.915
 7109SOL    HW121773   4.057   5.190   6.828
 7109SOL    HW221774   4.175   5.260   6.918
 7110SOL     OW21775   4.126   4.475   7.184
 7110SOL    HW121776   4.194   4.530   7.137
 7110SOL    HW221777   4.166   4.387   7.211
 7111SOL     OW21778   4.737   3.829   7.356
 7111SOL    HW121779   4.743   3.914   7.304
 7111SOL    HW221780   4.769   3.753   7.299
 7112SOL     OW21781   4.228   3.774   7.326
 7112SOL    HW121782   4.186   3.717   7.256
 7112SOL    HW221783   4.162   3.843   7.358
 7113SOL     OW21784   4.297   4.594   6.615
 7113SOL    HW121785   4.341   4.683   6.606
 7113SOL    HW221786   4.234   4.594   6.692
 7114SOL     OW21787   5.084   4.586   6.631
 7114SOL    HW121788   5.009   4.586   6.565
 7114SOL    HW221789   5.121   4.494   6.640
 7115SOL     OW21790   4.933   4.249   5.861
 7115SOL    HW121791   4.946   4.165   5.915
 7115SOL    HW221792   4.904   4.323   5.921
 7116SOL     OW21793   4.031   3.937   6.817
 7116SOL    HW121794   4.008   3.974   6.907
 7116SOL    HW221795   4.001   3.842   6.811
 7117SOL     OW21796   3.761   5.034   6.868
 7117SOL    HW121797   3.814   4.985   6.936
 7117SOL    HW221798   3.783   5.132   6.873
 7118SOL     OW21799   4.456   4.358   6.650
 7118SOL    HW121800   4.515   4.332   6.574
 7118SOL    HW221801   4.428   4.454   6.639
 7119SOL     OW21802   4.031   3.787   6.204
 7119SOL    HW121803   4.020   3.881   6.237
 7119SOL    HW221804   4.026   3.724   6.281
 7120SOL     OW21805   5.346   4.091   5.960
 7120SOL    HW121806   5.348   4.015   6.024
 7120SOL    HW221807   5.298   4.168   6.000
 7121SOL     OW21808   4.747   4.490   6.552
 7121SOL    HW121809   4.762   4.511   6.648
 7121SOL    HW221810   4.717   4.395   6.543
 7122SOL     OW21811   4.074   4.622   7.390
 7122SOL    HW121812   4.150   4.666   7.438
 7122SOL    HW221813   4.109   4.575   7.308
 7123SOL     OW21814   5.027   4.562   5.628
 7123SOL    HW121815   5.061   4.469   5.643
 7123SOL    HW221816   5.045   4.589   5.533
 7124SOL     OW21817   4.792   5.057   6.435
 7124SOL    HW121818   4.799   4.973   6.380
 7124SOL    HW221819   4.854   5.126   6.399
 7125SOL     OW21820   4.043   4.534   6.535
 7125SOL    HW121821   4.136   4.570   6.540
 7125SOL    HW221822   4.037   4.449   6.587
 7126SOL     OW21823   4.063   4.233   6.592
 7126SOL    HW121824   4.011   4.150   6.575
 7126SOL    HW221825   4.140   4.238   6.528
 7127SOL     OW21826   4.862   4.104   7.264
 7127SOL    HW121827   4.817   4.167   7.328
 7127SOL    HW221828   4.955   4.135   7.247
 7128SOL     OW21829   4.884   3.931   7.063
 7128SOL    HW121830   4.884   3.995   7.140
 7128SOL    HW221831   4.912   3.979   6.980
 7129SOL     OW21832   3.732   5.050   5.786
 7129SOL    HW121833   3.639   5.071   5.755
 7129SOL    HW221834   3.742   4.951   5.799
 7130SOL     OW21835   4.726   4.520   6.824
 7130SOL    HW121836   4.767   4.488   6.910
 7130SOL    HW221837   4.630   4.493   6.821
 7131SOL     OW21838   3.764   4.268   6.700
 7131SOL    HW121839   3.849   4.235   6.659
 7131SOL    HW221840   3.777   4.283   6.798
 7132SOL     OW21841   3.913   4.244   7.308
 7132SOL    HW121842   3.972   4.204   7.238
 7132SOL    HW221843   3.855   4.315   7.267
 7133SOL     OW21844   5.093   4.674   7.246
 7133SOL    HW121845   5.132   4.763   7.266
 7133SOL    HW221846   5.103   4.654   7.149
 7134SOL     OW21847   4.539   4.296   5.911
 7134SOL    HW121848   4.546   4.207   5.865
 7134SOL    HW221849   4.445   4.330   5.903
 7135SOL     OW21850   3.976   5.288   7.330
 7135SOL    HW121851   3.946   5.345   7.406
 7135SOL    HW221852   3.969   5.191   7.356
 7136SOL     OW21853   4.395   4.188   6.855
 7136SOL    HW121854   4.361   4.099   6.825
 7136SOL    HW221855   4.421   4.242   6.775
 7137SOL     OW21856   4.197   4.224   5.777
 7137SOL    HW121857   4.258   4.304   5.781
 7137SOL    HW221858   4.102   4.255   5.784
 7138SOL     OW21859   3.883   4.861   7.052
 7138SOL    HW121860   3.905   4.800   7.128
 7138SOL    HW221861   3.893   4.812   6.966
 7139SOL     OW21862   5.071   4.783   6.820
 7139SOL    HW121863   5.095   4.720   6.746
 7139SOL    HW221864   4.981   4.823   6.802
 7140SOL     OW21865   5.026   4.579   5.895
 7140SOL    HW121866   4.940   4.548   5.937
 7140SOL    HW221867   5.022   4.565   5.796
 7141SOL     OW21868   3.807   4.982   6.608
 7141SOL    HW121869   3.802   4.981   6.708
 7141SOL    HW221870   3.724   4.941   6.570
 7142SOL     OW21871   4.412   5.386   7.302
 7142SOL    HW121872   4.356   5.467   7.311
 7142SOL    HW221873   4.464   5.390   7.216
 7143SOL     OW21874   5.450   3.859   6.109
 7143SOL    HW121875   5.523   3.842   6.042
 7143SOL    HW221876   5.419   3.772   6.147
 7144SOL     OW21877   5.004   4.651   6.258
 7144SOL    HW121878   5.064   4.570   6.260
 7144SOL    HW221879   5.044   4.720   6.198
 7145SOL     OW21880   4.554   4.997   7.008
 7145SOL    HW121881   4.549   5.030   7.103
 7145SOL    HW221882   4.468   5.016   6.962
 7146SOL     OW21883   3.987   4.050   6.306
 7146SOL    HW121884   3.908   4.101   6.272
 7146SOL    HW221885   3.978   4.035   6.404
 7147SOL     OW21886   4.546   4.726   6.958
 7147SOL    HW121887   4.586   4.725   6.866
 7147SOL    HW221888   4.556   4.818   6.998
 7148SOL     OW21889   4.640   4.634   5.877
 7148SOL    HW121890   4.703   4.672   5.809
 7148SOL    HW221891   4.680   4.551   5.916
 7149SOL     OW21892   4.096   5.012   7.076
 7149SOL    HW121893   4.083   5.105   7.042
 7149SOL    HW221894   4.012   4.960   7.063
 7150SOL     OW21895   4.763   4.822   6.282
 7150SOL    HW121896   4.693   4.775   6.336
 7150SOL    HW221897   4.822   4.754   6.239
 7151SOL     OW21898   4.738   3.960   6.557
 7151SOL    HW121899   4.730   3.924   6.464
 7151SOL    HW221900   4.736   3.884   6.622
 7152SOL     OW21901   3.979   5.072   5.876
 7152SOL    HW121902   3.883   5.073   5.849
 7152SOL    HW221903   3.991   5.125   5.960
 7153SOL     OW21904   3.829   4.737   7.312
 7153SOL    HW121905   3.752   4.704   7.366
 7153SOL    HW221906   3.914   4.707   7.354
 7154SOL     OW21907   4.396   3.927   7.075
 7154SOL    HW121908   4.486   3.911   7.035
 7154SOL    HW221909   4.404   3.932   7.174
 7155SOL     OW21910   3.799   4.069   5.619
 7155SOL    HW121911   3.707   4.041   5.590
 7155SOL    HW221912   3.830   4.146   5.563
 7156SOL     OW21913   5.164   4.580   6.984
 7156SOL    HW121914   5.107   4.632   6.921
 7156SOL    HW221915   5.260   4.592   6.960
 7157SOL     OW21916   3.796   3.890   5.904
 7157SOL    HW121917   3.779   3.973   5.850
 7157SOL    HW221918   3.886   3.853   5.882
 7158SOL     OW21919   4.907   5.059   5.705
 7158SOL    HW121920   4.808   5.048   5.707
 7158SOL    HW221921   4.941   5.074   5.798
 7159SOL     OW21922   4.337   4.566   7.017
 7159SOL    HW121923   4.393   4.647   7.000
 7159SOL    HW221924   4.396   4.486   7.020
 7160SOL     OW21925   4.440   4.289   7.294
 7160SOL    HW121926   4.459   4.354   7.368
 7160SOL    HW221927   4.500   4.209   7.303
 7161SOL     OW21928   5.174   4.944   7.219
 7161SOL    HW121929   5.165   4.934   7.318
 7161SOL    HW221930   5.270   4.937   7.193
 7162SOL     OW21931   4.949   4.049   6.035
 7162SOL    HW121932   5.014   3.975   6.024
 7162SOL    HW221933   4.969   4.099   6.119
 7163SOL     OW21934   4.318   4.469   6.238
 7163SOL    HW121935   4.368   4.554   6.219
 7163SOL    HW221936   4.230   4.471   6.190
 7164SOL     OW21937   4.583   5.098   5.602
 7164SOL    HW121938   4.537   5.113   5.690
 7164SOL    HW221939   4.627   5.183   5.572
 7165SOL     OW21940   4.583   4.680   6.447
 7165SOL    HW121941   4.637   4.611   6.495
 7165SOL    HW221942   4.551   4.749   6.513
 7166SOL     OW21943   4.807   4.708   5.673
 7166SOL    HW121944   4.784   4.761   5.591
 7166SOL    HW221945   4.888   4.652   5.654
 7167SOL     OW21946   3.945   5.038   7.430
 7167SOL    HW121947   3.880   4.965   7.409
 7167SOL    HW221948   3.949   5.052   7.528
 7168SOL     OW21949   3.803   4.964   6.239
 7168SOL    HW121950   3.802   4.917   6.327
 7168SOL    HW221951   3.885   4.936   6.188
 7169SOL     OW21952   4.396   5.115   7.210
 7169SOL    HW121953   4.318   5.065   7.248
 7169SOL    HW221954   4.393   5.210   7.241
 7170SOL     OW21955   4.152   4.148   6.106
 7170SOL    HW121956   4.182   4.076   6.044
 7170SOL    HW221957   4.113   4.108   6.189
 7171SOL     OW21958   5.429   5.211   6.690
 7171SOL    HW121959   5.336   5.186   6.663
 7171SOL    HW221960   5.455   5.161   6.772
 7172SOL     OW21961   4.041   4.271   6.866
 7172SOL    HW121962   4.079   4.212   6.938
 7172SOL    HW221963   4.081   4.245   6.778
 7173SOL     OW21964   5.148   3.938   6.698
 7173SOL    HW121965   5.200   3.873   6.753
 7173SOL    HW221966   5.099   4.001   6.759
 7174SOL     OW21967   4.725   3.758   6.740
 7174SOL    HW121968   4.662   3.686   6.709
 7174SOL    HW221969   4.818   3.722   6.740
 7175SOL     OW21970   4.494   5.054   5.887
 7175SOL    HW121971   4.448   4.967   5.904
 7175SOL    HW221972   4.585   5.051   5.928
 7176SOL     OW21973   4.342   5.291   6.870
 7176SOL    HW121974   4.337   5.373   6.927
 7176SOL    HW221975   4.431   5.288   6.825
 7177SOL     OW21976   5.076   3.776   5.754
 7177SOL    HW121977   5.111   3.735   5.670
 7177SOL    HW221978   4.986   3.738   5.774
 7178SOL     OW21979   5.024   4.177   6.277
 7178SOL    HW121980   4.965   4.257   6.281
 7178SOL    HW221981   5.039   4.142   6.370
 7179SOL     OW21982   5.317   3.945   6.468
 7179SOL    HW121983   5.233   3.944   6.522
 7179SOL    HW221984   5.319   4.028   6.412
 7180SOL     OW21985   3.763   4.801   5.886
 7180SOL    HW121986   3.862   4.790   5.877
 7180SOL    HW221987   3.723   4.715   5.918
 7181SOL     OW21988   3.954   4.352   7.561
 7181SOL    HW121989   3.861   4.350   7.598
 7181SOL    HW221990   3.955   4.313   7.469
 7182SOL     OW21991   3.955   5.437   7.931
 7182SOL    HW121992   3.989   5.514   7.985
 7182SOL    HW221993   3.999   5.437   7.841
 7183SOL     OW21994   3.954   5.158   7.986
 7183SOL    HW121995   3.928   5.254   7.986
 7183SOL    HW221996   3.883   5.104   8.031
 7184SOL     OW21997   4.330   4.688   7.571
 7184SOL    HW121998   4.337   4.772   7.517
 7184SOL    HW221999   4.376   4.701   7.659
 7185SOL     OW22000   3.751   5.320   7.565
 7185SOL    HW122001   3.732   5.224   7.586
 7185SOL    HW222002   3.718   5.378   7.640
 7186SOL     OW22003   5.413   4.646   8.060
 7186SOL    HW122004   5.508   4.617   8.068
 7186SOL    HW222005   5.405   4.711   7.985
 7187SOL     OW22006   4.533   3.728   7.950
 7187SOL    HW122007   4.573   3.819   7.941
 7187SOL    HW222008   4.433   3.736   7.956
 7188SOL     OW22009   4.322   4.453   7.718
 7188SOL    HW122010   4.346   4.522   7.650
 7188SOL    HW222011   4.244   4.486   7.772
 7189SOL     OW22012   3.800   4.535   8.237
 7189SOL    HW122013   3.899   4.523   8.246
 7189SOL    HW222014   3.776   4.630   8.258
 7190SOL     OW22015   4.589   4.072   7.643
 7190SOL    HW122016   4.648   4.135   7.594
 7190SOL    HW222017   4.608   3.978   7.614
 7191SOL     OW22018   4.045   4.667   7.690
 7191SOL    HW122019   4.127   4.706   7.648
 7191SOL    HW222020   4.018   4.585   7.641
 7192SOL     OW22021   4.835   5.500   7.685
 7192SOL    HW122022   4.775   5.438   7.735
 7192SOL    HW222023   4.866   5.456   7.600
 7193SOL     OW22024   5.124   3.831   7.874
 7193SOL    HW122025   5.100   3.794   7.784
 7193SOL    HW222026   5.223   3.847   7.878
 7194SOL     OW22027   4.106   4.424   7.928
 7194SOL    HW122028   4.151   4.334   7.925
 7194SOL    HW222029   4.012   4.413   7.961
 7195SOL     OW22030   4.338   3.846   7.565
 7195SOL    HW122031   4.436   3.824   7.572
 7195SOL    HW222032   4.307   3.829   7.472
 7196SOL     OW22033   4.263   3.788   7.960
 7196SOL    HW122034   4.182   3.789   8.018
 7196SOL    HW222035   4.266   3.871   7.905
 7197SOL     OW22036   5.158   4.912   7.489
 7197SOL    HW122037   5.190   4.836   7.546
 7197SOL    HW222038   5.066   4.939   7.519
 7198SOL     OW22039   4.021   3.759   7.619
 7198SOL    HW122040   4.070   3.843   7.598
 7198SOL    HW222041   4.083   3.694   7.664
 7199SOL     OW22042   4.659   3.960   7.928
 7199SOL    HW122043   4.611   4.001   7.850
 7199SOL    HW222044   4.758   3.958   7.909
 7200SOL     OW22045   4.183   4.876   8.189
 7200SOL    HW122046   4.112   4.849   8.254
 7200SOL    HW222047   4.157   4.848   8.096
 7201SOL     OW22048   4.756   4.273   7.464
 7201SOL    HW122049   4.715   4.355   7.425
 7201SOL    HW222050   4.820   4.299   7.537
 7202SOL     OW22051   4.212   5.109   7.622
 7202SOL    HW122052   4.125   5.094   7.669
 7202SOL    HW222053   4.195   5.135   7.527
 7203SOL     OW22054   5.114   4.299   7.526
 7203SOL    HW122055   5.060   4.278   7.607
 7203SOL    HW222056   5.205   4.258   7.535
 7204SOL     OW22057   4.251   3.980   7.776
 7204SOL    HW122058   4.278   3.921   7.701
 7204SOL    HW222059   4.251   4.075   7.745
 7205SOL     OW22060   4.429   4.774   7.816
 7205SOL    HW122061   4.415   4.781   7.915
 7205SOL    HW222062   4.513   4.723   7.798
 7206SOL     OW22063   4.091   4.824   7.949
 7206SOL    HW122064   4.084   4.907   7.893
 7206SOL    HW222065   4.095   4.744   7.889
 7207SOL     OW22066   4.976   5.072   7.836
 7207SOL    HW122067   5.026   5.149   7.876
 7207SOL    HW222068   4.881   5.074   7.868
 7208SOL     OW22069   5.306   4.363   7.920
 7208SOL    HW122070   5.275   4.424   7.993
 7208SOL    HW222071   5.356   4.415   7.851
 7209SOL     OW22072   4.933   4.249   7.723
 7209SOL    HW122073   4.946   4.165   7.777
 7209SOL    HW222074   4.904   4.323   7.783
 7210SOL     OW22075   5.346   4.091   7.822
 7210SOL    HW122076   5.348   4.015   7.886
 7210SOL    HW222077   5.298   4.168   7.862
 7211SOL     OW22078   5.027   4.562   7.490
 7211SOL    HW122079   5.061   4.469   7.505
 7211SOL    HW222080   5.045   4.589   7.395
 7212SOL     OW22081   3.732   5.050   7.648
 7212SOL    HW122082   3.639   5.071   7.617
 7212SOL    HW222083   3.742   4.951   7.661
 7213SOL     OW22084   4.539   4.296   7.773
 7213SOL    HW122085   4.546   4.207   7.727
 7213SOL    HW222086   4.445   4.330   7.765
 7214SOL     OW22087   4.197   4.224   7.639
 7214SOL    HW122088   4.258   4.304   7.643
 7214SOL    HW222089   4.102   4.255   7.646
 7215SOL     OW22090   5.026   4.579   7.757
 7215SOL    HW122091   4.940   4.548   7.799
 7215SOL    HW222092   5.022   4.565   7.658
 7216SOL     OW22093   5.450   3.859   7.971
 7216SOL    HW122094   5.523   3.842   7.904
 7216SOL    HW222095   5.419   3.772   8.009
 7217SOL     OW22096   4.640   4.634   7.739
 7217SOL    HW122097   4.703   4.672   7.671
 7217SOL    HW222098   4.680   4.551   7.778
 7218SOL     OW22099   3.979   5.072   7.738
 7218SOL    HW122100   3.883   5.073   7.711
 7218SOL    HW222101   3.991   5.125   7.822
 7219SOL     OW22102   3.799   4.069   7.481
 7219SOL    HW122103   3.707   4.041   7.452
 7219SOL    HW222104   3.830   4.146   7.425
 7220SOL     OW22105   3.796   3.890   7.766
 7220SOL    HW122106   3.779   3.973   7.712
 7220SOL    HW222107   3.886   3.853   7.744
 7221SOL     OW22108   4.907   5.059   7.567
 7221SOL    HW122109   4.808   5.048   7.569
 7221SOL    HW222110   4.941   5.074   7.660
 7222SOL     OW22111   4.949   4.049   7.897
 7222SOL    HW122112   5.014   3.975   7.886
 7222SOL    HW222113   4.969   4.099   7.981
 7223SOL     OW22114   4.318   4.469   8.100
 7223SOL    HW122115   4.368   4.554   8.081
 7223SOL    HW222116   4.230   4.471   8.052
 7224SOL     OW22117   4.583   5.098   7.464
 7224SOL    HW122118   4.537   5.113   7.552
 7224SOL    HW222119   4.627   5.183   7.434
 7225SOL     OW22120   4.807   4.708   7.535
 7225SOL    HW122121   4.784   4.761   7.453
 7225SOL    HW222122   4.888   4.652   7.516
 7226SOL     OW22123   4.152   4.148   7.968
 7226SOL    HW122124   4.182   4.076   7.906
 7226SOL    HW222125   4.113   4.108   8.051
 7227SOL     OW22126   4.494   5.054   7.749
 7227SOL    HW122127   4.448   4.967   7.766
 7227SOL    HW222128   4.585   5.051   7.790
 7228SOL     OW22129   5.076   3.776   7.616
 7228SOL    HW122130   5.111   3.735   7.532
 7228SOL    HW222131   4.986   3.738   7.636
 7229SOL     OW22132   3.763   4.801   7.748
 7229SOL    HW122133   3.862   4.790   7.739
 7229SOL    HW222134   3.723   4.715   7.780
   5.30000   5.30000   8.08000
