Built with Packmol
22236
    1LIG      O    1   2.811   2.737   0.038
    1LIG      C    2   2.739   2.775   0.126
    1LIG     C1    3   2.816   2.733   0.219
    1LIG     O1    4   2.745   2.770   0.308
    1LIG     C2    5   2.816   2.732   0.396
    1LIG     C3    6   2.736   2.773   0.487
    1LIG     O2    7   2.807   2.735   0.575
    1LIG     C4    8   2.735   2.772   0.664
    1LIG     C5    9   2.815   2.729   0.756
    1LIG     O3   10   2.743   2.765   0.844
    1LIG     C6   11   2.814   2.727   0.932
    1LIG     C7   12   2.734   2.769   1.023
    1LIG     O4   13   2.804   2.731   1.112
    1LIG     C8   14   2.733   2.768   1.200
    1LIG     C9   15   2.813   2.725   1.291
    1LIG     O5   16   2.742   2.762   1.379
    1LIG    C10   17   2.813   2.724   1.468
    1LIG    C11   18   2.732   2.767   1.559
    1LIG     O6   19   2.803   2.729   1.647
    1LIG    C12   20   2.732   2.766   1.735
    1LIG    C13   21   2.813   2.723   1.827
    1LIG     O7   22   2.741   2.760   1.915
    1LIG    C14   23   2.812   2.723   2.003
    1LIG    C15   24   2.733   2.765   2.095
    1LIG     O8   25   2.803   2.727   2.184
    1LIG    C16   26   2.731   2.765   2.272
    1LIG    C17   27   2.811   2.722   2.363
    1LIG     O9   28   2.740   2.759   2.452
    1LIG    C18   29   2.812   2.721   2.540
    1LIG    C19   30   2.732   2.764   2.631
    1LIG    O10   31   2.803   2.726   2.720
    1LIG    C20   32   2.731   2.764   2.807
    1LIG    C21   33   2.812   2.721   2.899
    1LIG    O11   34   2.741   2.759   2.987
    1LIG    C22   35   2.812   2.721   3.075
    1LIG    C23   36   2.731   2.763   3.166
    1LIG    O12   37   2.802   2.725   3.254
    1LIG    C24   38   2.731   2.763   3.343
    1LIG    C25   39   2.811   2.720   3.435
    1LIG    O13   40   2.740   2.758   3.524
    1LIG    C26   41   2.812   2.720   3.611
    1LIG    C27   42   2.732   2.762   3.703
    1LIG    O14   43   2.803   2.725   3.791
    1LIG    C28   44   2.732   2.763   3.879
    1LIG    C29   45   2.812   2.721   3.971
    1LIG    O15   46   2.740   2.759   4.059
    1LIG    C30   47   2.812   2.721   4.147
    1LIG    C31   48   2.732   2.764   4.238
    1LIG    O16   49   2.803   2.726   4.326
    1LIG    C32   50   2.732   2.763   4.415
    1LIG    C33   51   2.812   2.721   4.506
    1LIG    O17   52   2.741   2.759   4.595
    1LIG    C34   53   2.813   2.721   4.683
    1LIG    C35   54   2.733   2.763   4.774
    1LIG    O18   55   2.804   2.726   4.863
    1LIG    C36   56   2.732   2.764   4.951
    1LIG    C37   57   2.812   2.722   5.042
    1LIG    O19   58   2.741   2.760   5.131
    1LIG    C38   59   2.813   2.723   5.219
    1LIG    C39   60   2.734   2.765   5.311
    1LIG    O20   61   2.805   2.727   5.399
    1LIG    C40   62   2.733   2.765   5.487
    1LIG    C41   63   2.813   2.724   5.579
    1LIG    O21   64   2.742   2.761   5.667
    1LIG    C42   65   2.814   2.723   5.755
    1LIG    C43   66   2.734   2.766   5.846
    1LIG    O22   67   2.805   2.729   5.935
    1LIG    C44   68   2.734   2.766   6.023
    1LIG    C45   69   2.815   2.724   6.114
    1LIG    O23   70   2.744   2.762   6.202
    1LIG    C46   71   2.815   2.725   6.291
    1LIG    C47   72   2.734   2.767   6.382
    1LIG    O24   73   2.806   2.730   6.470
    1LIG    C48   74   2.735   2.767   6.558
    1LIG    C49   75   2.816   2.725   6.650
    1LIG    O25   76   2.745   2.763   6.738
    1LIG    C50   77   2.816   2.726   6.826
    1LIG    C51   78   2.735   2.768   6.917
    1LIG    O26   79   2.807   2.731   7.005
    1LIG    C52   80   2.736   2.768   7.094
    1LIG    C53   81   2.817   2.727   7.185
    1LIG    O27   82   2.745   2.764   7.273
    1LIG    C54   83   2.816   2.727   7.362
    1LIG    C55   84   2.736   2.770   7.454
    1LIG    O28   85   2.808   2.733   7.542
    1LIG    C56   86   2.737   2.770   7.630
    1LIG    C57   87   2.817   2.729   7.723
    1LIG    O29   88   2.746   2.767   7.811
    1LIG    C58   89   2.818   2.729   7.899
    1LIG    C59   90   2.739   2.771   7.991
    1LIG      H   91   2.640   2.727   0.125
    1LIG     H1   92   2.723   2.883   0.125
    1LIG     H2   93   2.915   2.781   0.219
    1LIG     H3   94   2.832   2.625   0.218
    1LIG     H4   95   2.915   2.780   0.397
    1LIG     H5   96   2.832   2.623   0.396
    1LIG     H6   97   2.637   2.726   0.486
    1LIG     H7   98   2.721   2.882   0.487
    1LIG     H8   99   2.637   2.724   0.664
    1LIG     H9  100   2.720   2.880   0.665
    1LIG    H10  101   2.913   2.777   0.755
    1LIG    H11  102   2.830   2.620   0.754
    1LIG    H12  103   2.913   2.775   0.933
    1LIG    H13  104   2.830   2.618   0.933
    1LIG    H14  105   2.635   2.721   1.022
    1LIG    H15  106   2.718   2.877   1.023
    1LIG    H16  107   2.634   2.720   1.201
    1LIG    H17  108   2.717   2.877   1.202
    1LIG    H18  109   2.912   2.773   1.290
    1LIG    H19  110   2.829   2.616   1.290
    1LIG    H20  111   2.911   2.772   1.469
    1LIG    H21  112   2.828   2.616   1.469
    1LIG    H22  113   2.634   2.718   1.558
    1LIG    H23  114   2.717   2.875   1.558
    1LIG    H24  115   2.634   2.718   1.736
    1LIG    H25  116   2.717   2.874   1.737
    1LIG    H26  117   2.911   2.771   1.826
    1LIG    H27  118   2.828   2.614   1.825
    1LIG    H28  119   2.911   2.771   2.004
    1LIG    H29  120   2.828   2.614   2.004
    1LIG    H30  121   2.634   2.716   2.094
    1LIG    H31  122   2.717   2.873   2.094
    1LIG    H32  123   2.633   2.716   2.272
    1LIG    H33  124   2.716   2.873   2.273
    1LIG    H34  125   2.910   2.770   2.362
    1LIG    H35  126   2.827   2.614   2.362
    1LIG    H36  127   2.911   2.770   2.541
    1LIG    H37  128   2.828   2.613   2.541
    1LIG    H38  129   2.634   2.715   2.630
    1LIG    H39  130   2.716   2.872   2.630
    1LIG    H40  131   2.633   2.716   2.809
    1LIG    H41  132   2.716   2.872   2.809
    1LIG    H42  133   2.910   2.769   2.897
    1LIG    H43  134   2.827   2.613   2.897
    1LIG    H44  135   2.910   2.769   3.076
    1LIG    H45  136   2.827   2.612   3.076
    1LIG    H46  137   2.633   2.715   3.165
    1LIG    H47  138   2.716   2.872   3.165
    1LIG    H48  139   2.633   2.715   3.344
    1LIG    H49  140   2.716   2.871   3.344
    1LIG    H50  141   2.910   2.769   3.434
    1LIG    H51  142   2.827   2.612   3.434
    1LIG    H52  143   2.910   2.768   3.612
    1LIG    H53  144   2.827   2.611   3.612
    1LIG    H54  145   2.633   2.714   3.702
    1LIG    H55  146   2.716   2.871   3.701
    1LIG    H56  147   2.633   2.715   3.880
    1LIG    H57  148   2.716   2.871   3.880
    1LIG    H58  149   2.910   2.769   3.970
    1LIG    H59  150   2.828   2.612   3.970
    1LIG    H60  151   2.911   2.769   4.148
    1LIG    H61  152   2.828   2.613   4.148
    1LIG    H62  153   2.633   2.715   4.237
    1LIG    H63  154   2.716   2.872   4.237
    1LIG    H64  155   2.634   2.715   4.416
    1LIG    H65  156   2.717   2.872   4.416
    1LIG    H66  157   2.911   2.770   4.505
    1LIG    H67  158   2.828   2.613   4.505
    1LIG    H68  159   2.911   2.770   4.683
    1LIG    H69  160   2.828   2.613   4.683
    1LIG    H70  161   2.634   2.715   4.773
    1LIG    H71  162   2.717   2.872   4.773
    1LIG    H72  163   2.634   2.716   4.952
    1LIG    H73  164   2.717   2.873   4.951
    1LIG    H74  165   2.911   2.770   5.041
    1LIG    H75  166   2.828   2.614   5.042
    1LIG    H76  167   2.912   2.771   5.219
    1LIG    H77  168   2.829   2.614   5.220
    1LIG    H78  169   2.636   2.716   5.310
    1LIG    H79  170   2.718   2.873   5.309
    1LIG    H80  171   2.635   2.717   5.488
    1LIG    H81  172   2.717   2.874   5.488
    1LIG    H82  173   2.912   2.772   5.577
    1LIG    H83  174   2.829   2.615   5.578
    1LIG    H84  175   2.913   2.772   5.756
    1LIG    H85  176   2.830   2.615   5.756
    1LIG    H86  177   2.636   2.717   5.845
    1LIG    H87  178   2.718   2.874   5.845
    1LIG    H88  179   2.636   2.718   6.024
    1LIG    H89  180   2.718   2.875   6.024
    1LIG    H90  181   2.913   2.773   6.113
    1LIG    H91  182   2.831   2.616   6.113
    1LIG    H92  183   2.913   2.773   6.292
    1LIG    H93  184   2.831   2.616   6.292
    1LIG    H94  185   2.636   2.719   6.381
    1LIG    H95  186   2.718   2.876   6.381
    1LIG    H96  187   2.637   2.719   6.560
    1LIG    H97  188   2.719   2.876   6.560
    1LIG    H98  189   2.914   2.774   6.648
    1LIG    H99  190   2.832   2.617   6.649
    1LIG   H100  191   2.914   2.774   6.827
    1LIG   H101  192   2.832   2.617   6.828
    1LIG   H102  193   2.637   2.719   6.916
    1LIG   H103  194   2.719   2.877   6.916
    1LIG   H104  195   2.638   2.720   7.095
    1LIG   H105  196   2.720   2.877   7.095
    1LIG   H106  197   2.915   2.775   7.184
    1LIG   H107  198   2.833   2.618   7.184
    1LIG   H108  199   2.915   2.776   7.363
    1LIG   H109  200   2.832   2.619   7.363
    1LIG   H110  201   2.638   2.721   7.453
    1LIG   H111  202   2.720   2.878   7.452
    1LIG   H112  203   2.638   2.721   7.631
    1LIG   H113  204   2.720   2.879   7.631
    1LIG   H114  205   2.915   2.778   7.721
    1LIG   H115  206   2.833   2.621   7.722
    1LIG   H116  207   2.916   2.779   7.899
    1LIG   H117  208   2.833   2.621   7.900
    1LIG   H118  209   2.722   2.879   7.991
    1LIG   H119  210   2.792   2.744   8.060
    1LIG      O  211   2.511   2.516   0.038
    1LIG      C  212   2.576   2.566   0.126
    1LIG     C1  213   2.506   2.513   0.219
    1LIG     O1  214   2.569   2.562   0.308
    1LIG     C2  215   2.504   2.513   0.396
    1LIG     C3  216   2.576   2.569   0.487
    1LIG     O2  217   2.511   2.521   0.575
    1LIG     C4  218   2.575   2.570   0.664
    1LIG     C5  219   2.502   2.516   0.756
    1LIG     O3  220   2.566   2.566   0.844
    1LIG     C6  221   2.501   2.517   0.932
    1LIG     C7  222   2.572   2.573   1.023
    1LIG     O4  223   2.509   2.525   1.112
    1LIG     C8  224   2.572   2.574   1.200
    1LIG     C9  225   2.499   2.519   1.291
    1LIG     O5  226   2.563   2.568   1.379
    1LIG    C10  227   2.499   2.520   1.468
    1LIG    C11  228   2.571   2.575   1.559
    1LIG     O6  229   2.507   2.526   1.647
    1LIG    C12  230   2.570   2.575   1.735
    1LIG    C13  231   2.498   2.520   1.827
    1LIG     O7  232   2.562   2.569   1.915
    1LIG    C14  233   2.498   2.521   2.003
    1LIG    C15  234   2.569   2.576   2.095
    1LIG     O8  235   2.505   2.527   2.184
    1LIG    C16  236   2.570   2.577   2.272
    1LIG    C17  237   2.498   2.522   2.363
    1LIG     O9  238   2.561   2.571   2.452
    1LIG    C18  239   2.497   2.521   2.540
    1LIG    C19  240   2.568   2.577   2.631
    1LIG    O10  241   2.505   2.528   2.720
    1LIG    C20  242   2.569   2.577   2.807
    1LIG    C21  243   2.497   2.522   2.899
    1LIG    O11  244   2.560   2.571   2.987
    1LIG    C22  245   2.497   2.522   3.075
    1LIG    C23  246   2.569   2.578   3.166
    1LIG    O12  247   2.504   2.528   3.254
    1LIG    C24  248   2.568   2.577   3.343
    1LIG    C25  249   2.496   2.523   3.435
    1LIG    O13  250   2.560   2.572   3.524
    1LIG    C26  251   2.496   2.522   3.611
    1LIG    C27  252   2.568   2.578   3.703
    1LIG    O14  253   2.504   2.528   3.791
    1LIG    C28  254   2.568   2.577   3.879
    1LIG    C29  255   2.497   2.522   3.971
    1LIG    O15  256   2.560   2.571   4.059
    1LIG    C30  257   2.496   2.522   4.147
    1LIG    C31  258   2.569   2.577   4.238
    1LIG    O16  259   2.505   2.528   4.326
    1LIG    C32  260   2.568   2.577   4.415
    1LIG    C33  261   2.497   2.521   4.506
    1LIG    O17  262   2.561   2.570   4.595
    1LIG    C34  263   2.497   2.521   4.683
    1LIG    C35  264   2.568   2.576   4.774
    1LIG    O18  265   2.504   2.527   4.863
    1LIG    C36  266   2.569   2.576   4.951
    1LIG    C37  267   2.497   2.521   5.042
    1LIG    O19  268   2.562   2.570   5.131
    1LIG    C38  269   2.497   2.520   5.219
    1LIG    C39  270   2.569   2.574   5.311
    1LIG    O20  271   2.505   2.525   5.399
    1LIG    C40  272   2.569   2.575   5.487
    1LIG    C41  273   2.498   2.519   5.579
    1LIG    O21  274   2.562   2.568   5.667
    1LIG    C42  275   2.498   2.518   5.755
    1LIG    C43  276   2.570   2.574   5.846
    1LIG    O22  277   2.507   2.525   5.935
    1LIG    C44  278   2.570   2.574   6.023
    1LIG    C45  279   2.498   2.518   6.114
    1LIG    O23  280   2.562   2.567   6.202
    1LIG    C46  281   2.499   2.517   6.291
    1LIG    C47  282   2.571   2.573   6.382
    1LIG    O24  283   2.507   2.524   6.470
    1LIG    C48  284   2.571   2.572   6.558
    1LIG    C49  285   2.499   2.516   6.650
    1LIG    O25  286   2.562   2.566   6.738
    1LIG    C50  287   2.499   2.516   6.826
    1LIG    C51  288   2.572   2.572   6.917
    1LIG    O26  289   2.508   2.522   7.005
    1LIG    C52  290   2.571   2.571   7.094
    1LIG    C53  291   2.500   2.515   7.185
    1LIG    O27  292   2.564   2.564   7.273
    1LIG    C54  293   2.501   2.515   7.362
    1LIG    C55  294   2.572   2.570   7.454
    1LIG    O28  295   2.509   2.520   7.542
    1LIG    C56  296   2.573   2.570   7.630
    1LIG    C57  297   2.502   2.514   7.723
    1LIG    O29  298   2.565   2.563   7.811
    1LIG    C58  299   2.501   2.513   7.899
    1LIG    C59  300   2.572   2.567   7.991
    1LIG      H  301   2.574   2.675   0.125
    1LIG     H1  302   2.681   2.535   0.125
    1LIG     H2  303   2.508   2.403   0.219
    1LIG     H3  304   2.401   2.544   0.218
    1LIG     H4  305   2.507   2.404   0.397
    1LIG     H5  306   2.399   2.545   0.396
    1LIG     H6  307   2.573   2.679   0.486
    1LIG     H7  308   2.681   2.538   0.487
    1LIG     H8  309   2.572   2.680   0.664
    1LIG     H9  310   2.680   2.539   0.665
    1LIG    H10  311   2.505   2.406   0.755
    1LIG    H11  312   2.397   2.547   0.754
    1LIG    H12  313   2.504   2.407   0.933
    1LIG    H13  314   2.396   2.548   0.933
    1LIG    H14  315   2.570   2.682   1.022
    1LIG    H15  316   2.678   2.542   1.023
    1LIG    H16  317   2.569   2.684   1.201
    1LIG    H17  318   2.677   2.543   1.202
    1LIG    H18  319   2.502   2.409   1.290
    1LIG    H19  320   2.394   2.550   1.290
    1LIG    H20  321   2.502   2.410   1.469
    1LIG    H21  322   2.394   2.551   1.469
    1LIG    H22  323   2.568   2.685   1.558
    1LIG    H23  324   2.676   2.544   1.558
    1LIG    H24  325   2.568   2.685   1.736
    1LIG    H25  326   2.676   2.544   1.737
    1LIG    H26  327   2.501   2.411   1.826
    1LIG    H27  328   2.393   2.551   1.825
    1LIG    H28  329   2.501   2.411   2.004
    1LIG    H29  330   2.393   2.552   2.004
    1LIG    H30  331   2.566   2.685   2.094
    1LIG    H31  332   2.674   2.545   2.094
    1LIG    H32  333   2.567   2.686   2.272
    1LIG    H33  334   2.675   2.546   2.273
    1LIG    H34  335   2.501   2.412   2.362
    1LIG    H35  336   2.393   2.553   2.362
    1LIG    H36  337   2.500   2.412   2.541
    1LIG    H37  338   2.391   2.552   2.541
    1LIG    H38  339   2.566   2.686   2.630
    1LIG    H39  340   2.674   2.546   2.630
    1LIG    H40  341   2.566   2.687   2.809
    1LIG    H41  342   2.674   2.546   2.809
    1LIG    H42  343   2.500   2.412   2.897
    1LIG    H43  344   2.392   2.553   2.897
    1LIG    H44  345   2.499   2.412   3.076
    1LIG    H45  346   2.391   2.553   3.076
    1LIG    H46  347   2.566   2.687   3.165
    1LIG    H47  348   2.674   2.546   3.165
    1LIG    H48  349   2.565   2.687   3.344
    1LIG    H49  350   2.673   2.546   3.344
    1LIG    H50  351   2.499   2.413   3.434
    1LIG    H51  352   2.391   2.553   3.434
    1LIG    H52  353   2.498   2.413   3.612
    1LIG    H53  354   2.390   2.553   3.612
    1LIG    H54  355   2.565   2.687   3.702
    1LIG    H55  356   2.673   2.547   3.701
    1LIG    H56  357   2.565   2.687   3.880
    1LIG    H57  358   2.673   2.546   3.880
    1LIG    H58  359   2.500   2.412   3.970
    1LIG    H59  360   2.391   2.553   3.970
    1LIG    H60  361   2.499   2.412   4.148
    1LIG    H61  362   2.391   2.552   4.148
    1LIG    H62  363   2.566   2.687   4.237
    1LIG    H63  364   2.674   2.546   4.237
    1LIG    H64  365   2.565   2.686   4.416
    1LIG    H65  366   2.673   2.546   4.416
    1LIG    H66  367   2.500   2.412   4.505
    1LIG    H67  368   2.391   2.552   4.505
    1LIG    H68  369   2.500   2.411   4.683
    1LIG    H69  370   2.391   2.552   4.683
    1LIG    H70  371   2.565   2.686   4.773
    1LIG    H71  372   2.673   2.545   4.773
    1LIG    H72  373   2.566   2.686   4.952
    1LIG    H73  374   2.674   2.545   4.951
    1LIG    H74  375   2.500   2.411   5.041
    1LIG    H75  376   2.392   2.552   5.042
    1LIG    H76  377   2.501   2.410   5.219
    1LIG    H77  378   2.392   2.550   5.220
    1LIG    H78  379   2.566   2.684   5.310
    1LIG    H79  380   2.674   2.544   5.309
    1LIG    H80  381   2.566   2.684   5.488
    1LIG    H81  382   2.675   2.544   5.488
    1LIG    H82  383   2.501   2.410   5.577
    1LIG    H83  384   2.393   2.550   5.578
    1LIG    H84  385   2.501   2.409   5.756
    1LIG    H85  386   2.392   2.549   5.756
    1LIG    H86  387   2.566   2.684   5.845
    1LIG    H87  388   2.675   2.544   5.845
    1LIG    H88  389   2.567   2.683   6.024
    1LIG    H89  390   2.676   2.543   6.024
    1LIG    H90  391   2.502   2.408   6.113
    1LIG    H91  392   2.393   2.548   6.113
    1LIG    H92  393   2.502   2.408   6.292
    1LIG    H93  394   2.393   2.548   6.292
    1LIG    H94  395   2.568   2.683   6.381
    1LIG    H95  396   2.676   2.543   6.381
    1LIG    H96  397   2.567   2.682   6.560
    1LIG    H97  398   2.676   2.542   6.560
    1LIG    H98  399   2.502   2.407   6.648
    1LIG    H99  400   2.393   2.547   6.649
    1LIG   H100  401   2.503   2.407   6.827
    1LIG   H101  402   2.394   2.547   6.828
    1LIG   H102  403   2.568   2.682   6.916
    1LIG   H103  404   2.677   2.542   6.916
    1LIG   H104  405   2.568   2.681   7.095
    1LIG   H105  406   2.677   2.541   7.095
    1LIG   H106  407   2.503   2.405   7.184
    1LIG   H107  408   2.394   2.546   7.184
    1LIG   H108  409   2.504   2.405   7.363
    1LIG   H109  410   2.395   2.545   7.363
    1LIG   H110  411   2.569   2.680   7.453
    1LIG   H111  412   2.677   2.540   7.452
    1LIG   H112  413   2.569   2.679   7.631
    1LIG   H113  414   2.678   2.539   7.631
    1LIG   H114  415   2.505   2.404   7.721
    1LIG   H115  416   2.396   2.544   7.722
    1LIG   H116  417   2.506   2.403   7.899
    1LIG   H117  418   2.396   2.544   7.900
    1LIG   H118  419   2.678   2.537   7.991
    1LIG   H119  420   2.525   2.530   8.060
    1MOL     C1  421   1.965   2.853   3.454
    1MOL     H1  422   1.860   2.823   3.462
    1MOL     O1  423   1.997   2.913   3.578
    1MOL     C2  424   2.131   2.966   3.587
    1MOL     H2  425   2.203   2.884   3.575
    1MOL     C3  426   2.148   3.023   3.727
    1MOL     H3  427   2.255   3.044   3.742
    1MOL     H4  428   2.117   2.946   3.800
    1MOL     O2  429   2.070   3.141   3.740
    1MOL     H5  430   2.094   3.183   3.824
    1MOL     C4  431   1.983   2.954   3.339
    1MOL     H6  432   1.915   3.037   3.358
    1MOL     O3  433   1.949   2.903   3.212
    1MOL     H7  434   1.982   2.810   3.203
    1MOL     C5  435   2.126   3.009   3.341
    1MOL     H8  436   2.197   2.927   3.322
    1MOL     O4  437   2.140   3.108   3.240
    1MOL     H9  438   2.093   3.074   3.162
    1MOL     C6  439   2.155   3.070   3.476
    1MOL    H10  440   2.088   3.155   3.492
    1MOL     O5  441   2.291   3.114   3.477
    1MOL     C7  442   2.320   3.241   3.533
    1MOL    H11  443   2.230   3.283   3.580
    1MOL     O6  444   2.414   3.229   3.637
    1MOL     C8  445   2.543   3.178   3.597
    1MOL    H12  446   2.528   3.079   3.551
    1MOL     C9  447   2.629   3.159   3.724
    1MOL    H13  448   2.701   3.079   3.704
    1MOL    H14  449   2.562   3.125   3.804
    1MOL     O7  450   2.694   3.276   3.769
    1MOL    H15  451   2.781   3.279   3.726
    1MOL    C10  452   2.373   3.333   3.422
    1MOL    H16  453   2.385   3.434   3.464
    1MOL     O8  454   2.284   3.347   3.312
    1MOL    H17  455   2.252   3.259   3.285
    1MOL    C11  456   2.511   3.286   3.375
    1MOL    H18  457   2.501   3.186   3.328
    1MOL     O9  458   2.567   3.378   3.282
    1MOL    H19  459   2.495   3.401   3.221
    1MOL    C12  460   2.604   3.274   3.495
    1MOL    H20  461   2.614   3.372   3.543
    1MOL    O10  462   2.732   3.230   3.449
    1MOL    C13  463   2.843   3.311   3.476
    1MOL    H21  464   2.812   3.411   3.508
    1MOL    O11  465   2.920   3.259   3.584
    1MOL    C14  466   2.975   3.127   3.560
    1MOL    H22  467   2.892   3.059   3.538
    1MOL    C15  468   3.044   3.080   3.689
    1MOL    H23  469   3.037   2.970   3.693
    1MOL    H24  470   2.986   3.118   3.774
    1MOL    O12  471   3.177   3.123   3.704
    1MOL    H25  472   3.234   3.053   3.669
    1MOL    C16  473   2.928   3.320   3.349
    1MOL    H26  474   3.010   3.391   3.368
    1MOL    O13  475   2.857   3.370   3.237
    1MOL    H27  476   2.762   3.349   3.247
    1MOL    C17  477   2.990   3.184   3.318
    1MOL    H28  478   2.910   3.112   3.295
    1MOL    O14  479   3.079   3.193   3.207
    1MOL    H29  480   3.032   3.244   3.138
    1MOL    C18  481   3.068   3.135   3.439
    1MOL    H30  482   3.149   3.206   3.462
    1MOL    O15  483   3.124   3.007   3.407
    1MOL    C19  484   3.263   2.988   3.422
    1MOL    H31  485   3.313   3.084   3.436
    1MOL    O16  486   3.293   2.913   3.538
    1MOL    C20  487   3.236   2.779   3.539
    1MOL    H32  488   3.127   2.789   3.528
    1MOL    C21  489   3.265   2.714   3.675
    1MOL    H33  490   3.183   2.645   3.698
    1MOL    H34  491   3.264   2.793   3.751
    1MOL    O17  492   3.390   2.649   3.683
    1MOL    H35  493   3.374   2.555   3.662
    1MOL    C22  494   3.314   2.918   3.296
    1MOL    H36  495   3.424   2.911   3.304
    1MOL    O18  496   3.287   2.988   3.177
    1MOL    H37  497   3.203   3.038   3.187
    1MOL    C23  498   3.259   2.775   3.290
    1MOL    H38  499   3.149   2.780   3.279
    1MOL    O19  500   3.316   2.704   3.181
    1MOL    H39  501   3.311   2.764   3.104
    1MOL    C24  502   3.292   2.702   3.419
    1MOL    H40  503   3.401   2.695   3.431
    1MOL    O20  504   3.236   2.571   3.412
    1MOL    C25  505   3.321   2.460   3.430
    1MOL    H41  506   3.426   2.491   3.428
    1MOL    O21  507   3.301   2.400   3.557
    1MOL    C26  508   3.168   2.348   3.579
    1MOL    H42  509   3.096   2.431   3.573
    1MOL    C27  510   3.162   2.292   3.720
    1MOL    H43  511   3.056   2.271   3.744
    1MOL    H44  512   3.200   2.368   3.790
    1MOL    O22  513   3.240   2.173   3.726
    1MOL    H45  514   3.231   2.135   3.815
    1MOL    C28  515   3.293   2.359   3.318
    1MOL    H46  516   3.362   2.275   3.330
    1MOL    O23  517   3.314   2.412   3.188
    1MOL    H47  518   3.291   2.507   3.187
    1MOL    C29  519   3.150   2.305   3.332
    1MOL    H48  520   3.079   2.388   3.319
    1MOL    O24  521   3.126   2.205   3.234
    1MOL    H49  522   3.164   2.239   3.151
    1MOL    C30  523   3.131   2.245   3.471
    1MOL    H50  524   3.196   2.157   3.481
    1MOL    O25  525   2.994   2.208   3.483
    1MOL    C31  526   2.963   2.083   3.545
    1MOL    H51  527   3.051   2.044   3.596
    1MOL    O26  528   2.866   2.102   3.645
    1MOL    C32  529   2.738   2.153   3.598
    1MOL    H52  530   2.756   2.249   3.547
    1MOL    C33  531   2.650   2.178   3.720
    1MOL    H53  532   2.573   2.252   3.692
    1MOL    H54  533   2.713   2.223   3.797
    1MOL    O27  534   2.590   2.060   3.771
    1MOL    H55  535   2.493   2.072   3.764
    1MOL    C34  536   2.913   1.985   3.437
    1MOL    H56  537   2.899   1.887   3.485
    1MOL    O28  538   3.005   1.964   3.332
    1MOL    H57  539   3.033   2.050   3.295
    1MOL    C35  540   2.778   2.032   3.383
    1MOL    H58  541   2.792   2.128   3.332
    1MOL    O29  542   2.724   1.936   3.292
    1MOL    H59  543   2.799   1.908   3.237
    1MOL    C36  544   2.680   2.051   3.498
    1MOL    H60  545   2.665   1.957   3.552
    1MOL    O30  546   2.556   2.097   3.444
    1MOL    C37  547   2.448   2.005   3.447
    1MOL    H61  548   2.485   1.904   3.466
    1MOL    O31  549   2.358   2.033   3.552
    1MOL    C38  550   2.298   2.163   3.547
    1MOL    H62  551   2.376   2.241   3.544
    1MOL    C39  552   2.221   2.179   3.676
    1MOL    H63  553   2.153   2.094   3.689
    1MOL    H64  554   2.162   2.272   3.675
    1MOL    O32  555   2.319   2.182   3.781
    1MOL    H65  556   2.274   2.203   3.864
    1MOL    C40  557   2.374   2.011   3.313
    1MOL    H66  558   2.296   1.934   3.316
    1MOL    O33  559   2.456   1.987   3.200
    1MOL    H67  560   2.550   1.987   3.226
    1MOL    C41  561   2.305   2.147   3.299
    1MOL    H68  562   2.382   2.226   3.295
    1MOL    O34  563   2.227   2.151   3.180
    1MOL    H69  564   2.284   2.117   3.109
    1MOL    C42  565   2.214   2.174   3.418
    1MOL    H70  566   2.133   2.100   3.420
    1MOL    O35  567   2.159   2.305   3.402
    1MOL    C43  568   2.019   2.322   3.406
    1MOL    H71  569   1.969   2.225   3.409
    1MOL    O36  570   1.978   2.388   3.524
    1MOL    C44  571   2.030   2.522   3.541
    1MOL    H72  572   2.140   2.519   3.543
    1MOL    C45  573   1.980   2.571   3.675
    1MOL    H73  574   1.872   2.551   3.682
    1MOL    H74  575   1.996   2.679   3.683
    1MOL    O37  576   2.052   2.501   3.777
    1MOL    H75  577   2.015   2.527   3.862
    1MOL    C46  578   1.976   2.402   3.283
    1MOL    H76  579   1.866   2.407   3.283
    1MOL    O38  580   2.013   2.342   3.160
    1MOL    H77  581   2.098   2.295   3.170
    1MOL    C47  582   2.030   2.545   3.292
    1MOL    H78  583   2.140   2.542   3.290
    1MOL    O39  584   1.982   2.622   3.182
    1MOL    H79  585   1.993   2.565   3.104
    1MOL    C48  586   1.986   2.610   3.422
    1MOL    H80  587   1.876   2.620   3.422
    1MOL    O40  588   2.046   2.740   3.429
    1MOL     C1  589   3.324   2.853   4.626
    1MOL     H1  590   3.429   2.823   4.617
    1MOL     O1  591   3.292   2.913   4.502
    1MOL     C2  592   3.158   2.966   4.493
    1MOL     H2  593   3.086   2.884   4.505
    1MOL     C3  594   3.140   3.023   4.353
    1MOL     H3  595   3.034   3.044   4.338
    1MOL     H4  596   3.171   2.946   4.280
    1MOL     O2  597   3.219   3.141   4.340
    1MOL     H5  598   3.195   3.183   4.256
    1MOL     C4  599   3.306   2.954   4.741
    1MOL     H6  600   3.374   3.037   4.722
    1MOL     O3  601   3.340   2.903   4.868
    1MOL     H7  602   3.307   2.810   4.877
    1MOL     C5  603   3.163   3.009   4.739
    1MOL     H8  604   3.092   2.927   4.758
    1MOL     O4  605   3.149   3.108   4.840
    1MOL     H9  606   3.196   3.074   4.918
    1MOL     C6  607   3.134   3.070   4.603
    1MOL    H10  608   3.201   3.155   4.588
    1MOL     O5  609   2.998   3.114   4.603
    1MOL     C7  610   2.969   3.241   4.547
    1MOL    H11  611   3.058   3.283   4.500
    1MOL     O6  612   2.875   3.229   4.442
    1MOL     C8  613   2.746   3.178   4.482
    1MOL    H12  614   2.761   3.079   4.529
    1MOL     C9  615   2.660   3.159   4.356
    1MOL    H13  616   2.588   3.079   4.376
    1MOL    H14  617   2.727   3.125   4.276
    1MOL     O7  618   2.595   3.276   4.311
    1MOL    H15  619   2.508   3.279   4.354
    1MOL    C10  620   2.916   3.333   4.658
    1MOL    H16  621   2.904   3.434   4.616
    1MOL     O8  622   3.005   3.347   4.768
    1MOL    H17  623   3.037   3.259   4.795
    1MOL    C11  624   2.778   3.286   4.705
    1MOL    H18  625   2.788   3.186   4.752
    1MOL     O9  626   2.722   3.378   4.798
    1MOL    H19  627   2.794   3.401   4.859
    1MOL    C12  628   2.685   3.274   4.585
    1MOL    H20  629   2.675   3.372   4.537
    1MOL    O10  630   2.557   3.230   4.631
    1MOL    C13  631   2.445   3.311   4.604
    1MOL    H21  632   2.477   3.411   4.571
    1MOL    O11  633   2.369   3.259   4.496
    1MOL    C14  634   2.314   3.127   4.519
    1MOL    H22  635   2.397   3.059   4.542
    1MOL    C15  636   2.245   3.080   4.391
    1MOL    H23  637   2.252   2.970   4.387
    1MOL    H24  638   2.303   3.118   4.306
    1MOL    O12  639   2.112   3.123   4.375
    1MOL    H25  640   2.055   3.053   4.411
    1MOL    C16  641   2.361   3.320   4.731
    1MOL    H26  642   2.279   3.391   4.712
    1MOL    O13  643   2.432   3.370   4.843
    1MOL    H27  644   2.527   3.349   4.833
    1MOL    C17  645   2.299   3.184   4.762
    1MOL    H28  646   2.379   3.112   4.785
    1MOL    O14  647   2.209   3.193   4.873
    1MOL    H29  648   2.257   3.244   4.941
    1MOL    C18  649   2.221   3.135   4.641
    1MOL    H30  650   2.140   3.206   4.618
    1MOL    O15  651   2.165   3.007   4.672
    1MOL    C19  652   2.026   2.988   4.658
    1MOL    H31  653   1.976   3.084   4.644
    1MOL    O16  654   1.996   2.913   4.541
    1MOL    C20  655   2.053   2.779   4.541
    1MOL    H32  656   2.162   2.789   4.552
    1MOL    C21  657   2.024   2.714   4.405
    1MOL    H33  658   2.106   2.645   4.382
    1MOL    H34  659   2.025   2.793   4.329
    1MOL    O17  660   1.899   2.649   4.397
    1MOL    H35  661   1.914   2.555   4.418
    1MOL    C22  662   1.975   2.918   4.784
    1MOL    H36  663   1.865   2.911   4.776
    1MOL    O18  664   2.002   2.988   4.903
    1MOL    H37  665   2.086   3.038   4.893
    1MOL    C23  666   2.030   2.775   4.790
    1MOL    H38  667   2.140   2.780   4.801
    1MOL    O19  668   1.973   2.704   4.899
    1MOL    H39  669   1.978   2.764   4.976
    1MOL    C24  670   1.997   2.702   4.661
    1MOL    H40  671   1.888   2.695   4.649
    1MOL    O20  672   2.053   2.571   4.668
    1MOL    C25  673   1.968   2.460   4.650
    1MOL    H41  674   1.863   2.491   4.651
    1MOL    O21  675   1.988   2.400   4.523
    1MOL    C26  676   2.121   2.348   4.501
    1MOL    H42  677   2.193   2.431   4.507
    1MOL    C27  678   2.127   2.292   4.360
    1MOL    H43  679   2.232   2.271   4.336
    1MOL    H44  680   2.089   2.368   4.290
    1MOL    O22  681   2.049   2.173   4.354
    1MOL    H45  682   2.058   2.135   4.265
    1MOL    C28  683   1.996   2.359   4.762
    1MOL    H46  684   1.927   2.275   4.750
    1MOL    O23  685   1.975   2.412   4.891
    1MOL    H47  686   1.998   2.507   4.892
    1MOL    C29  687   2.139   2.305   4.748
    1MOL    H48  688   2.210   2.388   4.761
    1MOL    O24  689   2.163   2.205   4.846
    1MOL    H49  690   2.125   2.239   4.929
    1MOL    C30  691   2.158   2.245   4.609
    1MOL    H50  692   2.093   2.157   4.599
    1MOL    O25  693   2.295   2.208   4.597
    1MOL    C31  694   2.326   2.083   4.535
    1MOL    H51  695   2.238   2.044   4.484
    1MOL    O26  696   2.423   2.102   4.435
    1MOL    C32  697   2.550   2.153   4.482
    1MOL    H52  698   2.533   2.249   4.532
    1MOL    C33  699   2.639   2.178   4.360
    1MOL    H53  700   2.715   2.252   4.388
    1MOL    H54  701   2.575   2.223   4.283
    1MOL    O27  702   2.699   2.060   4.309
    1MOL    H55  703   2.796   2.072   4.316
    1MOL    C34  704   2.376   1.985   4.643
    1MOL    H56  705   2.390   1.887   4.595
    1MOL    O28  706   2.283   1.964   4.748
    1MOL    H57  707   2.256   2.050   4.785
    1MOL    C35  708   2.511   2.032   4.697
    1MOL    H58  709   2.497   2.128   4.748
    1MOL    O29  710   2.565   1.936   4.788
    1MOL    H59  711   2.490   1.908   4.843
    1MOL    C36  712   2.609   2.051   4.582
    1MOL    H60  713   2.624   1.957   4.528
    1MOL    O30  714   2.733   2.097   4.636
    1MOL    C37  715   2.841   2.005   4.633
    1MOL    H61  716   2.804   1.904   4.614
    1MOL    O31  717   2.931   2.033   4.528
    1MOL    C38  718   2.991   2.163   4.533
    1MOL    H62  719   2.913   2.241   4.536
    1MOL    C39  720   3.068   2.179   4.404
    1MOL    H63  721   3.136   2.094   4.391
    1MOL    H64  722   3.127   2.272   4.405
    1MOL    O32  723   2.970   2.182   4.299
    1MOL    H65  724   3.015   2.203   4.216
    1MOL    C40  725   2.915   2.011   4.767
    1MOL    H66  726   2.993   1.934   4.764
    1MOL    O33  727   2.833   1.987   4.880
    1MOL    H67  728   2.739   1.987   4.854
    1MOL    C41  729   2.984   2.147   4.781
    1MOL    H68  730   2.907   2.226   4.785
    1MOL    O34  731   3.062   2.151   4.900
    1MOL    H69  732   3.005   2.117   4.971
    1MOL    C42  733   3.075   2.174   4.662
    1MOL    H70  734   3.156   2.100   4.660
    1MOL    O35  735   3.130   2.305   4.678
    1MOL    C43  736   3.270   2.322   4.674
    1MOL    H71  737   3.320   2.225   4.671
    1MOL    O36  738   3.311   2.388   4.556
    1MOL    C44  739   3.259   2.522   4.539
    1MOL    H72  740   3.149   2.519   4.537
    1MOL    C45  741   3.309   2.571   4.404
    1MOL    H73  742   3.417   2.551   4.398
    1MOL    H74  743   3.293   2.679   4.397
    1MOL    O37  744   3.237   2.501   4.303
    1MOL    H75  745   3.274   2.527   4.218
    1MOL    C46  746   3.313   2.402   4.797
    1MOL    H76  747   3.423   2.407   4.797
    1MOL    O38  748   3.276   2.342   4.920
    1MOL    H77  749   3.190   2.295   4.910
    1MOL    C47  750   3.259   2.545   4.788
    1MOL    H78  751   3.149   2.542   4.789
    1MOL    O39  752   3.307   2.622   4.898
    1MOL    H79  753   3.296   2.565   4.976
    1MOL    C48  754   3.303   2.610   4.658
    1MOL    H80  755   3.413   2.620   4.658
    1MOL    O40  756   3.243   2.740   4.651
    2SOL     OW  757   0.230   0.628   0.113
    2SOL    HW1  758   0.137   0.626   0.150
    2SOL    HW2  759   0.231   0.589   0.021
    3SOL     OW  760   0.225   0.275   0.996
    3SOL    HW1  761   0.260   0.258   1.088
    3SOL    HW2  762   0.137   0.230   0.984
    4SOL     OW  763   0.019   0.368   0.647
    4SOL    HW1  764  -0.063   0.411   0.686
    4SOL    HW2  765  -0.009   0.295   0.584
    5SOL     OW  766   0.569   1.275   1.165
    5SOL    HW1  767   0.476   1.268   1.128
    5SOL    HW2  768   0.580   1.364   1.209
    6SOL     OW  769   1.555   1.511   0.703
    6SOL    HW1  770   1.498   1.495   0.784
    6SOL    HW2  771   1.496   1.521   0.623
    7SOL     OW  772   1.135   0.703   0.717
    7SOL    HW1  773   1.192   0.781   0.692
    7SOL    HW2  774   1.075   0.729   0.793
    8SOL     OW  775   1.755   0.607   0.231
    8SOL    HW1  776   1.743   0.594   0.132
    8SOL    HW2  777   1.725   0.526   0.280
    9SOL     OW  778   0.768   1.144   1.023
    9SOL    HW1  779   0.690   1.161   1.083
    9SOL    HW2  780   0.802   1.231   0.987
   10SOL     OW  781   0.850   0.798   1.823
   10SOL    HW1  782   0.846   0.874   1.888
   10SOL    HW2  783   0.872   0.834   1.732
   11SOL     OW  784   0.685   1.012   0.665
   11SOL    HW1  785   0.754   0.996   0.735
   11SOL    HW2  786   0.612   1.069   0.703
   12SOL     OW  787   0.686   1.161   1.803
   12SOL    HW1  788   0.746   1.240   1.817
   12SOL    HW2  789   0.600   1.192   1.762
   13SOL     OW  790   0.335   1.435   1.061
   13SOL    HW1  791   0.257   1.404   1.008
   13SOL    HW2  792   0.393   1.493   1.004
   14SOL     OW  793   1.460   1.505   1.339
   14SOL    HW1  794   1.484   1.599   1.365
   14SOL    HW2  795   1.444   1.451   1.421
   15SOL     OW  796   0.438   0.392   1.499
   15SOL    HW1  797   0.520   0.336   1.508
   15SOL    HW2  798   0.357   0.334   1.503
   16SOL     OW  799   1.603   0.447   0.737
   16SOL    HW1  800   1.529   0.493   0.687
   16SOL    HW2  801   1.654   0.515   0.790
   17SOL     OW  802   0.231   1.713   0.483
   17SOL    HW1  803   0.265   1.790   0.537
   17SOL    HW2  804   0.275   1.713   0.393
   18SOL     OW  805   1.127   1.341   1.690
   18SOL    HW1  806   1.174   1.341   1.778
   18SOL    HW2  807   1.079   1.254   1.679
   19SOL     OW  808   0.230   1.434   0.538
   19SOL    HW1  809   0.204   1.530   0.538
   19SOL    HW2  810   0.159   1.380   0.583
   20SOL     OW  811   0.240   1.091   0.886
   20SOL    HW1  812   0.254   1.007   0.938
   20SOL    HW2  813   0.185   1.155   0.941
   21SOL     OW  814   0.620   1.786   1.439
   21SOL    HW1  815   0.528   1.769   1.474
   21SOL    HW2  816   0.648   1.878   1.465
   22SOL     OW  817   0.606   0.964   0.123
   22SOL    HW1  818   0.613   1.048   0.069
   22SOL    HW2  819   0.652   0.977   0.211
   23SOL     OW  820   1.594   0.114   1.480
   23SOL    HW1  821   1.576   0.181   1.408
   23SOL    HW2  822   1.591   0.160   1.569
   24SOL     OW  823   0.122   0.643   0.563
   24SOL    HW1  824   0.077   0.555   0.580
   24SOL    HW2  825   0.121   0.697   0.647
   25SOL     OW  826   1.842   1.767   0.359
   25SOL    HW1  827   1.896   1.738   0.439
   25SOL    HW2  828   1.872   1.857   0.330
   26SOL     OW  829   0.027   1.596   0.117
   26SOL    HW1  830   0.008   1.500   0.138
   26SOL    HW2  831  -0.006   1.654   0.192
   27SOL     OW  832   1.689   0.922   0.612
   27SOL    HW1  833   1.784   0.893   0.620
   27SOL    HW2  834   1.681   0.987   0.537
   28SOL     OW  835   1.641   1.108   0.432
   28SOL    HW1  836   1.727   1.110   0.380
   28SOL    HW2  837   1.655   1.155   0.520
   29SOL     OW  838   0.113   0.737   1.597
   29SOL    HW1  839   0.201   0.724   1.642
   29SOL    HW2  840   0.100   0.834   1.575
   30SOL     OW  841   0.613   1.365   0.726
   30SOL    HW1  842   0.564   1.278   0.735
   30SOL    HW2  843   0.590   1.408   0.639
   31SOL     OW  844   1.293   1.228   1.423
   31SOL    HW1  845   1.330   1.155   1.365
   31SOL    HW2  846   1.345   1.233   1.508
   32SOL     OW  847   0.809   0.004   0.502
   32SOL    HW1  848   0.849   0.095   0.493
   32SOL    HW2  849   0.709   0.012   0.508
   33SOL     OW  850   0.197   0.976   1.264
   33SOL    HW1  851   0.286   0.931   1.250
   33SOL    HW2  852   0.124   0.911   1.245
   34SOL     OW  853   1.525   0.999   0.190
   34SOL    HW1  854   1.462   0.923   0.203
   34SOL    HW2  855   1.573   1.017   0.276
   35SOL     OW  856   1.187   1.792   1.616
   35SOL    HW1  857   1.211   1.852   1.540
   35SOL    HW2  858   1.194   1.697   1.586
   36SOL     OW  859   0.317   0.251   1.801
   36SOL    HW1  860   0.388   0.322   1.807
   36SOL    HW2  861   0.229   0.290   1.829
   37SOL     OW  862   1.466   1.417   0.953
   37SOL    HW1  863   1.407   1.423   1.033
   37SOL    HW2  864   1.451   1.329   0.907
   38SOL     OW  865   1.667   1.714   0.572
   38SOL    HW1  866   1.626   1.691   0.484
   38SOL    HW2  867   1.649   1.640   0.637
   39SOL     OW  868   0.598   0.729   0.270
   39SOL    HW1  869   0.622   0.798   0.202
   39SOL    HW2  870   0.520   0.762   0.324
   40SOL     OW  871   1.281   0.345   0.944
   40SOL    HW1  872   1.195   0.295   0.931
   40SOL    HW2  873   1.343   0.291   1.000
   41SOL     OW  874   1.576   1.662   0.307
   41SOL    HW1  875   1.665   1.708   0.310
   41SOL    HW2  876   1.555   1.638   0.212
   42SOL     OW  877   0.807   0.605   1.465
   42SOL    HW1  878   0.760   0.602   1.554
   42SOL    HW2  879   0.756   0.550   1.399
   43SOL     OW  880   1.394   0.469   1.674
   43SOL    HW1  881   1.374   0.512   1.762
   43SOL    HW2  882   1.472   0.407   1.683
   44SOL     OW  883   0.973   0.890   1.572
   44SOL    HW1  884   1.019   0.806   1.543
   44SOL    HW2  885   0.917   0.924   1.497
   45SOL     OW  886   0.991   0.410   1.242
   45SOL    HW1  887   0.914   0.444   1.296
   45SOL    HW2  888   0.957   0.359   1.163
   46SOL     OW  889   1.041   0.701   0.429
   46SOL    HW1  890   1.067   0.697   0.525
   46SOL    HW2  891   0.956   0.650   0.415
   47SOL     OW  892   0.076   0.811   0.789
   47SOL    HW1  893   0.175   0.799   0.798
   47SOL    HW2  894   0.052   0.906   0.810
   48SOL     OW  895   0.130   1.821   1.571
   48SOL    HW1  896   0.120   1.806   1.670
   48SOL    HW2  897   0.044   1.857   1.535
   49SOL     OW  898   0.865   0.348   0.195
   49SOL    HW1  899   0.924   0.411   0.146
   49SOL    HW2  900   0.884   0.254   0.166
   50SOL     OW  901   1.719   0.585   1.831
   50SOL    HW1  902   1.693   0.674   1.795
   50SOL    HW2  903   1.717   0.517   1.758
   51SOL     OW  904   1.362   1.144   0.545
   51SOL    HW1  905   1.445   1.115   0.497
   51SOL    HW2  906   1.313   1.211   0.489
   52SOL     OW  907   0.550   0.196   0.885
   52SOL    HW1  908   0.545   0.191   0.985
   52SOL    HW2  909   0.552   0.292   0.856
   53SOL     OW  910   1.008   1.456   0.477
   53SOL    HW1  911   0.962   1.528   0.425
   53SOL    HW2  912   1.004   1.476   0.575
   54SOL     OW  913   0.351   1.801   0.853
   54SOL    HW1  914   0.401   1.715   0.859
   54SOL    HW2  915   0.416   1.878   0.850
   55SOL     OW  916   1.795   1.066   0.873
   55SOL    HW1  917   1.733   1.051   0.797
   55SOL    HW2  918   1.743   1.077   0.958
   56SOL     OW  919   1.227   1.550   1.506
   56SOL    HW1  920   1.233   1.473   1.570
   56SOL    HW2  921   1.175   1.524   1.426
   57SOL     OW  922   0.321   0.943   0.242
   57SOL    HW1  923   0.403   0.982   0.200
   57SOL    HW2  924   0.294   0.861   0.193
   58SOL     OW  925   1.458   0.735   0.728
   58SOL    HW1  926   1.453   0.670   0.803
   58SOL    HW2  927   1.538   0.794   0.741
   59SOL     OW  928   0.461   1.266   1.727
   59SOL    HW1  929   0.411   1.267   1.641
   59SOL    HW2  930   0.398   1.248   1.803
   60SOL     OW  931   1.111   1.776   0.237
   60SOL    HW1  932   1.051   1.714   0.287
   60SOL    HW2  933   1.142   1.732   0.152
   61SOL     OW  934   0.202   0.285   1.498
   61SOL    HW1  935   0.122   0.345   1.485
   61SOL    HW2  936   0.192   0.236   1.584
   62SOL     OW  937   1.632   1.377   0.081
   62SOL    HW1  938   1.600   1.471   0.071
   62SOL    HW2  939   1.556   1.314   0.069
   63SOL     OW  940   0.464   1.743   0.323
   63SOL    HW1  941   0.497   1.782   0.409
   63SOL    HW2  942   0.540   1.736   0.258
   64SOL     OW  943   1.400   0.107   0.426
   64SOL    HW1  944   1.376   0.070   0.336
   64SOL    HW2  945   1.499   0.123   0.430
   65SOL     OW  946   0.249   1.785   1.241
   65SOL    HW1  947   0.306   1.720   1.291
   65SOL    HW2  948   0.233   1.752   1.148
   66SOL     OW  949   0.940   1.698   0.904
   66SOL    HW1  950   1.020   1.641   0.925
   66SOL    HW2  951   0.891   1.658   0.827
   67SOL     OW  952   0.382   0.700   0.480
   67SOL    HW1  953   0.427   0.610   0.477
   67SOL    HW2  954   0.288   0.689   0.513
   68SOL     OW  955   1.547   0.222   1.729
   68SOL    HW1  956   1.542   0.259   1.821
   68SOL    HW2  957   1.475   0.153   1.717
   69SOL     OW  958   0.614   0.122   0.117
   69SOL    HW1  959   0.712   0.100   0.124
   69SOL    HW2  960   0.583   0.105   0.024
   70SOL     OW  961   0.781   0.264   1.749
   70SOL    HW1  962   0.848   0.203   1.792
   70SOL    HW2  963   0.708   0.283   1.814
   71SOL     OW  964   0.888   1.514   1.195
   71SOL    HW1  965   0.865   1.489   1.101
   71SOL    HW2  966   0.949   1.445   1.234
   72SOL     OW  967   1.351   0.590   1.433
   72SOL    HW1  968   1.379   0.547   1.518
   72SOL    HW2  969   1.376   0.686   1.434
   73SOL     OW  970   0.803   1.402   0.924
   73SOL    HW1  971   0.893   1.416   0.882
   73SOL    HW2  972   0.732   1.404   0.853
   74SOL     OW  973   0.922   0.503   0.899
   74SOL    HW1  974   0.897   0.494   0.803
   74SOL    HW2  975   0.970   0.421   0.930
   75SOL     OW  976   0.539   0.064   0.512
   75SOL    HW1  977   0.458   0.065   0.570
   75SOL    HW2  978   0.542   0.147   0.457
   76SOL     OW  979   1.434   1.188   0.041
   76SOL    HW1  980   1.466   1.112   0.098
   76SOL    HW2  981   1.342   1.215   0.071
   77SOL     OW  982   0.297   0.035   0.171
   77SOL    HW1  983   0.346   0.119   0.150
   77SOL    HW2  984   0.359  -0.030   0.216
   78SOL     OW  985   0.935   0.236   0.480
   78SOL    HW1  986   0.887   0.277   0.402
   78SOL    HW2  987   1.034   0.234   0.461
   79SOL     OW  988   1.076   0.683   1.464
   79SOL    HW1  989   0.996   0.622   1.467
   79SOL    HW2  990   1.157   0.630   1.440
   80SOL     OW  991   1.227   1.570   0.793
   80SOL    HW1  992   1.248   1.644   0.728
   80SOL    HW2  993   1.295   1.570   0.866
   81SOL     OW  994   0.459   1.152   0.741
   81SOL    HW1  995   0.388   1.125   0.806
   81SOL    HW2  996   0.433   1.124   0.648
   82SOL     OW  997   1.271   1.797   0.591
   82SOL    HW1  998   1.315   1.861   0.527
   82SOL    HW2  999   1.221   1.849   0.661
   83SOL     OW 1000   1.032   0.549   0.016
   83SOL    HW1 1001   0.991   0.631  -0.023
   83SOL    HW2 1002   1.096   0.575   0.089
   84SOL     OW 1003   0.078   0.556   1.386
   84SOL    HW1 1004   0.170   0.555   1.345
   84SOL    HW2 1005   0.072   0.630   1.453
   85SOL     OW 1006   0.561   0.222   1.147
   85SOL    HW1 1007   0.599   0.138   1.184
   85SOL    HW2 1008   0.473   0.241   1.191
   86SOL     OW 1009   0.866   0.454   0.642
   86SOL    HW1 1010   0.834   0.526   0.580
   86SOL    HW2 1011   0.890   0.373   0.589
   87SOL     OW 1012   1.017   0.039   0.753
   87SOL    HW1 1013   0.945   0.044   0.684
   87SOL    HW2 1014   0.993  -0.030   0.822
   88SOL     OW 1015   1.429   1.173   0.867
   88SOL    HW1 1016   1.374   1.089   0.860
   88SOL    HW2 1017   1.455   1.202   0.775
   89SOL     OW 1018   1.466   0.590   0.992
   89SOL    HW1 1019   1.436   0.495   0.999
   89SOL    HW2 1020   1.539   0.606   1.058
   90SOL     OW 1021   1.857   0.833   0.377
   90SOL    HW1 1022   1.899   0.769   0.441
   90SOL    HW2 1023   1.819   0.782   0.299
   91SOL     OW 1024   0.488   1.385   0.174
   91SOL    HW1 1025   0.401   1.370   0.221
   91SOL    HW2 1026   0.471   1.411   0.079
   92SOL     OW 1027   1.664   1.280   0.657
   92SOL    HW1 1028   1.763   1.288   0.671
   92SOL    HW2 1029   1.619   1.364   0.688
   93SOL     OW 1030   1.390   0.575   0.078
   93SOL    HW1 1031   1.336   0.554   0.159
   93SOL    HW2 1032   1.481   0.534   0.087
   94SOL     OW 1033   0.527   0.256   0.328
   94SOL    HW1 1034   0.554   0.197   0.253
   94SOL    HW2 1035   0.527   0.351   0.297
   95SOL     OW 1036   1.754   1.223   1.588
   95SOL    HW1 1037   1.845   1.184   1.575
   95SOL    HW2 1038   1.762   1.319   1.612
   96SOL     OW 1039   1.064   1.347   1.340
   96SOL    HW1 1040   0.984   1.324   1.395
   96SOL    HW2 1041   1.147   1.321   1.389
   97SOL     OW 1042   1.592   1.629   1.625
   97SOL    HW1 1043   1.619   1.663   1.535
   97SOL    HW2 1044   1.671   1.591   1.671
   98SOL     OW 1045   1.111   1.195   1.100
   98SOL    HW1 1046   1.071   1.239   1.181
   98SOL    HW2 1047   1.070   1.232   1.017
   99SOL     OW 1048   1.638   1.099   1.079
   99SOL    HW1 1049   1.643   1.180   1.138
   99SOL    HW2 1050   1.552   1.101   1.028
  100SOL     OW 1051   0.915   0.089   1.402
  100SOL    HW1 1052   0.940   0.069   1.307
  100SOL    HW2 1053   0.987   0.145   1.444
  101SOL     OW 1054   0.980   1.116   1.719
  101SOL    HW1 1055   0.881   1.122   1.729
  101SOL    HW2 1056   1.003   1.036   1.663
  102SOL     OW 1057   0.705   1.050   0.368
  102SOL    HW1 1058   0.691   1.057   0.467
  102SOL    HW2 1059   0.789   0.999   0.350
  103SOL     OW 1060   0.410   0.813   1.251
  103SOL    HW1 1061   0.496   0.825   1.301
  103SOL    HW2 1062   0.368   0.726   1.278
  104SOL     OW 1063   1.274   0.386   1.262
  104SOL    HW1 1064   1.295   0.460   1.326
  104SOL    HW2 1065   1.185   0.403   1.219
  105SOL     OW 1066   0.064   1.564   1.331
  105SOL    HW1 1067   0.018   1.646   1.297
  105SOL    HW2 1068   0.162   1.583   1.340
  106SOL     OW 1069   0.367   1.100   0.501
  106SOL    HW1 1070   0.360   1.183   0.445
  106SOL    HW2 1071   0.371   1.020   0.441
  107SOL     OW 1072   0.566   0.537   0.865
  107SOL    HW1 1073   0.578   0.603   0.791
  107SOL    HW2 1074   0.612   0.571   0.948
  108SOL     OW 1075   1.252   1.348   0.388
  108SOL    HW1 1076   1.302   1.425   0.428
  108SOL    HW2 1077   1.157   1.350   0.420
  109SOL     OW 1078   1.272   1.445   1.142
  109SOL    HW1 1079   1.319   1.458   1.229
  109SOL    HW2 1080   1.206   1.371   1.151
  110SOL     OW 1081   1.582   0.639   0.472
  110SOL    HW1 1082   1.551   0.700   0.545
  110SOL    HW2 1083   1.632   0.691   0.403
  111SOL     OW 1084   0.354   1.510   1.329
  111SOL    HW1 1085   0.333   1.466   1.242
  111SOL    HW2 1086   0.451   1.536   1.332
  112SOL     OW 1087   0.402   0.751   1.598
  112SOL    HW1 1088   0.470   0.806   1.551
  112SOL    HW2 1089   0.442   0.663   1.625
  113SOL     OW 1090   1.587   0.779   1.670
  113SOL    HW1 1091   1.495   0.817   1.665
  113SOL    HW2 1092   1.647   0.826   1.605
  114SOL     OW 1093   1.013   0.105   1.770
  114SOL    HW1 1094   1.019   0.190   1.718
  114SOL    HW2 1095   1.045   0.029   1.713
  115SOL     OW 1096   0.504   0.050   1.740
  115SOL    HW1 1097   0.462  -0.007   1.670
  115SOL    HW2 1098   0.438   0.119   1.772
  116SOL     OW 1099   0.573   0.870   1.029
  116SOL    HW1 1100   0.617   0.959   1.020
  116SOL    HW2 1101   0.510   0.870   1.106
  117SOL     OW 1102   1.360   0.862   1.045
  117SOL    HW1 1103   1.285   0.862   0.979
  117SOL    HW2 1104   1.397   0.770   1.054
  118SOL     OW 1105   1.209   0.525   0.275
  118SOL    HW1 1106   1.222   0.441   0.329
  118SOL    HW2 1107   1.180   0.599   0.335
  119SOL     OW 1108   0.307   0.213   1.231
  119SOL    HW1 1109   0.284   0.250   1.321
  119SOL    HW2 1110   0.277   0.118   1.225
  120SOL     OW 1111   0.037   1.310   1.282
  120SOL    HW1 1112   0.090   1.261   1.350
  120SOL    HW2 1113   0.059   1.408   1.287
  121SOL     OW 1114   0.732   0.634   1.064
  121SOL    HW1 1115   0.791   0.608   0.988
  121SOL    HW2 1116   0.704   0.730   1.053
  122SOL     OW 1117   1.728   0.935   1.854
  122SOL    HW1 1118   1.682   0.928   1.765
  122SOL    HW2 1119   1.666   0.979   1.920
  123SOL     OW 1120   0.307   0.063   0.618
  123SOL    HW1 1121   0.296   0.157   0.651
  123SOL    HW2 1122   0.302   0.000   0.695
  124SOL     OW 1123   1.622   0.367   0.374
  124SOL    HW1 1124   1.624   0.291   0.438
  124SOL    HW2 1125   1.574   0.444   0.414
  125SOL     OW 1126   1.023   0.766   0.966
  125SOL    HW1 1127   1.038   0.787   1.062
  125SOL    HW2 1128   0.993   0.671   0.957
  126SOL     OW 1129   0.980   1.573   1.700
  126SOL    HW1 1130   0.960   1.617   1.612
  126SOL    HW2 1131   1.019   1.482   1.684
  127SOL     OW 1132   1.859   1.518   1.605
  127SOL    HW1 1133   1.873   1.545   1.510
  127SOL    HW2 1134   1.942   1.540   1.658
  128SOL     OW 1135   0.350   0.898   1.804
  128SOL    HW1 1136   0.426   0.942   1.852
  128SOL    HW2 1137   0.385   0.851   1.722
  129SOL     OW 1138   1.540   0.274   0.125
  129SOL    HW1 1139   1.479   0.199   0.148
  129SOL    HW2 1140   1.562   0.326   0.208
  130SOL     OW 1141   1.303   0.838   0.042
  130SOL    HW1 1142   1.337   0.745   0.057
  130SOL    HW2 1143   1.321   0.865  -0.053
  131SOL     OW 1144   1.068   1.333   0.849
  131SOL    HW1 1145   1.075   1.249   0.794
  131SOL    HW2 1146   1.130   1.402   0.813
  132SOL     OW 1147   0.319   0.810   0.949
  132SOL    HW1 1148   0.412   0.846   0.954
  132SOL    HW2 1149   0.313   0.725   1.001
  133SOL     OW 1150   0.339   0.509   1.006
  133SOL    HW1 1151   0.287   0.426   0.989
  133SOL    HW2 1152   0.416   0.514   0.942
  134SOL     OW 1153   1.138   0.380   1.678
  134SOL    HW1 1154   1.093   0.443   1.742
  134SOL    HW2 1155   1.231   0.411   1.661
  135SOL     OW 1156   1.160   0.207   1.477
  135SOL    HW1 1157   1.160   0.271   1.554
  135SOL    HW2 1158   1.188   0.255   1.394
  136SOL     OW 1159   0.008   1.326   0.200
  136SOL    HW1 1160  -0.085   1.347   0.169
  136SOL    HW2 1161   0.018   1.227   0.213
  137SOL     OW 1162   0.088   1.801   0.927
  137SOL    HW1 1163   0.046   1.715   0.900
  137SOL    HW2 1164   0.182   1.804   0.893
  138SOL     OW 1165   0.504   1.568   0.910
  138SOL    HW1 1166   0.570   1.642   0.919
  138SOL    HW2 1167   0.548   1.489   0.868
  139SOL     OW 1168   1.002   0.796   1.238
  139SOL    HW1 1169   1.043   0.764   1.324
  139SOL    HW2 1170   0.906   0.769   1.235
  140SOL     OW 1171   0.040   0.544   1.114
  140SOL    HW1 1172   0.125   0.511   1.073
  140SOL    HW2 1173   0.053   0.559   1.212
  141SOL     OW 1174   0.189   0.520   1.722
  141SOL    HW1 1175   0.248   0.480   1.652
  141SOL    HW2 1176   0.131   0.591   1.681
  142SOL     OW 1177   1.369   0.950   1.660
  142SOL    HW1 1178   1.408   1.039   1.680
  142SOL    HW2 1179   1.379   0.930   1.563
  143SOL     OW 1180   0.815   0.572   0.325
  143SOL    HW1 1181   0.822   0.483   0.279
  143SOL    HW2 1182   0.721   0.606   0.317
  144SOL     OW 1183   1.657   0.604   1.206
  144SOL    HW1 1184   1.619   0.535   1.268
  144SOL    HW2 1185   1.739   0.568   1.162
  145SOL     OW 1186   0.252   1.564   1.744
  145SOL    HW1 1187   0.222   1.621   1.820
  145SOL    HW2 1188   0.245   1.467   1.770
  146SOL     OW 1189   0.671   0.464   1.269
  146SOL    HW1 1190   0.637   0.375   1.239
  146SOL    HW2 1191   0.697   0.518   1.189
  147SOL     OW 1192   0.930   1.678   1.465
  147SOL    HW1 1193   0.906   1.660   1.370
  147SOL    HW2 1194   0.960   1.772   1.475
  148SOL     OW 1195   0.473   0.500   0.191
  148SOL    HW1 1196   0.534   0.580   0.195
  148SOL    HW2 1197   0.378   0.531   0.198
  149SOL     OW 1198   0.159   1.137   1.466
  149SOL    HW1 1199   0.181   1.076   1.542
  149SOL    HW2 1200   0.169   1.088   1.380
  150SOL     OW 1201   1.347   1.059   1.234
  150SOL    HW1 1202   1.371   0.996   1.160
  150SOL    HW2 1203   1.257   1.099   1.216
  151SOL     OW 1204   1.302   0.855   0.309
  151SOL    HW1 1205   1.216   0.824   0.351
  151SOL    HW2 1206   1.298   0.841   0.210
  152SOL     OW 1207   1.759   1.747   1.154
  152SOL    HW1 1208   1.820   1.777   1.081
  152SOL    HW2 1209   1.721   1.658   1.132
  153SOL     OW 1210   1.252   1.731   1.128
  153SOL    HW1 1211   1.336   1.736   1.074
  153SOL    HW2 1212   1.229   1.635   1.146
  154SOL     OW 1213   0.083   1.258   1.022
  154SOL    HW1 1214   0.078   1.257   1.122
  154SOL    HW2 1215   0.000   1.217   0.984
  155SOL     OW 1216   0.688   1.662   1.716
  155SOL    HW1 1217   0.632   1.743   1.725
  155SOL    HW2 1218   0.740   1.666   1.630
  156SOL     OW 1219   0.903   0.086   0.133
  156SOL    HW1 1220   0.954   0.087   0.047
  156SOL    HW2 1221   0.959   0.044   0.204
  157SOL     OW 1222   1.726   0.135   0.523
  157SOL    HW1 1223   1.799   0.118   0.456
  157SOL    HW2 1224   1.695   0.048   0.561
  158SOL     OW 1225   1.388   1.573   0.477
  158SOL    HW1 1226   1.455   1.585   0.403
  158SOL    HW2 1227   1.348   1.662   0.500
  159SOL     OW 1228   0.130   1.794   1.851
  159SOL    HW1 1229   0.089   1.720   1.904
  159SOL    HW2 1230   0.194   1.845   1.909
  160SOL     OW 1231   1.280   0.927   0.672
  160SOL    HW1 1232   1.340   0.846   0.674
  160SOL    HW2 1233   1.320   0.996   0.612
  161SOL     OW 1234   0.830   1.273   1.422
  161SOL    HW1 1235   0.825   1.306   1.517
  161SOL    HW2 1236   0.744   1.292   1.376
  162SOL     OW 1237   0.672   1.616   0.154
  162SOL    HW1 1238   0.681   1.626   0.055
  162SOL    HW2 1239   0.632   1.527   0.175
  163SOL     OW 1240   1.650   1.720   1.394
  163SOL    HW1 1241   1.703   1.730   1.310
  163SOL    HW2 1242   1.623   1.810   1.428
  164SOL     OW 1243   1.841   0.175   0.963
  164SOL    HW1 1244   1.880   0.090   0.927
  164SOL    HW2 1245   1.743   0.177   0.944
  165SOL     OW 1246   0.263   0.326   0.720
  165SOL    HW1 1247   0.184   0.377   0.686
  165SOL    HW2 1248   0.254   0.311   0.818
  166SOL     OW 1249   1.194   1.612   0.031
  166SOL    HW1 1250   1.200   1.519   0.068
  166SOL    HW2 1251   1.135   1.612  -0.049
  167SOL     OW 1252   0.822   1.002   1.372
  167SOL    HW1 1253   0.862   1.001   1.280
  167SOL    HW2 1254   0.832   1.094   1.412
  168SOL     OW 1255   0.916   0.910   0.291
  168SOL    HW1 1256   0.979   0.948   0.223
  168SOL    HW2 1257   0.956   0.827   0.330
  169SOL     OW 1258   1.504   1.607   0.044
  169SOL    HW1 1259   1.412   1.644   0.051
  169SOL    HW2 1260   1.542   1.627  -0.046
  170SOL     OW 1261   0.372   1.288   1.490
  170SOL    HW1 1262   0.359   1.381   1.456
  170SOL    HW2 1263   0.288   1.236   1.477
  171SOL     OW 1264   1.614   1.292   1.289
  171SOL    HW1 1265   1.674   1.295   1.369
  171SOL    HW2 1266   1.539   1.356   1.302
  172SOL     OW 1267   1.039   1.098   0.696
  172SOL    HW1 1268   0.969   1.051   0.750
  172SOL    HW2 1269   1.098   1.030   0.653
  173SOL     OW 1270   1.014   0.236   0.971
  173SOL    HW1 1271   1.006   0.200   0.878
  173SOL    HW2 1272   1.012   0.160   1.036
  174SOL     OW 1273   0.590   1.487   0.491
  174SOL    HW1 1274   0.632   1.429   0.421
  174SOL    HW2 1275   0.546   1.566   0.447
  175SOL     OW 1276   1.709   0.385   1.381
  175SOL    HW1 1277   1.782   0.454   1.385
  175SOL    HW2 1278   1.737   0.310   1.322
  176SOL     OW 1279   0.255   1.348   0.290
  176SOL    HW1 1280   0.159   1.349   0.263
  176SOL    HW2 1281   0.267   1.401   0.374
  177SOL     OW 1282   0.105   1.013   1.726
  177SOL    HW1 1283   0.028   0.980   1.780
  177SOL    HW2 1284   0.190   0.983   1.768
  178SOL     OW 1285   0.672   0.203   1.489
  178SOL    HW1 1286   0.762   0.187   1.449
  178SOL    HW2 1287   0.680   0.208   1.588
  179SOL     OW 1288   0.075   0.345   0.033
  179SOL    HW1 1289  -0.017   0.317   0.004
  179SOL    HW2 1290   0.106   0.422  -0.023
  180SOL     OW 1291   1.440   0.856   1.398
  180SOL    HW1 1292   1.383   0.908   1.335
  180SOL    HW2 1293   1.536   0.868   1.374
  181SOL     OW 1294   0.072   0.166   0.318
  181SOL    HW1 1295   0.055   0.249   0.264
  181SOL    HW2 1296   0.162   0.129   0.296
  182SOL     OW 1297   1.183   1.335   0.119
  182SOL    HW1 1298   1.084   1.324   0.121
  182SOL    HW2 1299   1.217   1.350   0.212
  183SOL     OW 1300   0.613   0.842   1.431
  183SOL    HW1 1301   0.669   0.923   1.414
  183SOL    HW2 1302   0.672   0.762   1.434
  184SOL     OW 1303   1.493   1.767   0.959
  184SOL    HW1 1304   1.526   1.831   0.890
  184SOL    HW2 1305   1.559   1.761   1.034
  185SOL     OW 1306   0.716   0.565   1.708
  185SOL    HW1 1307   0.735   0.630   1.782
  185SOL    HW2 1308   0.776   0.485   1.717
  186SOL     OW 1309   1.450   1.220   1.633
  186SOL    HW1 1310   1.441   1.210   1.732
  186SOL    HW2 1311   1.546   1.213   1.607
  187SOL     OW 1312   0.390   1.741   1.560
  187SOL    HW1 1313   0.299   1.782   1.558
  187SOL    HW2 1314   0.383   1.647   1.592
  188SOL     OW 1315   1.674   0.883   1.254
  188SOL    HW1 1316   1.647   0.794   1.217
  188SOL    HW2 1317   1.675   0.951   1.181
  189SOL     OW 1318   1.225   0.325   0.449
  189SOL    HW1 1319   1.290   0.251   0.438
  189SOL    HW2 1320   1.245   0.375   0.533
  190SOL     OW 1321   0.594   0.745   0.652
  190SOL    HW1 1322   0.644   0.830   0.633
  190SOL    HW2 1323   0.506   0.747   0.604
  191SOL     OW 1324   1.777   0.342   1.642
  191SOL    HW1 1325   1.760   0.373   1.548
  191SOL    HW2 1326   1.693   0.305   1.680
  192SOL     OW 1327   1.730   0.934   1.517
  192SOL    HW1 1328   1.768   1.025   1.532
  192SOL    HW2 1329   1.722   0.917   1.418
  193SOL     OW 1330   0.859   1.374   0.016
  193SOL    HW1 1331   0.813   1.389   0.104
  193SOL    HW2 1332   0.903   1.459  -0.014
  194SOL     OW 1333   0.661   1.790   0.953
  194SOL    HW1 1334   0.615   1.878   0.940
  194SOL    HW2 1335   0.760   1.802   0.946
  195SOL     OW 1336   0.859   0.956   0.861
  195SOL    HW1 1337   0.913   0.887   0.909
  195SOL    HW2 1338   0.827   1.025   0.927
  196SOL     OW 1339   1.083   0.984   0.087
  196SOL    HW1 1340   1.060   1.037   0.005
  196SOL    HW2 1341   1.164   0.928   0.068
  197SOL     OW 1342   1.861   1.569   0.851
  197SOL    HW1 1343   1.790   1.557   0.781
  197SOL    HW2 1344   1.862   1.490   0.911
  198SOL     OW 1345   0.221   1.314   1.844
  198SOL    HW1 1346   0.156   1.241   1.823
  198SOL    HW2 1347   0.225   1.328   1.942
  199SOL     OW 1348   0.079   1.240   0.653
  199SOL    HW1 1349   0.078   1.193   0.741
  199SOL    HW2 1350   0.161   1.212   0.602
  200SOL     OW 1351   0.672   1.391   1.624
  200SOL    HW1 1352   0.594   1.341   1.662
  200SOL    HW2 1353   0.669   1.486   1.655
  201SOL     OW 1354   1.824   0.192   1.227
  201SOL    HW1 1355   1.820   0.102   1.271
  201SOL    HW2 1356   1.827   0.181   1.128
  202SOL     OW 1357   0.428   0.424   0.520
  202SOL    HW1 1358   0.458   0.352   0.458
  202SOL    HW2 1359   0.389   0.384   0.603
  203SOL     OW 1360   1.705   1.487   1.104
  203SOL    HW1 1361   1.612   1.462   1.077
  203SOL    HW2 1362   1.731   1.437   1.186
  204SOL     OW 1363   0.317   0.547   1.280
  204SOL    HW1 1364   0.355   0.488   1.352
  204SOL    HW2 1365   0.357   0.521   1.192
  205SOL     OW 1366   0.812   1.586   0.687
  205SOL    HW1 1367   0.844   1.596   0.593
  205SOL    HW2 1368   0.733   1.524   0.689
  206SOL     OW 1369   1.424   0.214   1.112
  206SOL    HW1 1370   1.476   0.149   1.167
  206SOL    HW2 1371   1.375   0.277   1.173
  207SOL     OW 1372   1.001   0.034   1.154
  207SOL    HW1 1373   0.938  -0.038   1.123
  207SOL    HW2 1374   1.094  -0.002   1.154
  208SOL     OW 1375   0.770   1.330   0.301
  208SOL    HW1 1376   0.724   1.243   0.318
  208SOL    HW2 1377   0.861   1.327   0.342
  209SOL     OW 1378   0.618   1.567   1.284
  209SOL    HW1 1379   0.613   1.649   1.341
  209SOL    HW2 1380   0.707   1.564   1.239
  210SOL     OW 1381   1.352   0.052   0.168
  210SOL    HW1 1382   1.387   0.011   0.084
  210SOL    HW2 1383   1.262   0.014   0.188
  211SOL     OW 1384   1.300   0.453   0.691
  211SOL    HW1 1385   1.241   0.533   0.695
  211SOL    HW2 1386   1.315   0.418   0.784
  212SOL     OW 1387   1.593   0.221   0.882
  212SOL    HW1 1388   1.509   0.220   0.936
  212SOL    HW2 1389   1.595   0.304   0.826
  213SOL     OW 1390   0.039   1.077   0.300
  213SOL    HW1 1391   0.138   1.066   0.291
  213SOL    HW2 1392  -0.001   0.991   0.332
  214SOL     OW 1393   0.875   1.646   0.337
  214SOL    HW1 1394   0.798   1.611   0.283
  214SOL    HW2 1395   0.843   1.717   0.399
  215SOL     OW 1396   0.230   0.628   1.975
  215SOL    HW1 1397   0.137   0.626   2.012
  215SOL    HW2 1398   0.231   0.589   1.883
  216SOL     OW 1399   0.225   0.275   2.858
  216SOL    HW1 1400   0.260   0.258   2.950
  216SOL    HW2 1401   0.137   0.230   2.846
  217SOL     OW 1402   0.019   0.368   2.509
  217SOL    HW1 1403  -0.063   0.411   2.548
  217SOL    HW2 1404  -0.009   0.295   2.446
  218SOL     OW 1405   0.569   1.275   3.027
  218SOL    HW1 1406   0.476   1.268   2.990
  218SOL    HW2 1407   0.580   1.364   3.071
  219SOL     OW 1408   1.555   1.511   2.565
  219SOL    HW1 1409   1.498   1.495   2.646
  219SOL    HW2 1410   1.496   1.521   2.485
  220SOL     OW 1411   1.135   0.703   2.579
  220SOL    HW1 1412   1.192   0.781   2.554
  220SOL    HW2 1413   1.075   0.729   2.655
  221SOL     OW 1414   1.755   0.607   2.093
  221SOL    HW1 1415   1.743   0.594   1.994
  221SOL    HW2 1416   1.725   0.526   2.142
  222SOL     OW 1417   0.768   1.144   2.885
  222SOL    HW1 1418   0.690   1.161   2.945
  222SOL    HW2 1419   0.802   1.231   2.849
  223SOL     OW 1420   0.850   0.798   3.685
  223SOL    HW1 1421   0.846   0.874   3.750
  223SOL    HW2 1422   0.872   0.834   3.594
  224SOL     OW 1423   0.685   1.012   2.527
  224SOL    HW1 1424   0.754   0.996   2.597
  224SOL    HW2 1425   0.612   1.069   2.565
  225SOL     OW 1426   0.686   1.161   3.665
  225SOL    HW1 1427   0.746   1.240   3.679
  225SOL    HW2 1428   0.600   1.192   3.624
  226SOL     OW 1429   0.335   1.435   2.923
  226SOL    HW1 1430   0.257   1.404   2.870
  226SOL    HW2 1431   0.393   1.493   2.866
  227SOL     OW 1432   1.460   1.505   3.201
  227SOL    HW1 1433   1.484   1.599   3.227
  227SOL    HW2 1434   1.444   1.451   3.283
  228SOL     OW 1435   0.438   0.392   3.361
  228SOL    HW1 1436   0.520   0.336   3.370
  228SOL    HW2 1437   0.357   0.334   3.365
  229SOL     OW 1438   1.603   0.447   2.599
  229SOL    HW1 1439   1.529   0.493   2.549
  229SOL    HW2 1440   1.654   0.515   2.652
  230SOL     OW 1441   0.231   1.713   2.345
  230SOL    HW1 1442   0.265   1.790   2.399
  230SOL    HW2 1443   0.275   1.713   2.255
  231SOL     OW 1444   1.127   1.341   3.552
  231SOL    HW1 1445   1.174   1.341   3.640
  231SOL    HW2 1446   1.079   1.254   3.541
  232SOL     OW 1447   0.230   1.434   2.400
  232SOL    HW1 1448   0.204   1.530   2.400
  232SOL    HW2 1449   0.159   1.380   2.445
  233SOL     OW 1450   0.240   1.091   2.748
  233SOL    HW1 1451   0.254   1.007   2.800
  233SOL    HW2 1452   0.185   1.155   2.803
  234SOL     OW 1453   0.620   1.786   3.301
  234SOL    HW1 1454   0.528   1.769   3.336
  234SOL    HW2 1455   0.648   1.878   3.327
  235SOL     OW 1456   0.606   0.964   1.985
  235SOL    HW1 1457   0.613   1.048   1.931
  235SOL    HW2 1458   0.652   0.977   2.073
  236SOL     OW 1459   1.594   0.114   3.342
  236SOL    HW1 1460   1.576   0.181   3.270
  236SOL    HW2 1461   1.591   0.160   3.431
  237SOL     OW 1462   0.122   0.643   2.425
  237SOL    HW1 1463   0.077   0.555   2.442
  237SOL    HW2 1464   0.121   0.697   2.509
  238SOL     OW 1465   1.842   1.767   2.221
  238SOL    HW1 1466   1.896   1.738   2.301
  238SOL    HW2 1467   1.872   1.857   2.192
  239SOL     OW 1468   0.027   1.596   1.979
  239SOL    HW1 1469   0.008   1.500   2.000
  239SOL    HW2 1470  -0.006   1.654   2.054
  240SOL     OW 1471   1.689   0.922   2.474
  240SOL    HW1 1472   1.784   0.893   2.482
  240SOL    HW2 1473   1.681   0.987   2.399
  241SOL     OW 1474   1.641   1.108   2.294
  241SOL    HW1 1475   1.727   1.110   2.242
  241SOL    HW2 1476   1.655   1.155   2.382
  242SOL     OW 1477   0.113   0.737   3.459
  242SOL    HW1 1478   0.201   0.724   3.504
  242SOL    HW2 1479   0.100   0.834   3.437
  243SOL     OW 1480   0.613   1.365   2.588
  243SOL    HW1 1481   0.564   1.278   2.597
  243SOL    HW2 1482   0.590   1.408   2.501
  244SOL     OW 1483   1.293   1.228   3.285
  244SOL    HW1 1484   1.330   1.155   3.227
  244SOL    HW2 1485   1.345   1.233   3.370
  245SOL     OW 1486   0.809   0.004   2.364
  245SOL    HW1 1487   0.849   0.095   2.355
  245SOL    HW2 1488   0.709   0.012   2.370
  246SOL     OW 1489   0.197   0.976   3.126
  246SOL    HW1 1490   0.286   0.931   3.112
  246SOL    HW2 1491   0.124   0.911   3.107
  247SOL     OW 1492   1.525   0.999   2.052
  247SOL    HW1 1493   1.462   0.923   2.065
  247SOL    HW2 1494   1.573   1.017   2.138
  248SOL     OW 1495   1.187   1.792   3.478
  248SOL    HW1 1496   1.211   1.852   3.402
  248SOL    HW2 1497   1.194   1.697   3.448
  249SOL     OW 1498   0.317   0.251   3.663
  249SOL    HW1 1499   0.388   0.322   3.669
  249SOL    HW2 1500   0.229   0.290   3.691
  250SOL     OW 1501   1.466   1.417   2.815
  250SOL    HW1 1502   1.407   1.423   2.895
  250SOL    HW2 1503   1.451   1.329   2.769
  251SOL     OW 1504   1.667   1.714   2.434
  251SOL    HW1 1505   1.626   1.691   2.346
  251SOL    HW2 1506   1.649   1.640   2.499
  252SOL     OW 1507   0.598   0.729   2.132
  252SOL    HW1 1508   0.622   0.798   2.064
  252SOL    HW2 1509   0.520   0.762   2.186
  253SOL     OW 1510   1.281   0.345   2.806
  253SOL    HW1 1511   1.195   0.295   2.793
  253SOL    HW2 1512   1.343   0.291   2.862
  254SOL     OW 1513   1.576   1.662   2.169
  254SOL    HW1 1514   1.665   1.708   2.172
  254SOL    HW2 1515   1.555   1.638   2.074
  255SOL     OW 1516   0.807   0.605   3.327
  255SOL    HW1 1517   0.760   0.602   3.416
  255SOL    HW2 1518   0.756   0.550   3.261
  256SOL     OW 1519   1.394   0.469   3.536
  256SOL    HW1 1520   1.374   0.512   3.624
  256SOL    HW2 1521   1.472   0.407   3.545
  257SOL     OW 1522   0.973   0.890   3.434
  257SOL    HW1 1523   1.019   0.806   3.405
  257SOL    HW2 1524   0.917   0.924   3.359
  258SOL     OW 1525   0.991   0.410   3.104
  258SOL    HW1 1526   0.914   0.444   3.158
  258SOL    HW2 1527   0.957   0.359   3.025
  259SOL     OW 1528   1.041   0.701   2.291
  259SOL    HW1 1529   1.067   0.697   2.387
  259SOL    HW2 1530   0.956   0.650   2.277
  260SOL     OW 1531   0.076   0.811   2.651
  260SOL    HW1 1532   0.175   0.799   2.660
  260SOL    HW2 1533   0.052   0.906   2.672
  261SOL     OW 1534   0.130   1.821   3.433
  261SOL    HW1 1535   0.120   1.806   3.532
  261SOL    HW2 1536   0.044   1.857   3.397
  262SOL     OW 1537   0.865   0.348   2.057
  262SOL    HW1 1538   0.924   0.411   2.008
  262SOL    HW2 1539   0.884   0.254   2.028
  263SOL     OW 1540   1.719   0.585   3.693
  263SOL    HW1 1541   1.693   0.674   3.657
  263SOL    HW2 1542   1.717   0.517   3.620
  264SOL     OW 1543   1.362   1.144   2.407
  264SOL    HW1 1544   1.445   1.115   2.359
  264SOL    HW2 1545   1.313   1.211   2.351
  265SOL     OW 1546   0.550   0.196   2.747
  265SOL    HW1 1547   0.545   0.191   2.847
  265SOL    HW2 1548   0.552   0.292   2.718
  266SOL     OW 1549   1.008   1.456   2.339
  266SOL    HW1 1550   0.962   1.528   2.287
  266SOL    HW2 1551   1.004   1.476   2.437
  267SOL     OW 1552   0.351   1.801   2.715
  267SOL    HW1 1553   0.401   1.715   2.721
  267SOL    HW2 1554   0.416   1.878   2.712
  268SOL     OW 1555   1.795   1.066   2.735
  268SOL    HW1 1556   1.733   1.051   2.659
  268SOL    HW2 1557   1.743   1.077   2.820
  269SOL     OW 1558   1.227   1.550   3.368
  269SOL    HW1 1559   1.233   1.473   3.432
  269SOL    HW2 1560   1.175   1.524   3.288
  270SOL     OW 1561   0.321   0.943   2.104
  270SOL    HW1 1562   0.403   0.982   2.062
  270SOL    HW2 1563   0.294   0.861   2.055
  271SOL     OW 1564   1.458   0.735   2.590
  271SOL    HW1 1565   1.453   0.670   2.665
  271SOL    HW2 1566   1.538   0.794   2.603
  272SOL     OW 1567   0.461   1.266   3.589
  272SOL    HW1 1568   0.411   1.267   3.503
  272SOL    HW2 1569   0.398   1.248   3.665
  273SOL     OW 1570   1.111   1.776   2.099
  273SOL    HW1 1571   1.051   1.714   2.149
  273SOL    HW2 1572   1.142   1.732   2.014
  274SOL     OW 1573   0.202   0.285   3.360
  274SOL    HW1 1574   0.122   0.345   3.347
  274SOL    HW2 1575   0.192   0.236   3.446
  275SOL     OW 1576   1.632   1.377   1.943
  275SOL    HW1 1577   1.600   1.471   1.933
  275SOL    HW2 1578   1.556   1.314   1.931
  276SOL     OW 1579   0.464   1.743   2.185
  276SOL    HW1 1580   0.497   1.782   2.271
  276SOL    HW2 1581   0.540   1.736   2.120
  277SOL     OW 1582   1.400   0.107   2.288
  277SOL    HW1 1583   1.376   0.070   2.198
  277SOL    HW2 1584   1.499   0.123   2.292
  278SOL     OW 1585   0.249   1.785   3.103
  278SOL    HW1 1586   0.306   1.720   3.153
  278SOL    HW2 1587   0.233   1.752   3.010
  279SOL     OW 1588   0.940   1.698   2.766
  279SOL    HW1 1589   1.020   1.641   2.787
  279SOL    HW2 1590   0.891   1.658   2.689
  280SOL     OW 1591   0.382   0.700   2.342
  280SOL    HW1 1592   0.427   0.610   2.339
  280SOL    HW2 1593   0.288   0.689   2.375
  281SOL     OW 1594   1.547   0.222   3.591
  281SOL    HW1 1595   1.542   0.259   3.683
  281SOL    HW2 1596   1.475   0.153   3.579
  282SOL     OW 1597   0.614   0.122   1.979
  282SOL    HW1 1598   0.712   0.100   1.986
  282SOL    HW2 1599   0.583   0.105   1.886
  283SOL     OW 1600   0.781   0.264   3.611
  283SOL    HW1 1601   0.848   0.203   3.654
  283SOL    HW2 1602   0.708   0.283   3.676
  284SOL     OW 1603   0.888   1.514   3.057
  284SOL    HW1 1604   0.865   1.489   2.963
  284SOL    HW2 1605   0.949   1.445   3.096
  285SOL     OW 1606   1.351   0.590   3.295
  285SOL    HW1 1607   1.379   0.547   3.380
  285SOL    HW2 1608   1.376   0.686   3.296
  286SOL     OW 1609   0.803   1.402   2.786
  286SOL    HW1 1610   0.893   1.416   2.744
  286SOL    HW2 1611   0.732   1.404   2.715
  287SOL     OW 1612   0.922   0.503   2.761
  287SOL    HW1 1613   0.897   0.494   2.665
  287SOL    HW2 1614   0.970   0.421   2.792
  288SOL     OW 1615   0.539   0.064   2.374
  288SOL    HW1 1616   0.458   0.065   2.432
  288SOL    HW2 1617   0.542   0.147   2.319
  289SOL     OW 1618   1.434   1.188   1.903
  289SOL    HW1 1619   1.466   1.112   1.960
  289SOL    HW2 1620   1.342   1.215   1.933
  290SOL     OW 1621   0.297   0.035   2.033
  290SOL    HW1 1622   0.346   0.119   2.012
  290SOL    HW2 1623   0.359  -0.030   2.078
  291SOL     OW 1624   0.935   0.236   2.342
  291SOL    HW1 1625   0.887   0.277   2.264
  291SOL    HW2 1626   1.034   0.234   2.323
  292SOL     OW 1627   1.076   0.683   3.326
  292SOL    HW1 1628   0.996   0.622   3.329
  292SOL    HW2 1629   1.157   0.630   3.302
  293SOL     OW 1630   1.227   1.570   2.655
  293SOL    HW1 1631   1.248   1.644   2.590
  293SOL    HW2 1632   1.295   1.570   2.728
  294SOL     OW 1633   0.459   1.152   2.603
  294SOL    HW1 1634   0.388   1.125   2.668
  294SOL    HW2 1635   0.433   1.124   2.510
  295SOL     OW 1636   1.271   1.797   2.453
  295SOL    HW1 1637   1.315   1.861   2.389
  295SOL    HW2 1638   1.221   1.849   2.523
  296SOL     OW 1639   1.032   0.549   1.878
  296SOL    HW1 1640   0.991   0.631   1.839
  296SOL    HW2 1641   1.096   0.575   1.951
  297SOL     OW 1642   0.078   0.556   3.248
  297SOL    HW1 1643   0.170   0.555   3.207
  297SOL    HW2 1644   0.072   0.630   3.315
  298SOL     OW 1645   0.561   0.222   3.009
  298SOL    HW1 1646   0.599   0.138   3.046
  298SOL    HW2 1647   0.473   0.241   3.053
  299SOL     OW 1648   0.866   0.454   2.504
  299SOL    HW1 1649   0.834   0.526   2.442
  299SOL    HW2 1650   0.890   0.373   2.451
  300SOL     OW 1651   1.017   0.039   2.615
  300SOL    HW1 1652   0.945   0.044   2.546
  300SOL    HW2 1653   0.993  -0.030   2.684
  301SOL     OW 1654   1.429   1.173   2.729
  301SOL    HW1 1655   1.374   1.089   2.722
  301SOL    HW2 1656   1.455   1.202   2.637
  302SOL     OW 1657   1.466   0.590   2.854
  302SOL    HW1 1658   1.436   0.495   2.861
  302SOL    HW2 1659   1.539   0.606   2.920
  303SOL     OW 1660   1.857   0.833   2.239
  303SOL    HW1 1661   1.899   0.769   2.303
  303SOL    HW2 1662   1.819   0.782   2.161
  304SOL     OW 1663   0.488   1.385   2.036
  304SOL    HW1 1664   0.401   1.370   2.083
  304SOL    HW2 1665   0.471   1.411   1.941
  305SOL     OW 1666   1.664   1.280   2.519
  305SOL    HW1 1667   1.763   1.288   2.533
  305SOL    HW2 1668   1.619   1.364   2.550
  306SOL     OW 1669   1.390   0.575   1.940
  306SOL    HW1 1670   1.336   0.554   2.021
  306SOL    HW2 1671   1.481   0.534   1.949
  307SOL     OW 1672   0.527   0.256   2.190
  307SOL    HW1 1673   0.554   0.197   2.115
  307SOL    HW2 1674   0.527   0.351   2.159
  308SOL     OW 1675   1.754   1.223   3.450
  308SOL    HW1 1676   1.845   1.184   3.437
  308SOL    HW2 1677   1.762   1.319   3.474
  309SOL     OW 1678   1.064   1.347   3.202
  309SOL    HW1 1679   0.984   1.324   3.257
  309SOL    HW2 1680   1.147   1.321   3.251
  310SOL     OW 1681   1.592   1.629   3.487
  310SOL    HW1 1682   1.619   1.663   3.397
  310SOL    HW2 1683   1.671   1.591   3.533
  311SOL     OW 1684   1.111   1.195   2.962
  311SOL    HW1 1685   1.071   1.239   3.043
  311SOL    HW2 1686   1.070   1.232   2.879
  312SOL     OW 1687   1.638   1.099   2.941
  312SOL    HW1 1688   1.643   1.180   3.000
  312SOL    HW2 1689   1.552   1.101   2.890
  313SOL     OW 1690   0.915   0.089   3.264
  313SOL    HW1 1691   0.940   0.069   3.169
  313SOL    HW2 1692   0.987   0.145   3.306
  314SOL     OW 1693   0.980   1.116   3.581
  314SOL    HW1 1694   0.881   1.122   3.591
  314SOL    HW2 1695   1.003   1.036   3.525
  315SOL     OW 1696   0.705   1.050   2.230
  315SOL    HW1 1697   0.691   1.057   2.329
  315SOL    HW2 1698   0.789   0.999   2.212
  316SOL     OW 1699   0.410   0.813   3.113
  316SOL    HW1 1700   0.496   0.825   3.163
  316SOL    HW2 1701   0.368   0.726   3.140
  317SOL     OW 1702   1.274   0.386   3.124
  317SOL    HW1 1703   1.295   0.460   3.188
  317SOL    HW2 1704   1.185   0.403   3.081
  318SOL     OW 1705   0.064   1.564   3.193
  318SOL    HW1 1706   0.018   1.646   3.159
  318SOL    HW2 1707   0.162   1.583   3.202
  319SOL     OW 1708   0.367   1.100   2.363
  319SOL    HW1 1709   0.360   1.183   2.307
  319SOL    HW2 1710   0.371   1.020   2.303
  320SOL     OW 1711   0.566   0.537   2.727
  320SOL    HW1 1712   0.578   0.603   2.653
  320SOL    HW2 1713   0.612   0.571   2.810
  321SOL     OW 1714   1.252   1.348   2.250
  321SOL    HW1 1715   1.302   1.425   2.290
  321SOL    HW2 1716   1.157   1.350   2.282
  322SOL     OW 1717   1.272   1.445   3.004
  322SOL    HW1 1718   1.319   1.458   3.091
  322SOL    HW2 1719   1.206   1.371   3.013
  323SOL     OW 1720   1.582   0.639   2.334
  323SOL    HW1 1721   1.551   0.700   2.407
  323SOL    HW2 1722   1.632   0.691   2.265
  324SOL     OW 1723   0.354   1.510   3.191
  324SOL    HW1 1724   0.333   1.466   3.104
  324SOL    HW2 1725   0.451   1.536   3.194
  325SOL     OW 1726   0.402   0.751   3.460
  325SOL    HW1 1727   0.470   0.806   3.413
  325SOL    HW2 1728   0.442   0.663   3.487
  326SOL     OW 1729   1.587   0.779   3.532
  326SOL    HW1 1730   1.495   0.817   3.527
  326SOL    HW2 1731   1.647   0.826   3.467
  327SOL     OW 1732   1.013   0.105   3.632
  327SOL    HW1 1733   1.019   0.190   3.580
  327SOL    HW2 1734   1.045   0.029   3.575
  328SOL     OW 1735   0.504   0.050   3.602
  328SOL    HW1 1736   0.462  -0.007   3.532
  328SOL    HW2 1737   0.438   0.119   3.634
  329SOL     OW 1738   0.573   0.870   2.891
  329SOL    HW1 1739   0.617   0.959   2.882
  329SOL    HW2 1740   0.510   0.870   2.968
  330SOL     OW 1741   1.360   0.862   2.907
  330SOL    HW1 1742   1.285   0.862   2.841
  330SOL    HW2 1743   1.397   0.770   2.916
  331SOL     OW 1744   1.209   0.525   2.137
  331SOL    HW1 1745   1.222   0.441   2.191
  331SOL    HW2 1746   1.180   0.599   2.197
  332SOL     OW 1747   0.307   0.213   3.093
  332SOL    HW1 1748   0.284   0.250   3.183
  332SOL    HW2 1749   0.277   0.118   3.087
  333SOL     OW 1750   0.037   1.310   3.144
  333SOL    HW1 1751   0.090   1.261   3.212
  333SOL    HW2 1752   0.059   1.408   3.149
  334SOL     OW 1753   0.732   0.634   2.926
  334SOL    HW1 1754   0.791   0.608   2.850
  334SOL    HW2 1755   0.704   0.730   2.915
  335SOL     OW 1756   1.728   0.935   3.716
  335SOL    HW1 1757   1.682   0.928   3.627
  335SOL    HW2 1758   1.666   0.979   3.782
  336SOL     OW 1759   0.307   0.063   2.480
  336SOL    HW1 1760   0.296   0.157   2.513
  336SOL    HW2 1761   0.302   0.000   2.557
  337SOL     OW 1762   1.622   0.367   2.236
  337SOL    HW1 1763   1.624   0.291   2.300
  337SOL    HW2 1764   1.574   0.444   2.276
  338SOL     OW 1765   1.023   0.766   2.828
  338SOL    HW1 1766   1.038   0.787   2.924
  338SOL    HW2 1767   0.993   0.671   2.819
  339SOL     OW 1768   0.980   1.573   3.562
  339SOL    HW1 1769   0.960   1.617   3.474
  339SOL    HW2 1770   1.019   1.482   3.546
  340SOL     OW 1771   1.859   1.518   3.467
  340SOL    HW1 1772   1.873   1.545   3.372
  340SOL    HW2 1773   1.942   1.540   3.520
  341SOL     OW 1774   0.350   0.898   3.666
  341SOL    HW1 1775   0.426   0.942   3.714
  341SOL    HW2 1776   0.385   0.851   3.584
  342SOL     OW 1777   1.540   0.274   1.987
  342SOL    HW1 1778   1.479   0.199   2.010
  342SOL    HW2 1779   1.562   0.326   2.070
  343SOL     OW 1780   1.303   0.838   1.904
  343SOL    HW1 1781   1.337   0.745   1.919
  343SOL    HW2 1782   1.321   0.865   1.809
  344SOL     OW 1783   1.068   1.333   2.711
  344SOL    HW1 1784   1.075   1.249   2.656
  344SOL    HW2 1785   1.130   1.402   2.675
  345SOL     OW 1786   0.319   0.810   2.811
  345SOL    HW1 1787   0.412   0.846   2.816
  345SOL    HW2 1788   0.313   0.725   2.863
  346SOL     OW 1789   0.339   0.509   2.868
  346SOL    HW1 1790   0.287   0.426   2.851
  346SOL    HW2 1791   0.416   0.514   2.804
  347SOL     OW 1792   1.138   0.380   3.540
  347SOL    HW1 1793   1.093   0.443   3.604
  347SOL    HW2 1794   1.231   0.411   3.523
  348SOL     OW 1795   1.160   0.207   3.339
  348SOL    HW1 1796   1.160   0.271   3.416
  348SOL    HW2 1797   1.188   0.255   3.256
  349SOL     OW 1798   0.008   1.326   2.062
  349SOL    HW1 1799  -0.085   1.347   2.031
  349SOL    HW2 1800   0.018   1.227   2.075
  350SOL     OW 1801   0.088   1.801   2.789
  350SOL    HW1 1802   0.046   1.715   2.762
  350SOL    HW2 1803   0.182   1.804   2.755
  351SOL     OW 1804   0.504   1.568   2.772
  351SOL    HW1 1805   0.570   1.642   2.781
  351SOL    HW2 1806   0.548   1.489   2.730
  352SOL     OW 1807   1.002   0.796   3.100
  352SOL    HW1 1808   1.043   0.764   3.186
  352SOL    HW2 1809   0.906   0.769   3.097
  353SOL     OW 1810   0.040   0.544   2.976
  353SOL    HW1 1811   0.125   0.511   2.935
  353SOL    HW2 1812   0.053   0.559   3.074
  354SOL     OW 1813   0.189   0.520   3.584
  354SOL    HW1 1814   0.248   0.480   3.514
  354SOL    HW2 1815   0.131   0.591   3.543
  355SOL     OW 1816   1.369   0.950   3.522
  355SOL    HW1 1817   1.408   1.039   3.542
  355SOL    HW2 1818   1.379   0.930   3.425
  356SOL     OW 1819   0.815   0.572   2.187
  356SOL    HW1 1820   0.822   0.483   2.141
  356SOL    HW2 1821   0.721   0.606   2.179
  357SOL     OW 1822   1.657   0.604   3.068
  357SOL    HW1 1823   1.619   0.535   3.130
  357SOL    HW2 1824   1.739   0.568   3.024
  358SOL     OW 1825   0.252   1.564   3.606
  358SOL    HW1 1826   0.222   1.621   3.682
  358SOL    HW2 1827   0.245   1.467   3.632
  359SOL     OW 1828   0.671   0.464   3.131
  359SOL    HW1 1829   0.637   0.375   3.101
  359SOL    HW2 1830   0.697   0.518   3.051
  360SOL     OW 1831   0.930   1.678   3.327
  360SOL    HW1 1832   0.906   1.660   3.232
  360SOL    HW2 1833   0.960   1.772   3.337
  361SOL     OW 1834   0.473   0.500   2.053
  361SOL    HW1 1835   0.534   0.580   2.057
  361SOL    HW2 1836   0.378   0.531   2.060
  362SOL     OW 1837   0.159   1.137   3.328
  362SOL    HW1 1838   0.181   1.076   3.404
  362SOL    HW2 1839   0.169   1.088   3.242
  363SOL     OW 1840   1.347   1.059   3.096
  363SOL    HW1 1841   1.371   0.996   3.022
  363SOL    HW2 1842   1.257   1.099   3.078
  364SOL     OW 1843   1.302   0.855   2.171
  364SOL    HW1 1844   1.216   0.824   2.213
  364SOL    HW2 1845   1.298   0.841   2.072
  365SOL     OW 1846   1.759   1.747   3.016
  365SOL    HW1 1847   1.820   1.777   2.943
  365SOL    HW2 1848   1.721   1.658   2.994
  366SOL     OW 1849   1.252   1.731   2.990
  366SOL    HW1 1850   1.336   1.736   2.936
  366SOL    HW2 1851   1.229   1.635   3.008
  367SOL     OW 1852   0.083   1.258   2.884
  367SOL    HW1 1853   0.078   1.257   2.984
  367SOL    HW2 1854   0.000   1.217   2.846
  368SOL     OW 1855   0.688   1.662   3.578
  368SOL    HW1 1856   0.632   1.743   3.587
  368SOL    HW2 1857   0.740   1.666   3.492
  369SOL     OW 1858   1.726   0.135   2.385
  369SOL    HW1 1859   1.799   0.118   2.318
  369SOL    HW2 1860   1.695   0.048   2.423
  370SOL     OW 1861   1.388   1.573   2.339
  370SOL    HW1 1862   1.455   1.585   2.265
  370SOL    HW2 1863   1.348   1.662   2.362
  371SOL     OW 1864   0.130   1.794   3.713
  371SOL    HW1 1865   0.089   1.720   3.766
  371SOL    HW2 1866   0.194   1.845   3.771
  372SOL     OW 1867   1.280   0.927   2.534
  372SOL    HW1 1868   1.340   0.846   2.536
  372SOL    HW2 1869   1.320   0.996   2.474
  373SOL     OW 1870   0.830   1.273   3.284
  373SOL    HW1 1871   0.825   1.306   3.379
  373SOL    HW2 1872   0.744   1.292   3.238
  374SOL     OW 1873   0.672   1.616   2.016
  374SOL    HW1 1874   0.681   1.626   1.917
  374SOL    HW2 1875   0.632   1.527   2.037
  375SOL     OW 1876   1.650   1.720   3.256
  375SOL    HW1 1877   1.703   1.730   3.172
  375SOL    HW2 1878   1.623   1.810   3.290
  376SOL     OW 1879   1.841   0.175   2.825
  376SOL    HW1 1880   1.880   0.090   2.789
  376SOL    HW2 1881   1.743   0.177   2.806
  377SOL     OW 1882   0.263   0.326   2.582
  377SOL    HW1 1883   0.184   0.377   2.548
  377SOL    HW2 1884   0.254   0.311   2.680
  378SOL     OW 1885   1.194   1.612   1.893
  378SOL    HW1 1886   1.200   1.519   1.930
  378SOL    HW2 1887   1.135   1.612   1.813
  379SOL     OW 1888   0.822   1.002   3.234
  379SOL    HW1 1889   0.862   1.001   3.142
  379SOL    HW2 1890   0.832   1.094   3.274
  380SOL     OW 1891   0.916   0.910   2.153
  380SOL    HW1 1892   0.979   0.948   2.085
  380SOL    HW2 1893   0.956   0.827   2.192
  381SOL     OW 1894   1.504   1.607   1.906
  381SOL    HW1 1895   1.412   1.644   1.913
  381SOL    HW2 1896   1.542   1.627   1.816
  382SOL     OW 1897   0.372   1.288   3.352
  382SOL    HW1 1898   0.359   1.381   3.318
  382SOL    HW2 1899   0.288   1.236   3.339
  383SOL     OW 1900   1.614   1.292   3.151
  383SOL    HW1 1901   1.674   1.295   3.231
  383SOL    HW2 1902   1.539   1.356   3.164
  384SOL     OW 1903   1.039   1.098   2.558
  384SOL    HW1 1904   0.969   1.051   2.612
  384SOL    HW2 1905   1.098   1.030   2.515
  385SOL     OW 1906   1.014   0.236   2.833
  385SOL    HW1 1907   1.006   0.200   2.740
  385SOL    HW2 1908   1.012   0.160   2.898
  386SOL     OW 1909   0.590   1.487   2.353
  386SOL    HW1 1910   0.632   1.429   2.283
  386SOL    HW2 1911   0.546   1.566   2.309
  387SOL     OW 1912   1.709   0.385   3.243
  387SOL    HW1 1913   1.782   0.454   3.247
  387SOL    HW2 1914   1.737   0.310   3.184
  388SOL     OW 1915   0.255   1.348   2.152
  388SOL    HW1 1916   0.159   1.349   2.125
  388SOL    HW2 1917   0.267   1.401   2.236
  389SOL     OW 1918   0.105   1.013   3.588
  389SOL    HW1 1919   0.028   0.980   3.642
  389SOL    HW2 1920   0.190   0.983   3.630
  390SOL     OW 1921   0.672   0.203   3.351
  390SOL    HW1 1922   0.762   0.187   3.311
  390SOL    HW2 1923   0.680   0.208   3.450
  391SOL     OW 1924   0.075   0.345   1.895
  391SOL    HW1 1925  -0.017   0.317   1.866
  391SOL    HW2 1926   0.106   0.422   1.839
  392SOL     OW 1927   1.440   0.856   3.260
  392SOL    HW1 1928   1.383   0.908   3.197
  392SOL    HW2 1929   1.536   0.868   3.236
  393SOL     OW 1930   0.072   0.166   2.180
  393SOL    HW1 1931   0.055   0.249   2.126
  393SOL    HW2 1932   0.162   0.129   2.158
  394SOL     OW 1933   1.183   1.335   1.981
  394SOL    HW1 1934   1.084   1.324   1.983
  394SOL    HW2 1935   1.217   1.350   2.074
  395SOL     OW 1936   0.613   0.842   3.293
  395SOL    HW1 1937   0.669   0.923   3.276
  395SOL    HW2 1938   0.672   0.762   3.296
  396SOL     OW 1939   1.493   1.767   2.821
  396SOL    HW1 1940   1.526   1.831   2.752
  396SOL    HW2 1941   1.559   1.761   2.896
  397SOL     OW 1942   0.716   0.565   3.570
  397SOL    HW1 1943   0.735   0.630   3.644
  397SOL    HW2 1944   0.776   0.485   3.579
  398SOL     OW 1945   1.450   1.220   3.495
  398SOL    HW1 1946   1.441   1.210   3.594
  398SOL    HW2 1947   1.546   1.213   3.469
  399SOL     OW 1948   0.390   1.741   3.422
  399SOL    HW1 1949   0.299   1.782   3.420
  399SOL    HW2 1950   0.383   1.647   3.454
  400SOL     OW 1951   1.674   0.883   3.116
  400SOL    HW1 1952   1.647   0.794   3.079
  400SOL    HW2 1953   1.675   0.951   3.043
  401SOL     OW 1954   1.225   0.325   2.311
  401SOL    HW1 1955   1.290   0.251   2.300
  401SOL    HW2 1956   1.245   0.375   2.395
  402SOL     OW 1957   0.594   0.745   2.514
  402SOL    HW1 1958   0.644   0.830   2.495
  402SOL    HW2 1959   0.506   0.747   2.466
  403SOL     OW 1960   1.777   0.342   3.504
  403SOL    HW1 1961   1.760   0.373   3.410
  403SOL    HW2 1962   1.693   0.305   3.542
  404SOL     OW 1963   1.730   0.934   3.379
  404SOL    HW1 1964   1.768   1.025   3.394
  404SOL    HW2 1965   1.722   0.917   3.280
  405SOL     OW 1966   0.859   1.374   1.878
  405SOL    HW1 1967   0.813   1.389   1.966
  405SOL    HW2 1968   0.903   1.459   1.848
  406SOL     OW 1969   0.661   1.790   2.815
  406SOL    HW1 1970   0.615   1.878   2.802
  406SOL    HW2 1971   0.760   1.802   2.808
  407SOL     OW 1972   0.859   0.956   2.723
  407SOL    HW1 1973   0.913   0.887   2.771
  407SOL    HW2 1974   0.827   1.025   2.789
  408SOL     OW 1975   1.083   0.984   1.949
  408SOL    HW1 1976   1.060   1.037   1.867
  408SOL    HW2 1977   1.164   0.928   1.930
  409SOL     OW 1978   1.861   1.569   2.713
  409SOL    HW1 1979   1.790   1.557   2.643
  409SOL    HW2 1980   1.862   1.490   2.773
  410SOL     OW 1981   0.221   1.314   3.706
  410SOL    HW1 1982   0.156   1.241   3.685
  410SOL    HW2 1983   0.225   1.328   3.804
  411SOL     OW 1984   0.079   1.240   2.515
  411SOL    HW1 1985   0.078   1.193   2.603
  411SOL    HW2 1986   0.161   1.212   2.464
  412SOL     OW 1987   0.672   1.391   3.486
  412SOL    HW1 1988   0.594   1.341   3.524
  412SOL    HW2 1989   0.669   1.486   3.517
  413SOL     OW 1990   1.824   0.192   3.089
  413SOL    HW1 1991   1.820   0.102   3.133
  413SOL    HW2 1992   1.827   0.181   2.990
  414SOL     OW 1993   0.428   0.424   2.382
  414SOL    HW1 1994   0.458   0.352   2.320
  414SOL    HW2 1995   0.389   0.384   2.465
  415SOL     OW 1996   1.705   1.487   2.966
  415SOL    HW1 1997   1.612   1.462   2.939
  415SOL    HW2 1998   1.731   1.437   3.048
  416SOL     OW 1999   0.317   0.547   3.142
  416SOL    HW1 2000   0.355   0.488   3.214
  416SOL    HW2 2001   0.357   0.521   3.054
  417SOL     OW 2002   0.812   1.586   2.549
  417SOL    HW1 2003   0.844   1.596   2.455
  417SOL    HW2 2004   0.733   1.524   2.551
  418SOL     OW 2005   1.424   0.214   2.974
  418SOL    HW1 2006   1.476   0.149   3.029
  418SOL    HW2 2007   1.375   0.277   3.035
  419SOL     OW 2008   1.001   0.034   3.016
  419SOL    HW1 2009   0.938  -0.038   2.985
  419SOL    HW2 2010   1.094  -0.002   3.016
  420SOL     OW 2011   0.770   1.330   2.163
  420SOL    HW1 2012   0.724   1.243   2.180
  420SOL    HW2 2013   0.861   1.327   2.204
  421SOL     OW 2014   0.618   1.567   3.146
  421SOL    HW1 2015   0.613   1.649   3.203
  421SOL    HW2 2016   0.707   1.564   3.101
  422SOL     OW 2017   1.352   0.052   2.030
  422SOL    HW1 2018   1.387   0.011   1.946
  422SOL    HW2 2019   1.262   0.014   2.050
  423SOL     OW 2020   1.300   0.453   2.553
  423SOL    HW1 2021   1.241   0.533   2.557
  423SOL    HW2 2022   1.315   0.418   2.646
  424SOL     OW 2023   1.593   0.221   2.744
  424SOL    HW1 2024   1.509   0.220   2.798
  424SOL    HW2 2025   1.595   0.304   2.688
  425SOL     OW 2026   0.039   1.077   2.162
  425SOL    HW1 2027   0.138   1.066   2.153
  425SOL    HW2 2028  -0.001   0.991   2.194
  426SOL     OW 2029   0.875   1.646   2.199
  426SOL    HW1 2030   0.798   1.611   2.145
  426SOL    HW2 2031   0.843   1.717   2.261
  427SOL     OW 2032   0.230   0.628   3.837
  427SOL    HW1 2033   0.137   0.626   3.874
  427SOL    HW2 2034   0.231   0.589   3.745
  428SOL     OW 2035   0.225   0.275   4.720
  428SOL    HW1 2036   0.260   0.258   4.812
  428SOL    HW2 2037   0.137   0.230   4.708
  429SOL     OW 2038   0.019   0.368   4.371
  429SOL    HW1 2039  -0.063   0.411   4.410
  429SOL    HW2 2040  -0.009   0.295   4.308
  430SOL     OW 2041   0.569   1.275   4.889
  430SOL    HW1 2042   0.476   1.268   4.852
  430SOL    HW2 2043   0.580   1.364   4.933
  431SOL     OW 2044   1.555   1.511   4.427
  431SOL    HW1 2045   1.498   1.495   4.508
  431SOL    HW2 2046   1.496   1.521   4.347
  432SOL     OW 2047   1.135   0.703   4.441
  432SOL    HW1 2048   1.192   0.781   4.416
  432SOL    HW2 2049   1.075   0.729   4.517
  433SOL     OW 2050   1.755   0.607   3.955
  433SOL    HW1 2051   1.743   0.594   3.856
  433SOL    HW2 2052   1.725   0.526   4.004
  434SOL     OW 2053   0.768   1.144   4.747
  434SOL    HW1 2054   0.690   1.161   4.807
  434SOL    HW2 2055   0.802   1.231   4.711
  435SOL     OW 2056   0.850   0.798   5.547
  435SOL    HW1 2057   0.846   0.874   5.612
  435SOL    HW2 2058   0.872   0.834   5.456
  436SOL     OW 2059   0.685   1.012   4.389
  436SOL    HW1 2060   0.754   0.996   4.459
  436SOL    HW2 2061   0.612   1.069   4.427
  437SOL     OW 2062   0.686   1.161   5.527
  437SOL    HW1 2063   0.746   1.240   5.541
  437SOL    HW2 2064   0.600   1.192   5.486
  438SOL     OW 2065   0.335   1.435   4.785
  438SOL    HW1 2066   0.257   1.404   4.732
  438SOL    HW2 2067   0.393   1.493   4.728
  439SOL     OW 2068   1.460   1.505   5.063
  439SOL    HW1 2069   1.484   1.599   5.089
  439SOL    HW2 2070   1.444   1.451   5.145
  440SOL     OW 2071   0.438   0.392   5.223
  440SOL    HW1 2072   0.520   0.336   5.232
  440SOL    HW2 2073   0.357   0.334   5.227
  441SOL     OW 2074   1.603   0.447   4.461
  441SOL    HW1 2075   1.529   0.493   4.411
  441SOL    HW2 2076   1.654   0.515   4.514
  442SOL     OW 2077   0.231   1.713   4.207
  442SOL    HW1 2078   0.265   1.790   4.261
  442SOL    HW2 2079   0.275   1.713   4.117
  443SOL     OW 2080   1.127   1.341   5.414
  443SOL    HW1 2081   1.174   1.341   5.502
  443SOL    HW2 2082   1.079   1.254   5.403
  444SOL     OW 2083   0.230   1.434   4.262
  444SOL    HW1 2084   0.204   1.530   4.262
  444SOL    HW2 2085   0.159   1.380   4.307
  445SOL     OW 2086   0.240   1.091   4.610
  445SOL    HW1 2087   0.254   1.007   4.662
  445SOL    HW2 2088   0.185   1.155   4.665
  446SOL     OW 2089   0.620   1.786   5.163
  446SOL    HW1 2090   0.528   1.769   5.198
  446SOL    HW2 2091   0.648   1.878   5.189
  447SOL     OW 2092   0.606   0.964   3.847
  447SOL    HW1 2093   0.613   1.048   3.793
  447SOL    HW2 2094   0.652   0.977   3.935
  448SOL     OW 2095   1.594   0.114   5.204
  448SOL    HW1 2096   1.576   0.181   5.132
  448SOL    HW2 2097   1.591   0.160   5.293
  449SOL     OW 2098   0.122   0.643   4.287
  449SOL    HW1 2099   0.077   0.555   4.304
  449SOL    HW2 2100   0.121   0.697   4.371
  450SOL     OW 2101   1.842   1.767   4.083
  450SOL    HW1 2102   1.896   1.738   4.163
  450SOL    HW2 2103   1.872   1.857   4.054
  451SOL     OW 2104   0.027   1.596   3.841
  451SOL    HW1 2105   0.008   1.500   3.862
  451SOL    HW2 2106  -0.006   1.654   3.916
  452SOL     OW 2107   1.689   0.922   4.336
  452SOL    HW1 2108   1.784   0.893   4.344
  452SOL    HW2 2109   1.681   0.987   4.261
  453SOL     OW 2110   1.641   1.108   4.156
  453SOL    HW1 2111   1.727   1.110   4.104
  453SOL    HW2 2112   1.655   1.155   4.244
  454SOL     OW 2113   0.113   0.737   5.321
  454SOL    HW1 2114   0.201   0.724   5.366
  454SOL    HW2 2115   0.100   0.834   5.299
  455SOL     OW 2116   0.613   1.365   4.450
  455SOL    HW1 2117   0.564   1.278   4.459
  455SOL    HW2 2118   0.590   1.408   4.363
  456SOL     OW 2119   1.293   1.228   5.147
  456SOL    HW1 2120   1.330   1.155   5.089
  456SOL    HW2 2121   1.345   1.233   5.232
  457SOL     OW 2122   0.809   0.004   4.226
  457SOL    HW1 2123   0.849   0.095   4.217
  457SOL    HW2 2124   0.709   0.012   4.232
  458SOL     OW 2125   0.197   0.976   4.988
  458SOL    HW1 2126   0.286   0.931   4.974
  458SOL    HW2 2127   0.124   0.911   4.969
  459SOL     OW 2128   1.525   0.999   3.914
  459SOL    HW1 2129   1.462   0.923   3.927
  459SOL    HW2 2130   1.573   1.017   4.000
  460SOL     OW 2131   1.187   1.792   5.340
  460SOL    HW1 2132   1.211   1.852   5.264
  460SOL    HW2 2133   1.194   1.697   5.310
  461SOL     OW 2134   0.317   0.251   5.525
  461SOL    HW1 2135   0.388   0.322   5.531
  461SOL    HW2 2136   0.229   0.290   5.553
  462SOL     OW 2137   1.466   1.417   4.677
  462SOL    HW1 2138   1.407   1.423   4.757
  462SOL    HW2 2139   1.451   1.329   4.631
  463SOL     OW 2140   1.667   1.714   4.296
  463SOL    HW1 2141   1.626   1.691   4.208
  463SOL    HW2 2142   1.649   1.640   4.361
  464SOL     OW 2143   0.598   0.729   3.994
  464SOL    HW1 2144   0.622   0.798   3.926
  464SOL    HW2 2145   0.520   0.762   4.048
  465SOL     OW 2146   1.281   0.345   4.668
  465SOL    HW1 2147   1.195   0.295   4.655
  465SOL    HW2 2148   1.343   0.291   4.724
  466SOL     OW 2149   1.576   1.662   4.031
  466SOL    HW1 2150   1.665   1.708   4.034
  466SOL    HW2 2151   1.555   1.638   3.936
  467SOL     OW 2152   0.807   0.605   5.189
  467SOL    HW1 2153   0.760   0.602   5.278
  467SOL    HW2 2154   0.756   0.550   5.123
  468SOL     OW 2155   1.394   0.469   5.398
  468SOL    HW1 2156   1.374   0.512   5.486
  468SOL    HW2 2157   1.472   0.407   5.407
  469SOL     OW 2158   0.973   0.890   5.296
  469SOL    HW1 2159   1.019   0.806   5.267
  469SOL    HW2 2160   0.917   0.924   5.221
  470SOL     OW 2161   0.991   0.410   4.966
  470SOL    HW1 2162   0.914   0.444   5.020
  470SOL    HW2 2163   0.957   0.359   4.887
  471SOL     OW 2164   1.041   0.701   4.153
  471SOL    HW1 2165   1.067   0.697   4.249
  471SOL    HW2 2166   0.956   0.650   4.139
  472SOL     OW 2167   0.076   0.811   4.513
  472SOL    HW1 2168   0.175   0.799   4.522
  472SOL    HW2 2169   0.052   0.906   4.534
  473SOL     OW 2170   0.130   1.821   5.295
  473SOL    HW1 2171   0.120   1.806   5.394
  473SOL    HW2 2172   0.044   1.857   5.259
  474SOL     OW 2173   0.865   0.348   3.919
  474SOL    HW1 2174   0.924   0.411   3.870
  474SOL    HW2 2175   0.884   0.254   3.890
  475SOL     OW 2176   1.719   0.585   5.555
  475SOL    HW1 2177   1.693   0.674   5.519
  475SOL    HW2 2178   1.717   0.517   5.482
  476SOL     OW 2179   1.362   1.144   4.269
  476SOL    HW1 2180   1.445   1.115   4.221
  476SOL    HW2 2181   1.313   1.211   4.213
  477SOL     OW 2182   0.550   0.196   4.609
  477SOL    HW1 2183   0.545   0.191   4.709
  477SOL    HW2 2184   0.552   0.292   4.580
  478SOL     OW 2185   1.008   1.456   4.201
  478SOL    HW1 2186   0.962   1.528   4.149
  478SOL    HW2 2187   1.004   1.476   4.299
  479SOL     OW 2188   0.351   1.801   4.577
  479SOL    HW1 2189   0.401   1.715   4.583
  479SOL    HW2 2190   0.416   1.878   4.574
  480SOL     OW 2191   1.795   1.066   4.597
  480SOL    HW1 2192   1.733   1.051   4.521
  480SOL    HW2 2193   1.743   1.077   4.682
  481SOL     OW 2194   1.227   1.550   5.230
  481SOL    HW1 2195   1.233   1.473   5.294
  481SOL    HW2 2196   1.175   1.524   5.150
  482SOL     OW 2197   0.321   0.943   3.966
  482SOL    HW1 2198   0.403   0.982   3.924
  482SOL    HW2 2199   0.294   0.861   3.917
  483SOL     OW 2200   1.458   0.735   4.452
  483SOL    HW1 2201   1.453   0.670   4.527
  483SOL    HW2 2202   1.538   0.794   4.465
  484SOL     OW 2203   0.461   1.266   5.451
  484SOL    HW1 2204   0.411   1.267   5.365
  484SOL    HW2 2205   0.398   1.248   5.527
  485SOL     OW 2206   1.111   1.776   3.961
  485SOL    HW1 2207   1.051   1.714   4.011
  485SOL    HW2 2208   1.142   1.732   3.876
  486SOL     OW 2209   0.202   0.285   5.222
  486SOL    HW1 2210   0.122   0.345   5.209
  486SOL    HW2 2211   0.192   0.236   5.308
  487SOL     OW 2212   1.632   1.377   3.805
  487SOL    HW1 2213   1.600   1.471   3.795
  487SOL    HW2 2214   1.556   1.314   3.793
  488SOL     OW 2215   0.464   1.743   4.047
  488SOL    HW1 2216   0.497   1.782   4.133
  488SOL    HW2 2217   0.540   1.736   3.982
  489SOL     OW 2218   1.400   0.107   4.150
  489SOL    HW1 2219   1.376   0.070   4.060
  489SOL    HW2 2220   1.499   0.123   4.154
  490SOL     OW 2221   0.249   1.785   4.965
  490SOL    HW1 2222   0.306   1.720   5.015
  490SOL    HW2 2223   0.233   1.752   4.872
  491SOL     OW 2224   0.940   1.698   4.628
  491SOL    HW1 2225   1.020   1.641   4.649
  491SOL    HW2 2226   0.891   1.658   4.551
  492SOL     OW 2227   0.382   0.700   4.204
  492SOL    HW1 2228   0.427   0.610   4.201
  492SOL    HW2 2229   0.288   0.689   4.237
  493SOL     OW 2230   1.547   0.222   5.453
  493SOL    HW1 2231   1.542   0.259   5.545
  493SOL    HW2 2232   1.475   0.153   5.441
  494SOL     OW 2233   0.614   0.122   3.841
  494SOL    HW1 2234   0.712   0.100   3.848
  494SOL    HW2 2235   0.583   0.105   3.748
  495SOL     OW 2236   0.781   0.264   5.473
  495SOL    HW1 2237   0.848   0.203   5.516
  495SOL    HW2 2238   0.708   0.283   5.538
  496SOL     OW 2239   0.888   1.514   4.919
  496SOL    HW1 2240   0.865   1.489   4.825
  496SOL    HW2 2241   0.949   1.445   4.958
  497SOL     OW 2242   1.351   0.590   5.157
  497SOL    HW1 2243   1.379   0.547   5.242
  497SOL    HW2 2244   1.376   0.686   5.158
  498SOL     OW 2245   0.803   1.402   4.648
  498SOL    HW1 2246   0.893   1.416   4.606
  498SOL    HW2 2247   0.732   1.404   4.577
  499SOL     OW 2248   0.922   0.503   4.623
  499SOL    HW1 2249   0.897   0.494   4.527
  499SOL    HW2 2250   0.970   0.421   4.654
  500SOL     OW 2251   0.539   0.064   4.236
  500SOL    HW1 2252   0.458   0.065   4.294
  500SOL    HW2 2253   0.542   0.147   4.181
  501SOL     OW 2254   1.434   1.188   3.765
  501SOL    HW1 2255   1.466   1.112   3.822
  501SOL    HW2 2256   1.342   1.215   3.795
  502SOL     OW 2257   0.297   0.035   3.895
  502SOL    HW1 2258   0.346   0.119   3.874
  502SOL    HW2 2259   0.359  -0.030   3.940
  503SOL     OW 2260   0.935   0.236   4.204
  503SOL    HW1 2261   0.887   0.277   4.126
  503SOL    HW2 2262   1.034   0.234   4.185
  504SOL     OW 2263   1.076   0.683   5.188
  504SOL    HW1 2264   0.996   0.622   5.191
  504SOL    HW2 2265   1.157   0.630   5.164
  505SOL     OW 2266   1.227   1.570   4.517
  505SOL    HW1 2267   1.248   1.644   4.452
  505SOL    HW2 2268   1.295   1.570   4.590
  506SOL     OW 2269   0.459   1.152   4.465
  506SOL    HW1 2270   0.388   1.125   4.530
  506SOL    HW2 2271   0.433   1.124   4.372
  507SOL     OW 2272   1.271   1.797   4.315
  507SOL    HW1 2273   1.315   1.861   4.251
  507SOL    HW2 2274   1.221   1.849   4.385
  508SOL     OW 2275   1.032   0.549   3.740
  508SOL    HW1 2276   0.991   0.631   3.701
  508SOL    HW2 2277   1.096   0.575   3.813
  509SOL     OW 2278   0.078   0.556   5.110
  509SOL    HW1 2279   0.170   0.555   5.069
  509SOL    HW2 2280   0.072   0.630   5.177
  510SOL     OW 2281   0.561   0.222   4.871
  510SOL    HW1 2282   0.599   0.138   4.908
  510SOL    HW2 2283   0.473   0.241   4.915
  511SOL     OW 2284   0.866   0.454   4.366
  511SOL    HW1 2285   0.834   0.526   4.304
  511SOL    HW2 2286   0.890   0.373   4.313
  512SOL     OW 2287   1.017   0.039   4.477
  512SOL    HW1 2288   0.945   0.044   4.408
  512SOL    HW2 2289   0.993  -0.030   4.546
  513SOL     OW 2290   1.429   1.173   4.591
  513SOL    HW1 2291   1.374   1.089   4.584
  513SOL    HW2 2292   1.455   1.202   4.499
  514SOL     OW 2293   1.466   0.590   4.716
  514SOL    HW1 2294   1.436   0.495   4.723
  514SOL    HW2 2295   1.539   0.606   4.782
  515SOL     OW 2296   1.857   0.833   4.101
  515SOL    HW1 2297   1.899   0.769   4.165
  515SOL    HW2 2298   1.819   0.782   4.023
  516SOL     OW 2299   0.488   1.385   3.898
  516SOL    HW1 2300   0.401   1.370   3.945
  516SOL    HW2 2301   0.471   1.411   3.803
  517SOL     OW 2302   1.664   1.280   4.381
  517SOL    HW1 2303   1.763   1.288   4.395
  517SOL    HW2 2304   1.619   1.364   4.412
  518SOL     OW 2305   1.390   0.575   3.802
  518SOL    HW1 2306   1.336   0.554   3.883
  518SOL    HW2 2307   1.481   0.534   3.811
  519SOL     OW 2308   0.527   0.256   4.052
  519SOL    HW1 2309   0.554   0.197   3.977
  519SOL    HW2 2310   0.527   0.351   4.021
  520SOL     OW 2311   1.754   1.223   5.312
  520SOL    HW1 2312   1.845   1.184   5.299
  520SOL    HW2 2313   1.762   1.319   5.336
  521SOL     OW 2314   1.064   1.347   5.064
  521SOL    HW1 2315   0.984   1.324   5.119
  521SOL    HW2 2316   1.147   1.321   5.113
  522SOL     OW 2317   1.592   1.629   5.349
  522SOL    HW1 2318   1.619   1.663   5.259
  522SOL    HW2 2319   1.671   1.591   5.395
  523SOL     OW 2320   1.111   1.195   4.824
  523SOL    HW1 2321   1.071   1.239   4.905
  523SOL    HW2 2322   1.070   1.232   4.741
  524SOL     OW 2323   1.638   1.099   4.803
  524SOL    HW1 2324   1.643   1.180   4.862
  524SOL    HW2 2325   1.552   1.101   4.752
  525SOL     OW 2326   0.915   0.089   5.126
  525SOL    HW1 2327   0.940   0.069   5.031
  525SOL    HW2 2328   0.987   0.145   5.168
  526SOL     OW 2329   0.980   1.116   5.443
  526SOL    HW1 2330   0.881   1.122   5.453
  526SOL    HW2 2331   1.003   1.036   5.387
  527SOL     OW 2332   0.705   1.050   4.092
  527SOL    HW1 2333   0.691   1.057   4.191
  527SOL    HW2 2334   0.789   0.999   4.074
  528SOL     OW 2335   0.410   0.813   4.975
  528SOL    HW1 2336   0.496   0.825   5.025
  528SOL    HW2 2337   0.368   0.726   5.002
  529SOL     OW 2338   1.274   0.386   4.986
  529SOL    HW1 2339   1.295   0.460   5.050
  529SOL    HW2 2340   1.185   0.403   4.943
  530SOL     OW 2341   0.064   1.564   5.055
  530SOL    HW1 2342   0.018   1.646   5.021
  530SOL    HW2 2343   0.162   1.583   5.064
  531SOL     OW 2344   0.367   1.100   4.225
  531SOL    HW1 2345   0.360   1.183   4.169
  531SOL    HW2 2346   0.371   1.020   4.165
  532SOL     OW 2347   0.566   0.537   4.589
  532SOL    HW1 2348   0.578   0.603   4.515
  532SOL    HW2 2349   0.612   0.571   4.672
  533SOL     OW 2350   1.252   1.348   4.112
  533SOL    HW1 2351   1.302   1.425   4.152
  533SOL    HW2 2352   1.157   1.350   4.144
  534SOL     OW 2353   1.272   1.445   4.866
  534SOL    HW1 2354   1.319   1.458   4.953
  534SOL    HW2 2355   1.206   1.371   4.875
  535SOL     OW 2356   1.582   0.639   4.196
  535SOL    HW1 2357   1.551   0.700   4.269
  535SOL    HW2 2358   1.632   0.691   4.127
  536SOL     OW 2359   0.354   1.510   5.053
  536SOL    HW1 2360   0.333   1.466   4.966
  536SOL    HW2 2361   0.451   1.536   5.056
  537SOL     OW 2362   0.402   0.751   5.322
  537SOL    HW1 2363   0.470   0.806   5.275
  537SOL    HW2 2364   0.442   0.663   5.349
  538SOL     OW 2365   1.587   0.779   5.394
  538SOL    HW1 2366   1.495   0.817   5.389
  538SOL    HW2 2367   1.647   0.826   5.329
  539SOL     OW 2368   1.013   0.105   5.494
  539SOL    HW1 2369   1.019   0.190   5.442
  539SOL    HW2 2370   1.045   0.029   5.437
  540SOL     OW 2371   0.504   0.050   5.464
  540SOL    HW1 2372   0.462  -0.007   5.394
  540SOL    HW2 2373   0.438   0.119   5.496
  541SOL     OW 2374   0.573   0.870   4.753
  541SOL    HW1 2375   0.617   0.959   4.744
  541SOL    HW2 2376   0.510   0.870   4.830
  542SOL     OW 2377   1.360   0.862   4.769
  542SOL    HW1 2378   1.285   0.862   4.703
  542SOL    HW2 2379   1.397   0.770   4.778
  543SOL     OW 2380   1.209   0.525   3.999
  543SOL    HW1 2381   1.222   0.441   4.053
  543SOL    HW2 2382   1.180   0.599   4.059
  544SOL     OW 2383   0.307   0.213   4.955
  544SOL    HW1 2384   0.284   0.250   5.045
  544SOL    HW2 2385   0.277   0.118   4.949
  545SOL     OW 2386   0.037   1.310   5.006
  545SOL    HW1 2387   0.090   1.261   5.074
  545SOL    HW2 2388   0.059   1.408   5.011
  546SOL     OW 2389   0.732   0.634   4.788
  546SOL    HW1 2390   0.791   0.608   4.712
  546SOL    HW2 2391   0.704   0.730   4.777
  547SOL     OW 2392   1.728   0.935   5.578
  547SOL    HW1 2393   1.682   0.928   5.489
  547SOL    HW2 2394   1.666   0.979   5.644
  548SOL     OW 2395   0.307   0.063   4.342
  548SOL    HW1 2396   0.296   0.157   4.375
  548SOL    HW2 2397   0.302   0.000   4.419
  549SOL     OW 2398   1.622   0.367   4.098
  549SOL    HW1 2399   1.624   0.291   4.162
  549SOL    HW2 2400   1.574   0.444   4.138
  550SOL     OW 2401   1.023   0.766   4.690
  550SOL    HW1 2402   1.038   0.787   4.786
  550SOL    HW2 2403   0.993   0.671   4.681
  551SOL     OW 2404   0.980   1.573   5.424
  551SOL    HW1 2405   0.960   1.617   5.336
  551SOL    HW2 2406   1.019   1.482   5.408
  552SOL     OW 2407   1.859   1.518   5.329
  552SOL    HW1 2408   1.873   1.545   5.234
  552SOL    HW2 2409   1.942   1.540   5.382
  553SOL     OW 2410   0.350   0.898   5.528
  553SOL    HW1 2411   0.426   0.942   5.576
  553SOL    HW2 2412   0.385   0.851   5.446
  554SOL     OW 2413   1.540   0.274   3.849
  554SOL    HW1 2414   1.479   0.199   3.872
  554SOL    HW2 2415   1.562   0.326   3.932
  555SOL     OW 2416   1.303   0.838   3.766
  555SOL    HW1 2417   1.337   0.745   3.781
  555SOL    HW2 2418   1.321   0.865   3.671
  556SOL     OW 2419   1.068   1.333   4.573
  556SOL    HW1 2420   1.075   1.249   4.518
  556SOL    HW2 2421   1.130   1.402   4.537
  557SOL     OW 2422   0.319   0.810   4.673
  557SOL    HW1 2423   0.412   0.846   4.678
  557SOL    HW2 2424   0.313   0.725   4.725
  558SOL     OW 2425   0.339   0.509   4.730
  558SOL    HW1 2426   0.287   0.426   4.713
  558SOL    HW2 2427   0.416   0.514   4.666
  559SOL     OW 2428   1.138   0.380   5.402
  559SOL    HW1 2429   1.093   0.443   5.466
  559SOL    HW2 2430   1.231   0.411   5.385
  560SOL     OW 2431   1.160   0.207   5.201
  560SOL    HW1 2432   1.160   0.271   5.278
  560SOL    HW2 2433   1.188   0.255   5.118
  561SOL     OW 2434   0.008   1.326   3.924
  561SOL    HW1 2435  -0.085   1.347   3.893
  561SOL    HW2 2436   0.018   1.227   3.937
  562SOL     OW 2437   0.088   1.801   4.651
  562SOL    HW1 2438   0.046   1.715   4.624
  562SOL    HW2 2439   0.182   1.804   4.617
  563SOL     OW 2440   0.504   1.568   4.634
  563SOL    HW1 2441   0.570   1.642   4.643
  563SOL    HW2 2442   0.548   1.489   4.592
  564SOL     OW 2443   1.002   0.796   4.962
  564SOL    HW1 2444   1.043   0.764   5.048
  564SOL    HW2 2445   0.906   0.769   4.959
  565SOL     OW 2446   0.040   0.544   4.838
  565SOL    HW1 2447   0.125   0.511   4.797
  565SOL    HW2 2448   0.053   0.559   4.936
  566SOL     OW 2449   0.189   0.520   5.446
  566SOL    HW1 2450   0.248   0.480   5.376
  566SOL    HW2 2451   0.131   0.591   5.405
  567SOL     OW 2452   1.369   0.950   5.384
  567SOL    HW1 2453   1.408   1.039   5.404
  567SOL    HW2 2454   1.379   0.930   5.287
  568SOL     OW 2455   0.815   0.572   4.049
  568SOL    HW1 2456   0.822   0.483   4.003
  568SOL    HW2 2457   0.721   0.606   4.041
  569SOL     OW 2458   1.657   0.604   4.930
  569SOL    HW1 2459   1.619   0.535   4.992
  569SOL    HW2 2460   1.739   0.568   4.886
  570SOL     OW 2461   0.252   1.564   5.468
  570SOL    HW1 2462   0.222   1.621   5.544
  570SOL    HW2 2463   0.245   1.467   5.494
  571SOL     OW 2464   0.671   0.464   4.993
  571SOL    HW1 2465   0.637   0.375   4.963
  571SOL    HW2 2466   0.697   0.518   4.913
  572SOL     OW 2467   0.930   1.678   5.189
  572SOL    HW1 2468   0.906   1.660   5.094
  572SOL    HW2 2469   0.960   1.772   5.199
  573SOL     OW 2470   0.473   0.500   3.915
  573SOL    HW1 2471   0.534   0.580   3.919
  573SOL    HW2 2472   0.378   0.531   3.922
  574SOL     OW 2473   0.159   1.137   5.190
  574SOL    HW1 2474   0.181   1.076   5.266
  574SOL    HW2 2475   0.169   1.088   5.104
  575SOL     OW 2476   1.347   1.059   4.958
  575SOL    HW1 2477   1.371   0.996   4.884
  575SOL    HW2 2478   1.257   1.099   4.940
  576SOL     OW 2479   1.302   0.855   4.033
  576SOL    HW1 2480   1.216   0.824   4.075
  576SOL    HW2 2481   1.298   0.841   3.934
  577SOL     OW 2482   1.759   1.747   4.878
  577SOL    HW1 2483   1.820   1.777   4.805
  577SOL    HW2 2484   1.721   1.658   4.856
  578SOL     OW 2485   1.252   1.731   4.852
  578SOL    HW1 2486   1.336   1.736   4.798
  578SOL    HW2 2487   1.229   1.635   4.870
  579SOL     OW 2488   0.083   1.258   4.746
  579SOL    HW1 2489   0.078   1.257   4.846
  579SOL    HW2 2490   0.000   1.217   4.708
  580SOL     OW 2491   0.688   1.662   5.440
  580SOL    HW1 2492   0.632   1.743   5.449
  580SOL    HW2 2493   0.740   1.666   5.354
  581SOL     OW 2494   1.726   0.135   4.247
  581SOL    HW1 2495   1.799   0.118   4.180
  581SOL    HW2 2496   1.695   0.048   4.285
  582SOL     OW 2497   1.388   1.573   4.201
  582SOL    HW1 2498   1.455   1.585   4.127
  582SOL    HW2 2499   1.348   1.662   4.224
  583SOL     OW 2500   0.130   1.794   5.575
  583SOL    HW1 2501   0.089   1.720   5.628
  583SOL    HW2 2502   0.194   1.845   5.633
  584SOL     OW 2503   1.280   0.927   4.396
  584SOL    HW1 2504   1.340   0.846   4.398
  584SOL    HW2 2505   1.320   0.996   4.336
  585SOL     OW 2506   0.830   1.273   5.146
  585SOL    HW1 2507   0.825   1.306   5.241
  585SOL    HW2 2508   0.744   1.292   5.100
  586SOL     OW 2509   0.672   1.616   3.878
  586SOL    HW1 2510   0.681   1.626   3.779
  586SOL    HW2 2511   0.632   1.527   3.899
  587SOL     OW 2512   1.650   1.720   5.118
  587SOL    HW1 2513   1.703   1.730   5.034
  587SOL    HW2 2514   1.623   1.810   5.152
  588SOL     OW 2515   1.841   0.175   4.687
  588SOL    HW1 2516   1.880   0.090   4.651
  588SOL    HW2 2517   1.743   0.177   4.668
  589SOL     OW 2518   0.263   0.326   4.444
  589SOL    HW1 2519   0.184   0.377   4.410
  589SOL    HW2 2520   0.254   0.311   4.542
  590SOL     OW 2521   1.194   1.612   3.755
  590SOL    HW1 2522   1.200   1.519   3.792
  590SOL    HW2 2523   1.135   1.612   3.675
  591SOL     OW 2524   0.822   1.002   5.096
  591SOL    HW1 2525   0.862   1.001   5.004
  591SOL    HW2 2526   0.832   1.094   5.136
  592SOL     OW 2527   0.916   0.910   4.015
  592SOL    HW1 2528   0.979   0.948   3.947
  592SOL    HW2 2529   0.956   0.827   4.054
  593SOL     OW 2530   1.504   1.607   3.768
  593SOL    HW1 2531   1.412   1.644   3.775
  593SOL    HW2 2532   1.542   1.627   3.678
  594SOL     OW 2533   0.372   1.288   5.214
  594SOL    HW1 2534   0.359   1.381   5.180
  594SOL    HW2 2535   0.288   1.236   5.201
  595SOL     OW 2536   1.614   1.292   5.013
  595SOL    HW1 2537   1.674   1.295   5.093
  595SOL    HW2 2538   1.539   1.356   5.026
  596SOL     OW 2539   1.039   1.098   4.420
  596SOL    HW1 2540   0.969   1.051   4.474
  596SOL    HW2 2541   1.098   1.030   4.377
  597SOL     OW 2542   1.014   0.236   4.695
  597SOL    HW1 2543   1.006   0.200   4.602
  597SOL    HW2 2544   1.012   0.160   4.760
  598SOL     OW 2545   0.590   1.487   4.215
  598SOL    HW1 2546   0.632   1.429   4.145
  598SOL    HW2 2547   0.546   1.566   4.171
  599SOL     OW 2548   1.709   0.385   5.105
  599SOL    HW1 2549   1.782   0.454   5.109
  599SOL    HW2 2550   1.737   0.310   5.046
  600SOL     OW 2551   0.255   1.348   4.014
  600SOL    HW1 2552   0.159   1.349   3.987
  600SOL    HW2 2553   0.267   1.401   4.098
  601SOL     OW 2554   0.105   1.013   5.450
  601SOL    HW1 2555   0.028   0.980   5.504
  601SOL    HW2 2556   0.190   0.983   5.492
  602SOL     OW 2557   0.672   0.203   5.213
  602SOL    HW1 2558   0.762   0.187   5.173
  602SOL    HW2 2559   0.680   0.208   5.312
  603SOL     OW 2560   0.075   0.345   3.757
  603SOL    HW1 2561  -0.017   0.317   3.728
  603SOL    HW2 2562   0.106   0.422   3.701
  604SOL     OW 2563   1.440   0.856   5.122
  604SOL    HW1 2564   1.383   0.908   5.059
  604SOL    HW2 2565   1.536   0.868   5.098
  605SOL     OW 2566   0.072   0.166   4.042
  605SOL    HW1 2567   0.055   0.249   3.988
  605SOL    HW2 2568   0.162   0.129   4.020
  606SOL     OW 2569   1.183   1.335   3.843
  606SOL    HW1 2570   1.084   1.324   3.845
  606SOL    HW2 2571   1.217   1.350   3.936
  607SOL     OW 2572   0.613   0.842   5.155
  607SOL    HW1 2573   0.669   0.923   5.138
  607SOL    HW2 2574   0.672   0.762   5.158
  608SOL     OW 2575   1.493   1.767   4.683
  608SOL    HW1 2576   1.526   1.831   4.614
  608SOL    HW2 2577   1.559   1.761   4.758
  609SOL     OW 2578   0.716   0.565   5.432
  609SOL    HW1 2579   0.735   0.630   5.506
  609SOL    HW2 2580   0.776   0.485   5.441
  610SOL     OW 2581   1.450   1.220   5.357
  610SOL    HW1 2582   1.441   1.210   5.456
  610SOL    HW2 2583   1.546   1.213   5.331
  611SOL     OW 2584   0.390   1.741   5.284
  611SOL    HW1 2585   0.299   1.782   5.282
  611SOL    HW2 2586   0.383   1.647   5.316
  612SOL     OW 2587   1.674   0.883   4.978
  612SOL    HW1 2588   1.647   0.794   4.941
  612SOL    HW2 2589   1.675   0.951   4.905
  613SOL     OW 2590   1.225   0.325   4.173
  613SOL    HW1 2591   1.290   0.251   4.162
  613SOL    HW2 2592   1.245   0.375   4.257
  614SOL     OW 2593   0.594   0.745   4.376
  614SOL    HW1 2594   0.644   0.830   4.357
  614SOL    HW2 2595   0.506   0.747   4.328
  615SOL     OW 2596   1.777   0.342   5.366
  615SOL    HW1 2597   1.760   0.373   5.272
  615SOL    HW2 2598   1.693   0.305   5.404
  616SOL     OW 2599   1.730   0.934   5.241
  616SOL    HW1 2600   1.768   1.025   5.256
  616SOL    HW2 2601   1.722   0.917   5.142
  617SOL     OW 2602   0.859   1.374   3.740
  617SOL    HW1 2603   0.813   1.389   3.828
  617SOL    HW2 2604   0.903   1.459   3.710
  618SOL     OW 2605   0.661   1.790   4.677
  618SOL    HW1 2606   0.615   1.878   4.664
  618SOL    HW2 2607   0.760   1.802   4.670
  619SOL     OW 2608   0.859   0.956   4.585
  619SOL    HW1 2609   0.913   0.887   4.633
  619SOL    HW2 2610   0.827   1.025   4.651
  620SOL     OW 2611   1.083   0.984   3.811
  620SOL    HW1 2612   1.060   1.037   3.729
  620SOL    HW2 2613   1.164   0.928   3.792
  621SOL     OW 2614   1.861   1.569   4.575
  621SOL    HW1 2615   1.790   1.557   4.505
  621SOL    HW2 2616   1.862   1.490   4.635
  622SOL     OW 2617   0.221   1.314   5.568
  622SOL    HW1 2618   0.156   1.241   5.547
  622SOL    HW2 2619   0.225   1.328   5.666
  623SOL     OW 2620   0.079   1.240   4.377
  623SOL    HW1 2621   0.078   1.193   4.465
  623SOL    HW2 2622   0.161   1.212   4.326
  624SOL     OW 2623   0.672   1.391   5.348
  624SOL    HW1 2624   0.594   1.341   5.386
  624SOL    HW2 2625   0.669   1.486   5.379
  625SOL     OW 2626   1.824   0.192   4.951
  625SOL    HW1 2627   1.820   0.102   4.995
  625SOL    HW2 2628   1.827   0.181   4.852
  626SOL     OW 2629   0.428   0.424   4.244
  626SOL    HW1 2630   0.458   0.352   4.182
  626SOL    HW2 2631   0.389   0.384   4.327
  627SOL     OW 2632   1.705   1.487   4.828
  627SOL    HW1 2633   1.612   1.462   4.801
  627SOL    HW2 2634   1.731   1.437   4.910
  628SOL     OW 2635   0.317   0.547   5.004
  628SOL    HW1 2636   0.355   0.488   5.076
  628SOL    HW2 2637   0.357   0.521   4.916
  629SOL     OW 2638   0.812   1.586   4.411
  629SOL    HW1 2639   0.844   1.596   4.317
  629SOL    HW2 2640   0.733   1.524   4.413
  630SOL     OW 2641   1.424   0.214   4.836
  630SOL    HW1 2642   1.476   0.149   4.891
  630SOL    HW2 2643   1.375   0.277   4.897
  631SOL     OW 2644   1.001   0.034   4.878
  631SOL    HW1 2645   0.938  -0.038   4.847
  631SOL    HW2 2646   1.094  -0.002   4.878
  632SOL     OW 2647   0.770   1.330   4.025
  632SOL    HW1 2648   0.724   1.243   4.042
  632SOL    HW2 2649   0.861   1.327   4.066
  633SOL     OW 2650   0.618   1.567   5.008
  633SOL    HW1 2651   0.613   1.649   5.065
  633SOL    HW2 2652   0.707   1.564   4.963
  634SOL     OW 2653   1.352   0.052   3.892
  634SOL    HW1 2654   1.387   0.011   3.808
  634SOL    HW2 2655   1.262   0.014   3.912
  635SOL     OW 2656   1.300   0.453   4.415
  635SOL    HW1 2657   1.241   0.533   4.419
  635SOL    HW2 2658   1.315   0.418   4.508
  636SOL     OW 2659   1.593   0.221   4.606
  636SOL    HW1 2660   1.509   0.220   4.660
  636SOL    HW2 2661   1.595   0.304   4.550
  637SOL     OW 2662   0.039   1.077   4.024
  637SOL    HW1 2663   0.138   1.066   4.015
  637SOL    HW2 2664  -0.001   0.991   4.056
  638SOL     OW 2665   0.875   1.646   4.061
  638SOL    HW1 2666   0.798   1.611   4.007
  638SOL    HW2 2667   0.843   1.717   4.123
  639SOL     OW 2668   0.230   0.628   5.699
  639SOL    HW1 2669   0.137   0.626   5.736
  639SOL    HW2 2670   0.231   0.589   5.607
  640SOL     OW 2671   0.225   0.275   6.582
  640SOL    HW1 2672   0.260   0.258   6.674
  640SOL    HW2 2673   0.137   0.230   6.570
  641SOL     OW 2674   0.019   0.368   6.233
  641SOL    HW1 2675  -0.063   0.411   6.272
  641SOL    HW2 2676  -0.009   0.295   6.170
  642SOL     OW 2677   0.569   1.275   6.751
  642SOL    HW1 2678   0.476   1.268   6.714
  642SOL    HW2 2679   0.580   1.364   6.795
  643SOL     OW 2680   1.555   1.511   6.289
  643SOL    HW1 2681   1.498   1.495   6.370
  643SOL    HW2 2682   1.496   1.521   6.209
  644SOL     OW 2683   1.135   0.703   6.303
  644SOL    HW1 2684   1.192   0.781   6.278
  644SOL    HW2 2685   1.075   0.729   6.379
  645SOL     OW 2686   1.755   0.607   5.817
  645SOL    HW1 2687   1.743   0.594   5.718
  645SOL    HW2 2688   1.725   0.526   5.866
  646SOL     OW 2689   0.768   1.144   6.609
  646SOL    HW1 2690   0.690   1.161   6.669
  646SOL    HW2 2691   0.802   1.231   6.573
  647SOL     OW 2692   0.850   0.798   7.409
  647SOL    HW1 2693   0.846   0.874   7.474
  647SOL    HW2 2694   0.872   0.834   7.318
  648SOL     OW 2695   0.685   1.012   6.251
  648SOL    HW1 2696   0.754   0.996   6.321
  648SOL    HW2 2697   0.612   1.069   6.289
  649SOL     OW 2698   0.686   1.161   7.389
  649SOL    HW1 2699   0.746   1.240   7.403
  649SOL    HW2 2700   0.600   1.192   7.348
  650SOL     OW 2701   0.335   1.435   6.647
  650SOL    HW1 2702   0.257   1.404   6.594
  650SOL    HW2 2703   0.393   1.493   6.590
  651SOL     OW 2704   1.460   1.505   6.925
  651SOL    HW1 2705   1.484   1.599   6.951
  651SOL    HW2 2706   1.444   1.451   7.007
  652SOL     OW 2707   0.438   0.392   7.085
  652SOL    HW1 2708   0.520   0.336   7.094
  652SOL    HW2 2709   0.357   0.334   7.089
  653SOL     OW 2710   1.603   0.447   6.323
  653SOL    HW1 2711   1.529   0.493   6.273
  653SOL    HW2 2712   1.654   0.515   6.376
  654SOL     OW 2713   0.231   1.713   6.069
  654SOL    HW1 2714   0.265   1.790   6.123
  654SOL    HW2 2715   0.275   1.713   5.979
  655SOL     OW 2716   1.127   1.341   7.276
  655SOL    HW1 2717   1.174   1.341   7.364
  655SOL    HW2 2718   1.079   1.254   7.265
  656SOL     OW 2719   0.230   1.434   6.124
  656SOL    HW1 2720   0.204   1.530   6.124
  656SOL    HW2 2721   0.159   1.380   6.169
  657SOL     OW 2722   0.240   1.091   6.472
  657SOL    HW1 2723   0.254   1.007   6.524
  657SOL    HW2 2724   0.185   1.155   6.527
  658SOL     OW 2725   0.620   1.786   7.025
  658SOL    HW1 2726   0.528   1.769   7.060
  658SOL    HW2 2727   0.648   1.878   7.051
  659SOL     OW 2728   0.606   0.964   5.709
  659SOL    HW1 2729   0.613   1.048   5.655
  659SOL    HW2 2730   0.652   0.977   5.797
  660SOL     OW 2731   1.594   0.114   7.066
  660SOL    HW1 2732   1.576   0.181   6.994
  660SOL    HW2 2733   1.591   0.160   7.155
  661SOL     OW 2734   0.122   0.643   6.149
  661SOL    HW1 2735   0.077   0.555   6.166
  661SOL    HW2 2736   0.121   0.697   6.233
  662SOL     OW 2737   1.842   1.767   5.945
  662SOL    HW1 2738   1.896   1.738   6.025
  662SOL    HW2 2739   1.872   1.857   5.916
  663SOL     OW 2740   0.027   1.596   5.703
  663SOL    HW1 2741   0.008   1.500   5.724
  663SOL    HW2 2742  -0.006   1.654   5.778
  664SOL     OW 2743   1.689   0.922   6.198
  664SOL    HW1 2744   1.784   0.893   6.206
  664SOL    HW2 2745   1.681   0.987   6.123
  665SOL     OW 2746   1.641   1.108   6.018
  665SOL    HW1 2747   1.727   1.110   5.966
  665SOL    HW2 2748   1.655   1.155   6.106
  666SOL     OW 2749   0.113   0.737   7.183
  666SOL    HW1 2750   0.201   0.724   7.228
  666SOL    HW2 2751   0.100   0.834   7.161
  667SOL     OW 2752   0.613   1.365   6.312
  667SOL    HW1 2753   0.564   1.278   6.321
  667SOL    HW2 2754   0.590   1.408   6.225
  668SOL     OW 2755   1.293   1.228   7.009
  668SOL    HW1 2756   1.330   1.155   6.951
  668SOL    HW2 2757   1.345   1.233   7.094
  669SOL     OW 2758   0.809   0.004   6.088
  669SOL    HW1 2759   0.849   0.095   6.079
  669SOL    HW2 2760   0.709   0.012   6.094
  670SOL     OW 2761   0.197   0.976   6.850
  670SOL    HW1 2762   0.286   0.931   6.836
  670SOL    HW2 2763   0.124   0.911   6.831
  671SOL     OW 2764   1.525   0.999   5.776
  671SOL    HW1 2765   1.462   0.923   5.789
  671SOL    HW2 2766   1.573   1.017   5.862
  672SOL     OW 2767   1.187   1.792   7.202
  672SOL    HW1 2768   1.211   1.852   7.126
  672SOL    HW2 2769   1.194   1.697   7.172
  673SOL     OW 2770   0.317   0.251   7.387
  673SOL    HW1 2771   0.388   0.322   7.393
  673SOL    HW2 2772   0.229   0.290   7.415
  674SOL     OW 2773   1.466   1.417   6.539
  674SOL    HW1 2774   1.407   1.423   6.619
  674SOL    HW2 2775   1.451   1.329   6.493
  675SOL     OW 2776   1.667   1.714   6.158
  675SOL    HW1 2777   1.626   1.691   6.070
  675SOL    HW2 2778   1.649   1.640   6.223
  676SOL     OW 2779   0.598   0.729   5.856
  676SOL    HW1 2780   0.622   0.798   5.788
  676SOL    HW2 2781   0.520   0.762   5.910
  677SOL     OW 2782   1.281   0.345   6.530
  677SOL    HW1 2783   1.195   0.295   6.517
  677SOL    HW2 2784   1.343   0.291   6.586
  678SOL     OW 2785   1.576   1.662   5.893
  678SOL    HW1 2786   1.665   1.708   5.896
  678SOL    HW2 2787   1.555   1.638   5.798
  679SOL     OW 2788   0.807   0.605   7.051
  679SOL    HW1 2789   0.760   0.602   7.140
  679SOL    HW2 2790   0.756   0.550   6.985
  680SOL     OW 2791   1.394   0.469   7.260
  680SOL    HW1 2792   1.374   0.512   7.348
  680SOL    HW2 2793   1.472   0.407   7.269
  681SOL     OW 2794   0.973   0.890   7.158
  681SOL    HW1 2795   1.019   0.806   7.129
  681SOL    HW2 2796   0.917   0.924   7.083
  682SOL     OW 2797   0.991   0.410   6.828
  682SOL    HW1 2798   0.914   0.444   6.882
  682SOL    HW2 2799   0.957   0.359   6.749
  683SOL     OW 2800   1.041   0.701   6.015
  683SOL    HW1 2801   1.067   0.697   6.111
  683SOL    HW2 2802   0.956   0.650   6.001
  684SOL     OW 2803   0.076   0.811   6.375
  684SOL    HW1 2804   0.175   0.799   6.384
  684SOL    HW2 2805   0.052   0.906   6.396
  685SOL     OW 2806   0.130   1.821   7.157
  685SOL    HW1 2807   0.120   1.806   7.256
  685SOL    HW2 2808   0.044   1.857   7.121
  686SOL     OW 2809   0.865   0.348   5.781
  686SOL    HW1 2810   0.924   0.411   5.732
  686SOL    HW2 2811   0.884   0.254   5.752
  687SOL     OW 2812   1.719   0.585   7.417
  687SOL    HW1 2813   1.693   0.674   7.381
  687SOL    HW2 2814   1.717   0.517   7.344
  688SOL     OW 2815   1.362   1.144   6.131
  688SOL    HW1 2816   1.445   1.115   6.083
  688SOL    HW2 2817   1.313   1.211   6.075
  689SOL     OW 2818   0.550   0.196   6.471
  689SOL    HW1 2819   0.545   0.191   6.571
  689SOL    HW2 2820   0.552   0.292   6.442
  690SOL     OW 2821   1.008   1.456   6.063
  690SOL    HW1 2822   0.962   1.528   6.011
  690SOL    HW2 2823   1.004   1.476   6.161
  691SOL     OW 2824   0.351   1.801   6.439
  691SOL    HW1 2825   0.401   1.715   6.445
  691SOL    HW2 2826   0.416   1.878   6.436
  692SOL     OW 2827   1.795   1.066   6.459
  692SOL    HW1 2828   1.733   1.051   6.383
  692SOL    HW2 2829   1.743   1.077   6.544
  693SOL     OW 2830   1.227   1.550   7.092
  693SOL    HW1 2831   1.233   1.473   7.156
  693SOL    HW2 2832   1.175   1.524   7.012
  694SOL     OW 2833   0.321   0.943   5.828
  694SOL    HW1 2834   0.403   0.982   5.786
  694SOL    HW2 2835   0.294   0.861   5.779
  695SOL     OW 2836   1.458   0.735   6.314
  695SOL    HW1 2837   1.453   0.670   6.389
  695SOL    HW2 2838   1.538   0.794   6.327
  696SOL     OW 2839   0.461   1.266   7.313
  696SOL    HW1 2840   0.411   1.267   7.227
  696SOL    HW2 2841   0.398   1.248   7.389
  697SOL     OW 2842   1.111   1.776   5.823
  697SOL    HW1 2843   1.051   1.714   5.873
  697SOL    HW2 2844   1.142   1.732   5.738
  698SOL     OW 2845   0.202   0.285   7.084
  698SOL    HW1 2846   0.122   0.345   7.071
  698SOL    HW2 2847   0.192   0.236   7.170
  699SOL     OW 2848   1.632   1.377   5.667
  699SOL    HW1 2849   1.600   1.471   5.657
  699SOL    HW2 2850   1.556   1.314   5.655
  700SOL     OW 2851   0.464   1.743   5.909
  700SOL    HW1 2852   0.497   1.782   5.995
  700SOL    HW2 2853   0.540   1.736   5.844
  701SOL     OW 2854   1.400   0.107   6.012
  701SOL    HW1 2855   1.376   0.070   5.922
  701SOL    HW2 2856   1.499   0.123   6.016
  702SOL     OW 2857   0.249   1.785   6.827
  702SOL    HW1 2858   0.306   1.720   6.877
  702SOL    HW2 2859   0.233   1.752   6.734
  703SOL     OW 2860   0.940   1.698   6.490
  703SOL    HW1 2861   1.020   1.641   6.511
  703SOL    HW2 2862   0.891   1.658   6.413
  704SOL     OW 2863   0.382   0.700   6.066
  704SOL    HW1 2864   0.427   0.610   6.063
  704SOL    HW2 2865   0.288   0.689   6.099
  705SOL     OW 2866   1.547   0.222   7.315
  705SOL    HW1 2867   1.542   0.259   7.407
  705SOL    HW2 2868   1.475   0.153   7.303
  706SOL     OW 2869   0.614   0.122   5.703
  706SOL    HW1 2870   0.712   0.100   5.710
  706SOL    HW2 2871   0.583   0.105   5.610
  707SOL     OW 2872   0.781   0.264   7.335
  707SOL    HW1 2873   0.848   0.203   7.378
  707SOL    HW2 2874   0.708   0.283   7.400
  708SOL     OW 2875   0.888   1.514   6.781
  708SOL    HW1 2876   0.865   1.489   6.687
  708SOL    HW2 2877   0.949   1.445   6.820
  709SOL     OW 2878   1.351   0.590   7.019
  709SOL    HW1 2879   1.379   0.547   7.104
  709SOL    HW2 2880   1.376   0.686   7.020
  710SOL     OW 2881   0.803   1.402   6.510
  710SOL    HW1 2882   0.893   1.416   6.468
  710SOL    HW2 2883   0.732   1.404   6.439
  711SOL     OW 2884   0.922   0.503   6.485
  711SOL    HW1 2885   0.897   0.494   6.389
  711SOL    HW2 2886   0.970   0.421   6.516
  712SOL     OW 2887   0.539   0.064   6.098
  712SOL    HW1 2888   0.458   0.065   6.156
  712SOL    HW2 2889   0.542   0.147   6.043
  713SOL     OW 2890   1.434   1.188   5.627
  713SOL    HW1 2891   1.466   1.112   5.684
  713SOL    HW2 2892   1.342   1.215   5.657
  714SOL     OW 2893   0.297   0.035   5.757
  714SOL    HW1 2894   0.346   0.119   5.736
  714SOL    HW2 2895   0.359  -0.030   5.802
  715SOL     OW 2896   0.935   0.236   6.066
  715SOL    HW1 2897   0.887   0.277   5.988
  715SOL    HW2 2898   1.034   0.234   6.047
  716SOL     OW 2899   1.076   0.683   7.050
  716SOL    HW1 2900   0.996   0.622   7.053
  716SOL    HW2 2901   1.157   0.630   7.026
  717SOL     OW 2902   1.227   1.570   6.379
  717SOL    HW1 2903   1.248   1.644   6.314
  717SOL    HW2 2904   1.295   1.570   6.452
  718SOL     OW 2905   0.459   1.152   6.327
  718SOL    HW1 2906   0.388   1.125   6.392
  718SOL    HW2 2907   0.433   1.124   6.234
  719SOL     OW 2908   1.271   1.797   6.177
  719SOL    HW1 2909   1.315   1.861   6.113
  719SOL    HW2 2910   1.221   1.849   6.247
  720SOL     OW 2911   1.032   0.549   5.602
  720SOL    HW1 2912   0.991   0.631   5.563
  720SOL    HW2 2913   1.096   0.575   5.675
  721SOL     OW 2914   0.078   0.556   6.972
  721SOL    HW1 2915   0.170   0.555   6.931
  721SOL    HW2 2916   0.072   0.630   7.039
  722SOL     OW 2917   0.561   0.222   6.733
  722SOL    HW1 2918   0.599   0.138   6.770
  722SOL    HW2 2919   0.473   0.241   6.777
  723SOL     OW 2920   0.866   0.454   6.228
  723SOL    HW1 2921   0.834   0.526   6.166
  723SOL    HW2 2922   0.890   0.373   6.175
  724SOL     OW 2923   1.017   0.039   6.339
  724SOL    HW1 2924   0.945   0.044   6.270
  724SOL    HW2 2925   0.993  -0.030   6.408
  725SOL     OW 2926   1.429   1.173   6.453
  725SOL    HW1 2927   1.374   1.089   6.446
  725SOL    HW2 2928   1.455   1.202   6.361
  726SOL     OW 2929   1.466   0.590   6.578
  726SOL    HW1 2930   1.436   0.495   6.585
  726SOL    HW2 2931   1.539   0.606   6.644
  727SOL     OW 2932   1.857   0.833   5.963
  727SOL    HW1 2933   1.899   0.769   6.027
  727SOL    HW2 2934   1.819   0.782   5.885
  728SOL     OW 2935   0.488   1.385   5.760
  728SOL    HW1 2936   0.401   1.370   5.807
  728SOL    HW2 2937   0.471   1.411   5.665
  729SOL     OW 2938   1.664   1.280   6.243
  729SOL    HW1 2939   1.763   1.288   6.257
  729SOL    HW2 2940   1.619   1.364   6.274
  730SOL     OW 2941   1.390   0.575   5.664
  730SOL    HW1 2942   1.336   0.554   5.745
  730SOL    HW2 2943   1.481   0.534   5.673
  731SOL     OW 2944   0.527   0.256   5.914
  731SOL    HW1 2945   0.554   0.197   5.839
  731SOL    HW2 2946   0.527   0.351   5.883
  732SOL     OW 2947   1.754   1.223   7.174
  732SOL    HW1 2948   1.845   1.184   7.161
  732SOL    HW2 2949   1.762   1.319   7.198
  733SOL     OW 2950   1.064   1.347   6.926
  733SOL    HW1 2951   0.984   1.324   6.981
  733SOL    HW2 2952   1.147   1.321   6.975
  734SOL     OW 2953   1.592   1.629   7.211
  734SOL    HW1 2954   1.619   1.663   7.121
  734SOL    HW2 2955   1.671   1.591   7.257
  735SOL     OW 2956   1.111   1.195   6.686
  735SOL    HW1 2957   1.071   1.239   6.767
  735SOL    HW2 2958   1.070   1.232   6.603
  736SOL     OW 2959   1.638   1.099   6.665
  736SOL    HW1 2960   1.643   1.180   6.724
  736SOL    HW2 2961   1.552   1.101   6.614
  737SOL     OW 2962   0.915   0.089   6.988
  737SOL    HW1 2963   0.940   0.069   6.893
  737SOL    HW2 2964   0.987   0.145   7.030
  738SOL     OW 2965   0.980   1.116   7.305
  738SOL    HW1 2966   0.881   1.122   7.315
  738SOL    HW2 2967   1.003   1.036   7.249
  739SOL     OW 2968   0.705   1.050   5.954
  739SOL    HW1 2969   0.691   1.057   6.053
  739SOL    HW2 2970   0.789   0.999   5.936
  740SOL     OW 2971   0.410   0.813   6.837
  740SOL    HW1 2972   0.496   0.825   6.887
  740SOL    HW2 2973   0.368   0.726   6.864
  741SOL     OW 2974   1.274   0.386   6.848
  741SOL    HW1 2975   1.295   0.460   6.912
  741SOL    HW2 2976   1.185   0.403   6.805
  742SOL     OW 2977   0.064   1.564   6.917
  742SOL    HW1 2978   0.018   1.646   6.883
  742SOL    HW2 2979   0.162   1.583   6.926
  743SOL     OW 2980   0.367   1.100   6.087
  743SOL    HW1 2981   0.360   1.183   6.031
  743SOL    HW2 2982   0.371   1.020   6.027
  744SOL     OW 2983   0.566   0.537   6.451
  744SOL    HW1 2984   0.578   0.603   6.377
  744SOL    HW2 2985   0.612   0.571   6.534
  745SOL     OW 2986   1.252   1.348   5.974
  745SOL    HW1 2987   1.302   1.425   6.014
  745SOL    HW2 2988   1.157   1.350   6.006
  746SOL     OW 2989   1.272   1.445   6.728
  746SOL    HW1 2990   1.319   1.458   6.815
  746SOL    HW2 2991   1.206   1.371   6.737
  747SOL     OW 2992   1.582   0.639   6.058
  747SOL    HW1 2993   1.551   0.700   6.131
  747SOL    HW2 2994   1.632   0.691   5.989
  748SOL     OW 2995   0.354   1.510   6.915
  748SOL    HW1 2996   0.333   1.466   6.828
  748SOL    HW2 2997   0.451   1.536   6.918
  749SOL     OW 2998   0.402   0.751   7.184
  749SOL    HW1 2999   0.470   0.806   7.137
  749SOL    HW2 3000   0.442   0.663   7.211
  750SOL     OW 3001   1.587   0.779   7.256
  750SOL    HW1 3002   1.495   0.817   7.251
  750SOL    HW2 3003   1.647   0.826   7.191
  751SOL     OW 3004   1.013   0.105   7.356
  751SOL    HW1 3005   1.019   0.190   7.304
  751SOL    HW2 3006   1.045   0.029   7.299
  752SOL     OW 3007   0.504   0.050   7.326
  752SOL    HW1 3008   0.462  -0.007   7.256
  752SOL    HW2 3009   0.438   0.119   7.358
  753SOL     OW 3010   0.573   0.870   6.615
  753SOL    HW1 3011   0.617   0.959   6.606
  753SOL    HW2 3012   0.510   0.870   6.692
  754SOL     OW 3013   1.360   0.862   6.631
  754SOL    HW1 3014   1.285   0.862   6.565
  754SOL    HW2 3015   1.397   0.770   6.640
  755SOL     OW 3016   1.209   0.525   5.861
  755SOL    HW1 3017   1.222   0.441   5.915
  755SOL    HW2 3018   1.180   0.599   5.921
  756SOL     OW 3019   0.307   0.213   6.817
  756SOL    HW1 3020   0.284   0.250   6.907
  756SOL    HW2 3021   0.277   0.118   6.811
  757SOL     OW 3022   0.037   1.310   6.868
  757SOL    HW1 3023   0.090   1.261   6.936
  757SOL    HW2 3024   0.059   1.408   6.873
  758SOL     OW 3025   0.732   0.634   6.650
  758SOL    HW1 3026   0.791   0.608   6.574
  758SOL    HW2 3027   0.704   0.730   6.639
  759SOL     OW 3028   1.728   0.935   7.440
  759SOL    HW1 3029   1.682   0.928   7.351
  759SOL    HW2 3030   1.666   0.979   7.506
  760SOL     OW 3031   0.307   0.063   6.204
  760SOL    HW1 3032   0.296   0.157   6.237
  760SOL    HW2 3033   0.302   0.000   6.281
  761SOL     OW 3034   1.622   0.367   5.960
  761SOL    HW1 3035   1.624   0.291   6.024
  761SOL    HW2 3036   1.574   0.444   6.000
  762SOL     OW 3037   1.023   0.766   6.552
  762SOL    HW1 3038   1.038   0.787   6.648
  762SOL    HW2 3039   0.993   0.671   6.543
  763SOL     OW 3040   0.980   1.573   7.286
  763SOL    HW1 3041   0.960   1.617   7.198
  763SOL    HW2 3042   1.019   1.482   7.270
  764SOL     OW 3043   1.859   1.518   7.191
  764SOL    HW1 3044   1.873   1.545   7.096
  764SOL    HW2 3045   1.942   1.540   7.244
  765SOL     OW 3046   0.350   0.898   7.390
  765SOL    HW1 3047   0.426   0.942   7.438
  765SOL    HW2 3048   0.385   0.851   7.308
  766SOL     OW 3049   1.540   0.274   5.711
  766SOL    HW1 3050   1.479   0.199   5.734
  766SOL    HW2 3051   1.562   0.326   5.794
  767SOL     OW 3052   1.303   0.838   5.628
  767SOL    HW1 3053   1.337   0.745   5.643
  767SOL    HW2 3054   1.321   0.865   5.533
  768SOL     OW 3055   1.068   1.333   6.435
  768SOL    HW1 3056   1.075   1.249   6.380
  768SOL    HW2 3057   1.130   1.402   6.399
  769SOL     OW 3058   0.319   0.810   6.535
  769SOL    HW1 3059   0.412   0.846   6.540
  769SOL    HW2 3060   0.313   0.725   6.587
  770SOL     OW 3061   0.339   0.509   6.592
  770SOL    HW1 3062   0.287   0.426   6.575
  770SOL    HW2 3063   0.416   0.514   6.528
  771SOL     OW 3064   1.138   0.380   7.264
  771SOL    HW1 3065   1.093   0.443   7.328
  771SOL    HW2 3066   1.231   0.411   7.247
  772SOL     OW 3067   1.160   0.207   7.063
  772SOL    HW1 3068   1.160   0.271   7.140
  772SOL    HW2 3069   1.188   0.255   6.980
  773SOL     OW 3070   0.008   1.326   5.786
  773SOL    HW1 3071  -0.085   1.347   5.755
  773SOL    HW2 3072   0.018   1.227   5.799
  774SOL     OW 3073   0.088   1.801   6.513
  774SOL    HW1 3074   0.046   1.715   6.486
  774SOL    HW2 3075   0.182   1.804   6.479
  775SOL     OW 3076   0.504   1.568   6.496
  775SOL    HW1 3077   0.570   1.642   6.505
  775SOL    HW2 3078   0.548   1.489   6.454
  776SOL     OW 3079   1.002   0.796   6.824
  776SOL    HW1 3080   1.043   0.764   6.910
  776SOL    HW2 3081   0.906   0.769   6.821
  777SOL     OW 3082   0.040   0.544   6.700
  777SOL    HW1 3083   0.125   0.511   6.659
  777SOL    HW2 3084   0.053   0.559   6.798
  778SOL     OW 3085   0.189   0.520   7.308
  778SOL    HW1 3086   0.248   0.480   7.238
  778SOL    HW2 3087   0.131   0.591   7.267
  779SOL     OW 3088   1.369   0.950   7.246
  779SOL    HW1 3089   1.408   1.039   7.266
  779SOL    HW2 3090   1.379   0.930   7.149
  780SOL     OW 3091   0.815   0.572   5.911
  780SOL    HW1 3092   0.822   0.483   5.865
  780SOL    HW2 3093   0.721   0.606   5.903
  781SOL     OW 3094   1.657   0.604   6.792
  781SOL    HW1 3095   1.619   0.535   6.854
  781SOL    HW2 3096   1.739   0.568   6.748
  782SOL     OW 3097   0.252   1.564   7.330
  782SOL    HW1 3098   0.222   1.621   7.406
  782SOL    HW2 3099   0.245   1.467   7.356
  783SOL     OW 3100   0.671   0.464   6.855
  783SOL    HW1 3101   0.637   0.375   6.825
  783SOL    HW2 3102   0.697   0.518   6.775
  784SOL     OW 3103   0.930   1.678   7.051
  784SOL    HW1 3104   0.906   1.660   6.956
  784SOL    HW2 3105   0.960   1.772   7.061
  785SOL     OW 3106   0.473   0.500   5.777
  785SOL    HW1 3107   0.534   0.580   5.781
  785SOL    HW2 3108   0.378   0.531   5.784
  786SOL     OW 3109   0.159   1.137   7.052
  786SOL    HW1 3110   0.181   1.076   7.128
  786SOL    HW2 3111   0.169   1.088   6.966
  787SOL     OW 3112   1.347   1.059   6.820
  787SOL    HW1 3113   1.371   0.996   6.746
  787SOL    HW2 3114   1.257   1.099   6.802
  788SOL     OW 3115   1.302   0.855   5.895
  788SOL    HW1 3116   1.216   0.824   5.937
  788SOL    HW2 3117   1.298   0.841   5.796
  789SOL     OW 3118   1.759   1.747   6.740
  789SOL    HW1 3119   1.820   1.777   6.667
  789SOL    HW2 3120   1.721   1.658   6.718
  790SOL     OW 3121   1.252   1.731   6.714
  790SOL    HW1 3122   1.336   1.736   6.660
  790SOL    HW2 3123   1.229   1.635   6.732
  791SOL     OW 3124   0.083   1.258   6.608
  791SOL    HW1 3125   0.078   1.257   6.708
  791SOL    HW2 3126   0.000   1.217   6.570
  792SOL     OW 3127   0.688   1.662   7.302
  792SOL    HW1 3128   0.632   1.743   7.311
  792SOL    HW2 3129   0.740   1.666   7.216
  793SOL     OW 3130   1.726   0.135   6.109
  793SOL    HW1 3131   1.799   0.118   6.042
  793SOL    HW2 3132   1.695   0.048   6.147
  794SOL     OW 3133   1.388   1.573   6.063
  794SOL    HW1 3134   1.455   1.585   5.989
  794SOL    HW2 3135   1.348   1.662   6.086
  795SOL     OW 3136   0.130   1.794   7.437
  795SOL    HW1 3137   0.089   1.720   7.490
  795SOL    HW2 3138   0.194   1.845   7.495
  796SOL     OW 3139   1.280   0.927   6.258
  796SOL    HW1 3140   1.340   0.846   6.260
  796SOL    HW2 3141   1.320   0.996   6.198
  797SOL     OW 3142   0.830   1.273   7.008
  797SOL    HW1 3143   0.825   1.306   7.103
  797SOL    HW2 3144   0.744   1.292   6.962
  798SOL     OW 3145   0.672   1.616   5.740
  798SOL    HW1 3146   0.681   1.626   5.641
  798SOL    HW2 3147   0.632   1.527   5.761
  799SOL     OW 3148   1.650   1.720   6.980
  799SOL    HW1 3149   1.703   1.730   6.896
  799SOL    HW2 3150   1.623   1.810   7.014
  800SOL     OW 3151   1.841   0.175   6.549
  800SOL    HW1 3152   1.880   0.090   6.513
  800SOL    HW2 3153   1.743   0.177   6.530
  801SOL     OW 3154   0.263   0.326   6.306
  801SOL    HW1 3155   0.184   0.377   6.272
  801SOL    HW2 3156   0.254   0.311   6.404
  802SOL     OW 3157   1.194   1.612   5.617
  802SOL    HW1 3158   1.200   1.519   5.654
  802SOL    HW2 3159   1.135   1.612   5.537
  803SOL     OW 3160   0.822   1.002   6.958
  803SOL    HW1 3161   0.862   1.001   6.866
  803SOL    HW2 3162   0.832   1.094   6.998
  804SOL     OW 3163   0.916   0.910   5.877
  804SOL    HW1 3164   0.979   0.948   5.809
  804SOL    HW2 3165   0.956   0.827   5.916
  805SOL     OW 3166   1.504   1.607   5.630
  805SOL    HW1 3167   1.412   1.644   5.637
  805SOL    HW2 3168   1.542   1.627   5.540
  806SOL     OW 3169   0.372   1.288   7.076
  806SOL    HW1 3170   0.359   1.381   7.042
  806SOL    HW2 3171   0.288   1.236   7.063
  807SOL     OW 3172   1.614   1.292   6.875
  807SOL    HW1 3173   1.674   1.295   6.955
  807SOL    HW2 3174   1.539   1.356   6.888
  808SOL     OW 3175   1.039   1.098   6.282
  808SOL    HW1 3176   0.969   1.051   6.336
  808SOL    HW2 3177   1.098   1.030   6.239
  809SOL     OW 3178   1.014   0.236   6.557
  809SOL    HW1 3179   1.006   0.200   6.464
  809SOL    HW2 3180   1.012   0.160   6.622
  810SOL     OW 3181   0.590   1.487   6.077
  810SOL    HW1 3182   0.632   1.429   6.007
  810SOL    HW2 3183   0.546   1.566   6.033
  811SOL     OW 3184   1.709   0.385   6.967
  811SOL    HW1 3185   1.782   0.454   6.971
  811SOL    HW2 3186   1.737   0.310   6.908
  812SOL     OW 3187   0.255   1.348   5.876
  812SOL    HW1 3188   0.159   1.349   5.849
  812SOL    HW2 3189   0.267   1.401   5.960
  813SOL     OW 3190   0.105   1.013   7.312
  813SOL    HW1 3191   0.028   0.980   7.366
  813SOL    HW2 3192   0.190   0.983   7.354
  814SOL     OW 3193   0.672   0.203   7.075
  814SOL    HW1 3194   0.762   0.187   7.035
  814SOL    HW2 3195   0.680   0.208   7.174
  815SOL     OW 3196   0.075   0.345   5.619
  815SOL    HW1 3197  -0.017   0.317   5.590
  815SOL    HW2 3198   0.106   0.422   5.563
  816SOL     OW 3199   1.440   0.856   6.984
  816SOL    HW1 3200   1.383   0.908   6.921
  816SOL    HW2 3201   1.536   0.868   6.960
  817SOL     OW 3202   0.072   0.166   5.904
  817SOL    HW1 3203   0.055   0.249   5.850
  817SOL    HW2 3204   0.162   0.129   5.882
  818SOL     OW 3205   1.183   1.335   5.705
  818SOL    HW1 3206   1.084   1.324   5.707
  818SOL    HW2 3207   1.217   1.350   5.798
  819SOL     OW 3208   0.613   0.842   7.017
  819SOL    HW1 3209   0.669   0.923   7.000
  819SOL    HW2 3210   0.672   0.762   7.020
  820SOL     OW 3211   1.493   1.767   6.545
  820SOL    HW1 3212   1.526   1.831   6.476
  820SOL    HW2 3213   1.559   1.761   6.620
  821SOL     OW 3214   0.716   0.565   7.294
  821SOL    HW1 3215   0.735   0.630   7.368
  821SOL    HW2 3216   0.776   0.485   7.303
  822SOL     OW 3217   1.450   1.220   7.219
  822SOL    HW1 3218   1.441   1.210   7.318
  822SOL    HW2 3219   1.546   1.213   7.193
  823SOL     OW 3220   0.390   1.741   7.146
  823SOL    HW1 3221   0.299   1.782   7.144
  823SOL    HW2 3222   0.383   1.647   7.178
  824SOL     OW 3223   1.674   0.883   6.840
  824SOL    HW1 3224   1.647   0.794   6.803
  824SOL    HW2 3225   1.675   0.951   6.767
  825SOL     OW 3226   1.225   0.325   6.035
  825SOL    HW1 3227   1.290   0.251   6.024
  825SOL    HW2 3228   1.245   0.375   6.119
  826SOL     OW 3229   0.594   0.745   6.238
  826SOL    HW1 3230   0.644   0.830   6.219
  826SOL    HW2 3231   0.506   0.747   6.190
  827SOL     OW 3232   1.777   0.342   7.228
  827SOL    HW1 3233   1.760   0.373   7.134
  827SOL    HW2 3234   1.693   0.305   7.266
  828SOL     OW 3235   1.730   0.934   7.103
  828SOL    HW1 3236   1.768   1.025   7.118
  828SOL    HW2 3237   1.722   0.917   7.004
  829SOL     OW 3238   0.859   1.374   5.602
  829SOL    HW1 3239   0.813   1.389   5.690
  829SOL    HW2 3240   0.903   1.459   5.572
  830SOL     OW 3241   0.661   1.790   6.539
  830SOL    HW1 3242   0.615   1.878   6.526
  830SOL    HW2 3243   0.760   1.802   6.532
  831SOL     OW 3244   0.859   0.956   6.447
  831SOL    HW1 3245   0.913   0.887   6.495
  831SOL    HW2 3246   0.827   1.025   6.513
  832SOL     OW 3247   1.083   0.984   5.673
  832SOL    HW1 3248   1.060   1.037   5.591
  832SOL    HW2 3249   1.164   0.928   5.654
  833SOL     OW 3250   1.861   1.569   6.437
  833SOL    HW1 3251   1.790   1.557   6.367
  833SOL    HW2 3252   1.862   1.490   6.497
  834SOL     OW 3253   0.221   1.314   7.430
  834SOL    HW1 3254   0.156   1.241   7.409
  834SOL    HW2 3255   0.225   1.328   7.528
  835SOL     OW 3256   0.079   1.240   6.239
  835SOL    HW1 3257   0.078   1.193   6.327
  835SOL    HW2 3258   0.161   1.212   6.188
  836SOL     OW 3259   0.672   1.391   7.210
  836SOL    HW1 3260   0.594   1.341   7.248
  836SOL    HW2 3261   0.669   1.486   7.241
  837SOL     OW 3262   1.824   0.192   6.813
  837SOL    HW1 3263   1.820   0.102   6.857
  837SOL    HW2 3264   1.827   0.181   6.714
  838SOL     OW 3265   0.428   0.424   6.106
  838SOL    HW1 3266   0.458   0.352   6.044
  838SOL    HW2 3267   0.389   0.384   6.189
  839SOL     OW 3268   1.705   1.487   6.690
  839SOL    HW1 3269   1.612   1.462   6.663
  839SOL    HW2 3270   1.731   1.437   6.772
  840SOL     OW 3271   0.317   0.547   6.866
  840SOL    HW1 3272   0.355   0.488   6.938
  840SOL    HW2 3273   0.357   0.521   6.778
  841SOL     OW 3274   0.812   1.586   6.273
  841SOL    HW1 3275   0.844   1.596   6.179
  841SOL    HW2 3276   0.733   1.524   6.275
  842SOL     OW 3277   1.424   0.214   6.698
  842SOL    HW1 3278   1.476   0.149   6.753
  842SOL    HW2 3279   1.375   0.277   6.759
  843SOL     OW 3280   1.001   0.034   6.740
  843SOL    HW1 3281   0.938  -0.038   6.709
  843SOL    HW2 3282   1.094  -0.002   6.740
  844SOL     OW 3283   0.770   1.330   5.887
  844SOL    HW1 3284   0.724   1.243   5.904
  844SOL    HW2 3285   0.861   1.327   5.928
  845SOL     OW 3286   0.618   1.567   6.870
  845SOL    HW1 3287   0.613   1.649   6.927
  845SOL    HW2 3288   0.707   1.564   6.825
  846SOL     OW 3289   1.352   0.052   5.754
  846SOL    HW1 3290   1.387   0.011   5.670
  846SOL    HW2 3291   1.262   0.014   5.774
  847SOL     OW 3292   1.300   0.453   6.277
  847SOL    HW1 3293   1.241   0.533   6.281
  847SOL    HW2 3294   1.315   0.418   6.370
  848SOL     OW 3295   1.593   0.221   6.468
  848SOL    HW1 3296   1.509   0.220   6.522
  848SOL    HW2 3297   1.595   0.304   6.412
  849SOL     OW 3298   0.039   1.077   5.886
  849SOL    HW1 3299   0.138   1.066   5.877
  849SOL    HW2 3300  -0.001   0.991   5.918
  850SOL     OW 3301   0.875   1.646   5.923
  850SOL    HW1 3302   0.798   1.611   5.869
  850SOL    HW2 3303   0.843   1.717   5.985
  851SOL     OW 3304   0.230   0.628   7.561
  851SOL    HW1 3305   0.137   0.626   7.598
  851SOL    HW2 3306   0.231   0.589   7.469
  852SOL     OW 3307   1.755   0.607   7.679
  852SOL    HW1 3308   1.743   0.594   7.580
  852SOL    HW2 3309   1.725   0.526   7.728
  853SOL     OW 3310   0.231   1.713   7.931
  853SOL    HW1 3311   0.265   1.790   7.985
  853SOL    HW2 3312   0.275   1.713   7.841
  854SOL     OW 3313   0.230   1.434   7.986
  854SOL    HW1 3314   0.204   1.530   7.986
  854SOL    HW2 3315   0.159   1.380   8.031
  855SOL     OW 3316   0.606   0.964   7.571
  855SOL    HW1 3317   0.613   1.048   7.517
  855SOL    HW2 3318   0.652   0.977   7.659
  856SOL     OW 3319   1.842   1.767   7.807
  856SOL    HW1 3320   1.896   1.738   7.887
  856SOL    HW2 3321   1.872   1.857   7.778
  857SOL     OW 3322   0.027   1.596   7.565
  857SOL    HW1 3323   0.008   1.500   7.586
  857SOL    HW2 3324  -0.006   1.654   7.640
  858SOL     OW 3325   1.689   0.922   8.060
  858SOL    HW1 3326   1.784   0.893   8.068
  858SOL    HW2 3327   1.681   0.987   7.985
  859SOL     OW 3328   1.641   1.108   7.880
  859SOL    HW1 3329   1.727   1.110   7.828
  859SOL    HW2 3330   1.655   1.155   7.968
  860SOL     OW 3331   0.809   0.004   7.950
  860SOL    HW1 3332   0.849   0.095   7.941
  860SOL    HW2 3333   0.709   0.012   7.956
  861SOL     OW 3334   1.525   0.999   7.638
  861SOL    HW1 3335   1.462   0.923   7.651
  861SOL    HW2 3336   1.573   1.017   7.724
  862SOL     OW 3337   0.598   0.729   7.718
  862SOL    HW1 3338   0.622   0.798   7.650
  862SOL    HW2 3339   0.520   0.762   7.772
  863SOL     OW 3340   1.576   1.662   7.755
  863SOL    HW1 3341   1.665   1.708   7.758
  863SOL    HW2 3342   1.555   1.638   7.660
  864SOL     OW 3343   0.076   0.811   8.237
  864SOL    HW1 3344   0.175   0.799   8.246
  864SOL    HW2 3345   0.052   0.906   8.258
  865SOL     OW 3346   0.865   0.348   7.643
  865SOL    HW1 3347   0.924   0.411   7.594
  865SOL    HW2 3348   0.884   0.254   7.614
  866SOL     OW 3349   0.321   0.943   7.690
  866SOL    HW1 3350   0.403   0.982   7.648
  866SOL    HW2 3351   0.294   0.861   7.641
  867SOL     OW 3352   1.111   1.776   7.685
  867SOL    HW1 3353   1.051   1.714   7.735
  867SOL    HW2 3354   1.142   1.732   7.600
  868SOL     OW 3355   1.632   1.377   7.529
  868SOL    HW1 3356   1.600   1.471   7.519
  868SOL    HW2 3357   1.556   1.314   7.517
  869SOL     OW 3358   0.464   1.743   7.771
  869SOL    HW1 3359   0.497   1.782   7.857
  869SOL    HW2 3360   0.540   1.736   7.706
  870SOL     OW 3361   1.400   0.107   7.874
  870SOL    HW1 3362   1.376   0.070   7.784
  870SOL    HW2 3363   1.499   0.123   7.878
  871SOL     OW 3364   0.382   0.700   7.928
  871SOL    HW1 3365   0.427   0.610   7.925
  871SOL    HW2 3366   0.288   0.689   7.961
  872SOL     OW 3367   0.614   0.122   7.565
  872SOL    HW1 3368   0.712   0.100   7.572
  872SOL    HW2 3369   0.583   0.105   7.472
  873SOL     OW 3370   0.539   0.064   7.960
  873SOL    HW1 3371   0.458   0.065   8.018
  873SOL    HW2 3372   0.542   0.147   7.905
  874SOL     OW 3373   1.434   1.188   7.489
  874SOL    HW1 3374   1.466   1.112   7.546
  874SOL    HW2 3375   1.342   1.215   7.519
  875SOL     OW 3376   0.297   0.035   7.619
  875SOL    HW1 3377   0.346   0.119   7.598
  875SOL    HW2 3378   0.359  -0.030   7.664
  876SOL     OW 3379   0.935   0.236   7.928
  876SOL    HW1 3380   0.887   0.277   7.850
  876SOL    HW2 3381   1.034   0.234   7.909
  877SOL     OW 3382   0.459   1.152   8.189
  877SOL    HW1 3383   0.388   1.125   8.254
  877SOL    HW2 3384   0.433   1.124   8.096
  878SOL     OW 3385   1.271   1.797   8.039
  878SOL    HW1 3386   1.315   1.861   7.975
  878SOL    HW2 3387   1.221   1.849   8.109
  879SOL     OW 3388   1.032   0.549   7.464
  879SOL    HW1 3389   0.991   0.631   7.425
  879SOL    HW2 3390   1.096   0.575   7.537
  880SOL     OW 3391   1.857   0.833   7.825
  880SOL    HW1 3392   1.899   0.769   7.889
  880SOL    HW2 3393   1.819   0.782   7.747
  881SOL     OW 3394   0.488   1.385   7.622
  881SOL    HW1 3395   0.401   1.370   7.669
  881SOL    HW2 3396   0.471   1.411   7.527
  882SOL     OW 3397   1.390   0.575   7.526
  882SOL    HW1 3398   1.336   0.554   7.607
  882SOL    HW2 3399   1.481   0.534   7.535
  883SOL     OW 3400   0.527   0.256   7.776
  883SOL    HW1 3401   0.554   0.197   7.701
  883SOL    HW2 3402   0.527   0.351   7.745
  884SOL     OW 3403   0.705   1.050   7.816
  884SOL    HW1 3404   0.691   1.057   7.915
  884SOL    HW2 3405   0.789   0.999   7.798
  885SOL     OW 3406   0.367   1.100   7.949
  885SOL    HW1 3407   0.360   1.183   7.893
  885SOL    HW2 3408   0.371   1.020   7.889
  886SOL     OW 3409   1.252   1.348   7.836
  886SOL    HW1 3410   1.302   1.425   7.876
  886SOL    HW2 3411   1.157   1.350   7.868
  887SOL     OW 3412   1.582   0.639   7.920
  887SOL    HW1 3413   1.551   0.700   7.993
  887SOL    HW2 3414   1.632   0.691   7.851
  888SOL     OW 3415   1.209   0.525   7.723
  888SOL    HW1 3416   1.222   0.441   7.777
  888SOL    HW2 3417   1.180   0.599   7.783
  889SOL     OW 3418   1.622   0.367   7.822
  889SOL    HW1 3419   1.624   0.291   7.886
  889SOL    HW2 3420   1.574   0.444   7.862
  890SOL     OW 3421   1.540   0.274   7.573
  890SOL    HW1 3422   1.479   0.199   7.596
  890SOL    HW2 3423   1.562   0.326   7.656
  891SOL     OW 3424   1.303   0.838   7.490
  891SOL    HW1 3425   1.337   0.745   7.505
  891SOL    HW2 3426   1.321   0.865   7.395
  892SOL     OW 3427   0.008   1.326   7.648
  892SOL    HW1 3428  -0.085   1.347   7.617
  892SOL    HW2 3429   0.018   1.227   7.661
  893SOL     OW 3430   0.815   0.572   7.773
  893SOL    HW1 3431   0.822   0.483   7.727
  893SOL    HW2 3432   0.721   0.606   7.765
  894SOL     OW 3433   0.473   0.500   7.639
  894SOL    HW1 3434   0.534   0.580   7.643
  894SOL    HW2 3435   0.378   0.531   7.646
  895SOL     OW 3436   1.302   0.855   7.757
  895SOL    HW1 3437   1.216   0.824   7.799
  895SOL    HW2 3438   1.298   0.841   7.658
  896SOL     OW 3439   1.726   0.135   7.971
  896SOL    HW1 3440   1.799   0.118   7.904
  896SOL    HW2 3441   1.695   0.048   8.009
  897SOL     OW 3442   1.388   1.573   7.925
  897SOL    HW1 3443   1.455   1.585   7.851
  897SOL    HW2 3444   1.348   1.662   7.948
  898SOL     OW 3445   0.672   1.616   7.602
  898SOL    HW1 3446   0.681   1.626   7.503
  898SOL    HW2 3447   0.632   1.527   7.623
  899SOL     OW 3448   1.194   1.612   7.479
  899SOL    HW1 3449   1.200   1.519   7.516
  899SOL    HW2 3450   1.135   1.612   7.399
  900SOL     OW 3451   0.916   0.910   7.739
  900SOL    HW1 3452   0.979   0.948   7.671
  900SOL    HW2 3453   0.956   0.827   7.778
  901SOL     OW 3454   1.504   1.607   7.492
  901SOL    HW1 3455   1.412   1.644   7.499
  901SOL    HW2 3456   1.542   1.627   7.402
  902SOL     OW 3457   0.590   1.487   7.939
  902SOL    HW1 3458   0.632   1.429   7.869
  902SOL    HW2 3459   0.546   1.566   7.895
  903SOL     OW 3460   0.255   1.348   7.738
  903SOL    HW1 3461   0.159   1.349   7.711
  903SOL    HW2 3462   0.267   1.401   7.822
  904SOL     OW 3463   0.075   0.345   7.481
  904SOL    HW1 3464  -0.017   0.317   7.452
  904SOL    HW2 3465   0.106   0.422   7.425
  905SOL     OW 3466   0.072   0.166   7.766
  905SOL    HW1 3467   0.055   0.249   7.712
  905SOL    HW2 3468   0.162   0.129   7.744
  906SOL     OW 3469   1.183   1.335   7.567
  906SOL    HW1 3470   1.084   1.324   7.569
  906SOL    HW2 3471   1.217   1.350   7.660
  907SOL     OW 3472   1.225   0.325   7.897
  907SOL    HW1 3473   1.290   0.251   7.886
  907SOL    HW2 3474   1.245   0.375   7.981
  908SOL     OW 3475   0.594   0.745   8.100
  908SOL    HW1 3476   0.644   0.830   8.081
  908SOL    HW2 3477   0.506   0.747   8.052
  909SOL     OW 3478   0.859   1.374   7.464
  909SOL    HW1 3479   0.813   1.389   7.552
  909SOL    HW2 3480   0.903   1.459   7.434
  910SOL     OW 3481   1.083   0.984   7.535
  910SOL    HW1 3482   1.060   1.037   7.453
  910SOL    HW2 3483   1.164   0.928   7.516
  911SOL     OW 3484   0.428   0.424   7.968
  911SOL    HW1 3485   0.458   0.352   7.906
  911SOL    HW2 3486   0.389   0.384   8.051
  912SOL     OW 3487   0.770   1.330   7.749
  912SOL    HW1 3488   0.724   1.243   7.766
  912SOL    HW2 3489   0.861   1.327   7.790
  913SOL     OW 3490   1.352   0.052   7.616
  913SOL    HW1 3491   1.387   0.011   7.532
  913SOL    HW2 3492   1.262   0.014   7.636
  914SOL     OW 3493   0.039   1.077   7.748
  914SOL    HW1 3494   0.138   1.066   7.739
  914SOL    HW2 3495  -0.001   0.991   7.780
  915SOL     OW 3496   0.875   1.646   7.785
  915SOL    HW1 3497   0.798   1.611   7.731
  915SOL    HW2 3498   0.843   1.717   7.847
  916SOL     OW 3499   0.230   2.490   0.113
  916SOL    HW1 3500   0.137   2.488   0.150
  916SOL    HW2 3501   0.231   2.451   0.021
  917SOL     OW 3502   0.225   2.137   0.996
  917SOL    HW1 3503   0.260   2.120   1.088
  917SOL    HW2 3504   0.137   2.092   0.984
  918SOL     OW 3505   0.019   2.230   0.647
  918SOL    HW1 3506  -0.063   2.273   0.686
  918SOL    HW2 3507  -0.009   2.157   0.584
  919SOL     OW 3508   0.569   3.137   1.165
  919SOL    HW1 3509   0.476   3.130   1.128
  919SOL    HW2 3510   0.580   3.226   1.209
  920SOL     OW 3511   1.555   3.373   0.703
  920SOL    HW1 3512   1.498   3.357   0.784
  920SOL    HW2 3513   1.496   3.383   0.623
  921SOL     OW 3514   1.135   2.565   0.717
  921SOL    HW1 3515   1.192   2.643   0.692
  921SOL    HW2 3516   1.075   2.591   0.793
  922SOL     OW 3517   1.755   2.469   0.231
  922SOL    HW1 3518   1.743   2.456   0.132
  922SOL    HW2 3519   1.725   2.388   0.280
  923SOL     OW 3520   0.768   3.006   1.023
  923SOL    HW1 3521   0.690   3.023   1.083
  923SOL    HW2 3522   0.802   3.093   0.987
  924SOL     OW 3523   0.850   2.660   1.823
  924SOL    HW1 3524   0.846   2.736   1.888
  924SOL    HW2 3525   0.872   2.696   1.732
  925SOL     OW 3526   0.685   2.874   0.665
  925SOL    HW1 3527   0.754   2.858   0.735
  925SOL    HW2 3528   0.612   2.931   0.703
  926SOL     OW 3529   0.686   3.023   1.803
  926SOL    HW1 3530   0.746   3.102   1.817
  926SOL    HW2 3531   0.600   3.054   1.762
  927SOL     OW 3532   0.335   3.297   1.061
  927SOL    HW1 3533   0.257   3.266   1.008
  927SOL    HW2 3534   0.393   3.355   1.004
  928SOL     OW 3535   1.460   3.367   1.339
  928SOL    HW1 3536   1.484   3.461   1.365
  928SOL    HW2 3537   1.444   3.313   1.421
  929SOL     OW 3538   0.438   2.254   1.499
  929SOL    HW1 3539   0.520   2.198   1.508
  929SOL    HW2 3540   0.357   2.196   1.503
  930SOL     OW 3541   1.603   2.309   0.737
  930SOL    HW1 3542   1.529   2.355   0.687
  930SOL    HW2 3543   1.654   2.377   0.790
  931SOL     OW 3544   0.231   3.575   0.483
  931SOL    HW1 3545   0.265   3.652   0.537
  931SOL    HW2 3546   0.275   3.575   0.393
  932SOL     OW 3547   1.127   3.203   1.690
  932SOL    HW1 3548   1.174   3.203   1.778
  932SOL    HW2 3549   1.079   3.116   1.679
  933SOL     OW 3550   0.230   3.296   0.538
  933SOL    HW1 3551   0.204   3.392   0.538
  933SOL    HW2 3552   0.159   3.242   0.583
  934SOL     OW 3553   0.240   2.953   0.886
  934SOL    HW1 3554   0.254   2.869   0.938
  934SOL    HW2 3555   0.185   3.017   0.941
  935SOL     OW 3556   0.620   3.648   1.439
  935SOL    HW1 3557   0.528   3.631   1.474
  935SOL    HW2 3558   0.648   3.740   1.465
  936SOL     OW 3559   0.606   2.826   0.123
  936SOL    HW1 3560   0.613   2.910   0.069
  936SOL    HW2 3561   0.652   2.839   0.211
  937SOL     OW 3562   1.594   1.976   1.480
  937SOL    HW1 3563   1.576   2.043   1.408
  937SOL    HW2 3564   1.591   2.022   1.569
  938SOL     OW 3565   0.122   2.505   0.563
  938SOL    HW1 3566   0.077   2.417   0.580
  938SOL    HW2 3567   0.121   2.559   0.647
  939SOL     OW 3568   1.842   3.629   0.359
  939SOL    HW1 3569   1.896   3.600   0.439
  939SOL    HW2 3570   1.872   3.719   0.330
  940SOL     OW 3571   0.027   3.458   0.117
  940SOL    HW1 3572   0.008   3.362   0.138
  940SOL    HW2 3573  -0.006   3.516   0.192
  941SOL     OW 3574   1.689   2.784   0.612
  941SOL    HW1 3575   1.784   2.755   0.620
  941SOL    HW2 3576   1.681   2.849   0.537
  942SOL     OW 3577   1.641   2.970   0.432
  942SOL    HW1 3578   1.727   2.972   0.380
  942SOL    HW2 3579   1.655   3.017   0.520
  943SOL     OW 3580   0.113   2.599   1.597
  943SOL    HW1 3581   0.201   2.586   1.642
  943SOL    HW2 3582   0.100   2.696   1.575
  944SOL     OW 3583   0.613   3.227   0.726
  944SOL    HW1 3584   0.564   3.140   0.735
  944SOL    HW2 3585   0.590   3.270   0.639
  945SOL     OW 3586   1.293   3.090   1.423
  945SOL    HW1 3587   1.330   3.017   1.365
  945SOL    HW2 3588   1.345   3.095   1.508
  946SOL     OW 3589   0.809   1.866   0.502
  946SOL    HW1 3590   0.849   1.957   0.493
  946SOL    HW2 3591   0.709   1.874   0.508
  947SOL     OW 3592   0.197   2.838   1.264
  947SOL    HW1 3593   0.286   2.793   1.250
  947SOL    HW2 3594   0.124   2.773   1.245
  948SOL     OW 3595   1.525   2.861   0.190
  948SOL    HW1 3596   1.462   2.785   0.203
  948SOL    HW2 3597   1.573   2.879   0.276
  949SOL     OW 3598   1.187   3.654   1.616
  949SOL    HW1 3599   1.211   3.714   1.540
  949SOL    HW2 3600   1.194   3.559   1.586
  950SOL     OW 3601   0.317   2.113   1.801
  950SOL    HW1 3602   0.388   2.184   1.807
  950SOL    HW2 3603   0.229   2.152   1.829
  951SOL     OW 3604   1.466   3.279   0.953
  951SOL    HW1 3605   1.407   3.285   1.033
  951SOL    HW2 3606   1.451   3.191   0.907
  952SOL     OW 3607   1.667   3.576   0.572
  952SOL    HW1 3608   1.626   3.553   0.484
  952SOL    HW2 3609   1.649   3.502   0.637
  953SOL     OW 3610   0.598   2.591   0.270
  953SOL    HW1 3611   0.622   2.660   0.202
  953SOL    HW2 3612   0.520   2.624   0.324
  954SOL     OW 3613   1.281   2.207   0.944
  954SOL    HW1 3614   1.195   2.157   0.931
  954SOL    HW2 3615   1.343   2.153   1.000
  955SOL     OW 3616   1.576   3.524   0.307
  955SOL    HW1 3617   1.665   3.570   0.310
  955SOL    HW2 3618   1.555   3.500   0.212
  956SOL     OW 3619   0.807   2.467   1.465
  956SOL    HW1 3620   0.760   2.464   1.554
  956SOL    HW2 3621   0.756   2.412   1.399
  957SOL     OW 3622   1.394   2.331   1.674
  957SOL    HW1 3623   1.374   2.374   1.762
  957SOL    HW2 3624   1.472   2.269   1.683
  958SOL     OW 3625   0.973   2.752   1.572
  958SOL    HW1 3626   1.019   2.668   1.543
  958SOL    HW2 3627   0.917   2.786   1.497
  959SOL     OW 3628   0.991   2.272   1.242
  959SOL    HW1 3629   0.914   2.306   1.296
  959SOL    HW2 3630   0.957   2.221   1.163
  960SOL     OW 3631   1.041   2.563   0.429
  960SOL    HW1 3632   1.067   2.559   0.525
  960SOL    HW2 3633   0.956   2.512   0.415
  961SOL     OW 3634   0.076   2.673   0.789
  961SOL    HW1 3635   0.175   2.661   0.798
  961SOL    HW2 3636   0.052   2.768   0.810
  962SOL     OW 3637   0.130   3.683   1.571
  962SOL    HW1 3638   0.120   3.668   1.670
  962SOL    HW2 3639   0.044   3.719   1.535
  963SOL     OW 3640   0.865   2.210   0.195
  963SOL    HW1 3641   0.924   2.273   0.146
  963SOL    HW2 3642   0.884   2.116   0.166
  964SOL     OW 3643   1.719   2.447   1.831
  964SOL    HW1 3644   1.693   2.536   1.795
  964SOL    HW2 3645   1.717   2.379   1.758
  965SOL     OW 3646   1.362   3.006   0.545
  965SOL    HW1 3647   1.445   2.977   0.497
  965SOL    HW2 3648   1.313   3.073   0.489
  966SOL     OW 3649   0.550   2.058   0.885
  966SOL    HW1 3650   0.545   2.053   0.985
  966SOL    HW2 3651   0.552   2.154   0.856
  967SOL     OW 3652   1.008   3.318   0.477
  967SOL    HW1 3653   0.962   3.390   0.425
  967SOL    HW2 3654   1.004   3.338   0.575
  968SOL     OW 3655   0.351   3.663   0.853
  968SOL    HW1 3656   0.401   3.577   0.859
  968SOL    HW2 3657   0.416   3.740   0.850
  969SOL     OW 3658   1.795   2.928   0.873
  969SOL    HW1 3659   1.733   2.913   0.797
  969SOL    HW2 3660   1.743   2.939   0.958
  970SOL     OW 3661   1.227   3.412   1.506
  970SOL    HW1 3662   1.233   3.335   1.570
  970SOL    HW2 3663   1.175   3.386   1.426
  971SOL     OW 3664   0.321   2.805   0.242
  971SOL    HW1 3665   0.403   2.844   0.200
  971SOL    HW2 3666   0.294   2.723   0.193
  972SOL     OW 3667   1.458   2.597   0.728
  972SOL    HW1 3668   1.453   2.532   0.803
  972SOL    HW2 3669   1.538   2.656   0.741
  973SOL     OW 3670   0.461   3.128   1.727
  973SOL    HW1 3671   0.411   3.129   1.641
  973SOL    HW2 3672   0.398   3.110   1.803
  974SOL     OW 3673   1.111   3.638   0.237
  974SOL    HW1 3674   1.051   3.576   0.287
  974SOL    HW2 3675   1.142   3.594   0.152
  975SOL     OW 3676   0.202   2.147   1.498
  975SOL    HW1 3677   0.122   2.207   1.485
  975SOL    HW2 3678   0.192   2.098   1.584
  976SOL     OW 3679   1.632   3.239   0.081
  976SOL    HW1 3680   1.600   3.333   0.071
  976SOL    HW2 3681   1.556   3.176   0.069
  977SOL     OW 3682   0.464   3.605   0.323
  977SOL    HW1 3683   0.497   3.644   0.409
  977SOL    HW2 3684   0.540   3.598   0.258
  978SOL     OW 3685   1.400   1.969   0.426
  978SOL    HW1 3686   1.376   1.932   0.336
  978SOL    HW2 3687   1.499   1.985   0.430
  979SOL     OW 3688   0.249   3.647   1.241
  979SOL    HW1 3689   0.306   3.582   1.291
  979SOL    HW2 3690   0.233   3.614   1.148
  980SOL     OW 3691   0.940   3.560   0.904
  980SOL    HW1 3692   1.020   3.503   0.925
  980SOL    HW2 3693   0.891   3.520   0.827
  981SOL     OW 3694   0.382   2.562   0.480
  981SOL    HW1 3695   0.427   2.472   0.477
  981SOL    HW2 3696   0.288   2.551   0.513
  982SOL     OW 3697   1.547   2.084   1.729
  982SOL    HW1 3698   1.542   2.121   1.821
  982SOL    HW2 3699   1.475   2.015   1.717
  983SOL     OW 3700   0.614   1.984   0.117
  983SOL    HW1 3701   0.712   1.962   0.124
  983SOL    HW2 3702   0.583   1.967   0.024
  984SOL     OW 3703   0.781   2.126   1.749
  984SOL    HW1 3704   0.848   2.065   1.792
  984SOL    HW2 3705   0.708   2.145   1.814
  985SOL     OW 3706   0.888   3.376   1.195
  985SOL    HW1 3707   0.865   3.351   1.101
  985SOL    HW2 3708   0.949   3.307   1.234
  986SOL     OW 3709   1.351   2.452   1.433
  986SOL    HW1 3710   1.379   2.409   1.518
  986SOL    HW2 3711   1.376   2.548   1.434
  987SOL     OW 3712   0.803   3.264   0.924
  987SOL    HW1 3713   0.893   3.278   0.882
  987SOL    HW2 3714   0.732   3.266   0.853
  988SOL     OW 3715   0.922   2.365   0.899
  988SOL    HW1 3716   0.897   2.356   0.803
  988SOL    HW2 3717   0.970   2.283   0.930
  989SOL     OW 3718   0.539   1.926   0.512
  989SOL    HW1 3719   0.458   1.927   0.570
  989SOL    HW2 3720   0.542   2.009   0.457
  990SOL     OW 3721   1.434   3.050   0.041
  990SOL    HW1 3722   1.466   2.974   0.098
  990SOL    HW2 3723   1.342   3.077   0.071
  991SOL     OW 3724   0.297   1.897   0.171
  991SOL    HW1 3725   0.346   1.981   0.150
  991SOL    HW2 3726   0.359   1.832   0.216
  992SOL     OW 3727   0.935   2.098   0.480
  992SOL    HW1 3728   0.887   2.139   0.402
  992SOL    HW2 3729   1.034   2.096   0.461
  993SOL     OW 3730   1.076   2.545   1.464
  993SOL    HW1 3731   0.996   2.484   1.467
  993SOL    HW2 3732   1.157   2.492   1.440
  994SOL     OW 3733   1.227   3.432   0.793
  994SOL    HW1 3734   1.248   3.506   0.728
  994SOL    HW2 3735   1.295   3.432   0.866
  995SOL     OW 3736   0.459   3.014   0.741
  995SOL    HW1 3737   0.388   2.987   0.806
  995SOL    HW2 3738   0.433   2.986   0.648
  996SOL     OW 3739   1.271   3.659   0.591
  996SOL    HW1 3740   1.315   3.723   0.527
  996SOL    HW2 3741   1.221   3.711   0.661
  997SOL     OW 3742   1.032   2.411   0.016
  997SOL    HW1 3743   0.991   2.493  -0.023
  997SOL    HW2 3744   1.096   2.437   0.089
  998SOL     OW 3745   0.078   2.418   1.386
  998SOL    HW1 3746   0.170   2.417   1.345
  998SOL    HW2 3747   0.072   2.492   1.453
  999SOL     OW 3748   0.561   2.084   1.147
  999SOL    HW1 3749   0.599   2.000   1.184
  999SOL    HW2 3750   0.473   2.103   1.191
 1000SOL     OW 3751   0.866   2.316   0.642
 1000SOL    HW1 3752   0.834   2.388   0.580
 1000SOL    HW2 3753   0.890   2.235   0.589
 1001SOL     OW 3754   1.017   1.901   0.753
 1001SOL    HW1 3755   0.945   1.906   0.684
 1001SOL    HW2 3756   0.993   1.832   0.822
 1002SOL     OW 3757   1.429   3.035   0.867
 1002SOL    HW1 3758   1.374   2.951   0.860
 1002SOL    HW2 3759   1.455   3.064   0.775
 1003SOL     OW 3760   1.466   2.452   0.992
 1003SOL    HW1 3761   1.436   2.357   0.999
 1003SOL    HW2 3762   1.539   2.468   1.058
 1004SOL     OW 3763   1.857   2.695   0.377
 1004SOL    HW1 3764   1.899   2.631   0.441
 1004SOL    HW2 3765   1.819   2.644   0.299
 1005SOL     OW 3766   0.488   3.247   0.174
 1005SOL    HW1 3767   0.401   3.232   0.221
 1005SOL    HW2 3768   0.471   3.273   0.079
 1006SOL     OW 3769   1.664   3.142   0.657
 1006SOL    HW1 3770   1.763   3.150   0.671
 1006SOL    HW2 3771   1.619   3.226   0.688
 1007SOL     OW 3772   1.390   2.437   0.078
 1007SOL    HW1 3773   1.336   2.416   0.159
 1007SOL    HW2 3774   1.481   2.396   0.087
 1008SOL     OW 3775   0.527   2.118   0.328
 1008SOL    HW1 3776   0.554   2.059   0.253
 1008SOL    HW2 3777   0.527   2.213   0.297
 1009SOL     OW 3778   1.754   3.085   1.588
 1009SOL    HW1 3779   1.845   3.046   1.575
 1009SOL    HW2 3780   1.762   3.181   1.612
 1010SOL     OW 3781   1.064   3.209   1.340
 1010SOL    HW1 3782   0.984   3.186   1.395
 1010SOL    HW2 3783   1.147   3.183   1.389
 1011SOL     OW 3784   1.592   3.491   1.625
 1011SOL    HW1 3785   1.619   3.525   1.535
 1011SOL    HW2 3786   1.671   3.453   1.671
 1012SOL     OW 3787   1.111   3.057   1.100
 1012SOL    HW1 3788   1.071   3.101   1.181
 1012SOL    HW2 3789   1.070   3.094   1.017
 1013SOL     OW 3790   1.638   2.961   1.079
 1013SOL    HW1 3791   1.643   3.042   1.138
 1013SOL    HW2 3792   1.552   2.963   1.028
 1014SOL     OW 3793   0.915   1.951   1.402
 1014SOL    HW1 3794   0.940   1.931   1.307
 1014SOL    HW2 3795   0.987   2.007   1.444
 1015SOL     OW 3796   0.980   2.978   1.719
 1015SOL    HW1 3797   0.881   2.984   1.729
 1015SOL    HW2 3798   1.003   2.898   1.663
 1016SOL     OW 3799   0.705   2.912   0.368
 1016SOL    HW1 3800   0.691   2.919   0.467
 1016SOL    HW2 3801   0.789   2.861   0.350
 1017SOL     OW 3802   0.410   2.675   1.251
 1017SOL    HW1 3803   0.496   2.687   1.301
 1017SOL    HW2 3804   0.368   2.588   1.278
 1018SOL     OW 3805   1.274   2.248   1.262
 1018SOL    HW1 3806   1.295   2.322   1.326
 1018SOL    HW2 3807   1.185   2.265   1.219
 1019SOL     OW 3808   0.064   3.426   1.331
 1019SOL    HW1 3809   0.018   3.508   1.297
 1019SOL    HW2 3810   0.162   3.445   1.340
 1020SOL     OW 3811   0.367   2.962   0.501
 1020SOL    HW1 3812   0.360   3.045   0.445
 1020SOL    HW2 3813   0.371   2.882   0.441
 1021SOL     OW 3814   0.566   2.399   0.865
 1021SOL    HW1 3815   0.578   2.465   0.791
 1021SOL    HW2 3816   0.612   2.433   0.948
 1022SOL     OW 3817   1.252   3.210   0.388
 1022SOL    HW1 3818   1.302   3.287   0.428
 1022SOL    HW2 3819   1.157   3.212   0.420
 1023SOL     OW 3820   1.272   3.307   1.142
 1023SOL    HW1 3821   1.319   3.320   1.229
 1023SOL    HW2 3822   1.206   3.233   1.151
 1024SOL     OW 3823   1.582   2.501   0.472
 1024SOL    HW1 3824   1.551   2.562   0.545
 1024SOL    HW2 3825   1.632   2.553   0.403
 1025SOL     OW 3826   0.354   3.372   1.329
 1025SOL    HW1 3827   0.333   3.328   1.242
 1025SOL    HW2 3828   0.451   3.398   1.332
 1026SOL     OW 3829   0.402   2.613   1.598
 1026SOL    HW1 3830   0.470   2.668   1.551
 1026SOL    HW2 3831   0.442   2.525   1.625
 1027SOL     OW 3832   1.587   2.641   1.670
 1027SOL    HW1 3833   1.495   2.679   1.665
 1027SOL    HW2 3834   1.647   2.688   1.605
 1028SOL     OW 3835   1.013   1.967   1.770
 1028SOL    HW1 3836   1.019   2.052   1.718
 1028SOL    HW2 3837   1.045   1.891   1.713
 1029SOL     OW 3838   0.504   1.912   1.740
 1029SOL    HW1 3839   0.462   1.855   1.670
 1029SOL    HW2 3840   0.438   1.981   1.772
 1030SOL     OW 3841   0.573   2.732   1.029
 1030SOL    HW1 3842   0.617   2.821   1.020
 1030SOL    HW2 3843   0.510   2.732   1.106
 1031SOL     OW 3844   1.360   2.724   1.045
 1031SOL    HW1 3845   1.285   2.724   0.979
 1031SOL    HW2 3846   1.397   2.632   1.054
 1032SOL     OW 3847   1.209   2.387   0.275
 1032SOL    HW1 3848   1.222   2.303   0.329
 1032SOL    HW2 3849   1.180   2.461   0.335
 1033SOL     OW 3850   0.307   2.075   1.231
 1033SOL    HW1 3851   0.284   2.112   1.321
 1033SOL    HW2 3852   0.277   1.980   1.225
 1034SOL     OW 3853   0.037   3.172   1.282
 1034SOL    HW1 3854   0.090   3.123   1.350
 1034SOL    HW2 3855   0.059   3.270   1.287
 1035SOL     OW 3856   0.732   2.496   1.064
 1035SOL    HW1 3857   0.791   2.470   0.988
 1035SOL    HW2 3858   0.704   2.592   1.053
 1036SOL     OW 3859   1.728   2.797   1.854
 1036SOL    HW1 3860   1.682   2.790   1.765
 1036SOL    HW2 3861   1.666   2.841   1.920
 1037SOL     OW 3862   0.307   1.925   0.618
 1037SOL    HW1 3863   0.296   2.019   0.651
 1037SOL    HW2 3864   0.302   1.862   0.695
 1038SOL     OW 3865   1.622   2.229   0.374
 1038SOL    HW1 3866   1.624   2.153   0.438
 1038SOL    HW2 3867   1.574   2.306   0.414
 1039SOL     OW 3868   1.023   2.628   0.966
 1039SOL    HW1 3869   1.038   2.649   1.062
 1039SOL    HW2 3870   0.993   2.533   0.957
 1040SOL     OW 3871   0.980   3.435   1.700
 1040SOL    HW1 3872   0.960   3.479   1.612
 1040SOL    HW2 3873   1.019   3.344   1.684
 1041SOL     OW 3874   1.859   3.380   1.605
 1041SOL    HW1 3875   1.873   3.407   1.510
 1041SOL    HW2 3876   1.942   3.402   1.658
 1042SOL     OW 3877   0.350   2.760   1.804
 1042SOL    HW1 3878   0.426   2.804   1.852
 1042SOL    HW2 3879   0.385   2.713   1.722
 1043SOL     OW 3880   1.540   2.136   0.125
 1043SOL    HW1 3881   1.479   2.061   0.148
 1043SOL    HW2 3882   1.562   2.188   0.208
 1044SOL     OW 3883   1.303   2.700   0.042
 1044SOL    HW1 3884   1.337   2.607   0.057
 1044SOL    HW2 3885   1.321   2.727  -0.053
 1045SOL     OW 3886   1.068   3.195   0.849
 1045SOL    HW1 3887   1.075   3.111   0.794
 1045SOL    HW2 3888   1.130   3.264   0.813
 1046SOL     OW 3889   0.319   2.672   0.949
 1046SOL    HW1 3890   0.412   2.708   0.954
 1046SOL    HW2 3891   0.313   2.587   1.001
 1047SOL     OW 3892   0.339   2.371   1.006
 1047SOL    HW1 3893   0.287   2.288   0.989
 1047SOL    HW2 3894   0.416   2.376   0.942
 1048SOL     OW 3895   1.138   2.242   1.678
 1048SOL    HW1 3896   1.093   2.305   1.742
 1048SOL    HW2 3897   1.231   2.273   1.661
 1049SOL     OW 3898   1.160   2.069   1.477
 1049SOL    HW1 3899   1.160   2.133   1.554
 1049SOL    HW2 3900   1.188   2.117   1.394
 1050SOL     OW 3901   0.008   3.188   0.200
 1050SOL    HW1 3902  -0.085   3.209   0.169
 1050SOL    HW2 3903   0.018   3.089   0.213
 1051SOL     OW 3904   0.088   3.663   0.927
 1051SOL    HW1 3905   0.046   3.577   0.900
 1051SOL    HW2 3906   0.182   3.666   0.893
 1052SOL     OW 3907   0.504   3.430   0.910
 1052SOL    HW1 3908   0.570   3.504   0.919
 1052SOL    HW2 3909   0.548   3.351   0.868
 1053SOL     OW 3910   1.002   2.658   1.238
 1053SOL    HW1 3911   1.043   2.626   1.324
 1053SOL    HW2 3912   0.906   2.631   1.235
 1054SOL     OW 3913   0.040   2.406   1.114
 1054SOL    HW1 3914   0.125   2.373   1.073
 1054SOL    HW2 3915   0.053   2.421   1.212
 1055SOL     OW 3916   0.189   2.382   1.722
 1055SOL    HW1 3917   0.248   2.342   1.652
 1055SOL    HW2 3918   0.131   2.453   1.681
 1056SOL     OW 3919   1.369   2.812   1.660
 1056SOL    HW1 3920   1.408   2.901   1.680
 1056SOL    HW2 3921   1.379   2.792   1.563
 1057SOL     OW 3922   0.815   2.434   0.325
 1057SOL    HW1 3923   0.822   2.345   0.279
 1057SOL    HW2 3924   0.721   2.468   0.317
 1058SOL     OW 3925   1.657   2.466   1.206
 1058SOL    HW1 3926   1.619   2.397   1.268
 1058SOL    HW2 3927   1.739   2.430   1.162
 1059SOL     OW 3928   0.252   3.426   1.744
 1059SOL    HW1 3929   0.222   3.483   1.820
 1059SOL    HW2 3930   0.245   3.329   1.770
 1060SOL     OW 3931   0.671   2.326   1.269
 1060SOL    HW1 3932   0.637   2.237   1.239
 1060SOL    HW2 3933   0.697   2.380   1.189
 1061SOL     OW 3934   0.930   3.540   1.465
 1061SOL    HW1 3935   0.906   3.522   1.370
 1061SOL    HW2 3936   0.960   3.634   1.475
 1062SOL     OW 3937   0.473   2.362   0.191
 1062SOL    HW1 3938   0.534   2.442   0.195
 1062SOL    HW2 3939   0.378   2.393   0.198
 1063SOL     OW 3940   0.159   2.999   1.466
 1063SOL    HW1 3941   0.181   2.938   1.542
 1063SOL    HW2 3942   0.169   2.950   1.380
 1064SOL     OW 3943   1.347   2.921   1.234
 1064SOL    HW1 3944   1.371   2.858   1.160
 1064SOL    HW2 3945   1.257   2.961   1.216
 1065SOL     OW 3946   1.302   2.717   0.309
 1065SOL    HW1 3947   1.216   2.686   0.351
 1065SOL    HW2 3948   1.298   2.703   0.210
 1066SOL     OW 3949   1.759   3.609   1.154
 1066SOL    HW1 3950   1.820   3.639   1.081
 1066SOL    HW2 3951   1.721   3.520   1.132
 1067SOL     OW 3952   1.252   3.593   1.128
 1067SOL    HW1 3953   1.336   3.598   1.074
 1067SOL    HW2 3954   1.229   3.497   1.146
 1068SOL     OW 3955   0.083   3.120   1.022
 1068SOL    HW1 3956   0.078   3.119   1.122
 1068SOL    HW2 3957   0.000   3.079   0.984
 1069SOL     OW 3958   0.688   3.524   1.716
 1069SOL    HW1 3959   0.632   3.605   1.725
 1069SOL    HW2 3960   0.740   3.528   1.630
 1070SOL     OW 3961   0.903   1.948   0.133
 1070SOL    HW1 3962   0.954   1.949   0.047
 1070SOL    HW2 3963   0.959   1.906   0.204
 1071SOL     OW 3964   1.726   1.997   0.523
 1071SOL    HW1 3965   1.799   1.980   0.456
 1071SOL    HW2 3966   1.695   1.910   0.561
 1072SOL     OW 3967   1.388   3.435   0.477
 1072SOL    HW1 3968   1.455   3.447   0.403
 1072SOL    HW2 3969   1.348   3.524   0.500
 1073SOL     OW 3970   0.130   3.656   1.851
 1073SOL    HW1 3971   0.089   3.582   1.904
 1073SOL    HW2 3972   0.194   3.707   1.909
 1074SOL     OW 3973   1.280   2.789   0.672
 1074SOL    HW1 3974   1.340   2.708   0.674
 1074SOL    HW2 3975   1.320   2.858   0.612
 1075SOL     OW 3976   0.830   3.135   1.422
 1075SOL    HW1 3977   0.825   3.168   1.517
 1075SOL    HW2 3978   0.744   3.154   1.376
 1076SOL     OW 3979   0.672   3.478   0.154
 1076SOL    HW1 3980   0.681   3.488   0.055
 1076SOL    HW2 3981   0.632   3.389   0.175
 1077SOL     OW 3982   1.650   3.582   1.394
 1077SOL    HW1 3983   1.703   3.592   1.310
 1077SOL    HW2 3984   1.623   3.672   1.428
 1078SOL     OW 3985   1.841   2.037   0.963
 1078SOL    HW1 3986   1.880   1.952   0.927
 1078SOL    HW2 3987   1.743   2.039   0.944
 1079SOL     OW 3988   0.263   2.188   0.720
 1079SOL    HW1 3989   0.184   2.239   0.686
 1079SOL    HW2 3990   0.254   2.173   0.818
 1080SOL     OW 3991   1.194   3.474   0.031
 1080SOL    HW1 3992   1.200   3.381   0.068
 1080SOL    HW2 3993   1.135   3.474  -0.049
 1081SOL     OW 3994   0.822   2.864   1.372
 1081SOL    HW1 3995   0.862   2.863   1.280
 1081SOL    HW2 3996   0.832   2.956   1.412
 1082SOL     OW 3997   0.916   2.772   0.291
 1082SOL    HW1 3998   0.979   2.810   0.223
 1082SOL    HW2 3999   0.956   2.689   0.330
 1083SOL     OW 4000   1.504   3.469   0.044
 1083SOL    HW1 4001   1.412   3.506   0.051
 1083SOL    HW2 4002   1.542   3.489  -0.046
 1084SOL     OW 4003   0.372   3.150   1.490
 1084SOL    HW1 4004   0.359   3.243   1.456
 1084SOL    HW2 4005   0.288   3.098   1.477
 1085SOL     OW 4006   1.614   3.154   1.289
 1085SOL    HW1 4007   1.674   3.157   1.369
 1085SOL    HW2 4008   1.539   3.218   1.302
 1086SOL     OW 4009   1.039   2.960   0.696
 1086SOL    HW1 4010   0.969   2.913   0.750
 1086SOL    HW2 4011   1.098   2.892   0.653
 1087SOL     OW 4012   1.014   2.098   0.971
 1087SOL    HW1 4013   1.006   2.062   0.878
 1087SOL    HW2 4014   1.012   2.022   1.036
 1088SOL     OW 4015   0.590   3.349   0.491
 1088SOL    HW1 4016   0.632   3.291   0.421
 1088SOL    HW2 4017   0.546   3.428   0.447
 1089SOL     OW 4018   1.709   2.247   1.381
 1089SOL    HW1 4019   1.782   2.316   1.385
 1089SOL    HW2 4020   1.737   2.172   1.322
 1090SOL     OW 4021   0.255   3.210   0.290
 1090SOL    HW1 4022   0.159   3.211   0.263
 1090SOL    HW2 4023   0.267   3.263   0.374
 1091SOL     OW 4024   0.105   2.875   1.726
 1091SOL    HW1 4025   0.028   2.842   1.780
 1091SOL    HW2 4026   0.190   2.845   1.768
 1092SOL     OW 4027   0.672   2.065   1.489
 1092SOL    HW1 4028   0.762   2.049   1.449
 1092SOL    HW2 4029   0.680   2.070   1.588
 1093SOL     OW 4030   0.075   2.207   0.033
 1093SOL    HW1 4031  -0.017   2.179   0.004
 1093SOL    HW2 4032   0.106   2.284  -0.023
 1094SOL     OW 4033   1.440   2.718   1.398
 1094SOL    HW1 4034   1.383   2.770   1.335
 1094SOL    HW2 4035   1.536   2.730   1.374
 1095SOL     OW 4036   0.072   2.028   0.318
 1095SOL    HW1 4037   0.055   2.111   0.264
 1095SOL    HW2 4038   0.162   1.991   0.296
 1096SOL     OW 4039   1.183   3.197   0.119
 1096SOL    HW1 4040   1.084   3.186   0.121
 1096SOL    HW2 4041   1.217   3.212   0.212
 1097SOL     OW 4042   0.613   2.704   1.431
 1097SOL    HW1 4043   0.669   2.785   1.414
 1097SOL    HW2 4044   0.672   2.624   1.434
 1098SOL     OW 4045   1.493   3.629   0.959
 1098SOL    HW1 4046   1.526   3.693   0.890
 1098SOL    HW2 4047   1.559   3.623   1.034
 1099SOL     OW 4048   0.716   2.427   1.708
 1099SOL    HW1 4049   0.735   2.492   1.782
 1099SOL    HW2 4050   0.776   2.347   1.717
 1100SOL     OW 4051   1.450   3.082   1.633
 1100SOL    HW1 4052   1.441   3.072   1.732
 1100SOL    HW2 4053   1.546   3.075   1.607
 1101SOL     OW 4054   0.390   3.603   1.560
 1101SOL    HW1 4055   0.299   3.644   1.558
 1101SOL    HW2 4056   0.383   3.509   1.592
 1102SOL     OW 4057   1.674   2.745   1.254
 1102SOL    HW1 4058   1.647   2.656   1.217
 1102SOL    HW2 4059   1.675   2.813   1.181
 1103SOL     OW 4060   1.225   2.187   0.449
 1103SOL    HW1 4061   1.290   2.113   0.438
 1103SOL    HW2 4062   1.245   2.237   0.533
 1104SOL     OW 4063   0.594   2.607   0.652
 1104SOL    HW1 4064   0.644   2.692   0.633
 1104SOL    HW2 4065   0.506   2.609   0.604
 1105SOL     OW 4066   1.777   2.204   1.642
 1105SOL    HW1 4067   1.760   2.235   1.548
 1105SOL    HW2 4068   1.693   2.167   1.680
 1106SOL     OW 4069   1.730   2.796   1.517
 1106SOL    HW1 4070   1.768   2.887   1.532
 1106SOL    HW2 4071   1.722   2.779   1.418
 1107SOL     OW 4072   0.859   3.236   0.016
 1107SOL    HW1 4073   0.813   3.251   0.104
 1107SOL    HW2 4074   0.903   3.321  -0.014
 1108SOL     OW 4075   0.661   3.652   0.953
 1108SOL    HW1 4076   0.615   3.740   0.940
 1108SOL    HW2 4077   0.760   3.664   0.946
 1109SOL     OW 4078   0.859   2.818   0.861
 1109SOL    HW1 4079   0.913   2.749   0.909
 1109SOL    HW2 4080   0.827   2.887   0.927
 1110SOL     OW 4081   1.083   2.846   0.087
 1110SOL    HW1 4082   1.060   2.899   0.005
 1110SOL    HW2 4083   1.164   2.790   0.068
 1111SOL     OW 4084   1.861   3.431   0.851
 1111SOL    HW1 4085   1.790   3.419   0.781
 1111SOL    HW2 4086   1.862   3.352   0.911
 1112SOL     OW 4087   0.221   3.176   1.844
 1112SOL    HW1 4088   0.156   3.103   1.823
 1112SOL    HW2 4089   0.225   3.190   1.942
 1113SOL     OW 4090   0.079   3.102   0.653
 1113SOL    HW1 4091   0.078   3.055   0.741
 1113SOL    HW2 4092   0.161   3.074   0.602
 1114SOL     OW 4093   0.672   3.253   1.624
 1114SOL    HW1 4094   0.594   3.203   1.662
 1114SOL    HW2 4095   0.669   3.348   1.655
 1115SOL     OW 4096   1.824   2.054   1.227
 1115SOL    HW1 4097   1.820   1.964   1.271
 1115SOL    HW2 4098   1.827   2.043   1.128
 1116SOL     OW 4099   0.428   2.286   0.520
 1116SOL    HW1 4100   0.458   2.214   0.458
 1116SOL    HW2 4101   0.389   2.246   0.603
 1117SOL     OW 4102   1.705   3.349   1.104
 1117SOL    HW1 4103   1.612   3.324   1.077
 1117SOL    HW2 4104   1.731   3.299   1.186
 1118SOL     OW 4105   0.317   2.409   1.280
 1118SOL    HW1 4106   0.355   2.350   1.352
 1118SOL    HW2 4107   0.357   2.383   1.192
 1119SOL     OW 4108   0.812   3.448   0.687
 1119SOL    HW1 4109   0.844   3.458   0.593
 1119SOL    HW2 4110   0.733   3.386   0.689
 1120SOL     OW 4111   1.424   2.076   1.112
 1120SOL    HW1 4112   1.476   2.011   1.167
 1120SOL    HW2 4113   1.375   2.139   1.173
 1121SOL     OW 4114   1.001   1.896   1.154
 1121SOL    HW1 4115   0.938   1.824   1.123
 1121SOL    HW2 4116   1.094   1.860   1.154
 1122SOL     OW 4117   0.770   3.192   0.301
 1122SOL    HW1 4118   0.724   3.105   0.318
 1122SOL    HW2 4119   0.861   3.189   0.342
 1123SOL     OW 4120   0.618   3.429   1.284
 1123SOL    HW1 4121   0.613   3.511   1.341
 1123SOL    HW2 4122   0.707   3.426   1.239
 1124SOL     OW 4123   1.352   1.914   0.168
 1124SOL    HW1 4124   1.387   1.873   0.084
 1124SOL    HW2 4125   1.262   1.876   0.188
 1125SOL     OW 4126   1.300   2.315   0.691
 1125SOL    HW1 4127   1.241   2.395   0.695
 1125SOL    HW2 4128   1.315   2.280   0.784
 1126SOL     OW 4129   1.593   2.083   0.882
 1126SOL    HW1 4130   1.509   2.082   0.936
 1126SOL    HW2 4131   1.595   2.166   0.826
 1127SOL     OW 4132   0.039   2.939   0.300
 1127SOL    HW1 4133   0.138   2.928   0.291
 1127SOL    HW2 4134  -0.001   2.853   0.332
 1128SOL     OW 4135   0.875   3.508   0.337
 1128SOL    HW1 4136   0.798   3.473   0.283
 1128SOL    HW2 4137   0.843   3.579   0.399
 1129SOL     OW 4138   0.230   2.490   1.975
 1129SOL    HW1 4139   0.137   2.488   2.012
 1129SOL    HW2 4140   0.231   2.451   1.883
 1130SOL     OW 4141   0.225   2.137   2.858
 1130SOL    HW1 4142   0.260   2.120   2.950
 1130SOL    HW2 4143   0.137   2.092   2.846
 1131SOL     OW 4144   0.019   2.230   2.509
 1131SOL    HW1 4145  -0.063   2.273   2.548
 1131SOL    HW2 4146  -0.009   2.157   2.446
 1132SOL     OW 4147   0.569   3.137   3.027
 1132SOL    HW1 4148   0.476   3.130   2.990
 1132SOL    HW2 4149   0.580   3.226   3.071
 1133SOL     OW 4150   1.555   3.373   2.565
 1133SOL    HW1 4151   1.498   3.357   2.646
 1133SOL    HW2 4152   1.496   3.383   2.485
 1134SOL     OW 4153   1.135   2.565   2.579
 1134SOL    HW1 4154   1.192   2.643   2.554
 1134SOL    HW2 4155   1.075   2.591   2.655
 1135SOL     OW 4156   1.755   2.469   2.093
 1135SOL    HW1 4157   1.743   2.456   1.994
 1135SOL    HW2 4158   1.725   2.388   2.142
 1136SOL     OW 4159   0.768   3.006   2.885
 1136SOL    HW1 4160   0.690   3.023   2.945
 1136SOL    HW2 4161   0.802   3.093   2.849
 1137SOL     OW 4162   0.850   2.660   3.685
 1137SOL    HW1 4163   0.846   2.736   3.750
 1137SOL    HW2 4164   0.872   2.696   3.594
 1138SOL     OW 4165   0.685   2.874   2.527
 1138SOL    HW1 4166   0.754   2.858   2.597
 1138SOL    HW2 4167   0.612   2.931   2.565
 1139SOL     OW 4168   0.686   3.023   3.665
 1139SOL    HW1 4169   0.746   3.102   3.679
 1139SOL    HW2 4170   0.600   3.054   3.624
 1140SOL     OW 4171   0.335   3.297   2.923
 1140SOL    HW1 4172   0.257   3.266   2.870
 1140SOL    HW2 4173   0.393   3.355   2.866
 1141SOL     OW 4174   1.460   3.367   3.201
 1141SOL    HW1 4175   1.484   3.461   3.227
 1141SOL    HW2 4176   1.444   3.313   3.283
 1142SOL     OW 4177   0.438   2.254   3.361
 1142SOL    HW1 4178   0.520   2.198   3.370
 1142SOL    HW2 4179   0.357   2.196   3.365
 1143SOL     OW 4180   1.603   2.309   2.599
 1143SOL    HW1 4181   1.529   2.355   2.549
 1143SOL    HW2 4182   1.654   2.377   2.652
 1144SOL     OW 4183   0.231   3.575   2.345
 1144SOL    HW1 4184   0.265   3.652   2.399
 1144SOL    HW2 4185   0.275   3.575   2.255
 1145SOL     OW 4186   1.127   3.203   3.552
 1145SOL    HW1 4187   1.174   3.203   3.640
 1145SOL    HW2 4188   1.079   3.116   3.541
 1146SOL     OW 4189   0.230   3.296   2.400
 1146SOL    HW1 4190   0.204   3.392   2.400
 1146SOL    HW2 4191   0.159   3.242   2.445
 1147SOL     OW 4192   0.240   2.953   2.748
 1147SOL    HW1 4193   0.254   2.869   2.800
 1147SOL    HW2 4194   0.185   3.017   2.803
 1148SOL     OW 4195   0.620   3.648   3.301
 1148SOL    HW1 4196   0.528   3.631   3.336
 1148SOL    HW2 4197   0.648   3.740   3.327
 1149SOL     OW 4198   0.606   2.826   1.985
 1149SOL    HW1 4199   0.613   2.910   1.931
 1149SOL    HW2 4200   0.652   2.839   2.073
 1150SOL     OW 4201   1.594   1.976   3.342
 1150SOL    HW1 4202   1.576   2.043   3.270
 1150SOL    HW2 4203   1.591   2.022   3.431
 1151SOL     OW 4204   0.122   2.505   2.425
 1151SOL    HW1 4205   0.077   2.417   2.442
 1151SOL    HW2 4206   0.121   2.559   2.509
 1152SOL     OW 4207   1.842   3.629   2.221
 1152SOL    HW1 4208   1.896   3.600   2.301
 1152SOL    HW2 4209   1.872   3.719   2.192
 1153SOL     OW 4210   0.027   3.458   1.979
 1153SOL    HW1 4211   0.008   3.362   2.000
 1153SOL    HW2 4212  -0.006   3.516   2.054
 1154SOL     OW 4213   1.689   2.784   2.474
 1154SOL    HW1 4214   1.784   2.755   2.482
 1154SOL    HW2 4215   1.681   2.849   2.399
 1155SOL     OW 4216   1.641   2.970   2.294
 1155SOL    HW1 4217   1.727   2.972   2.242
 1155SOL    HW2 4218   1.655   3.017   2.382
 1156SOL     OW 4219   0.113   2.599   3.459
 1156SOL    HW1 4220   0.201   2.586   3.504
 1156SOL    HW2 4221   0.100   2.696   3.437
 1157SOL     OW 4222   0.613   3.227   2.588
 1157SOL    HW1 4223   0.564   3.140   2.597
 1157SOL    HW2 4224   0.590   3.270   2.501
 1158SOL     OW 4225   1.293   3.090   3.285
 1158SOL    HW1 4226   1.330   3.017   3.227
 1158SOL    HW2 4227   1.345   3.095   3.370
 1159SOL     OW 4228   0.809   1.866   2.364
 1159SOL    HW1 4229   0.849   1.957   2.355
 1159SOL    HW2 4230   0.709   1.874   2.370
 1160SOL     OW 4231   0.197   2.838   3.126
 1160SOL    HW1 4232   0.286   2.793   3.112
 1160SOL    HW2 4233   0.124   2.773   3.107
 1161SOL     OW 4234   1.525   2.861   2.052
 1161SOL    HW1 4235   1.462   2.785   2.065
 1161SOL    HW2 4236   1.573   2.879   2.138
 1162SOL     OW 4237   1.187   3.654   3.478
 1162SOL    HW1 4238   1.211   3.714   3.402
 1162SOL    HW2 4239   1.194   3.559   3.448
 1163SOL     OW 4240   0.317   2.113   3.663
 1163SOL    HW1 4241   0.388   2.184   3.669
 1163SOL    HW2 4242   0.229   2.152   3.691
 1164SOL     OW 4243   1.466   3.279   2.815
 1164SOL    HW1 4244   1.407   3.285   2.895
 1164SOL    HW2 4245   1.451   3.191   2.769
 1165SOL     OW 4246   1.667   3.576   2.434
 1165SOL    HW1 4247   1.626   3.553   2.346
 1165SOL    HW2 4248   1.649   3.502   2.499
 1166SOL     OW 4249   0.598   2.591   2.132
 1166SOL    HW1 4250   0.622   2.660   2.064
 1166SOL    HW2 4251   0.520   2.624   2.186
 1167SOL     OW 4252   1.281   2.207   2.806
 1167SOL    HW1 4253   1.195   2.157   2.793
 1167SOL    HW2 4254   1.343   2.153   2.862
 1168SOL     OW 4255   1.576   3.524   2.169
 1168SOL    HW1 4256   1.665   3.570   2.172
 1168SOL    HW2 4257   1.555   3.500   2.074
 1169SOL     OW 4258   0.807   2.467   3.327
 1169SOL    HW1 4259   0.760   2.464   3.416
 1169SOL    HW2 4260   0.756   2.412   3.261
 1170SOL     OW 4261   1.394   2.331   3.536
 1170SOL    HW1 4262   1.374   2.374   3.624
 1170SOL    HW2 4263   1.472   2.269   3.545
 1171SOL     OW 4264   0.973   2.752   3.434
 1171SOL    HW1 4265   1.019   2.668   3.405
 1171SOL    HW2 4266   0.917   2.786   3.359
 1172SOL     OW 4267   0.991   2.272   3.104
 1172SOL    HW1 4268   0.914   2.306   3.158
 1172SOL    HW2 4269   0.957   2.221   3.025
 1173SOL     OW 4270   1.041   2.563   2.291
 1173SOL    HW1 4271   1.067   2.559   2.387
 1173SOL    HW2 4272   0.956   2.512   2.277
 1174SOL     OW 4273   0.076   2.673   2.651
 1174SOL    HW1 4274   0.175   2.661   2.660
 1174SOL    HW2 4275   0.052   2.768   2.672
 1175SOL     OW 4276   0.130   3.683   3.433
 1175SOL    HW1 4277   0.120   3.668   3.532
 1175SOL    HW2 4278   0.044   3.719   3.397
 1176SOL     OW 4279   0.865   2.210   2.057
 1176SOL    HW1 4280   0.924   2.273   2.008
 1176SOL    HW2 4281   0.884   2.116   2.028
 1177SOL     OW 4282   1.719   2.447   3.693
 1177SOL    HW1 4283   1.693   2.536   3.657
 1177SOL    HW2 4284   1.717   2.379   3.620
 1178SOL     OW 4285   1.362   3.006   2.407
 1178SOL    HW1 4286   1.445   2.977   2.359
 1178SOL    HW2 4287   1.313   3.073   2.351
 1179SOL     OW 4288   0.550   2.058   2.747
 1179SOL    HW1 4289   0.545   2.053   2.847
 1179SOL    HW2 4290   0.552   2.154   2.718
 1180SOL     OW 4291   1.008   3.318   2.339
 1180SOL    HW1 4292   0.962   3.390   2.287
 1180SOL    HW2 4293   1.004   3.338   2.437
 1181SOL     OW 4294   0.351   3.663   2.715
 1181SOL    HW1 4295   0.401   3.577   2.721
 1181SOL    HW2 4296   0.416   3.740   2.712
 1182SOL     OW 4297   1.795   2.928   2.735
 1182SOL    HW1 4298   1.733   2.913   2.659
 1182SOL    HW2 4299   1.743   2.939   2.820
 1183SOL     OW 4300   1.227   3.412   3.368
 1183SOL    HW1 4301   1.233   3.335   3.432
 1183SOL    HW2 4302   1.175   3.386   3.288
 1184SOL     OW 4303   0.321   2.805   2.104
 1184SOL    HW1 4304   0.403   2.844   2.062
 1184SOL    HW2 4305   0.294   2.723   2.055
 1185SOL     OW 4306   1.458   2.597   2.590
 1185SOL    HW1 4307   1.453   2.532   2.665
 1185SOL    HW2 4308   1.538   2.656   2.603
 1186SOL     OW 4309   0.461   3.128   3.589
 1186SOL    HW1 4310   0.411   3.129   3.503
 1186SOL    HW2 4311   0.398   3.110   3.665
 1187SOL     OW 4312   1.111   3.638   2.099
 1187SOL    HW1 4313   1.051   3.576   2.149
 1187SOL    HW2 4314   1.142   3.594   2.014
 1188SOL     OW 4315   0.202   2.147   3.360
 1188SOL    HW1 4316   0.122   2.207   3.347
 1188SOL    HW2 4317   0.192   2.098   3.446
 1189SOL     OW 4318   1.632   3.239   1.943
 1189SOL    HW1 4319   1.600   3.333   1.933
 1189SOL    HW2 4320   1.556   3.176   1.931
 1190SOL     OW 4321   0.464   3.605   2.185
 1190SOL    HW1 4322   0.497   3.644   2.271
 1190SOL    HW2 4323   0.540   3.598   2.120
 1191SOL     OW 4324   1.400   1.969   2.288
 1191SOL    HW1 4325   1.376   1.932   2.198
 1191SOL    HW2 4326   1.499   1.985   2.292
 1192SOL     OW 4327   0.249   3.647   3.103
 1192SOL    HW1 4328   0.306   3.582   3.153
 1192SOL    HW2 4329   0.233   3.614   3.010
 1193SOL     OW 4330   0.940   3.560   2.766
 1193SOL    HW1 4331   1.020   3.503   2.787
 1193SOL    HW2 4332   0.891   3.520   2.689
 1194SOL     OW 4333   0.382   2.562   2.342
 1194SOL    HW1 4334   0.427   2.472   2.339
 1194SOL    HW2 4335   0.288   2.551   2.375
 1195SOL     OW 4336   1.547   2.084   3.591
 1195SOL    HW1 4337   1.542   2.121   3.683
 1195SOL    HW2 4338   1.475   2.015   3.579
 1196SOL     OW 4339   0.614   1.984   1.979
 1196SOL    HW1 4340   0.712   1.962   1.986
 1196SOL    HW2 4341   0.583   1.967   1.886
 1197SOL     OW 4342   0.781   2.126   3.611
 1197SOL    HW1 4343   0.848   2.065   3.654
 1197SOL    HW2 4344   0.708   2.145   3.676
 1198SOL     OW 4345   0.888   3.376   3.057
 1198SOL    HW1 4346   0.865   3.351   2.963
 1198SOL    HW2 4347   0.949   3.307   3.096
 1199SOL     OW 4348   1.351   2.452   3.295
 1199SOL    HW1 4349   1.379   2.409   3.380
 1199SOL    HW2 4350   1.376   2.548   3.296
 1200SOL     OW 4351   0.803   3.264   2.786
 1200SOL    HW1 4352   0.893   3.278   2.744
 1200SOL    HW2 4353   0.732   3.266   2.715
 1201SOL     OW 4354   0.922   2.365   2.761
 1201SOL    HW1 4355   0.897   2.356   2.665
 1201SOL    HW2 4356   0.970   2.283   2.792
 1202SOL     OW 4357   0.539   1.926   2.374
 1202SOL    HW1 4358   0.458   1.927   2.432
 1202SOL    HW2 4359   0.542   2.009   2.319
 1203SOL     OW 4360   1.434   3.050   1.903
 1203SOL    HW1 4361   1.466   2.974   1.960
 1203SOL    HW2 4362   1.342   3.077   1.933
 1204SOL     OW 4363   0.297   1.897   2.033
 1204SOL    HW1 4364   0.346   1.981   2.012
 1204SOL    HW2 4365   0.359   1.832   2.078
 1205SOL     OW 4366   0.935   2.098   2.342
 1205SOL    HW1 4367   0.887   2.139   2.264
 1205SOL    HW2 4368   1.034   2.096   2.323
 1206SOL     OW 4369   1.076   2.545   3.326
 1206SOL    HW1 4370   0.996   2.484   3.329
 1206SOL    HW2 4371   1.157   2.492   3.302
 1207SOL     OW 4372   1.227   3.432   2.655
 1207SOL    HW1 4373   1.248   3.506   2.590
 1207SOL    HW2 4374   1.295   3.432   2.728
 1208SOL     OW 4375   0.459   3.014   2.603
 1208SOL    HW1 4376   0.388   2.987   2.668
 1208SOL    HW2 4377   0.433   2.986   2.510
 1209SOL     OW 4378   1.271   3.659   2.453
 1209SOL    HW1 4379   1.315   3.723   2.389
 1209SOL    HW2 4380   1.221   3.711   2.523
 1210SOL     OW 4381   1.032   2.411   1.878
 1210SOL    HW1 4382   0.991   2.493   1.839
 1210SOL    HW2 4383   1.096   2.437   1.951
 1211SOL     OW 4384   0.078   2.418   3.248
 1211SOL    HW1 4385   0.170   2.417   3.207
 1211SOL    HW2 4386   0.072   2.492   3.315
 1212SOL     OW 4387   0.561   2.084   3.009
 1212SOL    HW1 4388   0.599   2.000   3.046
 1212SOL    HW2 4389   0.473   2.103   3.053
 1213SOL     OW 4390   0.866   2.316   2.504
 1213SOL    HW1 4391   0.834   2.388   2.442
 1213SOL    HW2 4392   0.890   2.235   2.451
 1214SOL     OW 4393   1.017   1.901   2.615
 1214SOL    HW1 4394   0.945   1.906   2.546
 1214SOL    HW2 4395   0.993   1.832   2.684
 1215SOL     OW 4396   1.429   3.035   2.729
 1215SOL    HW1 4397   1.374   2.951   2.722
 1215SOL    HW2 4398   1.455   3.064   2.637
 1216SOL     OW 4399   1.466   2.452   2.854
 1216SOL    HW1 4400   1.436   2.357   2.861
 1216SOL    HW2 4401   1.539   2.468   2.920
 1217SOL     OW 4402   1.857   2.695   2.239
 1217SOL    HW1 4403   1.899   2.631   2.303
 1217SOL    HW2 4404   1.819   2.644   2.161
 1218SOL     OW 4405   0.488   3.247   2.036
 1218SOL    HW1 4406   0.401   3.232   2.083
 1218SOL    HW2 4407   0.471   3.273   1.941
 1219SOL     OW 4408   1.664   3.142   2.519
 1219SOL    HW1 4409   1.763   3.150   2.533
 1219SOL    HW2 4410   1.619   3.226   2.550
 1220SOL     OW 4411   1.390   2.437   1.940
 1220SOL    HW1 4412   1.336   2.416   2.021
 1220SOL    HW2 4413   1.481   2.396   1.949
 1221SOL     OW 4414   0.527   2.118   2.190
 1221SOL    HW1 4415   0.554   2.059   2.115
 1221SOL    HW2 4416   0.527   2.213   2.159
 1222SOL     OW 4417   1.064   3.209   3.202
 1222SOL    HW1 4418   0.984   3.186   3.257
 1222SOL    HW2 4419   1.147   3.183   3.251
 1223SOL     OW 4420   1.592   3.491   3.487
 1223SOL    HW1 4421   1.619   3.525   3.397
 1223SOL    HW2 4422   1.671   3.453   3.533
 1224SOL     OW 4423   1.111   3.057   2.962
 1224SOL    HW1 4424   1.071   3.101   3.043
 1224SOL    HW2 4425   1.070   3.094   2.879
 1225SOL     OW 4426   1.638   2.961   2.941
 1225SOL    HW1 4427   1.643   3.042   3.000
 1225SOL    HW2 4428   1.552   2.963   2.890
 1226SOL     OW 4429   0.915   1.951   3.264
 1226SOL    HW1 4430   0.940   1.931   3.169
 1226SOL    HW2 4431   0.987   2.007   3.306
 1227SOL     OW 4432   0.980   2.978   3.581
 1227SOL    HW1 4433   0.881   2.984   3.591
 1227SOL    HW2 4434   1.003   2.898   3.525
 1228SOL     OW 4435   0.705   2.912   2.230
 1228SOL    HW1 4436   0.691   2.919   2.329
 1228SOL    HW2 4437   0.789   2.861   2.212
 1229SOL     OW 4438   0.410   2.675   3.113
 1229SOL    HW1 4439   0.496   2.687   3.163
 1229SOL    HW2 4440   0.368   2.588   3.140
 1230SOL     OW 4441   1.274   2.248   3.124
 1230SOL    HW1 4442   1.295   2.322   3.188
 1230SOL    HW2 4443   1.185   2.265   3.081
 1231SOL     OW 4444   0.064   3.426   3.193
 1231SOL    HW1 4445   0.018   3.508   3.159
 1231SOL    HW2 4446   0.162   3.445   3.202
 1232SOL     OW 4447   0.367   2.962   2.363
 1232SOL    HW1 4448   0.360   3.045   2.307
 1232SOL    HW2 4449   0.371   2.882   2.303
 1233SOL     OW 4450   0.566   2.399   2.727
 1233SOL    HW1 4451   0.578   2.465   2.653
 1233SOL    HW2 4452   0.612   2.433   2.810
 1234SOL     OW 4453   1.252   3.210   2.250
 1234SOL    HW1 4454   1.302   3.287   2.290
 1234SOL    HW2 4455   1.157   3.212   2.282
 1235SOL     OW 4456   1.272   3.307   3.004
 1235SOL    HW1 4457   1.319   3.320   3.091
 1235SOL    HW2 4458   1.206   3.233   3.013
 1236SOL     OW 4459   1.582   2.501   2.334
 1236SOL    HW1 4460   1.551   2.562   2.407
 1236SOL    HW2 4461   1.632   2.553   2.265
 1237SOL     OW 4462   0.354   3.372   3.191
 1237SOL    HW1 4463   0.333   3.328   3.104
 1237SOL    HW2 4464   0.451   3.398   3.194
 1238SOL     OW 4465   0.402   2.613   3.460
 1238SOL    HW1 4466   0.470   2.668   3.413
 1238SOL    HW2 4467   0.442   2.525   3.487
 1239SOL     OW 4468   1.587   2.641   3.532
 1239SOL    HW1 4469   1.495   2.679   3.527
 1239SOL    HW2 4470   1.647   2.688   3.467
 1240SOL     OW 4471   1.013   1.967   3.632
 1240SOL    HW1 4472   1.019   2.052   3.580
 1240SOL    HW2 4473   1.045   1.891   3.575
 1241SOL     OW 4474   0.504   1.912   3.602
 1241SOL    HW1 4475   0.462   1.855   3.532
 1241SOL    HW2 4476   0.438   1.981   3.634
 1242SOL     OW 4477   0.573   2.732   2.891
 1242SOL    HW1 4478   0.617   2.821   2.882
 1242SOL    HW2 4479   0.510   2.732   2.968
 1243SOL     OW 4480   1.360   2.724   2.907
 1243SOL    HW1 4481   1.285   2.724   2.841
 1243SOL    HW2 4482   1.397   2.632   2.916
 1244SOL     OW 4483   1.209   2.387   2.137
 1244SOL    HW1 4484   1.222   2.303   2.191
 1244SOL    HW2 4485   1.180   2.461   2.197
 1245SOL     OW 4486   0.307   2.075   3.093
 1245SOL    HW1 4487   0.284   2.112   3.183
 1245SOL    HW2 4488   0.277   1.980   3.087
 1246SOL     OW 4489   0.037   3.172   3.144
 1246SOL    HW1 4490   0.090   3.123   3.212
 1246SOL    HW2 4491   0.059   3.270   3.149
 1247SOL     OW 4492   0.732   2.496   2.926
 1247SOL    HW1 4493   0.791   2.470   2.850
 1247SOL    HW2 4494   0.704   2.592   2.915
 1248SOL     OW 4495   1.728   2.797   3.716
 1248SOL    HW1 4496   1.682   2.790   3.627
 1248SOL    HW2 4497   1.666   2.841   3.782
 1249SOL     OW 4498   0.307   1.925   2.480
 1249SOL    HW1 4499   0.296   2.019   2.513
 1249SOL    HW2 4500   0.302   1.862   2.557
 1250SOL     OW 4501   1.622   2.229   2.236
 1250SOL    HW1 4502   1.624   2.153   2.300
 1250SOL    HW2 4503   1.574   2.306   2.276
 1251SOL     OW 4504   1.023   2.628   2.828
 1251SOL    HW1 4505   1.038   2.649   2.924
 1251SOL    HW2 4506   0.993   2.533   2.819
 1252SOL     OW 4507   0.980   3.435   3.562
 1252SOL    HW1 4508   0.960   3.479   3.474
 1252SOL    HW2 4509   1.019   3.344   3.546
 1253SOL     OW 4510   1.859   3.380   3.467
 1253SOL    HW1 4511   1.873   3.407   3.372
 1253SOL    HW2 4512   1.942   3.402   3.520
 1254SOL     OW 4513   0.350   2.760   3.666
 1254SOL    HW1 4514   0.426   2.804   3.714
 1254SOL    HW2 4515   0.385   2.713   3.584
 1255SOL     OW 4516   1.540   2.136   1.987
 1255SOL    HW1 4517   1.479   2.061   2.010
 1255SOL    HW2 4518   1.562   2.188   2.070
 1256SOL     OW 4519   1.303   2.700   1.904
 1256SOL    HW1 4520   1.337   2.607   1.919
 1256SOL    HW2 4521   1.321   2.727   1.809
 1257SOL     OW 4522   1.068   3.195   2.711
 1257SOL    HW1 4523   1.075   3.111   2.656
 1257SOL    HW2 4524   1.130   3.264   2.675
 1258SOL     OW 4525   0.319   2.672   2.811
 1258SOL    HW1 4526   0.412   2.708   2.816
 1258SOL    HW2 4527   0.313   2.587   2.863
 1259SOL     OW 4528   0.339   2.371   2.868
 1259SOL    HW1 4529   0.287   2.288   2.851
 1259SOL    HW2 4530   0.416   2.376   2.804
 1260SOL     OW 4531   1.138   2.242   3.540
 1260SOL    HW1 4532   1.093   2.305   3.604
 1260SOL    HW2 4533   1.231   2.273   3.523
 1261SOL     OW 4534   1.160   2.069   3.339
 1261SOL    HW1 4535   1.160   2.133   3.416
 1261SOL    HW2 4536   1.188   2.117   3.256
 1262SOL     OW 4537   0.008   3.188   2.062
 1262SOL    HW1 4538  -0.085   3.209   2.031
 1262SOL    HW2 4539   0.018   3.089   2.075
 1263SOL     OW 4540   0.088   3.663   2.789
 1263SOL    HW1 4541   0.046   3.577   2.762
 1263SOL    HW2 4542   0.182   3.666   2.755
 1264SOL     OW 4543   0.504   3.430   2.772
 1264SOL    HW1 4544   0.570   3.504   2.781
 1264SOL    HW2 4545   0.548   3.351   2.730
 1265SOL     OW 4546   1.002   2.658   3.100
 1265SOL    HW1 4547   1.043   2.626   3.186
 1265SOL    HW2 4548   0.906   2.631   3.097
 1266SOL     OW 4549   0.040   2.406   2.976
 1266SOL    HW1 4550   0.125   2.373   2.935
 1266SOL    HW2 4551   0.053   2.421   3.074
 1267SOL     OW 4552   0.189   2.382   3.584
 1267SOL    HW1 4553   0.248   2.342   3.514
 1267SOL    HW2 4554   0.131   2.453   3.543
 1268SOL     OW 4555   1.369   2.812   3.522
 1268SOL    HW1 4556   1.408   2.901   3.542
 1268SOL    HW2 4557   1.379   2.792   3.425
 1269SOL     OW 4558   0.815   2.434   2.187
 1269SOL    HW1 4559   0.822   2.345   2.141
 1269SOL    HW2 4560   0.721   2.468   2.179
 1270SOL     OW 4561   1.657   2.466   3.068
 1270SOL    HW1 4562   1.619   2.397   3.130
 1270SOL    HW2 4563   1.739   2.430   3.024
 1271SOL     OW 4564   0.252   3.426   3.606
 1271SOL    HW1 4565   0.222   3.483   3.682
 1271SOL    HW2 4566   0.245   3.329   3.632
 1272SOL     OW 4567   0.671   2.326   3.131
 1272SOL    HW1 4568   0.637   2.237   3.101
 1272SOL    HW2 4569   0.697   2.380   3.051
 1273SOL     OW 4570   0.930   3.540   3.327
 1273SOL    HW1 4571   0.906   3.522   3.232
 1273SOL    HW2 4572   0.960   3.634   3.337
 1274SOL     OW 4573   0.473   2.362   2.053
 1274SOL    HW1 4574   0.534   2.442   2.057
 1274SOL    HW2 4575   0.378   2.393   2.060
 1275SOL     OW 4576   0.159   2.999   3.328
 1275SOL    HW1 4577   0.181   2.938   3.404
 1275SOL    HW2 4578   0.169   2.950   3.242
 1276SOL     OW 4579   1.347   2.921   3.096
 1276SOL    HW1 4580   1.371   2.858   3.022
 1276SOL    HW2 4581   1.257   2.961   3.078
 1277SOL     OW 4582   1.302   2.717   2.171
 1277SOL    HW1 4583   1.216   2.686   2.213
 1277SOL    HW2 4584   1.298   2.703   2.072
 1278SOL     OW 4585   1.759   3.609   3.016
 1278SOL    HW1 4586   1.820   3.639   2.943
 1278SOL    HW2 4587   1.721   3.520   2.994
 1279SOL     OW 4588   1.252   3.593   2.990
 1279SOL    HW1 4589   1.336   3.598   2.936
 1279SOL    HW2 4590   1.229   3.497   3.008
 1280SOL     OW 4591   0.083   3.120   2.884
 1280SOL    HW1 4592   0.078   3.119   2.984
 1280SOL    HW2 4593   0.000   3.079   2.846
 1281SOL     OW 4594   0.688   3.524   3.578
 1281SOL    HW1 4595   0.632   3.605   3.587
 1281SOL    HW2 4596   0.740   3.528   3.492
 1282SOL     OW 4597   1.726   1.997   2.385
 1282SOL    HW1 4598   1.799   1.980   2.318
 1282SOL    HW2 4599   1.695   1.910   2.423
 1283SOL     OW 4600   1.388   3.435   2.339
 1283SOL    HW1 4601   1.455   3.447   2.265
 1283SOL    HW2 4602   1.348   3.524   2.362
 1284SOL     OW 4603   0.130   3.656   3.713
 1284SOL    HW1 4604   0.089   3.582   3.766
 1284SOL    HW2 4605   0.194   3.707   3.771
 1285SOL     OW 4606   1.280   2.789   2.534
 1285SOL    HW1 4607   1.340   2.708   2.536
 1285SOL    HW2 4608   1.320   2.858   2.474
 1286SOL     OW 4609   0.830   3.135   3.284
 1286SOL    HW1 4610   0.825   3.168   3.379
 1286SOL    HW2 4611   0.744   3.154   3.238
 1287SOL     OW 4612   0.672   3.478   2.016
 1287SOL    HW1 4613   0.681   3.488   1.917
 1287SOL    HW2 4614   0.632   3.389   2.037
 1288SOL     OW 4615   1.650   3.582   3.256
 1288SOL    HW1 4616   1.703   3.592   3.172
 1288SOL    HW2 4617   1.623   3.672   3.290
 1289SOL     OW 4618   1.841   2.037   2.825
 1289SOL    HW1 4619   1.880   1.952   2.789
 1289SOL    HW2 4620   1.743   2.039   2.806
 1290SOL     OW 4621   0.263   2.188   2.582
 1290SOL    HW1 4622   0.184   2.239   2.548
 1290SOL    HW2 4623   0.254   2.173   2.680
 1291SOL     OW 4624   1.194   3.474   1.893
 1291SOL    HW1 4625   1.200   3.381   1.930
 1291SOL    HW2 4626   1.135   3.474   1.813
 1292SOL     OW 4627   0.822   2.864   3.234
 1292SOL    HW1 4628   0.862   2.863   3.142
 1292SOL    HW2 4629   0.832   2.956   3.274
 1293SOL     OW 4630   0.916   2.772   2.153
 1293SOL    HW1 4631   0.979   2.810   2.085
 1293SOL    HW2 4632   0.956   2.689   2.192
 1294SOL     OW 4633   1.504   3.469   1.906
 1294SOL    HW1 4634   1.412   3.506   1.913
 1294SOL    HW2 4635   1.542   3.489   1.816
 1295SOL     OW 4636   0.372   3.150   3.352
 1295SOL    HW1 4637   0.359   3.243   3.318
 1295SOL    HW2 4638   0.288   3.098   3.339
 1296SOL     OW 4639   1.614   3.154   3.151
 1296SOL    HW1 4640   1.674   3.157   3.231
 1296SOL    HW2 4641   1.539   3.218   3.164
 1297SOL     OW 4642   1.039   2.960   2.558
 1297SOL    HW1 4643   0.969   2.913   2.612
 1297SOL    HW2 4644   1.098   2.892   2.515
 1298SOL     OW 4645   1.014   2.098   2.833
 1298SOL    HW1 4646   1.006   2.062   2.740
 1298SOL    HW2 4647   1.012   2.022   2.898
 1299SOL     OW 4648   0.590   3.349   2.353
 1299SOL    HW1 4649   0.632   3.291   2.283
 1299SOL    HW2 4650   0.546   3.428   2.309
 1300SOL     OW 4651   0.255   3.210   2.152
 1300SOL    HW1 4652   0.159   3.211   2.125
 1300SOL    HW2 4653   0.267   3.263   2.236
 1301SOL     OW 4654   0.105   2.875   3.588
 1301SOL    HW1 4655   0.028   2.842   3.642
 1301SOL    HW2 4656   0.190   2.845   3.630
 1302SOL     OW 4657   0.672   2.065   3.351
 1302SOL    HW1 4658   0.762   2.049   3.311
 1302SOL    HW2 4659   0.680   2.070   3.450
 1303SOL     OW 4660   0.075   2.207   1.895
 1303SOL    HW1 4661  -0.017   2.179   1.866
 1303SOL    HW2 4662   0.106   2.284   1.839
 1304SOL     OW 4663   1.440   2.718   3.260
 1304SOL    HW1 4664   1.383   2.770   3.197
 1304SOL    HW2 4665   1.536   2.730   3.236
 1305SOL     OW 4666   0.072   2.028   2.180
 1305SOL    HW1 4667   0.055   2.111   2.126
 1305SOL    HW2 4668   0.162   1.991   2.158
 1306SOL     OW 4669   1.183   3.197   1.981
 1306SOL    HW1 4670   1.084   3.186   1.983
 1306SOL    HW2 4671   1.217   3.212   2.074
 1307SOL     OW 4672   0.613   2.704   3.293
 1307SOL    HW1 4673   0.669   2.785   3.276
 1307SOL    HW2 4674   0.672   2.624   3.296
 1308SOL     OW 4675   1.493   3.629   2.821
 1308SOL    HW1 4676   1.526   3.693   2.752
 1308SOL    HW2 4677   1.559   3.623   2.896
 1309SOL     OW 4678   0.716   2.427   3.570
 1309SOL    HW1 4679   0.735   2.492   3.644
 1309SOL    HW2 4680   0.776   2.347   3.579
 1310SOL     OW 4681   1.450   3.082   3.495
 1310SOL    HW1 4682   1.441   3.072   3.594
 1310SOL    HW2 4683   1.546   3.075   3.469
 1311SOL     OW 4684   0.390   3.603   3.422
 1311SOL    HW1 4685   0.299   3.644   3.420
 1311SOL    HW2 4686   0.383   3.509   3.454
 1312SOL     OW 4687   1.674   2.745   3.116
 1312SOL    HW1 4688   1.647   2.656   3.079
 1312SOL    HW2 4689   1.675   2.813   3.043
 1313SOL     OW 4690   1.225   2.187   2.311
 1313SOL    HW1 4691   1.290   2.113   2.300
 1313SOL    HW2 4692   1.245   2.237   2.395
 1314SOL     OW 4693   0.594   2.607   2.514
 1314SOL    HW1 4694   0.644   2.692   2.495
 1314SOL    HW2 4695   0.506   2.609   2.466
 1315SOL     OW 4696   1.777   2.204   3.504
 1315SOL    HW1 4697   1.760   2.235   3.410
 1315SOL    HW2 4698   1.693   2.167   3.542
 1316SOL     OW 4699   0.859   3.236   1.878
 1316SOL    HW1 4700   0.813   3.251   1.966
 1316SOL    HW2 4701   0.903   3.321   1.848
 1317SOL     OW 4702   0.661   3.652   2.815
 1317SOL    HW1 4703   0.615   3.740   2.802
 1317SOL    HW2 4704   0.760   3.664   2.808
 1318SOL     OW 4705   0.859   2.818   2.723
 1318SOL    HW1 4706   0.913   2.749   2.771
 1318SOL    HW2 4707   0.827   2.887   2.789
 1319SOL     OW 4708   1.083   2.846   1.949
 1319SOL    HW1 4709   1.060   2.899   1.867
 1319SOL    HW2 4710   1.164   2.790   1.930
 1320SOL     OW 4711   1.861   3.431   2.713
 1320SOL    HW1 4712   1.790   3.419   2.643
 1320SOL    HW2 4713   1.862   3.352   2.773
 1321SOL     OW 4714   0.221   3.176   3.706
 1321SOL    HW1 4715   0.156   3.103   3.685
 1321SOL    HW2 4716   0.225   3.190   3.804
 1322SOL     OW 4717   0.079   3.102   2.515
 1322SOL    HW1 4718   0.078   3.055   2.603
 1322SOL    HW2 4719   0.161   3.074   2.464
 1323SOL     OW 4720   0.672   3.253   3.486
 1323SOL    HW1 4721   0.594   3.203   3.524
 1323SOL    HW2 4722   0.669   3.348   3.517
 1324SOL     OW 4723   1.824   2.054   3.089
 1324SOL    HW1 4724   1.820   1.964   3.133
 1324SOL    HW2 4725   1.827   2.043   2.990
 1325SOL     OW 4726   0.428   2.286   2.382
 1325SOL    HW1 4727   0.458   2.214   2.320
 1325SOL    HW2 4728   0.389   2.246   2.465
 1326SOL     OW 4729   1.705   3.349   2.966
 1326SOL    HW1 4730   1.612   3.324   2.939
 1326SOL    HW2 4731   1.731   3.299   3.048
 1327SOL     OW 4732   0.317   2.409   3.142
 1327SOL    HW1 4733   0.355   2.350   3.214
 1327SOL    HW2 4734   0.357   2.383   3.054
 1328SOL     OW 4735   0.812   3.448   2.549
 1328SOL    HW1 4736   0.844   3.458   2.455
 1328SOL    HW2 4737   0.733   3.386   2.551
 1329SOL     OW 4738   1.424   2.076   2.974
 1329SOL    HW1 4739   1.476   2.011   3.029
 1329SOL    HW2 4740   1.375   2.139   3.035
 1330SOL     OW 4741   1.001   1.896   3.016
 1330SOL    HW1 4742   0.938   1.824   2.985
 1330SOL    HW2 4743   1.094   1.860   3.016
 1331SOL     OW 4744   0.770   3.192   2.163
 1331SOL    HW1 4745   0.724   3.105   2.180
 1331SOL    HW2 4746   0.861   3.189   2.204
 1332SOL     OW 4747   0.618   3.429   3.146
 1332SOL    HW1 4748   0.613   3.511   3.203
 1332SOL    HW2 4749   0.707   3.426   3.101
 1333SOL     OW 4750   1.352   1.914   2.030
 1333SOL    HW1 4751   1.387   1.873   1.946
 1333SOL    HW2 4752   1.262   1.876   2.050
 1334SOL     OW 4753   1.300   2.315   2.553
 1334SOL    HW1 4754   1.241   2.395   2.557
 1334SOL    HW2 4755   1.315   2.280   2.646
 1335SOL     OW 4756   1.593   2.083   2.744
 1335SOL    HW1 4757   1.509   2.082   2.798
 1335SOL    HW2 4758   1.595   2.166   2.688
 1336SOL     OW 4759   0.039   2.939   2.162
 1336SOL    HW1 4760   0.138   2.928   2.153
 1336SOL    HW2 4761  -0.001   2.853   2.194
 1337SOL     OW 4762   0.875   3.508   2.199
 1337SOL    HW1 4763   0.798   3.473   2.145
 1337SOL    HW2 4764   0.843   3.579   2.261
 1338SOL     OW 4765   0.230   2.490   3.837
 1338SOL    HW1 4766   0.137   2.488   3.874
 1338SOL    HW2 4767   0.231   2.451   3.745
 1339SOL     OW 4768   0.225   2.137   4.720
 1339SOL    HW1 4769   0.260   2.120   4.812
 1339SOL    HW2 4770   0.137   2.092   4.708
 1340SOL     OW 4771   0.019   2.230   4.371
 1340SOL    HW1 4772  -0.063   2.273   4.410
 1340SOL    HW2 4773  -0.009   2.157   4.308
 1341SOL     OW 4774   0.569   3.137   4.889
 1341SOL    HW1 4775   0.476   3.130   4.852
 1341SOL    HW2 4776   0.580   3.226   4.933
 1342SOL     OW 4777   1.555   3.373   4.427
 1342SOL    HW1 4778   1.498   3.357   4.508
 1342SOL    HW2 4779   1.496   3.383   4.347
 1343SOL     OW 4780   1.135   2.565   4.441
 1343SOL    HW1 4781   1.192   2.643   4.416
 1343SOL    HW2 4782   1.075   2.591   4.517
 1344SOL     OW 4783   1.755   2.469   3.955
 1344SOL    HW1 4784   1.743   2.456   3.856
 1344SOL    HW2 4785   1.725   2.388   4.004
 1345SOL     OW 4786   0.768   3.006   4.747
 1345SOL    HW1 4787   0.690   3.023   4.807
 1345SOL    HW2 4788   0.802   3.093   4.711
 1346SOL     OW 4789   0.850   2.660   5.547
 1346SOL    HW1 4790   0.846   2.736   5.612
 1346SOL    HW2 4791   0.872   2.696   5.456
 1347SOL     OW 4792   0.685   2.874   4.389
 1347SOL    HW1 4793   0.754   2.858   4.459
 1347SOL    HW2 4794   0.612   2.931   4.427
 1348SOL     OW 4795   0.686   3.023   5.527
 1348SOL    HW1 4796   0.746   3.102   5.541
 1348SOL    HW2 4797   0.600   3.054   5.486
 1349SOL     OW 4798   0.335   3.297   4.785
 1349SOL    HW1 4799   0.257   3.266   4.732
 1349SOL    HW2 4800   0.393   3.355   4.728
 1350SOL     OW 4801   1.460   3.367   5.063
 1350SOL    HW1 4802   1.484   3.461   5.089
 1350SOL    HW2 4803   1.444   3.313   5.145
 1351SOL     OW 4804   0.438   2.254   5.223
 1351SOL    HW1 4805   0.520   2.198   5.232
 1351SOL    HW2 4806   0.357   2.196   5.227
 1352SOL     OW 4807   1.603   2.309   4.461
 1352SOL    HW1 4808   1.529   2.355   4.411
 1352SOL    HW2 4809   1.654   2.377   4.514
 1353SOL     OW 4810   0.231   3.575   4.207
 1353SOL    HW1 4811   0.265   3.652   4.261
 1353SOL    HW2 4812   0.275   3.575   4.117
 1354SOL     OW 4813   1.127   3.203   5.414
 1354SOL    HW1 4814   1.174   3.203   5.502
 1354SOL    HW2 4815   1.079   3.116   5.403
 1355SOL     OW 4816   0.230   3.296   4.262
 1355SOL    HW1 4817   0.204   3.392   4.262
 1355SOL    HW2 4818   0.159   3.242   4.307
 1356SOL     OW 4819   0.240   2.953   4.610
 1356SOL    HW1 4820   0.254   2.869   4.662
 1356SOL    HW2 4821   0.185   3.017   4.665
 1357SOL     OW 4822   0.620   3.648   5.163
 1357SOL    HW1 4823   0.528   3.631   5.198
 1357SOL    HW2 4824   0.648   3.740   5.189
 1358SOL     OW 4825   0.606   2.826   3.847
 1358SOL    HW1 4826   0.613   2.910   3.793
 1358SOL    HW2 4827   0.652   2.839   3.935
 1359SOL     OW 4828   1.594   1.976   5.204
 1359SOL    HW1 4829   1.576   2.043   5.132
 1359SOL    HW2 4830   1.591   2.022   5.293
 1360SOL     OW 4831   0.122   2.505   4.287
 1360SOL    HW1 4832   0.077   2.417   4.304
 1360SOL    HW2 4833   0.121   2.559   4.371
 1361SOL     OW 4834   1.842   3.629   4.083
 1361SOL    HW1 4835   1.896   3.600   4.163
 1361SOL    HW2 4836   1.872   3.719   4.054
 1362SOL     OW 4837   0.027   3.458   3.841
 1362SOL    HW1 4838   0.008   3.362   3.862
 1362SOL    HW2 4839  -0.006   3.516   3.916
 1363SOL     OW 4840   1.689   2.784   4.336
 1363SOL    HW1 4841   1.784   2.755   4.344
 1363SOL    HW2 4842   1.681   2.849   4.261
 1364SOL     OW 4843   1.641   2.970   4.156
 1364SOL    HW1 4844   1.727   2.972   4.104
 1364SOL    HW2 4845   1.655   3.017   4.244
 1365SOL     OW 4846   0.113   2.599   5.321
 1365SOL    HW1 4847   0.201   2.586   5.366
 1365SOL    HW2 4848   0.100   2.696   5.299
 1366SOL     OW 4849   0.613   3.227   4.450
 1366SOL    HW1 4850   0.564   3.140   4.459
 1366SOL    HW2 4851   0.590   3.270   4.363
 1367SOL     OW 4852   1.293   3.090   5.147
 1367SOL    HW1 4853   1.330   3.017   5.089
 1367SOL    HW2 4854   1.345   3.095   5.232
 1368SOL     OW 4855   0.809   1.866   4.226
 1368SOL    HW1 4856   0.849   1.957   4.217
 1368SOL    HW2 4857   0.709   1.874   4.232
 1369SOL     OW 4858   0.197   2.838   4.988
 1369SOL    HW1 4859   0.286   2.793   4.974
 1369SOL    HW2 4860   0.124   2.773   4.969
 1370SOL     OW 4861   1.525   2.861   3.914
 1370SOL    HW1 4862   1.462   2.785   3.927
 1370SOL    HW2 4863   1.573   2.879   4.000
 1371SOL     OW 4864   1.187   3.654   5.340
 1371SOL    HW1 4865   1.211   3.714   5.264
 1371SOL    HW2 4866   1.194   3.559   5.310
 1372SOL     OW 4867   0.317   2.113   5.525
 1372SOL    HW1 4868   0.388   2.184   5.531
 1372SOL    HW2 4869   0.229   2.152   5.553
 1373SOL     OW 4870   1.466   3.279   4.677
 1373SOL    HW1 4871   1.407   3.285   4.757
 1373SOL    HW2 4872   1.451   3.191   4.631
 1374SOL     OW 4873   1.667   3.576   4.296
 1374SOL    HW1 4874   1.626   3.553   4.208
 1374SOL    HW2 4875   1.649   3.502   4.361
 1375SOL     OW 4876   0.598   2.591   3.994
 1375SOL    HW1 4877   0.622   2.660   3.926
 1375SOL    HW2 4878   0.520   2.624   4.048
 1376SOL     OW 4879   1.281   2.207   4.668
 1376SOL    HW1 4880   1.195   2.157   4.655
 1376SOL    HW2 4881   1.343   2.153   4.724
 1377SOL     OW 4882   1.576   3.524   4.031
 1377SOL    HW1 4883   1.665   3.570   4.034
 1377SOL    HW2 4884   1.555   3.500   3.936
 1378SOL     OW 4885   0.807   2.467   5.189
 1378SOL    HW1 4886   0.760   2.464   5.278
 1378SOL    HW2 4887   0.756   2.412   5.123
 1379SOL     OW 4888   1.394   2.331   5.398
 1379SOL    HW1 4889   1.374   2.374   5.486
 1379SOL    HW2 4890   1.472   2.269   5.407
 1380SOL     OW 4891   0.973   2.752   5.296
 1380SOL    HW1 4892   1.019   2.668   5.267
 1380SOL    HW2 4893   0.917   2.786   5.221
 1381SOL     OW 4894   0.991   2.272   4.966
 1381SOL    HW1 4895   0.914   2.306   5.020
 1381SOL    HW2 4896   0.957   2.221   4.887
 1382SOL     OW 4897   1.041   2.563   4.153
 1382SOL    HW1 4898   1.067   2.559   4.249
 1382SOL    HW2 4899   0.956   2.512   4.139
 1383SOL     OW 4900   0.076   2.673   4.513
 1383SOL    HW1 4901   0.175   2.661   4.522
 1383SOL    HW2 4902   0.052   2.768   4.534
 1384SOL     OW 4903   0.130   3.683   5.295
 1384SOL    HW1 4904   0.120   3.668   5.394
 1384SOL    HW2 4905   0.044   3.719   5.259
 1385SOL     OW 4906   0.865   2.210   3.919
 1385SOL    HW1 4907   0.924   2.273   3.870
 1385SOL    HW2 4908   0.884   2.116   3.890
 1386SOL     OW 4909   1.719   2.447   5.555
 1386SOL    HW1 4910   1.693   2.536   5.519
 1386SOL    HW2 4911   1.717   2.379   5.482
 1387SOL     OW 4912   1.362   3.006   4.269
 1387SOL    HW1 4913   1.445   2.977   4.221
 1387SOL    HW2 4914   1.313   3.073   4.213
 1388SOL     OW 4915   0.550   2.058   4.609
 1388SOL    HW1 4916   0.545   2.053   4.709
 1388SOL    HW2 4917   0.552   2.154   4.580
 1389SOL     OW 4918   1.008   3.318   4.201
 1389SOL    HW1 4919   0.962   3.390   4.149
 1389SOL    HW2 4920   1.004   3.338   4.299
 1390SOL     OW 4921   0.351   3.663   4.577
 1390SOL    HW1 4922   0.401   3.577   4.583
 1390SOL    HW2 4923   0.416   3.740   4.574
 1391SOL     OW 4924   1.795   2.928   4.597
 1391SOL    HW1 4925   1.733   2.913   4.521
 1391SOL    HW2 4926   1.743   2.939   4.682
 1392SOL     OW 4927   1.227   3.412   5.230
 1392SOL    HW1 4928   1.233   3.335   5.294
 1392SOL    HW2 4929   1.175   3.386   5.150
 1393SOL     OW 4930   0.321   2.805   3.966
 1393SOL    HW1 4931   0.403   2.844   3.924
 1393SOL    HW2 4932   0.294   2.723   3.917
 1394SOL     OW 4933   1.458   2.597   4.452
 1394SOL    HW1 4934   1.453   2.532   4.527
 1394SOL    HW2 4935   1.538   2.656   4.465
 1395SOL     OW 4936   0.461   3.128   5.451
 1395SOL    HW1 4937   0.411   3.129   5.365
 1395SOL    HW2 4938   0.398   3.110   5.527
 1396SOL     OW 4939   1.111   3.638   3.961
 1396SOL    HW1 4940   1.051   3.576   4.011
 1396SOL    HW2 4941   1.142   3.594   3.876
 1397SOL     OW 4942   0.202   2.147   5.222
 1397SOL    HW1 4943   0.122   2.207   5.209
 1397SOL    HW2 4944   0.192   2.098   5.308
 1398SOL     OW 4945   1.632   3.239   3.805
 1398SOL    HW1 4946   1.600   3.333   3.795
 1398SOL    HW2 4947   1.556   3.176   3.793
 1399SOL     OW 4948   0.464   3.605   4.047
 1399SOL    HW1 4949   0.497   3.644   4.133
 1399SOL    HW2 4950   0.540   3.598   3.982
 1400SOL     OW 4951   1.400   1.969   4.150
 1400SOL    HW1 4952   1.376   1.932   4.060
 1400SOL    HW2 4953   1.499   1.985   4.154
 1401SOL     OW 4954   0.249   3.647   4.965
 1401SOL    HW1 4955   0.306   3.582   5.015
 1401SOL    HW2 4956   0.233   3.614   4.872
 1402SOL     OW 4957   0.940   3.560   4.628
 1402SOL    HW1 4958   1.020   3.503   4.649
 1402SOL    HW2 4959   0.891   3.520   4.551
 1403SOL     OW 4960   0.382   2.562   4.204
 1403SOL    HW1 4961   0.427   2.472   4.201
 1403SOL    HW2 4962   0.288   2.551   4.237
 1404SOL     OW 4963   1.547   2.084   5.453
 1404SOL    HW1 4964   1.542   2.121   5.545
 1404SOL    HW2 4965   1.475   2.015   5.441
 1405SOL     OW 4966   0.614   1.984   3.841
 1405SOL    HW1 4967   0.712   1.962   3.848
 1405SOL    HW2 4968   0.583   1.967   3.748
 1406SOL     OW 4969   0.781   2.126   5.473
 1406SOL    HW1 4970   0.848   2.065   5.516
 1406SOL    HW2 4971   0.708   2.145   5.538
 1407SOL     OW 4972   0.888   3.376   4.919
 1407SOL    HW1 4973   0.865   3.351   4.825
 1407SOL    HW2 4974   0.949   3.307   4.958
 1408SOL     OW 4975   1.351   2.452   5.157
 1408SOL    HW1 4976   1.379   2.409   5.242
 1408SOL    HW2 4977   1.376   2.548   5.158
 1409SOL     OW 4978   0.803   3.264   4.648
 1409SOL    HW1 4979   0.893   3.278   4.606
 1409SOL    HW2 4980   0.732   3.266   4.577
 1410SOL     OW 4981   0.922   2.365   4.623
 1410SOL    HW1 4982   0.897   2.356   4.527
 1410SOL    HW2 4983   0.970   2.283   4.654
 1411SOL     OW 4984   0.539   1.926   4.236
 1411SOL    HW1 4985   0.458   1.927   4.294
 1411SOL    HW2 4986   0.542   2.009   4.181
 1412SOL     OW 4987   1.434   3.050   3.765
 1412SOL    HW1 4988   1.466   2.974   3.822
 1412SOL    HW2 4989   1.342   3.077   3.795
 1413SOL     OW 4990   0.297   1.897   3.895
 1413SOL    HW1 4991   0.346   1.981   3.874
 1413SOL    HW2 4992   0.359   1.832   3.940
 1414SOL     OW 4993   0.935   2.098   4.204
 1414SOL    HW1 4994   0.887   2.139   4.126
 1414SOL    HW2 4995   1.034   2.096   4.185
 1415SOL     OW 4996   1.076   2.545   5.188
 1415SOL    HW1 4997   0.996   2.484   5.191
 1415SOL    HW2 4998   1.157   2.492   5.164
 1416SOL     OW 4999   1.227   3.432   4.517
 1416SOL    HW1 5000   1.248   3.506   4.452
 1416SOL    HW2 5001   1.295   3.432   4.590
 1417SOL     OW 5002   0.459   3.014   4.465
 1417SOL    HW1 5003   0.388   2.987   4.530
 1417SOL    HW2 5004   0.433   2.986   4.372
 1418SOL     OW 5005   1.271   3.659   4.315
 1418SOL    HW1 5006   1.315   3.723   4.251
 1418SOL    HW2 5007   1.221   3.711   4.385
 1419SOL     OW 5008   1.032   2.411   3.740
 1419SOL    HW1 5009   0.991   2.493   3.701
 1419SOL    HW2 5010   1.096   2.437   3.813
 1420SOL     OW 5011   0.078   2.418   5.110
 1420SOL    HW1 5012   0.170   2.417   5.069
 1420SOL    HW2 5013   0.072   2.492   5.177
 1421SOL     OW 5014   0.561   2.084   4.871
 1421SOL    HW1 5015   0.599   2.000   4.908
 1421SOL    HW2 5016   0.473   2.103   4.915
 1422SOL     OW 5017   0.866   2.316   4.366
 1422SOL    HW1 5018   0.834   2.388   4.304
 1422SOL    HW2 5019   0.890   2.235   4.313
 1423SOL     OW 5020   1.017   1.901   4.477
 1423SOL    HW1 5021   0.945   1.906   4.408
 1423SOL    HW2 5022   0.993   1.832   4.546
 1424SOL     OW 5023   1.429   3.035   4.591
 1424SOL    HW1 5024   1.374   2.951   4.584
 1424SOL    HW2 5025   1.455   3.064   4.499
 1425SOL     OW 5026   1.466   2.452   4.716
 1425SOL    HW1 5027   1.436   2.357   4.723
 1425SOL    HW2 5028   1.539   2.468   4.782
 1426SOL     OW 5029   1.857   2.695   4.101
 1426SOL    HW1 5030   1.899   2.631   4.165
 1426SOL    HW2 5031   1.819   2.644   4.023
 1427SOL     OW 5032   0.488   3.247   3.898
 1427SOL    HW1 5033   0.401   3.232   3.945
 1427SOL    HW2 5034   0.471   3.273   3.803
 1428SOL     OW 5035   1.664   3.142   4.381
 1428SOL    HW1 5036   1.763   3.150   4.395
 1428SOL    HW2 5037   1.619   3.226   4.412
 1429SOL     OW 5038   1.390   2.437   3.802
 1429SOL    HW1 5039   1.336   2.416   3.883
 1429SOL    HW2 5040   1.481   2.396   3.811
 1430SOL     OW 5041   0.527   2.118   4.052
 1430SOL    HW1 5042   0.554   2.059   3.977
 1430SOL    HW2 5043   0.527   2.213   4.021
 1431SOL     OW 5044   1.754   3.085   5.312
 1431SOL    HW1 5045   1.845   3.046   5.299
 1431SOL    HW2 5046   1.762   3.181   5.336
 1432SOL     OW 5047   1.064   3.209   5.064
 1432SOL    HW1 5048   0.984   3.186   5.119
 1432SOL    HW2 5049   1.147   3.183   5.113
 1433SOL     OW 5050   1.592   3.491   5.349
 1433SOL    HW1 5051   1.619   3.525   5.259
 1433SOL    HW2 5052   1.671   3.453   5.395
 1434SOL     OW 5053   1.111   3.057   4.824
 1434SOL    HW1 5054   1.071   3.101   4.905
 1434SOL    HW2 5055   1.070   3.094   4.741
 1435SOL     OW 5056   1.638   2.961   4.803
 1435SOL    HW1 5057   1.643   3.042   4.862
 1435SOL    HW2 5058   1.552   2.963   4.752
 1436SOL     OW 5059   0.915   1.951   5.126
 1436SOL    HW1 5060   0.940   1.931   5.031
 1436SOL    HW2 5061   0.987   2.007   5.168
 1437SOL     OW 5062   0.980   2.978   5.443
 1437SOL    HW1 5063   0.881   2.984   5.453
 1437SOL    HW2 5064   1.003   2.898   5.387
 1438SOL     OW 5065   0.705   2.912   4.092
 1438SOL    HW1 5066   0.691   2.919   4.191
 1438SOL    HW2 5067   0.789   2.861   4.074
 1439SOL     OW 5068   0.410   2.675   4.975
 1439SOL    HW1 5069   0.496   2.687   5.025
 1439SOL    HW2 5070   0.368   2.588   5.002
 1440SOL     OW 5071   1.274   2.248   4.986
 1440SOL    HW1 5072   1.295   2.322   5.050
 1440SOL    HW2 5073   1.185   2.265   4.943
 1441SOL     OW 5074   0.064   3.426   5.055
 1441SOL    HW1 5075   0.018   3.508   5.021
 1441SOL    HW2 5076   0.162   3.445   5.064
 1442SOL     OW 5077   0.367   2.962   4.225
 1442SOL    HW1 5078   0.360   3.045   4.169
 1442SOL    HW2 5079   0.371   2.882   4.165
 1443SOL     OW 5080   0.566   2.399   4.589
 1443SOL    HW1 5081   0.578   2.465   4.515
 1443SOL    HW2 5082   0.612   2.433   4.672
 1444SOL     OW 5083   1.252   3.210   4.112
 1444SOL    HW1 5084   1.302   3.287   4.152
 1444SOL    HW2 5085   1.157   3.212   4.144
 1445SOL     OW 5086   1.272   3.307   4.866
 1445SOL    HW1 5087   1.319   3.320   4.953
 1445SOL    HW2 5088   1.206   3.233   4.875
 1446SOL     OW 5089   1.582   2.501   4.196
 1446SOL    HW1 5090   1.551   2.562   4.269
 1446SOL    HW2 5091   1.632   2.553   4.127
 1447SOL     OW 5092   0.354   3.372   5.053
 1447SOL    HW1 5093   0.333   3.328   4.966
 1447SOL    HW2 5094   0.451   3.398   5.056
 1448SOL     OW 5095   0.402   2.613   5.322
 1448SOL    HW1 5096   0.470   2.668   5.275
 1448SOL    HW2 5097   0.442   2.525   5.349
 1449SOL     OW 5098   1.587   2.641   5.394
 1449SOL    HW1 5099   1.495   2.679   5.389
 1449SOL    HW2 5100   1.647   2.688   5.329
 1450SOL     OW 5101   1.013   1.967   5.494
 1450SOL    HW1 5102   1.019   2.052   5.442
 1450SOL    HW2 5103   1.045   1.891   5.437
 1451SOL     OW 5104   0.504   1.912   5.464
 1451SOL    HW1 5105   0.462   1.855   5.394
 1451SOL    HW2 5106   0.438   1.981   5.496
 1452SOL     OW 5107   0.573   2.732   4.753
 1452SOL    HW1 5108   0.617   2.821   4.744
 1452SOL    HW2 5109   0.510   2.732   4.830
 1453SOL     OW 5110   1.360   2.724   4.769
 1453SOL    HW1 5111   1.285   2.724   4.703
 1453SOL    HW2 5112   1.397   2.632   4.778
 1454SOL     OW 5113   1.209   2.387   3.999
 1454SOL    HW1 5114   1.222   2.303   4.053
 1454SOL    HW2 5115   1.180   2.461   4.059
 1455SOL     OW 5116   0.307   2.075   4.955
 1455SOL    HW1 5117   0.284   2.112   5.045
 1455SOL    HW2 5118   0.277   1.980   4.949
 1456SOL     OW 5119   0.037   3.172   5.006
 1456SOL    HW1 5120   0.090   3.123   5.074
 1456SOL    HW2 5121   0.059   3.270   5.011
 1457SOL     OW 5122   0.732   2.496   4.788
 1457SOL    HW1 5123   0.791   2.470   4.712
 1457SOL    HW2 5124   0.704   2.592   4.777
 1458SOL     OW 5125   1.728   2.797   5.578
 1458SOL    HW1 5126   1.682   2.790   5.489
 1458SOL    HW2 5127   1.666   2.841   5.644
 1459SOL     OW 5128   0.307   1.925   4.342
 1459SOL    HW1 5129   0.296   2.019   4.375
 1459SOL    HW2 5130   0.302   1.862   4.419
 1460SOL     OW 5131   1.622   2.229   4.098
 1460SOL    HW1 5132   1.624   2.153   4.162
 1460SOL    HW2 5133   1.574   2.306   4.138
 1461SOL     OW 5134   1.023   2.628   4.690
 1461SOL    HW1 5135   1.038   2.649   4.786
 1461SOL    HW2 5136   0.993   2.533   4.681
 1462SOL     OW 5137   0.980   3.435   5.424
 1462SOL    HW1 5138   0.960   3.479   5.336
 1462SOL    HW2 5139   1.019   3.344   5.408
 1463SOL     OW 5140   1.859   3.380   5.329
 1463SOL    HW1 5141   1.873   3.407   5.234
 1463SOL    HW2 5142   1.942   3.402   5.382
 1464SOL     OW 5143   0.350   2.760   5.528
 1464SOL    HW1 5144   0.426   2.804   5.576
 1464SOL    HW2 5145   0.385   2.713   5.446
 1465SOL     OW 5146   1.540   2.136   3.849
 1465SOL    HW1 5147   1.479   2.061   3.872
 1465SOL    HW2 5148   1.562   2.188   3.932
 1466SOL     OW 5149   1.303   2.700   3.766
 1466SOL    HW1 5150   1.337   2.607   3.781
 1466SOL    HW2 5151   1.321   2.727   3.671
 1467SOL     OW 5152   1.068   3.195   4.573
 1467SOL    HW1 5153   1.075   3.111   4.518
 1467SOL    HW2 5154   1.130   3.264   4.537
 1468SOL     OW 5155   0.319   2.672   4.673
 1468SOL    HW1 5156   0.412   2.708   4.678
 1468SOL    HW2 5157   0.313   2.587   4.725
 1469SOL     OW 5158   0.339   2.371   4.730
 1469SOL    HW1 5159   0.287   2.288   4.713
 1469SOL    HW2 5160   0.416   2.376   4.666
 1470SOL     OW 5161   1.138   2.242   5.402
 1470SOL    HW1 5162   1.093   2.305   5.466
 1470SOL    HW2 5163   1.231   2.273   5.385
 1471SOL     OW 5164   1.160   2.069   5.201
 1471SOL    HW1 5165   1.160   2.133   5.278
 1471SOL    HW2 5166   1.188   2.117   5.118
 1472SOL     OW 5167   0.008   3.188   3.924
 1472SOL    HW1 5168  -0.085   3.209   3.893
 1472SOL    HW2 5169   0.018   3.089   3.937
 1473SOL     OW 5170   0.088   3.663   4.651
 1473SOL    HW1 5171   0.046   3.577   4.624
 1473SOL    HW2 5172   0.182   3.666   4.617
 1474SOL     OW 5173   0.504   3.430   4.634
 1474SOL    HW1 5174   0.570   3.504   4.643
 1474SOL    HW2 5175   0.548   3.351   4.592
 1475SOL     OW 5176   1.002   2.658   4.962
 1475SOL    HW1 5177   1.043   2.626   5.048
 1475SOL    HW2 5178   0.906   2.631   4.959
 1476SOL     OW 5179   0.040   2.406   4.838
 1476SOL    HW1 5180   0.125   2.373   4.797
 1476SOL    HW2 5181   0.053   2.421   4.936
 1477SOL     OW 5182   0.189   2.382   5.446
 1477SOL    HW1 5183   0.248   2.342   5.376
 1477SOL    HW2 5184   0.131   2.453   5.405
 1478SOL     OW 5185   1.369   2.812   5.384
 1478SOL    HW1 5186   1.408   2.901   5.404
 1478SOL    HW2 5187   1.379   2.792   5.287
 1479SOL     OW 5188   0.815   2.434   4.049
 1479SOL    HW1 5189   0.822   2.345   4.003
 1479SOL    HW2 5190   0.721   2.468   4.041
 1480SOL     OW 5191   1.657   2.466   4.930
 1480SOL    HW1 5192   1.619   2.397   4.992
 1480SOL    HW2 5193   1.739   2.430   4.886
 1481SOL     OW 5194   0.252   3.426   5.468
 1481SOL    HW1 5195   0.222   3.483   5.544
 1481SOL    HW2 5196   0.245   3.329   5.494
 1482SOL     OW 5197   0.671   2.326   4.993
 1482SOL    HW1 5198   0.637   2.237   4.963
 1482SOL    HW2 5199   0.697   2.380   4.913
 1483SOL     OW 5200   0.930   3.540   5.189
 1483SOL    HW1 5201   0.906   3.522   5.094
 1483SOL    HW2 5202   0.960   3.634   5.199
 1484SOL     OW 5203   0.473   2.362   3.915
 1484SOL    HW1 5204   0.534   2.442   3.919
 1484SOL    HW2 5205   0.378   2.393   3.922
 1485SOL     OW 5206   0.159   2.999   5.190
 1485SOL    HW1 5207   0.181   2.938   5.266
 1485SOL    HW2 5208   0.169   2.950   5.104
 1486SOL     OW 5209   1.347   2.921   4.958
 1486SOL    HW1 5210   1.371   2.858   4.884
 1486SOL    HW2 5211   1.257   2.961   4.940
 1487SOL     OW 5212   1.302   2.717   4.033
 1487SOL    HW1 5213   1.216   2.686   4.075
 1487SOL    HW2 5214   1.298   2.703   3.934
 1488SOL     OW 5215   1.759   3.609   4.878
 1488SOL    HW1 5216   1.820   3.639   4.805
 1488SOL    HW2 5217   1.721   3.520   4.856
 1489SOL     OW 5218   1.252   3.593   4.852
 1489SOL    HW1 5219   1.336   3.598   4.798
 1489SOL    HW2 5220   1.229   3.497   4.870
 1490SOL     OW 5221   0.083   3.120   4.746
 1490SOL    HW1 5222   0.078   3.119   4.846
 1490SOL    HW2 5223   0.000   3.079   4.708
 1491SOL     OW 5224   0.688   3.524   5.440
 1491SOL    HW1 5225   0.632   3.605   5.449
 1491SOL    HW2 5226   0.740   3.528   5.354
 1492SOL     OW 5227   1.726   1.997   4.247
 1492SOL    HW1 5228   1.799   1.980   4.180
 1492SOL    HW2 5229   1.695   1.910   4.285
 1493SOL     OW 5230   1.388   3.435   4.201
 1493SOL    HW1 5231   1.455   3.447   4.127
 1493SOL    HW2 5232   1.348   3.524   4.224
 1494SOL     OW 5233   0.130   3.656   5.575
 1494SOL    HW1 5234   0.089   3.582   5.628
 1494SOL    HW2 5235   0.194   3.707   5.633
 1495SOL     OW 5236   1.280   2.789   4.396
 1495SOL    HW1 5237   1.340   2.708   4.398
 1495SOL    HW2 5238   1.320   2.858   4.336
 1496SOL     OW 5239   0.830   3.135   5.146
 1496SOL    HW1 5240   0.825   3.168   5.241
 1496SOL    HW2 5241   0.744   3.154   5.100
 1497SOL     OW 5242   0.672   3.478   3.878
 1497SOL    HW1 5243   0.681   3.488   3.779
 1497SOL    HW2 5244   0.632   3.389   3.899
 1498SOL     OW 5245   1.650   3.582   5.118
 1498SOL    HW1 5246   1.703   3.592   5.034
 1498SOL    HW2 5247   1.623   3.672   5.152
 1499SOL     OW 5248   1.841   2.037   4.687
 1499SOL    HW1 5249   1.880   1.952   4.651
 1499SOL    HW2 5250   1.743   2.039   4.668
 1500SOL     OW 5251   0.263   2.188   4.444
 1500SOL    HW1 5252   0.184   2.239   4.410
 1500SOL    HW2 5253   0.254   2.173   4.542
 1501SOL     OW 5254   1.194   3.474   3.755
 1501SOL    HW1 5255   1.200   3.381   3.792
 1501SOL    HW2 5256   1.135   3.474   3.675
 1502SOL     OW 5257   0.822   2.864   5.096
 1502SOL    HW1 5258   0.862   2.863   5.004
 1502SOL    HW2 5259   0.832   2.956   5.136
 1503SOL     OW 5260   0.916   2.772   4.015
 1503SOL    HW1 5261   0.979   2.810   3.947
 1503SOL    HW2 5262   0.956   2.689   4.054
 1504SOL     OW 5263   1.504   3.469   3.768
 1504SOL    HW1 5264   1.412   3.506   3.775
 1504SOL    HW2 5265   1.542   3.489   3.678
 1505SOL     OW 5266   0.372   3.150   5.214
 1505SOL    HW1 5267   0.359   3.243   5.180
 1505SOL    HW2 5268   0.288   3.098   5.201
 1506SOL     OW 5269   1.614   3.154   5.013
 1506SOL    HW1 5270   1.674   3.157   5.093
 1506SOL    HW2 5271   1.539   3.218   5.026
 1507SOL     OW 5272   1.039   2.960   4.420
 1507SOL    HW1 5273   0.969   2.913   4.474
 1507SOL    HW2 5274   1.098   2.892   4.377
 1508SOL     OW 5275   1.014   2.098   4.695
 1508SOL    HW1 5276   1.006   2.062   4.602
 1508SOL    HW2 5277   1.012   2.022   4.760
 1509SOL     OW 5278   0.590   3.349   4.215
 1509SOL    HW1 5279   0.632   3.291   4.145
 1509SOL    HW2 5280   0.546   3.428   4.171
 1510SOL     OW 5281   1.709   2.247   5.105
 1510SOL    HW1 5282   1.782   2.316   5.109
 1510SOL    HW2 5283   1.737   2.172   5.046
 1511SOL     OW 5284   0.255   3.210   4.014
 1511SOL    HW1 5285   0.159   3.211   3.987
 1511SOL    HW2 5286   0.267   3.263   4.098
 1512SOL     OW 5287   0.105   2.875   5.450
 1512SOL    HW1 5288   0.028   2.842   5.504
 1512SOL    HW2 5289   0.190   2.845   5.492
 1513SOL     OW 5290   0.672   2.065   5.213
 1513SOL    HW1 5291   0.762   2.049   5.173
 1513SOL    HW2 5292   0.680   2.070   5.312
 1514SOL     OW 5293   0.075   2.207   3.757
 1514SOL    HW1 5294  -0.017   2.179   3.728
 1514SOL    HW2 5295   0.106   2.284   3.701
 1515SOL     OW 5296   1.440   2.718   5.122
 1515SOL    HW1 5297   1.383   2.770   5.059
 1515SOL    HW2 5298   1.536   2.730   5.098
 1516SOL     OW 5299   0.072   2.028   4.042
 1516SOL    HW1 5300   0.055   2.111   3.988
 1516SOL    HW2 5301   0.162   1.991   4.020
 1517SOL     OW 5302   1.183   3.197   3.843
 1517SOL    HW1 5303   1.084   3.186   3.845
 1517SOL    HW2 5304   1.217   3.212   3.936
 1518SOL     OW 5305   0.613   2.704   5.155
 1518SOL    HW1 5306   0.669   2.785   5.138
 1518SOL    HW2 5307   0.672   2.624   5.158
 1519SOL     OW 5308   1.493   3.629   4.683
 1519SOL    HW1 5309   1.526   3.693   4.614
 1519SOL    HW2 5310   1.559   3.623   4.758
 1520SOL     OW 5311   0.716   2.427   5.432
 1520SOL    HW1 5312   0.735   2.492   5.506
 1520SOL    HW2 5313   0.776   2.347   5.441
 1521SOL     OW 5314   1.450   3.082   5.357
 1521SOL    HW1 5315   1.441   3.072   5.456
 1521SOL    HW2 5316   1.546   3.075   5.331
 1522SOL     OW 5317   0.390   3.603   5.284
 1522SOL    HW1 5318   0.299   3.644   5.282
 1522SOL    HW2 5319   0.383   3.509   5.316
 1523SOL     OW 5320   1.674   2.745   4.978
 1523SOL    HW1 5321   1.647   2.656   4.941
 1523SOL    HW2 5322   1.675   2.813   4.905
 1524SOL     OW 5323   1.225   2.187   4.173
 1524SOL    HW1 5324   1.290   2.113   4.162
 1524SOL    HW2 5325   1.245   2.237   4.257
 1525SOL     OW 5326   0.594   2.607   4.376
 1525SOL    HW1 5327   0.644   2.692   4.357
 1525SOL    HW2 5328   0.506   2.609   4.328
 1526SOL     OW 5329   1.777   2.204   5.366
 1526SOL    HW1 5330   1.760   2.235   5.272
 1526SOL    HW2 5331   1.693   2.167   5.404
 1527SOL     OW 5332   1.730   2.796   5.241
 1527SOL    HW1 5333   1.768   2.887   5.256
 1527SOL    HW2 5334   1.722   2.779   5.142
 1528SOL     OW 5335   0.859   3.236   3.740
 1528SOL    HW1 5336   0.813   3.251   3.828
 1528SOL    HW2 5337   0.903   3.321   3.710
 1529SOL     OW 5338   0.661   3.652   4.677
 1529SOL    HW1 5339   0.615   3.740   4.664
 1529SOL    HW2 5340   0.760   3.664   4.670
 1530SOL     OW 5341   0.859   2.818   4.585
 1530SOL    HW1 5342   0.913   2.749   4.633
 1530SOL    HW2 5343   0.827   2.887   4.651
 1531SOL     OW 5344   1.083   2.846   3.811
 1531SOL    HW1 5345   1.060   2.899   3.729
 1531SOL    HW2 5346   1.164   2.790   3.792
 1532SOL     OW 5347   1.861   3.431   4.575
 1532SOL    HW1 5348   1.790   3.419   4.505
 1532SOL    HW2 5349   1.862   3.352   4.635
 1533SOL     OW 5350   0.221   3.176   5.568
 1533SOL    HW1 5351   0.156   3.103   5.547
 1533SOL    HW2 5352   0.225   3.190   5.666
 1534SOL     OW 5353   0.079   3.102   4.377
 1534SOL    HW1 5354   0.078   3.055   4.465
 1534SOL    HW2 5355   0.161   3.074   4.326
 1535SOL     OW 5356   0.672   3.253   5.348
 1535SOL    HW1 5357   0.594   3.203   5.386
 1535SOL    HW2 5358   0.669   3.348   5.379
 1536SOL     OW 5359   1.824   2.054   4.951
 1536SOL    HW1 5360   1.820   1.964   4.995
 1536SOL    HW2 5361   1.827   2.043   4.852
 1537SOL     OW 5362   0.428   2.286   4.244
 1537SOL    HW1 5363   0.458   2.214   4.182
 1537SOL    HW2 5364   0.389   2.246   4.327
 1538SOL     OW 5365   1.705   3.349   4.828
 1538SOL    HW1 5366   1.612   3.324   4.801
 1538SOL    HW2 5367   1.731   3.299   4.910
 1539SOL     OW 5368   0.317   2.409   5.004
 1539SOL    HW1 5369   0.355   2.350   5.076
 1539SOL    HW2 5370   0.357   2.383   4.916
 1540SOL     OW 5371   0.812   3.448   4.411
 1540SOL    HW1 5372   0.844   3.458   4.317
 1540SOL    HW2 5373   0.733   3.386   4.413
 1541SOL     OW 5374   1.424   2.076   4.836
 1541SOL    HW1 5375   1.476   2.011   4.891
 1541SOL    HW2 5376   1.375   2.139   4.897
 1542SOL     OW 5377   1.001   1.896   4.878
 1542SOL    HW1 5378   0.938   1.824   4.847
 1542SOL    HW2 5379   1.094   1.860   4.878
 1543SOL     OW 5380   0.770   3.192   4.025
 1543SOL    HW1 5381   0.724   3.105   4.042
 1543SOL    HW2 5382   0.861   3.189   4.066
 1544SOL     OW 5383   0.618   3.429   5.008
 1544SOL    HW1 5384   0.613   3.511   5.065
 1544SOL    HW2 5385   0.707   3.426   4.963
 1545SOL     OW 5386   1.352   1.914   3.892
 1545SOL    HW1 5387   1.387   1.873   3.808
 1545SOL    HW2 5388   1.262   1.876   3.912
 1546SOL     OW 5389   1.300   2.315   4.415
 1546SOL    HW1 5390   1.241   2.395   4.419
 1546SOL    HW2 5391   1.315   2.280   4.508
 1547SOL     OW 5392   1.593   2.083   4.606
 1547SOL    HW1 5393   1.509   2.082   4.660
 1547SOL    HW2 5394   1.595   2.166   4.550
 1548SOL     OW 5395   0.039   2.939   4.024
 1548SOL    HW1 5396   0.138   2.928   4.015
 1548SOL    HW2 5397  -0.001   2.853   4.056
 1549SOL     OW 5398   0.875   3.508   4.061
 1549SOL    HW1 5399   0.798   3.473   4.007
 1549SOL    HW2 5400   0.843   3.579   4.123
 1550SOL     OW 5401   0.230   2.490   5.699
 1550SOL    HW1 5402   0.137   2.488   5.736
 1550SOL    HW2 5403   0.231   2.451   5.607
 1551SOL     OW 5404   0.225   2.137   6.582
 1551SOL    HW1 5405   0.260   2.120   6.674
 1551SOL    HW2 5406   0.137   2.092   6.570
 1552SOL     OW 5407   0.019   2.230   6.233
 1552SOL    HW1 5408  -0.063   2.273   6.272
 1552SOL    HW2 5409  -0.009   2.157   6.170
 1553SOL     OW 5410   0.569   3.137   6.751
 1553SOL    HW1 5411   0.476   3.130   6.714
 1553SOL    HW2 5412   0.580   3.226   6.795
 1554SOL     OW 5413   1.555   3.373   6.289
 1554SOL    HW1 5414   1.498   3.357   6.370
 1554SOL    HW2 5415   1.496   3.383   6.209
 1555SOL     OW 5416   1.135   2.565   6.303
 1555SOL    HW1 5417   1.192   2.643   6.278
 1555SOL    HW2 5418   1.075   2.591   6.379
 1556SOL     OW 5419   1.755   2.469   5.817
 1556SOL    HW1 5420   1.743   2.456   5.718
 1556SOL    HW2 5421   1.725   2.388   5.866
 1557SOL     OW 5422   0.768   3.006   6.609
 1557SOL    HW1 5423   0.690   3.023   6.669
 1557SOL    HW2 5424   0.802   3.093   6.573
 1558SOL     OW 5425   0.850   2.660   7.409
 1558SOL    HW1 5426   0.846   2.736   7.474
 1558SOL    HW2 5427   0.872   2.696   7.318
 1559SOL     OW 5428   0.685   2.874   6.251
 1559SOL    HW1 5429   0.754   2.858   6.321
 1559SOL    HW2 5430   0.612   2.931   6.289
 1560SOL     OW 5431   0.686   3.023   7.389
 1560SOL    HW1 5432   0.746   3.102   7.403
 1560SOL    HW2 5433   0.600   3.054   7.348
 1561SOL     OW 5434   0.335   3.297   6.647
 1561SOL    HW1 5435   0.257   3.266   6.594
 1561SOL    HW2 5436   0.393   3.355   6.590
 1562SOL     OW 5437   1.460   3.367   6.925
 1562SOL    HW1 5438   1.484   3.461   6.951
 1562SOL    HW2 5439   1.444   3.313   7.007
 1563SOL     OW 5440   0.438   2.254   7.085
 1563SOL    HW1 5441   0.520   2.198   7.094
 1563SOL    HW2 5442   0.357   2.196   7.089
 1564SOL     OW 5443   1.603   2.309   6.323
 1564SOL    HW1 5444   1.529   2.355   6.273
 1564SOL    HW2 5445   1.654   2.377   6.376
 1565SOL     OW 5446   0.231   3.575   6.069
 1565SOL    HW1 5447   0.265   3.652   6.123
 1565SOL    HW2 5448   0.275   3.575   5.979
 1566SOL     OW 5449   1.127   3.203   7.276
 1566SOL    HW1 5450   1.174   3.203   7.364
 1566SOL    HW2 5451   1.079   3.116   7.265
 1567SOL     OW 5452   0.230   3.296   6.124
 1567SOL    HW1 5453   0.204   3.392   6.124
 1567SOL    HW2 5454   0.159   3.242   6.169
 1568SOL     OW 5455   0.240   2.953   6.472
 1568SOL    HW1 5456   0.254   2.869   6.524
 1568SOL    HW2 5457   0.185   3.017   6.527
 1569SOL     OW 5458   0.620   3.648   7.025
 1569SOL    HW1 5459   0.528   3.631   7.060
 1569SOL    HW2 5460   0.648   3.740   7.051
 1570SOL     OW 5461   0.606   2.826   5.709
 1570SOL    HW1 5462   0.613   2.910   5.655
 1570SOL    HW2 5463   0.652   2.839   5.797
 1571SOL     OW 5464   1.594   1.976   7.066
 1571SOL    HW1 5465   1.576   2.043   6.994
 1571SOL    HW2 5466   1.591   2.022   7.155
 1572SOL     OW 5467   0.122   2.505   6.149
 1572SOL    HW1 5468   0.077   2.417   6.166
 1572SOL    HW2 5469   0.121   2.559   6.233
 1573SOL     OW 5470   1.842   3.629   5.945
 1573SOL    HW1 5471   1.896   3.600   6.025
 1573SOL    HW2 5472   1.872   3.719   5.916
 1574SOL     OW 5473   0.027   3.458   5.703
 1574SOL    HW1 5474   0.008   3.362   5.724
 1574SOL    HW2 5475  -0.006   3.516   5.778
 1575SOL     OW 5476   1.689   2.784   6.198
 1575SOL    HW1 5477   1.784   2.755   6.206
 1575SOL    HW2 5478   1.681   2.849   6.123
 1576SOL     OW 5479   1.641   2.970   6.018
 1576SOL    HW1 5480   1.727   2.972   5.966
 1576SOL    HW2 5481   1.655   3.017   6.106
 1577SOL     OW 5482   0.113   2.599   7.183
 1577SOL    HW1 5483   0.201   2.586   7.228
 1577SOL    HW2 5484   0.100   2.696   7.161
 1578SOL     OW 5485   0.613   3.227   6.312
 1578SOL    HW1 5486   0.564   3.140   6.321
 1578SOL    HW2 5487   0.590   3.270   6.225
 1579SOL     OW 5488   1.293   3.090   7.009
 1579SOL    HW1 5489   1.330   3.017   6.951
 1579SOL    HW2 5490   1.345   3.095   7.094
 1580SOL     OW 5491   0.809   1.866   6.088
 1580SOL    HW1 5492   0.849   1.957   6.079
 1580SOL    HW2 5493   0.709   1.874   6.094
 1581SOL     OW 5494   0.197   2.838   6.850
 1581SOL    HW1 5495   0.286   2.793   6.836
 1581SOL    HW2 5496   0.124   2.773   6.831
 1582SOL     OW 5497   1.525   2.861   5.776
 1582SOL    HW1 5498   1.462   2.785   5.789
 1582SOL    HW2 5499   1.573   2.879   5.862
 1583SOL     OW 5500   1.187   3.654   7.202
 1583SOL    HW1 5501   1.211   3.714   7.126
 1583SOL    HW2 5502   1.194   3.559   7.172
 1584SOL     OW 5503   0.317   2.113   7.387
 1584SOL    HW1 5504   0.388   2.184   7.393
 1584SOL    HW2 5505   0.229   2.152   7.415
 1585SOL     OW 5506   1.466   3.279   6.539
 1585SOL    HW1 5507   1.407   3.285   6.619
 1585SOL    HW2 5508   1.451   3.191   6.493
 1586SOL     OW 5509   1.667   3.576   6.158
 1586SOL    HW1 5510   1.626   3.553   6.070
 1586SOL    HW2 5511   1.649   3.502   6.223
 1587SOL     OW 5512   0.598   2.591   5.856
 1587SOL    HW1 5513   0.622   2.660   5.788
 1587SOL    HW2 5514   0.520   2.624   5.910
 1588SOL     OW 5515   1.281   2.207   6.530
 1588SOL    HW1 5516   1.195   2.157   6.517
 1588SOL    HW2 5517   1.343   2.153   6.586
 1589SOL     OW 5518   1.576   3.524   5.893
 1589SOL    HW1 5519   1.665   3.570   5.896
 1589SOL    HW2 5520   1.555   3.500   5.798
 1590SOL     OW 5521   0.807   2.467   7.051
 1590SOL    HW1 5522   0.760   2.464   7.140
 1590SOL    HW2 5523   0.756   2.412   6.985
 1591SOL     OW 5524   1.394   2.331   7.260
 1591SOL    HW1 5525   1.374   2.374   7.348
 1591SOL    HW2 5526   1.472   2.269   7.269
 1592SOL     OW 5527   0.973   2.752   7.158
 1592SOL    HW1 5528   1.019   2.668   7.129
 1592SOL    HW2 5529   0.917   2.786   7.083
 1593SOL     OW 5530   0.991   2.272   6.828
 1593SOL    HW1 5531   0.914   2.306   6.882
 1593SOL    HW2 5532   0.957   2.221   6.749
 1594SOL     OW 5533   1.041   2.563   6.015
 1594SOL    HW1 5534   1.067   2.559   6.111
 1594SOL    HW2 5535   0.956   2.512   6.001
 1595SOL     OW 5536   0.076   2.673   6.375
 1595SOL    HW1 5537   0.175   2.661   6.384
 1595SOL    HW2 5538   0.052   2.768   6.396
 1596SOL     OW 5539   0.130   3.683   7.157
 1596SOL    HW1 5540   0.120   3.668   7.256
 1596SOL    HW2 5541   0.044   3.719   7.121
 1597SOL     OW 5542   0.865   2.210   5.781
 1597SOL    HW1 5543   0.924   2.273   5.732
 1597SOL    HW2 5544   0.884   2.116   5.752
 1598SOL     OW 5545   1.719   2.447   7.417
 1598SOL    HW1 5546   1.693   2.536   7.381
 1598SOL    HW2 5547   1.717   2.379   7.344
 1599SOL     OW 5548   1.362   3.006   6.131
 1599SOL    HW1 5549   1.445   2.977   6.083
 1599SOL    HW2 5550   1.313   3.073   6.075
 1600SOL     OW 5551   0.550   2.058   6.471
 1600SOL    HW1 5552   0.545   2.053   6.571
 1600SOL    HW2 5553   0.552   2.154   6.442
 1601SOL     OW 5554   1.008   3.318   6.063
 1601SOL    HW1 5555   0.962   3.390   6.011
 1601SOL    HW2 5556   1.004   3.338   6.161
 1602SOL     OW 5557   0.351   3.663   6.439
 1602SOL    HW1 5558   0.401   3.577   6.445
 1602SOL    HW2 5559   0.416   3.740   6.436
 1603SOL     OW 5560   1.795   2.928   6.459
 1603SOL    HW1 5561   1.733   2.913   6.383
 1603SOL    HW2 5562   1.743   2.939   6.544
 1604SOL     OW 5563   1.227   3.412   7.092
 1604SOL    HW1 5564   1.233   3.335   7.156
 1604SOL    HW2 5565   1.175   3.386   7.012
 1605SOL     OW 5566   0.321   2.805   5.828
 1605SOL    HW1 5567   0.403   2.844   5.786
 1605SOL    HW2 5568   0.294   2.723   5.779
 1606SOL     OW 5569   1.458   2.597   6.314
 1606SOL    HW1 5570   1.453   2.532   6.389
 1606SOL    HW2 5571   1.538   2.656   6.327
 1607SOL     OW 5572   0.461   3.128   7.313
 1607SOL    HW1 5573   0.411   3.129   7.227
 1607SOL    HW2 5574   0.398   3.110   7.389
 1608SOL     OW 5575   1.111   3.638   5.823
 1608SOL    HW1 5576   1.051   3.576   5.873
 1608SOL    HW2 5577   1.142   3.594   5.738
 1609SOL     OW 5578   0.202   2.147   7.084
 1609SOL    HW1 5579   0.122   2.207   7.071
 1609SOL    HW2 5580   0.192   2.098   7.170
 1610SOL     OW 5581   1.632   3.239   5.667
 1610SOL    HW1 5582   1.600   3.333   5.657
 1610SOL    HW2 5583   1.556   3.176   5.655
 1611SOL     OW 5584   0.464   3.605   5.909
 1611SOL    HW1 5585   0.497   3.644   5.995
 1611SOL    HW2 5586   0.540   3.598   5.844
 1612SOL     OW 5587   1.400   1.969   6.012
 1612SOL    HW1 5588   1.376   1.932   5.922
 1612SOL    HW2 5589   1.499   1.985   6.016
 1613SOL     OW 5590   0.249   3.647   6.827
 1613SOL    HW1 5591   0.306   3.582   6.877
 1613SOL    HW2 5592   0.233   3.614   6.734
 1614SOL     OW 5593   0.940   3.560   6.490
 1614SOL    HW1 5594   1.020   3.503   6.511
 1614SOL    HW2 5595   0.891   3.520   6.413
 1615SOL     OW 5596   0.382   2.562   6.066
 1615SOL    HW1 5597   0.427   2.472   6.063
 1615SOL    HW2 5598   0.288   2.551   6.099
 1616SOL     OW 5599   1.547   2.084   7.315
 1616SOL    HW1 5600   1.542   2.121   7.407
 1616SOL    HW2 5601   1.475   2.015   7.303
 1617SOL     OW 5602   0.614   1.984   5.703
 1617SOL    HW1 5603   0.712   1.962   5.710
 1617SOL    HW2 5604   0.583   1.967   5.610
 1618SOL     OW 5605   0.781   2.126   7.335
 1618SOL    HW1 5606   0.848   2.065   7.378
 1618SOL    HW2 5607   0.708   2.145   7.400
 1619SOL     OW 5608   0.888   3.376   6.781
 1619SOL    HW1 5609   0.865   3.351   6.687
 1619SOL    HW2 5610   0.949   3.307   6.820
 1620SOL     OW 5611   1.351   2.452   7.019
 1620SOL    HW1 5612   1.379   2.409   7.104
 1620SOL    HW2 5613   1.376   2.548   7.020
 1621SOL     OW 5614   0.803   3.264   6.510
 1621SOL    HW1 5615   0.893   3.278   6.468
 1621SOL    HW2 5616   0.732   3.266   6.439
 1622SOL     OW 5617   0.922   2.365   6.485
 1622SOL    HW1 5618   0.897   2.356   6.389
 1622SOL    HW2 5619   0.970   2.283   6.516
 1623SOL     OW 5620   0.539   1.926   6.098
 1623SOL    HW1 5621   0.458   1.927   6.156
 1623SOL    HW2 5622   0.542   2.009   6.043
 1624SOL     OW 5623   1.434   3.050   5.627
 1624SOL    HW1 5624   1.466   2.974   5.684
 1624SOL    HW2 5625   1.342   3.077   5.657
 1625SOL     OW 5626   0.297   1.897   5.757
 1625SOL    HW1 5627   0.346   1.981   5.736
 1625SOL    HW2 5628   0.359   1.832   5.802
 1626SOL     OW 5629   0.935   2.098   6.066
 1626SOL    HW1 5630   0.887   2.139   5.988
 1626SOL    HW2 5631   1.034   2.096   6.047
 1627SOL     OW 5632   1.076   2.545   7.050
 1627SOL    HW1 5633   0.996   2.484   7.053
 1627SOL    HW2 5634   1.157   2.492   7.026
 1628SOL     OW 5635   1.227   3.432   6.379
 1628SOL    HW1 5636   1.248   3.506   6.314
 1628SOL    HW2 5637   1.295   3.432   6.452
 1629SOL     OW 5638   0.459   3.014   6.327
 1629SOL    HW1 5639   0.388   2.987   6.392
 1629SOL    HW2 5640   0.433   2.986   6.234
 1630SOL     OW 5641   1.271   3.659   6.177
 1630SOL    HW1 5642   1.315   3.723   6.113
 1630SOL    HW2 5643   1.221   3.711   6.247
 1631SOL     OW 5644   1.032   2.411   5.602
 1631SOL    HW1 5645   0.991   2.493   5.563
 1631SOL    HW2 5646   1.096   2.437   5.675
 1632SOL     OW 5647   0.078   2.418   6.972
 1632SOL    HW1 5648   0.170   2.417   6.931
 1632SOL    HW2 5649   0.072   2.492   7.039
 1633SOL     OW 5650   0.561   2.084   6.733
 1633SOL    HW1 5651   0.599   2.000   6.770
 1633SOL    HW2 5652   0.473   2.103   6.777
 1634SOL     OW 5653   0.866   2.316   6.228
 1634SOL    HW1 5654   0.834   2.388   6.166
 1634SOL    HW2 5655   0.890   2.235   6.175
 1635SOL     OW 5656   1.017   1.901   6.339
 1635SOL    HW1 5657   0.945   1.906   6.270
 1635SOL    HW2 5658   0.993   1.832   6.408
 1636SOL     OW 5659   1.429   3.035   6.453
 1636SOL    HW1 5660   1.374   2.951   6.446
 1636SOL    HW2 5661   1.455   3.064   6.361
 1637SOL     OW 5662   1.466   2.452   6.578
 1637SOL    HW1 5663   1.436   2.357   6.585
 1637SOL    HW2 5664   1.539   2.468   6.644
 1638SOL     OW 5665   1.857   2.695   5.963
 1638SOL    HW1 5666   1.899   2.631   6.027
 1638SOL    HW2 5667   1.819   2.644   5.885
 1639SOL     OW 5668   0.488   3.247   5.760
 1639SOL    HW1 5669   0.401   3.232   5.807
 1639SOL    HW2 5670   0.471   3.273   5.665
 1640SOL     OW 5671   1.664   3.142   6.243
 1640SOL    HW1 5672   1.763   3.150   6.257
 1640SOL    HW2 5673   1.619   3.226   6.274
 1641SOL     OW 5674   1.390   2.437   5.664
 1641SOL    HW1 5675   1.336   2.416   5.745
 1641SOL    HW2 5676   1.481   2.396   5.673
 1642SOL     OW 5677   0.527   2.118   5.914
 1642SOL    HW1 5678   0.554   2.059   5.839
 1642SOL    HW2 5679   0.527   2.213   5.883
 1643SOL     OW 5680   1.754   3.085   7.174
 1643SOL    HW1 5681   1.845   3.046   7.161
 1643SOL    HW2 5682   1.762   3.181   7.198
 1644SOL     OW 5683   1.064   3.209   6.926
 1644SOL    HW1 5684   0.984   3.186   6.981
 1644SOL    HW2 5685   1.147   3.183   6.975
 1645SOL     OW 5686   1.592   3.491   7.211
 1645SOL    HW1 5687   1.619   3.525   7.121
 1645SOL    HW2 5688   1.671   3.453   7.257
 1646SOL     OW 5689   1.111   3.057   6.686
 1646SOL    HW1 5690   1.071   3.101   6.767
 1646SOL    HW2 5691   1.070   3.094   6.603
 1647SOL     OW 5692   1.638   2.961   6.665
 1647SOL    HW1 5693   1.643   3.042   6.724
 1647SOL    HW2 5694   1.552   2.963   6.614
 1648SOL     OW 5695   0.915   1.951   6.988
 1648SOL    HW1 5696   0.940   1.931   6.893
 1648SOL    HW2 5697   0.987   2.007   7.030
 1649SOL     OW 5698   0.980   2.978   7.305
 1649SOL    HW1 5699   0.881   2.984   7.315
 1649SOL    HW2 5700   1.003   2.898   7.249
 1650SOL     OW 5701   0.705   2.912   5.954
 1650SOL    HW1 5702   0.691   2.919   6.053
 1650SOL    HW2 5703   0.789   2.861   5.936
 1651SOL     OW 5704   0.410   2.675   6.837
 1651SOL    HW1 5705   0.496   2.687   6.887
 1651SOL    HW2 5706   0.368   2.588   6.864
 1652SOL     OW 5707   1.274   2.248   6.848
 1652SOL    HW1 5708   1.295   2.322   6.912
 1652SOL    HW2 5709   1.185   2.265   6.805
 1653SOL     OW 5710   0.064   3.426   6.917
 1653SOL    HW1 5711   0.018   3.508   6.883
 1653SOL    HW2 5712   0.162   3.445   6.926
 1654SOL     OW 5713   0.367   2.962   6.087
 1654SOL    HW1 5714   0.360   3.045   6.031
 1654SOL    HW2 5715   0.371   2.882   6.027
 1655SOL     OW 5716   0.566   2.399   6.451
 1655SOL    HW1 5717   0.578   2.465   6.377
 1655SOL    HW2 5718   0.612   2.433   6.534
 1656SOL     OW 5719   1.252   3.210   5.974
 1656SOL    HW1 5720   1.302   3.287   6.014
 1656SOL    HW2 5721   1.157   3.212   6.006
 1657SOL     OW 5722   1.272   3.307   6.728
 1657SOL    HW1 5723   1.319   3.320   6.815
 1657SOL    HW2 5724   1.206   3.233   6.737
 1658SOL     OW 5725   1.582   2.501   6.058
 1658SOL    HW1 5726   1.551   2.562   6.131
 1658SOL    HW2 5727   1.632   2.553   5.989
 1659SOL     OW 5728   0.354   3.372   6.915
 1659SOL    HW1 5729   0.333   3.328   6.828
 1659SOL    HW2 5730   0.451   3.398   6.918
 1660SOL     OW 5731   0.402   2.613   7.184
 1660SOL    HW1 5732   0.470   2.668   7.137
 1660SOL    HW2 5733   0.442   2.525   7.211
 1661SOL     OW 5734   1.587   2.641   7.256
 1661SOL    HW1 5735   1.495   2.679   7.251
 1661SOL    HW2 5736   1.647   2.688   7.191
 1662SOL     OW 5737   1.013   1.967   7.356
 1662SOL    HW1 5738   1.019   2.052   7.304
 1662SOL    HW2 5739   1.045   1.891   7.299
 1663SOL     OW 5740   0.504   1.912   7.326
 1663SOL    HW1 5741   0.462   1.855   7.256
 1663SOL    HW2 5742   0.438   1.981   7.358
 1664SOL     OW 5743   0.573   2.732   6.615
 1664SOL    HW1 5744   0.617   2.821   6.606
 1664SOL    HW2 5745   0.510   2.732   6.692
 1665SOL     OW 5746   1.360   2.724   6.631
 1665SOL    HW1 5747   1.285   2.724   6.565
 1665SOL    HW2 5748   1.397   2.632   6.640
 1666SOL     OW 5749   1.209   2.387   5.861
 1666SOL    HW1 5750   1.222   2.303   5.915
 1666SOL    HW2 5751   1.180   2.461   5.921
 1667SOL     OW 5752   0.307   2.075   6.817
 1667SOL    HW1 5753   0.284   2.112   6.907
 1667SOL    HW2 5754   0.277   1.980   6.811
 1668SOL     OW 5755   0.037   3.172   6.868
 1668SOL    HW1 5756   0.090   3.123   6.936
 1668SOL    HW2 5757   0.059   3.270   6.873
 1669SOL     OW 5758   0.732   2.496   6.650
 1669SOL    HW1 5759   0.791   2.470   6.574
 1669SOL    HW2 5760   0.704   2.592   6.639
 1670SOL     OW 5761   1.728   2.797   7.440
 1670SOL    HW1 5762   1.682   2.790   7.351
 1670SOL    HW2 5763   1.666   2.841   7.506
 1671SOL     OW 5764   0.307   1.925   6.204
 1671SOL    HW1 5765   0.296   2.019   6.237
 1671SOL    HW2 5766   0.302   1.862   6.281
 1672SOL     OW 5767   1.622   2.229   5.960
 1672SOL    HW1 5768   1.624   2.153   6.024
 1672SOL    HW2 5769   1.574   2.306   6.000
 1673SOL     OW 5770   1.023   2.628   6.552
 1673SOL    HW1 5771   1.038   2.649   6.648
 1673SOL    HW2 5772   0.993   2.533   6.543
 1674SOL     OW 5773   0.980   3.435   7.286
 1674SOL    HW1 5774   0.960   3.479   7.198
 1674SOL    HW2 5775   1.019   3.344   7.270
 1675SOL     OW 5776   1.859   3.380   7.191
 1675SOL    HW1 5777   1.873   3.407   7.096
 1675SOL    HW2 5778   1.942   3.402   7.244
 1676SOL     OW 5779   0.350   2.760   7.390
 1676SOL    HW1 5780   0.426   2.804   7.438
 1676SOL    HW2 5781   0.385   2.713   7.308
 1677SOL     OW 5782   1.540   2.136   5.711
 1677SOL    HW1 5783   1.479   2.061   5.734
 1677SOL    HW2 5784   1.562   2.188   5.794
 1678SOL     OW 5785   1.303   2.700   5.628
 1678SOL    HW1 5786   1.337   2.607   5.643
 1678SOL    HW2 5787   1.321   2.727   5.533
 1679SOL     OW 5788   1.068   3.195   6.435
 1679SOL    HW1 5789   1.075   3.111   6.380
 1679SOL    HW2 5790   1.130   3.264   6.399
 1680SOL     OW 5791   0.319   2.672   6.535
 1680SOL    HW1 5792   0.412   2.708   6.540
 1680SOL    HW2 5793   0.313   2.587   6.587
 1681SOL     OW 5794   0.339   2.371   6.592
 1681SOL    HW1 5795   0.287   2.288   6.575
 1681SOL    HW2 5796   0.416   2.376   6.528
 1682SOL     OW 5797   1.138   2.242   7.264
 1682SOL    HW1 5798   1.093   2.305   7.328
 1682SOL    HW2 5799   1.231   2.273   7.247
 1683SOL     OW 5800   1.160   2.069   7.063
 1683SOL    HW1 5801   1.160   2.133   7.140
 1683SOL    HW2 5802   1.188   2.117   6.980
 1684SOL     OW 5803   0.008   3.188   5.786
 1684SOL    HW1 5804  -0.085   3.209   5.755
 1684SOL    HW2 5805   0.018   3.089   5.799
 1685SOL     OW 5806   0.088   3.663   6.513
 1685SOL    HW1 5807   0.046   3.577   6.486
 1685SOL    HW2 5808   0.182   3.666   6.479
 1686SOL     OW 5809   0.504   3.430   6.496
 1686SOL    HW1 5810   0.570   3.504   6.505
 1686SOL    HW2 5811   0.548   3.351   6.454
 1687SOL     OW 5812   1.002   2.658   6.824
 1687SOL    HW1 5813   1.043   2.626   6.910
 1687SOL    HW2 5814   0.906   2.631   6.821
 1688SOL     OW 5815   0.040   2.406   6.700
 1688SOL    HW1 5816   0.125   2.373   6.659
 1688SOL    HW2 5817   0.053   2.421   6.798
 1689SOL     OW 5818   0.189   2.382   7.308
 1689SOL    HW1 5819   0.248   2.342   7.238
 1689SOL    HW2 5820   0.131   2.453   7.267
 1690SOL     OW 5821   1.369   2.812   7.246
 1690SOL    HW1 5822   1.408   2.901   7.266
 1690SOL    HW2 5823   1.379   2.792   7.149
 1691SOL     OW 5824   0.815   2.434   5.911
 1691SOL    HW1 5825   0.822   2.345   5.865
 1691SOL    HW2 5826   0.721   2.468   5.903
 1692SOL     OW 5827   1.657   2.466   6.792
 1692SOL    HW1 5828   1.619   2.397   6.854
 1692SOL    HW2 5829   1.739   2.430   6.748
 1693SOL     OW 5830   0.252   3.426   7.330
 1693SOL    HW1 5831   0.222   3.483   7.406
 1693SOL    HW2 5832   0.245   3.329   7.356
 1694SOL     OW 5833   0.671   2.326   6.855
 1694SOL    HW1 5834   0.637   2.237   6.825
 1694SOL    HW2 5835   0.697   2.380   6.775
 1695SOL     OW 5836   0.930   3.540   7.051
 1695SOL    HW1 5837   0.906   3.522   6.956
 1695SOL    HW2 5838   0.960   3.634   7.061
 1696SOL     OW 5839   0.473   2.362   5.777
 1696SOL    HW1 5840   0.534   2.442   5.781
 1696SOL    HW2 5841   0.378   2.393   5.784
 1697SOL     OW 5842   0.159   2.999   7.052
 1697SOL    HW1 5843   0.181   2.938   7.128
 1697SOL    HW2 5844   0.169   2.950   6.966
 1698SOL     OW 5845   1.347   2.921   6.820
 1698SOL    HW1 5846   1.371   2.858   6.746
 1698SOL    HW2 5847   1.257   2.961   6.802
 1699SOL     OW 5848   1.302   2.717   5.895
 1699SOL    HW1 5849   1.216   2.686   5.937
 1699SOL    HW2 5850   1.298   2.703   5.796
 1700SOL     OW 5851   1.759   3.609   6.740
 1700SOL    HW1 5852   1.820   3.639   6.667
 1700SOL    HW2 5853   1.721   3.520   6.718
 1701SOL     OW 5854   1.252   3.593   6.714
 1701SOL    HW1 5855   1.336   3.598   6.660
 1701SOL    HW2 5856   1.229   3.497   6.732
 1702SOL     OW 5857   0.083   3.120   6.608
 1702SOL    HW1 5858   0.078   3.119   6.708
 1702SOL    HW2 5859   0.000   3.079   6.570
 1703SOL     OW 5860   0.688   3.524   7.302
 1703SOL    HW1 5861   0.632   3.605   7.311
 1703SOL    HW2 5862   0.740   3.528   7.216
 1704SOL     OW 5863   1.726   1.997   6.109
 1704SOL    HW1 5864   1.799   1.980   6.042
 1704SOL    HW2 5865   1.695   1.910   6.147
 1705SOL     OW 5866   1.388   3.435   6.063
 1705SOL    HW1 5867   1.455   3.447   5.989
 1705SOL    HW2 5868   1.348   3.524   6.086
 1706SOL     OW 5869   0.130   3.656   7.437
 1706SOL    HW1 5870   0.089   3.582   7.490
 1706SOL    HW2 5871   0.194   3.707   7.495
 1707SOL     OW 5872   1.280   2.789   6.258
 1707SOL    HW1 5873   1.340   2.708   6.260
 1707SOL    HW2 5874   1.320   2.858   6.198
 1708SOL     OW 5875   0.830   3.135   7.008
 1708SOL    HW1 5876   0.825   3.168   7.103
 1708SOL    HW2 5877   0.744   3.154   6.962
 1709SOL     OW 5878   0.672   3.478   5.740
 1709SOL    HW1 5879   0.681   3.488   5.641
 1709SOL    HW2 5880   0.632   3.389   5.761
 1710SOL     OW 5881   1.650   3.582   6.980
 1710SOL    HW1 5882   1.703   3.592   6.896
 1710SOL    HW2 5883   1.623   3.672   7.014
 1711SOL     OW 5884   1.841   2.037   6.549
 1711SOL    HW1 5885   1.880   1.952   6.513
 1711SOL    HW2 5886   1.743   2.039   6.530
 1712SOL     OW 5887   0.263   2.188   6.306
 1712SOL    HW1 5888   0.184   2.239   6.272
 1712SOL    HW2 5889   0.254   2.173   6.404
 1713SOL     OW 5890   1.194   3.474   5.617
 1713SOL    HW1 5891   1.200   3.381   5.654
 1713SOL    HW2 5892   1.135   3.474   5.537
 1714SOL     OW 5893   0.822   2.864   6.958
 1714SOL    HW1 5894   0.862   2.863   6.866
 1714SOL    HW2 5895   0.832   2.956   6.998
 1715SOL     OW 5896   0.916   2.772   5.877
 1715SOL    HW1 5897   0.979   2.810   5.809
 1715SOL    HW2 5898   0.956   2.689   5.916
 1716SOL     OW 5899   1.504   3.469   5.630
 1716SOL    HW1 5900   1.412   3.506   5.637
 1716SOL    HW2 5901   1.542   3.489   5.540
 1717SOL     OW 5902   0.372   3.150   7.076
 1717SOL    HW1 5903   0.359   3.243   7.042
 1717SOL    HW2 5904   0.288   3.098   7.063
 1718SOL     OW 5905   1.614   3.154   6.875
 1718SOL    HW1 5906   1.674   3.157   6.955
 1718SOL    HW2 5907   1.539   3.218   6.888
 1719SOL     OW 5908   1.039   2.960   6.282
 1719SOL    HW1 5909   0.969   2.913   6.336
 1719SOL    HW2 5910   1.098   2.892   6.239
 1720SOL     OW 5911   1.014   2.098   6.557
 1720SOL    HW1 5912   1.006   2.062   6.464
 1720SOL    HW2 5913   1.012   2.022   6.622
 1721SOL     OW 5914   0.590   3.349   6.077
 1721SOL    HW1 5915   0.632   3.291   6.007
 1721SOL    HW2 5916   0.546   3.428   6.033
 1722SOL     OW 5917   1.709   2.247   6.967
 1722SOL    HW1 5918   1.782   2.316   6.971
 1722SOL    HW2 5919   1.737   2.172   6.908
 1723SOL     OW 5920   0.255   3.210   5.876
 1723SOL    HW1 5921   0.159   3.211   5.849
 1723SOL    HW2 5922   0.267   3.263   5.960
 1724SOL     OW 5923   0.105   2.875   7.312
 1724SOL    HW1 5924   0.028   2.842   7.366
 1724SOL    HW2 5925   0.190   2.845   7.354
 1725SOL     OW 5926   0.672   2.065   7.075
 1725SOL    HW1 5927   0.762   2.049   7.035
 1725SOL    HW2 5928   0.680   2.070   7.174
 1726SOL     OW 5929   0.075   2.207   5.619
 1726SOL    HW1 5930  -0.017   2.179   5.590
 1726SOL    HW2 5931   0.106   2.284   5.563
 1727SOL     OW 5932   1.440   2.718   6.984
 1727SOL    HW1 5933   1.383   2.770   6.921
 1727SOL    HW2 5934   1.536   2.730   6.960
 1728SOL     OW 5935   0.072   2.028   5.904
 1728SOL    HW1 5936   0.055   2.111   5.850
 1728SOL    HW2 5937   0.162   1.991   5.882
 1729SOL     OW 5938   1.183   3.197   5.705
 1729SOL    HW1 5939   1.084   3.186   5.707
 1729SOL    HW2 5940   1.217   3.212   5.798
 1730SOL     OW 5941   0.613   2.704   7.017
 1730SOL    HW1 5942   0.669   2.785   7.000
 1730SOL    HW2 5943   0.672   2.624   7.020
 1731SOL     OW 5944   1.493   3.629   6.545
 1731SOL    HW1 5945   1.526   3.693   6.476
 1731SOL    HW2 5946   1.559   3.623   6.620
 1732SOL     OW 5947   0.716   2.427   7.294
 1732SOL    HW1 5948   0.735   2.492   7.368
 1732SOL    HW2 5949   0.776   2.347   7.303
 1733SOL     OW 5950   1.450   3.082   7.219
 1733SOL    HW1 5951   1.441   3.072   7.318
 1733SOL    HW2 5952   1.546   3.075   7.193
 1734SOL     OW 5953   0.390   3.603   7.146
 1734SOL    HW1 5954   0.299   3.644   7.144
 1734SOL    HW2 5955   0.383   3.509   7.178
 1735SOL     OW 5956   1.674   2.745   6.840
 1735SOL    HW1 5957   1.647   2.656   6.803
 1735SOL    HW2 5958   1.675   2.813   6.767
 1736SOL     OW 5959   1.225   2.187   6.035
 1736SOL    HW1 5960   1.290   2.113   6.024
 1736SOL    HW2 5961   1.245   2.237   6.119
 1737SOL     OW 5962   0.594   2.607   6.238
 1737SOL    HW1 5963   0.644   2.692   6.219
 1737SOL    HW2 5964   0.506   2.609   6.190
 1738SOL     OW 5965   1.777   2.204   7.228
 1738SOL    HW1 5966   1.760   2.235   7.134
 1738SOL    HW2 5967   1.693   2.167   7.266
 1739SOL     OW 5968   1.730   2.796   7.103
 1739SOL    HW1 5969   1.768   2.887   7.118
 1739SOL    HW2 5970   1.722   2.779   7.004
 1740SOL     OW 5971   0.859   3.236   5.602
 1740SOL    HW1 5972   0.813   3.251   5.690
 1740SOL    HW2 5973   0.903   3.321   5.572
 1741SOL     OW 5974   0.661   3.652   6.539
 1741SOL    HW1 5975   0.615   3.740   6.526
 1741SOL    HW2 5976   0.760   3.664   6.532
 1742SOL     OW 5977   0.859   2.818   6.447
 1742SOL    HW1 5978   0.913   2.749   6.495
 1742SOL    HW2 5979   0.827   2.887   6.513
 1743SOL     OW 5980   1.083   2.846   5.673
 1743SOL    HW1 5981   1.060   2.899   5.591
 1743SOL    HW2 5982   1.164   2.790   5.654
 1744SOL     OW 5983   1.861   3.431   6.437
 1744SOL    HW1 5984   1.790   3.419   6.367
 1744SOL    HW2 5985   1.862   3.352   6.497
 1745SOL     OW 5986   0.221   3.176   7.430
 1745SOL    HW1 5987   0.156   3.103   7.409
 1745SOL    HW2 5988   0.225   3.190   7.528
 1746SOL     OW 5989   0.079   3.102   6.239
 1746SOL    HW1 5990   0.078   3.055   6.327
 1746SOL    HW2 5991   0.161   3.074   6.188
 1747SOL     OW 5992   0.672   3.253   7.210
 1747SOL    HW1 5993   0.594   3.203   7.248
 1747SOL    HW2 5994   0.669   3.348   7.241
 1748SOL     OW 5995   1.824   2.054   6.813
 1748SOL    HW1 5996   1.820   1.964   6.857
 1748SOL    HW2 5997   1.827   2.043   6.714
 1749SOL     OW 5998   0.428   2.286   6.106
 1749SOL    HW1 5999   0.458   2.214   6.044
 1749SOL    HW2 6000   0.389   2.246   6.189
 1750SOL     OW 6001   1.705   3.349   6.690
 1750SOL    HW1 6002   1.612   3.324   6.663
 1750SOL    HW2 6003   1.731   3.299   6.772
 1751SOL     OW 6004   0.317   2.409   6.866
 1751SOL    HW1 6005   0.355   2.350   6.938
 1751SOL    HW2 6006   0.357   2.383   6.778
 1752SOL     OW 6007   0.812   3.448   6.273
 1752SOL    HW1 6008   0.844   3.458   6.179
 1752SOL    HW2 6009   0.733   3.386   6.275
 1753SOL     OW 6010   1.424   2.076   6.698
 1753SOL    HW1 6011   1.476   2.011   6.753
 1753SOL    HW2 6012   1.375   2.139   6.759
 1754SOL     OW 6013   1.001   1.896   6.740
 1754SOL    HW1 6014   0.938   1.824   6.709
 1754SOL    HW2 6015   1.094   1.860   6.740
 1755SOL     OW 6016   0.770   3.192   5.887
 1755SOL    HW1 6017   0.724   3.105   5.904
 1755SOL    HW2 6018   0.861   3.189   5.928
 1756SOL     OW 6019   0.618   3.429   6.870
 1756SOL    HW1 6020   0.613   3.511   6.927
 1756SOL    HW2 6021   0.707   3.426   6.825
 1757SOL     OW 6022   1.352   1.914   5.754
 1757SOL    HW1 6023   1.387   1.873   5.670
 1757SOL    HW2 6024   1.262   1.876   5.774
 1758SOL     OW 6025   1.300   2.315   6.277
 1758SOL    HW1 6026   1.241   2.395   6.281
 1758SOL    HW2 6027   1.315   2.280   6.370
 1759SOL     OW 6028   1.593   2.083   6.468
 1759SOL    HW1 6029   1.509   2.082   6.522
 1759SOL    HW2 6030   1.595   2.166   6.412
 1760SOL     OW 6031   0.039   2.939   5.886
 1760SOL    HW1 6032   0.138   2.928   5.877
 1760SOL    HW2 6033  -0.001   2.853   5.918
 1761SOL     OW 6034   0.875   3.508   5.923
 1761SOL    HW1 6035   0.798   3.473   5.869
 1761SOL    HW2 6036   0.843   3.579   5.985
 1762SOL     OW 6037   0.230   2.490   7.561
 1762SOL    HW1 6038   0.137   2.488   7.598
 1762SOL    HW2 6039   0.231   2.451   7.469
 1763SOL     OW 6040   1.755   2.469   7.679
 1763SOL    HW1 6041   1.743   2.456   7.580
 1763SOL    HW2 6042   1.725   2.388   7.728
 1764SOL     OW 6043   0.231   3.575   7.931
 1764SOL    HW1 6044   0.265   3.652   7.985
 1764SOL    HW2 6045   0.275   3.575   7.841
 1765SOL     OW 6046   0.230   3.296   7.986
 1765SOL    HW1 6047   0.204   3.392   7.986
 1765SOL    HW2 6048   0.159   3.242   8.031
 1766SOL     OW 6049   0.606   2.826   7.571
 1766SOL    HW1 6050   0.613   2.910   7.517
 1766SOL    HW2 6051   0.652   2.839   7.659
 1767SOL     OW 6052   1.842   3.629   7.807
 1767SOL    HW1 6053   1.896   3.600   7.887
 1767SOL    HW2 6054   1.872   3.719   7.778
 1768SOL     OW 6055   0.027   3.458   7.565
 1768SOL    HW1 6056   0.008   3.362   7.586
 1768SOL    HW2 6057  -0.006   3.516   7.640
 1769SOL     OW 6058   1.689   2.784   8.060
 1769SOL    HW1 6059   1.784   2.755   8.068
 1769SOL    HW2 6060   1.681   2.849   7.985
 1770SOL     OW 6061   1.641   2.970   7.880
 1770SOL    HW1 6062   1.727   2.972   7.828
 1770SOL    HW2 6063   1.655   3.017   7.968
 1771SOL     OW 6064   0.809   1.866   7.950
 1771SOL    HW1 6065   0.849   1.957   7.941
 1771SOL    HW2 6066   0.709   1.874   7.956
 1772SOL     OW 6067   1.525   2.861   7.638
 1772SOL    HW1 6068   1.462   2.785   7.651
 1772SOL    HW2 6069   1.573   2.879   7.724
 1773SOL     OW 6070   0.598   2.591   7.718
 1773SOL    HW1 6071   0.622   2.660   7.650
 1773SOL    HW2 6072   0.520   2.624   7.772
 1774SOL     OW 6073   1.576   3.524   7.755
 1774SOL    HW1 6074   1.665   3.570   7.758
 1774SOL    HW2 6075   1.555   3.500   7.660
 1775SOL     OW 6076   0.076   2.673   8.237
 1775SOL    HW1 6077   0.175   2.661   8.246
 1775SOL    HW2 6078   0.052   2.768   8.258
 1776SOL     OW 6079   0.865   2.210   7.643
 1776SOL    HW1 6080   0.924   2.273   7.594
 1776SOL    HW2 6081   0.884   2.116   7.614
 1777SOL     OW 6082   0.321   2.805   7.690
 1777SOL    HW1 6083   0.403   2.844   7.648
 1777SOL    HW2 6084   0.294   2.723   7.641
 1778SOL     OW 6085   1.111   3.638   7.685
 1778SOL    HW1 6086   1.051   3.576   7.735
 1778SOL    HW2 6087   1.142   3.594   7.600
 1779SOL     OW 6088   1.632   3.239   7.529
 1779SOL    HW1 6089   1.600   3.333   7.519
 1779SOL    HW2 6090   1.556   3.176   7.517
 1780SOL     OW 6091   0.464   3.605   7.771
 1780SOL    HW1 6092   0.497   3.644   7.857
 1780SOL    HW2 6093   0.540   3.598   7.706
 1781SOL     OW 6094   1.400   1.969   7.874
 1781SOL    HW1 6095   1.376   1.932   7.784
 1781SOL    HW2 6096   1.499   1.985   7.878
 1782SOL     OW 6097   0.382   2.562   7.928
 1782SOL    HW1 6098   0.427   2.472   7.925
 1782SOL    HW2 6099   0.288   2.551   7.961
 1783SOL     OW 6100   0.614   1.984   7.565
 1783SOL    HW1 6101   0.712   1.962   7.572
 1783SOL    HW2 6102   0.583   1.967   7.472
 1784SOL     OW 6103   0.539   1.926   7.960
 1784SOL    HW1 6104   0.458   1.927   8.018
 1784SOL    HW2 6105   0.542   2.009   7.905
 1785SOL     OW 6106   1.434   3.050   7.489
 1785SOL    HW1 6107   1.466   2.974   7.546
 1785SOL    HW2 6108   1.342   3.077   7.519
 1786SOL     OW 6109   0.297   1.897   7.619
 1786SOL    HW1 6110   0.346   1.981   7.598
 1786SOL    HW2 6111   0.359   1.832   7.664
 1787SOL     OW 6112   0.935   2.098   7.928
 1787SOL    HW1 6113   0.887   2.139   7.850
 1787SOL    HW2 6114   1.034   2.096   7.909
 1788SOL     OW 6115   0.459   3.014   8.189
 1788SOL    HW1 6116   0.388   2.987   8.254
 1788SOL    HW2 6117   0.433   2.986   8.096
 1789SOL     OW 6118   1.271   3.659   8.039
 1789SOL    HW1 6119   1.315   3.723   7.975
 1789SOL    HW2 6120   1.221   3.711   8.109
 1790SOL     OW 6121   1.032   2.411   7.464
 1790SOL    HW1 6122   0.991   2.493   7.425
 1790SOL    HW2 6123   1.096   2.437   7.537
 1791SOL     OW 6124   1.857   2.695   7.825
 1791SOL    HW1 6125   1.899   2.631   7.889
 1791SOL    HW2 6126   1.819   2.644   7.747
 1792SOL     OW 6127   0.488   3.247   7.622
 1792SOL    HW1 6128   0.401   3.232   7.669
 1792SOL    HW2 6129   0.471   3.273   7.527
 1793SOL     OW 6130   1.390   2.437   7.526
 1793SOL    HW1 6131   1.336   2.416   7.607
 1793SOL    HW2 6132   1.481   2.396   7.535
 1794SOL     OW 6133   0.527   2.118   7.776
 1794SOL    HW1 6134   0.554   2.059   7.701
 1794SOL    HW2 6135   0.527   2.213   7.745
 1795SOL     OW 6136   0.705   2.912   7.816
 1795SOL    HW1 6137   0.691   2.919   7.915
 1795SOL    HW2 6138   0.789   2.861   7.798
 1796SOL     OW 6139   0.367   2.962   7.949
 1796SOL    HW1 6140   0.360   3.045   7.893
 1796SOL    HW2 6141   0.371   2.882   7.889
 1797SOL     OW 6142   1.252   3.210   7.836
 1797SOL    HW1 6143   1.302   3.287   7.876
 1797SOL    HW2 6144   1.157   3.212   7.868
 1798SOL     OW 6145   1.582   2.501   7.920
 1798SOL    HW1 6146   1.551   2.562   7.993
 1798SOL    HW2 6147   1.632   2.553   7.851
 1799SOL     OW 6148   1.209   2.387   7.723
 1799SOL    HW1 6149   1.222   2.303   7.777
 1799SOL    HW2 6150   1.180   2.461   7.783
 1800SOL     OW 6151   1.622   2.229   7.822
 1800SOL    HW1 6152   1.624   2.153   7.886
 1800SOL    HW2 6153   1.574   2.306   7.862
 1801SOL     OW 6154   1.540   2.136   7.573
 1801SOL    HW1 6155   1.479   2.061   7.596
 1801SOL    HW2 6156   1.562   2.188   7.656
 1802SOL     OW 6157   1.303   2.700   7.490
 1802SOL    HW1 6158   1.337   2.607   7.505
 1802SOL    HW2 6159   1.321   2.727   7.395
 1803SOL     OW 6160   0.008   3.188   7.648
 1803SOL    HW1 6161  -0.085   3.209   7.617
 1803SOL    HW2 6162   0.018   3.089   7.661
 1804SOL     OW 6163   0.815   2.434   7.773
 1804SOL    HW1 6164   0.822   2.345   7.727
 1804SOL    HW2 6165   0.721   2.468   7.765
 1805SOL     OW 6166   0.473   2.362   7.639
 1805SOL    HW1 6167   0.534   2.442   7.643
 1805SOL    HW2 6168   0.378   2.393   7.646
 1806SOL     OW 6169   1.302   2.717   7.757
 1806SOL    HW1 6170   1.216   2.686   7.799
 1806SOL    HW2 6171   1.298   2.703   7.658
 1807SOL     OW 6172   1.726   1.997   7.971
 1807SOL    HW1 6173   1.799   1.980   7.904
 1807SOL    HW2 6174   1.695   1.910   8.009
 1808SOL     OW 6175   1.388   3.435   7.925
 1808SOL    HW1 6176   1.455   3.447   7.851
 1808SOL    HW2 6177   1.348   3.524   7.948
 1809SOL     OW 6178   0.672   3.478   7.602
 1809SOL    HW1 6179   0.681   3.488   7.503
 1809SOL    HW2 6180   0.632   3.389   7.623
 1810SOL     OW 6181   1.194   3.474   7.479
 1810SOL    HW1 6182   1.200   3.381   7.516
 1810SOL    HW2 6183   1.135   3.474   7.399
 1811SOL     OW 6184   0.916   2.772   7.739
 1811SOL    HW1 6185   0.979   2.810   7.671
 1811SOL    HW2 6186   0.956   2.689   7.778
 1812SOL     OW 6187   1.504   3.469   7.492
 1812SOL    HW1 6188   1.412   3.506   7.499
 1812SOL    HW2 6189   1.542   3.489   7.402
 1813SOL     OW 6190   0.590   3.349   7.939
 1813SOL    HW1 6191   0.632   3.291   7.869
 1813SOL    HW2 6192   0.546   3.428   7.895
 1814SOL     OW 6193   0.255   3.210   7.738
 1814SOL    HW1 6194   0.159   3.211   7.711
 1814SOL    HW2 6195   0.267   3.263   7.822
 1815SOL     OW 6196   0.075   2.207   7.481
 1815SOL    HW1 6197  -0.017   2.179   7.452
 1815SOL    HW2 6198   0.106   2.284   7.425
 1816SOL     OW 6199   0.072   2.028   7.766
 1816SOL    HW1 6200   0.055   2.111   7.712
 1816SOL    HW2 6201   0.162   1.991   7.744
 1817SOL     OW 6202   1.183   3.197   7.567
 1817SOL    HW1 6203   1.084   3.186   7.569
 1817SOL    HW2 6204   1.217   3.212   7.660
 1818SOL     OW 6205   1.225   2.187   7.897
 1818SOL    HW1 6206   1.290   2.113   7.886
 1818SOL    HW2 6207   1.245   2.237   7.981
 1819SOL     OW 6208   0.594   2.607   8.100
 1819SOL    HW1 6209   0.644   2.692   8.081
 1819SOL    HW2 6210   0.506   2.609   8.052
 1820SOL     OW 6211   0.859   3.236   7.464
 1820SOL    HW1 6212   0.813   3.251   7.552
 1820SOL    HW2 6213   0.903   3.321   7.434
 1821SOL     OW 6214   1.083   2.846   7.535
 1821SOL    HW1 6215   1.060   2.899   7.453
 1821SOL    HW2 6216   1.164   2.790   7.516
 1822SOL     OW 6217   0.428   2.286   7.968
 1822SOL    HW1 6218   0.458   2.214   7.906
 1822SOL    HW2 6219   0.389   2.246   8.051
 1823SOL     OW 6220   0.770   3.192   7.749
 1823SOL    HW1 6221   0.724   3.105   7.766
 1823SOL    HW2 6222   0.861   3.189   7.790
 1824SOL     OW 6223   1.352   1.914   7.616
 1824SOL    HW1 6224   1.387   1.873   7.532
 1824SOL    HW2 6225   1.262   1.876   7.636
 1825SOL     OW 6226   0.039   2.939   7.748
 1825SOL    HW1 6227   0.138   2.928   7.739
 1825SOL    HW2 6228  -0.001   2.853   7.780
 1826SOL     OW 6229   0.875   3.508   7.785
 1826SOL    HW1 6230   0.798   3.473   7.731
 1826SOL    HW2 6231   0.843   3.579   7.847
 1827SOL     OW 6232   0.230   4.352   0.113
 1827SOL    HW1 6233   0.137   4.350   0.150
 1827SOL    HW2 6234   0.231   4.313   0.021
 1828SOL     OW 6235   0.225   3.999   0.996
 1828SOL    HW1 6236   0.260   3.982   1.088
 1828SOL    HW2 6237   0.137   3.954   0.984
 1829SOL     OW 6238   0.019   4.092   0.647
 1829SOL    HW1 6239  -0.063   4.135   0.686
 1829SOL    HW2 6240  -0.009   4.019   0.584
 1830SOL     OW 6241   0.569   4.999   1.165
 1830SOL    HW1 6242   0.476   4.992   1.128
 1830SOL    HW2 6243   0.580   5.088   1.209
 1831SOL     OW 6244   1.555   5.235   0.703
 1831SOL    HW1 6245   1.498   5.219   0.784
 1831SOL    HW2 6246   1.496   5.245   0.623
 1832SOL     OW 6247   1.135   4.427   0.717
 1832SOL    HW1 6248   1.192   4.505   0.692
 1832SOL    HW2 6249   1.075   4.453   0.793
 1833SOL     OW 6250   1.755   4.331   0.231
 1833SOL    HW1 6251   1.743   4.318   0.132
 1833SOL    HW2 6252   1.725   4.250   0.280
 1834SOL     OW 6253   0.768   4.868   1.023
 1834SOL    HW1 6254   0.690   4.885   1.083
 1834SOL    HW2 6255   0.802   4.955   0.987
 1835SOL     OW 6256   0.850   4.522   1.823
 1835SOL    HW1 6257   0.846   4.598   1.888
 1835SOL    HW2 6258   0.872   4.558   1.732
 1836SOL     OW 6259   0.685   4.736   0.665
 1836SOL    HW1 6260   0.754   4.720   0.735
 1836SOL    HW2 6261   0.612   4.793   0.703
 1837SOL     OW 6262   0.686   4.885   1.803
 1837SOL    HW1 6263   0.746   4.964   1.817
 1837SOL    HW2 6264   0.600   4.916   1.762
 1838SOL     OW 6265   0.335   5.159   1.061
 1838SOL    HW1 6266   0.257   5.128   1.008
 1838SOL    HW2 6267   0.393   5.217   1.004
 1839SOL     OW 6268   1.460   5.229   1.339
 1839SOL    HW1 6269   1.484   5.323   1.365
 1839SOL    HW2 6270   1.444   5.175   1.421
 1840SOL     OW 6271   0.438   4.116   1.499
 1840SOL    HW1 6272   0.520   4.060   1.508
 1840SOL    HW2 6273   0.357   4.058   1.503
 1841SOL     OW 6274   1.603   4.171   0.737
 1841SOL    HW1 6275   1.529   4.217   0.687
 1841SOL    HW2 6276   1.654   4.239   0.790
 1842SOL     OW 6277   1.127   5.065   1.690
 1842SOL    HW1 6278   1.174   5.065   1.778
 1842SOL    HW2 6279   1.079   4.978   1.679
 1843SOL     OW 6280   0.230   5.158   0.538
 1843SOL    HW1 6281   0.204   5.254   0.538
 1843SOL    HW2 6282   0.159   5.104   0.583
 1844SOL     OW 6283   0.240   4.815   0.886
 1844SOL    HW1 6284   0.254   4.731   0.938
 1844SOL    HW2 6285   0.185   4.879   0.941
 1845SOL     OW 6286   0.606   4.688   0.123
 1845SOL    HW1 6287   0.613   4.772   0.069
 1845SOL    HW2 6288   0.652   4.701   0.211
 1846SOL     OW 6289   1.594   3.838   1.480
 1846SOL    HW1 6290   1.576   3.905   1.408
 1846SOL    HW2 6291   1.591   3.884   1.569
 1847SOL     OW 6292   0.122   4.367   0.563
 1847SOL    HW1 6293   0.077   4.279   0.580
 1847SOL    HW2 6294   0.121   4.421   0.647
 1848SOL     OW 6295   0.027   5.320   0.117
 1848SOL    HW1 6296   0.008   5.224   0.138
 1848SOL    HW2 6297  -0.006   5.378   0.192
 1849SOL     OW 6298   1.689   4.646   0.612
 1849SOL    HW1 6299   1.784   4.617   0.620
 1849SOL    HW2 6300   1.681   4.711   0.537
 1850SOL     OW 6301   1.641   4.832   0.432
 1850SOL    HW1 6302   1.727   4.834   0.380
 1850SOL    HW2 6303   1.655   4.879   0.520
 1851SOL     OW 6304   0.113   4.461   1.597
 1851SOL    HW1 6305   0.201   4.448   1.642
 1851SOL    HW2 6306   0.100   4.558   1.575
 1852SOL     OW 6307   0.613   5.089   0.726
 1852SOL    HW1 6308   0.564   5.002   0.735
 1852SOL    HW2 6309   0.590   5.132   0.639
 1853SOL     OW 6310   1.293   4.952   1.423
 1853SOL    HW1 6311   1.330   4.879   1.365
 1853SOL    HW2 6312   1.345   4.957   1.508
 1854SOL     OW 6313   0.809   3.728   0.502
 1854SOL    HW1 6314   0.849   3.819   0.493
 1854SOL    HW2 6315   0.709   3.736   0.508
 1855SOL     OW 6316   0.197   4.700   1.264
 1855SOL    HW1 6317   0.286   4.655   1.250
 1855SOL    HW2 6318   0.124   4.635   1.245
 1856SOL     OW 6319   1.525   4.723   0.190
 1856SOL    HW1 6320   1.462   4.647   0.203
 1856SOL    HW2 6321   1.573   4.741   0.276
 1857SOL     OW 6322   0.317   3.975   1.801
 1857SOL    HW1 6323   0.388   4.046   1.807
 1857SOL    HW2 6324   0.229   4.014   1.829
 1858SOL     OW 6325   1.466   5.141   0.953
 1858SOL    HW1 6326   1.407   5.147   1.033
 1858SOL    HW2 6327   1.451   5.053   0.907
 1859SOL     OW 6328   0.598   4.453   0.270
 1859SOL    HW1 6329   0.622   4.522   0.202
 1859SOL    HW2 6330   0.520   4.486   0.324
 1860SOL     OW 6331   1.281   4.069   0.944
 1860SOL    HW1 6332   1.195   4.019   0.931
 1860SOL    HW2 6333   1.343   4.015   1.000
 1861SOL     OW 6334   0.807   4.329   1.465
 1861SOL    HW1 6335   0.760   4.326   1.554
 1861SOL    HW2 6336   0.756   4.274   1.399
 1862SOL     OW 6337   1.394   4.193   1.674
 1862SOL    HW1 6338   1.374   4.236   1.762
 1862SOL    HW2 6339   1.472   4.131   1.683
 1863SOL     OW 6340   0.973   4.614   1.572
 1863SOL    HW1 6341   1.019   4.530   1.543
 1863SOL    HW2 6342   0.917   4.648   1.497
 1864SOL     OW 6343   0.991   4.134   1.242
 1864SOL    HW1 6344   0.914   4.168   1.296
 1864SOL    HW2 6345   0.957   4.083   1.163
 1865SOL     OW 6346   1.041   4.425   0.429
 1865SOL    HW1 6347   1.067   4.421   0.525
 1865SOL    HW2 6348   0.956   4.374   0.415
 1866SOL     OW 6349   0.076   4.535   0.789
 1866SOL    HW1 6350   0.175   4.523   0.798
 1866SOL    HW2 6351   0.052   4.630   0.810
 1867SOL     OW 6352   0.865   4.072   0.195
 1867SOL    HW1 6353   0.924   4.135   0.146
 1867SOL    HW2 6354   0.884   3.978   0.166
 1868SOL     OW 6355   1.719   4.309   1.831
 1868SOL    HW1 6356   1.693   4.398   1.795
 1868SOL    HW2 6357   1.717   4.241   1.758
 1869SOL     OW 6358   1.362   4.868   0.545
 1869SOL    HW1 6359   1.445   4.839   0.497
 1869SOL    HW2 6360   1.313   4.935   0.489
 1870SOL     OW 6361   0.550   3.920   0.885
 1870SOL    HW1 6362   0.545   3.915   0.985
 1870SOL    HW2 6363   0.552   4.016   0.856
 1871SOL     OW 6364   1.008   5.180   0.477
 1871SOL    HW1 6365   0.962   5.252   0.425
 1871SOL    HW2 6366   1.004   5.200   0.575
 1872SOL     OW 6367   1.795   4.790   0.873
 1872SOL    HW1 6368   1.733   4.775   0.797
 1872SOL    HW2 6369   1.743   4.801   0.958
 1873SOL     OW 6370   1.227   5.274   1.506
 1873SOL    HW1 6371   1.233   5.197   1.570
 1873SOL    HW2 6372   1.175   5.248   1.426
 1874SOL     OW 6373   0.321   4.667   0.242
 1874SOL    HW1 6374   0.403   4.706   0.200
 1874SOL    HW2 6375   0.294   4.585   0.193
 1875SOL     OW 6376   1.458   4.459   0.728
 1875SOL    HW1 6377   1.453   4.394   0.803
 1875SOL    HW2 6378   1.538   4.518   0.741
 1876SOL     OW 6379   0.461   4.990   1.727
 1876SOL    HW1 6380   0.411   4.991   1.641
 1876SOL    HW2 6381   0.398   4.972   1.803
 1877SOL     OW 6382   1.111   5.500   0.237
 1877SOL    HW1 6383   1.051   5.438   0.287
 1877SOL    HW2 6384   1.142   5.456   0.152
 1878SOL     OW 6385   0.202   4.009   1.498
 1878SOL    HW1 6386   0.122   4.069   1.485
 1878SOL    HW2 6387   0.192   3.960   1.584
 1879SOL     OW 6388   1.632   5.101   0.081
 1879SOL    HW1 6389   1.600   5.195   0.071
 1879SOL    HW2 6390   1.556   5.038   0.069
 1880SOL     OW 6391   1.400   3.831   0.426
 1880SOL    HW1 6392   1.376   3.794   0.336
 1880SOL    HW2 6393   1.499   3.847   0.430
 1881SOL     OW 6394   0.382   4.424   0.480
 1881SOL    HW1 6395   0.427   4.334   0.477
 1881SOL    HW2 6396   0.288   4.413   0.513
 1882SOL     OW 6397   1.547   3.946   1.729
 1882SOL    HW1 6398   1.542   3.983   1.821
 1882SOL    HW2 6399   1.475   3.877   1.717
 1883SOL     OW 6400   0.614   3.846   0.117
 1883SOL    HW1 6401   0.712   3.824   0.124
 1883SOL    HW2 6402   0.583   3.829   0.024
 1884SOL     OW 6403   0.781   3.988   1.749
 1884SOL    HW1 6404   0.848   3.927   1.792
 1884SOL    HW2 6405   0.708   4.007   1.814
 1885SOL     OW 6406   1.351   4.314   1.433
 1885SOL    HW1 6407   1.379   4.271   1.518
 1885SOL    HW2 6408   1.376   4.410   1.434
 1886SOL     OW 6409   0.803   5.126   0.924
 1886SOL    HW1 6410   0.893   5.140   0.882
 1886SOL    HW2 6411   0.732   5.128   0.853
 1887SOL     OW 6412   0.922   4.227   0.899
 1887SOL    HW1 6413   0.897   4.218   0.803
 1887SOL    HW2 6414   0.970   4.145   0.930
 1888SOL     OW 6415   0.539   3.788   0.512
 1888SOL    HW1 6416   0.458   3.789   0.570
 1888SOL    HW2 6417   0.542   3.871   0.457
 1889SOL     OW 6418   1.434   4.912   0.041
 1889SOL    HW1 6419   1.466   4.836   0.098
 1889SOL    HW2 6420   1.342   4.939   0.071
 1890SOL     OW 6421   0.297   3.759   0.171
 1890SOL    HW1 6422   0.346   3.843   0.150
 1890SOL    HW2 6423   0.359   3.694   0.216
 1891SOL     OW 6424   0.935   3.960   0.480
 1891SOL    HW1 6425   0.887   4.001   0.402
 1891SOL    HW2 6426   1.034   3.958   0.461
 1892SOL     OW 6427   1.076   4.407   1.464
 1892SOL    HW1 6428   0.996   4.346   1.467
 1892SOL    HW2 6429   1.157   4.354   1.440
 1893SOL     OW 6430   1.227   5.294   0.793
 1893SOL    HW1 6431   1.248   5.368   0.728
 1893SOL    HW2 6432   1.295   5.294   0.866
 1894SOL     OW 6433   0.459   4.876   0.741
 1894SOL    HW1 6434   0.388   4.849   0.806
 1894SOL    HW2 6435   0.433   4.848   0.648
 1895SOL     OW 6436   1.032   4.273   0.016
 1895SOL    HW1 6437   0.991   4.355  -0.023
 1895SOL    HW2 6438   1.096   4.299   0.089
 1896SOL     OW 6439   0.078   4.280   1.386
 1896SOL    HW1 6440   0.170   4.279   1.345
 1896SOL    HW2 6441   0.072   4.354   1.453
 1897SOL     OW 6442   0.561   3.946   1.147
 1897SOL    HW1 6443   0.599   3.862   1.184
 1897SOL    HW2 6444   0.473   3.965   1.191
 1898SOL     OW 6445   0.866   4.178   0.642
 1898SOL    HW1 6446   0.834   4.250   0.580
 1898SOL    HW2 6447   0.890   4.097   0.589
 1899SOL     OW 6448   1.017   3.763   0.753
 1899SOL    HW1 6449   0.945   3.768   0.684
 1899SOL    HW2 6450   0.993   3.694   0.822
 1900SOL     OW 6451   1.429   4.897   0.867
 1900SOL    HW1 6452   1.374   4.813   0.860
 1900SOL    HW2 6453   1.455   4.926   0.775
 1901SOL     OW 6454   1.466   4.314   0.992
 1901SOL    HW1 6455   1.436   4.219   0.999
 1901SOL    HW2 6456   1.539   4.330   1.058
 1902SOL     OW 6457   1.857   4.557   0.377
 1902SOL    HW1 6458   1.899   4.493   0.441
 1902SOL    HW2 6459   1.819   4.506   0.299
 1903SOL     OW 6460   0.488   5.109   0.174
 1903SOL    HW1 6461   0.401   5.094   0.221
 1903SOL    HW2 6462   0.471   5.135   0.079
 1904SOL     OW 6463   1.664   5.004   0.657
 1904SOL    HW1 6464   1.763   5.012   0.671
 1904SOL    HW2 6465   1.619   5.088   0.688
 1905SOL     OW 6466   1.390   4.299   0.078
 1905SOL    HW1 6467   1.336   4.278   0.159
 1905SOL    HW2 6468   1.481   4.258   0.087
 1906SOL     OW 6469   0.527   3.980   0.328
 1906SOL    HW1 6470   0.554   3.921   0.253
 1906SOL    HW2 6471   0.527   4.075   0.297
 1907SOL     OW 6472   1.754   4.947   1.588
 1907SOL    HW1 6473   1.845   4.908   1.575
 1907SOL    HW2 6474   1.762   5.043   1.612
 1908SOL     OW 6475   1.064   5.071   1.340
 1908SOL    HW1 6476   0.984   5.048   1.395
 1908SOL    HW2 6477   1.147   5.045   1.389
 1909SOL     OW 6478   1.111   4.919   1.100
 1909SOL    HW1 6479   1.071   4.963   1.181
 1909SOL    HW2 6480   1.070   4.956   1.017
 1910SOL     OW 6481   1.638   4.823   1.079
 1910SOL    HW1 6482   1.643   4.904   1.138
 1910SOL    HW2 6483   1.552   4.825   1.028
 1911SOL     OW 6484   0.915   3.813   1.402
 1911SOL    HW1 6485   0.940   3.793   1.307
 1911SOL    HW2 6486   0.987   3.869   1.444
 1912SOL     OW 6487   0.980   4.840   1.719
 1912SOL    HW1 6488   0.881   4.846   1.729
 1912SOL    HW2 6489   1.003   4.760   1.663
 1913SOL     OW 6490   0.705   4.774   0.368
 1913SOL    HW1 6491   0.691   4.781   0.467
 1913SOL    HW2 6492   0.789   4.723   0.350
 1914SOL     OW 6493   0.410   4.537   1.251
 1914SOL    HW1 6494   0.496   4.549   1.301
 1914SOL    HW2 6495   0.368   4.450   1.278
 1915SOL     OW 6496   1.274   4.110   1.262
 1915SOL    HW1 6497   1.295   4.184   1.326
 1915SOL    HW2 6498   1.185   4.127   1.219
 1916SOL     OW 6499   0.064   5.288   1.331
 1916SOL    HW1 6500   0.018   5.370   1.297
 1916SOL    HW2 6501   0.162   5.307   1.340
 1917SOL     OW 6502   0.367   4.824   0.501
 1917SOL    HW1 6503   0.360   4.907   0.445
 1917SOL    HW2 6504   0.371   4.744   0.441
 1918SOL     OW 6505   0.566   4.261   0.865
 1918SOL    HW1 6506   0.578   4.327   0.791
 1918SOL    HW2 6507   0.612   4.295   0.948
 1919SOL     OW 6508   1.252   5.072   0.388
 1919SOL    HW1 6509   1.302   5.149   0.428
 1919SOL    HW2 6510   1.157   5.074   0.420
 1920SOL     OW 6511   1.272   5.169   1.142
 1920SOL    HW1 6512   1.319   5.182   1.229
 1920SOL    HW2 6513   1.206   5.095   1.151
 1921SOL     OW 6514   1.582   4.363   0.472
 1921SOL    HW1 6515   1.551   4.424   0.545
 1921SOL    HW2 6516   1.632   4.415   0.403
 1922SOL     OW 6517   0.354   5.234   1.329
 1922SOL    HW1 6518   0.333   5.190   1.242
 1922SOL    HW2 6519   0.451   5.260   1.332
 1923SOL     OW 6520   0.402   4.475   1.598
 1923SOL    HW1 6521   0.470   4.530   1.551
 1923SOL    HW2 6522   0.442   4.387   1.625
 1924SOL     OW 6523   1.587   4.503   1.670
 1924SOL    HW1 6524   1.495   4.541   1.665
 1924SOL    HW2 6525   1.647   4.550   1.605
 1925SOL     OW 6526   1.013   3.829   1.770
 1925SOL    HW1 6527   1.019   3.914   1.718
 1925SOL    HW2 6528   1.045   3.753   1.713
 1926SOL     OW 6529   0.504   3.774   1.740
 1926SOL    HW1 6530   0.462   3.717   1.670
 1926SOL    HW2 6531   0.438   3.843   1.772
 1927SOL     OW 6532   0.573   4.594   1.029
 1927SOL    HW1 6533   0.617   4.683   1.020
 1927SOL    HW2 6534   0.510   4.594   1.106
 1928SOL     OW 6535   1.360   4.586   1.045
 1928SOL    HW1 6536   1.285   4.586   0.979
 1928SOL    HW2 6537   1.397   4.494   1.054
 1929SOL     OW 6538   1.209   4.249   0.275
 1929SOL    HW1 6539   1.222   4.165   0.329
 1929SOL    HW2 6540   1.180   4.323   0.335
 1930SOL     OW 6541   0.307   3.937   1.231
 1930SOL    HW1 6542   0.284   3.974   1.321
 1930SOL    HW2 6543   0.277   3.842   1.225
 1931SOL     OW 6544   0.037   5.034   1.282
 1931SOL    HW1 6545   0.090   4.985   1.350
 1931SOL    HW2 6546   0.059   5.132   1.287
 1932SOL     OW 6547   0.732   4.358   1.064
 1932SOL    HW1 6548   0.791   4.332   0.988
 1932SOL    HW2 6549   0.704   4.454   1.053
 1933SOL     OW 6550   1.728   4.659   1.854
 1933SOL    HW1 6551   1.682   4.652   1.765
 1933SOL    HW2 6552   1.666   4.703   1.920
 1934SOL     OW 6553   0.307   3.787   0.618
 1934SOL    HW1 6554   0.296   3.881   0.651
 1934SOL    HW2 6555   0.302   3.724   0.695
 1935SOL     OW 6556   1.622   4.091   0.374
 1935SOL    HW1 6557   1.624   4.015   0.438
 1935SOL    HW2 6558   1.574   4.168   0.414
 1936SOL     OW 6559   1.023   4.490   0.966
 1936SOL    HW1 6560   1.038   4.511   1.062
 1936SOL    HW2 6561   0.993   4.395   0.957
 1937SOL     OW 6562   1.859   5.242   1.605
 1937SOL    HW1 6563   1.873   5.269   1.510
 1937SOL    HW2 6564   1.942   5.264   1.658
 1938SOL     OW 6565   0.350   4.622   1.804
 1938SOL    HW1 6566   0.426   4.666   1.852
 1938SOL    HW2 6567   0.385   4.575   1.722
 1939SOL     OW 6568   1.540   3.998   0.125
 1939SOL    HW1 6569   1.479   3.923   0.148
 1939SOL    HW2 6570   1.562   4.050   0.208
 1940SOL     OW 6571   1.303   4.562   0.042
 1940SOL    HW1 6572   1.337   4.469   0.057
 1940SOL    HW2 6573   1.321   4.589  -0.053
 1941SOL     OW 6574   1.068   5.057   0.849
 1941SOL    HW1 6575   1.075   4.973   0.794
 1941SOL    HW2 6576   1.130   5.126   0.813
 1942SOL     OW 6577   0.319   4.534   0.949
 1942SOL    HW1 6578   0.412   4.570   0.954
 1942SOL    HW2 6579   0.313   4.449   1.001
 1943SOL     OW 6580   0.339   4.233   1.006
 1943SOL    HW1 6581   0.287   4.150   0.989
 1943SOL    HW2 6582   0.416   4.238   0.942
 1944SOL     OW 6583   1.138   4.104   1.678
 1944SOL    HW1 6584   1.093   4.167   1.742
 1944SOL    HW2 6585   1.231   4.135   1.661
 1945SOL     OW 6586   1.160   3.931   1.477
 1945SOL    HW1 6587   1.160   3.995   1.554
 1945SOL    HW2 6588   1.188   3.979   1.394
 1946SOL     OW 6589   0.008   5.050   0.200
 1946SOL    HW1 6590  -0.085   5.071   0.169
 1946SOL    HW2 6591   0.018   4.951   0.213
 1947SOL     OW 6592   1.002   4.520   1.238
 1947SOL    HW1 6593   1.043   4.488   1.324
 1947SOL    HW2 6594   0.906   4.493   1.235
 1948SOL     OW 6595   0.040   4.268   1.114
 1948SOL    HW1 6596   0.125   4.235   1.073
 1948SOL    HW2 6597   0.053   4.283   1.212
 1949SOL     OW 6598   0.189   4.244   1.722
 1949SOL    HW1 6599   0.248   4.204   1.652
 1949SOL    HW2 6600   0.131   4.315   1.681
 1950SOL     OW 6601   1.369   4.674   1.660
 1950SOL    HW1 6602   1.408   4.763   1.680
 1950SOL    HW2 6603   1.379   4.654   1.563
 1951SOL     OW 6604   0.815   4.296   0.325
 1951SOL    HW1 6605   0.822   4.207   0.279
 1951SOL    HW2 6606   0.721   4.330   0.317
 1952SOL     OW 6607   1.657   4.328   1.206
 1952SOL    HW1 6608   1.619   4.259   1.268
 1952SOL    HW2 6609   1.739   4.292   1.162
 1953SOL     OW 6610   0.252   5.288   1.744
 1953SOL    HW1 6611   0.222   5.345   1.820
 1953SOL    HW2 6612   0.245   5.191   1.770
 1954SOL     OW 6613   0.671   4.188   1.269
 1954SOL    HW1 6614   0.637   4.099   1.239
 1954SOL    HW2 6615   0.697   4.242   1.189
 1955SOL     OW 6616   0.473   4.224   0.191
 1955SOL    HW1 6617   0.534   4.304   0.195
 1955SOL    HW2 6618   0.378   4.255   0.198
 1956SOL     OW 6619   0.159   4.861   1.466
 1956SOL    HW1 6620   0.181   4.800   1.542
 1956SOL    HW2 6621   0.169   4.812   1.380
 1957SOL     OW 6622   1.347   4.783   1.234
 1957SOL    HW1 6623   1.371   4.720   1.160
 1957SOL    HW2 6624   1.257   4.823   1.216
 1958SOL     OW 6625   1.302   4.579   0.309
 1958SOL    HW1 6626   1.216   4.548   0.351
 1958SOL    HW2 6627   1.298   4.565   0.210
 1959SOL     OW 6628   0.083   4.982   1.022
 1959SOL    HW1 6629   0.078   4.981   1.122
 1959SOL    HW2 6630   0.000   4.941   0.984
 1960SOL     OW 6631   0.688   5.386   1.716
 1960SOL    HW1 6632   0.632   5.467   1.725
 1960SOL    HW2 6633   0.740   5.390   1.630
 1961SOL     OW 6634   0.903   3.810   0.133
 1961SOL    HW1 6635   0.954   3.811   0.047
 1961SOL    HW2 6636   0.959   3.768   0.204
 1962SOL     OW 6637   1.726   3.859   0.523
 1962SOL    HW1 6638   1.799   3.842   0.456
 1962SOL    HW2 6639   1.695   3.772   0.561
 1963SOL     OW 6640   1.280   4.651   0.672
 1963SOL    HW1 6641   1.340   4.570   0.674
 1963SOL    HW2 6642   1.320   4.720   0.612
 1964SOL     OW 6643   0.830   4.997   1.422
 1964SOL    HW1 6644   0.825   5.030   1.517
 1964SOL    HW2 6645   0.744   5.016   1.376
 1965SOL     OW 6646   1.841   3.899   0.963
 1965SOL    HW1 6647   1.880   3.814   0.927
 1965SOL    HW2 6648   1.743   3.901   0.944
 1966SOL     OW 6649   0.263   4.050   0.720
 1966SOL    HW1 6650   0.184   4.101   0.686
 1966SOL    HW2 6651   0.254   4.035   0.818
 1967SOL     OW 6652   1.194   5.336   0.031
 1967SOL    HW1 6653   1.200   5.243   0.068
 1967SOL    HW2 6654   1.135   5.336  -0.049
 1968SOL     OW 6655   0.822   4.726   1.372
 1968SOL    HW1 6656   0.862   4.725   1.280
 1968SOL    HW2 6657   0.832   4.818   1.412
 1969SOL     OW 6658   0.916   4.634   0.291
 1969SOL    HW1 6659   0.979   4.672   0.223
 1969SOL    HW2 6660   0.956   4.551   0.330
 1970SOL     OW 6661   0.372   5.012   1.490
 1970SOL    HW1 6662   0.359   5.105   1.456
 1970SOL    HW2 6663   0.288   4.960   1.477
 1971SOL     OW 6664   1.614   5.016   1.289
 1971SOL    HW1 6665   1.674   5.019   1.369
 1971SOL    HW2 6666   1.539   5.080   1.302
 1972SOL     OW 6667   1.039   4.822   0.696
 1972SOL    HW1 6668   0.969   4.775   0.750
 1972SOL    HW2 6669   1.098   4.754   0.653
 1973SOL     OW 6670   1.014   3.960   0.971
 1973SOL    HW1 6671   1.006   3.924   0.878
 1973SOL    HW2 6672   1.012   3.884   1.036
 1974SOL     OW 6673   1.709   4.109   1.381
 1974SOL    HW1 6674   1.782   4.178   1.385
 1974SOL    HW2 6675   1.737   4.034   1.322
 1975SOL     OW 6676   0.255   5.072   0.290
 1975SOL    HW1 6677   0.159   5.073   0.263
 1975SOL    HW2 6678   0.267   5.125   0.374
 1976SOL     OW 6679   0.105   4.737   1.726
 1976SOL    HW1 6680   0.028   4.704   1.780
 1976SOL    HW2 6681   0.190   4.707   1.768
 1977SOL     OW 6682   0.672   3.927   1.489
 1977SOL    HW1 6683   0.762   3.911   1.449
 1977SOL    HW2 6684   0.680   3.932   1.588
 1978SOL     OW 6685   0.075   4.069   0.033
 1978SOL    HW1 6686  -0.017   4.041   0.004
 1978SOL    HW2 6687   0.106   4.146  -0.023
 1979SOL     OW 6688   1.440   4.580   1.398
 1979SOL    HW1 6689   1.383   4.632   1.335
 1979SOL    HW2 6690   1.536   4.592   1.374
 1980SOL     OW 6691   0.072   3.890   0.318
 1980SOL    HW1 6692   0.055   3.973   0.264
 1980SOL    HW2 6693   0.162   3.853   0.296
 1981SOL     OW 6694   1.183   5.059   0.119
 1981SOL    HW1 6695   1.084   5.048   0.121
 1981SOL    HW2 6696   1.217   5.074   0.212
 1982SOL     OW 6697   0.613   4.566   1.431
 1982SOL    HW1 6698   0.669   4.647   1.414
 1982SOL    HW2 6699   0.672   4.486   1.434
 1983SOL     OW 6700   0.716   4.289   1.708
 1983SOL    HW1 6701   0.735   4.354   1.782
 1983SOL    HW2 6702   0.776   4.209   1.717
 1984SOL     OW 6703   1.450   4.944   1.633
 1984SOL    HW1 6704   1.441   4.934   1.732
 1984SOL    HW2 6705   1.546   4.937   1.607
 1985SOL     OW 6706   1.674   4.607   1.254
 1985SOL    HW1 6707   1.647   4.518   1.217
 1985SOL    HW2 6708   1.675   4.675   1.181
 1986SOL     OW 6709   1.225   4.049   0.449
 1986SOL    HW1 6710   1.290   3.975   0.438
 1986SOL    HW2 6711   1.245   4.099   0.533
 1987SOL     OW 6712   0.594   4.469   0.652
 1987SOL    HW1 6713   0.644   4.554   0.633
 1987SOL    HW2 6714   0.506   4.471   0.604
 1988SOL     OW 6715   1.777   4.066   1.642
 1988SOL    HW1 6716   1.760   4.097   1.548
 1988SOL    HW2 6717   1.693   4.029   1.680
 1989SOL     OW 6718   1.730   4.658   1.517
 1989SOL    HW1 6719   1.768   4.749   1.532
 1989SOL    HW2 6720   1.722   4.641   1.418
 1990SOL     OW 6721   0.859   5.098   0.016
 1990SOL    HW1 6722   0.813   5.113   0.104
 1990SOL    HW2 6723   0.903   5.183  -0.014
 1991SOL     OW 6724   0.859   4.680   0.861
 1991SOL    HW1 6725   0.913   4.611   0.909
 1991SOL    HW2 6726   0.827   4.749   0.927
 1992SOL     OW 6727   1.083   4.708   0.087
 1992SOL    HW1 6728   1.060   4.761   0.005
 1992SOL    HW2 6729   1.164   4.652   0.068
 1993SOL     OW 6730   0.221   5.038   1.844
 1993SOL    HW1 6731   0.156   4.965   1.823
 1993SOL    HW2 6732   0.225   5.052   1.942
 1994SOL     OW 6733   0.079   4.964   0.653
 1994SOL    HW1 6734   0.078   4.917   0.741
 1994SOL    HW2 6735   0.161   4.936   0.602
 1995SOL     OW 6736   0.672   5.115   1.624
 1995SOL    HW1 6737   0.594   5.065   1.662
 1995SOL    HW2 6738   0.669   5.210   1.655
 1996SOL     OW 6739   1.824   3.916   1.227
 1996SOL    HW1 6740   1.820   3.826   1.271
 1996SOL    HW2 6741   1.827   3.905   1.128
 1997SOL     OW 6742   0.428   4.148   0.520
 1997SOL    HW1 6743   0.458   4.076   0.458
 1997SOL    HW2 6744   0.389   4.108   0.603
 1998SOL     OW 6745   1.705   5.211   1.104
 1998SOL    HW1 6746   1.612   5.186   1.077
 1998SOL    HW2 6747   1.731   5.161   1.186
 1999SOL     OW 6748   0.317   4.271   1.280
 1999SOL    HW1 6749   0.355   4.212   1.352
 1999SOL    HW2 6750   0.357   4.245   1.192
 2000SOL     OW 6751   1.424   3.938   1.112
 2000SOL    HW1 6752   1.476   3.873   1.167
 2000SOL    HW2 6753   1.375   4.001   1.173
 2001SOL     OW 6754   1.001   3.758   1.154
 2001SOL    HW1 6755   0.938   3.686   1.123
 2001SOL    HW2 6756   1.094   3.722   1.154
 2002SOL     OW 6757   0.770   5.054   0.301
 2002SOL    HW1 6758   0.724   4.967   0.318
 2002SOL    HW2 6759   0.861   5.051   0.342
 2003SOL     OW 6760   0.618   5.291   1.284
 2003SOL    HW1 6761   0.613   5.373   1.341
 2003SOL    HW2 6762   0.707   5.288   1.239
 2004SOL     OW 6763   1.352   3.776   0.168
 2004SOL    HW1 6764   1.387   3.735   0.084
 2004SOL    HW2 6765   1.262   3.738   0.188
 2005SOL     OW 6766   1.300   4.177   0.691
 2005SOL    HW1 6767   1.241   4.257   0.695
 2005SOL    HW2 6768   1.315   4.142   0.784
 2006SOL     OW 6769   1.593   3.945   0.882
 2006SOL    HW1 6770   1.509   3.944   0.936
 2006SOL    HW2 6771   1.595   4.028   0.826
 2007SOL     OW 6772   0.039   4.801   0.300
 2007SOL    HW1 6773   0.138   4.790   0.291
 2007SOL    HW2 6774  -0.001   4.715   0.332
 2008SOL     OW 6775   0.230   4.352   1.975
 2008SOL    HW1 6776   0.137   4.350   2.012
 2008SOL    HW2 6777   0.231   4.313   1.883
 2009SOL     OW 6778   0.225   3.999   2.858
 2009SOL    HW1 6779   0.260   3.982   2.950
 2009SOL    HW2 6780   0.137   3.954   2.846
 2010SOL     OW 6781   0.019   4.092   2.509
 2010SOL    HW1 6782  -0.063   4.135   2.548
 2010SOL    HW2 6783  -0.009   4.019   2.446
 2011SOL     OW 6784   0.569   4.999   3.027
 2011SOL    HW1 6785   0.476   4.992   2.990
 2011SOL    HW2 6786   0.580   5.088   3.071
 2012SOL     OW 6787   1.555   5.235   2.565
 2012SOL    HW1 6788   1.498   5.219   2.646
 2012SOL    HW2 6789   1.496   5.245   2.485
 2013SOL     OW 6790   1.135   4.427   2.579
 2013SOL    HW1 6791   1.192   4.505   2.554
 2013SOL    HW2 6792   1.075   4.453   2.655
 2014SOL     OW 6793   1.755   4.331   2.093
 2014SOL    HW1 6794   1.743   4.318   1.994
 2014SOL    HW2 6795   1.725   4.250   2.142
 2015SOL     OW 6796   0.768   4.868   2.885
 2015SOL    HW1 6797   0.690   4.885   2.945
 2015SOL    HW2 6798   0.802   4.955   2.849
 2016SOL     OW 6799   0.850   4.522   3.685
 2016SOL    HW1 6800   0.846   4.598   3.750
 2016SOL    HW2 6801   0.872   4.558   3.594
 2017SOL     OW 6802   0.685   4.736   2.527
 2017SOL    HW1 6803   0.754   4.720   2.597
 2017SOL    HW2 6804   0.612   4.793   2.565
 2018SOL     OW 6805   0.686   4.885   3.665
 2018SOL    HW1 6806   0.746   4.964   3.679
 2018SOL    HW2 6807   0.600   4.916   3.624
 2019SOL     OW 6808   0.335   5.159   2.923
 2019SOL    HW1 6809   0.257   5.128   2.870
 2019SOL    HW2 6810   0.393   5.217   2.866
 2020SOL     OW 6811   1.460   5.229   3.201
 2020SOL    HW1 6812   1.484   5.323   3.227
 2020SOL    HW2 6813   1.444   5.175   3.283
 2021SOL     OW 6814   0.438   4.116   3.361
 2021SOL    HW1 6815   0.520   4.060   3.370
 2021SOL    HW2 6816   0.357   4.058   3.365
 2022SOL     OW 6817   1.603   4.171   2.599
 2022SOL    HW1 6818   1.529   4.217   2.549
 2022SOL    HW2 6819   1.654   4.239   2.652
 2023SOL     OW 6820   1.127   5.065   3.552
 2023SOL    HW1 6821   1.174   5.065   3.640
 2023SOL    HW2 6822   1.079   4.978   3.541
 2024SOL     OW 6823   0.230   5.158   2.400
 2024SOL    HW1 6824   0.204   5.254   2.400
 2024SOL    HW2 6825   0.159   5.104   2.445
 2025SOL     OW 6826   0.240   4.815   2.748
 2025SOL    HW1 6827   0.254   4.731   2.800
 2025SOL    HW2 6828   0.185   4.879   2.803
 2026SOL     OW 6829   0.606   4.688   1.985
 2026SOL    HW1 6830   0.613   4.772   1.931
 2026SOL    HW2 6831   0.652   4.701   2.073
 2027SOL     OW 6832   1.594   3.838   3.342
 2027SOL    HW1 6833   1.576   3.905   3.270
 2027SOL    HW2 6834   1.591   3.884   3.431
 2028SOL     OW 6835   0.122   4.367   2.425
 2028SOL    HW1 6836   0.077   4.279   2.442
 2028SOL    HW2 6837   0.121   4.421   2.509
 2029SOL     OW 6838   0.027   5.320   1.979
 2029SOL    HW1 6839   0.008   5.224   2.000
 2029SOL    HW2 6840  -0.006   5.378   2.054
 2030SOL     OW 6841   1.689   4.646   2.474
 2030SOL    HW1 6842   1.784   4.617   2.482
 2030SOL    HW2 6843   1.681   4.711   2.399
 2031SOL     OW 6844   1.641   4.832   2.294
 2031SOL    HW1 6845   1.727   4.834   2.242
 2031SOL    HW2 6846   1.655   4.879   2.382
 2032SOL     OW 6847   0.113   4.461   3.459
 2032SOL    HW1 6848   0.201   4.448   3.504
 2032SOL    HW2 6849   0.100   4.558   3.437
 2033SOL     OW 6850   0.613   5.089   2.588
 2033SOL    HW1 6851   0.564   5.002   2.597
 2033SOL    HW2 6852   0.590   5.132   2.501
 2034SOL     OW 6853   1.293   4.952   3.285
 2034SOL    HW1 6854   1.330   4.879   3.227
 2034SOL    HW2 6855   1.345   4.957   3.370
 2035SOL     OW 6856   0.809   3.728   2.364
 2035SOL    HW1 6857   0.849   3.819   2.355
 2035SOL    HW2 6858   0.709   3.736   2.370
 2036SOL     OW 6859   0.197   4.700   3.126
 2036SOL    HW1 6860   0.286   4.655   3.112
 2036SOL    HW2 6861   0.124   4.635   3.107
 2037SOL     OW 6862   1.525   4.723   2.052
 2037SOL    HW1 6863   1.462   4.647   2.065
 2037SOL    HW2 6864   1.573   4.741   2.138
 2038SOL     OW 6865   0.317   3.975   3.663
 2038SOL    HW1 6866   0.388   4.046   3.669
 2038SOL    HW2 6867   0.229   4.014   3.691
 2039SOL     OW 6868   1.466   5.141   2.815
 2039SOL    HW1 6869   1.407   5.147   2.895
 2039SOL    HW2 6870   1.451   5.053   2.769
 2040SOL     OW 6871   0.598   4.453   2.132
 2040SOL    HW1 6872   0.622   4.522   2.064
 2040SOL    HW2 6873   0.520   4.486   2.186
 2041SOL     OW 6874   1.281   4.069   2.806
 2041SOL    HW1 6875   1.195   4.019   2.793
 2041SOL    HW2 6876   1.343   4.015   2.862
 2042SOL     OW 6877   0.807   4.329   3.327
 2042SOL    HW1 6878   0.760   4.326   3.416
 2042SOL    HW2 6879   0.756   4.274   3.261
 2043SOL     OW 6880   1.394   4.193   3.536
 2043SOL    HW1 6881   1.374   4.236   3.624
 2043SOL    HW2 6882   1.472   4.131   3.545
 2044SOL     OW 6883   0.973   4.614   3.434
 2044SOL    HW1 6884   1.019   4.530   3.405
 2044SOL    HW2 6885   0.917   4.648   3.359
 2045SOL     OW 6886   0.991   4.134   3.104
 2045SOL    HW1 6887   0.914   4.168   3.158
 2045SOL    HW2 6888   0.957   4.083   3.025
 2046SOL     OW 6889   1.041   4.425   2.291
 2046SOL    HW1 6890   1.067   4.421   2.387
 2046SOL    HW2 6891   0.956   4.374   2.277
 2047SOL     OW 6892   0.076   4.535   2.651
 2047SOL    HW1 6893   0.175   4.523   2.660
 2047SOL    HW2 6894   0.052   4.630   2.672
 2048SOL     OW 6895   0.865   4.072   2.057
 2048SOL    HW1 6896   0.924   4.135   2.008
 2048SOL    HW2 6897   0.884   3.978   2.028
 2049SOL     OW 6898   1.719   4.309   3.693
 2049SOL    HW1 6899   1.693   4.398   3.657
 2049SOL    HW2 6900   1.717   4.241   3.620
 2050SOL     OW 6901   1.362   4.868   2.407
 2050SOL    HW1 6902   1.445   4.839   2.359
 2050SOL    HW2 6903   1.313   4.935   2.351
 2051SOL     OW 6904   0.550   3.920   2.747
 2051SOL    HW1 6905   0.545   3.915   2.847
 2051SOL    HW2 6906   0.552   4.016   2.718
 2052SOL     OW 6907   1.008   5.180   2.339
 2052SOL    HW1 6908   0.962   5.252   2.287
 2052SOL    HW2 6909   1.004   5.200   2.437
 2053SOL     OW 6910   1.795   4.790   2.735
 2053SOL    HW1 6911   1.733   4.775   2.659
 2053SOL    HW2 6912   1.743   4.801   2.820
 2054SOL     OW 6913   1.227   5.274   3.368
 2054SOL    HW1 6914   1.233   5.197   3.432
 2054SOL    HW2 6915   1.175   5.248   3.288
 2055SOL     OW 6916   0.321   4.667   2.104
 2055SOL    HW1 6917   0.403   4.706   2.062
 2055SOL    HW2 6918   0.294   4.585   2.055
 2056SOL     OW 6919   1.458   4.459   2.590
 2056SOL    HW1 6920   1.453   4.394   2.665
 2056SOL    HW2 6921   1.538   4.518   2.603
 2057SOL     OW 6922   0.461   4.990   3.589
 2057SOL    HW1 6923   0.411   4.991   3.503
 2057SOL    HW2 6924   0.398   4.972   3.665
 2058SOL     OW 6925   1.111   5.500   2.099
 2058SOL    HW1 6926   1.051   5.438   2.149
 2058SOL    HW2 6927   1.142   5.456   2.014
 2059SOL     OW 6928   0.202   4.009   3.360
 2059SOL    HW1 6929   0.122   4.069   3.347
 2059SOL    HW2 6930   0.192   3.960   3.446
 2060SOL     OW 6931   1.632   5.101   1.943
 2060SOL    HW1 6932   1.600   5.195   1.933
 2060SOL    HW2 6933   1.556   5.038   1.931
 2061SOL     OW 6934   1.400   3.831   2.288
 2061SOL    HW1 6935   1.376   3.794   2.198
 2061SOL    HW2 6936   1.499   3.847   2.292
 2062SOL     OW 6937   0.382   4.424   2.342
 2062SOL    HW1 6938   0.427   4.334   2.339
 2062SOL    HW2 6939   0.288   4.413   2.375
 2063SOL     OW 6940   1.547   3.946   3.591
 2063SOL    HW1 6941   1.542   3.983   3.683
 2063SOL    HW2 6942   1.475   3.877   3.579
 2064SOL     OW 6943   0.614   3.846   1.979
 2064SOL    HW1 6944   0.712   3.824   1.986
 2064SOL    HW2 6945   0.583   3.829   1.886
 2065SOL     OW 6946   0.781   3.988   3.611
 2065SOL    HW1 6947   0.848   3.927   3.654
 2065SOL    HW2 6948   0.708   4.007   3.676
 2066SOL     OW 6949   1.351   4.314   3.295
 2066SOL    HW1 6950   1.379   4.271   3.380
 2066SOL    HW2 6951   1.376   4.410   3.296
 2067SOL     OW 6952   0.803   5.126   2.786
 2067SOL    HW1 6953   0.893   5.140   2.744
 2067SOL    HW2 6954   0.732   5.128   2.715
 2068SOL     OW 6955   0.922   4.227   2.761
 2068SOL    HW1 6956   0.897   4.218   2.665
 2068SOL    HW2 6957   0.970   4.145   2.792
 2069SOL     OW 6958   0.539   3.788   2.374
 2069SOL    HW1 6959   0.458   3.789   2.432
 2069SOL    HW2 6960   0.542   3.871   2.319
 2070SOL     OW 6961   1.434   4.912   1.903
 2070SOL    HW1 6962   1.466   4.836   1.960
 2070SOL    HW2 6963   1.342   4.939   1.933
 2071SOL     OW 6964   0.297   3.759   2.033
 2071SOL    HW1 6965   0.346   3.843   2.012
 2071SOL    HW2 6966   0.359   3.694   2.078
 2072SOL     OW 6967   0.935   3.960   2.342
 2072SOL    HW1 6968   0.887   4.001   2.264
 2072SOL    HW2 6969   1.034   3.958   2.323
 2073SOL     OW 6970   1.076   4.407   3.326
 2073SOL    HW1 6971   0.996   4.346   3.329
 2073SOL    HW2 6972   1.157   4.354   3.302
 2074SOL     OW 6973   1.227   5.294   2.655
 2074SOL    HW1 6974   1.248   5.368   2.590
 2074SOL    HW2 6975   1.295   5.294   2.728
 2075SOL     OW 6976   0.459   4.876   2.603
 2075SOL    HW1 6977   0.388   4.849   2.668
 2075SOL    HW2 6978   0.433   4.848   2.510
 2076SOL     OW 6979   1.032   4.273   1.878
 2076SOL    HW1 6980   0.991   4.355   1.839
 2076SOL    HW2 6981   1.096   4.299   1.951
 2077SOL     OW 6982   0.078   4.280   3.248
 2077SOL    HW1 6983   0.170   4.279   3.207
 2077SOL    HW2 6984   0.072   4.354   3.315
 2078SOL     OW 6985   0.561   3.946   3.009
 2078SOL    HW1 6986   0.599   3.862   3.046
 2078SOL    HW2 6987   0.473   3.965   3.053
 2079SOL     OW 6988   0.866   4.178   2.504
 2079SOL    HW1 6989   0.834   4.250   2.442
 2079SOL    HW2 6990   0.890   4.097   2.451
 2080SOL     OW 6991   1.017   3.763   2.615
 2080SOL    HW1 6992   0.945   3.768   2.546
 2080SOL    HW2 6993   0.993   3.694   2.684
 2081SOL     OW 6994   1.429   4.897   2.729
 2081SOL    HW1 6995   1.374   4.813   2.722
 2081SOL    HW2 6996   1.455   4.926   2.637
 2082SOL     OW 6997   1.466   4.314   2.854
 2082SOL    HW1 6998   1.436   4.219   2.861
 2082SOL    HW2 6999   1.539   4.330   2.920
 2083SOL     OW 7000   1.857   4.557   2.239
 2083SOL    HW1 7001   1.899   4.493   2.303
 2083SOL    HW2 7002   1.819   4.506   2.161
 2084SOL     OW 7003   0.488   5.109   2.036
 2084SOL    HW1 7004   0.401   5.094   2.083
 2084SOL    HW2 7005   0.471   5.135   1.941
 2085SOL     OW 7006   1.664   5.004   2.519
 2085SOL    HW1 7007   1.763   5.012   2.533
 2085SOL    HW2 7008   1.619   5.088   2.550
 2086SOL     OW 7009   1.390   4.299   1.940
 2086SOL    HW1 7010   1.336   4.278   2.021
 2086SOL    HW2 7011   1.481   4.258   1.949
 2087SOL     OW 7012   0.527   3.980   2.190
 2087SOL    HW1 7013   0.554   3.921   2.115
 2087SOL    HW2 7014   0.527   4.075   2.159
 2088SOL     OW 7015   1.754   4.947   3.450
 2088SOL    HW1 7016   1.845   4.908   3.437
 2088SOL    HW2 7017   1.762   5.043   3.474
 2089SOL     OW 7018   1.064   5.071   3.202
 2089SOL    HW1 7019   0.984   5.048   3.257
 2089SOL    HW2 7020   1.147   5.045   3.251
 2090SOL     OW 7021   1.111   4.919   2.962
 2090SOL    HW1 7022   1.071   4.963   3.043
 2090SOL    HW2 7023   1.070   4.956   2.879
 2091SOL     OW 7024   1.638   4.823   2.941
 2091SOL    HW1 7025   1.643   4.904   3.000
 2091SOL    HW2 7026   1.552   4.825   2.890
 2092SOL     OW 7027   0.915   3.813   3.264
 2092SOL    HW1 7028   0.940   3.793   3.169
 2092SOL    HW2 7029   0.987   3.869   3.306
 2093SOL     OW 7030   0.980   4.840   3.581
 2093SOL    HW1 7031   0.881   4.846   3.591
 2093SOL    HW2 7032   1.003   4.760   3.525
 2094SOL     OW 7033   0.705   4.774   2.230
 2094SOL    HW1 7034   0.691   4.781   2.329
 2094SOL    HW2 7035   0.789   4.723   2.212
 2095SOL     OW 7036   0.410   4.537   3.113
 2095SOL    HW1 7037   0.496   4.549   3.163
 2095SOL    HW2 7038   0.368   4.450   3.140
 2096SOL     OW 7039   1.274   4.110   3.124
 2096SOL    HW1 7040   1.295   4.184   3.188
 2096SOL    HW2 7041   1.185   4.127   3.081
 2097SOL     OW 7042   0.064   5.288   3.193
 2097SOL    HW1 7043   0.018   5.370   3.159
 2097SOL    HW2 7044   0.162   5.307   3.202
 2098SOL     OW 7045   0.367   4.824   2.363
 2098SOL    HW1 7046   0.360   4.907   2.307
 2098SOL    HW2 7047   0.371   4.744   2.303
 2099SOL     OW 7048   0.566   4.261   2.727
 2099SOL    HW1 7049   0.578   4.327   2.653
 2099SOL    HW2 7050   0.612   4.295   2.810
 2100SOL     OW 7051   1.252   5.072   2.250
 2100SOL    HW1 7052   1.302   5.149   2.290
 2100SOL    HW2 7053   1.157   5.074   2.282
 2101SOL     OW 7054   1.272   5.169   3.004
 2101SOL    HW1 7055   1.319   5.182   3.091
 2101SOL    HW2 7056   1.206   5.095   3.013
 2102SOL     OW 7057   1.582   4.363   2.334
 2102SOL    HW1 7058   1.551   4.424   2.407
 2102SOL    HW2 7059   1.632   4.415   2.265
 2103SOL     OW 7060   0.354   5.234   3.191
 2103SOL    HW1 7061   0.333   5.190   3.104
 2103SOL    HW2 7062   0.451   5.260   3.194
 2104SOL     OW 7063   0.402   4.475   3.460
 2104SOL    HW1 7064   0.470   4.530   3.413
 2104SOL    HW2 7065   0.442   4.387   3.487
 2105SOL     OW 7066   1.587   4.503   3.532
 2105SOL    HW1 7067   1.495   4.541   3.527
 2105SOL    HW2 7068   1.647   4.550   3.467
 2106SOL     OW 7069   1.013   3.829   3.632
 2106SOL    HW1 7070   1.019   3.914   3.580
 2106SOL    HW2 7071   1.045   3.753   3.575
 2107SOL     OW 7072   0.504   3.774   3.602
 2107SOL    HW1 7073   0.462   3.717   3.532
 2107SOL    HW2 7074   0.438   3.843   3.634
 2108SOL     OW 7075   0.573   4.594   2.891
 2108SOL    HW1 7076   0.617   4.683   2.882
 2108SOL    HW2 7077   0.510   4.594   2.968
 2109SOL     OW 7078   1.360   4.586   2.907
 2109SOL    HW1 7079   1.285   4.586   2.841
 2109SOL    HW2 7080   1.397   4.494   2.916
 2110SOL     OW 7081   1.209   4.249   2.137
 2110SOL    HW1 7082   1.222   4.165   2.191
 2110SOL    HW2 7083   1.180   4.323   2.197
 2111SOL     OW 7084   0.307   3.937   3.093
 2111SOL    HW1 7085   0.284   3.974   3.183
 2111SOL    HW2 7086   0.277   3.842   3.087
 2112SOL     OW 7087   0.037   5.034   3.144
 2112SOL    HW1 7088   0.090   4.985   3.212
 2112SOL    HW2 7089   0.059   5.132   3.149
 2113SOL     OW 7090   0.732   4.358   2.926
 2113SOL    HW1 7091   0.791   4.332   2.850
 2113SOL    HW2 7092   0.704   4.454   2.915
 2114SOL     OW 7093   1.728   4.659   3.716
 2114SOL    HW1 7094   1.682   4.652   3.627
 2114SOL    HW2 7095   1.666   4.703   3.782
 2115SOL     OW 7096   0.307   3.787   2.480
 2115SOL    HW1 7097   0.296   3.881   2.513
 2115SOL    HW2 7098   0.302   3.724   2.557
 2116SOL     OW 7099   1.622   4.091   2.236
 2116SOL    HW1 7100   1.624   4.015   2.300
 2116SOL    HW2 7101   1.574   4.168   2.276
 2117SOL     OW 7102   1.023   4.490   2.828
 2117SOL    HW1 7103   1.038   4.511   2.924
 2117SOL    HW2 7104   0.993   4.395   2.819
 2118SOL     OW 7105   1.859   5.242   3.467
 2118SOL    HW1 7106   1.873   5.269   3.372
 2118SOL    HW2 7107   1.942   5.264   3.520
 2119SOL     OW 7108   0.350   4.622   3.666
 2119SOL    HW1 7109   0.426   4.666   3.714
 2119SOL    HW2 7110   0.385   4.575   3.584
 2120SOL     OW 7111   1.540   3.998   1.987
 2120SOL    HW1 7112   1.479   3.923   2.010
 2120SOL    HW2 7113   1.562   4.050   2.070
 2121SOL     OW 7114   1.303   4.562   1.904
 2121SOL    HW1 7115   1.337   4.469   1.919
 2121SOL    HW2 7116   1.321   4.589   1.809
 2122SOL     OW 7117   1.068   5.057   2.711
 2122SOL    HW1 7118   1.075   4.973   2.656
 2122SOL    HW2 7119   1.130   5.126   2.675
 2123SOL     OW 7120   0.319   4.534   2.811
 2123SOL    HW1 7121   0.412   4.570   2.816
 2123SOL    HW2 7122   0.313   4.449   2.863
 2124SOL     OW 7123   0.339   4.233   2.868
 2124SOL    HW1 7124   0.287   4.150   2.851
 2124SOL    HW2 7125   0.416   4.238   2.804
 2125SOL     OW 7126   1.138   4.104   3.540
 2125SOL    HW1 7127   1.093   4.167   3.604
 2125SOL    HW2 7128   1.231   4.135   3.523
 2126SOL     OW 7129   1.160   3.931   3.339
 2126SOL    HW1 7130   1.160   3.995   3.416
 2126SOL    HW2 7131   1.188   3.979   3.256
 2127SOL     OW 7132   0.008   5.050   2.062
 2127SOL    HW1 7133  -0.085   5.071   2.031
 2127SOL    HW2 7134   0.018   4.951   2.075
 2128SOL     OW 7135   1.002   4.520   3.100
 2128SOL    HW1 7136   1.043   4.488   3.186
 2128SOL    HW2 7137   0.906   4.493   3.097
 2129SOL     OW 7138   0.040   4.268   2.976
 2129SOL    HW1 7139   0.125   4.235   2.935
 2129SOL    HW2 7140   0.053   4.283   3.074
 2130SOL     OW 7141   0.189   4.244   3.584
 2130SOL    HW1 7142   0.248   4.204   3.514
 2130SOL    HW2 7143   0.131   4.315   3.543
 2131SOL     OW 7144   1.369   4.674   3.522
 2131SOL    HW1 7145   1.408   4.763   3.542
 2131SOL    HW2 7146   1.379   4.654   3.425
 2132SOL     OW 7147   0.815   4.296   2.187
 2132SOL    HW1 7148   0.822   4.207   2.141
 2132SOL    HW2 7149   0.721   4.330   2.179
 2133SOL     OW 7150   1.657   4.328   3.068
 2133SOL    HW1 7151   1.619   4.259   3.130
 2133SOL    HW2 7152   1.739   4.292   3.024
 2134SOL     OW 7153   0.252   5.288   3.606
 2134SOL    HW1 7154   0.222   5.345   3.682
 2134SOL    HW2 7155   0.245   5.191   3.632
 2135SOL     OW 7156   0.671   4.188   3.131
 2135SOL    HW1 7157   0.637   4.099   3.101
 2135SOL    HW2 7158   0.697   4.242   3.051
 2136SOL     OW 7159   0.473   4.224   2.053
 2136SOL    HW1 7160   0.534   4.304   2.057
 2136SOL    HW2 7161   0.378   4.255   2.060
 2137SOL     OW 7162   0.159   4.861   3.328
 2137SOL    HW1 7163   0.181   4.800   3.404
 2137SOL    HW2 7164   0.169   4.812   3.242
 2138SOL     OW 7165   1.347   4.783   3.096
 2138SOL    HW1 7166   1.371   4.720   3.022
 2138SOL    HW2 7167   1.257   4.823   3.078
 2139SOL     OW 7168   1.302   4.579   2.171
 2139SOL    HW1 7169   1.216   4.548   2.213
 2139SOL    HW2 7170   1.298   4.565   2.072
 2140SOL     OW 7171   0.083   4.982   2.884
 2140SOL    HW1 7172   0.078   4.981   2.984
 2140SOL    HW2 7173   0.000   4.941   2.846
 2141SOL     OW 7174   0.688   5.386   3.578
 2141SOL    HW1 7175   0.632   5.467   3.587
 2141SOL    HW2 7176   0.740   5.390   3.492
 2142SOL     OW 7177   1.726   3.859   2.385
 2142SOL    HW1 7178   1.799   3.842   2.318
 2142SOL    HW2 7179   1.695   3.772   2.423
 2143SOL     OW 7180   1.280   4.651   2.534
 2143SOL    HW1 7181   1.340   4.570   2.536
 2143SOL    HW2 7182   1.320   4.720   2.474
 2144SOL     OW 7183   0.830   4.997   3.284
 2144SOL    HW1 7184   0.825   5.030   3.379
 2144SOL    HW2 7185   0.744   5.016   3.238
 2145SOL     OW 7186   1.841   3.899   2.825
 2145SOL    HW1 7187   1.880   3.814   2.789
 2145SOL    HW2 7188   1.743   3.901   2.806
 2146SOL     OW 7189   0.263   4.050   2.582
 2146SOL    HW1 7190   0.184   4.101   2.548
 2146SOL    HW2 7191   0.254   4.035   2.680
 2147SOL     OW 7192   0.822   4.726   3.234
 2147SOL    HW1 7193   0.862   4.725   3.142
 2147SOL    HW2 7194   0.832   4.818   3.274
 2148SOL     OW 7195   0.916   4.634   2.153
 2148SOL    HW1 7196   0.979   4.672   2.085
 2148SOL    HW2 7197   0.956   4.551   2.192
 2149SOL     OW 7198   0.372   5.012   3.352
 2149SOL    HW1 7199   0.359   5.105   3.318
 2149SOL    HW2 7200   0.288   4.960   3.339
 2150SOL     OW 7201   1.614   5.016   3.151
 2150SOL    HW1 7202   1.674   5.019   3.231
 2150SOL    HW2 7203   1.539   5.080   3.164
 2151SOL     OW 7204   1.039   4.822   2.558
 2151SOL    HW1 7205   0.969   4.775   2.612
 2151SOL    HW2 7206   1.098   4.754   2.515
 2152SOL     OW 7207   1.014   3.960   2.833
 2152SOL    HW1 7208   1.006   3.924   2.740
 2152SOL    HW2 7209   1.012   3.884   2.898
 2153SOL     OW 7210   1.709   4.109   3.243
 2153SOL    HW1 7211   1.782   4.178   3.247
 2153SOL    HW2 7212   1.737   4.034   3.184
 2154SOL     OW 7213   0.255   5.072   2.152
 2154SOL    HW1 7214   0.159   5.073   2.125
 2154SOL    HW2 7215   0.267   5.125   2.236
 2155SOL     OW 7216   0.105   4.737   3.588
 2155SOL    HW1 7217   0.028   4.704   3.642
 2155SOL    HW2 7218   0.190   4.707   3.630
 2156SOL     OW 7219   0.672   3.927   3.351
 2156SOL    HW1 7220   0.762   3.911   3.311
 2156SOL    HW2 7221   0.680   3.932   3.450
 2157SOL     OW 7222   0.075   4.069   1.895
 2157SOL    HW1 7223  -0.017   4.041   1.866
 2157SOL    HW2 7224   0.106   4.146   1.839
 2158SOL     OW 7225   1.440   4.580   3.260
 2158SOL    HW1 7226   1.383   4.632   3.197
 2158SOL    HW2 7227   1.536   4.592   3.236
 2159SOL     OW 7228   0.072   3.890   2.180
 2159SOL    HW1 7229   0.055   3.973   2.126
 2159SOL    HW2 7230   0.162   3.853   2.158
 2160SOL     OW 7231   1.183   5.059   1.981
 2160SOL    HW1 7232   1.084   5.048   1.983
 2160SOL    HW2 7233   1.217   5.074   2.074
 2161SOL     OW 7234   0.613   4.566   3.293
 2161SOL    HW1 7235   0.669   4.647   3.276
 2161SOL    HW2 7236   0.672   4.486   3.296
 2162SOL     OW 7237   0.716   4.289   3.570
 2162SOL    HW1 7238   0.735   4.354   3.644
 2162SOL    HW2 7239   0.776   4.209   3.579
 2163SOL     OW 7240   1.450   4.944   3.495
 2163SOL    HW1 7241   1.441   4.934   3.594
 2163SOL    HW2 7242   1.546   4.937   3.469
 2164SOL     OW 7243   1.674   4.607   3.116
 2164SOL    HW1 7244   1.647   4.518   3.079
 2164SOL    HW2 7245   1.675   4.675   3.043
 2165SOL     OW 7246   1.225   4.049   2.311
 2165SOL    HW1 7247   1.290   3.975   2.300
 2165SOL    HW2 7248   1.245   4.099   2.395
 2166SOL     OW 7249   0.594   4.469   2.514
 2166SOL    HW1 7250   0.644   4.554   2.495
 2166SOL    HW2 7251   0.506   4.471   2.466
 2167SOL     OW 7252   1.777   4.066   3.504
 2167SOL    HW1 7253   1.760   4.097   3.410
 2167SOL    HW2 7254   1.693   4.029   3.542
 2168SOL     OW 7255   1.730   4.658   3.379
 2168SOL    HW1 7256   1.768   4.749   3.394
 2168SOL    HW2 7257   1.722   4.641   3.280
 2169SOL     OW 7258   0.859   5.098   1.878
 2169SOL    HW1 7259   0.813   5.113   1.966
 2169SOL    HW2 7260   0.903   5.183   1.848
 2170SOL     OW 7261   0.859   4.680   2.723
 2170SOL    HW1 7262   0.913   4.611   2.771
 2170SOL    HW2 7263   0.827   4.749   2.789
 2171SOL     OW 7264   1.083   4.708   1.949
 2171SOL    HW1 7265   1.060   4.761   1.867
 2171SOL    HW2 7266   1.164   4.652   1.930
 2172SOL     OW 7267   0.221   5.038   3.706
 2172SOL    HW1 7268   0.156   4.965   3.685
 2172SOL    HW2 7269   0.225   5.052   3.804
 2173SOL     OW 7270   0.079   4.964   2.515
 2173SOL    HW1 7271   0.078   4.917   2.603
 2173SOL    HW2 7272   0.161   4.936   2.464
 2174SOL     OW 7273   0.672   5.115   3.486
 2174SOL    HW1 7274   0.594   5.065   3.524
 2174SOL    HW2 7275   0.669   5.210   3.517
 2175SOL     OW 7276   1.824   3.916   3.089
 2175SOL    HW1 7277   1.820   3.826   3.133
 2175SOL    HW2 7278   1.827   3.905   2.990
 2176SOL     OW 7279   0.428   4.148   2.382
 2176SOL    HW1 7280   0.458   4.076   2.320
 2176SOL    HW2 7281   0.389   4.108   2.465
 2177SOL     OW 7282   1.705   5.211   2.966
 2177SOL    HW1 7283   1.612   5.186   2.939
 2177SOL    HW2 7284   1.731   5.161   3.048
 2178SOL     OW 7285   0.317   4.271   3.142
 2178SOL    HW1 7286   0.355   4.212   3.214
 2178SOL    HW2 7287   0.357   4.245   3.054
 2179SOL     OW 7288   1.424   3.938   2.974
 2179SOL    HW1 7289   1.476   3.873   3.029
 2179SOL    HW2 7290   1.375   4.001   3.035
 2180SOL     OW 7291   1.001   3.758   3.016
 2180SOL    HW1 7292   0.938   3.686   2.985
 2180SOL    HW2 7293   1.094   3.722   3.016
 2181SOL     OW 7294   0.770   5.054   2.163
 2181SOL    HW1 7295   0.724   4.967   2.180
 2181SOL    HW2 7296   0.861   5.051   2.204
 2182SOL     OW 7297   0.618   5.291   3.146
 2182SOL    HW1 7298   0.613   5.373   3.203
 2182SOL    HW2 7299   0.707   5.288   3.101
 2183SOL     OW 7300   1.352   3.776   2.030
 2183SOL    HW1 7301   1.387   3.735   1.946
 2183SOL    HW2 7302   1.262   3.738   2.050
 2184SOL     OW 7303   1.300   4.177   2.553
 2184SOL    HW1 7304   1.241   4.257   2.557
 2184SOL    HW2 7305   1.315   4.142   2.646
 2185SOL     OW 7306   1.593   3.945   2.744
 2185SOL    HW1 7307   1.509   3.944   2.798
 2185SOL    HW2 7308   1.595   4.028   2.688
 2186SOL     OW 7309   0.039   4.801   2.162
 2186SOL    HW1 7310   0.138   4.790   2.153
 2186SOL    HW2 7311  -0.001   4.715   2.194
 2187SOL     OW 7312   0.230   4.352   3.837
 2187SOL    HW1 7313   0.137   4.350   3.874
 2187SOL    HW2 7314   0.231   4.313   3.745
 2188SOL     OW 7315   0.225   3.999   4.720
 2188SOL    HW1 7316   0.260   3.982   4.812
 2188SOL    HW2 7317   0.137   3.954   4.708
 2189SOL     OW 7318   0.019   4.092   4.371
 2189SOL    HW1 7319  -0.063   4.135   4.410
 2189SOL    HW2 7320  -0.009   4.019   4.308
 2190SOL     OW 7321   0.569   4.999   4.889
 2190SOL    HW1 7322   0.476   4.992   4.852
 2190SOL    HW2 7323   0.580   5.088   4.933
 2191SOL     OW 7324   1.555   5.235   4.427
 2191SOL    HW1 7325   1.498   5.219   4.508
 2191SOL    HW2 7326   1.496   5.245   4.347
 2192SOL     OW 7327   1.135   4.427   4.441
 2192SOL    HW1 7328   1.192   4.505   4.416
 2192SOL    HW2 7329   1.075   4.453   4.517
 2193SOL     OW 7330   1.755   4.331   3.955
 2193SOL    HW1 7331   1.743   4.318   3.856
 2193SOL    HW2 7332   1.725   4.250   4.004
 2194SOL     OW 7333   0.768   4.868   4.747
 2194SOL    HW1 7334   0.690   4.885   4.807
 2194SOL    HW2 7335   0.802   4.955   4.711
 2195SOL     OW 7336   0.850   4.522   5.547
 2195SOL    HW1 7337   0.846   4.598   5.612
 2195SOL    HW2 7338   0.872   4.558   5.456
 2196SOL     OW 7339   0.685   4.736   4.389
 2196SOL    HW1 7340   0.754   4.720   4.459
 2196SOL    HW2 7341   0.612   4.793   4.427
 2197SOL     OW 7342   0.686   4.885   5.527
 2197SOL    HW1 7343   0.746   4.964   5.541
 2197SOL    HW2 7344   0.600   4.916   5.486
 2198SOL     OW 7345   0.335   5.159   4.785
 2198SOL    HW1 7346   0.257   5.128   4.732
 2198SOL    HW2 7347   0.393   5.217   4.728
 2199SOL     OW 7348   1.460   5.229   5.063
 2199SOL    HW1 7349   1.484   5.323   5.089
 2199SOL    HW2 7350   1.444   5.175   5.145
 2200SOL     OW 7351   0.438   4.116   5.223
 2200SOL    HW1 7352   0.520   4.060   5.232
 2200SOL    HW2 7353   0.357   4.058   5.227
 2201SOL     OW 7354   1.603   4.171   4.461
 2201SOL    HW1 7355   1.529   4.217   4.411
 2201SOL    HW2 7356   1.654   4.239   4.514
 2202SOL     OW 7357   1.127   5.065   5.414
 2202SOL    HW1 7358   1.174   5.065   5.502
 2202SOL    HW2 7359   1.079   4.978   5.403
 2203SOL     OW 7360   0.230   5.158   4.262
 2203SOL    HW1 7361   0.204   5.254   4.262
 2203SOL    HW2 7362   0.159   5.104   4.307
 2204SOL     OW 7363   0.240   4.815   4.610
 2204SOL    HW1 7364   0.254   4.731   4.662
 2204SOL    HW2 7365   0.185   4.879   4.665
 2205SOL     OW 7366   0.606   4.688   3.847
 2205SOL    HW1 7367   0.613   4.772   3.793
 2205SOL    HW2 7368   0.652   4.701   3.935
 2206SOL     OW 7369   1.594   3.838   5.204
 2206SOL    HW1 7370   1.576   3.905   5.132
 2206SOL    HW2 7371   1.591   3.884   5.293
 2207SOL     OW 7372   0.122   4.367   4.287
 2207SOL    HW1 7373   0.077   4.279   4.304
 2207SOL    HW2 7374   0.121   4.421   4.371
 2208SOL     OW 7375   0.027   5.320   3.841
 2208SOL    HW1 7376   0.008   5.224   3.862
 2208SOL    HW2 7377  -0.006   5.378   3.916
 2209SOL     OW 7378   1.689   4.646   4.336
 2209SOL    HW1 7379   1.784   4.617   4.344
 2209SOL    HW2 7380   1.681   4.711   4.261
 2210SOL     OW 7381   1.641   4.832   4.156
 2210SOL    HW1 7382   1.727   4.834   4.104
 2210SOL    HW2 7383   1.655   4.879   4.244
 2211SOL     OW 7384   0.113   4.461   5.321
 2211SOL    HW1 7385   0.201   4.448   5.366
 2211SOL    HW2 7386   0.100   4.558   5.299
 2212SOL     OW 7387   0.613   5.089   4.450
 2212SOL    HW1 7388   0.564   5.002   4.459
 2212SOL    HW2 7389   0.590   5.132   4.363
 2213SOL     OW 7390   1.293   4.952   5.147
 2213SOL    HW1 7391   1.330   4.879   5.089
 2213SOL    HW2 7392   1.345   4.957   5.232
 2214SOL     OW 7393   0.809   3.728   4.226
 2214SOL    HW1 7394   0.849   3.819   4.217
 2214SOL    HW2 7395   0.709   3.736   4.232
 2215SOL     OW 7396   0.197   4.700   4.988
 2215SOL    HW1 7397   0.286   4.655   4.974
 2215SOL    HW2 7398   0.124   4.635   4.969
 2216SOL     OW 7399   1.525   4.723   3.914
 2216SOL    HW1 7400   1.462   4.647   3.927
 2216SOL    HW2 7401   1.573   4.741   4.000
 2217SOL     OW 7402   0.317   3.975   5.525
 2217SOL    HW1 7403   0.388   4.046   5.531
 2217SOL    HW2 7404   0.229   4.014   5.553
 2218SOL     OW 7405   1.466   5.141   4.677
 2218SOL    HW1 7406   1.407   5.147   4.757
 2218SOL    HW2 7407   1.451   5.053   4.631
 2219SOL     OW 7408   0.598   4.453   3.994
 2219SOL    HW1 7409   0.622   4.522   3.926
 2219SOL    HW2 7410   0.520   4.486   4.048
 2220SOL     OW 7411   1.281   4.069   4.668
 2220SOL    HW1 7412   1.195   4.019   4.655
 2220SOL    HW2 7413   1.343   4.015   4.724
 2221SOL     OW 7414   0.807   4.329   5.189
 2221SOL    HW1 7415   0.760   4.326   5.278
 2221SOL    HW2 7416   0.756   4.274   5.123
 2222SOL     OW 7417   1.394   4.193   5.398
 2222SOL    HW1 7418   1.374   4.236   5.486
 2222SOL    HW2 7419   1.472   4.131   5.407
 2223SOL     OW 7420   0.973   4.614   5.296
 2223SOL    HW1 7421   1.019   4.530   5.267
 2223SOL    HW2 7422   0.917   4.648   5.221
 2224SOL     OW 7423   0.991   4.134   4.966
 2224SOL    HW1 7424   0.914   4.168   5.020
 2224SOL    HW2 7425   0.957   4.083   4.887
 2225SOL     OW 7426   1.041   4.425   4.153
 2225SOL    HW1 7427   1.067   4.421   4.249
 2225SOL    HW2 7428   0.956   4.374   4.139
 2226SOL     OW 7429   0.076   4.535   4.513
 2226SOL    HW1 7430   0.175   4.523   4.522
 2226SOL    HW2 7431   0.052   4.630   4.534
 2227SOL     OW 7432   0.865   4.072   3.919
 2227SOL    HW1 7433   0.924   4.135   3.870
 2227SOL    HW2 7434   0.884   3.978   3.890
 2228SOL     OW 7435   1.719   4.309   5.555
 2228SOL    HW1 7436   1.693   4.398   5.519
 2228SOL    HW2 7437   1.717   4.241   5.482
 2229SOL     OW 7438   1.362   4.868   4.269
 2229SOL    HW1 7439   1.445   4.839   4.221
 2229SOL    HW2 7440   1.313   4.935   4.213
 2230SOL     OW 7441   0.550   3.920   4.609
 2230SOL    HW1 7442   0.545   3.915   4.709
 2230SOL    HW2 7443   0.552   4.016   4.580
 2231SOL     OW 7444   1.008   5.180   4.201
 2231SOL    HW1 7445   0.962   5.252   4.149
 2231SOL    HW2 7446   1.004   5.200   4.299
 2232SOL     OW 7447   1.795   4.790   4.597
 2232SOL    HW1 7448   1.733   4.775   4.521
 2232SOL    HW2 7449   1.743   4.801   4.682
 2233SOL     OW 7450   1.227   5.274   5.230
 2233SOL    HW1 7451   1.233   5.197   5.294
 2233SOL    HW2 7452   1.175   5.248   5.150
 2234SOL     OW 7453   0.321   4.667   3.966
 2234SOL    HW1 7454   0.403   4.706   3.924
 2234SOL    HW2 7455   0.294   4.585   3.917
 2235SOL     OW 7456   1.458   4.459   4.452
 2235SOL    HW1 7457   1.453   4.394   4.527
 2235SOL    HW2 7458   1.538   4.518   4.465
 2236SOL     OW 7459   0.461   4.990   5.451
 2236SOL    HW1 7460   0.411   4.991   5.365
 2236SOL    HW2 7461   0.398   4.972   5.527
 2237SOL     OW 7462   1.111   5.500   3.961
 2237SOL    HW1 7463   1.051   5.438   4.011
 2237SOL    HW2 7464   1.142   5.456   3.876
 2238SOL     OW 7465   0.202   4.009   5.222
 2238SOL    HW1 7466   0.122   4.069   5.209
 2238SOL    HW2 7467   0.192   3.960   5.308
 2239SOL     OW 7468   1.632   5.101   3.805
 2239SOL    HW1 7469   1.600   5.195   3.795
 2239SOL    HW2 7470   1.556   5.038   3.793
 2240SOL     OW 7471   1.400   3.831   4.150
 2240SOL    HW1 7472   1.376   3.794   4.060
 2240SOL    HW2 7473   1.499   3.847   4.154
 2241SOL     OW 7474   0.382   4.424   4.204
 2241SOL    HW1 7475   0.427   4.334   4.201
 2241SOL    HW2 7476   0.288   4.413   4.237
 2242SOL     OW 7477   1.547   3.946   5.453
 2242SOL    HW1 7478   1.542   3.983   5.545
 2242SOL    HW2 7479   1.475   3.877   5.441
 2243SOL     OW 7480   0.614   3.846   3.841
 2243SOL    HW1 7481   0.712   3.824   3.848
 2243SOL    HW2 7482   0.583   3.829   3.748
 2244SOL     OW 7483   0.781   3.988   5.473
 2244SOL    HW1 7484   0.848   3.927   5.516
 2244SOL    HW2 7485   0.708   4.007   5.538
 2245SOL     OW 7486   1.351   4.314   5.157
 2245SOL    HW1 7487   1.379   4.271   5.242
 2245SOL    HW2 7488   1.376   4.410   5.158
 2246SOL     OW 7489   0.803   5.126   4.648
 2246SOL    HW1 7490   0.893   5.140   4.606
 2246SOL    HW2 7491   0.732   5.128   4.577
 2247SOL     OW 7492   0.922   4.227   4.623
 2247SOL    HW1 7493   0.897   4.218   4.527
 2247SOL    HW2 7494   0.970   4.145   4.654
 2248SOL     OW 7495   0.539   3.788   4.236
 2248SOL    HW1 7496   0.458   3.789   4.294
 2248SOL    HW2 7497   0.542   3.871   4.181
 2249SOL     OW 7498   1.434   4.912   3.765
 2249SOL    HW1 7499   1.466   4.836   3.822
 2249SOL    HW2 7500   1.342   4.939   3.795
 2250SOL     OW 7501   0.297   3.759   3.895
 2250SOL    HW1 7502   0.346   3.843   3.874
 2250SOL    HW2 7503   0.359   3.694   3.940
 2251SOL     OW 7504   0.935   3.960   4.204
 2251SOL    HW1 7505   0.887   4.001   4.126
 2251SOL    HW2 7506   1.034   3.958   4.185
 2252SOL     OW 7507   1.076   4.407   5.188
 2252SOL    HW1 7508   0.996   4.346   5.191
 2252SOL    HW2 7509   1.157   4.354   5.164
 2253SOL     OW 7510   1.227   5.294   4.517
 2253SOL    HW1 7511   1.248   5.368   4.452
 2253SOL    HW2 7512   1.295   5.294   4.590
 2254SOL     OW 7513   0.459   4.876   4.465
 2254SOL    HW1 7514   0.388   4.849   4.530
 2254SOL    HW2 7515   0.433   4.848   4.372
 2255SOL     OW 7516   1.032   4.273   3.740
 2255SOL    HW1 7517   0.991   4.355   3.701
 2255SOL    HW2 7518   1.096   4.299   3.813
 2256SOL     OW 7519   0.078   4.280   5.110
 2256SOL    HW1 7520   0.170   4.279   5.069
 2256SOL    HW2 7521   0.072   4.354   5.177
 2257SOL     OW 7522   0.561   3.946   4.871
 2257SOL    HW1 7523   0.599   3.862   4.908
 2257SOL    HW2 7524   0.473   3.965   4.915
 2258SOL     OW 7525   0.866   4.178   4.366
 2258SOL    HW1 7526   0.834   4.250   4.304
 2258SOL    HW2 7527   0.890   4.097   4.313
 2259SOL     OW 7528   1.017   3.763   4.477
 2259SOL    HW1 7529   0.945   3.768   4.408
 2259SOL    HW2 7530   0.993   3.694   4.546
 2260SOL     OW 7531   1.429   4.897   4.591
 2260SOL    HW1 7532   1.374   4.813   4.584
 2260SOL    HW2 7533   1.455   4.926   4.499
 2261SOL     OW 7534   1.466   4.314   4.716
 2261SOL    HW1 7535   1.436   4.219   4.723
 2261SOL    HW2 7536   1.539   4.330   4.782
 2262SOL     OW 7537   1.857   4.557   4.101
 2262SOL    HW1 7538   1.899   4.493   4.165
 2262SOL    HW2 7539   1.819   4.506   4.023
 2263SOL     OW 7540   0.488   5.109   3.898
 2263SOL    HW1 7541   0.401   5.094   3.945
 2263SOL    HW2 7542   0.471   5.135   3.803
 2264SOL     OW 7543   1.664   5.004   4.381
 2264SOL    HW1 7544   1.763   5.012   4.395
 2264SOL    HW2 7545   1.619   5.088   4.412
 2265SOL     OW 7546   1.390   4.299   3.802
 2265SOL    HW1 7547   1.336   4.278   3.883
 2265SOL    HW2 7548   1.481   4.258   3.811
 2266SOL     OW 7549   0.527   3.980   4.052
 2266SOL    HW1 7550   0.554   3.921   3.977
 2266SOL    HW2 7551   0.527   4.075   4.021
 2267SOL     OW 7552   1.754   4.947   5.312
 2267SOL    HW1 7553   1.845   4.908   5.299
 2267SOL    HW2 7554   1.762   5.043   5.336
 2268SOL     OW 7555   1.064   5.071   5.064
 2268SOL    HW1 7556   0.984   5.048   5.119
 2268SOL    HW2 7557   1.147   5.045   5.113
 2269SOL     OW 7558   1.111   4.919   4.824
 2269SOL    HW1 7559   1.071   4.963   4.905
 2269SOL    HW2 7560   1.070   4.956   4.741
 2270SOL     OW 7561   1.638   4.823   4.803
 2270SOL    HW1 7562   1.643   4.904   4.862
 2270SOL    HW2 7563   1.552   4.825   4.752
 2271SOL     OW 7564   0.915   3.813   5.126
 2271SOL    HW1 7565   0.940   3.793   5.031
 2271SOL    HW2 7566   0.987   3.869   5.168
 2272SOL     OW 7567   0.980   4.840   5.443
 2272SOL    HW1 7568   0.881   4.846   5.453
 2272SOL    HW2 7569   1.003   4.760   5.387
 2273SOL     OW 7570   0.705   4.774   4.092
 2273SOL    HW1 7571   0.691   4.781   4.191
 2273SOL    HW2 7572   0.789   4.723   4.074
 2274SOL     OW 7573   0.410   4.537   4.975
 2274SOL    HW1 7574   0.496   4.549   5.025
 2274SOL    HW2 7575   0.368   4.450   5.002
 2275SOL     OW 7576   1.274   4.110   4.986
 2275SOL    HW1 7577   1.295   4.184   5.050
 2275SOL    HW2 7578   1.185   4.127   4.943
 2276SOL     OW 7579   0.064   5.288   5.055
 2276SOL    HW1 7580   0.018   5.370   5.021
 2276SOL    HW2 7581   0.162   5.307   5.064
 2277SOL     OW 7582   0.367   4.824   4.225
 2277SOL    HW1 7583   0.360   4.907   4.169
 2277SOL    HW2 7584   0.371   4.744   4.165
 2278SOL     OW 7585   0.566   4.261   4.589
 2278SOL    HW1 7586   0.578   4.327   4.515
 2278SOL    HW2 7587   0.612   4.295   4.672
 2279SOL     OW 7588   1.252   5.072   4.112
 2279SOL    HW1 7589   1.302   5.149   4.152
 2279SOL    HW2 7590   1.157   5.074   4.144
 2280SOL     OW 7591   1.272   5.169   4.866
 2280SOL    HW1 7592   1.319   5.182   4.953
 2280SOL    HW2 7593   1.206   5.095   4.875
 2281SOL     OW 7594   1.582   4.363   4.196
 2281SOL    HW1 7595   1.551   4.424   4.269
 2281SOL    HW2 7596   1.632   4.415   4.127
 2282SOL     OW 7597   0.354   5.234   5.053
 2282SOL    HW1 7598   0.333   5.190   4.966
 2282SOL    HW2 7599   0.451   5.260   5.056
 2283SOL     OW 7600   0.402   4.475   5.322
 2283SOL    HW1 7601   0.470   4.530   5.275
 2283SOL    HW2 7602   0.442   4.387   5.349
 2284SOL     OW 7603   1.587   4.503   5.394
 2284SOL    HW1 7604   1.495   4.541   5.389
 2284SOL    HW2 7605   1.647   4.550   5.329
 2285SOL     OW 7606   1.013   3.829   5.494
 2285SOL    HW1 7607   1.019   3.914   5.442
 2285SOL    HW2 7608   1.045   3.753   5.437
 2286SOL     OW 7609   0.504   3.774   5.464
 2286SOL    HW1 7610   0.462   3.717   5.394
 2286SOL    HW2 7611   0.438   3.843   5.496
 2287SOL     OW 7612   0.573   4.594   4.753
 2287SOL    HW1 7613   0.617   4.683   4.744
 2287SOL    HW2 7614   0.510   4.594   4.830
 2288SOL     OW 7615   1.360   4.586   4.769
 2288SOL    HW1 7616   1.285   4.586   4.703
 2288SOL    HW2 7617   1.397   4.494   4.778
 2289SOL     OW 7618   1.209   4.249   3.999
 2289SOL    HW1 7619   1.222   4.165   4.053
 2289SOL    HW2 7620   1.180   4.323   4.059
 2290SOL     OW 7621   0.307   3.937   4.955
 2290SOL    HW1 7622   0.284   3.974   5.045
 2290SOL    HW2 7623   0.277   3.842   4.949
 2291SOL     OW 7624   0.037   5.034   5.006
 2291SOL    HW1 7625   0.090   4.985   5.074
 2291SOL    HW2 7626   0.059   5.132   5.011
 2292SOL     OW 7627   0.732   4.358   4.788
 2292SOL    HW1 7628   0.791   4.332   4.712
 2292SOL    HW2 7629   0.704   4.454   4.777
 2293SOL     OW 7630   1.728   4.659   5.578
 2293SOL    HW1 7631   1.682   4.652   5.489
 2293SOL    HW2 7632   1.666   4.703   5.644
 2294SOL     OW 7633   0.307   3.787   4.342
 2294SOL    HW1 7634   0.296   3.881   4.375
 2294SOL    HW2 7635   0.302   3.724   4.419
 2295SOL     OW 7636   1.622   4.091   4.098
 2295SOL    HW1 7637   1.624   4.015   4.162
 2295SOL    HW2 7638   1.574   4.168   4.138
 2296SOL     OW 7639   1.023   4.490   4.690
 2296SOL    HW1 7640   1.038   4.511   4.786
 2296SOL    HW2 7641   0.993   4.395   4.681
 2297SOL     OW 7642   1.859   5.242   5.329
 2297SOL    HW1 7643   1.873   5.269   5.234
 2297SOL    HW2 7644   1.942   5.264   5.382
 2298SOL     OW 7645   0.350   4.622   5.528
 2298SOL    HW1 7646   0.426   4.666   5.576
 2298SOL    HW2 7647   0.385   4.575   5.446
 2299SOL     OW 7648   1.540   3.998   3.849
 2299SOL    HW1 7649   1.479   3.923   3.872
 2299SOL    HW2 7650   1.562   4.050   3.932
 2300SOL     OW 7651   1.303   4.562   3.766
 2300SOL    HW1 7652   1.337   4.469   3.781
 2300SOL    HW2 7653   1.321   4.589   3.671
 2301SOL     OW 7654   1.068   5.057   4.573
 2301SOL    HW1 7655   1.075   4.973   4.518
 2301SOL    HW2 7656   1.130   5.126   4.537
 2302SOL     OW 7657   0.319   4.534   4.673
 2302SOL    HW1 7658   0.412   4.570   4.678
 2302SOL    HW2 7659   0.313   4.449   4.725
 2303SOL     OW 7660   0.339   4.233   4.730
 2303SOL    HW1 7661   0.287   4.150   4.713
 2303SOL    HW2 7662   0.416   4.238   4.666
 2304SOL     OW 7663   1.138   4.104   5.402
 2304SOL    HW1 7664   1.093   4.167   5.466
 2304SOL    HW2 7665   1.231   4.135   5.385
 2305SOL     OW 7666   1.160   3.931   5.201
 2305SOL    HW1 7667   1.160   3.995   5.278
 2305SOL    HW2 7668   1.188   3.979   5.118
 2306SOL     OW 7669   0.008   5.050   3.924
 2306SOL    HW1 7670  -0.085   5.071   3.893
 2306SOL    HW2 7671   0.018   4.951   3.937
 2307SOL     OW 7672   1.002   4.520   4.962
 2307SOL    HW1 7673   1.043   4.488   5.048
 2307SOL    HW2 7674   0.906   4.493   4.959
 2308SOL     OW 7675   0.040   4.268   4.838
 2308SOL    HW1 7676   0.125   4.235   4.797
 2308SOL    HW2 7677   0.053   4.283   4.936
 2309SOL     OW 7678   0.189   4.244   5.446
 2309SOL    HW1 7679   0.248   4.204   5.376
 2309SOL    HW2 7680   0.131   4.315   5.405
 2310SOL     OW 7681   1.369   4.674   5.384
 2310SOL    HW1 7682   1.408   4.763   5.404
 2310SOL    HW2 7683   1.379   4.654   5.287
 2311SOL     OW 7684   0.815   4.296   4.049
 2311SOL    HW1 7685   0.822   4.207   4.003
 2311SOL    HW2 7686   0.721   4.330   4.041
 2312SOL     OW 7687   1.657   4.328   4.930
 2312SOL    HW1 7688   1.619   4.259   4.992
 2312SOL    HW2 7689   1.739   4.292   4.886
 2313SOL     OW 7690   0.252   5.288   5.468
 2313SOL    HW1 7691   0.222   5.345   5.544
 2313SOL    HW2 7692   0.245   5.191   5.494
 2314SOL     OW 7693   0.671   4.188   4.993
 2314SOL    HW1 7694   0.637   4.099   4.963
 2314SOL    HW2 7695   0.697   4.242   4.913
 2315SOL     OW 7696   0.473   4.224   3.915
 2315SOL    HW1 7697   0.534   4.304   3.919
 2315SOL    HW2 7698   0.378   4.255   3.922
 2316SOL     OW 7699   0.159   4.861   5.190
 2316SOL    HW1 7700   0.181   4.800   5.266
 2316SOL    HW2 7701   0.169   4.812   5.104
 2317SOL     OW 7702   1.347   4.783   4.958
 2317SOL    HW1 7703   1.371   4.720   4.884
 2317SOL    HW2 7704   1.257   4.823   4.940
 2318SOL     OW 7705   1.302   4.579   4.033
 2318SOL    HW1 7706   1.216   4.548   4.075
 2318SOL    HW2 7707   1.298   4.565   3.934
 2319SOL     OW 7708   0.083   4.982   4.746
 2319SOL    HW1 7709   0.078   4.981   4.846
 2319SOL    HW2 7710   0.000   4.941   4.708
 2320SOL     OW 7711   0.688   5.386   5.440
 2320SOL    HW1 7712   0.632   5.467   5.449
 2320SOL    HW2 7713   0.740   5.390   5.354
 2321SOL     OW 7714   1.726   3.859   4.247
 2321SOL    HW1 7715   1.799   3.842   4.180
 2321SOL    HW2 7716   1.695   3.772   4.285
 2322SOL     OW 7717   1.280   4.651   4.396
 2322SOL    HW1 7718   1.340   4.570   4.398
 2322SOL    HW2 7719   1.320   4.720   4.336
 2323SOL     OW 7720   0.830   4.997   5.146
 2323SOL    HW1 7721   0.825   5.030   5.241
 2323SOL    HW2 7722   0.744   5.016   5.100
 2324SOL     OW 7723   1.841   3.899   4.687
 2324SOL    HW1 7724   1.880   3.814   4.651
 2324SOL    HW2 7725   1.743   3.901   4.668
 2325SOL     OW 7726   0.263   4.050   4.444
 2325SOL    HW1 7727   0.184   4.101   4.410
 2325SOL    HW2 7728   0.254   4.035   4.542
 2326SOL     OW 7729   0.822   4.726   5.096
 2326SOL    HW1 7730   0.862   4.725   5.004
 2326SOL    HW2 7731   0.832   4.818   5.136
 2327SOL     OW 7732   0.916   4.634   4.015
 2327SOL    HW1 7733   0.979   4.672   3.947
 2327SOL    HW2 7734   0.956   4.551   4.054
 2328SOL     OW 7735   0.372   5.012   5.214
 2328SOL    HW1 7736   0.359   5.105   5.180
 2328SOL    HW2 7737   0.288   4.960   5.201
 2329SOL     OW 7738   1.614   5.016   5.013
 2329SOL    HW1 7739   1.674   5.019   5.093
 2329SOL    HW2 7740   1.539   5.080   5.026
 2330SOL     OW 7741   1.039   4.822   4.420
 2330SOL    HW1 7742   0.969   4.775   4.474
 2330SOL    HW2 7743   1.098   4.754   4.377
 2331SOL     OW 7744   1.014   3.960   4.695
 2331SOL    HW1 7745   1.006   3.924   4.602
 2331SOL    HW2 7746   1.012   3.884   4.760
 2332SOL     OW 7747   1.709   4.109   5.105
 2332SOL    HW1 7748   1.782   4.178   5.109
 2332SOL    HW2 7749   1.737   4.034   5.046
 2333SOL     OW 7750   0.255   5.072   4.014
 2333SOL    HW1 7751   0.159   5.073   3.987
 2333SOL    HW2 7752   0.267   5.125   4.098
 2334SOL     OW 7753   0.105   4.737   5.450
 2334SOL    HW1 7754   0.028   4.704   5.504
 2334SOL    HW2 7755   0.190   4.707   5.492
 2335SOL     OW 7756   0.672   3.927   5.213
 2335SOL    HW1 7757   0.762   3.911   5.173
 2335SOL    HW2 7758   0.680   3.932   5.312
 2336SOL     OW 7759   0.075   4.069   3.757
 2336SOL    HW1 7760  -0.017   4.041   3.728
 2336SOL    HW2 7761   0.106   4.146   3.701
 2337SOL     OW 7762   1.440   4.580   5.122
 2337SOL    HW1 7763   1.383   4.632   5.059
 2337SOL    HW2 7764   1.536   4.592   5.098
 2338SOL     OW 7765   0.072   3.890   4.042
 2338SOL    HW1 7766   0.055   3.973   3.988
 2338SOL    HW2 7767   0.162   3.853   4.020
 2339SOL     OW 7768   1.183   5.059   3.843
 2339SOL    HW1 7769   1.084   5.048   3.845
 2339SOL    HW2 7770   1.217   5.074   3.936
 2340SOL     OW 7771   0.613   4.566   5.155
 2340SOL    HW1 7772   0.669   4.647   5.138
 2340SOL    HW2 7773   0.672   4.486   5.158
 2341SOL     OW 7774   0.716   4.289   5.432
 2341SOL    HW1 7775   0.735   4.354   5.506
 2341SOL    HW2 7776   0.776   4.209   5.441
 2342SOL     OW 7777   1.450   4.944   5.357
 2342SOL    HW1 7778   1.441   4.934   5.456
 2342SOL    HW2 7779   1.546   4.937   5.331
 2343SOL     OW 7780   1.674   4.607   4.978
 2343SOL    HW1 7781   1.647   4.518   4.941
 2343SOL    HW2 7782   1.675   4.675   4.905
 2344SOL     OW 7783   1.225   4.049   4.173
 2344SOL    HW1 7784   1.290   3.975   4.162
 2344SOL    HW2 7785   1.245   4.099   4.257
 2345SOL     OW 7786   0.594   4.469   4.376
 2345SOL    HW1 7787   0.644   4.554   4.357
 2345SOL    HW2 7788   0.506   4.471   4.328
 2346SOL     OW 7789   1.777   4.066   5.366
 2346SOL    HW1 7790   1.760   4.097   5.272
 2346SOL    HW2 7791   1.693   4.029   5.404
 2347SOL     OW 7792   1.730   4.658   5.241
 2347SOL    HW1 7793   1.768   4.749   5.256
 2347SOL    HW2 7794   1.722   4.641   5.142
 2348SOL     OW 7795   0.859   5.098   3.740
 2348SOL    HW1 7796   0.813   5.113   3.828
 2348SOL    HW2 7797   0.903   5.183   3.710
 2349SOL     OW 7798   0.859   4.680   4.585
 2349SOL    HW1 7799   0.913   4.611   4.633
 2349SOL    HW2 7800   0.827   4.749   4.651
 2350SOL     OW 7801   1.083   4.708   3.811
 2350SOL    HW1 7802   1.060   4.761   3.729
 2350SOL    HW2 7803   1.164   4.652   3.792
 2351SOL     OW 7804   0.221   5.038   5.568
 2351SOL    HW1 7805   0.156   4.965   5.547
 2351SOL    HW2 7806   0.225   5.052   5.666
 2352SOL     OW 7807   0.079   4.964   4.377
 2352SOL    HW1 7808   0.078   4.917   4.465
 2352SOL    HW2 7809   0.161   4.936   4.326
 2353SOL     OW 7810   0.672   5.115   5.348
 2353SOL    HW1 7811   0.594   5.065   5.386
 2353SOL    HW2 7812   0.669   5.210   5.379
 2354SOL     OW 7813   1.824   3.916   4.951
 2354SOL    HW1 7814   1.820   3.826   4.995
 2354SOL    HW2 7815   1.827   3.905   4.852
 2355SOL     OW 7816   0.428   4.148   4.244
 2355SOL    HW1 7817   0.458   4.076   4.182
 2355SOL    HW2 7818   0.389   4.108   4.327
 2356SOL     OW 7819   1.705   5.211   4.828
 2356SOL    HW1 7820   1.612   5.186   4.801
 2356SOL    HW2 7821   1.731   5.161   4.910
 2357SOL     OW 7822   0.317   4.271   5.004
 2357SOL    HW1 7823   0.355   4.212   5.076
 2357SOL    HW2 7824   0.357   4.245   4.916
 2358SOL     OW 7825   1.424   3.938   4.836
 2358SOL    HW1 7826   1.476   3.873   4.891
 2358SOL    HW2 7827   1.375   4.001   4.897
 2359SOL     OW 7828   1.001   3.758   4.878
 2359SOL    HW1 7829   0.938   3.686   4.847
 2359SOL    HW2 7830   1.094   3.722   4.878
 2360SOL     OW 7831   0.770   5.054   4.025
 2360SOL    HW1 7832   0.724   4.967   4.042
 2360SOL    HW2 7833   0.861   5.051   4.066
 2361SOL     OW 7834   0.618   5.291   5.008
 2361SOL    HW1 7835   0.613   5.373   5.065
 2361SOL    HW2 7836   0.707   5.288   4.963
 2362SOL     OW 7837   1.352   3.776   3.892
 2362SOL    HW1 7838   1.387   3.735   3.808
 2362SOL    HW2 7839   1.262   3.738   3.912
 2363SOL     OW 7840   1.300   4.177   4.415
 2363SOL    HW1 7841   1.241   4.257   4.419
 2363SOL    HW2 7842   1.315   4.142   4.508
 2364SOL     OW 7843   1.593   3.945   4.606
 2364SOL    HW1 7844   1.509   3.944   4.660
 2364SOL    HW2 7845   1.595   4.028   4.550
 2365SOL     OW 7846   0.039   4.801   4.024
 2365SOL    HW1 7847   0.138   4.790   4.015
 2365SOL    HW2 7848  -0.001   4.715   4.056
 2366SOL     OW 7849   0.230   4.352   5.699
 2366SOL    HW1 7850   0.137   4.350   5.736
 2366SOL    HW2 7851   0.231   4.313   5.607
 2367SOL     OW 7852   0.225   3.999   6.582
 2367SOL    HW1 7853   0.260   3.982   6.674
 2367SOL    HW2 7854   0.137   3.954   6.570
 2368SOL     OW 7855   0.019   4.092   6.233
 2368SOL    HW1 7856  -0.063   4.135   6.272
 2368SOL    HW2 7857  -0.009   4.019   6.170
 2369SOL     OW 7858   0.569   4.999   6.751
 2369SOL    HW1 7859   0.476   4.992   6.714
 2369SOL    HW2 7860   0.580   5.088   6.795
 2370SOL     OW 7861   1.555   5.235   6.289
 2370SOL    HW1 7862   1.498   5.219   6.370
 2370SOL    HW2 7863   1.496   5.245   6.209
 2371SOL     OW 7864   1.135   4.427   6.303
 2371SOL    HW1 7865   1.192   4.505   6.278
 2371SOL    HW2 7866   1.075   4.453   6.379
 2372SOL     OW 7867   1.755   4.331   5.817
 2372SOL    HW1 7868   1.743   4.318   5.718
 2372SOL    HW2 7869   1.725   4.250   5.866
 2373SOL     OW 7870   0.768   4.868   6.609
 2373SOL    HW1 7871   0.690   4.885   6.669
 2373SOL    HW2 7872   0.802   4.955   6.573
 2374SOL     OW 7873   0.850   4.522   7.409
 2374SOL    HW1 7874   0.846   4.598   7.474
 2374SOL    HW2 7875   0.872   4.558   7.318
 2375SOL     OW 7876   0.685   4.736   6.251
 2375SOL    HW1 7877   0.754   4.720   6.321
 2375SOL    HW2 7878   0.612   4.793   6.289
 2376SOL     OW 7879   0.686   4.885   7.389
 2376SOL    HW1 7880   0.746   4.964   7.403
 2376SOL    HW2 7881   0.600   4.916   7.348
 2377SOL     OW 7882   0.335   5.159   6.647
 2377SOL    HW1 7883   0.257   5.128   6.594
 2377SOL    HW2 7884   0.393   5.217   6.590
 2378SOL     OW 7885   1.460   5.229   6.925
 2378SOL    HW1 7886   1.484   5.323   6.951
 2378SOL    HW2 7887   1.444   5.175   7.007
 2379SOL     OW 7888   0.438   4.116   7.085
 2379SOL    HW1 7889   0.520   4.060   7.094
 2379SOL    HW2 7890   0.357   4.058   7.089
 2380SOL     OW 7891   1.603   4.171   6.323
 2380SOL    HW1 7892   1.529   4.217   6.273
 2380SOL    HW2 7893   1.654   4.239   6.376
 2381SOL     OW 7894   1.127   5.065   7.276
 2381SOL    HW1 7895   1.174   5.065   7.364
 2381SOL    HW2 7896   1.079   4.978   7.265
 2382SOL     OW 7897   0.230   5.158   6.124
 2382SOL    HW1 7898   0.204   5.254   6.124
 2382SOL    HW2 7899   0.159   5.104   6.169
 2383SOL     OW 7900   0.240   4.815   6.472
 2383SOL    HW1 7901   0.254   4.731   6.524
 2383SOL    HW2 7902   0.185   4.879   6.527
 2384SOL     OW 7903   0.606   4.688   5.709
 2384SOL    HW1 7904   0.613   4.772   5.655
 2384SOL    HW2 7905   0.652   4.701   5.797
 2385SOL     OW 7906   1.594   3.838   7.066
 2385SOL    HW1 7907   1.576   3.905   6.994
 2385SOL    HW2 7908   1.591   3.884   7.155
 2386SOL     OW 7909   0.122   4.367   6.149
 2386SOL    HW1 7910   0.077   4.279   6.166
 2386SOL    HW2 7911   0.121   4.421   6.233
 2387SOL     OW 7912   0.027   5.320   5.703
 2387SOL    HW1 7913   0.008   5.224   5.724
 2387SOL    HW2 7914  -0.006   5.378   5.778
 2388SOL     OW 7915   1.689   4.646   6.198
 2388SOL    HW1 7916   1.784   4.617   6.206
 2388SOL    HW2 7917   1.681   4.711   6.123
 2389SOL     OW 7918   1.641   4.832   6.018
 2389SOL    HW1 7919   1.727   4.834   5.966
 2389SOL    HW2 7920   1.655   4.879   6.106
 2390SOL     OW 7921   0.113   4.461   7.183
 2390SOL    HW1 7922   0.201   4.448   7.228
 2390SOL    HW2 7923   0.100   4.558   7.161
 2391SOL     OW 7924   0.613   5.089   6.312
 2391SOL    HW1 7925   0.564   5.002   6.321
 2391SOL    HW2 7926   0.590   5.132   6.225
 2392SOL     OW 7927   1.293   4.952   7.009
 2392SOL    HW1 7928   1.330   4.879   6.951
 2392SOL    HW2 7929   1.345   4.957   7.094
 2393SOL     OW 7930   0.809   3.728   6.088
 2393SOL    HW1 7931   0.849   3.819   6.079
 2393SOL    HW2 7932   0.709   3.736   6.094
 2394SOL     OW 7933   0.197   4.700   6.850
 2394SOL    HW1 7934   0.286   4.655   6.836
 2394SOL    HW2 7935   0.124   4.635   6.831
 2395SOL     OW 7936   1.525   4.723   5.776
 2395SOL    HW1 7937   1.462   4.647   5.789
 2395SOL    HW2 7938   1.573   4.741   5.862
 2396SOL     OW 7939   0.317   3.975   7.387
 2396SOL    HW1 7940   0.388   4.046   7.393
 2396SOL    HW2 7941   0.229   4.014   7.415
 2397SOL     OW 7942   1.466   5.141   6.539
 2397SOL    HW1 7943   1.407   5.147   6.619
 2397SOL    HW2 7944   1.451   5.053   6.493
 2398SOL     OW 7945   0.598   4.453   5.856
 2398SOL    HW1 7946   0.622   4.522   5.788
 2398SOL    HW2 7947   0.520   4.486   5.910
 2399SOL     OW 7948   1.281   4.069   6.530
 2399SOL    HW1 7949   1.195   4.019   6.517
 2399SOL    HW2 7950   1.343   4.015   6.586
 2400SOL     OW 7951   0.807   4.329   7.051
 2400SOL    HW1 7952   0.760   4.326   7.140
 2400SOL    HW2 7953   0.756   4.274   6.985
 2401SOL     OW 7954   1.394   4.193   7.260
 2401SOL    HW1 7955   1.374   4.236   7.348
 2401SOL    HW2 7956   1.472   4.131   7.269
 2402SOL     OW 7957   0.973   4.614   7.158
 2402SOL    HW1 7958   1.019   4.530   7.129
 2402SOL    HW2 7959   0.917   4.648   7.083
 2403SOL     OW 7960   0.991   4.134   6.828
 2403SOL    HW1 7961   0.914   4.168   6.882
 2403SOL    HW2 7962   0.957   4.083   6.749
 2404SOL     OW 7963   1.041   4.425   6.015
 2404SOL    HW1 7964   1.067   4.421   6.111
 2404SOL    HW2 7965   0.956   4.374   6.001
 2405SOL     OW 7966   0.076   4.535   6.375
 2405SOL    HW1 7967   0.175   4.523   6.384
 2405SOL    HW2 7968   0.052   4.630   6.396
 2406SOL     OW 7969   0.865   4.072   5.781
 2406SOL    HW1 7970   0.924   4.135   5.732
 2406SOL    HW2 7971   0.884   3.978   5.752
 2407SOL     OW 7972   1.719   4.309   7.417
 2407SOL    HW1 7973   1.693   4.398   7.381
 2407SOL    HW2 7974   1.717   4.241   7.344
 2408SOL     OW 7975   1.362   4.868   6.131
 2408SOL    HW1 7976   1.445   4.839   6.083
 2408SOL    HW2 7977   1.313   4.935   6.075
 2409SOL     OW 7978   0.550   3.920   6.471
 2409SOL    HW1 7979   0.545   3.915   6.571
 2409SOL    HW2 7980   0.552   4.016   6.442
 2410SOL     OW 7981   1.008   5.180   6.063
 2410SOL    HW1 7982   0.962   5.252   6.011
 2410SOL    HW2 7983   1.004   5.200   6.161
 2411SOL     OW 7984   1.795   4.790   6.459
 2411SOL    HW1 7985   1.733   4.775   6.383
 2411SOL    HW2 7986   1.743   4.801   6.544
 2412SOL     OW 7987   1.227   5.274   7.092
 2412SOL    HW1 7988   1.233   5.197   7.156
 2412SOL    HW2 7989   1.175   5.248   7.012
 2413SOL     OW 7990   0.321   4.667   5.828
 2413SOL    HW1 7991   0.403   4.706   5.786
 2413SOL    HW2 7992   0.294   4.585   5.779
 2414SOL     OW 7993   1.458   4.459   6.314
 2414SOL    HW1 7994   1.453   4.394   6.389
 2414SOL    HW2 7995   1.538   4.518   6.327
 2415SOL     OW 7996   0.461   4.990   7.313
 2415SOL    HW1 7997   0.411   4.991   7.227
 2415SOL    HW2 7998   0.398   4.972   7.389
 2416SOL     OW 7999   1.111   5.500   5.823
 2416SOL    HW1 8000   1.051   5.438   5.873
 2416SOL    HW2 8001   1.142   5.456   5.738
 2417SOL     OW 8002   0.202   4.009   7.084
 2417SOL    HW1 8003   0.122   4.069   7.071
 2417SOL    HW2 8004   0.192   3.960   7.170
 2418SOL     OW 8005   1.632   5.101   5.667
 2418SOL    HW1 8006   1.600   5.195   5.657
 2418SOL    HW2 8007   1.556   5.038   5.655
 2419SOL     OW 8008   1.400   3.831   6.012
 2419SOL    HW1 8009   1.376   3.794   5.922
 2419SOL    HW2 8010   1.499   3.847   6.016
 2420SOL     OW 8011   0.382   4.424   6.066
 2420SOL    HW1 8012   0.427   4.334   6.063
 2420SOL    HW2 8013   0.288   4.413   6.099
 2421SOL     OW 8014   1.547   3.946   7.315
 2421SOL    HW1 8015   1.542   3.983   7.407
 2421SOL    HW2 8016   1.475   3.877   7.303
 2422SOL     OW 8017   0.614   3.846   5.703
 2422SOL    HW1 8018   0.712   3.824   5.710
 2422SOL    HW2 8019   0.583   3.829   5.610
 2423SOL     OW 8020   0.781   3.988   7.335
 2423SOL    HW1 8021   0.848   3.927   7.378
 2423SOL    HW2 8022   0.708   4.007   7.400
 2424SOL     OW 8023   1.351   4.314   7.019
 2424SOL    HW1 8024   1.379   4.271   7.104
 2424SOL    HW2 8025   1.376   4.410   7.020
 2425SOL     OW 8026   0.803   5.126   6.510
 2425SOL    HW1 8027   0.893   5.140   6.468
 2425SOL    HW2 8028   0.732   5.128   6.439
 2426SOL     OW 8029   0.922   4.227   6.485
 2426SOL    HW1 8030   0.897   4.218   6.389
 2426SOL    HW2 8031   0.970   4.145   6.516
 2427SOL     OW 8032   0.539   3.788   6.098
 2427SOL    HW1 8033   0.458   3.789   6.156
 2427SOL    HW2 8034   0.542   3.871   6.043
 2428SOL     OW 8035   1.434   4.912   5.627
 2428SOL    HW1 8036   1.466   4.836   5.684
 2428SOL    HW2 8037   1.342   4.939   5.657
 2429SOL     OW 8038   0.297   3.759   5.757
 2429SOL    HW1 8039   0.346   3.843   5.736
 2429SOL    HW2 8040   0.359   3.694   5.802
 2430SOL     OW 8041   0.935   3.960   6.066
 2430SOL    HW1 8042   0.887   4.001   5.988
 2430SOL    HW2 8043   1.034   3.958   6.047
 2431SOL     OW 8044   1.076   4.407   7.050
 2431SOL    HW1 8045   0.996   4.346   7.053
 2431SOL    HW2 8046   1.157   4.354   7.026
 2432SOL     OW 8047   1.227   5.294   6.379
 2432SOL    HW1 8048   1.248   5.368   6.314
 2432SOL    HW2 8049   1.295   5.294   6.452
 2433SOL     OW 8050   0.459   4.876   6.327
 2433SOL    HW1 8051   0.388   4.849   6.392
 2433SOL    HW2 8052   0.433   4.848   6.234
 2434SOL     OW 8053   1.032   4.273   5.602
 2434SOL    HW1 8054   0.991   4.355   5.563
 2434SOL    HW2 8055   1.096   4.299   5.675
 2435SOL     OW 8056   0.078   4.280   6.972
 2435SOL    HW1 8057   0.170   4.279   6.931
 2435SOL    HW2 8058   0.072   4.354   7.039
 2436SOL     OW 8059   0.561   3.946   6.733
 2436SOL    HW1 8060   0.599   3.862   6.770
 2436SOL    HW2 8061   0.473   3.965   6.777
 2437SOL     OW 8062   0.866   4.178   6.228
 2437SOL    HW1 8063   0.834   4.250   6.166
 2437SOL    HW2 8064   0.890   4.097   6.175
 2438SOL     OW 8065   1.017   3.763   6.339
 2438SOL    HW1 8066   0.945   3.768   6.270
 2438SOL    HW2 8067   0.993   3.694   6.408
 2439SOL     OW 8068   1.429   4.897   6.453
 2439SOL    HW1 8069   1.374   4.813   6.446
 2439SOL    HW2 8070   1.455   4.926   6.361
 2440SOL     OW 8071   1.466   4.314   6.578
 2440SOL    HW1 8072   1.436   4.219   6.585
 2440SOL    HW2 8073   1.539   4.330   6.644
 2441SOL     OW 8074   1.857   4.557   5.963
 2441SOL    HW1 8075   1.899   4.493   6.027
 2441SOL    HW2 8076   1.819   4.506   5.885
 2442SOL     OW 8077   0.488   5.109   5.760
 2442SOL    HW1 8078   0.401   5.094   5.807
 2442SOL    HW2 8079   0.471   5.135   5.665
 2443SOL     OW 8080   1.664   5.004   6.243
 2443SOL    HW1 8081   1.763   5.012   6.257
 2443SOL    HW2 8082   1.619   5.088   6.274
 2444SOL     OW 8083   1.390   4.299   5.664
 2444SOL    HW1 8084   1.336   4.278   5.745
 2444SOL    HW2 8085   1.481   4.258   5.673
 2445SOL     OW 8086   0.527   3.980   5.914
 2445SOL    HW1 8087   0.554   3.921   5.839
 2445SOL    HW2 8088   0.527   4.075   5.883
 2446SOL     OW 8089   1.754   4.947   7.174
 2446SOL    HW1 8090   1.845   4.908   7.161
 2446SOL    HW2 8091   1.762   5.043   7.198
 2447SOL     OW 8092   1.064   5.071   6.926
 2447SOL    HW1 8093   0.984   5.048   6.981
 2447SOL    HW2 8094   1.147   5.045   6.975
 2448SOL     OW 8095   1.111   4.919   6.686
 2448SOL    HW1 8096   1.071   4.963   6.767
 2448SOL    HW2 8097   1.070   4.956   6.603
 2449SOL     OW 8098   1.638   4.823   6.665
 2449SOL    HW1 8099   1.643   4.904   6.724
 2449SOL    HW2 8100   1.552   4.825   6.614
 2450SOL     OW 8101   0.915   3.813   6.988
 2450SOL    HW1 8102   0.940   3.793   6.893
 2450SOL    HW2 8103   0.987   3.869   7.030
 2451SOL     OW 8104   0.980   4.840   7.305
 2451SOL    HW1 8105   0.881   4.846   7.315
 2451SOL    HW2 8106   1.003   4.760   7.249
 2452SOL     OW 8107   0.705   4.774   5.954
 2452SOL    HW1 8108   0.691   4.781   6.053
 2452SOL    HW2 8109   0.789   4.723   5.936
 2453SOL     OW 8110   0.410   4.537   6.837
 2453SOL    HW1 8111   0.496   4.549   6.887
 2453SOL    HW2 8112   0.368   4.450   6.864
 2454SOL     OW 8113   1.274   4.110   6.848
 2454SOL    HW1 8114   1.295   4.184   6.912
 2454SOL    HW2 8115   1.185   4.127   6.805
 2455SOL     OW 8116   0.064   5.288   6.917
 2455SOL    HW1 8117   0.018   5.370   6.883
 2455SOL    HW2 8118   0.162   5.307   6.926
 2456SOL     OW 8119   0.367   4.824   6.087
 2456SOL    HW1 8120   0.360   4.907   6.031
 2456SOL    HW2 8121   0.371   4.744   6.027
 2457SOL     OW 8122   0.566   4.261   6.451
 2457SOL    HW1 8123   0.578   4.327   6.377
 2457SOL    HW2 8124   0.612   4.295   6.534
 2458SOL     OW 8125   1.252   5.072   5.974
 2458SOL    HW1 8126   1.302   5.149   6.014
 2458SOL    HW2 8127   1.157   5.074   6.006
 2459SOL     OW 8128   1.272   5.169   6.728
 2459SOL    HW1 8129   1.319   5.182   6.815
 2459SOL    HW2 8130   1.206   5.095   6.737
 2460SOL     OW 8131   1.582   4.363   6.058
 2460SOL    HW1 8132   1.551   4.424   6.131
 2460SOL    HW2 8133   1.632   4.415   5.989
 2461SOL     OW 8134   0.354   5.234   6.915
 2461SOL    HW1 8135   0.333   5.190   6.828
 2461SOL    HW2 8136   0.451   5.260   6.918
 2462SOL     OW 8137   0.402   4.475   7.184
 2462SOL    HW1 8138   0.470   4.530   7.137
 2462SOL    HW2 8139   0.442   4.387   7.211
 2463SOL     OW 8140   1.587   4.503   7.256
 2463SOL    HW1 8141   1.495   4.541   7.251
 2463SOL    HW2 8142   1.647   4.550   7.191
 2464SOL     OW 8143   1.013   3.829   7.356
 2464SOL    HW1 8144   1.019   3.914   7.304
 2464SOL    HW2 8145   1.045   3.753   7.299
 2465SOL     OW 8146   0.504   3.774   7.326
 2465SOL    HW1 8147   0.462   3.717   7.256
 2465SOL    HW2 8148   0.438   3.843   7.358
 2466SOL     OW 8149   0.573   4.594   6.615
 2466SOL    HW1 8150   0.617   4.683   6.606
 2466SOL    HW2 8151   0.510   4.594   6.692
 2467SOL     OW 8152   1.360   4.586   6.631
 2467SOL    HW1 8153   1.285   4.586   6.565
 2467SOL    HW2 8154   1.397   4.494   6.640
 2468SOL     OW 8155   1.209   4.249   5.861
 2468SOL    HW1 8156   1.222   4.165   5.915
 2468SOL    HW2 8157   1.180   4.323   5.921
 2469SOL     OW 8158   0.307   3.937   6.817
 2469SOL    HW1 8159   0.284   3.974   6.907
 2469SOL    HW2 8160   0.277   3.842   6.811
 2470SOL     OW 8161   0.037   5.034   6.868
 2470SOL    HW1 8162   0.090   4.985   6.936
 2470SOL    HW2 8163   0.059   5.132   6.873
 2471SOL     OW 8164   0.732   4.358   6.650
 2471SOL    HW1 8165   0.791   4.332   6.574
 2471SOL    HW2 8166   0.704   4.454   6.639
 2472SOL     OW 8167   1.728   4.659   7.440
 2472SOL    HW1 8168   1.682   4.652   7.351
 2472SOL    HW2 8169   1.666   4.703   7.506
 2473SOL     OW 8170   0.307   3.787   6.204
 2473SOL    HW1 8171   0.296   3.881   6.237
 2473SOL    HW2 8172   0.302   3.724   6.281
 2474SOL     OW 8173   1.622   4.091   5.960
 2474SOL    HW1 8174   1.624   4.015   6.024
 2474SOL    HW2 8175   1.574   4.168   6.000
 2475SOL     OW 8176   1.023   4.490   6.552
 2475SOL    HW1 8177   1.038   4.511   6.648
 2475SOL    HW2 8178   0.993   4.395   6.543
 2476SOL     OW 8179   1.859   5.242   7.191
 2476SOL    HW1 8180   1.873   5.269   7.096
 2476SOL    HW2 8181   1.942   5.264   7.244
 2477SOL     OW 8182   0.350   4.622   7.390
 2477SOL    HW1 8183   0.426   4.666   7.438
 2477SOL    HW2 8184   0.385   4.575   7.308
 2478SOL     OW 8185   1.540   3.998   5.711
 2478SOL    HW1 8186   1.479   3.923   5.734
 2478SOL    HW2 8187   1.562   4.050   5.794
 2479SOL     OW 8188   1.303   4.562   5.628
 2479SOL    HW1 8189   1.337   4.469   5.643
 2479SOL    HW2 8190   1.321   4.589   5.533
 2480SOL     OW 8191   1.068   5.057   6.435
 2480SOL    HW1 8192   1.075   4.973   6.380
 2480SOL    HW2 8193   1.130   5.126   6.399
 2481SOL     OW 8194   0.319   4.534   6.535
 2481SOL    HW1 8195   0.412   4.570   6.540
 2481SOL    HW2 8196   0.313   4.449   6.587
 2482SOL     OW 8197   0.339   4.233   6.592
 2482SOL    HW1 8198   0.287   4.150   6.575
 2482SOL    HW2 8199   0.416   4.238   6.528
 2483SOL     OW 8200   1.138   4.104   7.264
 2483SOL    HW1 8201   1.093   4.167   7.328
 2483SOL    HW2 8202   1.231   4.135   7.247
 2484SOL     OW 8203   1.160   3.931   7.063
 2484SOL    HW1 8204   1.160   3.995   7.140
 2484SOL    HW2 8205   1.188   3.979   6.980
 2485SOL     OW 8206   0.008   5.050   5.786
 2485SOL    HW1 8207  -0.085   5.071   5.755
 2485SOL    HW2 8208   0.018   4.951   5.799
 2486SOL     OW 8209   1.002   4.520   6.824
 2486SOL    HW1 8210   1.043   4.488   6.910
 2486SOL    HW2 8211   0.906   4.493   6.821
 2487SOL     OW 8212   0.040   4.268   6.700
 2487SOL    HW1 8213   0.125   4.235   6.659
 2487SOL    HW2 8214   0.053   4.283   6.798
 2488SOL     OW 8215   0.189   4.244   7.308
 2488SOL    HW1 8216   0.248   4.204   7.238
 2488SOL    HW2 8217   0.131   4.315   7.267
 2489SOL     OW 8218   1.369   4.674   7.246
 2489SOL    HW1 8219   1.408   4.763   7.266
 2489SOL    HW2 8220   1.379   4.654   7.149
 2490SOL     OW 8221   0.815   4.296   5.911
 2490SOL    HW1 8222   0.822   4.207   5.865
 2490SOL    HW2 8223   0.721   4.330   5.903
 2491SOL     OW 8224   1.657   4.328   6.792
 2491SOL    HW1 8225   1.619   4.259   6.854
 2491SOL    HW2 8226   1.739   4.292   6.748
 2492SOL     OW 8227   0.252   5.288   7.330
 2492SOL    HW1 8228   0.222   5.345   7.406
 2492SOL    HW2 8229   0.245   5.191   7.356
 2493SOL     OW 8230   0.671   4.188   6.855
 2493SOL    HW1 8231   0.637   4.099   6.825
 2493SOL    HW2 8232   0.697   4.242   6.775
 2494SOL     OW 8233   0.473   4.224   5.777
 2494SOL    HW1 8234   0.534   4.304   5.781
 2494SOL    HW2 8235   0.378   4.255   5.784
 2495SOL     OW 8236   0.159   4.861   7.052
 2495SOL    HW1 8237   0.181   4.800   7.128
 2495SOL    HW2 8238   0.169   4.812   6.966
 2496SOL     OW 8239   1.347   4.783   6.820
 2496SOL    HW1 8240   1.371   4.720   6.746
 2496SOL    HW2 8241   1.257   4.823   6.802
 2497SOL     OW 8242   1.302   4.579   5.895
 2497SOL    HW1 8243   1.216   4.548   5.937
 2497SOL    HW2 8244   1.298   4.565   5.796
 2498SOL     OW 8245   0.083   4.982   6.608
 2498SOL    HW1 8246   0.078   4.981   6.708
 2498SOL    HW2 8247   0.000   4.941   6.570
 2499SOL     OW 8248   0.688   5.386   7.302
 2499SOL    HW1 8249   0.632   5.467   7.311
 2499SOL    HW2 8250   0.740   5.390   7.216
 2500SOL     OW 8251   1.726   3.859   6.109
 2500SOL    HW1 8252   1.799   3.842   6.042
 2500SOL    HW2 8253   1.695   3.772   6.147
 2501SOL     OW 8254   1.280   4.651   6.258
 2501SOL    HW1 8255   1.340   4.570   6.260
 2501SOL    HW2 8256   1.320   4.720   6.198
 2502SOL     OW 8257   0.830   4.997   7.008
 2502SOL    HW1 8258   0.825   5.030   7.103
 2502SOL    HW2 8259   0.744   5.016   6.962
 2503SOL     OW 8260   1.841   3.899   6.549
 2503SOL    HW1 8261   1.880   3.814   6.513
 2503SOL    HW2 8262   1.743   3.901   6.530
 2504SOL     OW 8263   0.263   4.050   6.306
 2504SOL    HW1 8264   0.184   4.101   6.272
 2504SOL    HW2 8265   0.254   4.035   6.404
 2505SOL     OW 8266   0.822   4.726   6.958
 2505SOL    HW1 8267   0.862   4.725   6.866
 2505SOL    HW2 8268   0.832   4.818   6.998
 2506SOL     OW 8269   0.916   4.634   5.877
 2506SOL    HW1 8270   0.979   4.672   5.809
 2506SOL    HW2 8271   0.956   4.551   5.916
 2507SOL     OW 8272   0.372   5.012   7.076
 2507SOL    HW1 8273   0.359   5.105   7.042
 2507SOL    HW2 8274   0.288   4.960   7.063
 2508SOL     OW 8275   1.614   5.016   6.875
 2508SOL    HW1 8276   1.674   5.019   6.955
 2508SOL    HW2 8277   1.539   5.080   6.888
 2509SOL     OW 8278   1.039   4.822   6.282
 2509SOL    HW1 8279   0.969   4.775   6.336
 2509SOL    HW2 8280   1.098   4.754   6.239
 2510SOL     OW 8281   1.014   3.960   6.557
 2510SOL    HW1 8282   1.006   3.924   6.464
 2510SOL    HW2 8283   1.012   3.884   6.622
 2511SOL     OW 8284   1.709   4.109   6.967
 2511SOL    HW1 8285   1.782   4.178   6.971
 2511SOL    HW2 8286   1.737   4.034   6.908
 2512SOL     OW 8287   0.255   5.072   5.876
 2512SOL    HW1 8288   0.159   5.073   5.849
 2512SOL    HW2 8289   0.267   5.125   5.960
 2513SOL     OW 8290   0.105   4.737   7.312
 2513SOL    HW1 8291   0.028   4.704   7.366
 2513SOL    HW2 8292   0.190   4.707   7.354
 2514SOL     OW 8293   0.672   3.927   7.075
 2514SOL    HW1 8294   0.762   3.911   7.035
 2514SOL    HW2 8295   0.680   3.932   7.174
 2515SOL     OW 8296   0.075   4.069   5.619
 2515SOL    HW1 8297  -0.017   4.041   5.590
 2515SOL    HW2 8298   0.106   4.146   5.563
 2516SOL     OW 8299   1.440   4.580   6.984
 2516SOL    HW1 8300   1.383   4.632   6.921
 2516SOL    HW2 8301   1.536   4.592   6.960
 2517SOL     OW 8302   0.072   3.890   5.904
 2517SOL    HW1 8303   0.055   3.973   5.850
 2517SOL    HW2 8304   0.162   3.853   5.882
 2518SOL     OW 8305   1.183   5.059   5.705
 2518SOL    HW1 8306   1.084   5.048   5.707
 2518SOL    HW2 8307   1.217   5.074   5.798
 2519SOL     OW 8308   0.613   4.566   7.017
 2519SOL    HW1 8309   0.669   4.647   7.000
 2519SOL    HW2 8310   0.672   4.486   7.020
 2520SOL     OW 8311   0.716   4.289   7.294
 2520SOL    HW1 8312   0.735   4.354   7.368
 2520SOL    HW2 8313   0.776   4.209   7.303
 2521SOL     OW 8314   1.450   4.944   7.219
 2521SOL    HW1 8315   1.441   4.934   7.318
 2521SOL    HW2 8316   1.546   4.937   7.193
 2522SOL     OW 8317   1.674   4.607   6.840
 2522SOL    HW1 8318   1.647   4.518   6.803
 2522SOL    HW2 8319   1.675   4.675   6.767
 2523SOL     OW 8320   1.225   4.049   6.035
 2523SOL    HW1 8321   1.290   3.975   6.024
 2523SOL    HW2 8322   1.245   4.099   6.119
 2524SOL     OW 8323   0.594   4.469   6.238
 2524SOL    HW1 8324   0.644   4.554   6.219
 2524SOL    HW2 8325   0.506   4.471   6.190
 2525SOL     OW 8326   1.777   4.066   7.228
 2525SOL    HW1 8327   1.760   4.097   7.134
 2525SOL    HW2 8328   1.693   4.029   7.266
 2526SOL     OW 8329   1.730   4.658   7.103
 2526SOL    HW1 8330   1.768   4.749   7.118
 2526SOL    HW2 8331   1.722   4.641   7.004
 2527SOL     OW 8332   0.859   5.098   5.602
 2527SOL    HW1 8333   0.813   5.113   5.690
 2527SOL    HW2 8334   0.903   5.183   5.572
 2528SOL     OW 8335   0.859   4.680   6.447
 2528SOL    HW1 8336   0.913   4.611   6.495
 2528SOL    HW2 8337   0.827   4.749   6.513
 2529SOL     OW 8338   1.083   4.708   5.673
 2529SOL    HW1 8339   1.060   4.761   5.591
 2529SOL    HW2 8340   1.164   4.652   5.654
 2530SOL     OW 8341   0.221   5.038   7.430
 2530SOL    HW1 8342   0.156   4.965   7.409
 2530SOL    HW2 8343   0.225   5.052   7.528
 2531SOL     OW 8344   0.079   4.964   6.239
 2531SOL    HW1 8345   0.078   4.917   6.327
 2531SOL    HW2 8346   0.161   4.936   6.188
 2532SOL     OW 8347   0.672   5.115   7.210
 2532SOL    HW1 8348   0.594   5.065   7.248
 2532SOL    HW2 8349   0.669   5.210   7.241
 2533SOL     OW 8350   1.824   3.916   6.813
 2533SOL    HW1 8351   1.820   3.826   6.857
 2533SOL    HW2 8352   1.827   3.905   6.714
 2534SOL     OW 8353   0.428   4.148   6.106
 2534SOL    HW1 8354   0.458   4.076   6.044
 2534SOL    HW2 8355   0.389   4.108   6.189
 2535SOL     OW 8356   1.705   5.211   6.690
 2535SOL    HW1 8357   1.612   5.186   6.663
 2535SOL    HW2 8358   1.731   5.161   6.772
 2536SOL     OW 8359   0.317   4.271   6.866
 2536SOL    HW1 8360   0.355   4.212   6.938
 2536SOL    HW2 8361   0.357   4.245   6.778
 2537SOL     OW 8362   1.424   3.938   6.698
 2537SOL    HW1 8363   1.476   3.873   6.753
 2537SOL    HW2 8364   1.375   4.001   6.759
 2538SOL     OW 8365   1.001   3.758   6.740
 2538SOL    HW1 8366   0.938   3.686   6.709
 2538SOL    HW2 8367   1.094   3.722   6.740
 2539SOL     OW 8368   0.770   5.054   5.887
 2539SOL    HW1 8369   0.724   4.967   5.904
 2539SOL    HW2 8370   0.861   5.051   5.928
 2540SOL     OW 8371   0.618   5.291   6.870
 2540SOL    HW1 8372   0.613   5.373   6.927
 2540SOL    HW2 8373   0.707   5.288   6.825
 2541SOL     OW 8374   1.352   3.776   5.754
 2541SOL    HW1 8375   1.387   3.735   5.670
 2541SOL    HW2 8376   1.262   3.738   5.774
 2542SOL     OW 8377   1.300   4.177   6.277
 2542SOL    HW1 8378   1.241   4.257   6.281
 2542SOL    HW2 8379   1.315   4.142   6.370
 2543SOL     OW 8380   1.593   3.945   6.468
 2543SOL    HW1 8381   1.509   3.944   6.522
 2543SOL    HW2 8382   1.595   4.028   6.412
 2544SOL     OW 8383   0.039   4.801   5.886
 2544SOL    HW1 8384   0.138   4.790   5.877
 2544SOL    HW2 8385  -0.001   4.715   5.918
 2545SOL     OW 8386   0.230   4.352   7.561
 2545SOL    HW1 8387   0.137   4.350   7.598
 2545SOL    HW2 8388   0.231   4.313   7.469
 2546SOL     OW 8389   1.755   4.331   7.679
 2546SOL    HW1 8390   1.743   4.318   7.580
 2546SOL    HW2 8391   1.725   4.250   7.728
 2547SOL     OW 8392   0.231   5.437   7.931
 2547SOL    HW1 8393   0.265   5.514   7.985
 2547SOL    HW2 8394   0.275   5.437   7.841
 2548SOL     OW 8395   0.230   5.158   7.986
 2548SOL    HW1 8396   0.204   5.254   7.986
 2548SOL    HW2 8397   0.159   5.104   8.031
 2549SOL     OW 8398   0.606   4.688   7.571
 2549SOL    HW1 8399   0.613   4.772   7.517
 2549SOL    HW2 8400   0.652   4.701   7.659
 2550SOL     OW 8401   0.027   5.320   7.565
 2550SOL    HW1 8402   0.008   5.224   7.586
 2550SOL    HW2 8403  -0.006   5.378   7.640
 2551SOL     OW 8404   1.689   4.646   8.060
 2551SOL    HW1 8405   1.784   4.617   8.068
 2551SOL    HW2 8406   1.681   4.711   7.985
 2552SOL     OW 8407   1.641   4.832   7.880
 2552SOL    HW1 8408   1.727   4.834   7.828
 2552SOL    HW2 8409   1.655   4.879   7.968
 2553SOL     OW 8410   0.809   3.728   7.950
 2553SOL    HW1 8411   0.849   3.819   7.941
 2553SOL    HW2 8412   0.709   3.736   7.956
 2554SOL     OW 8413   1.525   4.723   7.638
 2554SOL    HW1 8414   1.462   4.647   7.651
 2554SOL    HW2 8415   1.573   4.741   7.724
 2555SOL     OW 8416   0.598   4.453   7.718
 2555SOL    HW1 8417   0.622   4.522   7.650
 2555SOL    HW2 8418   0.520   4.486   7.772
 2556SOL     OW 8419   0.076   4.535   8.237
 2556SOL    HW1 8420   0.175   4.523   8.246
 2556SOL    HW2 8421   0.052   4.630   8.258
 2557SOL     OW 8422   0.865   4.072   7.643
 2557SOL    HW1 8423   0.924   4.135   7.594
 2557SOL    HW2 8424   0.884   3.978   7.614
 2558SOL     OW 8425   0.321   4.667   7.690
 2558SOL    HW1 8426   0.403   4.706   7.648
 2558SOL    HW2 8427   0.294   4.585   7.641
 2559SOL     OW 8428   1.111   5.500   7.685
 2559SOL    HW1 8429   1.051   5.438   7.735
 2559SOL    HW2 8430   1.142   5.456   7.600
 2560SOL     OW 8431   1.632   5.101   7.529
 2560SOL    HW1 8432   1.600   5.195   7.519
 2560SOL    HW2 8433   1.556   5.038   7.517
 2561SOL     OW 8434   1.400   3.831   7.874
 2561SOL    HW1 8435   1.376   3.794   7.784
 2561SOL    HW2 8436   1.499   3.847   7.878
 2562SOL     OW 8437   0.382   4.424   7.928
 2562SOL    HW1 8438   0.427   4.334   7.925
 2562SOL    HW2 8439   0.288   4.413   7.961
 2563SOL     OW 8440   0.614   3.846   7.565
 2563SOL    HW1 8441   0.712   3.824   7.572
 2563SOL    HW2 8442   0.583   3.829   7.472
 2564SOL     OW 8443   0.539   3.788   7.960
 2564SOL    HW1 8444   0.458   3.789   8.018
 2564SOL    HW2 8445   0.542   3.871   7.905
 2565SOL     OW 8446   1.434   4.912   7.489
 2565SOL    HW1 8447   1.466   4.836   7.546
 2565SOL    HW2 8448   1.342   4.939   7.519
 2566SOL     OW 8449   0.297   3.759   7.619
 2566SOL    HW1 8450   0.346   3.843   7.598
 2566SOL    HW2 8451   0.359   3.694   7.664
 2567SOL     OW 8452   0.935   3.960   7.928
 2567SOL    HW1 8453   0.887   4.001   7.850
 2567SOL    HW2 8454   1.034   3.958   7.909
 2568SOL     OW 8455   0.459   4.876   8.189
 2568SOL    HW1 8456   0.388   4.849   8.254
 2568SOL    HW2 8457   0.433   4.848   8.096
 2569SOL     OW 8458   1.032   4.273   7.464
 2569SOL    HW1 8459   0.991   4.355   7.425
 2569SOL    HW2 8460   1.096   4.299   7.537
 2570SOL     OW 8461   1.857   4.557   7.825
 2570SOL    HW1 8462   1.899   4.493   7.889
 2570SOL    HW2 8463   1.819   4.506   7.747
 2571SOL     OW 8464   0.488   5.109   7.622
 2571SOL    HW1 8465   0.401   5.094   7.669
 2571SOL    HW2 8466   0.471   5.135   7.527
 2572SOL     OW 8467   1.390   4.299   7.526
 2572SOL    HW1 8468   1.336   4.278   7.607
 2572SOL    HW2 8469   1.481   4.258   7.535
 2573SOL     OW 8470   0.527   3.980   7.776
 2573SOL    HW1 8471   0.554   3.921   7.701
 2573SOL    HW2 8472   0.527   4.075   7.745
 2574SOL     OW 8473   0.705   4.774   7.816
 2574SOL    HW1 8474   0.691   4.781   7.915
 2574SOL    HW2 8475   0.789   4.723   7.798
 2575SOL     OW 8476   0.367   4.824   7.949
 2575SOL    HW1 8477   0.360   4.907   7.893
 2575SOL    HW2 8478   0.371   4.744   7.889
 2576SOL     OW 8479   1.252   5.072   7.836
 2576SOL    HW1 8480   1.302   5.149   7.876
 2576SOL    HW2 8481   1.157   5.074   7.868
 2577SOL     OW 8482   1.582   4.363   7.920
 2577SOL    HW1 8483   1.551   4.424   7.993
 2577SOL    HW2 8484   1.632   4.415   7.851
 2578SOL     OW 8485   1.209   4.249   7.723
 2578SOL    HW1 8486   1.222   4.165   7.777
 2578SOL    HW2 8487   1.180   4.323   7.783
 2579SOL     OW 8488   1.622   4.091   7.822
 2579SOL    HW1 8489   1.624   4.015   7.886
 2579SOL    HW2 8490   1.574   4.168   7.862
 2580SOL     OW 8491   1.540   3.998   7.573
 2580SOL    HW1 8492   1.479   3.923   7.596
 2580SOL    HW2 8493   1.562   4.050   7.656
 2581SOL     OW 8494   1.303   4.562   7.490
 2581SOL    HW1 8495   1.337   4.469   7.505
 2581SOL    HW2 8496   1.321   4.589   7.395
 2582SOL     OW 8497   0.008   5.050   7.648
 2582SOL    HW1 8498  -0.085   5.071   7.617
 2582SOL    HW2 8499   0.018   4.951   7.661
 2583SOL     OW 8500   0.815   4.296   7.773
 2583SOL    HW1 8501   0.822   4.207   7.727
 2583SOL    HW2 8502   0.721   4.330   7.765
 2584SOL     OW 8503   0.473   4.224   7.639
 2584SOL    HW1 8504   0.534   4.304   7.643
 2584SOL    HW2 8505   0.378   4.255   7.646
 2585SOL     OW 8506   1.302   4.579   7.757
 2585SOL    HW1 8507   1.216   4.548   7.799
 2585SOL    HW2 8508   1.298   4.565   7.658
 2586SOL     OW 8509   1.726   3.859   7.971
 2586SOL    HW1 8510   1.799   3.842   7.904
 2586SOL    HW2 8511   1.695   3.772   8.009
 2587SOL     OW 8512   0.916   4.634   7.739
 2587SOL    HW1 8513   0.979   4.672   7.671
 2587SOL    HW2 8514   0.956   4.551   7.778
 2588SOL     OW 8515   0.255   5.072   7.738
 2588SOL    HW1 8516   0.159   5.073   7.711
 2588SOL    HW2 8517   0.267   5.125   7.822
 2589SOL     OW 8518   0.075   4.069   7.481
 2589SOL    HW1 8519  -0.017   4.041   7.452
 2589SOL    HW2 8520   0.106   4.146   7.425
 2590SOL     OW 8521   0.072   3.890   7.766
 2590SOL    HW1 8522   0.055   3.973   7.712
 2590SOL    HW2 8523   0.162   3.853   7.744
 2591SOL     OW 8524   1.183   5.059   7.567
 2591SOL    HW1 8525   1.084   5.048   7.569
 2591SOL    HW2 8526   1.217   5.074   7.660
 2592SOL     OW 8527   1.225   4.049   7.897
 2592SOL    HW1 8528   1.290   3.975   7.886
 2592SOL    HW2 8529   1.245   4.099   7.981
 2593SOL     OW 8530   0.594   4.469   8.100
 2593SOL    HW1 8531   0.644   4.554   8.081
 2593SOL    HW2 8532   0.506   4.471   8.052
 2594SOL     OW 8533   0.859   5.098   7.464
 2594SOL    HW1 8534   0.813   5.113   7.552
 2594SOL    HW2 8535   0.903   5.183   7.434
 2595SOL     OW 8536   1.083   4.708   7.535
 2595SOL    HW1 8537   1.060   4.761   7.453
 2595SOL    HW2 8538   1.164   4.652   7.516
 2596SOL     OW 8539   0.428   4.148   7.968
 2596SOL    HW1 8540   0.458   4.076   7.906
 2596SOL    HW2 8541   0.389   4.108   8.051
 2597SOL     OW 8542   0.770   5.054   7.749
 2597SOL    HW1 8543   0.724   4.967   7.766
 2597SOL    HW2 8544   0.861   5.051   7.790
 2598SOL     OW 8545   1.352   3.776   7.616
 2598SOL    HW1 8546   1.387   3.735   7.532
 2598SOL    HW2 8547   1.262   3.738   7.636
 2599SOL     OW 8548   0.039   4.801   7.748
 2599SOL    HW1 8549   0.138   4.790   7.739
 2599SOL    HW2 8550  -0.001   4.715   7.780
 2600SOL     OW 8551   2.092   0.628   0.113
 2600SOL    HW1 8552   1.999   0.626   0.150
 2600SOL    HW2 8553   2.093   0.589   0.021
 2601SOL     OW 8554   2.087   0.275   0.996
 2601SOL    HW1 8555   2.122   0.258   1.088
 2601SOL    HW2 8556   1.999   0.230   0.984
 2602SOL     OW 8557   1.881   0.368   0.647
 2602SOL    HW1 8558   1.799   0.411   0.686
 2602SOL    HW2 8559   1.853   0.295   0.584
 2603SOL     OW 8560   2.431   1.275   1.165
 2603SOL    HW1 8561   2.338   1.268   1.128
 2603SOL    HW2 8562   2.442   1.364   1.209
 2604SOL     OW 8563   3.417   1.511   0.703
 2604SOL    HW1 8564   3.360   1.495   0.784
 2604SOL    HW2 8565   3.358   1.521   0.623
 2605SOL     OW 8566   2.997   0.703   0.717
 2605SOL    HW1 8567   3.054   0.781   0.692
 2605SOL    HW2 8568   2.937   0.729   0.793
 2606SOL     OW 8569   3.617   0.607   0.231
 2606SOL    HW1 8570   3.605   0.594   0.132
 2606SOL    HW2 8571   3.587   0.526   0.280
 2607SOL     OW 8572   2.630   1.144   1.023
 2607SOL    HW1 8573   2.552   1.161   1.083
 2607SOL    HW2 8574   2.664   1.231   0.987
 2608SOL     OW 8575   2.712   0.798   1.823
 2608SOL    HW1 8576   2.708   0.874   1.888
 2608SOL    HW2 8577   2.734   0.834   1.732
 2609SOL     OW 8578   2.547   1.012   0.665
 2609SOL    HW1 8579   2.616   0.996   0.735
 2609SOL    HW2 8580   2.474   1.069   0.703
 2610SOL     OW 8581   2.548   1.161   1.803
 2610SOL    HW1 8582   2.608   1.240   1.817
 2610SOL    HW2 8583   2.462   1.192   1.762
 2611SOL     OW 8584   2.197   1.435   1.061
 2611SOL    HW1 8585   2.119   1.404   1.008
 2611SOL    HW2 8586   2.255   1.493   1.004
 2612SOL     OW 8587   3.322   1.505   1.339
 2612SOL    HW1 8588   3.346   1.599   1.365
 2612SOL    HW2 8589   3.306   1.451   1.421
 2613SOL     OW 8590   2.300   0.392   1.499
 2613SOL    HW1 8591   2.382   0.336   1.508
 2613SOL    HW2 8592   2.219   0.334   1.503
 2614SOL     OW 8593   3.465   0.447   0.737
 2614SOL    HW1 8594   3.391   0.493   0.687
 2614SOL    HW2 8595   3.516   0.515   0.790
 2615SOL     OW 8596   2.093   1.713   0.483
 2615SOL    HW1 8597   2.127   1.790   0.537
 2615SOL    HW2 8598   2.137   1.713   0.393
 2616SOL     OW 8599   2.989   1.341   1.690
 2616SOL    HW1 8600   3.036   1.341   1.778
 2616SOL    HW2 8601   2.941   1.254   1.679
 2617SOL     OW 8602   2.092   1.434   0.538
 2617SOL    HW1 8603   2.066   1.530   0.538
 2617SOL    HW2 8604   2.021   1.380   0.583
 2618SOL     OW 8605   2.102   1.091   0.886
 2618SOL    HW1 8606   2.116   1.007   0.938
 2618SOL    HW2 8607   2.047   1.155   0.941
 2619SOL     OW 8608   2.482   1.786   1.439
 2619SOL    HW1 8609   2.390   1.769   1.474
 2619SOL    HW2 8610   2.510   1.878   1.465
 2620SOL     OW 8611   2.468   0.964   0.123
 2620SOL    HW1 8612   2.475   1.048   0.069
 2620SOL    HW2 8613   2.514   0.977   0.211
 2621SOL     OW 8614   3.456   0.114   1.480
 2621SOL    HW1 8615   3.438   0.181   1.408
 2621SOL    HW2 8616   3.453   0.160   1.569
 2622SOL     OW 8617   1.984   0.643   0.563
 2622SOL    HW1 8618   1.939   0.555   0.580
 2622SOL    HW2 8619   1.983   0.697   0.647
 2623SOL     OW 8620   3.704   1.767   0.359
 2623SOL    HW1 8621   3.758   1.738   0.439
 2623SOL    HW2 8622   3.734   1.857   0.330
 2624SOL     OW 8623   1.889   1.596   0.117
 2624SOL    HW1 8624   1.870   1.500   0.138
 2624SOL    HW2 8625   1.856   1.654   0.192
 2625SOL     OW 8626   3.551   0.922   0.612
 2625SOL    HW1 8627   3.646   0.893   0.620
 2625SOL    HW2 8628   3.543   0.987   0.537
 2626SOL     OW 8629   3.503   1.108   0.432
 2626SOL    HW1 8630   3.589   1.110   0.380
 2626SOL    HW2 8631   3.517   1.155   0.520
 2627SOL     OW 8632   1.975   0.737   1.597
 2627SOL    HW1 8633   2.063   0.724   1.642
 2627SOL    HW2 8634   1.962   0.834   1.575
 2628SOL     OW 8635   2.475   1.365   0.726
 2628SOL    HW1 8636   2.426   1.278   0.735
 2628SOL    HW2 8637   2.452   1.408   0.639
 2629SOL     OW 8638   3.155   1.228   1.423
 2629SOL    HW1 8639   3.192   1.155   1.365
 2629SOL    HW2 8640   3.207   1.233   1.508
 2630SOL     OW 8641   2.671   0.004   0.502
 2630SOL    HW1 8642   2.711   0.095   0.493
 2630SOL    HW2 8643   2.571   0.012   0.508
 2631SOL     OW 8644   2.059   0.976   1.264
 2631SOL    HW1 8645   2.148   0.931   1.250
 2631SOL    HW2 8646   1.986   0.911   1.245
 2632SOL     OW 8647   3.387   0.999   0.190
 2632SOL    HW1 8648   3.324   0.923   0.203
 2632SOL    HW2 8649   3.435   1.017   0.276
 2633SOL     OW 8650   3.049   1.792   1.616
 2633SOL    HW1 8651   3.073   1.852   1.540
 2633SOL    HW2 8652   3.056   1.697   1.586
 2634SOL     OW 8653   2.179   0.251   1.801
 2634SOL    HW1 8654   2.250   0.322   1.807
 2634SOL    HW2 8655   2.091   0.290   1.829
 2635SOL     OW 8656   3.328   1.417   0.953
 2635SOL    HW1 8657   3.269   1.423   1.033
 2635SOL    HW2 8658   3.313   1.329   0.907
 2636SOL     OW 8659   3.529   1.714   0.572
 2636SOL    HW1 8660   3.488   1.691   0.484
 2636SOL    HW2 8661   3.511   1.640   0.637
 2637SOL     OW 8662   2.460   0.729   0.270
 2637SOL    HW1 8663   2.484   0.798   0.202
 2637SOL    HW2 8664   2.382   0.762   0.324
 2638SOL     OW 8665   3.143   0.345   0.944
 2638SOL    HW1 8666   3.057   0.295   0.931
 2638SOL    HW2 8667   3.205   0.291   1.000
 2639SOL     OW 8668   3.438   1.662   0.307
 2639SOL    HW1 8669   3.527   1.708   0.310
 2639SOL    HW2 8670   3.417   1.638   0.212
 2640SOL     OW 8671   2.669   0.605   1.465
 2640SOL    HW1 8672   2.622   0.602   1.554
 2640SOL    HW2 8673   2.618   0.550   1.399
 2641SOL     OW 8674   3.256   0.469   1.674
 2641SOL    HW1 8675   3.236   0.512   1.762
 2641SOL    HW2 8676   3.334   0.407   1.683
 2642SOL     OW 8677   2.835   0.890   1.572
 2642SOL    HW1 8678   2.881   0.806   1.543
 2642SOL    HW2 8679   2.779   0.924   1.497
 2643SOL     OW 8680   2.853   0.410   1.242
 2643SOL    HW1 8681   2.776   0.444   1.296
 2643SOL    HW2 8682   2.819   0.359   1.163
 2644SOL     OW 8683   2.903   0.701   0.429
 2644SOL    HW1 8684   2.929   0.697   0.525
 2644SOL    HW2 8685   2.818   0.650   0.415
 2645SOL     OW 8686   1.938   0.811   0.789
 2645SOL    HW1 8687   2.037   0.799   0.798
 2645SOL    HW2 8688   1.914   0.906   0.810
 2646SOL     OW 8689   1.992   1.821   1.571
 2646SOL    HW1 8690   1.982   1.806   1.670
 2646SOL    HW2 8691   1.906   1.857   1.535
 2647SOL     OW 8692   2.727   0.348   0.195
 2647SOL    HW1 8693   2.786   0.411   0.146
 2647SOL    HW2 8694   2.746   0.254   0.166
 2648SOL     OW 8695   3.581   0.585   1.831
 2648SOL    HW1 8696   3.555   0.674   1.795
 2648SOL    HW2 8697   3.579   0.517   1.758
 2649SOL     OW 8698   3.224   1.144   0.545
 2649SOL    HW1 8699   3.307   1.115   0.497
 2649SOL    HW2 8700   3.175   1.211   0.489
 2650SOL     OW 8701   2.412   0.196   0.885
 2650SOL    HW1 8702   2.407   0.191   0.985
 2650SOL    HW2 8703   2.414   0.292   0.856
 2651SOL     OW 8704   2.870   1.456   0.477
 2651SOL    HW1 8705   2.824   1.528   0.425
 2651SOL    HW2 8706   2.866   1.476   0.575
 2652SOL     OW 8707   2.213   1.801   0.853
 2652SOL    HW1 8708   2.263   1.715   0.859
 2652SOL    HW2 8709   2.278   1.878   0.850
 2653SOL     OW 8710   3.657   1.066   0.873
 2653SOL    HW1 8711   3.595   1.051   0.797
 2653SOL    HW2 8712   3.605   1.077   0.958
 2654SOL     OW 8713   3.089   1.550   1.506
 2654SOL    HW1 8714   3.095   1.473   1.570
 2654SOL    HW2 8715   3.037   1.524   1.426
 2655SOL     OW 8716   2.183   0.943   0.242
 2655SOL    HW1 8717   2.265   0.982   0.200
 2655SOL    HW2 8718   2.156   0.861   0.193
 2656SOL     OW 8719   3.320   0.735   0.728
 2656SOL    HW1 8720   3.315   0.670   0.803
 2656SOL    HW2 8721   3.400   0.794   0.741
 2657SOL     OW 8722   2.323   1.266   1.727
 2657SOL    HW1 8723   2.273   1.267   1.641
 2657SOL    HW2 8724   2.260   1.248   1.803
 2658SOL     OW 8725   2.973   1.776   0.237
 2658SOL    HW1 8726   2.913   1.714   0.287
 2658SOL    HW2 8727   3.004   1.732   0.152
 2659SOL     OW 8728   2.064   0.285   1.498
 2659SOL    HW1 8729   1.984   0.345   1.485
 2659SOL    HW2 8730   2.054   0.236   1.584
 2660SOL     OW 8731   3.494   1.377   0.081
 2660SOL    HW1 8732   3.462   1.471   0.071
 2660SOL    HW2 8733   3.418   1.314   0.069
 2661SOL     OW 8734   2.326   1.743   0.323
 2661SOL    HW1 8735   2.359   1.782   0.409
 2661SOL    HW2 8736   2.402   1.736   0.258
 2662SOL     OW 8737   3.262   0.107   0.426
 2662SOL    HW1 8738   3.238   0.070   0.336
 2662SOL    HW2 8739   3.361   0.123   0.430
 2663SOL     OW 8740   2.111   1.785   1.241
 2663SOL    HW1 8741   2.168   1.720   1.291
 2663SOL    HW2 8742   2.095   1.752   1.148
 2664SOL     OW 8743   2.802   1.698   0.904
 2664SOL    HW1 8744   2.882   1.641   0.925
 2664SOL    HW2 8745   2.753   1.658   0.827
 2665SOL     OW 8746   2.244   0.700   0.480
 2665SOL    HW1 8747   2.289   0.610   0.477
 2665SOL    HW2 8748   2.150   0.689   0.513
 2666SOL     OW 8749   3.409   0.222   1.729
 2666SOL    HW1 8750   3.404   0.259   1.821
 2666SOL    HW2 8751   3.337   0.153   1.717
 2667SOL     OW 8752   2.476   0.122   0.117
 2667SOL    HW1 8753   2.574   0.100   0.124
 2667SOL    HW2 8754   2.445   0.105   0.024
 2668SOL     OW 8755   2.643   0.264   1.749
 2668SOL    HW1 8756   2.710   0.203   1.792
 2668SOL    HW2 8757   2.570   0.283   1.814
 2669SOL     OW 8758   2.750   1.514   1.195
 2669SOL    HW1 8759   2.727   1.489   1.101
 2669SOL    HW2 8760   2.811   1.445   1.234
 2670SOL     OW 8761   3.213   0.590   1.433
 2670SOL    HW1 8762   3.241   0.547   1.518
 2670SOL    HW2 8763   3.238   0.686   1.434
 2671SOL     OW 8764   2.665   1.402   0.924
 2671SOL    HW1 8765   2.755   1.416   0.882
 2671SOL    HW2 8766   2.594   1.404   0.853
 2672SOL     OW 8767   2.784   0.503   0.899
 2672SOL    HW1 8768   2.759   0.494   0.803
 2672SOL    HW2 8769   2.832   0.421   0.930
 2673SOL     OW 8770   2.401   0.064   0.512
 2673SOL    HW1 8771   2.320   0.065   0.570
 2673SOL    HW2 8772   2.404   0.147   0.457
 2674SOL     OW 8773   3.296   1.188   0.041
 2674SOL    HW1 8774   3.328   1.112   0.098
 2674SOL    HW2 8775   3.204   1.215   0.071
 2675SOL     OW 8776   2.159   0.035   0.171
 2675SOL    HW1 8777   2.208   0.119   0.150
 2675SOL    HW2 8778   2.221  -0.030   0.216
 2676SOL     OW 8779   2.797   0.236   0.480
 2676SOL    HW1 8780   2.749   0.277   0.402
 2676SOL    HW2 8781   2.896   0.234   0.461
 2677SOL     OW 8782   2.938   0.683   1.464
 2677SOL    HW1 8783   2.858   0.622   1.467
 2677SOL    HW2 8784   3.019   0.630   1.440
 2678SOL     OW 8785   3.089   1.570   0.793
 2678SOL    HW1 8786   3.110   1.644   0.728
 2678SOL    HW2 8787   3.157   1.570   0.866
 2679SOL     OW 8788   2.321   1.152   0.741
 2679SOL    HW1 8789   2.250   1.125   0.806
 2679SOL    HW2 8790   2.295   1.124   0.648
 2680SOL     OW 8791   3.133   1.797   0.591
 2680SOL    HW1 8792   3.177   1.861   0.527
 2680SOL    HW2 8793   3.083   1.849   0.661
 2681SOL     OW 8794   2.894   0.549   0.016
 2681SOL    HW1 8795   2.853   0.631  -0.023
 2681SOL    HW2 8796   2.958   0.575   0.089
 2682SOL     OW 8797   1.940   0.556   1.386
 2682SOL    HW1 8798   2.032   0.555   1.345
 2682SOL    HW2 8799   1.934   0.630   1.453
 2683SOL     OW 8800   2.423   0.222   1.147
 2683SOL    HW1 8801   2.461   0.138   1.184
 2683SOL    HW2 8802   2.335   0.241   1.191
 2684SOL     OW 8803   2.728   0.454   0.642
 2684SOL    HW1 8804   2.696   0.526   0.580
 2684SOL    HW2 8805   2.752   0.373   0.589
 2685SOL     OW 8806   2.879   0.039   0.753
 2685SOL    HW1 8807   2.807   0.044   0.684
 2685SOL    HW2 8808   2.855  -0.030   0.822
 2686SOL     OW 8809   3.291   1.173   0.867
 2686SOL    HW1 8810   3.236   1.089   0.860
 2686SOL    HW2 8811   3.317   1.202   0.775
 2687SOL     OW 8812   3.328   0.590   0.992
 2687SOL    HW1 8813   3.298   0.495   0.999
 2687SOL    HW2 8814   3.401   0.606   1.058
 2688SOL     OW 8815   3.719   0.833   0.377
 2688SOL    HW1 8816   3.761   0.769   0.441
 2688SOL    HW2 8817   3.681   0.782   0.299
 2689SOL     OW 8818   2.350   1.385   0.174
 2689SOL    HW1 8819   2.263   1.370   0.221
 2689SOL    HW2 8820   2.333   1.411   0.079
 2690SOL     OW 8821   3.526   1.280   0.657
 2690SOL    HW1 8822   3.625   1.288   0.671
 2690SOL    HW2 8823   3.481   1.364   0.688
 2691SOL     OW 8824   3.252   0.575   0.078
 2691SOL    HW1 8825   3.198   0.554   0.159
 2691SOL    HW2 8826   3.343   0.534   0.087
 2692SOL     OW 8827   2.389   0.256   0.328
 2692SOL    HW1 8828   2.416   0.197   0.253
 2692SOL    HW2 8829   2.389   0.351   0.297
 2693SOL     OW 8830   3.616   1.223   1.588
 2693SOL    HW1 8831   3.707   1.184   1.575
 2693SOL    HW2 8832   3.624   1.319   1.612
 2694SOL     OW 8833   2.926   1.347   1.340
 2694SOL    HW1 8834   2.846   1.324   1.395
 2694SOL    HW2 8835   3.009   1.321   1.389
 2695SOL     OW 8836   3.454   1.629   1.625
 2695SOL    HW1 8837   3.481   1.663   1.535
 2695SOL    HW2 8838   3.533   1.591   1.671
 2696SOL     OW 8839   2.973   1.195   1.100
 2696SOL    HW1 8840   2.933   1.239   1.181
 2696SOL    HW2 8841   2.932   1.232   1.017
 2697SOL     OW 8842   3.500   1.099   1.079
 2697SOL    HW1 8843   3.505   1.180   1.138
 2697SOL    HW2 8844   3.414   1.101   1.028
 2698SOL     OW 8845   2.777   0.089   1.402
 2698SOL    HW1 8846   2.802   0.069   1.307
 2698SOL    HW2 8847   2.849   0.145   1.444
 2699SOL     OW 8848   2.842   1.116   1.719
 2699SOL    HW1 8849   2.743   1.122   1.729
 2699SOL    HW2 8850   2.865   1.036   1.663
 2700SOL     OW 8851   2.567   1.050   0.368
 2700SOL    HW1 8852   2.553   1.057   0.467
 2700SOL    HW2 8853   2.651   0.999   0.350
 2701SOL     OW 8854   2.272   0.813   1.251
 2701SOL    HW1 8855   2.358   0.825   1.301
 2701SOL    HW2 8856   2.230   0.726   1.278
 2702SOL     OW 8857   3.136   0.386   1.262
 2702SOL    HW1 8858   3.157   0.460   1.326
 2702SOL    HW2 8859   3.047   0.403   1.219
 2703SOL     OW 8860   1.926   1.564   1.331
 2703SOL    HW1 8861   1.880   1.646   1.297
 2703SOL    HW2 8862   2.024   1.583   1.340
 2704SOL     OW 8863   2.229   1.100   0.501
 2704SOL    HW1 8864   2.222   1.183   0.445
 2704SOL    HW2 8865   2.233   1.020   0.441
 2705SOL     OW 8866   2.428   0.537   0.865
 2705SOL    HW1 8867   2.440   0.603   0.791
 2705SOL    HW2 8868   2.474   0.571   0.948
 2706SOL     OW 8869   3.114   1.348   0.388
 2706SOL    HW1 8870   3.164   1.425   0.428
 2706SOL    HW2 8871   3.019   1.350   0.420
 2707SOL     OW 8872   3.134   1.445   1.142
 2707SOL    HW1 8873   3.181   1.458   1.229
 2707SOL    HW2 8874   3.068   1.371   1.151
 2708SOL     OW 8875   3.444   0.639   0.472
 2708SOL    HW1 8876   3.413   0.700   0.545
 2708SOL    HW2 8877   3.494   0.691   0.403
 2709SOL     OW 8878   2.216   1.510   1.329
 2709SOL    HW1 8879   2.195   1.466   1.242
 2709SOL    HW2 8880   2.313   1.536   1.332
 2710SOL     OW 8881   2.264   0.751   1.598
 2710SOL    HW1 8882   2.332   0.806   1.551
 2710SOL    HW2 8883   2.304   0.663   1.625
 2711SOL     OW 8884   3.449   0.779   1.670
 2711SOL    HW1 8885   3.357   0.817   1.665
 2711SOL    HW2 8886   3.509   0.826   1.605
 2712SOL     OW 8887   2.875   0.105   1.770
 2712SOL    HW1 8888   2.881   0.190   1.718
 2712SOL    HW2 8889   2.907   0.029   1.713
 2713SOL     OW 8890   2.366   0.050   1.740
 2713SOL    HW1 8891   2.324  -0.007   1.670
 2713SOL    HW2 8892   2.300   0.119   1.772
 2714SOL     OW 8893   2.435   0.870   1.029
 2714SOL    HW1 8894   2.479   0.959   1.020
 2714SOL    HW2 8895   2.372   0.870   1.106
 2715SOL     OW 8896   3.222   0.862   1.045
 2715SOL    HW1 8897   3.147   0.862   0.979
 2715SOL    HW2 8898   3.259   0.770   1.054
 2716SOL     OW 8899   3.071   0.525   0.275
 2716SOL    HW1 8900   3.084   0.441   0.329
 2716SOL    HW2 8901   3.042   0.599   0.335
 2717SOL     OW 8902   2.169   0.213   1.231
 2717SOL    HW1 8903   2.146   0.250   1.321
 2717SOL    HW2 8904   2.139   0.118   1.225
 2718SOL     OW 8905   1.899   1.310   1.282
 2718SOL    HW1 8906   1.952   1.261   1.350
 2718SOL    HW2 8907   1.921   1.408   1.287
 2719SOL     OW 8908   2.594   0.634   1.064
 2719SOL    HW1 8909   2.653   0.608   0.988
 2719SOL    HW2 8910   2.566   0.730   1.053
 2720SOL     OW 8911   3.590   0.935   1.854
 2720SOL    HW1 8912   3.544   0.928   1.765
 2720SOL    HW2 8913   3.528   0.979   1.920
 2721SOL     OW 8914   2.169   0.063   0.618
 2721SOL    HW1 8915   2.158   0.157   0.651
 2721SOL    HW2 8916   2.164   0.000   0.695
 2722SOL     OW 8917   3.484   0.367   0.374
 2722SOL    HW1 8918   3.486   0.291   0.438
 2722SOL    HW2 8919   3.436   0.444   0.414
 2723SOL     OW 8920   2.885   0.766   0.966
 2723SOL    HW1 8921   2.900   0.787   1.062
 2723SOL    HW2 8922   2.855   0.671   0.957
 2724SOL     OW 8923   2.842   1.573   1.700
 2724SOL    HW1 8924   2.822   1.617   1.612
 2724SOL    HW2 8925   2.881   1.482   1.684
 2725SOL     OW 8926   3.721   1.518   1.605
 2725SOL    HW1 8927   3.735   1.545   1.510
 2725SOL    HW2 8928   3.804   1.540   1.658
 2726SOL     OW 8929   2.212   0.898   1.804
 2726SOL    HW1 8930   2.288   0.942   1.852
 2726SOL    HW2 8931   2.247   0.851   1.722
 2727SOL     OW 8932   3.402   0.274   0.125
 2727SOL    HW1 8933   3.341   0.199   0.148
 2727SOL    HW2 8934   3.424   0.326   0.208
 2728SOL     OW 8935   3.165   0.838   0.042
 2728SOL    HW1 8936   3.199   0.745   0.057
 2728SOL    HW2 8937   3.183   0.865  -0.053
 2729SOL     OW 8938   2.930   1.333   0.849
 2729SOL    HW1 8939   2.937   1.249   0.794
 2729SOL    HW2 8940   2.992   1.402   0.813
 2730SOL     OW 8941   2.181   0.810   0.949
 2730SOL    HW1 8942   2.274   0.846   0.954
 2730SOL    HW2 8943   2.175   0.725   1.001
 2731SOL     OW 8944   2.201   0.509   1.006
 2731SOL    HW1 8945   2.149   0.426   0.989
 2731SOL    HW2 8946   2.278   0.514   0.942
 2732SOL     OW 8947   3.000   0.380   1.678
 2732SOL    HW1 8948   2.955   0.443   1.742
 2732SOL    HW2 8949   3.093   0.411   1.661
 2733SOL     OW 8950   3.022   0.207   1.477
 2733SOL    HW1 8951   3.022   0.271   1.554
 2733SOL    HW2 8952   3.050   0.255   1.394
 2734SOL     OW 8953   1.870   1.326   0.200
 2734SOL    HW1 8954   1.777   1.347   0.169
 2734SOL    HW2 8955   1.880   1.227   0.213
 2735SOL     OW 8956   1.950   1.801   0.927
 2735SOL    HW1 8957   1.908   1.715   0.900
 2735SOL    HW2 8958   2.044   1.804   0.893
 2736SOL     OW 8959   2.366   1.568   0.910
 2736SOL    HW1 8960   2.432   1.642   0.919
 2736SOL    HW2 8961   2.410   1.489   0.868
 2737SOL     OW 8962   2.864   0.796   1.238
 2737SOL    HW1 8963   2.905   0.764   1.324
 2737SOL    HW2 8964   2.768   0.769   1.235
 2738SOL     OW 8965   1.902   0.544   1.114
 2738SOL    HW1 8966   1.987   0.511   1.073
 2738SOL    HW2 8967   1.915   0.559   1.212
 2739SOL     OW 8968   2.051   0.520   1.722
 2739SOL    HW1 8969   2.110   0.480   1.652
 2739SOL    HW2 8970   1.993   0.591   1.681
 2740SOL     OW 8971   3.231   0.950   1.660
 2740SOL    HW1 8972   3.270   1.039   1.680
 2740SOL    HW2 8973   3.241   0.930   1.563
 2741SOL     OW 8974   2.677   0.572   0.325
 2741SOL    HW1 8975   2.684   0.483   0.279
 2741SOL    HW2 8976   2.583   0.606   0.317
 2742SOL     OW 8977   3.519   0.604   1.206
 2742SOL    HW1 8978   3.481   0.535   1.268
 2742SOL    HW2 8979   3.601   0.568   1.162
 2743SOL     OW 8980   2.114   1.564   1.744
 2743SOL    HW1 8981   2.084   1.621   1.820
 2743SOL    HW2 8982   2.107   1.467   1.770
 2744SOL     OW 8983   2.533   0.464   1.269
 2744SOL    HW1 8984   2.499   0.375   1.239
 2744SOL    HW2 8985   2.559   0.518   1.189
 2745SOL     OW 8986   2.792   1.678   1.465
 2745SOL    HW1 8987   2.768   1.660   1.370
 2745SOL    HW2 8988   2.822   1.772   1.475
 2746SOL     OW 8989   2.335   0.500   0.191
 2746SOL    HW1 8990   2.396   0.580   0.195
 2746SOL    HW2 8991   2.240   0.531   0.198
 2747SOL     OW 8992   2.021   1.137   1.466
 2747SOL    HW1 8993   2.043   1.076   1.542
 2747SOL    HW2 8994   2.031   1.088   1.380
 2748SOL     OW 8995   3.209   1.059   1.234
 2748SOL    HW1 8996   3.233   0.996   1.160
 2748SOL    HW2 8997   3.119   1.099   1.216
 2749SOL     OW 8998   3.164   0.855   0.309
 2749SOL    HW1 8999   3.078   0.824   0.351
 2749SOL    HW2 9000   3.160   0.841   0.210
 2750SOL     OW 9001   3.621   1.747   1.154
 2750SOL    HW1 9002   3.682   1.777   1.081
 2750SOL    HW2 9003   3.583   1.658   1.132
 2751SOL     OW 9004   3.114   1.731   1.128
 2751SOL    HW1 9005   3.198   1.736   1.074
 2751SOL    HW2 9006   3.091   1.635   1.146
 2752SOL     OW 9007   1.945   1.258   1.022
 2752SOL    HW1 9008   1.940   1.257   1.122
 2752SOL    HW2 9009   1.862   1.217   0.984
 2753SOL     OW 9010   2.550   1.662   1.716
 2753SOL    HW1 9011   2.494   1.743   1.725
 2753SOL    HW2 9012   2.602   1.666   1.630
 2754SOL     OW 9013   2.765   0.086   0.133
 2754SOL    HW1 9014   2.816   0.087   0.047
 2754SOL    HW2 9015   2.821   0.044   0.204
 2755SOL     OW 9016   3.588   0.135   0.523
 2755SOL    HW1 9017   3.661   0.118   0.456
 2755SOL    HW2 9018   3.557   0.048   0.561
 2756SOL     OW 9019   3.250   1.573   0.477
 2756SOL    HW1 9020   3.317   1.585   0.403
 2756SOL    HW2 9021   3.210   1.662   0.500
 2757SOL     OW 9022   1.992   1.794   1.851
 2757SOL    HW1 9023   1.951   1.720   1.904
 2757SOL    HW2 9024   2.056   1.845   1.909
 2758SOL     OW 9025   3.142   0.927   0.672
 2758SOL    HW1 9026   3.202   0.846   0.674
 2758SOL    HW2 9027   3.182   0.996   0.612
 2759SOL     OW 9028   2.692   1.273   1.422
 2759SOL    HW1 9029   2.687   1.306   1.517
 2759SOL    HW2 9030   2.606   1.292   1.376
 2760SOL     OW 9031   2.534   1.616   0.154
 2760SOL    HW1 9032   2.543   1.626   0.055
 2760SOL    HW2 9033   2.494   1.527   0.175
 2761SOL     OW 9034   3.512   1.720   1.394
 2761SOL    HW1 9035   3.565   1.730   1.310
 2761SOL    HW2 9036   3.485   1.810   1.428
 2762SOL     OW 9037   3.703   0.175   0.963
 2762SOL    HW1 9038   3.742   0.090   0.927
 2762SOL    HW2 9039   3.605   0.177   0.944
 2763SOL     OW 9040   2.125   0.326   0.720
 2763SOL    HW1 9041   2.046   0.377   0.686
 2763SOL    HW2 9042   2.116   0.311   0.818
 2764SOL     OW 9043   3.056   1.612   0.031
 2764SOL    HW1 9044   3.062   1.519   0.068
 2764SOL    HW2 9045   2.997   1.612  -0.049
 2765SOL     OW 9046   2.684   1.002   1.372
 2765SOL    HW1 9047   2.724   1.001   1.280
 2765SOL    HW2 9048   2.694   1.094   1.412
 2766SOL     OW 9049   2.778   0.910   0.291
 2766SOL    HW1 9050   2.841   0.948   0.223
 2766SOL    HW2 9051   2.818   0.827   0.330
 2767SOL     OW 9052   3.366   1.607   0.044
 2767SOL    HW1 9053   3.274   1.644   0.051
 2767SOL    HW2 9054   3.404   1.627  -0.046
 2768SOL     OW 9055   2.234   1.288   1.490
 2768SOL    HW1 9056   2.221   1.381   1.456
 2768SOL    HW2 9057   2.150   1.236   1.477
 2769SOL     OW 9058   3.476   1.292   1.289
 2769SOL    HW1 9059   3.536   1.295   1.369
 2769SOL    HW2 9060   3.401   1.356   1.302
 2770SOL     OW 9061   2.901   1.098   0.696
 2770SOL    HW1 9062   2.831   1.051   0.750
 2770SOL    HW2 9063   2.960   1.030   0.653
 2771SOL     OW 9064   2.876   0.236   0.971
 2771SOL    HW1 9065   2.868   0.200   0.878
 2771SOL    HW2 9066   2.874   0.160   1.036
 2772SOL     OW 9067   2.452   1.487   0.491
 2772SOL    HW1 9068   2.494   1.429   0.421
 2772SOL    HW2 9069   2.408   1.566   0.447
 2773SOL     OW 9070   3.571   0.385   1.381
 2773SOL    HW1 9071   3.644   0.454   1.385
 2773SOL    HW2 9072   3.599   0.310   1.322
 2774SOL     OW 9073   2.117   1.348   0.290
 2774SOL    HW1 9074   2.021   1.349   0.263
 2774SOL    HW2 9075   2.129   1.401   0.374
 2775SOL     OW 9076   1.967   1.013   1.726
 2775SOL    HW1 9077   1.890   0.980   1.780
 2775SOL    HW2 9078   2.052   0.983   1.768
 2776SOL     OW 9079   2.534   0.203   1.489
 2776SOL    HW1 9080   2.624   0.187   1.449
 2776SOL    HW2 9081   2.542   0.208   1.588
 2777SOL     OW 9082   1.937   0.345   0.033
 2777SOL    HW1 9083   1.845   0.317   0.004
 2777SOL    HW2 9084   1.968   0.422  -0.023
 2778SOL     OW 9085   3.302   0.856   1.398
 2778SOL    HW1 9086   3.245   0.908   1.335
 2778SOL    HW2 9087   3.398   0.868   1.374
 2779SOL     OW 9088   1.934   0.166   0.318
 2779SOL    HW1 9089   1.917   0.249   0.264
 2779SOL    HW2 9090   2.024   0.129   0.296
 2780SOL     OW 9091   3.045   1.335   0.119
 2780SOL    HW1 9092   2.946   1.324   0.121
 2780SOL    HW2 9093   3.079   1.350   0.212
 2781SOL     OW 9094   2.475   0.842   1.431
 2781SOL    HW1 9095   2.531   0.923   1.414
 2781SOL    HW2 9096   2.534   0.762   1.434
 2782SOL     OW 9097   3.355   1.767   0.959
 2782SOL    HW1 9098   3.388   1.831   0.890
 2782SOL    HW2 9099   3.421   1.761   1.034
 2783SOL     OW 9100   2.578   0.565   1.708
 2783SOL    HW1 9101   2.597   0.630   1.782
 2783SOL    HW2 9102   2.638   0.485   1.717
 2784SOL     OW 9103   3.312   1.220   1.633
 2784SOL    HW1 9104   3.303   1.210   1.732
 2784SOL    HW2 9105   3.408   1.213   1.607
 2785SOL     OW 9106   2.252   1.741   1.560
 2785SOL    HW1 9107   2.161   1.782   1.558
 2785SOL    HW2 9108   2.245   1.647   1.592
 2786SOL     OW 9109   3.536   0.883   1.254
 2786SOL    HW1 9110   3.509   0.794   1.217
 2786SOL    HW2 9111   3.537   0.951   1.181
 2787SOL     OW 9112   3.087   0.325   0.449
 2787SOL    HW1 9113   3.152   0.251   0.438
 2787SOL    HW2 9114   3.107   0.375   0.533
 2788SOL     OW 9115   2.456   0.745   0.652
 2788SOL    HW1 9116   2.506   0.830   0.633
 2788SOL    HW2 9117   2.368   0.747   0.604
 2789SOL     OW 9118   3.639   0.342   1.642
 2789SOL    HW1 9119   3.622   0.373   1.548
 2789SOL    HW2 9120   3.555   0.305   1.680
 2790SOL     OW 9121   3.592   0.934   1.517
 2790SOL    HW1 9122   3.630   1.025   1.532
 2790SOL    HW2 9123   3.584   0.917   1.418
 2791SOL     OW 9124   2.721   1.374   0.016
 2791SOL    HW1 9125   2.675   1.389   0.104
 2791SOL    HW2 9126   2.765   1.459  -0.014
 2792SOL     OW 9127   2.523   1.790   0.953
 2792SOL    HW1 9128   2.477   1.878   0.940
 2792SOL    HW2 9129   2.622   1.802   0.946
 2793SOL     OW 9130   2.721   0.956   0.861
 2793SOL    HW1 9131   2.775   0.887   0.909
 2793SOL    HW2 9132   2.689   1.025   0.927
 2794SOL     OW 9133   2.945   0.984   0.087
 2794SOL    HW1 9134   2.922   1.037   0.005
 2794SOL    HW2 9135   3.026   0.928   0.068
 2795SOL     OW 9136   3.723   1.569   0.851
 2795SOL    HW1 9137   3.652   1.557   0.781
 2795SOL    HW2 9138   3.724   1.490   0.911
 2796SOL     OW 9139   2.083   1.314   1.844
 2796SOL    HW1 9140   2.018   1.241   1.823
 2796SOL    HW2 9141   2.087   1.328   1.942
 2797SOL     OW 9142   1.941   1.240   0.653
 2797SOL    HW1 9143   1.940   1.193   0.741
 2797SOL    HW2 9144   2.023   1.212   0.602
 2798SOL     OW 9145   2.534   1.391   1.624
 2798SOL    HW1 9146   2.456   1.341   1.662
 2798SOL    HW2 9147   2.531   1.486   1.655
 2799SOL     OW 9148   3.686   0.192   1.227
 2799SOL    HW1 9149   3.682   0.102   1.271
 2799SOL    HW2 9150   3.689   0.181   1.128
 2800SOL     OW 9151   2.290   0.424   0.520
 2800SOL    HW1 9152   2.320   0.352   0.458
 2800SOL    HW2 9153   2.251   0.384   0.603
 2801SOL     OW 9154   3.567   1.487   1.104
 2801SOL    HW1 9155   3.474   1.462   1.077
 2801SOL    HW2 9156   3.593   1.437   1.186
 2802SOL     OW 9157   2.179   0.547   1.280
 2802SOL    HW1 9158   2.217   0.488   1.352
 2802SOL    HW2 9159   2.219   0.521   1.192
 2803SOL     OW 9160   2.674   1.586   0.687
 2803SOL    HW1 9161   2.706   1.596   0.593
 2803SOL    HW2 9162   2.595   1.524   0.689
 2804SOL     OW 9163   3.286   0.214   1.112
 2804SOL    HW1 9164   3.338   0.149   1.167
 2804SOL    HW2 9165   3.237   0.277   1.173
 2805SOL     OW 9166   2.863   0.034   1.154
 2805SOL    HW1 9167   2.800  -0.038   1.123
 2805SOL    HW2 9168   2.956  -0.002   1.154
 2806SOL     OW 9169   2.632   1.330   0.301
 2806SOL    HW1 9170   2.586   1.243   0.318
 2806SOL    HW2 9171   2.723   1.327   0.342
 2807SOL     OW 9172   2.480   1.567   1.284
 2807SOL    HW1 9173   2.475   1.649   1.341
 2807SOL    HW2 9174   2.569   1.564   1.239
 2808SOL     OW 9175   3.214   0.052   0.168
 2808SOL    HW1 9176   3.249   0.011   0.084
 2808SOL    HW2 9177   3.124   0.014   0.188
 2809SOL     OW 9178   3.162   0.453   0.691
 2809SOL    HW1 9179   3.103   0.533   0.695
 2809SOL    HW2 9180   3.177   0.418   0.784
 2810SOL     OW 9181   3.455   0.221   0.882
 2810SOL    HW1 9182   3.371   0.220   0.936
 2810SOL    HW2 9183   3.457   0.304   0.826
 2811SOL     OW 9184   1.901   1.077   0.300
 2811SOL    HW1 9185   2.000   1.066   0.291
 2811SOL    HW2 9186   1.861   0.991   0.332
 2812SOL     OW 9187   2.737   1.646   0.337
 2812SOL    HW1 9188   2.660   1.611   0.283
 2812SOL    HW2 9189   2.705   1.717   0.399
 2813SOL     OW 9190   2.092   0.628   1.975
 2813SOL    HW1 9191   1.999   0.626   2.012
 2813SOL    HW2 9192   2.093   0.589   1.883
 2814SOL     OW 9193   2.087   0.275   2.858
 2814SOL    HW1 9194   2.122   0.258   2.950
 2814SOL    HW2 9195   1.999   0.230   2.846
 2815SOL     OW 9196   1.881   0.368   2.509
 2815SOL    HW1 9197   1.799   0.411   2.548
 2815SOL    HW2 9198   1.853   0.295   2.446
 2816SOL     OW 9199   2.431   1.275   3.027
 2816SOL    HW1 9200   2.338   1.268   2.990
 2816SOL    HW2 9201   2.442   1.364   3.071
 2817SOL     OW 9202   3.417   1.511   2.565
 2817SOL    HW1 9203   3.360   1.495   2.646
 2817SOL    HW2 9204   3.358   1.521   2.485
 2818SOL     OW 9205   2.997   0.703   2.579
 2818SOL    HW1 9206   3.054   0.781   2.554
 2818SOL    HW2 9207   2.937   0.729   2.655
 2819SOL     OW 9208   3.617   0.607   2.093
 2819SOL    HW1 9209   3.605   0.594   1.994
 2819SOL    HW2 9210   3.587   0.526   2.142
 2820SOL     OW 9211   2.630   1.144   2.885
 2820SOL    HW1 9212   2.552   1.161   2.945
 2820SOL    HW2 9213   2.664   1.231   2.849
 2821SOL     OW 9214   2.712   0.798   3.685
 2821SOL    HW1 9215   2.708   0.874   3.750
 2821SOL    HW2 9216   2.734   0.834   3.594
 2822SOL     OW 9217   2.547   1.012   2.527
 2822SOL    HW1 9218   2.616   0.996   2.597
 2822SOL    HW2 9219   2.474   1.069   2.565
 2823SOL     OW 9220   2.548   1.161   3.665
 2823SOL    HW1 9221   2.608   1.240   3.679
 2823SOL    HW2 9222   2.462   1.192   3.624
 2824SOL     OW 9223   2.197   1.435   2.923
 2824SOL    HW1 9224   2.119   1.404   2.870
 2824SOL    HW2 9225   2.255   1.493   2.866
 2825SOL     OW 9226   3.322   1.505   3.201
 2825SOL    HW1 9227   3.346   1.599   3.227
 2825SOL    HW2 9228   3.306   1.451   3.283
 2826SOL     OW 9229   2.300   0.392   3.361
 2826SOL    HW1 9230   2.382   0.336   3.370
 2826SOL    HW2 9231   2.219   0.334   3.365
 2827SOL     OW 9232   3.465   0.447   2.599
 2827SOL    HW1 9233   3.391   0.493   2.549
 2827SOL    HW2 9234   3.516   0.515   2.652
 2828SOL     OW 9235   2.093   1.713   2.345
 2828SOL    HW1 9236   2.127   1.790   2.399
 2828SOL    HW2 9237   2.137   1.713   2.255
 2829SOL     OW 9238   2.989   1.341   3.552
 2829SOL    HW1 9239   3.036   1.341   3.640
 2829SOL    HW2 9240   2.941   1.254   3.541
 2830SOL     OW 9241   2.092   1.434   2.400
 2830SOL    HW1 9242   2.066   1.530   2.400
 2830SOL    HW2 9243   2.021   1.380   2.445
 2831SOL     OW 9244   2.102   1.091   2.748
 2831SOL    HW1 9245   2.116   1.007   2.800
 2831SOL    HW2 9246   2.047   1.155   2.803
 2832SOL     OW 9247   2.482   1.786   3.301
 2832SOL    HW1 9248   2.390   1.769   3.336
 2832SOL    HW2 9249   2.510   1.878   3.327
 2833SOL     OW 9250   2.468   0.964   1.985
 2833SOL    HW1 9251   2.475   1.048   1.931
 2833SOL    HW2 9252   2.514   0.977   2.073
 2834SOL     OW 9253   3.456   0.114   3.342
 2834SOL    HW1 9254   3.438   0.181   3.270
 2834SOL    HW2 9255   3.453   0.160   3.431
 2835SOL     OW 9256   1.984   0.643   2.425
 2835SOL    HW1 9257   1.939   0.555   2.442
 2835SOL    HW2 9258   1.983   0.697   2.509
 2836SOL     OW 9259   3.704   1.767   2.221
 2836SOL    HW1 9260   3.758   1.738   2.301
 2836SOL    HW2 9261   3.734   1.857   2.192
 2837SOL     OW 9262   1.889   1.596   1.979
 2837SOL    HW1 9263   1.870   1.500   2.000
 2837SOL    HW2 9264   1.856   1.654   2.054
 2838SOL     OW 9265   3.551   0.922   2.474
 2838SOL    HW1 9266   3.646   0.893   2.482
 2838SOL    HW2 9267   3.543   0.987   2.399
 2839SOL     OW 9268   3.503   1.108   2.294
 2839SOL    HW1 9269   3.589   1.110   2.242
 2839SOL    HW2 9270   3.517   1.155   2.382
 2840SOL     OW 9271   1.975   0.737   3.459
 2840SOL    HW1 9272   2.063   0.724   3.504
 2840SOL    HW2 9273   1.962   0.834   3.437
 2841SOL     OW 9274   2.475   1.365   2.588
 2841SOL    HW1 9275   2.426   1.278   2.597
 2841SOL    HW2 9276   2.452   1.408   2.501
 2842SOL     OW 9277   3.155   1.228   3.285
 2842SOL    HW1 9278   3.192   1.155   3.227
 2842SOL    HW2 9279   3.207   1.233   3.370
 2843SOL     OW 9280   2.671   0.004   2.364
 2843SOL    HW1 9281   2.711   0.095   2.355
 2843SOL    HW2 9282   2.571   0.012   2.370
 2844SOL     OW 9283   2.059   0.976   3.126
 2844SOL    HW1 9284   2.148   0.931   3.112
 2844SOL    HW2 9285   1.986   0.911   3.107
 2845SOL     OW 9286   3.387   0.999   2.052
 2845SOL    HW1 9287   3.324   0.923   2.065
 2845SOL    HW2 9288   3.435   1.017   2.138
 2846SOL     OW 9289   2.179   0.251   3.663
 2846SOL    HW1 9290   2.250   0.322   3.669
 2846SOL    HW2 9291   2.091   0.290   3.691
 2847SOL     OW 9292   3.328   1.417   2.815
 2847SOL    HW1 9293   3.269   1.423   2.895
 2847SOL    HW2 9294   3.313   1.329   2.769
 2848SOL     OW 9295   3.529   1.714   2.434
 2848SOL    HW1 9296   3.488   1.691   2.346
 2848SOL    HW2 9297   3.511   1.640   2.499
 2849SOL     OW 9298   2.460   0.729   2.132
 2849SOL    HW1 9299   2.484   0.798   2.064
 2849SOL    HW2 9300   2.382   0.762   2.186
 2850SOL     OW 9301   3.143   0.345   2.806
 2850SOL    HW1 9302   3.057   0.295   2.793
 2850SOL    HW2 9303   3.205   0.291   2.862
 2851SOL     OW 9304   3.438   1.662   2.169
 2851SOL    HW1 9305   3.527   1.708   2.172
 2851SOL    HW2 9306   3.417   1.638   2.074
 2852SOL     OW 9307   2.669   0.605   3.327
 2852SOL    HW1 9308   2.622   0.602   3.416
 2852SOL    HW2 9309   2.618   0.550   3.261
 2853SOL     OW 9310   3.256   0.469   3.536
 2853SOL    HW1 9311   3.236   0.512   3.624
 2853SOL    HW2 9312   3.334   0.407   3.545
 2854SOL     OW 9313   2.835   0.890   3.434
 2854SOL    HW1 9314   2.881   0.806   3.405
 2854SOL    HW2 9315   2.779   0.924   3.359
 2855SOL     OW 9316   2.853   0.410   3.104
 2855SOL    HW1 9317   2.776   0.444   3.158
 2855SOL    HW2 9318   2.819   0.359   3.025
 2856SOL     OW 9319   2.903   0.701   2.291
 2856SOL    HW1 9320   2.929   0.697   2.387
 2856SOL    HW2 9321   2.818   0.650   2.277
 2857SOL     OW 9322   1.938   0.811   2.651
 2857SOL    HW1 9323   2.037   0.799   2.660
 2857SOL    HW2 9324   1.914   0.906   2.672
 2858SOL     OW 9325   1.992   1.821   3.433
 2858SOL    HW1 9326   1.982   1.806   3.532
 2858SOL    HW2 9327   1.906   1.857   3.397
 2859SOL     OW 9328   2.727   0.348   2.057
 2859SOL    HW1 9329   2.786   0.411   2.008
 2859SOL    HW2 9330   2.746   0.254   2.028
 2860SOL     OW 9331   3.581   0.585   3.693
 2860SOL    HW1 9332   3.555   0.674   3.657
 2860SOL    HW2 9333   3.579   0.517   3.620
 2861SOL     OW 9334   3.224   1.144   2.407
 2861SOL    HW1 9335   3.307   1.115   2.359
 2861SOL    HW2 9336   3.175   1.211   2.351
 2862SOL     OW 9337   2.412   0.196   2.747
 2862SOL    HW1 9338   2.407   0.191   2.847
 2862SOL    HW2 9339   2.414   0.292   2.718
 2863SOL     OW 9340   2.870   1.456   2.339
 2863SOL    HW1 9341   2.824   1.528   2.287
 2863SOL    HW2 9342   2.866   1.476   2.437
 2864SOL     OW 9343   2.213   1.801   2.715
 2864SOL    HW1 9344   2.263   1.715   2.721
 2864SOL    HW2 9345   2.278   1.878   2.712
 2865SOL     OW 9346   3.657   1.066   2.735
 2865SOL    HW1 9347   3.595   1.051   2.659
 2865SOL    HW2 9348   3.605   1.077   2.820
 2866SOL     OW 9349   3.089   1.550   3.368
 2866SOL    HW1 9350   3.095   1.473   3.432
 2866SOL    HW2 9351   3.037   1.524   3.288
 2867SOL     OW 9352   2.183   0.943   2.104
 2867SOL    HW1 9353   2.265   0.982   2.062
 2867SOL    HW2 9354   2.156   0.861   2.055
 2868SOL     OW 9355   3.320   0.735   2.590
 2868SOL    HW1 9356   3.315   0.670   2.665
 2868SOL    HW2 9357   3.400   0.794   2.603
 2869SOL     OW 9358   2.323   1.266   3.589
 2869SOL    HW1 9359   2.273   1.267   3.503
 2869SOL    HW2 9360   2.260   1.248   3.665
 2870SOL     OW 9361   2.973   1.776   2.099
 2870SOL    HW1 9362   2.913   1.714   2.149
 2870SOL    HW2 9363   3.004   1.732   2.014
 2871SOL     OW 9364   2.064   0.285   3.360
 2871SOL    HW1 9365   1.984   0.345   3.347
 2871SOL    HW2 9366   2.054   0.236   3.446
 2872SOL     OW 9367   3.494   1.377   1.943
 2872SOL    HW1 9368   3.462   1.471   1.933
 2872SOL    HW2 9369   3.418   1.314   1.931
 2873SOL     OW 9370   2.326   1.743   2.185
 2873SOL    HW1 9371   2.359   1.782   2.271
 2873SOL    HW2 9372   2.402   1.736   2.120
 2874SOL     OW 9373   3.262   0.107   2.288
 2874SOL    HW1 9374   3.238   0.070   2.198
 2874SOL    HW2 9375   3.361   0.123   2.292
 2875SOL     OW 9376   2.111   1.785   3.103
 2875SOL    HW1 9377   2.168   1.720   3.153
 2875SOL    HW2 9378   2.095   1.752   3.010
 2876SOL     OW 9379   2.802   1.698   2.766
 2876SOL    HW1 9380   2.882   1.641   2.787
 2876SOL    HW2 9381   2.753   1.658   2.689
 2877SOL     OW 9382   2.244   0.700   2.342
 2877SOL    HW1 9383   2.289   0.610   2.339
 2877SOL    HW2 9384   2.150   0.689   2.375
 2878SOL     OW 9385   3.409   0.222   3.591
 2878SOL    HW1 9386   3.404   0.259   3.683
 2878SOL    HW2 9387   3.337   0.153   3.579
 2879SOL     OW 9388   2.476   0.122   1.979
 2879SOL    HW1 9389   2.574   0.100   1.986
 2879SOL    HW2 9390   2.445   0.105   1.886
 2880SOL     OW 9391   2.643   0.264   3.611
 2880SOL    HW1 9392   2.710   0.203   3.654
 2880SOL    HW2 9393   2.570   0.283   3.676
 2881SOL     OW 9394   2.750   1.514   3.057
 2881SOL    HW1 9395   2.727   1.489   2.963
 2881SOL    HW2 9396   2.811   1.445   3.096
 2882SOL     OW 9397   3.213   0.590   3.295
 2882SOL    HW1 9398   3.241   0.547   3.380
 2882SOL    HW2 9399   3.238   0.686   3.296
 2883SOL     OW 9400   2.665   1.402   2.786
 2883SOL    HW1 9401   2.755   1.416   2.744
 2883SOL    HW2 9402   2.594   1.404   2.715
 2884SOL     OW 9403   2.784   0.503   2.761
 2884SOL    HW1 9404   2.759   0.494   2.665
 2884SOL    HW2 9405   2.832   0.421   2.792
 2885SOL     OW 9406   2.401   0.064   2.374
 2885SOL    HW1 9407   2.320   0.065   2.432
 2885SOL    HW2 9408   2.404   0.147   2.319
 2886SOL     OW 9409   3.296   1.188   1.903
 2886SOL    HW1 9410   3.328   1.112   1.960
 2886SOL    HW2 9411   3.204   1.215   1.933
 2887SOL     OW 9412   2.159   0.035   2.033
 2887SOL    HW1 9413   2.208   0.119   2.012
 2887SOL    HW2 9414   2.221  -0.030   2.078
 2888SOL     OW 9415   2.797   0.236   2.342
 2888SOL    HW1 9416   2.749   0.277   2.264
 2888SOL    HW2 9417   2.896   0.234   2.323
 2889SOL     OW 9418   2.938   0.683   3.326
 2889SOL    HW1 9419   2.858   0.622   3.329
 2889SOL    HW2 9420   3.019   0.630   3.302
 2890SOL     OW 9421   3.089   1.570   2.655
 2890SOL    HW1 9422   3.110   1.644   2.590
 2890SOL    HW2 9423   3.157   1.570   2.728
 2891SOL     OW 9424   2.321   1.152   2.603
 2891SOL    HW1 9425   2.250   1.125   2.668
 2891SOL    HW2 9426   2.295   1.124   2.510
 2892SOL     OW 9427   3.133   1.797   2.453
 2892SOL    HW1 9428   3.177   1.861   2.389
 2892SOL    HW2 9429   3.083   1.849   2.523
 2893SOL     OW 9430   2.894   0.549   1.878
 2893SOL    HW1 9431   2.853   0.631   1.839
 2893SOL    HW2 9432   2.958   0.575   1.951
 2894SOL     OW 9433   1.940   0.556   3.248
 2894SOL    HW1 9434   2.032   0.555   3.207
 2894SOL    HW2 9435   1.934   0.630   3.315
 2895SOL     OW 9436   2.423   0.222   3.009
 2895SOL    HW1 9437   2.461   0.138   3.046
 2895SOL    HW2 9438   2.335   0.241   3.053
 2896SOL     OW 9439   2.728   0.454   2.504
 2896SOL    HW1 9440   2.696   0.526   2.442
 2896SOL    HW2 9441   2.752   0.373   2.451
 2897SOL     OW 9442   2.879   0.039   2.615
 2897SOL    HW1 9443   2.807   0.044   2.546
 2897SOL    HW2 9444   2.855  -0.030   2.684
 2898SOL     OW 9445   3.291   1.173   2.729
 2898SOL    HW1 9446   3.236   1.089   2.722
 2898SOL    HW2 9447   3.317   1.202   2.637
 2899SOL     OW 9448   3.328   0.590   2.854
 2899SOL    HW1 9449   3.298   0.495   2.861
 2899SOL    HW2 9450   3.401   0.606   2.920
 2900SOL     OW 9451   3.719   0.833   2.239
 2900SOL    HW1 9452   3.761   0.769   2.303
 2900SOL    HW2 9453   3.681   0.782   2.161
 2901SOL     OW 9454   2.350   1.385   2.036
 2901SOL    HW1 9455   2.263   1.370   2.083
 2901SOL    HW2 9456   2.333   1.411   1.941
 2902SOL     OW 9457   3.526   1.280   2.519
 2902SOL    HW1 9458   3.625   1.288   2.533
 2902SOL    HW2 9459   3.481   1.364   2.550
 2903SOL     OW 9460   3.252   0.575   1.940
 2903SOL    HW1 9461   3.198   0.554   2.021
 2903SOL    HW2 9462   3.343   0.534   1.949
 2904SOL     OW 9463   2.389   0.256   2.190
 2904SOL    HW1 9464   2.416   0.197   2.115
 2904SOL    HW2 9465   2.389   0.351   2.159
 2905SOL     OW 9466   3.616   1.223   3.450
 2905SOL    HW1 9467   3.707   1.184   3.437
 2905SOL    HW2 9468   3.624   1.319   3.474
 2906SOL     OW 9469   2.926   1.347   3.202
 2906SOL    HW1 9470   2.846   1.324   3.257
 2906SOL    HW2 9471   3.009   1.321   3.251
 2907SOL     OW 9472   3.454   1.629   3.487
 2907SOL    HW1 9473   3.481   1.663   3.397
 2907SOL    HW2 9474   3.533   1.591   3.533
 2908SOL     OW 9475   2.973   1.195   2.962
 2908SOL    HW1 9476   2.933   1.239   3.043
 2908SOL    HW2 9477   2.932   1.232   2.879
 2909SOL     OW 9478   3.500   1.099   2.941
 2909SOL    HW1 9479   3.505   1.180   3.000
 2909SOL    HW2 9480   3.414   1.101   2.890
 2910SOL     OW 9481   2.777   0.089   3.264
 2910SOL    HW1 9482   2.802   0.069   3.169
 2910SOL    HW2 9483   2.849   0.145   3.306
 2911SOL     OW 9484   2.842   1.116   3.581
 2911SOL    HW1 9485   2.743   1.122   3.591
 2911SOL    HW2 9486   2.865   1.036   3.525
 2912SOL     OW 9487   2.567   1.050   2.230
 2912SOL    HW1 9488   2.553   1.057   2.329
 2912SOL    HW2 9489   2.651   0.999   2.212
 2913SOL     OW 9490   2.272   0.813   3.113
 2913SOL    HW1 9491   2.358   0.825   3.163
 2913SOL    HW2 9492   2.230   0.726   3.140
 2914SOL     OW 9493   3.136   0.386   3.124
 2914SOL    HW1 9494   3.157   0.460   3.188
 2914SOL    HW2 9495   3.047   0.403   3.081
 2915SOL     OW 9496   1.926   1.564   3.193
 2915SOL    HW1 9497   1.880   1.646   3.159
 2915SOL    HW2 9498   2.024   1.583   3.202
 2916SOL     OW 9499   2.229   1.100   2.363
 2916SOL    HW1 9500   2.222   1.183   2.307
 2916SOL    HW2 9501   2.233   1.020   2.303
 2917SOL     OW 9502   2.428   0.537   2.727
 2917SOL    HW1 9503   2.440   0.603   2.653
 2917SOL    HW2 9504   2.474   0.571   2.810
 2918SOL     OW 9505   3.114   1.348   2.250
 2918SOL    HW1 9506   3.164   1.425   2.290
 2918SOL    HW2 9507   3.019   1.350   2.282
 2919SOL     OW 9508   3.134   1.445   3.004
 2919SOL    HW1 9509   3.181   1.458   3.091
 2919SOL    HW2 9510   3.068   1.371   3.013
 2920SOL     OW 9511   3.444   0.639   2.334
 2920SOL    HW1 9512   3.413   0.700   2.407
 2920SOL    HW2 9513   3.494   0.691   2.265
 2921SOL     OW 9514   2.216   1.510   3.191
 2921SOL    HW1 9515   2.195   1.466   3.104
 2921SOL    HW2 9516   2.313   1.536   3.194
 2922SOL     OW 9517   2.264   0.751   3.460
 2922SOL    HW1 9518   2.332   0.806   3.413
 2922SOL    HW2 9519   2.304   0.663   3.487
 2923SOL     OW 9520   3.449   0.779   3.532
 2923SOL    HW1 9521   3.357   0.817   3.527
 2923SOL    HW2 9522   3.509   0.826   3.467
 2924SOL     OW 9523   2.875   0.105   3.632
 2924SOL    HW1 9524   2.881   0.190   3.580
 2924SOL    HW2 9525   2.907   0.029   3.575
 2925SOL     OW 9526   2.366   0.050   3.602
 2925SOL    HW1 9527   2.324  -0.007   3.532
 2925SOL    HW2 9528   2.300   0.119   3.634
 2926SOL     OW 9529   2.435   0.870   2.891
 2926SOL    HW1 9530   2.479   0.959   2.882
 2926SOL    HW2 9531   2.372   0.870   2.968
 2927SOL     OW 9532   3.222   0.862   2.907
 2927SOL    HW1 9533   3.147   0.862   2.841
 2927SOL    HW2 9534   3.259   0.770   2.916
 2928SOL     OW 9535   3.071   0.525   2.137
 2928SOL    HW1 9536   3.084   0.441   2.191
 2928SOL    HW2 9537   3.042   0.599   2.197
 2929SOL     OW 9538   2.169   0.213   3.093
 2929SOL    HW1 9539   2.146   0.250   3.183
 2929SOL    HW2 9540   2.139   0.118   3.087
 2930SOL     OW 9541   1.899   1.310   3.144
 2930SOL    HW1 9542   1.952   1.261   3.212
 2930SOL    HW2 9543   1.921   1.408   3.149
 2931SOL     OW 9544   2.594   0.634   2.926
 2931SOL    HW1 9545   2.653   0.608   2.850
 2931SOL    HW2 9546   2.566   0.730   2.915
 2932SOL     OW 9547   3.590   0.935   3.716
 2932SOL    HW1 9548   3.544   0.928   3.627
 2932SOL    HW2 9549   3.528   0.979   3.782
 2933SOL     OW 9550   2.169   0.063   2.480
 2933SOL    HW1 9551   2.158   0.157   2.513
 2933SOL    HW2 9552   2.164   0.000   2.557
 2934SOL     OW 9553   3.484   0.367   2.236
 2934SOL    HW1 9554   3.486   0.291   2.300
 2934SOL    HW2 9555   3.436   0.444   2.276
 2935SOL     OW 9556   2.885   0.766   2.828
 2935SOL    HW1 9557   2.900   0.787   2.924
 2935SOL    HW2 9558   2.855   0.671   2.819
 2936SOL     OW 9559   2.842   1.573   3.562
 2936SOL    HW1 9560   2.822   1.617   3.474
 2936SOL    HW2 9561   2.881   1.482   3.546
 2937SOL     OW 9562   3.721   1.518   3.467
 2937SOL    HW1 9563   3.735   1.545   3.372
 2937SOL    HW2 9564   3.804   1.540   3.520
 2938SOL     OW 9565   2.212   0.898   3.666
 2938SOL    HW1 9566   2.288   0.942   3.714
 2938SOL    HW2 9567   2.247   0.851   3.584
 2939SOL     OW 9568   3.402   0.274   1.987
 2939SOL    HW1 9569   3.341   0.199   2.010
 2939SOL    HW2 9570   3.424   0.326   2.070
 2940SOL     OW 9571   3.165   0.838   1.904
 2940SOL    HW1 9572   3.199   0.745   1.919
 2940SOL    HW2 9573   3.183   0.865   1.809
 2941SOL     OW 9574   2.930   1.333   2.711
 2941SOL    HW1 9575   2.937   1.249   2.656
 2941SOL    HW2 9576   2.992   1.402   2.675
 2942SOL     OW 9577   2.181   0.810   2.811
 2942SOL    HW1 9578   2.274   0.846   2.816
 2942SOL    HW2 9579   2.175   0.725   2.863
 2943SOL     OW 9580   2.201   0.509   2.868
 2943SOL    HW1 9581   2.149   0.426   2.851
 2943SOL    HW2 9582   2.278   0.514   2.804
 2944SOL     OW 9583   3.000   0.380   3.540
 2944SOL    HW1 9584   2.955   0.443   3.604
 2944SOL    HW2 9585   3.093   0.411   3.523
 2945SOL     OW 9586   3.022   0.207   3.339
 2945SOL    HW1 9587   3.022   0.271   3.416
 2945SOL    HW2 9588   3.050   0.255   3.256
 2946SOL     OW 9589   1.870   1.326   2.062
 2946SOL    HW1 9590   1.777   1.347   2.031
 2946SOL    HW2 9591   1.880   1.227   2.075
 2947SOL     OW 9592   1.950   1.801   2.789
 2947SOL    HW1 9593   1.908   1.715   2.762
 2947SOL    HW2 9594   2.044   1.804   2.755
 2948SOL     OW 9595   2.366   1.568   2.772
 2948SOL    HW1 9596   2.432   1.642   2.781
 2948SOL    HW2 9597   2.410   1.489   2.730
 2949SOL     OW 9598   2.864   0.796   3.100
 2949SOL    HW1 9599   2.905   0.764   3.186
 2949SOL    HW2 9600   2.768   0.769   3.097
 2950SOL     OW 9601   1.902   0.544   2.976
 2950SOL    HW1 9602   1.987   0.511   2.935
 2950SOL    HW2 9603   1.915   0.559   3.074
 2951SOL     OW 9604   2.051   0.520   3.584
 2951SOL    HW1 9605   2.110   0.480   3.514
 2951SOL    HW2 9606   1.993   0.591   3.543
 2952SOL     OW 9607   3.231   0.950   3.522
 2952SOL    HW1 9608   3.270   1.039   3.542
 2952SOL    HW2 9609   3.241   0.930   3.425
 2953SOL     OW 9610   2.677   0.572   2.187
 2953SOL    HW1 9611   2.684   0.483   2.141
 2953SOL    HW2 9612   2.583   0.606   2.179
 2954SOL     OW 9613   3.519   0.604   3.068
 2954SOL    HW1 9614   3.481   0.535   3.130
 2954SOL    HW2 9615   3.601   0.568   3.024
 2955SOL     OW 9616   2.114   1.564   3.606
 2955SOL    HW1 9617   2.084   1.621   3.682
 2955SOL    HW2 9618   2.107   1.467   3.632
 2956SOL     OW 9619   2.533   0.464   3.131
 2956SOL    HW1 9620   2.499   0.375   3.101
 2956SOL    HW2 9621   2.559   0.518   3.051
 2957SOL     OW 9622   2.792   1.678   3.327
 2957SOL    HW1 9623   2.768   1.660   3.232
 2957SOL    HW2 9624   2.822   1.772   3.337
 2958SOL     OW 9625   2.335   0.500   2.053
 2958SOL    HW1 9626   2.396   0.580   2.057
 2958SOL    HW2 9627   2.240   0.531   2.060
 2959SOL     OW 9628   2.021   1.137   3.328
 2959SOL    HW1 9629   2.043   1.076   3.404
 2959SOL    HW2 9630   2.031   1.088   3.242
 2960SOL     OW 9631   3.209   1.059   3.096
 2960SOL    HW1 9632   3.233   0.996   3.022
 2960SOL    HW2 9633   3.119   1.099   3.078
 2961SOL     OW 9634   3.164   0.855   2.171
 2961SOL    HW1 9635   3.078   0.824   2.213
 2961SOL    HW2 9636   3.160   0.841   2.072
 2962SOL     OW 9637   3.621   1.747   3.016
 2962SOL    HW1 9638   3.682   1.777   2.943
 2962SOL    HW2 9639   3.583   1.658   2.994
 2963SOL     OW 9640   3.114   1.731   2.990
 2963SOL    HW1 9641   3.198   1.736   2.936
 2963SOL    HW2 9642   3.091   1.635   3.008
 2964SOL     OW 9643   1.945   1.258   2.884
 2964SOL    HW1 9644   1.940   1.257   2.984
 2964SOL    HW2 9645   1.862   1.217   2.846
 2965SOL     OW 9646   2.550   1.662   3.578
 2965SOL    HW1 9647   2.494   1.743   3.587
 2965SOL    HW2 9648   2.602   1.666   3.492
 2966SOL     OW 9649   3.588   0.135   2.385
 2966SOL    HW1 9650   3.661   0.118   2.318
 2966SOL    HW2 9651   3.557   0.048   2.423
 2967SOL     OW 9652   3.250   1.573   2.339
 2967SOL    HW1 9653   3.317   1.585   2.265
 2967SOL    HW2 9654   3.210   1.662   2.362
 2968SOL     OW 9655   1.992   1.794   3.713
 2968SOL    HW1 9656   1.951   1.720   3.766
 2968SOL    HW2 9657   2.056   1.845   3.771
 2969SOL     OW 9658   3.142   0.927   2.534
 2969SOL    HW1 9659   3.202   0.846   2.536
 2969SOL    HW2 9660   3.182   0.996   2.474
 2970SOL     OW 9661   2.692   1.273   3.284
 2970SOL    HW1 9662   2.687   1.306   3.379
 2970SOL    HW2 9663   2.606   1.292   3.238
 2971SOL     OW 9664   2.534   1.616   2.016
 2971SOL    HW1 9665   2.543   1.626   1.917
 2971SOL    HW2 9666   2.494   1.527   2.037
 2972SOL     OW 9667   3.512   1.720   3.256
 2972SOL    HW1 9668   3.565   1.730   3.172
 2972SOL    HW2 9669   3.485   1.810   3.290
 2973SOL     OW 9670   3.703   0.175   2.825
 2973SOL    HW1 9671   3.742   0.090   2.789
 2973SOL    HW2 9672   3.605   0.177   2.806
 2974SOL     OW 9673   2.125   0.326   2.582
 2974SOL    HW1 9674   2.046   0.377   2.548
 2974SOL    HW2 9675   2.116   0.311   2.680
 2975SOL     OW 9676   3.056   1.612   1.893
 2975SOL    HW1 9677   3.062   1.519   1.930
 2975SOL    HW2 9678   2.997   1.612   1.813
 2976SOL     OW 9679   2.684   1.002   3.234
 2976SOL    HW1 9680   2.724   1.001   3.142
 2976SOL    HW2 9681   2.694   1.094   3.274
 2977SOL     OW 9682   2.778   0.910   2.153
 2977SOL    HW1 9683   2.841   0.948   2.085
 2977SOL    HW2 9684   2.818   0.827   2.192
 2978SOL     OW 9685   3.366   1.607   1.906
 2978SOL    HW1 9686   3.274   1.644   1.913
 2978SOL    HW2 9687   3.404   1.627   1.816
 2979SOL     OW 9688   2.234   1.288   3.352
 2979SOL    HW1 9689   2.221   1.381   3.318
 2979SOL    HW2 9690   2.150   1.236   3.339
 2980SOL     OW 9691   3.476   1.292   3.151
 2980SOL    HW1 9692   3.536   1.295   3.231
 2980SOL    HW2 9693   3.401   1.356   3.164
 2981SOL     OW 9694   2.901   1.098   2.558
 2981SOL    HW1 9695   2.831   1.051   2.612
 2981SOL    HW2 9696   2.960   1.030   2.515
 2982SOL     OW 9697   2.876   0.236   2.833
 2982SOL    HW1 9698   2.868   0.200   2.740
 2982SOL    HW2 9699   2.874   0.160   2.898
 2983SOL     OW 9700   2.452   1.487   2.353
 2983SOL    HW1 9701   2.494   1.429   2.283
 2983SOL    HW2 9702   2.408   1.566   2.309
 2984SOL     OW 9703   3.571   0.385   3.243
 2984SOL    HW1 9704   3.644   0.454   3.247
 2984SOL    HW2 9705   3.599   0.310   3.184
 2985SOL     OW 9706   2.117   1.348   2.152
 2985SOL    HW1 9707   2.021   1.349   2.125
 2985SOL    HW2 9708   2.129   1.401   2.236
 2986SOL     OW 9709   1.967   1.013   3.588
 2986SOL    HW1 9710   1.890   0.980   3.642
 2986SOL    HW2 9711   2.052   0.983   3.630
 2987SOL     OW 9712   2.534   0.203   3.351
 2987SOL    HW1 9713   2.624   0.187   3.311
 2987SOL    HW2 9714   2.542   0.208   3.450
 2988SOL     OW 9715   1.937   0.345   1.895
 2988SOL    HW1 9716   1.845   0.317   1.866
 2988SOL    HW2 9717   1.968   0.422   1.839
 2989SOL     OW 9718   3.302   0.856   3.260
 2989SOL    HW1 9719   3.245   0.908   3.197
 2989SOL    HW2 9720   3.398   0.868   3.236
 2990SOL     OW 9721   1.934   0.166   2.180
 2990SOL    HW1 9722   1.917   0.249   2.126
 2990SOL    HW2 9723   2.024   0.129   2.158
 2991SOL     OW 9724   3.045   1.335   1.981
 2991SOL    HW1 9725   2.946   1.324   1.983
 2991SOL    HW2 9726   3.079   1.350   2.074
 2992SOL     OW 9727   2.475   0.842   3.293
 2992SOL    HW1 9728   2.531   0.923   3.276
 2992SOL    HW2 9729   2.534   0.762   3.296
 2993SOL     OW 9730   3.355   1.767   2.821
 2993SOL    HW1 9731   3.388   1.831   2.752
 2993SOL    HW2 9732   3.421   1.761   2.896
 2994SOL     OW 9733   2.578   0.565   3.570
 2994SOL    HW1 9734   2.597   0.630   3.644
 2994SOL    HW2 9735   2.638   0.485   3.579
 2995SOL     OW 9736   3.312   1.220   3.495
 2995SOL    HW1 9737   3.303   1.210   3.594
 2995SOL    HW2 9738   3.408   1.213   3.469
 2996SOL     OW 9739   2.252   1.741   3.422
 2996SOL    HW1 9740   2.161   1.782   3.420
 2996SOL    HW2 9741   2.245   1.647   3.454
 2997SOL     OW 9742   3.536   0.883   3.116
 2997SOL    HW1 9743   3.509   0.794   3.079
 2997SOL    HW2 9744   3.537   0.951   3.043
 2998SOL     OW 9745   3.087   0.325   2.311
 2998SOL    HW1 9746   3.152   0.251   2.300
 2998SOL    HW2 9747   3.107   0.375   2.395
 2999SOL     OW 9748   2.456   0.745   2.514
 2999SOL    HW1 9749   2.506   0.830   2.495
 2999SOL    HW2 9750   2.368   0.747   2.466
 3000SOL     OW 9751   3.639   0.342   3.504
 3000SOL    HW1 9752   3.622   0.373   3.410
 3000SOL    HW2 9753   3.555   0.305   3.542
 3001SOL     OW 9754   3.592   0.934   3.379
 3001SOL    HW1 9755   3.630   1.025   3.394
 3001SOL    HW2 9756   3.584   0.917   3.280
 3002SOL     OW 9757   2.721   1.374   1.878
 3002SOL    HW1 9758   2.675   1.389   1.966
 3002SOL    HW2 9759   2.765   1.459   1.848
 3003SOL     OW 9760   2.523   1.790   2.815
 3003SOL    HW1 9761   2.477   1.878   2.802
 3003SOL    HW2 9762   2.622   1.802   2.808
 3004SOL     OW 9763   2.721   0.956   2.723
 3004SOL    HW1 9764   2.775   0.887   2.771
 3004SOL    HW2 9765   2.689   1.025   2.789
 3005SOL     OW 9766   2.945   0.984   1.949
 3005SOL    HW1 9767   2.922   1.037   1.867
 3005SOL    HW2 9768   3.026   0.928   1.930
 3006SOL     OW 9769   3.723   1.569   2.713
 3006SOL    HW1 9770   3.652   1.557   2.643
 3006SOL    HW2 9771   3.724   1.490   2.773
 3007SOL     OW 9772   2.083   1.314   3.706
 3007SOL    HW1 9773   2.018   1.241   3.685
 3007SOL    HW2 9774   2.087   1.328   3.804
 3008SOL     OW 9775   1.941   1.240   2.515
 3008SOL    HW1 9776   1.940   1.193   2.603
 3008SOL    HW2 9777   2.023   1.212   2.464
 3009SOL     OW 9778   2.534   1.391   3.486
 3009SOL    HW1 9779   2.456   1.341   3.524
 3009SOL    HW2 9780   2.531   1.486   3.517
 3010SOL     OW 9781   3.686   0.192   3.089
 3010SOL    HW1 9782   3.682   0.102   3.133
 3010SOL    HW2 9783   3.689   0.181   2.990
 3011SOL     OW 9784   2.290   0.424   2.382
 3011SOL    HW1 9785   2.320   0.352   2.320
 3011SOL    HW2 9786   2.251   0.384   2.465
 3012SOL     OW 9787   3.567   1.487   2.966
 3012SOL    HW1 9788   3.474   1.462   2.939
 3012SOL    HW2 9789   3.593   1.437   3.048
 3013SOL     OW 9790   2.179   0.547   3.142
 3013SOL    HW1 9791   2.217   0.488   3.214
 3013SOL    HW2 9792   2.219   0.521   3.054
 3014SOL     OW 9793   2.674   1.586   2.549
 3014SOL    HW1 9794   2.706   1.596   2.455
 3014SOL    HW2 9795   2.595   1.524   2.551
 3015SOL     OW 9796   3.286   0.214   2.974
 3015SOL    HW1 9797   3.338   0.149   3.029
 3015SOL    HW2 9798   3.237   0.277   3.035
 3016SOL     OW 9799   2.863   0.034   3.016
 3016SOL    HW1 9800   2.800  -0.038   2.985
 3016SOL    HW2 9801   2.956  -0.002   3.016
 3017SOL     OW 9802   2.632   1.330   2.163
 3017SOL    HW1 9803   2.586   1.243   2.180
 3017SOL    HW2 9804   2.723   1.327   2.204
 3018SOL     OW 9805   2.480   1.567   3.146
 3018SOL    HW1 9806   2.475   1.649   3.203
 3018SOL    HW2 9807   2.569   1.564   3.101
 3019SOL     OW 9808   3.214   0.052   2.030
 3019SOL    HW1 9809   3.249   0.011   1.946
 3019SOL    HW2 9810   3.124   0.014   2.050
 3020SOL     OW 9811   3.162   0.453   2.553
 3020SOL    HW1 9812   3.103   0.533   2.557
 3020SOL    HW2 9813   3.177   0.418   2.646
 3021SOL     OW 9814   3.455   0.221   2.744
 3021SOL    HW1 9815   3.371   0.220   2.798
 3021SOL    HW2 9816   3.457   0.304   2.688
 3022SOL     OW 9817   1.901   1.077   2.162
 3022SOL    HW1 9818   2.000   1.066   2.153
 3022SOL    HW2 9819   1.861   0.991   2.194
 3023SOL     OW 9820   2.737   1.646   2.199
 3023SOL    HW1 9821   2.660   1.611   2.145
 3023SOL    HW2 9822   2.705   1.717   2.261
 3024SOL     OW 9823   2.092   0.628   3.837
 3024SOL    HW1 9824   1.999   0.626   3.874
 3024SOL    HW2 9825   2.093   0.589   3.745
 3025SOL     OW 9826   2.087   0.275   4.720
 3025SOL    HW1 9827   2.122   0.258   4.812
 3025SOL    HW2 9828   1.999   0.230   4.708
 3026SOL     OW 9829   1.881   0.368   4.371
 3026SOL    HW1 9830   1.799   0.411   4.410
 3026SOL    HW2 9831   1.853   0.295   4.308
 3027SOL     OW 9832   2.431   1.275   4.889
 3027SOL    HW1 9833   2.338   1.268   4.852
 3027SOL    HW2 9834   2.442   1.364   4.933
 3028SOL     OW 9835   3.417   1.511   4.427
 3028SOL    HW1 9836   3.360   1.495   4.508
 3028SOL    HW2 9837   3.358   1.521   4.347
 3029SOL     OW 9838   2.997   0.703   4.441
 3029SOL    HW1 9839   3.054   0.781   4.416
 3029SOL    HW2 9840   2.937   0.729   4.517
 3030SOL     OW 9841   3.617   0.607   3.955
 3030SOL    HW1 9842   3.605   0.594   3.856
 3030SOL    HW2 9843   3.587   0.526   4.004
 3031SOL     OW 9844   2.630   1.144   4.747
 3031SOL    HW1 9845   2.552   1.161   4.807
 3031SOL    HW2 9846   2.664   1.231   4.711
 3032SOL     OW 9847   2.712   0.798   5.547
 3032SOL    HW1 9848   2.708   0.874   5.612
 3032SOL    HW2 9849   2.734   0.834   5.456
 3033SOL     OW 9850   2.547   1.012   4.389
 3033SOL    HW1 9851   2.616   0.996   4.459
 3033SOL    HW2 9852   2.474   1.069   4.427
 3034SOL     OW 9853   2.548   1.161   5.527
 3034SOL    HW1 9854   2.608   1.240   5.541
 3034SOL    HW2 9855   2.462   1.192   5.486
 3035SOL     OW 9856   2.197   1.435   4.785
 3035SOL    HW1 9857   2.119   1.404   4.732
 3035SOL    HW2 9858   2.255   1.493   4.728
 3036SOL     OW 9859   3.322   1.505   5.063
 3036SOL    HW1 9860   3.346   1.599   5.089
 3036SOL    HW2 9861   3.306   1.451   5.145
 3037SOL     OW 9862   2.300   0.392   5.223
 3037SOL    HW1 9863   2.382   0.336   5.232
 3037SOL    HW2 9864   2.219   0.334   5.227
 3038SOL     OW 9865   3.465   0.447   4.461
 3038SOL    HW1 9866   3.391   0.493   4.411
 3038SOL    HW2 9867   3.516   0.515   4.514
 3039SOL     OW 9868   2.093   1.713   4.207
 3039SOL    HW1 9869   2.127   1.790   4.261
 3039SOL    HW2 9870   2.137   1.713   4.117
 3040SOL     OW 9871   2.989   1.341   5.414
 3040SOL    HW1 9872   3.036   1.341   5.502
 3040SOL    HW2 9873   2.941   1.254   5.403
 3041SOL     OW 9874   2.092   1.434   4.262
 3041SOL    HW1 9875   2.066   1.530   4.262
 3041SOL    HW2 9876   2.021   1.380   4.307
 3042SOL     OW 9877   2.102   1.091   4.610
 3042SOL    HW1 9878   2.116   1.007   4.662
 3042SOL    HW2 9879   2.047   1.155   4.665
 3043SOL     OW 9880   2.482   1.786   5.163
 3043SOL    HW1 9881   2.390   1.769   5.198
 3043SOL    HW2 9882   2.510   1.878   5.189
 3044SOL     OW 9883   2.468   0.964   3.847
 3044SOL    HW1 9884   2.475   1.048   3.793
 3044SOL    HW2 9885   2.514   0.977   3.935
 3045SOL     OW 9886   3.456   0.114   5.204
 3045SOL    HW1 9887   3.438   0.181   5.132
 3045SOL    HW2 9888   3.453   0.160   5.293
 3046SOL     OW 9889   1.984   0.643   4.287
 3046SOL    HW1 9890   1.939   0.555   4.304
 3046SOL    HW2 9891   1.983   0.697   4.371
 3047SOL     OW 9892   3.704   1.767   4.083
 3047SOL    HW1 9893   3.758   1.738   4.163
 3047SOL    HW2 9894   3.734   1.857   4.054
 3048SOL     OW 9895   1.889   1.596   3.841
 3048SOL    HW1 9896   1.870   1.500   3.862
 3048SOL    HW2 9897   1.856   1.654   3.916
 3049SOL     OW 9898   3.551   0.922   4.336
 3049SOL    HW1 9899   3.646   0.893   4.344
 3049SOL    HW2 9900   3.543   0.987   4.261
 3050SOL     OW 9901   3.503   1.108   4.156
 3050SOL    HW1 9902   3.589   1.110   4.104
 3050SOL    HW2 9903   3.517   1.155   4.244
 3051SOL     OW 9904   1.975   0.737   5.321
 3051SOL    HW1 9905   2.063   0.724   5.366
 3051SOL    HW2 9906   1.962   0.834   5.299
 3052SOL     OW 9907   2.475   1.365   4.450
 3052SOL    HW1 9908   2.426   1.278   4.459
 3052SOL    HW2 9909   2.452   1.408   4.363
 3053SOL     OW 9910   3.155   1.228   5.147
 3053SOL    HW1 9911   3.192   1.155   5.089
 3053SOL    HW2 9912   3.207   1.233   5.232
 3054SOL     OW 9913   2.671   0.004   4.226
 3054SOL    HW1 9914   2.711   0.095   4.217
 3054SOL    HW2 9915   2.571   0.012   4.232
 3055SOL     OW 9916   2.059   0.976   4.988
 3055SOL    HW1 9917   2.148   0.931   4.974
 3055SOL    HW2 9918   1.986   0.911   4.969
 3056SOL     OW 9919   3.387   0.999   3.914
 3056SOL    HW1 9920   3.324   0.923   3.927
 3056SOL    HW2 9921   3.435   1.017   4.000
 3057SOL     OW 9922   3.049   1.792   5.340
 3057SOL    HW1 9923   3.073   1.852   5.264
 3057SOL    HW2 9924   3.056   1.697   5.310
 3058SOL     OW 9925   2.179   0.251   5.525
 3058SOL    HW1 9926   2.250   0.322   5.531
 3058SOL    HW2 9927   2.091   0.290   5.553
 3059SOL     OW 9928   3.328   1.417   4.677
 3059SOL    HW1 9929   3.269   1.423   4.757
 3059SOL    HW2 9930   3.313   1.329   4.631
 3060SOL     OW 9931   3.529   1.714   4.296
 3060SOL    HW1 9932   3.488   1.691   4.208
 3060SOL    HW2 9933   3.511   1.640   4.361
 3061SOL     OW 9934   2.460   0.729   3.994
 3061SOL    HW1 9935   2.484   0.798   3.926
 3061SOL    HW2 9936   2.382   0.762   4.048
 3062SOL     OW 9937   3.143   0.345   4.668
 3062SOL    HW1 9938   3.057   0.295   4.655
 3062SOL    HW2 9939   3.205   0.291   4.724
 3063SOL     OW 9940   3.438   1.662   4.031
 3063SOL    HW1 9941   3.527   1.708   4.034
 3063SOL    HW2 9942   3.417   1.638   3.936
 3064SOL     OW 9943   2.669   0.605   5.189
 3064SOL    HW1 9944   2.622   0.602   5.278
 3064SOL    HW2 9945   2.618   0.550   5.123
 3065SOL     OW 9946   3.256   0.469   5.398
 3065SOL    HW1 9947   3.236   0.512   5.486
 3065SOL    HW2 9948   3.334   0.407   5.407
 3066SOL     OW 9949   2.835   0.890   5.296
 3066SOL    HW1 9950   2.881   0.806   5.267
 3066SOL    HW2 9951   2.779   0.924   5.221
 3067SOL     OW 9952   2.853   0.410   4.966
 3067SOL    HW1 9953   2.776   0.444   5.020
 3067SOL    HW2 9954   2.819   0.359   4.887
 3068SOL     OW 9955   2.903   0.701   4.153
 3068SOL    HW1 9956   2.929   0.697   4.249
 3068SOL    HW2 9957   2.818   0.650   4.139
 3069SOL     OW 9958   1.938   0.811   4.513
 3069SOL    HW1 9959   2.037   0.799   4.522
 3069SOL    HW2 9960   1.914   0.906   4.534
 3070SOL     OW 9961   1.992   1.821   5.295
 3070SOL    HW1 9962   1.982   1.806   5.394
 3070SOL    HW2 9963   1.906   1.857   5.259
 3071SOL     OW 9964   2.727   0.348   3.919
 3071SOL    HW1 9965   2.786   0.411   3.870
 3071SOL    HW2 9966   2.746   0.254   3.890
 3072SOL     OW 9967   3.581   0.585   5.555
 3072SOL    HW1 9968   3.555   0.674   5.519
 3072SOL    HW2 9969   3.579   0.517   5.482
 3073SOL     OW 9970   3.224   1.144   4.269
 3073SOL    HW1 9971   3.307   1.115   4.221
 3073SOL    HW2 9972   3.175   1.211   4.213
 3074SOL     OW 9973   2.412   0.196   4.609
 3074SOL    HW1 9974   2.407   0.191   4.709
 3074SOL    HW2 9975   2.414   0.292   4.580
 3075SOL     OW 9976   2.870   1.456   4.201
 3075SOL    HW1 9977   2.824   1.528   4.149
 3075SOL    HW2 9978   2.866   1.476   4.299
 3076SOL     OW 9979   3.657   1.066   4.597
 3076SOL    HW1 9980   3.595   1.051   4.521
 3076SOL    HW2 9981   3.605   1.077   4.682
 3077SOL     OW 9982   3.089   1.550   5.230
 3077SOL    HW1 9983   3.095   1.473   5.294
 3077SOL    HW2 9984   3.037   1.524   5.150
 3078SOL     OW 9985   2.183   0.943   3.966
 3078SOL    HW1 9986   2.265   0.982   3.924
 3078SOL    HW2 9987   2.156   0.861   3.917
 3079SOL     OW 9988   3.320   0.735   4.452
 3079SOL    HW1 9989   3.315   0.670   4.527
 3079SOL    HW2 9990   3.400   0.794   4.465
 3080SOL     OW 9991   2.323   1.266   5.451
 3080SOL    HW1 9992   2.273   1.267   5.365
 3080SOL    HW2 9993   2.260   1.248   5.527
 3081SOL     OW 9994   2.973   1.776   3.961
 3081SOL    HW1 9995   2.913   1.714   4.011
 3081SOL    HW2 9996   3.004   1.732   3.876
 3082SOL     OW 9997   2.064   0.285   5.222
 3082SOL    HW1 9998   1.984   0.345   5.209
 3082SOL    HW2 9999   2.054   0.236   5.308
 3083SOL     OW10000   3.494   1.377   3.805
 3083SOL    HW110001   3.462   1.471   3.795
 3083SOL    HW210002   3.418   1.314   3.793
 3084SOL     OW10003   2.326   1.743   4.047
 3084SOL    HW110004   2.359   1.782   4.133
 3084SOL    HW210005   2.402   1.736   3.982
 3085SOL     OW10006   3.262   0.107   4.150
 3085SOL    HW110007   3.238   0.070   4.060
 3085SOL    HW210008   3.361   0.123   4.154
 3086SOL     OW10009   2.111   1.785   4.965
 3086SOL    HW110010   2.168   1.720   5.015
 3086SOL    HW210011   2.095   1.752   4.872
 3087SOL     OW10012   2.802   1.698   4.628
 3087SOL    HW110013   2.882   1.641   4.649
 3087SOL    HW210014   2.753   1.658   4.551
 3088SOL     OW10015   2.244   0.700   4.204
 3088SOL    HW110016   2.289   0.610   4.201
 3088SOL    HW210017   2.150   0.689   4.237
 3089SOL     OW10018   3.409   0.222   5.453
 3089SOL    HW110019   3.404   0.259   5.545
 3089SOL    HW210020   3.337   0.153   5.441
 3090SOL     OW10021   2.476   0.122   3.841
 3090SOL    HW110022   2.574   0.100   3.848
 3090SOL    HW210023   2.445   0.105   3.748
 3091SOL     OW10024   2.643   0.264   5.473
 3091SOL    HW110025   2.710   0.203   5.516
 3091SOL    HW210026   2.570   0.283   5.538
 3092SOL     OW10027   2.750   1.514   4.919
 3092SOL    HW110028   2.727   1.489   4.825
 3092SOL    HW210029   2.811   1.445   4.958
 3093SOL     OW10030   3.213   0.590   5.157
 3093SOL    HW110031   3.241   0.547   5.242
 3093SOL    HW210032   3.238   0.686   5.158
 3094SOL     OW10033   2.665   1.402   4.648
 3094SOL    HW110034   2.755   1.416   4.606
 3094SOL    HW210035   2.594   1.404   4.577
 3095SOL     OW10036   2.784   0.503   4.623
 3095SOL    HW110037   2.759   0.494   4.527
 3095SOL    HW210038   2.832   0.421   4.654
 3096SOL     OW10039   2.401   0.064   4.236
 3096SOL    HW110040   2.320   0.065   4.294
 3096SOL    HW210041   2.404   0.147   4.181
 3097SOL     OW10042   3.296   1.188   3.765
 3097SOL    HW110043   3.328   1.112   3.822
 3097SOL    HW210044   3.204   1.215   3.795
 3098SOL     OW10045   2.159   0.035   3.895
 3098SOL    HW110046   2.208   0.119   3.874
 3098SOL    HW210047   2.221  -0.030   3.940
 3099SOL     OW10048   2.797   0.236   4.204
 3099SOL    HW110049   2.749   0.277   4.126
 3099SOL    HW210050   2.896   0.234   4.185
 3100SOL     OW10051   2.938   0.683   5.188
 3100SOL    HW110052   2.858   0.622   5.191
 3100SOL    HW210053   3.019   0.630   5.164
 3101SOL     OW10054   3.089   1.570   4.517
 3101SOL    HW110055   3.110   1.644   4.452
 3101SOL    HW210056   3.157   1.570   4.590
 3102SOL     OW10057   2.321   1.152   4.465
 3102SOL    HW110058   2.250   1.125   4.530
 3102SOL    HW210059   2.295   1.124   4.372
 3103SOL     OW10060   3.133   1.797   4.315
 3103SOL    HW110061   3.177   1.861   4.251
 3103SOL    HW210062   3.083   1.849   4.385
 3104SOL     OW10063   2.894   0.549   3.740
 3104SOL    HW110064   2.853   0.631   3.701
 3104SOL    HW210065   2.958   0.575   3.813
 3105SOL     OW10066   1.940   0.556   5.110
 3105SOL    HW110067   2.032   0.555   5.069
 3105SOL    HW210068   1.934   0.630   5.177
 3106SOL     OW10069   2.423   0.222   4.871
 3106SOL    HW110070   2.461   0.138   4.908
 3106SOL    HW210071   2.335   0.241   4.915
 3107SOL     OW10072   2.728   0.454   4.366
 3107SOL    HW110073   2.696   0.526   4.304
 3107SOL    HW210074   2.752   0.373   4.313
 3108SOL     OW10075   2.879   0.039   4.477
 3108SOL    HW110076   2.807   0.044   4.408
 3108SOL    HW210077   2.855  -0.030   4.546
 3109SOL     OW10078   3.291   1.173   4.591
 3109SOL    HW110079   3.236   1.089   4.584
 3109SOL    HW210080   3.317   1.202   4.499
 3110SOL     OW10081   3.328   0.590   4.716
 3110SOL    HW110082   3.298   0.495   4.723
 3110SOL    HW210083   3.401   0.606   4.782
 3111SOL     OW10084   3.719   0.833   4.101
 3111SOL    HW110085   3.761   0.769   4.165
 3111SOL    HW210086   3.681   0.782   4.023
 3112SOL     OW10087   2.350   1.385   3.898
 3112SOL    HW110088   2.263   1.370   3.945
 3112SOL    HW210089   2.333   1.411   3.803
 3113SOL     OW10090   3.526   1.280   4.381
 3113SOL    HW110091   3.625   1.288   4.395
 3113SOL    HW210092   3.481   1.364   4.412
 3114SOL     OW10093   3.252   0.575   3.802
 3114SOL    HW110094   3.198   0.554   3.883
 3114SOL    HW210095   3.343   0.534   3.811
 3115SOL     OW10096   2.389   0.256   4.052
 3115SOL    HW110097   2.416   0.197   3.977
 3115SOL    HW210098   2.389   0.351   4.021
 3116SOL     OW10099   3.616   1.223   5.312
 3116SOL    HW110100   3.707   1.184   5.299
 3116SOL    HW210101   3.624   1.319   5.336
 3117SOL     OW10102   2.926   1.347   5.064
 3117SOL    HW110103   2.846   1.324   5.119
 3117SOL    HW210104   3.009   1.321   5.113
 3118SOL     OW10105   3.454   1.629   5.349
 3118SOL    HW110106   3.481   1.663   5.259
 3118SOL    HW210107   3.533   1.591   5.395
 3119SOL     OW10108   2.973   1.195   4.824
 3119SOL    HW110109   2.933   1.239   4.905
 3119SOL    HW210110   2.932   1.232   4.741
 3120SOL     OW10111   3.500   1.099   4.803
 3120SOL    HW110112   3.505   1.180   4.862
 3120SOL    HW210113   3.414   1.101   4.752
 3121SOL     OW10114   2.777   0.089   5.126
 3121SOL    HW110115   2.802   0.069   5.031
 3121SOL    HW210116   2.849   0.145   5.168
 3122SOL     OW10117   2.842   1.116   5.443
 3122SOL    HW110118   2.743   1.122   5.453
 3122SOL    HW210119   2.865   1.036   5.387
 3123SOL     OW10120   2.567   1.050   4.092
 3123SOL    HW110121   2.553   1.057   4.191
 3123SOL    HW210122   2.651   0.999   4.074
 3124SOL     OW10123   2.272   0.813   4.975
 3124SOL    HW110124   2.358   0.825   5.025
 3124SOL    HW210125   2.230   0.726   5.002
 3125SOL     OW10126   3.136   0.386   4.986
 3125SOL    HW110127   3.157   0.460   5.050
 3125SOL    HW210128   3.047   0.403   4.943
 3126SOL     OW10129   1.926   1.564   5.055
 3126SOL    HW110130   1.880   1.646   5.021
 3126SOL    HW210131   2.024   1.583   5.064
 3127SOL     OW10132   2.229   1.100   4.225
 3127SOL    HW110133   2.222   1.183   4.169
 3127SOL    HW210134   2.233   1.020   4.165
 3128SOL     OW10135   2.428   0.537   4.589
 3128SOL    HW110136   2.440   0.603   4.515
 3128SOL    HW210137   2.474   0.571   4.672
 3129SOL     OW10138   3.114   1.348   4.112
 3129SOL    HW110139   3.164   1.425   4.152
 3129SOL    HW210140   3.019   1.350   4.144
 3130SOL     OW10141   3.134   1.445   4.866
 3130SOL    HW110142   3.181   1.458   4.953
 3130SOL    HW210143   3.068   1.371   4.875
 3131SOL     OW10144   3.444   0.639   4.196
 3131SOL    HW110145   3.413   0.700   4.269
 3131SOL    HW210146   3.494   0.691   4.127
 3132SOL     OW10147   2.216   1.510   5.053
 3132SOL    HW110148   2.195   1.466   4.966
 3132SOL    HW210149   2.313   1.536   5.056
 3133SOL     OW10150   2.264   0.751   5.322
 3133SOL    HW110151   2.332   0.806   5.275
 3133SOL    HW210152   2.304   0.663   5.349
 3134SOL     OW10153   3.449   0.779   5.394
 3134SOL    HW110154   3.357   0.817   5.389
 3134SOL    HW210155   3.509   0.826   5.329
 3135SOL     OW10156   2.875   0.105   5.494
 3135SOL    HW110157   2.881   0.190   5.442
 3135SOL    HW210158   2.907   0.029   5.437
 3136SOL     OW10159   2.366   0.050   5.464
 3136SOL    HW110160   2.324  -0.007   5.394
 3136SOL    HW210161   2.300   0.119   5.496
 3137SOL     OW10162   2.435   0.870   4.753
 3137SOL    HW110163   2.479   0.959   4.744
 3137SOL    HW210164   2.372   0.870   4.830
 3138SOL     OW10165   3.222   0.862   4.769
 3138SOL    HW110166   3.147   0.862   4.703
 3138SOL    HW210167   3.259   0.770   4.778
 3139SOL     OW10168   3.071   0.525   3.999
 3139SOL    HW110169   3.084   0.441   4.053
 3139SOL    HW210170   3.042   0.599   4.059
 3140SOL     OW10171   2.169   0.213   4.955
 3140SOL    HW110172   2.146   0.250   5.045
 3140SOL    HW210173   2.139   0.118   4.949
 3141SOL     OW10174   1.899   1.310   5.006
 3141SOL    HW110175   1.952   1.261   5.074
 3141SOL    HW210176   1.921   1.408   5.011
 3142SOL     OW10177   2.594   0.634   4.788
 3142SOL    HW110178   2.653   0.608   4.712
 3142SOL    HW210179   2.566   0.730   4.777
 3143SOL     OW10180   3.590   0.935   5.578
 3143SOL    HW110181   3.544   0.928   5.489
 3143SOL    HW210182   3.528   0.979   5.644
 3144SOL     OW10183   2.169   0.063   4.342
 3144SOL    HW110184   2.158   0.157   4.375
 3144SOL    HW210185   2.164   0.000   4.419
 3145SOL     OW10186   3.484   0.367   4.098
 3145SOL    HW110187   3.486   0.291   4.162
 3145SOL    HW210188   3.436   0.444   4.138
 3146SOL     OW10189   2.885   0.766   4.690
 3146SOL    HW110190   2.900   0.787   4.786
 3146SOL    HW210191   2.855   0.671   4.681
 3147SOL     OW10192   2.842   1.573   5.424
 3147SOL    HW110193   2.822   1.617   5.336
 3147SOL    HW210194   2.881   1.482   5.408
 3148SOL     OW10195   3.721   1.518   5.329
 3148SOL    HW110196   3.735   1.545   5.234
 3148SOL    HW210197   3.804   1.540   5.382
 3149SOL     OW10198   2.212   0.898   5.528
 3149SOL    HW110199   2.288   0.942   5.576
 3149SOL    HW210200   2.247   0.851   5.446
 3150SOL     OW10201   3.402   0.274   3.849
 3150SOL    HW110202   3.341   0.199   3.872
 3150SOL    HW210203   3.424   0.326   3.932
 3151SOL     OW10204   3.165   0.838   3.766
 3151SOL    HW110205   3.199   0.745   3.781
 3151SOL    HW210206   3.183   0.865   3.671
 3152SOL     OW10207   2.930   1.333   4.573
 3152SOL    HW110208   2.937   1.249   4.518
 3152SOL    HW210209   2.992   1.402   4.537
 3153SOL     OW10210   2.181   0.810   4.673
 3153SOL    HW110211   2.274   0.846   4.678
 3153SOL    HW210212   2.175   0.725   4.725
 3154SOL     OW10213   2.201   0.509   4.730
 3154SOL    HW110214   2.149   0.426   4.713
 3154SOL    HW210215   2.278   0.514   4.666
 3155SOL     OW10216   3.000   0.380   5.402
 3155SOL    HW110217   2.955   0.443   5.466
 3155SOL    HW210218   3.093   0.411   5.385
 3156SOL     OW10219   3.022   0.207   5.201
 3156SOL    HW110220   3.022   0.271   5.278
 3156SOL    HW210221   3.050   0.255   5.118
 3157SOL     OW10222   1.870   1.326   3.924
 3157SOL    HW110223   1.777   1.347   3.893
 3157SOL    HW210224   1.880   1.227   3.937
 3158SOL     OW10225   1.950   1.801   4.651
 3158SOL    HW110226   1.908   1.715   4.624
 3158SOL    HW210227   2.044   1.804   4.617
 3159SOL     OW10228   2.366   1.568   4.634
 3159SOL    HW110229   2.432   1.642   4.643
 3159SOL    HW210230   2.410   1.489   4.592
 3160SOL     OW10231   2.864   0.796   4.962
 3160SOL    HW110232   2.905   0.764   5.048
 3160SOL    HW210233   2.768   0.769   4.959
 3161SOL     OW10234   1.902   0.544   4.838
 3161SOL    HW110235   1.987   0.511   4.797
 3161SOL    HW210236   1.915   0.559   4.936
 3162SOL     OW10237   2.051   0.520   5.446
 3162SOL    HW110238   2.110   0.480   5.376
 3162SOL    HW210239   1.993   0.591   5.405
 3163SOL     OW10240   3.231   0.950   5.384
 3163SOL    HW110241   3.270   1.039   5.404
 3163SOL    HW210242   3.241   0.930   5.287
 3164SOL     OW10243   2.677   0.572   4.049
 3164SOL    HW110244   2.684   0.483   4.003
 3164SOL    HW210245   2.583   0.606   4.041
 3165SOL     OW10246   3.519   0.604   4.930
 3165SOL    HW110247   3.481   0.535   4.992
 3165SOL    HW210248   3.601   0.568   4.886
 3166SOL     OW10249   2.114   1.564   5.468
 3166SOL    HW110250   2.084   1.621   5.544
 3166SOL    HW210251   2.107   1.467   5.494
 3167SOL     OW10252   2.533   0.464   4.993
 3167SOL    HW110253   2.499   0.375   4.963
 3167SOL    HW210254   2.559   0.518   4.913
 3168SOL     OW10255   2.792   1.678   5.189
 3168SOL    HW110256   2.768   1.660   5.094
 3168SOL    HW210257   2.822   1.772   5.199
 3169SOL     OW10258   2.335   0.500   3.915
 3169SOL    HW110259   2.396   0.580   3.919
 3169SOL    HW210260   2.240   0.531   3.922
 3170SOL     OW10261   2.021   1.137   5.190
 3170SOL    HW110262   2.043   1.076   5.266
 3170SOL    HW210263   2.031   1.088   5.104
 3171SOL     OW10264   3.209   1.059   4.958
 3171SOL    HW110265   3.233   0.996   4.884
 3171SOL    HW210266   3.119   1.099   4.940
 3172SOL     OW10267   3.164   0.855   4.033
 3172SOL    HW110268   3.078   0.824   4.075
 3172SOL    HW210269   3.160   0.841   3.934
 3173SOL     OW10270   3.621   1.747   4.878
 3173SOL    HW110271   3.682   1.777   4.805
 3173SOL    HW210272   3.583   1.658   4.856
 3174SOL     OW10273   3.114   1.731   4.852
 3174SOL    HW110274   3.198   1.736   4.798
 3174SOL    HW210275   3.091   1.635   4.870
 3175SOL     OW10276   1.945   1.258   4.746
 3175SOL    HW110277   1.940   1.257   4.846
 3175SOL    HW210278   1.862   1.217   4.708
 3176SOL     OW10279   2.550   1.662   5.440
 3176SOL    HW110280   2.494   1.743   5.449
 3176SOL    HW210281   2.602   1.666   5.354
 3177SOL     OW10282   3.588   0.135   4.247
 3177SOL    HW110283   3.661   0.118   4.180
 3177SOL    HW210284   3.557   0.048   4.285
 3178SOL     OW10285   3.250   1.573   4.201
 3178SOL    HW110286   3.317   1.585   4.127
 3178SOL    HW210287   3.210   1.662   4.224
 3179SOL     OW10288   1.992   1.794   5.575
 3179SOL    HW110289   1.951   1.720   5.628
 3179SOL    HW210290   2.056   1.845   5.633
 3180SOL     OW10291   3.142   0.927   4.396
 3180SOL    HW110292   3.202   0.846   4.398
 3180SOL    HW210293   3.182   0.996   4.336
 3181SOL     OW10294   2.692   1.273   5.146
 3181SOL    HW110295   2.687   1.306   5.241
 3181SOL    HW210296   2.606   1.292   5.100
 3182SOL     OW10297   2.534   1.616   3.878
 3182SOL    HW110298   2.543   1.626   3.779
 3182SOL    HW210299   2.494   1.527   3.899
 3183SOL     OW10300   3.512   1.720   5.118
 3183SOL    HW110301   3.565   1.730   5.034
 3183SOL    HW210302   3.485   1.810   5.152
 3184SOL     OW10303   3.703   0.175   4.687
 3184SOL    HW110304   3.742   0.090   4.651
 3184SOL    HW210305   3.605   0.177   4.668
 3185SOL     OW10306   2.125   0.326   4.444
 3185SOL    HW110307   2.046   0.377   4.410
 3185SOL    HW210308   2.116   0.311   4.542
 3186SOL     OW10309   3.056   1.612   3.755
 3186SOL    HW110310   3.062   1.519   3.792
 3186SOL    HW210311   2.997   1.612   3.675
 3187SOL     OW10312   2.684   1.002   5.096
 3187SOL    HW110313   2.724   1.001   5.004
 3187SOL    HW210314   2.694   1.094   5.136
 3188SOL     OW10315   2.778   0.910   4.015
 3188SOL    HW110316   2.841   0.948   3.947
 3188SOL    HW210317   2.818   0.827   4.054
 3189SOL     OW10318   3.366   1.607   3.768
 3189SOL    HW110319   3.274   1.644   3.775
 3189SOL    HW210320   3.404   1.627   3.678
 3190SOL     OW10321   2.234   1.288   5.214
 3190SOL    HW110322   2.221   1.381   5.180
 3190SOL    HW210323   2.150   1.236   5.201
 3191SOL     OW10324   3.476   1.292   5.013
 3191SOL    HW110325   3.536   1.295   5.093
 3191SOL    HW210326   3.401   1.356   5.026
 3192SOL     OW10327   2.901   1.098   4.420
 3192SOL    HW110328   2.831   1.051   4.474
 3192SOL    HW210329   2.960   1.030   4.377
 3193SOL     OW10330   2.876   0.236   4.695
 3193SOL    HW110331   2.868   0.200   4.602
 3193SOL    HW210332   2.874   0.160   4.760
 3194SOL     OW10333   2.452   1.487   4.215
 3194SOL    HW110334   2.494   1.429   4.145
 3194SOL    HW210335   2.408   1.566   4.171
 3195SOL     OW10336   3.571   0.385   5.105
 3195SOL    HW110337   3.644   0.454   5.109
 3195SOL    HW210338   3.599   0.310   5.046
 3196SOL     OW10339   2.117   1.348   4.014
 3196SOL    HW110340   2.021   1.349   3.987
 3196SOL    HW210341   2.129   1.401   4.098
 3197SOL     OW10342   1.967   1.013   5.450
 3197SOL    HW110343   1.890   0.980   5.504
 3197SOL    HW210344   2.052   0.983   5.492
 3198SOL     OW10345   2.534   0.203   5.213
 3198SOL    HW110346   2.624   0.187   5.173
 3198SOL    HW210347   2.542   0.208   5.312
 3199SOL     OW10348   1.937   0.345   3.757
 3199SOL    HW110349   1.845   0.317   3.728
 3199SOL    HW210350   1.968   0.422   3.701
 3200SOL     OW10351   3.302   0.856   5.122
 3200SOL    HW110352   3.245   0.908   5.059
 3200SOL    HW210353   3.398   0.868   5.098
 3201SOL     OW10354   1.934   0.166   4.042
 3201SOL    HW110355   1.917   0.249   3.988
 3201SOL    HW210356   2.024   0.129   4.020
 3202SOL     OW10357   3.045   1.335   3.843
 3202SOL    HW110358   2.946   1.324   3.845
 3202SOL    HW210359   3.079   1.350   3.936
 3203SOL     OW10360   2.475   0.842   5.155
 3203SOL    HW110361   2.531   0.923   5.138
 3203SOL    HW210362   2.534   0.762   5.158
 3204SOL     OW10363   3.355   1.767   4.683
 3204SOL    HW110364   3.388   1.831   4.614
 3204SOL    HW210365   3.421   1.761   4.758
 3205SOL     OW10366   2.578   0.565   5.432
 3205SOL    HW110367   2.597   0.630   5.506
 3205SOL    HW210368   2.638   0.485   5.441
 3206SOL     OW10369   3.312   1.220   5.357
 3206SOL    HW110370   3.303   1.210   5.456
 3206SOL    HW210371   3.408   1.213   5.331
 3207SOL     OW10372   2.252   1.741   5.284
 3207SOL    HW110373   2.161   1.782   5.282
 3207SOL    HW210374   2.245   1.647   5.316
 3208SOL     OW10375   3.536   0.883   4.978
 3208SOL    HW110376   3.509   0.794   4.941
 3208SOL    HW210377   3.537   0.951   4.905
 3209SOL     OW10378   3.087   0.325   4.173
 3209SOL    HW110379   3.152   0.251   4.162
 3209SOL    HW210380   3.107   0.375   4.257
 3210SOL     OW10381   2.456   0.745   4.376
 3210SOL    HW110382   2.506   0.830   4.357
 3210SOL    HW210383   2.368   0.747   4.328
 3211SOL     OW10384   3.639   0.342   5.366
 3211SOL    HW110385   3.622   0.373   5.272
 3211SOL    HW210386   3.555   0.305   5.404
 3212SOL     OW10387   3.592   0.934   5.241
 3212SOL    HW110388   3.630   1.025   5.256
 3212SOL    HW210389   3.584   0.917   5.142
 3213SOL     OW10390   2.721   1.374   3.740
 3213SOL    HW110391   2.675   1.389   3.828
 3213SOL    HW210392   2.765   1.459   3.710
 3214SOL     OW10393   2.721   0.956   4.585
 3214SOL    HW110394   2.775   0.887   4.633
 3214SOL    HW210395   2.689   1.025   4.651
 3215SOL     OW10396   2.945   0.984   3.811
 3215SOL    HW110397   2.922   1.037   3.729
 3215SOL    HW210398   3.026   0.928   3.792
 3216SOL     OW10399   3.723   1.569   4.575
 3216SOL    HW110400   3.652   1.557   4.505
 3216SOL    HW210401   3.724   1.490   4.635
 3217SOL     OW10402   2.083   1.314   5.568
 3217SOL    HW110403   2.018   1.241   5.547
 3217SOL    HW210404   2.087   1.328   5.666
 3218SOL     OW10405   1.941   1.240   4.377
 3218SOL    HW110406   1.940   1.193   4.465
 3218SOL    HW210407   2.023   1.212   4.326
 3219SOL     OW10408   2.534   1.391   5.348
 3219SOL    HW110409   2.456   1.341   5.386
 3219SOL    HW210410   2.531   1.486   5.379
 3220SOL     OW10411   3.686   0.192   4.951
 3220SOL    HW110412   3.682   0.102   4.995
 3220SOL    HW210413   3.689   0.181   4.852
 3221SOL     OW10414   2.290   0.424   4.244
 3221SOL    HW110415   2.320   0.352   4.182
 3221SOL    HW210416   2.251   0.384   4.327
 3222SOL     OW10417   3.567   1.487   4.828
 3222SOL    HW110418   3.474   1.462   4.801
 3222SOL    HW210419   3.593   1.437   4.910
 3223SOL     OW10420   2.179   0.547   5.004
 3223SOL    HW110421   2.217   0.488   5.076
 3223SOL    HW210422   2.219   0.521   4.916
 3224SOL     OW10423   2.674   1.586   4.411
 3224SOL    HW110424   2.706   1.596   4.317
 3224SOL    HW210425   2.595   1.524   4.413
 3225SOL     OW10426   3.286   0.214   4.836
 3225SOL    HW110427   3.338   0.149   4.891
 3225SOL    HW210428   3.237   0.277   4.897
 3226SOL     OW10429   2.863   0.034   4.878
 3226SOL    HW110430   2.800  -0.038   4.847
 3226SOL    HW210431   2.956  -0.002   4.878
 3227SOL     OW10432   2.632   1.330   4.025
 3227SOL    HW110433   2.586   1.243   4.042
 3227SOL    HW210434   2.723   1.327   4.066
 3228SOL     OW10435   2.480   1.567   5.008
 3228SOL    HW110436   2.475   1.649   5.065
 3228SOL    HW210437   2.569   1.564   4.963
 3229SOL     OW10438   3.214   0.052   3.892
 3229SOL    HW110439   3.249   0.011   3.808
 3229SOL    HW210440   3.124   0.014   3.912
 3230SOL     OW10441   3.162   0.453   4.415
 3230SOL    HW110442   3.103   0.533   4.419
 3230SOL    HW210443   3.177   0.418   4.508
 3231SOL     OW10444   3.455   0.221   4.606
 3231SOL    HW110445   3.371   0.220   4.660
 3231SOL    HW210446   3.457   0.304   4.550
 3232SOL     OW10447   1.901   1.077   4.024
 3232SOL    HW110448   2.000   1.066   4.015
 3232SOL    HW210449   1.861   0.991   4.056
 3233SOL     OW10450   2.737   1.646   4.061
 3233SOL    HW110451   2.660   1.611   4.007
 3233SOL    HW210452   2.705   1.717   4.123
 3234SOL     OW10453   2.092   0.628   5.699
 3234SOL    HW110454   1.999   0.626   5.736
 3234SOL    HW210455   2.093   0.589   5.607
 3235SOL     OW10456   2.087   0.275   6.582
 3235SOL    HW110457   2.122   0.258   6.674
 3235SOL    HW210458   1.999   0.230   6.570
 3236SOL     OW10459   1.881   0.368   6.233
 3236SOL    HW110460   1.799   0.411   6.272
 3236SOL    HW210461   1.853   0.295   6.170
 3237SOL     OW10462   2.431   1.275   6.751
 3237SOL    HW110463   2.338   1.268   6.714
 3237SOL    HW210464   2.442   1.364   6.795
 3238SOL     OW10465   3.417   1.511   6.289
 3238SOL    HW110466   3.360   1.495   6.370
 3238SOL    HW210467   3.358   1.521   6.209
 3239SOL     OW10468   2.997   0.703   6.303
 3239SOL    HW110469   3.054   0.781   6.278
 3239SOL    HW210470   2.937   0.729   6.379
 3240SOL     OW10471   3.617   0.607   5.817
 3240SOL    HW110472   3.605   0.594   5.718
 3240SOL    HW210473   3.587   0.526   5.866
 3241SOL     OW10474   2.630   1.144   6.609
 3241SOL    HW110475   2.552   1.161   6.669
 3241SOL    HW210476   2.664   1.231   6.573
 3242SOL     OW10477   2.712   0.798   7.409
 3242SOL    HW110478   2.708   0.874   7.474
 3242SOL    HW210479   2.734   0.834   7.318
 3243SOL     OW10480   2.547   1.012   6.251
 3243SOL    HW110481   2.616   0.996   6.321
 3243SOL    HW210482   2.474   1.069   6.289
 3244SOL     OW10483   2.548   1.161   7.389
 3244SOL    HW110484   2.608   1.240   7.403
 3244SOL    HW210485   2.462   1.192   7.348
 3245SOL     OW10486   2.197   1.435   6.647
 3245SOL    HW110487   2.119   1.404   6.594
 3245SOL    HW210488   2.255   1.493   6.590
 3246SOL     OW10489   3.322   1.505   6.925
 3246SOL    HW110490   3.346   1.599   6.951
 3246SOL    HW210491   3.306   1.451   7.007
 3247SOL     OW10492   2.300   0.392   7.085
 3247SOL    HW110493   2.382   0.336   7.094
 3247SOL    HW210494   2.219   0.334   7.089
 3248SOL     OW10495   3.465   0.447   6.323
 3248SOL    HW110496   3.391   0.493   6.273
 3248SOL    HW210497   3.516   0.515   6.376
 3249SOL     OW10498   2.093   1.713   6.069
 3249SOL    HW110499   2.127   1.790   6.123
 3249SOL    HW210500   2.137   1.713   5.979
 3250SOL     OW10501   2.989   1.341   7.276
 3250SOL    HW110502   3.036   1.341   7.364
 3250SOL    HW210503   2.941   1.254   7.265
 3251SOL     OW10504   2.092   1.434   6.124
 3251SOL    HW110505   2.066   1.530   6.124
 3251SOL    HW210506   2.021   1.380   6.169
 3252SOL     OW10507   2.102   1.091   6.472
 3252SOL    HW110508   2.116   1.007   6.524
 3252SOL    HW210509   2.047   1.155   6.527
 3253SOL     OW10510   2.482   1.786   7.025
 3253SOL    HW110511   2.390   1.769   7.060
 3253SOL    HW210512   2.510   1.878   7.051
 3254SOL     OW10513   2.468   0.964   5.709
 3254SOL    HW110514   2.475   1.048   5.655
 3254SOL    HW210515   2.514   0.977   5.797
 3255SOL     OW10516   3.456   0.114   7.066
 3255SOL    HW110517   3.438   0.181   6.994
 3255SOL    HW210518   3.453   0.160   7.155
 3256SOL     OW10519   1.984   0.643   6.149
 3256SOL    HW110520   1.939   0.555   6.166
 3256SOL    HW210521   1.983   0.697   6.233
 3257SOL     OW10522   3.704   1.767   5.945
 3257SOL    HW110523   3.758   1.738   6.025
 3257SOL    HW210524   3.734   1.857   5.916
 3258SOL     OW10525   1.889   1.596   5.703
 3258SOL    HW110526   1.870   1.500   5.724
 3258SOL    HW210527   1.856   1.654   5.778
 3259SOL     OW10528   3.551   0.922   6.198
 3259SOL    HW110529   3.646   0.893   6.206
 3259SOL    HW210530   3.543   0.987   6.123
 3260SOL     OW10531   3.503   1.108   6.018
 3260SOL    HW110532   3.589   1.110   5.966
 3260SOL    HW210533   3.517   1.155   6.106
 3261SOL     OW10534   1.975   0.737   7.183
 3261SOL    HW110535   2.063   0.724   7.228
 3261SOL    HW210536   1.962   0.834   7.161
 3262SOL     OW10537   2.475   1.365   6.312
 3262SOL    HW110538   2.426   1.278   6.321
 3262SOL    HW210539   2.452   1.408   6.225
 3263SOL     OW10540   3.155   1.228   7.009
 3263SOL    HW110541   3.192   1.155   6.951
 3263SOL    HW210542   3.207   1.233   7.094
 3264SOL     OW10543   2.671   0.004   6.088
 3264SOL    HW110544   2.711   0.095   6.079
 3264SOL    HW210545   2.571   0.012   6.094
 3265SOL     OW10546   2.059   0.976   6.850
 3265SOL    HW110547   2.148   0.931   6.836
 3265SOL    HW210548   1.986   0.911   6.831
 3266SOL     OW10549   3.387   0.999   5.776
 3266SOL    HW110550   3.324   0.923   5.789
 3266SOL    HW210551   3.435   1.017   5.862
 3267SOL     OW10552   3.049   1.792   7.202
 3267SOL    HW110553   3.073   1.852   7.126
 3267SOL    HW210554   3.056   1.697   7.172
 3268SOL     OW10555   2.179   0.251   7.387
 3268SOL    HW110556   2.250   0.322   7.393
 3268SOL    HW210557   2.091   0.290   7.415
 3269SOL     OW10558   3.328   1.417   6.539
 3269SOL    HW110559   3.269   1.423   6.619
 3269SOL    HW210560   3.313   1.329   6.493
 3270SOL     OW10561   3.529   1.714   6.158
 3270SOL    HW110562   3.488   1.691   6.070
 3270SOL    HW210563   3.511   1.640   6.223
 3271SOL     OW10564   2.460   0.729   5.856
 3271SOL    HW110565   2.484   0.798   5.788
 3271SOL    HW210566   2.382   0.762   5.910
 3272SOL     OW10567   3.143   0.345   6.530
 3272SOL    HW110568   3.057   0.295   6.517
 3272SOL    HW210569   3.205   0.291   6.586
 3273SOL     OW10570   3.438   1.662   5.893
 3273SOL    HW110571   3.527   1.708   5.896
 3273SOL    HW210572   3.417   1.638   5.798
 3274SOL     OW10573   2.669   0.605   7.051
 3274SOL    HW110574   2.622   0.602   7.140
 3274SOL    HW210575   2.618   0.550   6.985
 3275SOL     OW10576   3.256   0.469   7.260
 3275SOL    HW110577   3.236   0.512   7.348
 3275SOL    HW210578   3.334   0.407   7.269
 3276SOL     OW10579   2.835   0.890   7.158
 3276SOL    HW110580   2.881   0.806   7.129
 3276SOL    HW210581   2.779   0.924   7.083
 3277SOL     OW10582   2.853   0.410   6.828
 3277SOL    HW110583   2.776   0.444   6.882
 3277SOL    HW210584   2.819   0.359   6.749
 3278SOL     OW10585   2.903   0.701   6.015
 3278SOL    HW110586   2.929   0.697   6.111
 3278SOL    HW210587   2.818   0.650   6.001
 3279SOL     OW10588   1.938   0.811   6.375
 3279SOL    HW110589   2.037   0.799   6.384
 3279SOL    HW210590   1.914   0.906   6.396
 3280SOL     OW10591   1.992   1.821   7.157
 3280SOL    HW110592   1.982   1.806   7.256
 3280SOL    HW210593   1.906   1.857   7.121
 3281SOL     OW10594   2.727   0.348   5.781
 3281SOL    HW110595   2.786   0.411   5.732
 3281SOL    HW210596   2.746   0.254   5.752
 3282SOL     OW10597   3.581   0.585   7.417
 3282SOL    HW110598   3.555   0.674   7.381
 3282SOL    HW210599   3.579   0.517   7.344
 3283SOL     OW10600   3.224   1.144   6.131
 3283SOL    HW110601   3.307   1.115   6.083
 3283SOL    HW210602   3.175   1.211   6.075
 3284SOL     OW10603   2.412   0.196   6.471
 3284SOL    HW110604   2.407   0.191   6.571
 3284SOL    HW210605   2.414   0.292   6.442
 3285SOL     OW10606   2.870   1.456   6.063
 3285SOL    HW110607   2.824   1.528   6.011
 3285SOL    HW210608   2.866   1.476   6.161
 3286SOL     OW10609   2.213   1.801   6.439
 3286SOL    HW110610   2.263   1.715   6.445
 3286SOL    HW210611   2.278   1.878   6.436
 3287SOL     OW10612   3.657   1.066   6.459
 3287SOL    HW110613   3.595   1.051   6.383
 3287SOL    HW210614   3.605   1.077   6.544
 3288SOL     OW10615   3.089   1.550   7.092
 3288SOL    HW110616   3.095   1.473   7.156
 3288SOL    HW210617   3.037   1.524   7.012
 3289SOL     OW10618   2.183   0.943   5.828
 3289SOL    HW110619   2.265   0.982   5.786
 3289SOL    HW210620   2.156   0.861   5.779
 3290SOL     OW10621   3.320   0.735   6.314
 3290SOL    HW110622   3.315   0.670   6.389
 3290SOL    HW210623   3.400   0.794   6.327
 3291SOL     OW10624   2.323   1.266   7.313
 3291SOL    HW110625   2.273   1.267   7.227
 3291SOL    HW210626   2.260   1.248   7.389
 3292SOL     OW10627   2.973   1.776   5.823
 3292SOL    HW110628   2.913   1.714   5.873
 3292SOL    HW210629   3.004   1.732   5.738
 3293SOL     OW10630   2.064   0.285   7.084
 3293SOL    HW110631   1.984   0.345   7.071
 3293SOL    HW210632   2.054   0.236   7.170
 3294SOL     OW10633   3.494   1.377   5.667
 3294SOL    HW110634   3.462   1.471   5.657
 3294SOL    HW210635   3.418   1.314   5.655
 3295SOL     OW10636   2.326   1.743   5.909
 3295SOL    HW110637   2.359   1.782   5.995
 3295SOL    HW210638   2.402   1.736   5.844
 3296SOL     OW10639   3.262   0.107   6.012
 3296SOL    HW110640   3.238   0.070   5.922
 3296SOL    HW210641   3.361   0.123   6.016
 3297SOL     OW10642   2.111   1.785   6.827
 3297SOL    HW110643   2.168   1.720   6.877
 3297SOL    HW210644   2.095   1.752   6.734
 3298SOL     OW10645   2.802   1.698   6.490
 3298SOL    HW110646   2.882   1.641   6.511
 3298SOL    HW210647   2.753   1.658   6.413
 3299SOL     OW10648   2.244   0.700   6.066
 3299SOL    HW110649   2.289   0.610   6.063
 3299SOL    HW210650   2.150   0.689   6.099
 3300SOL     OW10651   3.409   0.222   7.315
 3300SOL    HW110652   3.404   0.259   7.407
 3300SOL    HW210653   3.337   0.153   7.303
 3301SOL     OW10654   2.476   0.122   5.703
 3301SOL    HW110655   2.574   0.100   5.710
 3301SOL    HW210656   2.445   0.105   5.610
 3302SOL     OW10657   2.643   0.264   7.335
 3302SOL    HW110658   2.710   0.203   7.378
 3302SOL    HW210659   2.570   0.283   7.400
 3303SOL     OW10660   2.750   1.514   6.781
 3303SOL    HW110661   2.727   1.489   6.687
 3303SOL    HW210662   2.811   1.445   6.820
 3304SOL     OW10663   3.213   0.590   7.019
 3304SOL    HW110664   3.241   0.547   7.104
 3304SOL    HW210665   3.238   0.686   7.020
 3305SOL     OW10666   2.665   1.402   6.510
 3305SOL    HW110667   2.755   1.416   6.468
 3305SOL    HW210668   2.594   1.404   6.439
 3306SOL     OW10669   2.784   0.503   6.485
 3306SOL    HW110670   2.759   0.494   6.389
 3306SOL    HW210671   2.832   0.421   6.516
 3307SOL     OW10672   2.401   0.064   6.098
 3307SOL    HW110673   2.320   0.065   6.156
 3307SOL    HW210674   2.404   0.147   6.043
 3308SOL     OW10675   3.296   1.188   5.627
 3308SOL    HW110676   3.328   1.112   5.684
 3308SOL    HW210677   3.204   1.215   5.657
 3309SOL     OW10678   2.159   0.035   5.757
 3309SOL    HW110679   2.208   0.119   5.736
 3309SOL    HW210680   2.221  -0.030   5.802
 3310SOL     OW10681   2.797   0.236   6.066
 3310SOL    HW110682   2.749   0.277   5.988
 3310SOL    HW210683   2.896   0.234   6.047
 3311SOL     OW10684   2.938   0.683   7.050
 3311SOL    HW110685   2.858   0.622   7.053
 3311SOL    HW210686   3.019   0.630   7.026
 3312SOL     OW10687   3.089   1.570   6.379
 3312SOL    HW110688   3.110   1.644   6.314
 3312SOL    HW210689   3.157   1.570   6.452
 3313SOL     OW10690   2.321   1.152   6.327
 3313SOL    HW110691   2.250   1.125   6.392
 3313SOL    HW210692   2.295   1.124   6.234
 3314SOL     OW10693   3.133   1.797   6.177
 3314SOL    HW110694   3.177   1.861   6.113
 3314SOL    HW210695   3.083   1.849   6.247
 3315SOL     OW10696   2.894   0.549   5.602
 3315SOL    HW110697   2.853   0.631   5.563
 3315SOL    HW210698   2.958   0.575   5.675
 3316SOL     OW10699   1.940   0.556   6.972
 3316SOL    HW110700   2.032   0.555   6.931
 3316SOL    HW210701   1.934   0.630   7.039
 3317SOL     OW10702   2.423   0.222   6.733
 3317SOL    HW110703   2.461   0.138   6.770
 3317SOL    HW210704   2.335   0.241   6.777
 3318SOL     OW10705   2.728   0.454   6.228
 3318SOL    HW110706   2.696   0.526   6.166
 3318SOL    HW210707   2.752   0.373   6.175
 3319SOL     OW10708   2.879   0.039   6.339
 3319SOL    HW110709   2.807   0.044   6.270
 3319SOL    HW210710   2.855  -0.030   6.408
 3320SOL     OW10711   3.291   1.173   6.453
 3320SOL    HW110712   3.236   1.089   6.446
 3320SOL    HW210713   3.317   1.202   6.361
 3321SOL     OW10714   3.328   0.590   6.578
 3321SOL    HW110715   3.298   0.495   6.585
 3321SOL    HW210716   3.401   0.606   6.644
 3322SOL     OW10717   3.719   0.833   5.963
 3322SOL    HW110718   3.761   0.769   6.027
 3322SOL    HW210719   3.681   0.782   5.885
 3323SOL     OW10720   2.350   1.385   5.760
 3323SOL    HW110721   2.263   1.370   5.807
 3323SOL    HW210722   2.333   1.411   5.665
 3324SOL     OW10723   3.526   1.280   6.243
 3324SOL    HW110724   3.625   1.288   6.257
 3324SOL    HW210725   3.481   1.364   6.274
 3325SOL     OW10726   3.252   0.575   5.664
 3325SOL    HW110727   3.198   0.554   5.745
 3325SOL    HW210728   3.343   0.534   5.673
 3326SOL     OW10729   2.389   0.256   5.914
 3326SOL    HW110730   2.416   0.197   5.839
 3326SOL    HW210731   2.389   0.351   5.883
 3327SOL     OW10732   3.616   1.223   7.174
 3327SOL    HW110733   3.707   1.184   7.161
 3327SOL    HW210734   3.624   1.319   7.198
 3328SOL     OW10735   2.926   1.347   6.926
 3328SOL    HW110736   2.846   1.324   6.981
 3328SOL    HW210737   3.009   1.321   6.975
 3329SOL     OW10738   3.454   1.629   7.211
 3329SOL    HW110739   3.481   1.663   7.121
 3329SOL    HW210740   3.533   1.591   7.257
 3330SOL     OW10741   2.973   1.195   6.686
 3330SOL    HW110742   2.933   1.239   6.767
 3330SOL    HW210743   2.932   1.232   6.603
 3331SOL     OW10744   3.500   1.099   6.665
 3331SOL    HW110745   3.505   1.180   6.724
 3331SOL    HW210746   3.414   1.101   6.614
 3332SOL     OW10747   2.777   0.089   6.988
 3332SOL    HW110748   2.802   0.069   6.893
 3332SOL    HW210749   2.849   0.145   7.030
 3333SOL     OW10750   2.842   1.116   7.305
 3333SOL    HW110751   2.743   1.122   7.315
 3333SOL    HW210752   2.865   1.036   7.249
 3334SOL     OW10753   2.567   1.050   5.954
 3334SOL    HW110754   2.553   1.057   6.053
 3334SOL    HW210755   2.651   0.999   5.936
 3335SOL     OW10756   2.272   0.813   6.837
 3335SOL    HW110757   2.358   0.825   6.887
 3335SOL    HW210758   2.230   0.726   6.864
 3336SOL     OW10759   3.136   0.386   6.848
 3336SOL    HW110760   3.157   0.460   6.912
 3336SOL    HW210761   3.047   0.403   6.805
 3337SOL     OW10762   1.926   1.564   6.917
 3337SOL    HW110763   1.880   1.646   6.883
 3337SOL    HW210764   2.024   1.583   6.926
 3338SOL     OW10765   2.229   1.100   6.087
 3338SOL    HW110766   2.222   1.183   6.031
 3338SOL    HW210767   2.233   1.020   6.027
 3339SOL     OW10768   2.428   0.537   6.451
 3339SOL    HW110769   2.440   0.603   6.377
 3339SOL    HW210770   2.474   0.571   6.534
 3340SOL     OW10771   3.114   1.348   5.974
 3340SOL    HW110772   3.164   1.425   6.014
 3340SOL    HW210773   3.019   1.350   6.006
 3341SOL     OW10774   3.134   1.445   6.728
 3341SOL    HW110775   3.181   1.458   6.815
 3341SOL    HW210776   3.068   1.371   6.737
 3342SOL     OW10777   3.444   0.639   6.058
 3342SOL    HW110778   3.413   0.700   6.131
 3342SOL    HW210779   3.494   0.691   5.989
 3343SOL     OW10780   2.216   1.510   6.915
 3343SOL    HW110781   2.195   1.466   6.828
 3343SOL    HW210782   2.313   1.536   6.918
 3344SOL     OW10783   2.264   0.751   7.184
 3344SOL    HW110784   2.332   0.806   7.137
 3344SOL    HW210785   2.304   0.663   7.211
 3345SOL     OW10786   3.449   0.779   7.256
 3345SOL    HW110787   3.357   0.817   7.251
 3345SOL    HW210788   3.509   0.826   7.191
 3346SOL     OW10789   2.875   0.105   7.356
 3346SOL    HW110790   2.881   0.190   7.304
 3346SOL    HW210791   2.907   0.029   7.299
 3347SOL     OW10792   2.366   0.050   7.326
 3347SOL    HW110793   2.324  -0.007   7.256
 3347SOL    HW210794   2.300   0.119   7.358
 3348SOL     OW10795   2.435   0.870   6.615
 3348SOL    HW110796   2.479   0.959   6.606
 3348SOL    HW210797   2.372   0.870   6.692
 3349SOL     OW10798   3.222   0.862   6.631
 3349SOL    HW110799   3.147   0.862   6.565
 3349SOL    HW210800   3.259   0.770   6.640
 3350SOL     OW10801   3.071   0.525   5.861
 3350SOL    HW110802   3.084   0.441   5.915
 3350SOL    HW210803   3.042   0.599   5.921
 3351SOL     OW10804   2.169   0.213   6.817
 3351SOL    HW110805   2.146   0.250   6.907
 3351SOL    HW210806   2.139   0.118   6.811
 3352SOL     OW10807   1.899   1.310   6.868
 3352SOL    HW110808   1.952   1.261   6.936
 3352SOL    HW210809   1.921   1.408   6.873
 3353SOL     OW10810   2.594   0.634   6.650
 3353SOL    HW110811   2.653   0.608   6.574
 3353SOL    HW210812   2.566   0.730   6.639
 3354SOL     OW10813   3.590   0.935   7.440
 3354SOL    HW110814   3.544   0.928   7.351
 3354SOL    HW210815   3.528   0.979   7.506
 3355SOL     OW10816   2.169   0.063   6.204
 3355SOL    HW110817   2.158   0.157   6.237
 3355SOL    HW210818   2.164   0.000   6.281
 3356SOL     OW10819   3.484   0.367   5.960
 3356SOL    HW110820   3.486   0.291   6.024
 3356SOL    HW210821   3.436   0.444   6.000
 3357SOL     OW10822   2.885   0.766   6.552
 3357SOL    HW110823   2.900   0.787   6.648
 3357SOL    HW210824   2.855   0.671   6.543
 3358SOL     OW10825   2.842   1.573   7.286
 3358SOL    HW110826   2.822   1.617   7.198
 3358SOL    HW210827   2.881   1.482   7.270
 3359SOL     OW10828   3.721   1.518   7.191
 3359SOL    HW110829   3.735   1.545   7.096
 3359SOL    HW210830   3.804   1.540   7.244
 3360SOL     OW10831   2.212   0.898   7.390
 3360SOL    HW110832   2.288   0.942   7.438
 3360SOL    HW210833   2.247   0.851   7.308
 3361SOL     OW10834   3.402   0.274   5.711
 3361SOL    HW110835   3.341   0.199   5.734
 3361SOL    HW210836   3.424   0.326   5.794
 3362SOL     OW10837   3.165   0.838   5.628
 3362SOL    HW110838   3.199   0.745   5.643
 3362SOL    HW210839   3.183   0.865   5.533
 3363SOL     OW10840   2.930   1.333   6.435
 3363SOL    HW110841   2.937   1.249   6.380
 3363SOL    HW210842   2.992   1.402   6.399
 3364SOL     OW10843   2.181   0.810   6.535
 3364SOL    HW110844   2.274   0.846   6.540
 3364SOL    HW210845   2.175   0.725   6.587
 3365SOL     OW10846   2.201   0.509   6.592
 3365SOL    HW110847   2.149   0.426   6.575
 3365SOL    HW210848   2.278   0.514   6.528
 3366SOL     OW10849   3.000   0.380   7.264
 3366SOL    HW110850   2.955   0.443   7.328
 3366SOL    HW210851   3.093   0.411   7.247
 3367SOL     OW10852   3.022   0.207   7.063
 3367SOL    HW110853   3.022   0.271   7.140
 3367SOL    HW210854   3.050   0.255   6.980
 3368SOL     OW10855   1.870   1.326   5.786
 3368SOL    HW110856   1.777   1.347   5.755
 3368SOL    HW210857   1.880   1.227   5.799
 3369SOL     OW10858   1.950   1.801   6.513
 3369SOL    HW110859   1.908   1.715   6.486
 3369SOL    HW210860   2.044   1.804   6.479
 3370SOL     OW10861   2.366   1.568   6.496
 3370SOL    HW110862   2.432   1.642   6.505
 3370SOL    HW210863   2.410   1.489   6.454
 3371SOL     OW10864   2.864   0.796   6.824
 3371SOL    HW110865   2.905   0.764   6.910
 3371SOL    HW210866   2.768   0.769   6.821
 3372SOL     OW10867   1.902   0.544   6.700
 3372SOL    HW110868   1.987   0.511   6.659
 3372SOL    HW210869   1.915   0.559   6.798
 3373SOL     OW10870   2.051   0.520   7.308
 3373SOL    HW110871   2.110   0.480   7.238
 3373SOL    HW210872   1.993   0.591   7.267
 3374SOL     OW10873   3.231   0.950   7.246
 3374SOL    HW110874   3.270   1.039   7.266
 3374SOL    HW210875   3.241   0.930   7.149
 3375SOL     OW10876   2.677   0.572   5.911
 3375SOL    HW110877   2.684   0.483   5.865
 3375SOL    HW210878   2.583   0.606   5.903
 3376SOL     OW10879   3.519   0.604   6.792
 3376SOL    HW110880   3.481   0.535   6.854
 3376SOL    HW210881   3.601   0.568   6.748
 3377SOL     OW10882   2.114   1.564   7.330
 3377SOL    HW110883   2.084   1.621   7.406
 3377SOL    HW210884   2.107   1.467   7.356
 3378SOL     OW10885   2.533   0.464   6.855
 3378SOL    HW110886   2.499   0.375   6.825
 3378SOL    HW210887   2.559   0.518   6.775
 3379SOL     OW10888   2.792   1.678   7.051
 3379SOL    HW110889   2.768   1.660   6.956
 3379SOL    HW210890   2.822   1.772   7.061
 3380SOL     OW10891   2.335   0.500   5.777
 3380SOL    HW110892   2.396   0.580   5.781
 3380SOL    HW210893   2.240   0.531   5.784
 3381SOL     OW10894   2.021   1.137   7.052
 3381SOL    HW110895   2.043   1.076   7.128
 3381SOL    HW210896   2.031   1.088   6.966
 3382SOL     OW10897   3.209   1.059   6.820
 3382SOL    HW110898   3.233   0.996   6.746
 3382SOL    HW210899   3.119   1.099   6.802
 3383SOL     OW10900   3.164   0.855   5.895
 3383SOL    HW110901   3.078   0.824   5.937
 3383SOL    HW210902   3.160   0.841   5.796
 3384SOL     OW10903   3.621   1.747   6.740
 3384SOL    HW110904   3.682   1.777   6.667
 3384SOL    HW210905   3.583   1.658   6.718
 3385SOL     OW10906   3.114   1.731   6.714
 3385SOL    HW110907   3.198   1.736   6.660
 3385SOL    HW210908   3.091   1.635   6.732
 3386SOL     OW10909   1.945   1.258   6.608
 3386SOL    HW110910   1.940   1.257   6.708
 3386SOL    HW210911   1.862   1.217   6.570
 3387SOL     OW10912   2.550   1.662   7.302
 3387SOL    HW110913   2.494   1.743   7.311
 3387SOL    HW210914   2.602   1.666   7.216
 3388SOL     OW10915   3.588   0.135   6.109
 3388SOL    HW110916   3.661   0.118   6.042
 3388SOL    HW210917   3.557   0.048   6.147
 3389SOL     OW10918   3.250   1.573   6.063
 3389SOL    HW110919   3.317   1.585   5.989
 3389SOL    HW210920   3.210   1.662   6.086
 3390SOL     OW10921   1.992   1.794   7.437
 3390SOL    HW110922   1.951   1.720   7.490
 3390SOL    HW210923   2.056   1.845   7.495
 3391SOL     OW10924   3.142   0.927   6.258
 3391SOL    HW110925   3.202   0.846   6.260
 3391SOL    HW210926   3.182   0.996   6.198
 3392SOL     OW10927   2.692   1.273   7.008
 3392SOL    HW110928   2.687   1.306   7.103
 3392SOL    HW210929   2.606   1.292   6.962
 3393SOL     OW10930   2.534   1.616   5.740
 3393SOL    HW110931   2.543   1.626   5.641
 3393SOL    HW210932   2.494   1.527   5.761
 3394SOL     OW10933   3.512   1.720   6.980
 3394SOL    HW110934   3.565   1.730   6.896
 3394SOL    HW210935   3.485   1.810   7.014
 3395SOL     OW10936   3.703   0.175   6.549
 3395SOL    HW110937   3.742   0.090   6.513
 3395SOL    HW210938   3.605   0.177   6.530
 3396SOL     OW10939   2.125   0.326   6.306
 3396SOL    HW110940   2.046   0.377   6.272
 3396SOL    HW210941   2.116   0.311   6.404
 3397SOL     OW10942   3.056   1.612   5.617
 3397SOL    HW110943   3.062   1.519   5.654
 3397SOL    HW210944   2.997   1.612   5.537
 3398SOL     OW10945   2.684   1.002   6.958
 3398SOL    HW110946   2.724   1.001   6.866
 3398SOL    HW210947   2.694   1.094   6.998
 3399SOL     OW10948   2.778   0.910   5.877
 3399SOL    HW110949   2.841   0.948   5.809
 3399SOL    HW210950   2.818   0.827   5.916
 3400SOL     OW10951   3.366   1.607   5.630
 3400SOL    HW110952   3.274   1.644   5.637
 3400SOL    HW210953   3.404   1.627   5.540
 3401SOL     OW10954   2.234   1.288   7.076
 3401SOL    HW110955   2.221   1.381   7.042
 3401SOL    HW210956   2.150   1.236   7.063
 3402SOL     OW10957   3.476   1.292   6.875
 3402SOL    HW110958   3.536   1.295   6.955
 3402SOL    HW210959   3.401   1.356   6.888
 3403SOL     OW10960   2.901   1.098   6.282
 3403SOL    HW110961   2.831   1.051   6.336
 3403SOL    HW210962   2.960   1.030   6.239
 3404SOL     OW10963   2.876   0.236   6.557
 3404SOL    HW110964   2.868   0.200   6.464
 3404SOL    HW210965   2.874   0.160   6.622
 3405SOL     OW10966   2.452   1.487   6.077
 3405SOL    HW110967   2.494   1.429   6.007
 3405SOL    HW210968   2.408   1.566   6.033
 3406SOL     OW10969   3.571   0.385   6.967
 3406SOL    HW110970   3.644   0.454   6.971
 3406SOL    HW210971   3.599   0.310   6.908
 3407SOL     OW10972   2.117   1.348   5.876
 3407SOL    HW110973   2.021   1.349   5.849
 3407SOL    HW210974   2.129   1.401   5.960
 3408SOL     OW10975   1.967   1.013   7.312
 3408SOL    HW110976   1.890   0.980   7.366
 3408SOL    HW210977   2.052   0.983   7.354
 3409SOL     OW10978   2.534   0.203   7.075
 3409SOL    HW110979   2.624   0.187   7.035
 3409SOL    HW210980   2.542   0.208   7.174
 3410SOL     OW10981   1.937   0.345   5.619
 3410SOL    HW110982   1.845   0.317   5.590
 3410SOL    HW210983   1.968   0.422   5.563
 3411SOL     OW10984   3.302   0.856   6.984
 3411SOL    HW110985   3.245   0.908   6.921
 3411SOL    HW210986   3.398   0.868   6.960
 3412SOL     OW10987   1.934   0.166   5.904
 3412SOL    HW110988   1.917   0.249   5.850
 3412SOL    HW210989   2.024   0.129   5.882
 3413SOL     OW10990   3.045   1.335   5.705
 3413SOL    HW110991   2.946   1.324   5.707
 3413SOL    HW210992   3.079   1.350   5.798
 3414SOL     OW10993   2.475   0.842   7.017
 3414SOL    HW110994   2.531   0.923   7.000
 3414SOL    HW210995   2.534   0.762   7.020
 3415SOL     OW10996   3.355   1.767   6.545
 3415SOL    HW110997   3.388   1.831   6.476
 3415SOL    HW210998   3.421   1.761   6.620
 3416SOL     OW10999   2.578   0.565   7.294
 3416SOL    HW111000   2.597   0.630   7.368
 3416SOL    HW211001   2.638   0.485   7.303
 3417SOL     OW11002   3.312   1.220   7.219
 3417SOL    HW111003   3.303   1.210   7.318
 3417SOL    HW211004   3.408   1.213   7.193
 3418SOL     OW11005   2.252   1.741   7.146
 3418SOL    HW111006   2.161   1.782   7.144
 3418SOL    HW211007   2.245   1.647   7.178
 3419SOL     OW11008   3.536   0.883   6.840
 3419SOL    HW111009   3.509   0.794   6.803
 3419SOL    HW211010   3.537   0.951   6.767
 3420SOL     OW11011   3.087   0.325   6.035
 3420SOL    HW111012   3.152   0.251   6.024
 3420SOL    HW211013   3.107   0.375   6.119
 3421SOL     OW11014   2.456   0.745   6.238
 3421SOL    HW111015   2.506   0.830   6.219
 3421SOL    HW211016   2.368   0.747   6.190
 3422SOL     OW11017   3.639   0.342   7.228
 3422SOL    HW111018   3.622   0.373   7.134
 3422SOL    HW211019   3.555   0.305   7.266
 3423SOL     OW11020   3.592   0.934   7.103
 3423SOL    HW111021   3.630   1.025   7.118
 3423SOL    HW211022   3.584   0.917   7.004
 3424SOL     OW11023   2.721   1.374   5.602
 3424SOL    HW111024   2.675   1.389   5.690
 3424SOL    HW211025   2.765   1.459   5.572
 3425SOL     OW11026   2.523   1.790   6.539
 3425SOL    HW111027   2.477   1.878   6.526
 3425SOL    HW211028   2.622   1.802   6.532
 3426SOL     OW11029   2.721   0.956   6.447
 3426SOL    HW111030   2.775   0.887   6.495
 3426SOL    HW211031   2.689   1.025   6.513
 3427SOL     OW11032   2.945   0.984   5.673
 3427SOL    HW111033   2.922   1.037   5.591
 3427SOL    HW211034   3.026   0.928   5.654
 3428SOL     OW11035   3.723   1.569   6.437
 3428SOL    HW111036   3.652   1.557   6.367
 3428SOL    HW211037   3.724   1.490   6.497
 3429SOL     OW11038   2.083   1.314   7.430
 3429SOL    HW111039   2.018   1.241   7.409
 3429SOL    HW211040   2.087   1.328   7.528
 3430SOL     OW11041   1.941   1.240   6.239
 3430SOL    HW111042   1.940   1.193   6.327
 3430SOL    HW211043   2.023   1.212   6.188
 3431SOL     OW11044   2.534   1.391   7.210
 3431SOL    HW111045   2.456   1.341   7.248
 3431SOL    HW211046   2.531   1.486   7.241
 3432SOL     OW11047   3.686   0.192   6.813
 3432SOL    HW111048   3.682   0.102   6.857
 3432SOL    HW211049   3.689   0.181   6.714
 3433SOL     OW11050   2.290   0.424   6.106
 3433SOL    HW111051   2.320   0.352   6.044
 3433SOL    HW211052   2.251   0.384   6.189
 3434SOL     OW11053   3.567   1.487   6.690
 3434SOL    HW111054   3.474   1.462   6.663
 3434SOL    HW211055   3.593   1.437   6.772
 3435SOL     OW11056   2.179   0.547   6.866
 3435SOL    HW111057   2.217   0.488   6.938
 3435SOL    HW211058   2.219   0.521   6.778
 3436SOL     OW11059   2.674   1.586   6.273
 3436SOL    HW111060   2.706   1.596   6.179
 3436SOL    HW211061   2.595   1.524   6.275
 3437SOL     OW11062   3.286   0.214   6.698
 3437SOL    HW111063   3.338   0.149   6.753
 3437SOL    HW211064   3.237   0.277   6.759
 3438SOL     OW11065   2.863   0.034   6.740
 3438SOL    HW111066   2.800  -0.038   6.709
 3438SOL    HW211067   2.956  -0.002   6.740
 3439SOL     OW11068   2.632   1.330   5.887
 3439SOL    HW111069   2.586   1.243   5.904
 3439SOL    HW211070   2.723   1.327   5.928
 3440SOL     OW11071   2.480   1.567   6.870
 3440SOL    HW111072   2.475   1.649   6.927
 3440SOL    HW211073   2.569   1.564   6.825
 3441SOL     OW11074   3.214   0.052   5.754
 3441SOL    HW111075   3.249   0.011   5.670
 3441SOL    HW211076   3.124   0.014   5.774
 3442SOL     OW11077   3.162   0.453   6.277
 3442SOL    HW111078   3.103   0.533   6.281
 3442SOL    HW211079   3.177   0.418   6.370
 3443SOL     OW11080   3.455   0.221   6.468
 3443SOL    HW111081   3.371   0.220   6.522
 3443SOL    HW211082   3.457   0.304   6.412
 3444SOL     OW11083   1.901   1.077   5.886
 3444SOL    HW111084   2.000   1.066   5.877
 3444SOL    HW211085   1.861   0.991   5.918
 3445SOL     OW11086   2.737   1.646   5.923
 3445SOL    HW111087   2.660   1.611   5.869
 3445SOL    HW211088   2.705   1.717   5.985
 3446SOL     OW11089   2.092   0.628   7.561
 3446SOL    HW111090   1.999   0.626   7.598
 3446SOL    HW211091   2.093   0.589   7.469
 3447SOL     OW11092   3.617   0.607   7.679
 3447SOL    HW111093   3.605   0.594   7.580
 3447SOL    HW211094   3.587   0.526   7.728
 3448SOL     OW11095   2.093   1.713   7.931
 3448SOL    HW111096   2.127   1.790   7.985
 3448SOL    HW211097   2.137   1.713   7.841
 3449SOL     OW11098   2.092   1.434   7.986
 3449SOL    HW111099   2.066   1.530   7.986
 3449SOL    HW211100   2.021   1.380   8.031
 3450SOL     OW11101   2.468   0.964   7.571
 3450SOL    HW111102   2.475   1.048   7.517
 3450SOL    HW211103   2.514   0.977   7.659
 3451SOL     OW11104   3.704   1.767   7.807
 3451SOL    HW111105   3.758   1.738   7.887
 3451SOL    HW211106   3.734   1.857   7.778
 3452SOL     OW11107   1.889   1.596   7.565
 3452SOL    HW111108   1.870   1.500   7.586
 3452SOL    HW211109   1.856   1.654   7.640
 3453SOL     OW11110   3.551   0.922   8.060
 3453SOL    HW111111   3.646   0.893   8.068
 3453SOL    HW211112   3.543   0.987   7.985
 3454SOL     OW11113   3.503   1.108   7.880
 3454SOL    HW111114   3.589   1.110   7.828
 3454SOL    HW211115   3.517   1.155   7.968
 3455SOL     OW11116   2.671   0.004   7.950
 3455SOL    HW111117   2.711   0.095   7.941
 3455SOL    HW211118   2.571   0.012   7.956
 3456SOL     OW11119   3.387   0.999   7.638
 3456SOL    HW111120   3.324   0.923   7.651
 3456SOL    HW211121   3.435   1.017   7.724
 3457SOL     OW11122   2.460   0.729   7.718
 3457SOL    HW111123   2.484   0.798   7.650
 3457SOL    HW211124   2.382   0.762   7.772
 3458SOL     OW11125   3.438   1.662   7.755
 3458SOL    HW111126   3.527   1.708   7.758
 3458SOL    HW211127   3.417   1.638   7.660
 3459SOL     OW11128   1.938   0.811   8.237
 3459SOL    HW111129   2.037   0.799   8.246
 3459SOL    HW211130   1.914   0.906   8.258
 3460SOL     OW11131   2.727   0.348   7.643
 3460SOL    HW111132   2.786   0.411   7.594
 3460SOL    HW211133   2.746   0.254   7.614
 3461SOL     OW11134   2.183   0.943   7.690
 3461SOL    HW111135   2.265   0.982   7.648
 3461SOL    HW211136   2.156   0.861   7.641
 3462SOL     OW11137   2.973   1.776   7.685
 3462SOL    HW111138   2.913   1.714   7.735
 3462SOL    HW211139   3.004   1.732   7.600
 3463SOL     OW11140   3.494   1.377   7.529
 3463SOL    HW111141   3.462   1.471   7.519
 3463SOL    HW211142   3.418   1.314   7.517
 3464SOL     OW11143   2.326   1.743   7.771
 3464SOL    HW111144   2.359   1.782   7.857
 3464SOL    HW211145   2.402   1.736   7.706
 3465SOL     OW11146   3.262   0.107   7.874
 3465SOL    HW111147   3.238   0.070   7.784
 3465SOL    HW211148   3.361   0.123   7.878
 3466SOL     OW11149   2.244   0.700   7.928
 3466SOL    HW111150   2.289   0.610   7.925
 3466SOL    HW211151   2.150   0.689   7.961
 3467SOL     OW11152   2.476   0.122   7.565
 3467SOL    HW111153   2.574   0.100   7.572
 3467SOL    HW211154   2.445   0.105   7.472
 3468SOL     OW11155   2.401   0.064   7.960
 3468SOL    HW111156   2.320   0.065   8.018
 3468SOL    HW211157   2.404   0.147   7.905
 3469SOL     OW11158   3.296   1.188   7.489
 3469SOL    HW111159   3.328   1.112   7.546
 3469SOL    HW211160   3.204   1.215   7.519
 3470SOL     OW11161   2.159   0.035   7.619
 3470SOL    HW111162   2.208   0.119   7.598
 3470SOL    HW211163   2.221  -0.030   7.664
 3471SOL     OW11164   2.797   0.236   7.928
 3471SOL    HW111165   2.749   0.277   7.850
 3471SOL    HW211166   2.896   0.234   7.909
 3472SOL     OW11167   2.321   1.152   8.189
 3472SOL    HW111168   2.250   1.125   8.254
 3472SOL    HW211169   2.295   1.124   8.096
 3473SOL     OW11170   3.133   1.797   8.039
 3473SOL    HW111171   3.177   1.861   7.975
 3473SOL    HW211172   3.083   1.849   8.109
 3474SOL     OW11173   2.894   0.549   7.464
 3474SOL    HW111174   2.853   0.631   7.425
 3474SOL    HW211175   2.958   0.575   7.537
 3475SOL     OW11176   3.719   0.833   7.825
 3475SOL    HW111177   3.761   0.769   7.889
 3475SOL    HW211178   3.681   0.782   7.747
 3476SOL     OW11179   2.350   1.385   7.622
 3476SOL    HW111180   2.263   1.370   7.669
 3476SOL    HW211181   2.333   1.411   7.527
 3477SOL     OW11182   3.252   0.575   7.526
 3477SOL    HW111183   3.198   0.554   7.607
 3477SOL    HW211184   3.343   0.534   7.535
 3478SOL     OW11185   2.389   0.256   7.776
 3478SOL    HW111186   2.416   0.197   7.701
 3478SOL    HW211187   2.389   0.351   7.745
 3479SOL     OW11188   2.567   1.050   7.816
 3479SOL    HW111189   2.553   1.057   7.915
 3479SOL    HW211190   2.651   0.999   7.798
 3480SOL     OW11191   2.229   1.100   7.949
 3480SOL    HW111192   2.222   1.183   7.893
 3480SOL    HW211193   2.233   1.020   7.889
 3481SOL     OW11194   3.114   1.348   7.836
 3481SOL    HW111195   3.164   1.425   7.876
 3481SOL    HW211196   3.019   1.350   7.868
 3482SOL     OW11197   3.444   0.639   7.920
 3482SOL    HW111198   3.413   0.700   7.993
 3482SOL    HW211199   3.494   0.691   7.851
 3483SOL     OW11200   3.071   0.525   7.723
 3483SOL    HW111201   3.084   0.441   7.777
 3483SOL    HW211202   3.042   0.599   7.783
 3484SOL     OW11203   3.484   0.367   7.822
 3484SOL    HW111204   3.486   0.291   7.886
 3484SOL    HW211205   3.436   0.444   7.862
 3485SOL     OW11206   3.402   0.274   7.573
 3485SOL    HW111207   3.341   0.199   7.596
 3485SOL    HW211208   3.424   0.326   7.656
 3486SOL     OW11209   3.165   0.838   7.490
 3486SOL    HW111210   3.199   0.745   7.505
 3486SOL    HW211211   3.183   0.865   7.395
 3487SOL     OW11212   1.870   1.326   7.648
 3487SOL    HW111213   1.777   1.347   7.617
 3487SOL    HW211214   1.880   1.227   7.661
 3488SOL     OW11215   2.677   0.572   7.773
 3488SOL    HW111216   2.684   0.483   7.727
 3488SOL    HW211217   2.583   0.606   7.765
 3489SOL     OW11218   2.335   0.500   7.639
 3489SOL    HW111219   2.396   0.580   7.643
 3489SOL    HW211220   2.240   0.531   7.646
 3490SOL     OW11221   3.164   0.855   7.757
 3490SOL    HW111222   3.078   0.824   7.799
 3490SOL    HW211223   3.160   0.841   7.658
 3491SOL     OW11224   3.588   0.135   7.971
 3491SOL    HW111225   3.661   0.118   7.904
 3491SOL    HW211226   3.557   0.048   8.009
 3492SOL     OW11227   3.250   1.573   7.925
 3492SOL    HW111228   3.317   1.585   7.851
 3492SOL    HW211229   3.210   1.662   7.948
 3493SOL     OW11230   2.534   1.616   7.602
 3493SOL    HW111231   2.543   1.626   7.503
 3493SOL    HW211232   2.494   1.527   7.623
 3494SOL     OW11233   3.056   1.612   7.479
 3494SOL    HW111234   3.062   1.519   7.516
 3494SOL    HW211235   2.997   1.612   7.399
 3495SOL     OW11236   2.778   0.910   7.739
 3495SOL    HW111237   2.841   0.948   7.671
 3495SOL    HW211238   2.818   0.827   7.778
 3496SOL     OW11239   3.366   1.607   7.492
 3496SOL    HW111240   3.274   1.644   7.499
 3496SOL    HW211241   3.404   1.627   7.402
 3497SOL     OW11242   2.452   1.487   7.939
 3497SOL    HW111243   2.494   1.429   7.869
 3497SOL    HW211244   2.408   1.566   7.895
 3498SOL     OW11245   2.117   1.348   7.738
 3498SOL    HW111246   2.021   1.349   7.711
 3498SOL    HW211247   2.129   1.401   7.822
 3499SOL     OW11248   1.937   0.345   7.481
 3499SOL    HW111249   1.845   0.317   7.452
 3499SOL    HW211250   1.968   0.422   7.425
 3500SOL     OW11251   1.934   0.166   7.766
 3500SOL    HW111252   1.917   0.249   7.712
 3500SOL    HW211253   2.024   0.129   7.744
 3501SOL     OW11254   3.045   1.335   7.567
 3501SOL    HW111255   2.946   1.324   7.569
 3501SOL    HW211256   3.079   1.350   7.660
 3502SOL     OW11257   3.087   0.325   7.897
 3502SOL    HW111258   3.152   0.251   7.886
 3502SOL    HW211259   3.107   0.375   7.981
 3503SOL     OW11260   2.456   0.745   8.100
 3503SOL    HW111261   2.506   0.830   8.081
 3503SOL    HW211262   2.368   0.747   8.052
 3504SOL     OW11263   2.721   1.374   7.464
 3504SOL    HW111264   2.675   1.389   7.552
 3504SOL    HW211265   2.765   1.459   7.434
 3505SOL     OW11266   2.945   0.984   7.535
 3505SOL    HW111267   2.922   1.037   7.453
 3505SOL    HW211268   3.026   0.928   7.516
 3506SOL     OW11269   2.290   0.424   7.968
 3506SOL    HW111270   2.320   0.352   7.906
 3506SOL    HW211271   2.251   0.384   8.051
 3507SOL     OW11272   2.632   1.330   7.749
 3507SOL    HW111273   2.586   1.243   7.766
 3507SOL    HW211274   2.723   1.327   7.790
 3508SOL     OW11275   3.214   0.052   7.616
 3508SOL    HW111276   3.249   0.011   7.532
 3508SOL    HW211277   3.124   0.014   7.636
 3509SOL     OW11278   1.901   1.077   7.748
 3509SOL    HW111279   2.000   1.066   7.739
 3509SOL    HW211280   1.861   0.991   7.780
 3510SOL     OW11281   2.737   1.646   7.785
 3510SOL    HW111282   2.660   1.611   7.731
 3510SOL    HW211283   2.705   1.717   7.847
 3511SOL     OW11284   2.092   2.490   0.113
 3511SOL    HW111285   1.999   2.488   0.150
 3511SOL    HW211286   2.093   2.451   0.021
 3512SOL     OW11287   2.087   2.137   0.996
 3512SOL    HW111288   2.122   2.120   1.088
 3512SOL    HW211289   1.999   2.092   0.984
 3513SOL     OW11290   1.881   2.230   0.647
 3513SOL    HW111291   1.799   2.273   0.686
 3513SOL    HW211292   1.853   2.157   0.584
 3514SOL     OW11293   2.431   3.137   1.165
 3514SOL    HW111294   2.338   3.130   1.128
 3514SOL    HW211295   2.442   3.226   1.209
 3515SOL     OW11296   3.417   3.373   0.703
 3515SOL    HW111297   3.360   3.357   0.784
 3515SOL    HW211298   3.358   3.383   0.623
 3516SOL     OW11299   3.617   2.469   0.231
 3516SOL    HW111300   3.605   2.456   0.132
 3516SOL    HW211301   3.587   2.388   0.280
 3517SOL     OW11302   2.630   3.006   1.023
 3517SOL    HW111303   2.552   3.023   1.083
 3517SOL    HW211304   2.664   3.093   0.987
 3518SOL     OW11305   2.548   3.023   1.803
 3518SOL    HW111306   2.608   3.102   1.817
 3518SOL    HW211307   2.462   3.054   1.762
 3519SOL     OW11308   2.197   3.297   1.061
 3519SOL    HW111309   2.119   3.266   1.008
 3519SOL    HW211310   2.255   3.355   1.004
 3520SOL     OW11311   3.322   3.367   1.339
 3520SOL    HW111312   3.346   3.461   1.365
 3520SOL    HW211313   3.306   3.313   1.421
 3521SOL     OW11314   2.300   2.254   1.499
 3521SOL    HW111315   2.382   2.198   1.508
 3521SOL    HW211316   2.219   2.196   1.503
 3522SOL     OW11317   3.465   2.309   0.737
 3522SOL    HW111318   3.391   2.355   0.687
 3522SOL    HW211319   3.516   2.377   0.790
 3523SOL     OW11320   2.093   3.575   0.483
 3523SOL    HW111321   2.127   3.652   0.537
 3523SOL    HW211322   2.137   3.575   0.393
 3524SOL     OW11323   2.989   3.203   1.690
 3524SOL    HW111324   3.036   3.203   1.778
 3524SOL    HW211325   2.941   3.116   1.679
 3525SOL     OW11326   2.092   3.296   0.538
 3525SOL    HW111327   2.066   3.392   0.538
 3525SOL    HW211328   2.021   3.242   0.583
 3526SOL     OW11329   2.102   2.953   0.886
 3526SOL    HW111330   2.116   2.869   0.938
 3526SOL    HW211331   2.047   3.017   0.941
 3527SOL     OW11332   2.482   3.648   1.439
 3527SOL    HW111333   2.390   3.631   1.474
 3527SOL    HW211334   2.510   3.740   1.465
 3528SOL     OW11335   2.468   2.826   0.123
 3528SOL    HW111336   2.475   2.910   0.069
 3528SOL    HW211337   2.514   2.839   0.211
 3529SOL     OW11338   3.456   1.976   1.480
 3529SOL    HW111339   3.438   2.043   1.408
 3529SOL    HW211340   3.453   2.022   1.569
 3530SOL     OW11341   1.984   2.505   0.563
 3530SOL    HW111342   1.939   2.417   0.580
 3530SOL    HW211343   1.983   2.559   0.647
 3531SOL     OW11344   3.704   3.629   0.359
 3531SOL    HW111345   3.758   3.600   0.439
 3531SOL    HW211346   3.734   3.719   0.330
 3532SOL     OW11347   1.889   3.458   0.117
 3532SOL    HW111348   1.870   3.362   0.138
 3532SOL    HW211349   1.856   3.516   0.192
 3533SOL     OW11350   3.551   2.784   0.612
 3533SOL    HW111351   3.646   2.755   0.620
 3533SOL    HW211352   3.543   2.849   0.537
 3534SOL     OW11353   3.503   2.970   0.432
 3534SOL    HW111354   3.589   2.972   0.380
 3534SOL    HW211355   3.517   3.017   0.520
 3535SOL     OW11356   1.975   2.599   1.597
 3535SOL    HW111357   2.063   2.586   1.642
 3535SOL    HW211358   1.962   2.696   1.575
 3536SOL     OW11359   2.475   3.227   0.726
 3536SOL    HW111360   2.426   3.140   0.735
 3536SOL    HW211361   2.452   3.270   0.639
 3537SOL     OW11362   3.155   3.090   1.423
 3537SOL    HW111363   3.192   3.017   1.365
 3537SOL    HW211364   3.207   3.095   1.508
 3538SOL     OW11365   2.671   1.866   0.502
 3538SOL    HW111366   2.711   1.957   0.493
 3538SOL    HW211367   2.571   1.874   0.508
 3539SOL     OW11368   2.059   2.838   1.264
 3539SOL    HW111369   2.148   2.793   1.250
 3539SOL    HW211370   1.986   2.773   1.245
 3540SOL     OW11371   3.387   2.861   0.190
 3540SOL    HW111372   3.324   2.785   0.203
 3540SOL    HW211373   3.435   2.879   0.276
 3541SOL     OW11374   3.049   3.654   1.616
 3541SOL    HW111375   3.073   3.714   1.540
 3541SOL    HW211376   3.056   3.559   1.586
 3542SOL     OW11377   2.179   2.113   1.801
 3542SOL    HW111378   2.250   2.184   1.807
 3542SOL    HW211379   2.091   2.152   1.829
 3543SOL     OW11380   3.328   3.279   0.953
 3543SOL    HW111381   3.269   3.285   1.033
 3543SOL    HW211382   3.313   3.191   0.907
 3544SOL     OW11383   3.529   3.576   0.572
 3544SOL    HW111384   3.488   3.553   0.484
 3544SOL    HW211385   3.511   3.502   0.637
 3545SOL     OW11386   3.143   2.207   0.944
 3545SOL    HW111387   3.057   2.157   0.931
 3545SOL    HW211388   3.205   2.153   1.000
 3546SOL     OW11389   3.438   3.524   0.307
 3546SOL    HW111390   3.527   3.570   0.310
 3546SOL    HW211391   3.417   3.500   0.212
 3547SOL     OW11392   3.256   2.331   1.674
 3547SOL    HW111393   3.236   2.374   1.762
 3547SOL    HW211394   3.334   2.269   1.683
 3548SOL     OW11395   2.853   2.272   1.242
 3548SOL    HW111396   2.776   2.306   1.296
 3548SOL    HW211397   2.819   2.221   1.163
 3549SOL     OW11398   1.938   2.673   0.789
 3549SOL    HW111399   2.037   2.661   0.798
 3549SOL    HW211400   1.914   2.768   0.810
 3550SOL     OW11401   1.992   3.683   1.571
 3550SOL    HW111402   1.982   3.668   1.670
 3550SOL    HW211403   1.906   3.719   1.535
 3551SOL     OW11404   2.727   2.210   0.195
 3551SOL    HW111405   2.786   2.273   0.146
 3551SOL    HW211406   2.746   2.116   0.166
 3552SOL     OW11407   3.581   2.447   1.831
 3552SOL    HW111408   3.555   2.536   1.795
 3552SOL    HW211409   3.579   2.379   1.758
 3553SOL     OW11410   3.224   3.006   0.545
 3553SOL    HW111411   3.307   2.977   0.497
 3553SOL    HW211412   3.175   3.073   0.489
 3554SOL     OW11413   2.412   2.058   0.885
 3554SOL    HW111414   2.407   2.053   0.985
 3554SOL    HW211415   2.414   2.154   0.856
 3555SOL     OW11416   2.870   3.318   0.477
 3555SOL    HW111417   2.824   3.390   0.425
 3555SOL    HW211418   2.866   3.338   0.575
 3556SOL     OW11419   2.213   3.663   0.853
 3556SOL    HW111420   2.263   3.577   0.859
 3556SOL    HW211421   2.278   3.740   0.850
 3557SOL     OW11422   3.657   2.928   0.873
 3557SOL    HW111423   3.595   2.913   0.797
 3557SOL    HW211424   3.605   2.939   0.958
 3558SOL     OW11425   3.089   3.412   1.506
 3558SOL    HW111426   3.095   3.335   1.570
 3558SOL    HW211427   3.037   3.386   1.426
 3559SOL     OW11428   2.183   2.805   0.242
 3559SOL    HW111429   2.265   2.844   0.200
 3559SOL    HW211430   2.156   2.723   0.193
 3560SOL     OW11431   3.320   2.597   0.728
 3560SOL    HW111432   3.315   2.532   0.803
 3560SOL    HW211433   3.400   2.656   0.741
 3561SOL     OW11434   2.323   3.128   1.727
 3561SOL    HW111435   2.273   3.129   1.641
 3561SOL    HW211436   2.260   3.110   1.803
 3562SOL     OW11437   2.973   3.638   0.237
 3562SOL    HW111438   2.913   3.576   0.287
 3562SOL    HW211439   3.004   3.594   0.152
 3563SOL     OW11440   2.064   2.147   1.498
 3563SOL    HW111441   1.984   2.207   1.485
 3563SOL    HW211442   2.054   2.098   1.584
 3564SOL     OW11443   3.494   3.239   0.081
 3564SOL    HW111444   3.462   3.333   0.071
 3564SOL    HW211445   3.418   3.176   0.069
 3565SOL     OW11446   2.326   3.605   0.323
 3565SOL    HW111447   2.359   3.644   0.409
 3565SOL    HW211448   2.402   3.598   0.258
 3566SOL     OW11449   3.262   1.969   0.426
 3566SOL    HW111450   3.238   1.932   0.336
 3566SOL    HW211451   3.361   1.985   0.430
 3567SOL     OW11452   2.111   3.647   1.241
 3567SOL    HW111453   2.168   3.582   1.291
 3567SOL    HW211454   2.095   3.614   1.148
 3568SOL     OW11455   2.802   3.560   0.904
 3568SOL    HW111456   2.882   3.503   0.925
 3568SOL    HW211457   2.753   3.520   0.827
 3569SOL     OW11458   2.244   2.562   0.480
 3569SOL    HW111459   2.289   2.472   0.477
 3569SOL    HW211460   2.150   2.551   0.513
 3570SOL     OW11461   3.409   2.084   1.729
 3570SOL    HW111462   3.404   2.121   1.821
 3570SOL    HW211463   3.337   2.015   1.717
 3571SOL     OW11464   2.476   1.984   0.117
 3571SOL    HW111465   2.574   1.962   0.124
 3571SOL    HW211466   2.445   1.967   0.024
 3572SOL     OW11467   2.643   2.126   1.749
 3572SOL    HW111468   2.710   2.065   1.792
 3572SOL    HW211469   2.570   2.145   1.814
 3573SOL     OW11470   2.750   3.376   1.195
 3573SOL    HW111471   2.727   3.351   1.101
 3573SOL    HW211472   2.811   3.307   1.234
 3574SOL     OW11473   3.213   2.452   1.433
 3574SOL    HW111474   3.241   2.409   1.518
 3574SOL    HW211475   3.238   2.548   1.434
 3575SOL     OW11476   2.665   3.264   0.924
 3575SOL    HW111477   2.755   3.278   0.882
 3575SOL    HW211478   2.594   3.266   0.853
 3576SOL     OW11479   2.784   2.365   0.899
 3576SOL    HW111480   2.759   2.356   0.803
 3576SOL    HW211481   2.832   2.283   0.930
 3577SOL     OW11482   2.401   1.926   0.512
 3577SOL    HW111483   2.320   1.927   0.570
 3577SOL    HW211484   2.404   2.009   0.457
 3578SOL     OW11485   3.296   3.050   0.041
 3578SOL    HW111486   3.328   2.974   0.098
 3578SOL    HW211487   3.204   3.077   0.071
 3579SOL     OW11488   2.159   1.897   0.171
 3579SOL    HW111489   2.208   1.981   0.150
 3579SOL    HW211490   2.221   1.832   0.216
 3580SOL     OW11491   2.797   2.098   0.480
 3580SOL    HW111492   2.749   2.139   0.402
 3580SOL    HW211493   2.896   2.096   0.461
 3581SOL     OW11494   3.089   3.432   0.793
 3581SOL    HW111495   3.110   3.506   0.728
 3581SOL    HW211496   3.157   3.432   0.866
 3582SOL     OW11497   2.321   3.014   0.741
 3582SOL    HW111498   2.250   2.987   0.806
 3582SOL    HW211499   2.295   2.986   0.648
 3583SOL     OW11500   3.133   3.659   0.591
 3583SOL    HW111501   3.177   3.723   0.527
 3583SOL    HW211502   3.083   3.711   0.661
 3584SOL     OW11503   2.894   2.411   0.016
 3584SOL    HW111504   2.853   2.493  -0.023
 3584SOL    HW211505   2.958   2.437   0.089
 3585SOL     OW11506   1.940   2.418   1.386
 3585SOL    HW111507   2.032   2.417   1.345
 3585SOL    HW211508   1.934   2.492   1.453
 3586SOL     OW11509   2.423   2.084   1.147
 3586SOL    HW111510   2.461   2.000   1.184
 3586SOL    HW211511   2.335   2.103   1.191
 3587SOL     OW11512   2.728   2.316   0.642
 3587SOL    HW111513   2.696   2.388   0.580
 3587SOL    HW211514   2.752   2.235   0.589
 3588SOL     OW11515   2.879   1.901   0.753
 3588SOL    HW111516   2.807   1.906   0.684
 3588SOL    HW211517   2.855   1.832   0.822
 3589SOL     OW11518   3.291   3.035   0.867
 3589SOL    HW111519   3.236   2.951   0.860
 3589SOL    HW211520   3.317   3.064   0.775
 3590SOL     OW11521   3.328   2.452   0.992
 3590SOL    HW111522   3.298   2.357   0.999
 3590SOL    HW211523   3.401   2.468   1.058
 3591SOL     OW11524   3.719   2.695   0.377
 3591SOL    HW111525   3.761   2.631   0.441
 3591SOL    HW211526   3.681   2.644   0.299
 3592SOL     OW11527   2.350   3.247   0.174
 3592SOL    HW111528   2.263   3.232   0.221
 3592SOL    HW211529   2.333   3.273   0.079
 3593SOL     OW11530   3.526   3.142   0.657
 3593SOL    HW111531   3.625   3.150   0.671
 3593SOL    HW211532   3.481   3.226   0.688
 3594SOL     OW11533   3.252   2.437   0.078
 3594SOL    HW111534   3.198   2.416   0.159
 3594SOL    HW211535   3.343   2.396   0.087
 3595SOL     OW11536   2.389   2.118   0.328
 3595SOL    HW111537   2.416   2.059   0.253
 3595SOL    HW211538   2.389   2.213   0.297
 3596SOL     OW11539   3.616   3.085   1.588
 3596SOL    HW111540   3.707   3.046   1.575
 3596SOL    HW211541   3.624   3.181   1.612
 3597SOL     OW11542   2.926   3.209   1.340
 3597SOL    HW111543   2.846   3.186   1.395
 3597SOL    HW211544   3.009   3.183   1.389
 3598SOL     OW11545   3.454   3.491   1.625
 3598SOL    HW111546   3.481   3.525   1.535
 3598SOL    HW211547   3.533   3.453   1.671
 3599SOL     OW11548   2.973   3.057   1.100
 3599SOL    HW111549   2.933   3.101   1.181
 3599SOL    HW211550   2.932   3.094   1.017
 3600SOL     OW11551   3.500   2.961   1.079
 3600SOL    HW111552   3.505   3.042   1.138
 3600SOL    HW211553   3.414   2.963   1.028
 3601SOL     OW11554   2.777   1.951   1.402
 3601SOL    HW111555   2.802   1.931   1.307
 3601SOL    HW211556   2.849   2.007   1.444
 3602SOL     OW11557   2.272   2.675   1.251
 3602SOL    HW111558   2.358   2.687   1.301
 3602SOL    HW211559   2.230   2.588   1.278
 3603SOL     OW11560   3.136   2.248   1.262
 3603SOL    HW111561   3.157   2.322   1.326
 3603SOL    HW211562   3.047   2.265   1.219
 3604SOL     OW11563   1.926   3.426   1.331
 3604SOL    HW111564   1.880   3.508   1.297
 3604SOL    HW211565   2.024   3.445   1.340
 3605SOL     OW11566   2.229   2.962   0.501
 3605SOL    HW111567   2.222   3.045   0.445
 3605SOL    HW211568   2.233   2.882   0.441
 3606SOL     OW11569   3.114   3.210   0.388
 3606SOL    HW111570   3.164   3.287   0.428
 3606SOL    HW211571   3.019   3.212   0.420
 3607SOL     OW11572   3.134   3.307   1.142
 3607SOL    HW111573   3.181   3.320   1.229
 3607SOL    HW211574   3.068   3.233   1.151
 3608SOL     OW11575   3.444   2.501   0.472
 3608SOL    HW111576   3.413   2.562   0.545
 3608SOL    HW211577   3.494   2.553   0.403
 3609SOL     OW11578   2.216   3.372   1.329
 3609SOL    HW111579   2.195   3.328   1.242
 3609SOL    HW211580   2.313   3.398   1.332
 3610SOL     OW11581   2.264   2.613   1.598
 3610SOL    HW111582   2.332   2.668   1.551
 3610SOL    HW211583   2.304   2.525   1.625
 3611SOL     OW11584   3.449   2.641   1.670
 3611SOL    HW111585   3.357   2.679   1.665
 3611SOL    HW211586   3.509   2.688   1.605
 3612SOL     OW11587   2.875   1.967   1.770
 3612SOL    HW111588   2.881   2.052   1.718
 3612SOL    HW211589   2.907   1.891   1.713
 3613SOL     OW11590   2.366   1.912   1.740
 3613SOL    HW111591   2.324   1.855   1.670
 3613SOL    HW211592   2.300   1.981   1.772
 3614SOL     OW11593   3.222   2.724   1.045
 3614SOL    HW111594   3.147   2.724   0.979
 3614SOL    HW211595   3.259   2.632   1.054
 3615SOL     OW11596   3.071   2.387   0.275
 3615SOL    HW111597   3.084   2.303   0.329
 3615SOL    HW211598   3.042   2.461   0.335
 3616SOL     OW11599   2.169   2.075   1.231
 3616SOL    HW111600   2.146   2.112   1.321
 3616SOL    HW211601   2.139   1.980   1.225
 3617SOL     OW11602   1.899   3.172   1.282
 3617SOL    HW111603   1.952   3.123   1.350
 3617SOL    HW211604   1.921   3.270   1.287
 3618SOL     OW11605   3.590   2.797   1.854
 3618SOL    HW111606   3.544   2.790   1.765
 3618SOL    HW211607   3.528   2.841   1.920
 3619SOL     OW11608   2.169   1.925   0.618
 3619SOL    HW111609   2.158   2.019   0.651
 3619SOL    HW211610   2.164   1.862   0.695
 3620SOL     OW11611   3.484   2.229   0.374
 3620SOL    HW111612   3.486   2.153   0.438
 3620SOL    HW211613   3.436   2.306   0.414
 3621SOL     OW11614   2.842   3.435   1.700
 3621SOL    HW111615   2.822   3.479   1.612
 3621SOL    HW211616   2.881   3.344   1.684
 3622SOL     OW11617   3.721   3.380   1.605
 3622SOL    HW111618   3.735   3.407   1.510
 3622SOL    HW211619   3.804   3.402   1.658
 3623SOL     OW11620   2.212   2.760   1.804
 3623SOL    HW111621   2.288   2.804   1.852
 3623SOL    HW211622   2.247   2.713   1.722
 3624SOL     OW11623   3.402   2.136   0.125
 3624SOL    HW111624   3.341   2.061   0.148
 3624SOL    HW211625   3.424   2.188   0.208
 3625SOL     OW11626   3.165   2.700   0.042
 3625SOL    HW111627   3.199   2.607   0.057
 3625SOL    HW211628   3.183   2.727  -0.053
 3626SOL     OW11629   2.930   3.195   0.849
 3626SOL    HW111630   2.937   3.111   0.794
 3626SOL    HW211631   2.992   3.264   0.813
 3627SOL     OW11632   2.181   2.672   0.949
 3627SOL    HW111633   2.274   2.708   0.954
 3627SOL    HW211634   2.175   2.587   1.001
 3628SOL     OW11635   2.201   2.371   1.006
 3628SOL    HW111636   2.149   2.288   0.989
 3628SOL    HW211637   2.278   2.376   0.942
 3629SOL     OW11638   3.000   2.242   1.678
 3629SOL    HW111639   2.955   2.305   1.742
 3629SOL    HW211640   3.093   2.273   1.661
 3630SOL     OW11641   3.022   2.069   1.477
 3630SOL    HW111642   3.022   2.133   1.554
 3630SOL    HW211643   3.050   2.117   1.394
 3631SOL     OW11644   1.870   3.188   0.200
 3631SOL    HW111645   1.777   3.209   0.169
 3631SOL    HW211646   1.880   3.089   0.213
 3632SOL     OW11647   1.950   3.663   0.927
 3632SOL    HW111648   1.908   3.577   0.900
 3632SOL    HW211649   2.044   3.666   0.893
 3633SOL     OW11650   2.366   3.430   0.910
 3633SOL    HW111651   2.432   3.504   0.919
 3633SOL    HW211652   2.410   3.351   0.868
 3634SOL     OW11653   1.902   2.406   1.114
 3634SOL    HW111654   1.987   2.373   1.073
 3634SOL    HW211655   1.915   2.421   1.212
 3635SOL     OW11656   2.051   2.382   1.722
 3635SOL    HW111657   2.110   2.342   1.652
 3635SOL    HW211658   1.993   2.453   1.681
 3636SOL     OW11659   3.231   2.812   1.660
 3636SOL    HW111660   3.270   2.901   1.680
 3636SOL    HW211661   3.241   2.792   1.563
 3637SOL     OW11662   3.519   2.466   1.206
 3637SOL    HW111663   3.481   2.397   1.268
 3637SOL    HW211664   3.601   2.430   1.162
 3638SOL     OW11665   2.114   3.426   1.744
 3638SOL    HW111666   2.084   3.483   1.820
 3638SOL    HW211667   2.107   3.329   1.770
 3639SOL     OW11668   2.792   3.540   1.465
 3639SOL    HW111669   2.768   3.522   1.370
 3639SOL    HW211670   2.822   3.634   1.475
 3640SOL     OW11671   2.021   2.999   1.466
 3640SOL    HW111672   2.043   2.938   1.542
 3640SOL    HW211673   2.031   2.950   1.380
 3641SOL     OW11674   3.209   2.921   1.234
 3641SOL    HW111675   3.233   2.858   1.160
 3641SOL    HW211676   3.119   2.961   1.216
 3642SOL     OW11677   3.164   2.717   0.309
 3642SOL    HW111678   3.078   2.686   0.351
 3642SOL    HW211679   3.160   2.703   0.210
 3643SOL     OW11680   3.621   3.609   1.154
 3643SOL    HW111681   3.682   3.639   1.081
 3643SOL    HW211682   3.583   3.520   1.132
 3644SOL     OW11683   3.114   3.593   1.128
 3644SOL    HW111684   3.198   3.598   1.074
 3644SOL    HW211685   3.091   3.497   1.146
 3645SOL     OW11686   1.945   3.120   1.022
 3645SOL    HW111687   1.940   3.119   1.122
 3645SOL    HW211688   1.862   3.079   0.984
 3646SOL     OW11689   2.550   3.524   1.716
 3646SOL    HW111690   2.494   3.605   1.725
 3646SOL    HW211691   2.602   3.528   1.630
 3647SOL     OW11692   2.765   1.948   0.133
 3647SOL    HW111693   2.816   1.949   0.047
 3647SOL    HW211694   2.821   1.906   0.204
 3648SOL     OW11695   3.588   1.997   0.523
 3648SOL    HW111696   3.661   1.980   0.456
 3648SOL    HW211697   3.557   1.910   0.561
 3649SOL     OW11698   3.250   3.435   0.477
 3649SOL    HW111699   3.317   3.447   0.403
 3649SOL    HW211700   3.210   3.524   0.500
 3650SOL     OW11701   1.992   3.656   1.851
 3650SOL    HW111702   1.951   3.582   1.904
 3650SOL    HW211703   2.056   3.707   1.909
 3651SOL     OW11704   3.142   2.789   0.672
 3651SOL    HW111705   3.202   2.708   0.674
 3651SOL    HW211706   3.182   2.858   0.612
 3652SOL     OW11707   2.692   3.135   1.422
 3652SOL    HW111708   2.687   3.168   1.517
 3652SOL    HW211709   2.606   3.154   1.376
 3653SOL     OW11710   2.534   3.478   0.154
 3653SOL    HW111711   2.543   3.488   0.055
 3653SOL    HW211712   2.494   3.389   0.175
 3654SOL     OW11713   3.512   3.582   1.394
 3654SOL    HW111714   3.565   3.592   1.310
 3654SOL    HW211715   3.485   3.672   1.428
 3655SOL     OW11716   3.703   2.037   0.963
 3655SOL    HW111717   3.742   1.952   0.927
 3655SOL    HW211718   3.605   2.039   0.944
 3656SOL     OW11719   2.125   2.188   0.720
 3656SOL    HW111720   2.046   2.239   0.686
 3656SOL    HW211721   2.116   2.173   0.818
 3657SOL     OW11722   3.056   3.474   0.031
 3657SOL    HW111723   3.062   3.381   0.068
 3657SOL    HW211724   2.997   3.474  -0.049
 3658SOL     OW11725   3.366   3.469   0.044
 3658SOL    HW111726   3.274   3.506   0.051
 3658SOL    HW211727   3.404   3.489  -0.046
 3659SOL     OW11728   2.234   3.150   1.490
 3659SOL    HW111729   2.221   3.243   1.456
 3659SOL    HW211730   2.150   3.098   1.477
 3660SOL     OW11731   3.476   3.154   1.289
 3660SOL    HW111732   3.536   3.157   1.369
 3660SOL    HW211733   3.401   3.218   1.302
 3661SOL     OW11734   2.901   2.960   0.696
 3661SOL    HW111735   2.831   2.913   0.750
 3661SOL    HW211736   2.960   2.892   0.653
 3662SOL     OW11737   2.876   2.098   0.971
 3662SOL    HW111738   2.868   2.062   0.878
 3662SOL    HW211739   2.874   2.022   1.036
 3663SOL     OW11740   2.452   3.349   0.491
 3663SOL    HW111741   2.494   3.291   0.421
 3663SOL    HW211742   2.408   3.428   0.447
 3664SOL     OW11743   3.571   2.247   1.381
 3664SOL    HW111744   3.644   2.316   1.385
 3664SOL    HW211745   3.599   2.172   1.322
 3665SOL     OW11746   2.117   3.210   0.290
 3665SOL    HW111747   2.021   3.211   0.263
 3665SOL    HW211748   2.129   3.263   0.374
 3666SOL     OW11749   1.967   2.875   1.726
 3666SOL    HW111750   1.890   2.842   1.780
 3666SOL    HW211751   2.052   2.845   1.768
 3667SOL     OW11752   2.534   2.065   1.489
 3667SOL    HW111753   2.624   2.049   1.449
 3667SOL    HW211754   2.542   2.070   1.588
 3668SOL     OW11755   1.937   2.207   0.033
 3668SOL    HW111756   1.845   2.179   0.004
 3668SOL    HW211757   1.968   2.284  -0.023
 3669SOL     OW11758   3.302   2.718   1.398
 3669SOL    HW111759   3.245   2.770   1.335
 3669SOL    HW211760   3.398   2.730   1.374
 3670SOL     OW11761   1.934   2.028   0.318
 3670SOL    HW111762   1.917   2.111   0.264
 3670SOL    HW211763   2.024   1.991   0.296
 3671SOL     OW11764   3.045   3.197   0.119
 3671SOL    HW111765   2.946   3.186   0.121
 3671SOL    HW211766   3.079   3.212   0.212
 3672SOL     OW11767   3.355   3.629   0.959
 3672SOL    HW111768   3.388   3.693   0.890
 3672SOL    HW211769   3.421   3.623   1.034
 3673SOL     OW11770   3.312   3.082   1.633
 3673SOL    HW111771   3.303   3.072   1.732
 3673SOL    HW211772   3.408   3.075   1.607
 3674SOL     OW11773   2.252   3.603   1.560
 3674SOL    HW111774   2.161   3.644   1.558
 3674SOL    HW211775   2.245   3.509   1.592
 3675SOL     OW11776   3.536   2.745   1.254
 3675SOL    HW111777   3.509   2.656   1.217
 3675SOL    HW211778   3.537   2.813   1.181
 3676SOL     OW11779   3.087   2.187   0.449
 3676SOL    HW111780   3.152   2.113   0.438
 3676SOL    HW211781   3.107   2.237   0.533
 3677SOL     OW11782   3.639   2.204   1.642
 3677SOL    HW111783   3.622   2.235   1.548
 3677SOL    HW211784   3.555   2.167   1.680
 3678SOL     OW11785   3.592   2.796   1.517
 3678SOL    HW111786   3.630   2.887   1.532
 3678SOL    HW211787   3.584   2.779   1.418
 3679SOL     OW11788   2.721   3.236   0.016
 3679SOL    HW111789   2.675   3.251   0.104
 3679SOL    HW211790   2.765   3.321  -0.014
 3680SOL     OW11791   2.523   3.652   0.953
 3680SOL    HW111792   2.477   3.740   0.940
 3680SOL    HW211793   2.622   3.664   0.946
 3681SOL     OW11794   3.723   3.431   0.851
 3681SOL    HW111795   3.652   3.419   0.781
 3681SOL    HW211796   3.724   3.352   0.911
 3682SOL     OW11797   2.083   3.176   1.844
 3682SOL    HW111798   2.018   3.103   1.823
 3682SOL    HW211799   2.087   3.190   1.942
 3683SOL     OW11800   1.941   3.102   0.653
 3683SOL    HW111801   1.940   3.055   0.741
 3683SOL    HW211802   2.023   3.074   0.602
 3684SOL     OW11803   2.534   3.253   1.624
 3684SOL    HW111804   2.456   3.203   1.662
 3684SOL    HW211805   2.531   3.348   1.655
 3685SOL     OW11806   3.686   2.054   1.227
 3685SOL    HW111807   3.682   1.964   1.271
 3685SOL    HW211808   3.689   2.043   1.128
 3686SOL     OW11809   2.290   2.286   0.520
 3686SOL    HW111810   2.320   2.214   0.458
 3686SOL    HW211811   2.251   2.246   0.603
 3687SOL     OW11812   3.567   3.349   1.104
 3687SOL    HW111813   3.474   3.324   1.077
 3687SOL    HW211814   3.593   3.299   1.186
 3688SOL     OW11815   2.179   2.409   1.280
 3688SOL    HW111816   2.217   2.350   1.352
 3688SOL    HW211817   2.219   2.383   1.192
 3689SOL     OW11818   2.674   3.448   0.687
 3689SOL    HW111819   2.706   3.458   0.593
 3689SOL    HW211820   2.595   3.386   0.689
 3690SOL     OW11821   3.286   2.076   1.112
 3690SOL    HW111822   3.338   2.011   1.167
 3690SOL    HW211823   3.237   2.139   1.173
 3691SOL     OW11824   2.863   1.896   1.154
 3691SOL    HW111825   2.800   1.824   1.123
 3691SOL    HW211826   2.956   1.860   1.154
 3692SOL     OW11827   2.632   3.192   0.301
 3692SOL    HW111828   2.586   3.105   0.318
 3692SOL    HW211829   2.723   3.189   0.342
 3693SOL     OW11830   2.480   3.429   1.284
 3693SOL    HW111831   2.475   3.511   1.341
 3693SOL    HW211832   2.569   3.426   1.239
 3694SOL     OW11833   3.214   1.914   0.168
 3694SOL    HW111834   3.249   1.873   0.084
 3694SOL    HW211835   3.124   1.876   0.188
 3695SOL     OW11836   3.162   2.315   0.691
 3695SOL    HW111837   3.103   2.395   0.695
 3695SOL    HW211838   3.177   2.280   0.784
 3696SOL     OW11839   3.455   2.083   0.882
 3696SOL    HW111840   3.371   2.082   0.936
 3696SOL    HW211841   3.457   2.166   0.826
 3697SOL     OW11842   1.901   2.939   0.300
 3697SOL    HW111843   2.000   2.928   0.291
 3697SOL    HW211844   1.861   2.853   0.332
 3698SOL     OW11845   2.737   3.508   0.337
 3698SOL    HW111846   2.660   3.473   0.283
 3698SOL    HW211847   2.705   3.579   0.399
 3699SOL     OW11848   2.092   2.490   1.975
 3699SOL    HW111849   1.999   2.488   2.012
 3699SOL    HW211850   2.093   2.451   1.883
 3700SOL     OW11851   2.087   2.137   2.858
 3700SOL    HW111852   2.122   2.120   2.950
 3700SOL    HW211853   1.999   2.092   2.846
 3701SOL     OW11854   1.881   2.230   2.509
 3701SOL    HW111855   1.799   2.273   2.548
 3701SOL    HW211856   1.853   2.157   2.446
 3702SOL     OW11857   2.431   3.137   3.027
 3702SOL    HW111858   2.338   3.130   2.990
 3702SOL    HW211859   2.442   3.226   3.071
 3703SOL     OW11860   3.417   3.373   2.565
 3703SOL    HW111861   3.360   3.357   2.646
 3703SOL    HW211862   3.358   3.383   2.485
 3704SOL     OW11863   2.997   2.565   2.579
 3704SOL    HW111864   3.054   2.643   2.554
 3704SOL    HW211865   2.937   2.591   2.655
 3705SOL     OW11866   3.617   2.469   2.093
 3705SOL    HW111867   3.605   2.456   1.994
 3705SOL    HW211868   3.587   2.388   2.142
 3706SOL     OW11869   2.630   3.006   2.885
 3706SOL    HW111870   2.552   3.023   2.945
 3706SOL    HW211871   2.664   3.093   2.849
 3707SOL     OW11872   2.197   3.297   2.923
 3707SOL    HW111873   2.119   3.266   2.870
 3707SOL    HW211874   2.255   3.355   2.866
 3708SOL     OW11875   3.322   3.367   3.201
 3708SOL    HW111876   3.346   3.461   3.227
 3708SOL    HW211877   3.306   3.313   3.283
 3709SOL     OW11878   3.465   2.309   2.599
 3709SOL    HW111879   3.391   2.355   2.549
 3709SOL    HW211880   3.516   2.377   2.652
 3710SOL     OW11881   2.093   3.575   2.345
 3710SOL    HW111882   2.127   3.652   2.399
 3710SOL    HW211883   2.137   3.575   2.255
 3711SOL     OW11884   2.092   3.296   2.400
 3711SOL    HW111885   2.066   3.392   2.400
 3711SOL    HW211886   2.021   3.242   2.445
 3712SOL     OW11887   2.102   2.953   2.748
 3712SOL    HW111888   2.116   2.869   2.800
 3712SOL    HW211889   2.047   3.017   2.803
 3713SOL     OW11890   2.482   3.648   3.301
 3713SOL    HW111891   2.390   3.631   3.336
 3713SOL    HW211892   2.510   3.740   3.327
 3714SOL     OW11893   2.468   2.826   1.985
 3714SOL    HW111894   2.475   2.910   1.931
 3714SOL    HW211895   2.514   2.839   2.073
 3715SOL     OW11896   3.456   1.976   3.342
 3715SOL    HW111897   3.438   2.043   3.270
 3715SOL    HW211898   3.453   2.022   3.431
 3716SOL     OW11899   1.984   2.505   2.425
 3716SOL    HW111900   1.939   2.417   2.442
 3716SOL    HW211901   1.983   2.559   2.509
 3717SOL     OW11902   3.704   3.629   2.221
 3717SOL    HW111903   3.758   3.600   2.301
 3717SOL    HW211904   3.734   3.719   2.192
 3718SOL     OW11905   1.889   3.458   1.979
 3718SOL    HW111906   1.870   3.362   2.000
 3718SOL    HW211907   1.856   3.516   2.054
 3719SOL     OW11908   3.551   2.784   2.474
 3719SOL    HW111909   3.646   2.755   2.482
 3719SOL    HW211910   3.543   2.849   2.399
 3720SOL     OW11911   3.503   2.970   2.294
 3720SOL    HW111912   3.589   2.972   2.242
 3720SOL    HW211913   3.517   3.017   2.382
 3721SOL     OW11914   2.475   3.227   2.588
 3721SOL    HW111915   2.426   3.140   2.597
 3721SOL    HW211916   2.452   3.270   2.501
 3722SOL     OW11917   2.671   1.866   2.364
 3722SOL    HW111918   2.711   1.957   2.355
 3722SOL    HW211919   2.571   1.874   2.370
 3723SOL     OW11920   3.387   2.861   2.052
 3723SOL    HW111921   3.324   2.785   2.065
 3723SOL    HW211922   3.435   2.879   2.138
 3724SOL     OW11923   3.049   3.654   3.478
 3724SOL    HW111924   3.073   3.714   3.402
 3724SOL    HW211925   3.056   3.559   3.448
 3725SOL     OW11926   3.328   3.279   2.815
 3725SOL    HW111927   3.269   3.285   2.895
 3725SOL    HW211928   3.313   3.191   2.769
 3726SOL     OW11929   3.529   3.576   2.434
 3726SOL    HW111930   3.488   3.553   2.346
 3726SOL    HW211931   3.511   3.502   2.499
 3727SOL     OW11932   3.143   2.207   2.806
 3727SOL    HW111933   3.057   2.157   2.793
 3727SOL    HW211934   3.205   2.153   2.862
 3728SOL     OW11935   3.438   3.524   2.169
 3728SOL    HW111936   3.527   3.570   2.172
 3728SOL    HW211937   3.417   3.500   2.074
 3729SOL     OW11938   2.853   2.272   3.104
 3729SOL    HW111939   2.776   2.306   3.158
 3729SOL    HW211940   2.819   2.221   3.025
 3730SOL     OW11941   1.938   2.673   2.651
 3730SOL    HW111942   2.037   2.661   2.660
 3730SOL    HW211943   1.914   2.768   2.672
 3731SOL     OW11944   1.992   3.683   3.433
 3731SOL    HW111945   1.982   3.668   3.532
 3731SOL    HW211946   1.906   3.719   3.397
 3732SOL     OW11947   2.727   2.210   2.057
 3732SOL    HW111948   2.786   2.273   2.008
 3732SOL    HW211949   2.746   2.116   2.028
 3733SOL     OW11950   3.581   2.447   3.693
 3733SOL    HW111951   3.555   2.536   3.657
 3733SOL    HW211952   3.579   2.379   3.620
 3734SOL     OW11953   3.224   3.006   2.407
 3734SOL    HW111954   3.307   2.977   2.359
 3734SOL    HW211955   3.175   3.073   2.351
 3735SOL     OW11956   2.412   2.058   2.747
 3735SOL    HW111957   2.407   2.053   2.847
 3735SOL    HW211958   2.414   2.154   2.718
 3736SOL     OW11959   2.870   3.318   2.339
 3736SOL    HW111960   2.824   3.390   2.287
 3736SOL    HW211961   2.866   3.338   2.437
 3737SOL     OW11962   2.213   3.663   2.715
 3737SOL    HW111963   2.263   3.577   2.721
 3737SOL    HW211964   2.278   3.740   2.712
 3738SOL     OW11965   3.657   2.928   2.735
 3738SOL    HW111966   3.595   2.913   2.659
 3738SOL    HW211967   3.605   2.939   2.820
 3739SOL     OW11968   2.183   2.805   2.104
 3739SOL    HW111969   2.265   2.844   2.062
 3739SOL    HW211970   2.156   2.723   2.055
 3740SOL     OW11971   3.320   2.597   2.590
 3740SOL    HW111972   3.315   2.532   2.665
 3740SOL    HW211973   3.400   2.656   2.603
 3741SOL     OW11974   2.973   3.638   2.099
 3741SOL    HW111975   2.913   3.576   2.149
 3741SOL    HW211976   3.004   3.594   2.014
 3742SOL     OW11977   3.494   3.239   1.943
 3742SOL    HW111978   3.462   3.333   1.933
 3742SOL    HW211979   3.418   3.176   1.931
 3743SOL     OW11980   2.326   3.605   2.185
 3743SOL    HW111981   2.359   3.644   2.271
 3743SOL    HW211982   2.402   3.598   2.120
 3744SOL     OW11983   3.262   1.969   2.288
 3744SOL    HW111984   3.238   1.932   2.198
 3744SOL    HW211985   3.361   1.985   2.292
 3745SOL     OW11986   2.111   3.647   3.103
 3745SOL    HW111987   2.168   3.582   3.153
 3745SOL    HW211988   2.095   3.614   3.010
 3746SOL     OW11989   2.802   3.560   2.766
 3746SOL    HW111990   2.882   3.503   2.787
 3746SOL    HW211991   2.753   3.520   2.689
 3747SOL     OW11992   3.409   2.084   3.591
 3747SOL    HW111993   3.404   2.121   3.683
 3747SOL    HW211994   3.337   2.015   3.579
 3748SOL     OW11995   2.476   1.984   1.979
 3748SOL    HW111996   2.574   1.962   1.986
 3748SOL    HW211997   2.445   1.967   1.886
 3749SOL     OW11998   2.750   3.376   3.057
 3749SOL    HW111999   2.727   3.351   2.963
 3749SOL    HW212000   2.811   3.307   3.096
 3750SOL     OW12001   2.665   3.264   2.786
 3750SOL    HW112002   2.755   3.278   2.744
 3750SOL    HW212003   2.594   3.266   2.715
 3751SOL     OW12004   2.784   2.365   2.761
 3751SOL    HW112005   2.759   2.356   2.665
 3751SOL    HW212006   2.832   2.283   2.792
 3752SOL     OW12007   2.401   1.926   2.374
 3752SOL    HW112008   2.320   1.927   2.432
 3752SOL    HW212009   2.404   2.009   2.319
 3753SOL     OW12010   3.296   3.050   1.903
 3753SOL    HW112011   3.328   2.974   1.960
 3753SOL    HW212012   3.204   3.077   1.933
 3754SOL     OW12013   2.159   1.897   2.033
 3754SOL    HW112014   2.208   1.981   2.012
 3754SOL    HW212015   2.221   1.832   2.078
 3755SOL     OW12016   2.797   2.098   2.342
 3755SOL    HW112017   2.749   2.139   2.264
 3755SOL    HW212018   2.896   2.096   2.323
 3756SOL     OW12019   3.089   3.432   2.655
 3756SOL    HW112020   3.110   3.506   2.590
 3756SOL    HW212021   3.157   3.432   2.728
 3757SOL     OW12022   2.321   3.014   2.603
 3757SOL    HW112023   2.250   2.987   2.668
 3757SOL    HW212024   2.295   2.986   2.510
 3758SOL     OW12025   3.133   3.659   2.453
 3758SOL    HW112026   3.177   3.723   2.389
 3758SOL    HW212027   3.083   3.711   2.523
 3759SOL     OW12028   2.728   2.316   2.504
 3759SOL    HW112029   2.696   2.388   2.442
 3759SOL    HW212030   2.752   2.235   2.451
 3760SOL     OW12031   2.879   1.901   2.615
 3760SOL    HW112032   2.807   1.906   2.546
 3760SOL    HW212033   2.855   1.832   2.684
 3761SOL     OW12034   3.291   3.035   2.729
 3761SOL    HW112035   3.236   2.951   2.722
 3761SOL    HW212036   3.317   3.064   2.637
 3762SOL     OW12037   3.328   2.452   2.854
 3762SOL    HW112038   3.298   2.357   2.861
 3762SOL    HW212039   3.401   2.468   2.920
 3763SOL     OW12040   3.719   2.695   2.239
 3763SOL    HW112041   3.761   2.631   2.303
 3763SOL    HW212042   3.681   2.644   2.161
 3764SOL     OW12043   2.350   3.247   2.036
 3764SOL    HW112044   2.263   3.232   2.083
 3764SOL    HW212045   2.333   3.273   1.941
 3765SOL     OW12046   3.526   3.142   2.519
 3765SOL    HW112047   3.625   3.150   2.533
 3765SOL    HW212048   3.481   3.226   2.550
 3766SOL     OW12049   3.252   2.437   1.940
 3766SOL    HW112050   3.198   2.416   2.021
 3766SOL    HW212051   3.343   2.396   1.949
 3767SOL     OW12052   2.389   2.118   2.190
 3767SOL    HW112053   2.416   2.059   2.115
 3767SOL    HW212054   2.389   2.213   2.159
 3768SOL     OW12055   3.616   3.085   3.450
 3768SOL    HW112056   3.707   3.046   3.437
 3768SOL    HW212057   3.624   3.181   3.474
 3769SOL     OW12058   3.454   3.491   3.487
 3769SOL    HW112059   3.481   3.525   3.397
 3769SOL    HW212060   3.533   3.453   3.533
 3770SOL     OW12061   2.973   3.057   2.962
 3770SOL    HW112062   2.933   3.101   3.043
 3770SOL    HW212063   2.932   3.094   2.879
 3771SOL     OW12064   3.500   2.961   2.941
 3771SOL    HW112065   3.505   3.042   3.000
 3771SOL    HW212066   3.414   2.963   2.890
 3772SOL     OW12067   2.272   2.675   3.113
 3772SOL    HW112068   2.358   2.687   3.163
 3772SOL    HW212069   2.230   2.588   3.140
 3773SOL     OW12070   1.926   3.426   3.193
 3773SOL    HW112071   1.880   3.508   3.159
 3773SOL    HW212072   2.024   3.445   3.202
 3774SOL     OW12073   2.229   2.962   2.363
 3774SOL    HW112074   2.222   3.045   2.307
 3774SOL    HW212075   2.233   2.882   2.303
 3775SOL     OW12076   3.114   3.210   2.250
 3775SOL    HW112077   3.164   3.287   2.290
 3775SOL    HW212078   3.019   3.212   2.282
 3776SOL     OW12079   3.444   2.501   2.334
 3776SOL    HW112080   3.413   2.562   2.407
 3776SOL    HW212081   3.494   2.553   2.265
 3777SOL     OW12082   2.435   2.732   2.891
 3777SOL    HW112083   2.479   2.821   2.882
 3777SOL    HW212084   2.372   2.732   2.968
 3778SOL     OW12085   3.222   2.724   2.907
 3778SOL    HW112086   3.147   2.724   2.841
 3778SOL    HW212087   3.259   2.632   2.916
 3779SOL     OW12088   3.071   2.387   2.137
 3779SOL    HW112089   3.084   2.303   2.191
 3779SOL    HW212090   3.042   2.461   2.197
 3780SOL     OW12091   1.899   3.172   3.144
 3780SOL    HW112092   1.952   3.123   3.212
 3780SOL    HW212093   1.921   3.270   3.149
 3781SOL     OW12094   3.590   2.797   3.716
 3781SOL    HW112095   3.544   2.790   3.627
 3781SOL    HW212096   3.528   2.841   3.782
 3782SOL     OW12097   2.169   1.925   2.480
 3782SOL    HW112098   2.158   2.019   2.513
 3782SOL    HW212099   2.164   1.862   2.557
 3783SOL     OW12100   3.484   2.229   2.236
 3783SOL    HW112101   3.486   2.153   2.300
 3783SOL    HW212102   3.436   2.306   2.276
 3784SOL     OW12103   3.721   3.380   3.467
 3784SOL    HW112104   3.735   3.407   3.372
 3784SOL    HW212105   3.804   3.402   3.520
 3785SOL     OW12106   3.402   2.136   1.987
 3785SOL    HW112107   3.341   2.061   2.010
 3785SOL    HW212108   3.424   2.188   2.070
 3786SOL     OW12109   3.165   2.700   1.904
 3786SOL    HW112110   3.199   2.607   1.919
 3786SOL    HW212111   3.183   2.727   1.809
 3787SOL     OW12112   2.930   3.195   2.711
 3787SOL    HW112113   2.937   3.111   2.656
 3787SOL    HW212114   2.992   3.264   2.675
 3788SOL     OW12115   2.181   2.672   2.811
 3788SOL    HW112116   2.274   2.708   2.816
 3788SOL    HW212117   2.175   2.587   2.863
 3789SOL     OW12118   2.201   2.371   2.868
 3789SOL    HW112119   2.149   2.288   2.851
 3789SOL    HW212120   2.278   2.376   2.804
 3790SOL     OW12121   1.870   3.188   2.062
 3790SOL    HW112122   1.777   3.209   2.031
 3790SOL    HW212123   1.880   3.089   2.075
 3791SOL     OW12124   1.950   3.663   2.789
 3791SOL    HW112125   1.908   3.577   2.762
 3791SOL    HW212126   2.044   3.666   2.755
 3792SOL     OW12127   2.366   3.430   2.772
 3792SOL    HW112128   2.432   3.504   2.781
 3792SOL    HW212129   2.410   3.351   2.730
 3793SOL     OW12130   3.519   2.466   3.068
 3793SOL    HW112131   3.481   2.397   3.130
 3793SOL    HW212132   3.601   2.430   3.024
 3794SOL     OW12133   2.114   3.426   3.606
 3794SOL    HW112134   2.084   3.483   3.682
 3794SOL    HW212135   2.107   3.329   3.632
 3795SOL     OW12136   2.792   3.540   3.327
 3795SOL    HW112137   2.768   3.522   3.232
 3795SOL    HW212138   2.822   3.634   3.337
 3796SOL     OW12139   3.164   2.717   2.171
 3796SOL    HW112140   3.078   2.686   2.213
 3796SOL    HW212141   3.160   2.703   2.072
 3797SOL     OW12142   3.621   3.609   3.016
 3797SOL    HW112143   3.682   3.639   2.943
 3797SOL    HW212144   3.583   3.520   2.994
 3798SOL     OW12145   3.114   3.593   2.990
 3798SOL    HW112146   3.198   3.598   2.936
 3798SOL    HW212147   3.091   3.497   3.008
 3799SOL     OW12148   1.945   3.120   2.884
 3799SOL    HW112149   1.940   3.119   2.984
 3799SOL    HW212150   1.862   3.079   2.846
 3800SOL     OW12151   2.550   3.524   3.578
 3800SOL    HW112152   2.494   3.605   3.587
 3800SOL    HW212153   2.602   3.528   3.492
 3801SOL     OW12154   3.588   1.997   2.385
 3801SOL    HW112155   3.661   1.980   2.318
 3801SOL    HW212156   3.557   1.910   2.423
 3802SOL     OW12157   3.250   3.435   2.339
 3802SOL    HW112158   3.317   3.447   2.265
 3802SOL    HW212159   3.210   3.524   2.362
 3803SOL     OW12160   1.992   3.656   3.713
 3803SOL    HW112161   1.951   3.582   3.766
 3803SOL    HW212162   2.056   3.707   3.771
 3804SOL     OW12163   3.142   2.789   2.534
 3804SOL    HW112164   3.202   2.708   2.536
 3804SOL    HW212165   3.182   2.858   2.474
 3805SOL     OW12166   2.534   3.478   2.016
 3805SOL    HW112167   2.543   3.488   1.917
 3805SOL    HW212168   2.494   3.389   2.037
 3806SOL     OW12169   3.512   3.582   3.256
 3806SOL    HW112170   3.565   3.592   3.172
 3806SOL    HW212171   3.485   3.672   3.290
 3807SOL     OW12172   3.703   2.037   2.825
 3807SOL    HW112173   3.742   1.952   2.789
 3807SOL    HW212174   3.605   2.039   2.806
 3808SOL     OW12175   2.125   2.188   2.582
 3808SOL    HW112176   2.046   2.239   2.548
 3808SOL    HW212177   2.116   2.173   2.680
 3809SOL     OW12178   3.056   3.474   1.893
 3809SOL    HW112179   3.062   3.381   1.930
 3809SOL    HW212180   2.997   3.474   1.813
 3810SOL     OW12181   3.366   3.469   1.906
 3810SOL    HW112182   3.274   3.506   1.913
 3810SOL    HW212183   3.404   3.489   1.816
 3811SOL     OW12184   3.476   3.154   3.151
 3811SOL    HW112185   3.536   3.157   3.231
 3811SOL    HW212186   3.401   3.218   3.164
 3812SOL     OW12187   2.876   2.098   2.833
 3812SOL    HW112188   2.868   2.062   2.740
 3812SOL    HW212189   2.874   2.022   2.898
 3813SOL     OW12190   2.452   3.349   2.353
 3813SOL    HW112191   2.494   3.291   2.283
 3813SOL    HW212192   2.408   3.428   2.309
 3814SOL     OW12193   3.571   2.247   3.243
 3814SOL    HW112194   3.644   2.316   3.247
 3814SOL    HW212195   3.599   2.172   3.184
 3815SOL     OW12196   2.117   3.210   2.152
 3815SOL    HW112197   2.021   3.211   2.125
 3815SOL    HW212198   2.129   3.263   2.236
 3816SOL     OW12199   1.937   2.207   1.895
 3816SOL    HW112200   1.845   2.179   1.866
 3816SOL    HW212201   1.968   2.284   1.839
 3817SOL     OW12202   1.934   2.028   2.180
 3817SOL    HW112203   1.917   2.111   2.126
 3817SOL    HW212204   2.024   1.991   2.158
 3818SOL     OW12205   3.045   3.197   1.981
 3818SOL    HW112206   2.946   3.186   1.983
 3818SOL    HW212207   3.079   3.212   2.074
 3819SOL     OW12208   3.355   3.629   2.821
 3819SOL    HW112209   3.388   3.693   2.752
 3819SOL    HW212210   3.421   3.623   2.896
 3820SOL     OW12211   2.252   3.603   3.422
 3820SOL    HW112212   2.161   3.644   3.420
 3820SOL    HW212213   2.245   3.509   3.454
 3821SOL     OW12214   3.536   2.745   3.116
 3821SOL    HW112215   3.509   2.656   3.079
 3821SOL    HW212216   3.537   2.813   3.043
 3822SOL     OW12217   3.087   2.187   2.311
 3822SOL    HW112218   3.152   2.113   2.300
 3822SOL    HW212219   3.107   2.237   2.395
 3823SOL     OW12220   3.639   2.204   3.504
 3823SOL    HW112221   3.622   2.235   3.410
 3823SOL    HW212222   3.555   2.167   3.542
 3824SOL     OW12223   3.592   2.796   3.379
 3824SOL    HW112224   3.630   2.887   3.394
 3824SOL    HW212225   3.584   2.779   3.280
 3825SOL     OW12226   2.721   3.236   1.878
 3825SOL    HW112227   2.675   3.251   1.966
 3825SOL    HW212228   2.765   3.321   1.848
 3826SOL     OW12229   2.523   3.652   2.815
 3826SOL    HW112230   2.477   3.740   2.802
 3826SOL    HW212231   2.622   3.664   2.808
 3827SOL     OW12232   3.723   3.431   2.713
 3827SOL    HW112233   3.652   3.419   2.643
 3827SOL    HW212234   3.724   3.352   2.773
 3828SOL     OW12235   1.941   3.102   2.515
 3828SOL    HW112236   1.940   3.055   2.603
 3828SOL    HW212237   2.023   3.074   2.464
 3829SOL     OW12238   3.686   2.054   3.089
 3829SOL    HW112239   3.682   1.964   3.133
 3829SOL    HW212240   3.689   2.043   2.990
 3830SOL     OW12241   2.290   2.286   2.382
 3830SOL    HW112242   2.320   2.214   2.320
 3830SOL    HW212243   2.251   2.246   2.465
 3831SOL     OW12244   3.567   3.349   2.966
 3831SOL    HW112245   3.474   3.324   2.939
 3831SOL    HW212246   3.593   3.299   3.048
 3832SOL     OW12247   2.674   3.448   2.549
 3832SOL    HW112248   2.706   3.458   2.455
 3832SOL    HW212249   2.595   3.386   2.551
 3833SOL     OW12250   3.286   2.076   2.974
 3833SOL    HW112251   3.338   2.011   3.029
 3833SOL    HW212252   3.237   2.139   3.035
 3834SOL     OW12253   2.863   1.896   3.016
 3834SOL    HW112254   2.800   1.824   2.985
 3834SOL    HW212255   2.956   1.860   3.016
 3835SOL     OW12256   2.632   3.192   2.163
 3835SOL    HW112257   2.586   3.105   2.180
 3835SOL    HW212258   2.723   3.189   2.204
 3836SOL     OW12259   3.214   1.914   2.030
 3836SOL    HW112260   3.249   1.873   1.946
 3836SOL    HW212261   3.124   1.876   2.050
 3837SOL     OW12262   3.162   2.315   2.553
 3837SOL    HW112263   3.103   2.395   2.557
 3837SOL    HW212264   3.177   2.280   2.646
 3838SOL     OW12265   3.455   2.083   2.744
 3838SOL    HW112266   3.371   2.082   2.798
 3838SOL    HW212267   3.457   2.166   2.688
 3839SOL     OW12268   1.901   2.939   2.162
 3839SOL    HW112269   2.000   2.928   2.153
 3839SOL    HW212270   1.861   2.853   2.194
 3840SOL     OW12271   2.737   3.508   2.199
 3840SOL    HW112272   2.660   3.473   2.145
 3840SOL    HW212273   2.705   3.579   2.261
 3841SOL     OW12274   1.881   2.230   4.371
 3841SOL    HW112275   1.799   2.273   4.410
 3841SOL    HW212276   1.853   2.157   4.308
 3842SOL     OW12277   3.417   3.373   4.427
 3842SOL    HW112278   3.360   3.357   4.508
 3842SOL    HW212279   3.358   3.383   4.347
 3843SOL     OW12280   3.617   2.469   3.955
 3843SOL    HW112281   3.605   2.456   3.856
 3843SOL    HW212282   3.587   2.388   4.004
 3844SOL     OW12283   2.630   3.006   4.747
 3844SOL    HW112284   2.552   3.023   4.807
 3844SOL    HW212285   2.664   3.093   4.711
 3845SOL     OW12286   2.548   3.023   5.527
 3845SOL    HW112287   2.608   3.102   5.541
 3845SOL    HW212288   2.462   3.054   5.486
 3846SOL     OW12289   3.322   3.367   5.063
 3846SOL    HW112290   3.346   3.461   5.089
 3846SOL    HW212291   3.306   3.313   5.145
 3847SOL     OW12292   2.300   2.254   5.223
 3847SOL    HW112293   2.382   2.198   5.232
 3847SOL    HW212294   2.219   2.196   5.227
 3848SOL     OW12295   3.465   2.309   4.461
 3848SOL    HW112296   3.391   2.355   4.411
 3848SOL    HW212297   3.516   2.377   4.514
 3849SOL     OW12298   2.093   3.575   4.207
 3849SOL    HW112299   2.127   3.652   4.261
 3849SOL    HW212300   2.137   3.575   4.117
 3850SOL     OW12301   2.989   3.203   5.414
 3850SOL    HW112302   3.036   3.203   5.502
 3850SOL    HW212303   2.941   3.116   5.403
 3851SOL     OW12304   2.092   3.296   4.262
 3851SOL    HW112305   2.066   3.392   4.262
 3851SOL    HW212306   2.021   3.242   4.307
 3852SOL     OW12307   2.482   3.648   5.163
 3852SOL    HW112308   2.390   3.631   5.198
 3852SOL    HW212309   2.510   3.740   5.189
 3853SOL     OW12310   2.468   2.826   3.847
 3853SOL    HW112311   2.475   2.910   3.793
 3853SOL    HW212312   2.514   2.839   3.935
 3854SOL     OW12313   3.456   1.976   5.204
 3854SOL    HW112314   3.438   2.043   5.132
 3854SOL    HW212315   3.453   2.022   5.293
 3855SOL     OW12316   3.704   3.629   4.083
 3855SOL    HW112317   3.758   3.600   4.163
 3855SOL    HW212318   3.734   3.719   4.054
 3856SOL     OW12319   1.889   3.458   3.841
 3856SOL    HW112320   1.870   3.362   3.862
 3856SOL    HW212321   1.856   3.516   3.916
 3857SOL     OW12322   3.551   2.784   4.336
 3857SOL    HW112323   3.646   2.755   4.344
 3857SOL    HW212324   3.543   2.849   4.261
 3858SOL     OW12325   3.503   2.970   4.156
 3858SOL    HW112326   3.589   2.972   4.104
 3858SOL    HW212327   3.517   3.017   4.244
 3859SOL     OW12328   1.975   2.599   5.321
 3859SOL    HW112329   2.063   2.586   5.366
 3859SOL    HW212330   1.962   2.696   5.299
 3860SOL     OW12331   3.155   3.090   5.147
 3860SOL    HW112332   3.192   3.017   5.089
 3860SOL    HW212333   3.207   3.095   5.232
 3861SOL     OW12334   3.387   2.861   3.914
 3861SOL    HW112335   3.324   2.785   3.927
 3861SOL    HW212336   3.435   2.879   4.000
 3862SOL     OW12337   3.049   3.654   5.340
 3862SOL    HW112338   3.073   3.714   5.264
 3862SOL    HW212339   3.056   3.559   5.310
 3863SOL     OW12340   2.179   2.113   5.525
 3863SOL    HW112341   2.250   2.184   5.531
 3863SOL    HW212342   2.091   2.152   5.553
 3864SOL     OW12343   3.529   3.576   4.296
 3864SOL    HW112344   3.488   3.553   4.208
 3864SOL    HW212345   3.511   3.502   4.361
 3865SOL     OW12346   3.438   3.524   4.031
 3865SOL    HW112347   3.527   3.570   4.034
 3865SOL    HW212348   3.417   3.500   3.936
 3866SOL     OW12349   3.256   2.331   5.398
 3866SOL    HW112350   3.236   2.374   5.486
 3866SOL    HW212351   3.334   2.269   5.407
 3867SOL     OW12352   1.992   3.683   5.295
 3867SOL    HW112353   1.982   3.668   5.394
 3867SOL    HW212354   1.906   3.719   5.259
 3868SOL     OW12355   3.581   2.447   5.555
 3868SOL    HW112356   3.555   2.536   5.519
 3868SOL    HW212357   3.579   2.379   5.482
 3869SOL     OW12358   2.870   3.318   4.201
 3869SOL    HW112359   2.824   3.390   4.149
 3869SOL    HW212360   2.866   3.338   4.299
 3870SOL     OW12361   2.213   3.663   4.577
 3870SOL    HW112362   2.263   3.577   4.583
 3870SOL    HW212363   2.278   3.740   4.574
 3871SOL     OW12364   3.657   2.928   4.597
 3871SOL    HW112365   3.595   2.913   4.521
 3871SOL    HW212366   3.605   2.939   4.682
 3872SOL     OW12367   3.089   3.412   5.230
 3872SOL    HW112368   3.095   3.335   5.294
 3872SOL    HW212369   3.037   3.386   5.150
 3873SOL     OW12370   2.183   2.805   3.966
 3873SOL    HW112371   2.265   2.844   3.924
 3873SOL    HW212372   2.156   2.723   3.917
 3874SOL     OW12373   2.323   3.128   5.451
 3874SOL    HW112374   2.273   3.129   5.365
 3874SOL    HW212375   2.260   3.110   5.527
 3875SOL     OW12376   2.973   3.638   3.961
 3875SOL    HW112377   2.913   3.576   4.011
 3875SOL    HW212378   3.004   3.594   3.876
 3876SOL     OW12379   2.064   2.147   5.222
 3876SOL    HW112380   1.984   2.207   5.209
 3876SOL    HW212381   2.054   2.098   5.308
 3877SOL     OW12382   3.494   3.239   3.805
 3877SOL    HW112383   3.462   3.333   3.795
 3877SOL    HW212384   3.418   3.176   3.793
 3878SOL     OW12385   2.326   3.605   4.047
 3878SOL    HW112386   2.359   3.644   4.133
 3878SOL    HW212387   2.402   3.598   3.982
 3879SOL     OW12388   3.262   1.969   4.150
 3879SOL    HW112389   3.238   1.932   4.060
 3879SOL    HW212390   3.361   1.985   4.154
 3880SOL     OW12391   2.111   3.647   4.965
 3880SOL    HW112392   2.168   3.582   5.015
 3880SOL    HW212393   2.095   3.614   4.872
 3881SOL     OW12394   2.244   2.562   4.204
 3881SOL    HW112395   2.289   2.472   4.201
 3881SOL    HW212396   2.150   2.551   4.237
 3882SOL     OW12397   3.409   2.084   5.453
 3882SOL    HW112398   3.404   2.121   5.545
 3882SOL    HW212399   3.337   2.015   5.441
 3883SOL     OW12400   2.643   2.126   5.473
 3883SOL    HW112401   2.710   2.065   5.516
 3883SOL    HW212402   2.570   2.145   5.538
 3884SOL     OW12403   3.213   2.452   5.157
 3884SOL    HW112404   3.241   2.409   5.242
 3884SOL    HW212405   3.238   2.548   5.158
 3885SOL     OW12406   2.784   2.365   4.623
 3885SOL    HW112407   2.759   2.356   4.527
 3885SOL    HW212408   2.832   2.283   4.654
 3886SOL     OW12409   2.401   1.926   4.236
 3886SOL    HW112410   2.320   1.927   4.294
 3886SOL    HW212411   2.404   2.009   4.181
 3887SOL     OW12412   2.159   1.897   3.895
 3887SOL    HW112413   2.208   1.981   3.874
 3887SOL    HW212414   2.221   1.832   3.940
 3888SOL     OW12415   3.133   3.659   4.315
 3888SOL    HW112416   3.177   3.723   4.251
 3888SOL    HW212417   3.083   3.711   4.385
 3889SOL     OW12418   2.894   2.411   3.740
 3889SOL    HW112419   2.853   2.493   3.701
 3889SOL    HW212420   2.958   2.437   3.813
 3890SOL     OW12421   1.940   2.418   5.110
 3890SOL    HW112422   2.032   2.417   5.069
 3890SOL    HW212423   1.934   2.492   5.177
 3891SOL     OW12424   3.719   2.695   4.101
 3891SOL    HW112425   3.761   2.631   4.165
 3891SOL    HW212426   3.681   2.644   4.023
 3892SOL     OW12427   2.350   3.247   3.898
 3892SOL    HW112428   2.263   3.232   3.945
 3892SOL    HW212429   2.333   3.273   3.803
 3893SOL     OW12430   3.526   3.142   4.381
 3893SOL    HW112431   3.625   3.150   4.395
 3893SOL    HW212432   3.481   3.226   4.412
 3894SOL     OW12433   2.389   2.118   4.052
 3894SOL    HW112434   2.416   2.059   3.977
 3894SOL    HW212435   2.389   2.213   4.021
 3895SOL     OW12436   3.616   3.085   5.312
 3895SOL    HW112437   3.707   3.046   5.299
 3895SOL    HW212438   3.624   3.181   5.336
 3896SOL     OW12439   2.926   3.209   5.064
 3896SOL    HW112440   2.846   3.186   5.119
 3896SOL    HW212441   3.009   3.183   5.113
 3897SOL     OW12442   3.454   3.491   5.349
 3897SOL    HW112443   3.481   3.525   5.259
 3897SOL    HW212444   3.533   3.453   5.395
 3898SOL     OW12445   2.777   1.951   5.126
 3898SOL    HW112446   2.802   1.931   5.031
 3898SOL    HW212447   2.849   2.007   5.168
 3899SOL     OW12448   2.272   2.675   4.975
 3899SOL    HW112449   2.358   2.687   5.025
 3899SOL    HW212450   2.230   2.588   5.002
 3900SOL     OW12451   1.926   3.426   5.055
 3900SOL    HW112452   1.880   3.508   5.021
 3900SOL    HW212453   2.024   3.445   5.064
 3901SOL     OW12454   2.229   2.962   4.225
 3901SOL    HW112455   2.222   3.045   4.169
 3901SOL    HW212456   2.233   2.882   4.165
 3902SOL     OW12457   3.114   3.210   4.112
 3902SOL    HW112458   3.164   3.287   4.152
 3902SOL    HW212459   3.019   3.212   4.144
 3903SOL     OW12460   2.264   2.613   5.322
 3903SOL    HW112461   2.332   2.668   5.275
 3903SOL    HW212462   2.304   2.525   5.349
 3904SOL     OW12463   3.449   2.641   5.394
 3904SOL    HW112464   3.357   2.679   5.389
 3904SOL    HW212465   3.509   2.688   5.329
 3905SOL     OW12466   2.875   1.967   5.494
 3905SOL    HW112467   2.881   2.052   5.442
 3905SOL    HW212468   2.907   1.891   5.437
 3906SOL     OW12469   2.366   1.912   5.464
 3906SOL    HW112470   2.324   1.855   5.394
 3906SOL    HW212471   2.300   1.981   5.496
 3907SOL     OW12472   3.071   2.387   3.999
 3907SOL    HW112473   3.084   2.303   4.053
 3907SOL    HW212474   3.042   2.461   4.059
 3908SOL     OW12475   1.899   3.172   5.006
 3908SOL    HW112476   1.952   3.123   5.074
 3908SOL    HW212477   1.921   3.270   5.011
 3909SOL     OW12478   3.590   2.797   5.578
 3909SOL    HW112479   3.544   2.790   5.489
 3909SOL    HW212480   3.528   2.841   5.644
 3910SOL     OW12481   2.169   1.925   4.342
 3910SOL    HW112482   2.158   2.019   4.375
 3910SOL    HW212483   2.164   1.862   4.419
 3911SOL     OW12484   3.484   2.229   4.098
 3911SOL    HW112485   3.486   2.153   4.162
 3911SOL    HW212486   3.436   2.306   4.138
 3912SOL     OW12487   2.842   3.435   5.424
 3912SOL    HW112488   2.822   3.479   5.336
 3912SOL    HW212489   2.881   3.344   5.408
 3913SOL     OW12490   3.721   3.380   5.329
 3913SOL    HW112491   3.735   3.407   5.234
 3913SOL    HW212492   3.804   3.402   5.382
 3914SOL     OW12493   2.212   2.760   5.528
 3914SOL    HW112494   2.288   2.804   5.576
 3914SOL    HW212495   2.247   2.713   5.446
 3915SOL     OW12496   3.402   2.136   3.849
 3915SOL    HW112497   3.341   2.061   3.872
 3915SOL    HW212498   3.424   2.188   3.932
 3916SOL     OW12499   3.000   2.242   5.402
 3916SOL    HW112500   2.955   2.305   5.466
 3916SOL    HW212501   3.093   2.273   5.385
 3917SOL     OW12502   3.022   2.069   5.201
 3917SOL    HW112503   3.022   2.133   5.278
 3917SOL    HW212504   3.050   2.117   5.118
 3918SOL     OW12505   1.870   3.188   3.924
 3918SOL    HW112506   1.777   3.209   3.893
 3918SOL    HW212507   1.880   3.089   3.937
 3919SOL     OW12508   1.950   3.663   4.651
 3919SOL    HW112509   1.908   3.577   4.624
 3919SOL    HW212510   2.044   3.666   4.617
 3920SOL     OW12511   2.051   2.382   5.446
 3920SOL    HW112512   2.110   2.342   5.376
 3920SOL    HW212513   1.993   2.453   5.405
 3921SOL     OW12514   3.231   2.812   5.384
 3921SOL    HW112515   3.270   2.901   5.404
 3921SOL    HW212516   3.241   2.792   5.287
 3922SOL     OW12517   3.519   2.466   4.930
 3922SOL    HW112518   3.481   2.397   4.992
 3922SOL    HW212519   3.601   2.430   4.886
 3923SOL     OW12520   2.114   3.426   5.468
 3923SOL    HW112521   2.084   3.483   5.544
 3923SOL    HW212522   2.107   3.329   5.494
 3924SOL     OW12523   2.792   3.540   5.189
 3924SOL    HW112524   2.768   3.522   5.094
 3924SOL    HW212525   2.822   3.634   5.199
 3925SOL     OW12526   2.021   2.999   5.190
 3925SOL    HW112527   2.043   2.938   5.266
 3925SOL    HW212528   2.031   2.950   5.104
 3926SOL     OW12529   3.164   2.717   4.033
 3926SOL    HW112530   3.078   2.686   4.075
 3926SOL    HW212531   3.160   2.703   3.934
 3927SOL     OW12532   3.621   3.609   4.878
 3927SOL    HW112533   3.682   3.639   4.805
 3927SOL    HW212534   3.583   3.520   4.856
 3928SOL     OW12535   3.114   3.593   4.852
 3928SOL    HW112536   3.198   3.598   4.798
 3928SOL    HW212537   3.091   3.497   4.870
 3929SOL     OW12538   2.550   3.524   5.440
 3929SOL    HW112539   2.494   3.605   5.449
 3929SOL    HW212540   2.602   3.528   5.354
 3930SOL     OW12541   3.588   1.997   4.247
 3930SOL    HW112542   3.661   1.980   4.180
 3930SOL    HW212543   3.557   1.910   4.285
 3931SOL     OW12544   3.250   3.435   4.201
 3931SOL    HW112545   3.317   3.447   4.127
 3931SOL    HW212546   3.210   3.524   4.224
 3932SOL     OW12547   1.992   3.656   5.575
 3932SOL    HW112548   1.951   3.582   5.628
 3932SOL    HW212549   2.056   3.707   5.633
 3933SOL     OW12550   2.692   3.135   5.146
 3933SOL    HW112551   2.687   3.168   5.241
 3933SOL    HW212552   2.606   3.154   5.100
 3934SOL     OW12553   2.534   3.478   3.878
 3934SOL    HW112554   2.543   3.488   3.779
 3934SOL    HW212555   2.494   3.389   3.899
 3935SOL     OW12556   3.512   3.582   5.118
 3935SOL    HW112557   3.565   3.592   5.034
 3935SOL    HW212558   3.485   3.672   5.152
 3936SOL     OW12559   3.703   2.037   4.687
 3936SOL    HW112560   3.742   1.952   4.651
 3936SOL    HW212561   3.605   2.039   4.668
 3937SOL     OW12562   3.056   3.474   3.755
 3937SOL    HW112563   3.062   3.381   3.792
 3937SOL    HW212564   2.997   3.474   3.675
 3938SOL     OW12565   3.366   3.469   3.768
 3938SOL    HW112566   3.274   3.506   3.775
 3938SOL    HW212567   3.404   3.489   3.678
 3939SOL     OW12568   2.234   3.150   5.214
 3939SOL    HW112569   2.221   3.243   5.180
 3939SOL    HW212570   2.150   3.098   5.201
 3940SOL     OW12571   3.476   3.154   5.013
 3940SOL    HW112572   3.536   3.157   5.093
 3940SOL    HW212573   3.401   3.218   5.026
 3941SOL     OW12574   2.452   3.349   4.215
 3941SOL    HW112575   2.494   3.291   4.145
 3941SOL    HW212576   2.408   3.428   4.171
 3942SOL     OW12577   3.571   2.247   5.105
 3942SOL    HW112578   3.644   2.316   5.109
 3942SOL    HW212579   3.599   2.172   5.046
 3943SOL     OW12580   2.117   3.210   4.014
 3943SOL    HW112581   2.021   3.211   3.987
 3943SOL    HW212582   2.129   3.263   4.098
 3944SOL     OW12583   1.967   2.875   5.450
 3944SOL    HW112584   1.890   2.842   5.504
 3944SOL    HW212585   2.052   2.845   5.492
 3945SOL     OW12586   2.534   2.065   5.213
 3945SOL    HW112587   2.624   2.049   5.173
 3945SOL    HW212588   2.542   2.070   5.312
 3946SOL     OW12589   1.937   2.207   3.757
 3946SOL    HW112590   1.845   2.179   3.728
 3946SOL    HW212591   1.968   2.284   3.701
 3947SOL     OW12592   3.302   2.718   5.122
 3947SOL    HW112593   3.245   2.770   5.059
 3947SOL    HW212594   3.398   2.730   5.098
 3948SOL     OW12595   1.934   2.028   4.042
 3948SOL    HW112596   1.917   2.111   3.988
 3948SOL    HW212597   2.024   1.991   4.020
 3949SOL     OW12598   3.355   3.629   4.683
 3949SOL    HW112599   3.388   3.693   4.614
 3949SOL    HW212600   3.421   3.623   4.758
 3950SOL     OW12601   3.312   3.082   5.357
 3950SOL    HW112602   3.303   3.072   5.456
 3950SOL    HW212603   3.408   3.075   5.331
 3951SOL     OW12604   2.252   3.603   5.284
 3951SOL    HW112605   2.161   3.644   5.282
 3951SOL    HW212606   2.245   3.509   5.316
 3952SOL     OW12607   3.536   2.745   4.978
 3952SOL    HW112608   3.509   2.656   4.941
 3952SOL    HW212609   3.537   2.813   4.905
 3953SOL     OW12610   3.639   2.204   5.366
 3953SOL    HW112611   3.622   2.235   5.272
 3953SOL    HW212612   3.555   2.167   5.404
 3954SOL     OW12613   3.592   2.796   5.241
 3954SOL    HW112614   3.630   2.887   5.256
 3954SOL    HW212615   3.584   2.779   5.142
 3955SOL     OW12616   2.523   3.652   4.677
 3955SOL    HW112617   2.477   3.740   4.664
 3955SOL    HW212618   2.622   3.664   4.670
 3956SOL     OW12619   2.945   2.846   3.811
 3956SOL    HW112620   2.922   2.899   3.729
 3956SOL    HW212621   3.026   2.790   3.792
 3957SOL     OW12622   3.723   3.431   4.575
 3957SOL    HW112623   3.652   3.419   4.505
 3957SOL    HW212624   3.724   3.352   4.635
 3958SOL     OW12625   2.083   3.176   5.568
 3958SOL    HW112626   2.018   3.103   5.547
 3958SOL    HW212627   2.087   3.190   5.666
 3959SOL     OW12628   2.534   3.253   5.348
 3959SOL    HW112629   2.456   3.203   5.386
 3959SOL    HW212630   2.531   3.348   5.379
 3960SOL     OW12631   3.686   2.054   4.951
 3960SOL    HW112632   3.682   1.964   4.995
 3960SOL    HW212633   3.689   2.043   4.852
 3961SOL     OW12634   3.567   3.349   4.828
 3961SOL    HW112635   3.474   3.324   4.801
 3961SOL    HW212636   3.593   3.299   4.910
 3962SOL     OW12637   2.179   2.409   5.004
 3962SOL    HW112638   2.217   2.350   5.076
 3962SOL    HW212639   2.219   2.383   4.916
 3963SOL     OW12640   3.286   2.076   4.836
 3963SOL    HW112641   3.338   2.011   4.891
 3963SOL    HW212642   3.237   2.139   4.897
 3964SOL     OW12643   2.632   3.192   4.025
 3964SOL    HW112644   2.586   3.105   4.042
 3964SOL    HW212645   2.723   3.189   4.066
 3965SOL     OW12646   2.480   3.429   5.008
 3965SOL    HW112647   2.475   3.511   5.065
 3965SOL    HW212648   2.569   3.426   4.963
 3966SOL     OW12649   3.214   1.914   3.892
 3966SOL    HW112650   3.249   1.873   3.808
 3966SOL    HW212651   3.124   1.876   3.912
 3967SOL     OW12652   3.455   2.083   4.606
 3967SOL    HW112653   3.371   2.082   4.660
 3967SOL    HW212654   3.457   2.166   4.550
 3968SOL     OW12655   1.901   2.939   4.024
 3968SOL    HW112656   2.000   2.928   4.015
 3968SOL    HW212657   1.861   2.853   4.056
 3969SOL     OW12658   2.737   3.508   4.061
 3969SOL    HW112659   2.660   3.473   4.007
 3969SOL    HW212660   2.705   3.579   4.123
 3970SOL     OW12661   2.092   2.490   5.699
 3970SOL    HW112662   1.999   2.488   5.736
 3970SOL    HW212663   2.093   2.451   5.607
 3971SOL     OW12664   2.087   2.137   6.582
 3971SOL    HW112665   2.122   2.120   6.674
 3971SOL    HW212666   1.999   2.092   6.570
 3972SOL     OW12667   1.881   2.230   6.233
 3972SOL    HW112668   1.799   2.273   6.272
 3972SOL    HW212669   1.853   2.157   6.170
 3973SOL     OW12670   2.431   3.137   6.751
 3973SOL    HW112671   2.338   3.130   6.714
 3973SOL    HW212672   2.442   3.226   6.795
 3974SOL     OW12673   3.417   3.373   6.289
 3974SOL    HW112674   3.360   3.357   6.370
 3974SOL    HW212675   3.358   3.383   6.209
 3975SOL     OW12676   2.997   2.565   6.303
 3975SOL    HW112677   3.054   2.643   6.278
 3975SOL    HW212678   2.937   2.591   6.379
 3976SOL     OW12679   3.617   2.469   5.817
 3976SOL    HW112680   3.605   2.456   5.718
 3976SOL    HW212681   3.587   2.388   5.866
 3977SOL     OW12682   2.630   3.006   6.609
 3977SOL    HW112683   2.552   3.023   6.669
 3977SOL    HW212684   2.664   3.093   6.573
 3978SOL     OW12685   2.548   3.023   7.389
 3978SOL    HW112686   2.608   3.102   7.403
 3978SOL    HW212687   2.462   3.054   7.348
 3979SOL     OW12688   2.197   3.297   6.647
 3979SOL    HW112689   2.119   3.266   6.594
 3979SOL    HW212690   2.255   3.355   6.590
 3980SOL     OW12691   3.322   3.367   6.925
 3980SOL    HW112692   3.346   3.461   6.951
 3980SOL    HW212693   3.306   3.313   7.007
 3981SOL     OW12694   2.300   2.254   7.085
 3981SOL    HW112695   2.382   2.198   7.094
 3981SOL    HW212696   2.219   2.196   7.089
 3982SOL     OW12697   3.465   2.309   6.323
 3982SOL    HW112698   3.391   2.355   6.273
 3982SOL    HW212699   3.516   2.377   6.376
 3983SOL     OW12700   2.093   3.575   6.069
 3983SOL    HW112701   2.127   3.652   6.123
 3983SOL    HW212702   2.137   3.575   5.979
 3984SOL     OW12703   2.989   3.203   7.276
 3984SOL    HW112704   3.036   3.203   7.364
 3984SOL    HW212705   2.941   3.116   7.265
 3985SOL     OW12706   2.092   3.296   6.124
 3985SOL    HW112707   2.066   3.392   6.124
 3985SOL    HW212708   2.021   3.242   6.169
 3986SOL     OW12709   2.102   2.953   6.472
 3986SOL    HW112710   2.116   2.869   6.524
 3986SOL    HW212711   2.047   3.017   6.527
 3987SOL     OW12712   2.482   3.648   7.025
 3987SOL    HW112713   2.390   3.631   7.060
 3987SOL    HW212714   2.510   3.740   7.051
 3988SOL     OW12715   2.468   2.826   5.709
 3988SOL    HW112716   2.475   2.910   5.655
 3988SOL    HW212717   2.514   2.839   5.797
 3989SOL     OW12718   3.456   1.976   7.066
 3989SOL    HW112719   3.438   2.043   6.994
 3989SOL    HW212720   3.453   2.022   7.155
 3990SOL     OW12721   1.984   2.505   6.149
 3990SOL    HW112722   1.939   2.417   6.166
 3990SOL    HW212723   1.983   2.559   6.233
 3991SOL     OW12724   3.704   3.629   5.945
 3991SOL    HW112725   3.758   3.600   6.025
 3991SOL    HW212726   3.734   3.719   5.916
 3992SOL     OW12727   1.889   3.458   5.703
 3992SOL    HW112728   1.870   3.362   5.724
 3992SOL    HW212729   1.856   3.516   5.778
 3993SOL     OW12730   3.551   2.784   6.198
 3993SOL    HW112731   3.646   2.755   6.206
 3993SOL    HW212732   3.543   2.849   6.123
 3994SOL     OW12733   3.503   2.970   6.018
 3994SOL    HW112734   3.589   2.972   5.966
 3994SOL    HW212735   3.517   3.017   6.106
 3995SOL     OW12736   1.975   2.599   7.183
 3995SOL    HW112737   2.063   2.586   7.228
 3995SOL    HW212738   1.962   2.696   7.161
 3996SOL     OW12739   2.475   3.227   6.312
 3996SOL    HW112740   2.426   3.140   6.321
 3996SOL    HW212741   2.452   3.270   6.225
 3997SOL     OW12742   3.155   3.090   7.009
 3997SOL    HW112743   3.192   3.017   6.951
 3997SOL    HW212744   3.207   3.095   7.094
 3998SOL     OW12745   2.671   1.866   6.088
 3998SOL    HW112746   2.711   1.957   6.079
 3998SOL    HW212747   2.571   1.874   6.094
 3999SOL     OW12748   2.059   2.838   6.850
 3999SOL    HW112749   2.148   2.793   6.836
 3999SOL    HW212750   1.986   2.773   6.831
 4000SOL     OW12751   3.387   2.861   5.776
 4000SOL    HW112752   3.324   2.785   5.789
 4000SOL    HW212753   3.435   2.879   5.862
 4001SOL     OW12754   3.049   3.654   7.202
 4001SOL    HW112755   3.073   3.714   7.126
 4001SOL    HW212756   3.056   3.559   7.172
 4002SOL     OW12757   2.179   2.113   7.387
 4002SOL    HW112758   2.250   2.184   7.393
 4002SOL    HW212759   2.091   2.152   7.415
 4003SOL     OW12760   3.328   3.279   6.539
 4003SOL    HW112761   3.269   3.285   6.619
 4003SOL    HW212762   3.313   3.191   6.493
 4004SOL     OW12763   3.529   3.576   6.158
 4004SOL    HW112764   3.488   3.553   6.070
 4004SOL    HW212765   3.511   3.502   6.223
 4005SOL     OW12766   3.143   2.207   6.530
 4005SOL    HW112767   3.057   2.157   6.517
 4005SOL    HW212768   3.205   2.153   6.586
 4006SOL     OW12769   3.438   3.524   5.893
 4006SOL    HW112770   3.527   3.570   5.896
 4006SOL    HW212771   3.417   3.500   5.798
 4007SOL     OW12772   3.256   2.331   7.260
 4007SOL    HW112773   3.236   2.374   7.348
 4007SOL    HW212774   3.334   2.269   7.269
 4008SOL     OW12775   2.853   2.272   6.828
 4008SOL    HW112776   2.776   2.306   6.882
 4008SOL    HW212777   2.819   2.221   6.749
 4009SOL     OW12778   1.938   2.673   6.375
 4009SOL    HW112779   2.037   2.661   6.384
 4009SOL    HW212780   1.914   2.768   6.396
 4010SOL     OW12781   1.992   3.683   7.157
 4010SOL    HW112782   1.982   3.668   7.256
 4010SOL    HW212783   1.906   3.719   7.121
 4011SOL     OW12784   2.727   2.210   5.781
 4011SOL    HW112785   2.786   2.273   5.732
 4011SOL    HW212786   2.746   2.116   5.752
 4012SOL     OW12787   3.581   2.447   7.417
 4012SOL    HW112788   3.555   2.536   7.381
 4012SOL    HW212789   3.579   2.379   7.344
 4013SOL     OW12790   3.224   3.006   6.131
 4013SOL    HW112791   3.307   2.977   6.083
 4013SOL    HW212792   3.175   3.073   6.075
 4014SOL     OW12793   2.412   2.058   6.471
 4014SOL    HW112794   2.407   2.053   6.571
 4014SOL    HW212795   2.414   2.154   6.442
 4015SOL     OW12796   2.870   3.318   6.063
 4015SOL    HW112797   2.824   3.390   6.011
 4015SOL    HW212798   2.866   3.338   6.161
 4016SOL     OW12799   2.213   3.663   6.439
 4016SOL    HW112800   2.263   3.577   6.445
 4016SOL    HW212801   2.278   3.740   6.436
 4017SOL     OW12802   3.657   2.928   6.459
 4017SOL    HW112803   3.595   2.913   6.383
 4017SOL    HW212804   3.605   2.939   6.544
 4018SOL     OW12805   3.089   3.412   7.092
 4018SOL    HW112806   3.095   3.335   7.156
 4018SOL    HW212807   3.037   3.386   7.012
 4019SOL     OW12808   2.183   2.805   5.828
 4019SOL    HW112809   2.265   2.844   5.786
 4019SOL    HW212810   2.156   2.723   5.779
 4020SOL     OW12811   3.320   2.597   6.314
 4020SOL    HW112812   3.315   2.532   6.389
 4020SOL    HW212813   3.400   2.656   6.327
 4021SOL     OW12814   2.323   3.128   7.313
 4021SOL    HW112815   2.273   3.129   7.227
 4021SOL    HW212816   2.260   3.110   7.389
 4022SOL     OW12817   2.973   3.638   5.823
 4022SOL    HW112818   2.913   3.576   5.873
 4022SOL    HW212819   3.004   3.594   5.738
 4023SOL     OW12820   2.064   2.147   7.084
 4023SOL    HW112821   1.984   2.207   7.071
 4023SOL    HW212822   2.054   2.098   7.170
 4024SOL     OW12823   3.494   3.239   5.667
 4024SOL    HW112824   3.462   3.333   5.657
 4024SOL    HW212825   3.418   3.176   5.655
 4025SOL     OW12826   2.326   3.605   5.909
 4025SOL    HW112827   2.359   3.644   5.995
 4025SOL    HW212828   2.402   3.598   5.844
 4026SOL     OW12829   3.262   1.969   6.012
 4026SOL    HW112830   3.238   1.932   5.922
 4026SOL    HW212831   3.361   1.985   6.016
 4027SOL     OW12832   2.111   3.647   6.827
 4027SOL    HW112833   2.168   3.582   6.877
 4027SOL    HW212834   2.095   3.614   6.734
 4028SOL     OW12835   2.802   3.560   6.490
 4028SOL    HW112836   2.882   3.503   6.511
 4028SOL    HW212837   2.753   3.520   6.413
 4029SOL     OW12838   2.244   2.562   6.066
 4029SOL    HW112839   2.289   2.472   6.063
 4029SOL    HW212840   2.150   2.551   6.099
 4030SOL     OW12841   3.409   2.084   7.315
 4030SOL    HW112842   3.404   2.121   7.407
 4030SOL    HW212843   3.337   2.015   7.303
 4031SOL     OW12844   2.476   1.984   5.703
 4031SOL    HW112845   2.574   1.962   5.710
 4031SOL    HW212846   2.445   1.967   5.610
 4032SOL     OW12847   2.643   2.126   7.335
 4032SOL    HW112848   2.710   2.065   7.378
 4032SOL    HW212849   2.570   2.145   7.400
 4033SOL     OW12850   2.750   3.376   6.781
 4033SOL    HW112851   2.727   3.351   6.687
 4033SOL    HW212852   2.811   3.307   6.820
 4034SOL     OW12853   3.213   2.452   7.019
 4034SOL    HW112854   3.241   2.409   7.104
 4034SOL    HW212855   3.238   2.548   7.020
 4035SOL     OW12856   2.665   3.264   6.510
 4035SOL    HW112857   2.755   3.278   6.468
 4035SOL    HW212858   2.594   3.266   6.439
 4036SOL     OW12859   2.784   2.365   6.485
 4036SOL    HW112860   2.759   2.356   6.389
 4036SOL    HW212861   2.832   2.283   6.516
 4037SOL     OW12862   2.401   1.926   6.098
 4037SOL    HW112863   2.320   1.927   6.156
 4037SOL    HW212864   2.404   2.009   6.043
 4038SOL     OW12865   3.296   3.050   5.627
 4038SOL    HW112866   3.328   2.974   5.684
 4038SOL    HW212867   3.204   3.077   5.657
 4039SOL     OW12868   2.159   1.897   5.757
 4039SOL    HW112869   2.208   1.981   5.736
 4039SOL    HW212870   2.221   1.832   5.802
 4040SOL     OW12871   2.797   2.098   6.066
 4040SOL    HW112872   2.749   2.139   5.988
 4040SOL    HW212873   2.896   2.096   6.047
 4041SOL     OW12874   2.938   2.545   7.050
 4041SOL    HW112875   2.858   2.484   7.053
 4041SOL    HW212876   3.019   2.492   7.026
 4042SOL     OW12877   3.089   3.432   6.379
 4042SOL    HW112878   3.110   3.506   6.314
 4042SOL    HW212879   3.157   3.432   6.452
 4043SOL     OW12880   2.321   3.014   6.327
 4043SOL    HW112881   2.250   2.987   6.392
 4043SOL    HW212882   2.295   2.986   6.234
 4044SOL     OW12883   3.133   3.659   6.177
 4044SOL    HW112884   3.177   3.723   6.113
 4044SOL    HW212885   3.083   3.711   6.247
 4045SOL     OW12886   1.940   2.418   6.972
 4045SOL    HW112887   2.032   2.417   6.931
 4045SOL    HW212888   1.934   2.492   7.039
 4046SOL     OW12889   2.423   2.084   6.733
 4046SOL    HW112890   2.461   2.000   6.770
 4046SOL    HW212891   2.335   2.103   6.777
 4047SOL     OW12892   2.728   2.316   6.228
 4047SOL    HW112893   2.696   2.388   6.166
 4047SOL    HW212894   2.752   2.235   6.175
 4048SOL     OW12895   2.879   1.901   6.339
 4048SOL    HW112896   2.807   1.906   6.270
 4048SOL    HW212897   2.855   1.832   6.408
 4049SOL     OW12898   3.291   3.035   6.453
 4049SOL    HW112899   3.236   2.951   6.446
 4049SOL    HW212900   3.317   3.064   6.361
 4050SOL     OW12901   3.328   2.452   6.578
 4050SOL    HW112902   3.298   2.357   6.585
 4050SOL    HW212903   3.401   2.468   6.644
 4051SOL     OW12904   3.719   2.695   5.963
 4051SOL    HW112905   3.761   2.631   6.027
 4051SOL    HW212906   3.681   2.644   5.885
 4052SOL     OW12907   2.350   3.247   5.760
 4052SOL    HW112908   2.263   3.232   5.807
 4052SOL    HW212909   2.333   3.273   5.665
 4053SOL     OW12910   3.526   3.142   6.243
 4053SOL    HW112911   3.625   3.150   6.257
 4053SOL    HW212912   3.481   3.226   6.274
 4054SOL     OW12913   3.252   2.437   5.664
 4054SOL    HW112914   3.198   2.416   5.745
 4054SOL    HW212915   3.343   2.396   5.673
 4055SOL     OW12916   2.389   2.118   5.914
 4055SOL    HW112917   2.416   2.059   5.839
 4055SOL    HW212918   2.389   2.213   5.883
 4056SOL     OW12919   3.616   3.085   7.174
 4056SOL    HW112920   3.707   3.046   7.161
 4056SOL    HW212921   3.624   3.181   7.198
 4057SOL     OW12922   2.926   3.209   6.926
 4057SOL    HW112923   2.846   3.186   6.981
 4057SOL    HW212924   3.009   3.183   6.975
 4058SOL     OW12925   3.454   3.491   7.211
 4058SOL    HW112926   3.481   3.525   7.121
 4058SOL    HW212927   3.533   3.453   7.257
 4059SOL     OW12928   2.973   3.057   6.686
 4059SOL    HW112929   2.933   3.101   6.767
 4059SOL    HW212930   2.932   3.094   6.603
 4060SOL     OW12931   3.500   2.961   6.665
 4060SOL    HW112932   3.505   3.042   6.724
 4060SOL    HW212933   3.414   2.963   6.614
 4061SOL     OW12934   2.777   1.951   6.988
 4061SOL    HW112935   2.802   1.931   6.893
 4061SOL    HW212936   2.849   2.007   7.030
 4062SOL     OW12937   2.842   2.978   7.305
 4062SOL    HW112938   2.743   2.984   7.315
 4062SOL    HW212939   2.865   2.898   7.249
 4063SOL     OW12940   2.272   2.675   6.837
 4063SOL    HW112941   2.358   2.687   6.887
 4063SOL    HW212942   2.230   2.588   6.864
 4064SOL     OW12943   3.136   2.248   6.848
 4064SOL    HW112944   3.157   2.322   6.912
 4064SOL    HW212945   3.047   2.265   6.805
 4065SOL     OW12946   1.926   3.426   6.917
 4065SOL    HW112947   1.880   3.508   6.883
 4065SOL    HW212948   2.024   3.445   6.926
 4066SOL     OW12949   2.229   2.962   6.087
 4066SOL    HW112950   2.222   3.045   6.031
 4066SOL    HW212951   2.233   2.882   6.027
 4067SOL     OW12952   3.114   3.210   5.974
 4067SOL    HW112953   3.164   3.287   6.014
 4067SOL    HW212954   3.019   3.212   6.006
 4068SOL     OW12955   3.134   3.307   6.728
 4068SOL    HW112956   3.181   3.320   6.815
 4068SOL    HW212957   3.068   3.233   6.737
 4069SOL     OW12958   3.444   2.501   6.058
 4069SOL    HW112959   3.413   2.562   6.131
 4069SOL    HW212960   3.494   2.553   5.989
 4070SOL     OW12961   2.216   3.372   6.915
 4070SOL    HW112962   2.195   3.328   6.828
 4070SOL    HW212963   2.313   3.398   6.918
 4071SOL     OW12964   3.449   2.641   7.256
 4071SOL    HW112965   3.357   2.679   7.251
 4071SOL    HW212966   3.509   2.688   7.191
 4072SOL     OW12967   2.875   1.967   7.356
 4072SOL    HW112968   2.881   2.052   7.304
 4072SOL    HW212969   2.907   1.891   7.299
 4073SOL     OW12970   2.366   1.912   7.326
 4073SOL    HW112971   2.324   1.855   7.256
 4073SOL    HW212972   2.300   1.981   7.358
 4074SOL     OW12973   3.222   2.724   6.631
 4074SOL    HW112974   3.147   2.724   6.565
 4074SOL    HW212975   3.259   2.632   6.640
 4075SOL     OW12976   3.071   2.387   5.861
 4075SOL    HW112977   3.084   2.303   5.915
 4075SOL    HW212978   3.042   2.461   5.921
 4076SOL     OW12979   2.169   2.075   6.817
 4076SOL    HW112980   2.146   2.112   6.907
 4076SOL    HW212981   2.139   1.980   6.811
 4077SOL     OW12982   1.899   3.172   6.868
 4077SOL    HW112983   1.952   3.123   6.936
 4077SOL    HW212984   1.921   3.270   6.873
 4078SOL     OW12985   3.590   2.797   7.440
 4078SOL    HW112986   3.544   2.790   7.351
 4078SOL    HW212987   3.528   2.841   7.506
 4079SOL     OW12988   2.169   1.925   6.204
 4079SOL    HW112989   2.158   2.019   6.237
 4079SOL    HW212990   2.164   1.862   6.281
 4080SOL     OW12991   3.484   2.229   5.960
 4080SOL    HW112992   3.486   2.153   6.024
 4080SOL    HW212993   3.436   2.306   6.000
 4081SOL     OW12994   2.842   3.435   7.286
 4081SOL    HW112995   2.822   3.479   7.198
 4081SOL    HW212996   2.881   3.344   7.270
 4082SOL     OW12997   3.721   3.380   7.191
 4082SOL    HW112998   3.735   3.407   7.096
 4082SOL    HW212999   3.804   3.402   7.244
 4083SOL     OW13000   2.212   2.760   7.390
 4083SOL    HW113001   2.288   2.804   7.438
 4083SOL    HW213002   2.247   2.713   7.308
 4084SOL     OW13003   3.402   2.136   5.711
 4084SOL    HW113004   3.341   2.061   5.734
 4084SOL    HW213005   3.424   2.188   5.794
 4085SOL     OW13006   3.165   2.700   5.628
 4085SOL    HW113007   3.199   2.607   5.643
 4085SOL    HW213008   3.183   2.727   5.533
 4086SOL     OW13009   2.930   3.195   6.435
 4086SOL    HW113010   2.937   3.111   6.380
 4086SOL    HW213011   2.992   3.264   6.399
 4087SOL     OW13012   2.181   2.672   6.535
 4087SOL    HW113013   2.274   2.708   6.540
 4087SOL    HW213014   2.175   2.587   6.587
 4088SOL     OW13015   2.201   2.371   6.592
 4088SOL    HW113016   2.149   2.288   6.575
 4088SOL    HW213017   2.278   2.376   6.528
 4089SOL     OW13018   3.000   2.242   7.264
 4089SOL    HW113019   2.955   2.305   7.328
 4089SOL    HW213020   3.093   2.273   7.247
 4090SOL     OW13021   3.022   2.069   7.063
 4090SOL    HW113022   3.022   2.133   7.140
 4090SOL    HW213023   3.050   2.117   6.980
 4091SOL     OW13024   1.870   3.188   5.786
 4091SOL    HW113025   1.777   3.209   5.755
 4091SOL    HW213026   1.880   3.089   5.799
 4092SOL     OW13027   1.950   3.663   6.513
 4092SOL    HW113028   1.908   3.577   6.486
 4092SOL    HW213029   2.044   3.666   6.479
 4093SOL     OW13030   2.366   3.430   6.496
 4093SOL    HW113031   2.432   3.504   6.505
 4093SOL    HW213032   2.410   3.351   6.454
 4094SOL     OW13033   1.902   2.406   6.700
 4094SOL    HW113034   1.987   2.373   6.659
 4094SOL    HW213035   1.915   2.421   6.798
 4095SOL     OW13036   2.051   2.382   7.308
 4095SOL    HW113037   2.110   2.342   7.238
 4095SOL    HW213038   1.993   2.453   7.267
 4096SOL     OW13039   3.231   2.812   7.246
 4096SOL    HW113040   3.270   2.901   7.266
 4096SOL    HW213041   3.241   2.792   7.149
 4097SOL     OW13042   3.519   2.466   6.792
 4097SOL    HW113043   3.481   2.397   6.854
 4097SOL    HW213044   3.601   2.430   6.748
 4098SOL     OW13045   2.114   3.426   7.330
 4098SOL    HW113046   2.084   3.483   7.406
 4098SOL    HW213047   2.107   3.329   7.356
 4099SOL     OW13048   2.792   3.540   7.051
 4099SOL    HW113049   2.768   3.522   6.956
 4099SOL    HW213050   2.822   3.634   7.061
 4100SOL     OW13051   2.021   2.999   7.052
 4100SOL    HW113052   2.043   2.938   7.128
 4100SOL    HW213053   2.031   2.950   6.966
 4101SOL     OW13054   3.209   2.921   6.820
 4101SOL    HW113055   3.233   2.858   6.746
 4101SOL    HW213056   3.119   2.961   6.802
 4102SOL     OW13057   3.164   2.717   5.895
 4102SOL    HW113058   3.078   2.686   5.937
 4102SOL    HW213059   3.160   2.703   5.796
 4103SOL     OW13060   3.621   3.609   6.740
 4103SOL    HW113061   3.682   3.639   6.667
 4103SOL    HW213062   3.583   3.520   6.718
 4104SOL     OW13063   3.114   3.593   6.714
 4104SOL    HW113064   3.198   3.598   6.660
 4104SOL    HW213065   3.091   3.497   6.732
 4105SOL     OW13066   1.945   3.120   6.608
 4105SOL    HW113067   1.940   3.119   6.708
 4105SOL    HW213068   1.862   3.079   6.570
 4106SOL     OW13069   2.550   3.524   7.302
 4106SOL    HW113070   2.494   3.605   7.311
 4106SOL    HW213071   2.602   3.528   7.216
 4107SOL     OW13072   3.588   1.997   6.109
 4107SOL    HW113073   3.661   1.980   6.042
 4107SOL    HW213074   3.557   1.910   6.147
 4108SOL     OW13075   3.250   3.435   6.063
 4108SOL    HW113076   3.317   3.447   5.989
 4108SOL    HW213077   3.210   3.524   6.086
 4109SOL     OW13078   1.992   3.656   7.437
 4109SOL    HW113079   1.951   3.582   7.490
 4109SOL    HW213080   2.056   3.707   7.495
 4110SOL     OW13081   3.142   2.789   6.258
 4110SOL    HW113082   3.202   2.708   6.260
 4110SOL    HW213083   3.182   2.858   6.198
 4111SOL     OW13084   2.692   3.135   7.008
 4111SOL    HW113085   2.687   3.168   7.103
 4111SOL    HW213086   2.606   3.154   6.962
 4112SOL     OW13087   2.534   3.478   5.740
 4112SOL    HW113088   2.543   3.488   5.641
 4112SOL    HW213089   2.494   3.389   5.761
 4113SOL     OW13090   3.512   3.582   6.980
 4113SOL    HW113091   3.565   3.592   6.896
 4113SOL    HW213092   3.485   3.672   7.014
 4114SOL     OW13093   3.703   2.037   6.549
 4114SOL    HW113094   3.742   1.952   6.513
 4114SOL    HW213095   3.605   2.039   6.530
 4115SOL     OW13096   2.125   2.188   6.306
 4115SOL    HW113097   2.046   2.239   6.272
 4115SOL    HW213098   2.116   2.173   6.404
 4116SOL     OW13099   3.056   3.474   5.617
 4116SOL    HW113100   3.062   3.381   5.654
 4116SOL    HW213101   2.997   3.474   5.537
 4117SOL     OW13102   3.366   3.469   5.630
 4117SOL    HW113103   3.274   3.506   5.637
 4117SOL    HW213104   3.404   3.489   5.540
 4118SOL     OW13105   2.234   3.150   7.076
 4118SOL    HW113106   2.221   3.243   7.042
 4118SOL    HW213107   2.150   3.098   7.063
 4119SOL     OW13108   3.476   3.154   6.875
 4119SOL    HW113109   3.536   3.157   6.955
 4119SOL    HW213110   3.401   3.218   6.888
 4120SOL     OW13111   2.876   2.098   6.557
 4120SOL    HW113112   2.868   2.062   6.464
 4120SOL    HW213113   2.874   2.022   6.622
 4121SOL     OW13114   2.452   3.349   6.077
 4121SOL    HW113115   2.494   3.291   6.007
 4121SOL    HW213116   2.408   3.428   6.033
 4122SOL     OW13117   3.571   2.247   6.967
 4122SOL    HW113118   3.644   2.316   6.971
 4122SOL    HW213119   3.599   2.172   6.908
 4123SOL     OW13120   2.117   3.210   5.876
 4123SOL    HW113121   2.021   3.211   5.849
 4123SOL    HW213122   2.129   3.263   5.960
 4124SOL     OW13123   1.967   2.875   7.312
 4124SOL    HW113124   1.890   2.842   7.366
 4124SOL    HW213125   2.052   2.845   7.354
 4125SOL     OW13126   2.534   2.065   7.075
 4125SOL    HW113127   2.624   2.049   7.035
 4125SOL    HW213128   2.542   2.070   7.174
 4126SOL     OW13129   1.937   2.207   5.619
 4126SOL    HW113130   1.845   2.179   5.590
 4126SOL    HW213131   1.968   2.284   5.563
 4127SOL     OW13132   3.302   2.718   6.984
 4127SOL    HW113133   3.245   2.770   6.921
 4127SOL    HW213134   3.398   2.730   6.960
 4128SOL     OW13135   1.934   2.028   5.904
 4128SOL    HW113136   1.917   2.111   5.850
 4128SOL    HW213137   2.024   1.991   5.882
 4129SOL     OW13138   3.045   3.197   5.705
 4129SOL    HW113139   2.946   3.186   5.707
 4129SOL    HW213140   3.079   3.212   5.798
 4130SOL     OW13141   3.355   3.629   6.545
 4130SOL    HW113142   3.388   3.693   6.476
 4130SOL    HW213143   3.421   3.623   6.620
 4131SOL     OW13144   3.312   3.082   7.219
 4131SOL    HW113145   3.303   3.072   7.318
 4131SOL    HW213146   3.408   3.075   7.193
 4132SOL     OW13147   2.252   3.603   7.146
 4132SOL    HW113148   2.161   3.644   7.144
 4132SOL    HW213149   2.245   3.509   7.178
 4133SOL     OW13150   3.536   2.745   6.840
 4133SOL    HW113151   3.509   2.656   6.803
 4133SOL    HW213152   3.537   2.813   6.767
 4134SOL     OW13153   3.087   2.187   6.035
 4134SOL    HW113154   3.152   2.113   6.024
 4134SOL    HW213155   3.107   2.237   6.119
 4135SOL     OW13156   3.639   2.204   7.228
 4135SOL    HW113157   3.622   2.235   7.134
 4135SOL    HW213158   3.555   2.167   7.266
 4136SOL     OW13159   3.592   2.796   7.103
 4136SOL    HW113160   3.630   2.887   7.118
 4136SOL    HW213161   3.584   2.779   7.004
 4137SOL     OW13162   2.721   3.236   5.602
 4137SOL    HW113163   2.675   3.251   5.690
 4137SOL    HW213164   2.765   3.321   5.572
 4138SOL     OW13165   2.523   3.652   6.539
 4138SOL    HW113166   2.477   3.740   6.526
 4138SOL    HW213167   2.622   3.664   6.532
 4139SOL     OW13168   3.723   3.431   6.437
 4139SOL    HW113169   3.652   3.419   6.367
 4139SOL    HW213170   3.724   3.352   6.497
 4140SOL     OW13171   2.083   3.176   7.430
 4140SOL    HW113172   2.018   3.103   7.409
 4140SOL    HW213173   2.087   3.190   7.528
 4141SOL     OW13174   1.941   3.102   6.239
 4141SOL    HW113175   1.940   3.055   6.327
 4141SOL    HW213176   2.023   3.074   6.188
 4142SOL     OW13177   2.534   3.253   7.210
 4142SOL    HW113178   2.456   3.203   7.248
 4142SOL    HW213179   2.531   3.348   7.241
 4143SOL     OW13180   3.686   2.054   6.813
 4143SOL    HW113181   3.682   1.964   6.857
 4143SOL    HW213182   3.689   2.043   6.714
 4144SOL     OW13183   2.290   2.286   6.106
 4144SOL    HW113184   2.320   2.214   6.044
 4144SOL    HW213185   2.251   2.246   6.189
 4145SOL     OW13186   3.567   3.349   6.690
 4145SOL    HW113187   3.474   3.324   6.663
 4145SOL    HW213188   3.593   3.299   6.772
 4146SOL     OW13189   2.179   2.409   6.866
 4146SOL    HW113190   2.217   2.350   6.938
 4146SOL    HW213191   2.219   2.383   6.778
 4147SOL     OW13192   2.674   3.448   6.273
 4147SOL    HW113193   2.706   3.458   6.179
 4147SOL    HW213194   2.595   3.386   6.275
 4148SOL     OW13195   3.286   2.076   6.698
 4148SOL    HW113196   3.338   2.011   6.753
 4148SOL    HW213197   3.237   2.139   6.759
 4149SOL     OW13198   2.863   1.896   6.740
 4149SOL    HW113199   2.800   1.824   6.709
 4149SOL    HW213200   2.956   1.860   6.740
 4150SOL     OW13201   2.632   3.192   5.887
 4150SOL    HW113202   2.586   3.105   5.904
 4150SOL    HW213203   2.723   3.189   5.928
 4151SOL     OW13204   2.480   3.429   6.870
 4151SOL    HW113205   2.475   3.511   6.927
 4151SOL    HW213206   2.569   3.426   6.825
 4152SOL     OW13207   3.214   1.914   5.754
 4152SOL    HW113208   3.249   1.873   5.670
 4152SOL    HW213209   3.124   1.876   5.774
 4153SOL     OW13210   3.162   2.315   6.277
 4153SOL    HW113211   3.103   2.395   6.281
 4153SOL    HW213212   3.177   2.280   6.370
 4154SOL     OW13213   3.455   2.083   6.468
 4154SOL    HW113214   3.371   2.082   6.522
 4154SOL    HW213215   3.457   2.166   6.412
 4155SOL     OW13216   1.901   2.939   5.886
 4155SOL    HW113217   2.000   2.928   5.877
 4155SOL    HW213218   1.861   2.853   5.918
 4156SOL     OW13219   2.737   3.508   5.923
 4156SOL    HW113220   2.660   3.473   5.869
 4156SOL    HW213221   2.705   3.579   5.985
 4157SOL     OW13222   2.092   2.490   7.561
 4157SOL    HW113223   1.999   2.488   7.598
 4157SOL    HW213224   2.093   2.451   7.469
 4158SOL     OW13225   3.617   2.469   7.679
 4158SOL    HW113226   3.605   2.456   7.580
 4158SOL    HW213227   3.587   2.388   7.728
 4159SOL     OW13228   2.093   3.575   7.931
 4159SOL    HW113229   2.127   3.652   7.985
 4159SOL    HW213230   2.137   3.575   7.841
 4160SOL     OW13231   2.092   3.296   7.986
 4160SOL    HW113232   2.066   3.392   7.986
 4160SOL    HW213233   2.021   3.242   8.031
 4161SOL     OW13234   2.468   2.826   7.571
 4161SOL    HW113235   2.475   2.910   7.517
 4161SOL    HW213236   2.514   2.839   7.659
 4162SOL     OW13237   3.704   3.629   7.807
 4162SOL    HW113238   3.758   3.600   7.887
 4162SOL    HW213239   3.734   3.719   7.778
 4163SOL     OW13240   1.889   3.458   7.565
 4163SOL    HW113241   1.870   3.362   7.586
 4163SOL    HW213242   1.856   3.516   7.640
 4164SOL     OW13243   3.551   2.784   8.060
 4164SOL    HW113244   3.646   2.755   8.068
 4164SOL    HW213245   3.543   2.849   7.985
 4165SOL     OW13246   3.503   2.970   7.880
 4165SOL    HW113247   3.589   2.972   7.828
 4165SOL    HW213248   3.517   3.017   7.968
 4166SOL     OW13249   2.671   1.866   7.950
 4166SOL    HW113250   2.711   1.957   7.941
 4166SOL    HW213251   2.571   1.874   7.956
 4167SOL     OW13252   3.387   2.861   7.638
 4167SOL    HW113253   3.324   2.785   7.651
 4167SOL    HW213254   3.435   2.879   7.724
 4168SOL     OW13255   3.438   3.524   7.755
 4168SOL    HW113256   3.527   3.570   7.758
 4168SOL    HW213257   3.417   3.500   7.660
 4169SOL     OW13258   1.938   2.673   8.237
 4169SOL    HW113259   2.037   2.661   8.246
 4169SOL    HW213260   1.914   2.768   8.258
 4170SOL     OW13261   2.727   2.210   7.643
 4170SOL    HW113262   2.786   2.273   7.594
 4170SOL    HW213263   2.746   2.116   7.614
 4171SOL     OW13264   2.183   2.805   7.690
 4171SOL    HW113265   2.265   2.844   7.648
 4171SOL    HW213266   2.156   2.723   7.641
 4172SOL     OW13267   2.973   3.638   7.685
 4172SOL    HW113268   2.913   3.576   7.735
 4172SOL    HW213269   3.004   3.594   7.600
 4173SOL     OW13270   3.494   3.239   7.529
 4173SOL    HW113271   3.462   3.333   7.519
 4173SOL    HW213272   3.418   3.176   7.517
 4174SOL     OW13273   2.326   3.605   7.771
 4174SOL    HW113274   2.359   3.644   7.857
 4174SOL    HW213275   2.402   3.598   7.706
 4175SOL     OW13276   3.262   1.969   7.874
 4175SOL    HW113277   3.238   1.932   7.784
 4175SOL    HW213278   3.361   1.985   7.878
 4176SOL     OW13279   2.476   1.984   7.565
 4176SOL    HW113280   2.574   1.962   7.572
 4176SOL    HW213281   2.445   1.967   7.472
 4177SOL     OW13282   2.401   1.926   7.960
 4177SOL    HW113283   2.320   1.927   8.018
 4177SOL    HW213284   2.404   2.009   7.905
 4178SOL     OW13285   3.296   3.050   7.489
 4178SOL    HW113286   3.328   2.974   7.546
 4178SOL    HW213287   3.204   3.077   7.519
 4179SOL     OW13288   2.159   1.897   7.619
 4179SOL    HW113289   2.208   1.981   7.598
 4179SOL    HW213290   2.221   1.832   7.664
 4180SOL     OW13291   2.797   2.098   7.928
 4180SOL    HW113292   2.749   2.139   7.850
 4180SOL    HW213293   2.896   2.096   7.909
 4181SOL     OW13294   2.321   3.014   8.189
 4181SOL    HW113295   2.250   2.987   8.254
 4181SOL    HW213296   2.295   2.986   8.096
 4182SOL     OW13297   3.133   3.659   8.039
 4182SOL    HW113298   3.177   3.723   7.975
 4182SOL    HW213299   3.083   3.711   8.109
 4183SOL     OW13300   2.894   2.411   7.464
 4183SOL    HW113301   2.853   2.493   7.425
 4183SOL    HW213302   2.958   2.437   7.537
 4184SOL     OW13303   3.719   2.695   7.825
 4184SOL    HW113304   3.761   2.631   7.889
 4184SOL    HW213305   3.681   2.644   7.747
 4185SOL     OW13306   2.350   3.247   7.622
 4185SOL    HW113307   2.263   3.232   7.669
 4185SOL    HW213308   2.333   3.273   7.527
 4186SOL     OW13309   3.252   2.437   7.526
 4186SOL    HW113310   3.198   2.416   7.607
 4186SOL    HW213311   3.343   2.396   7.535
 4187SOL     OW13312   2.389   2.118   7.776
 4187SOL    HW113313   2.416   2.059   7.701
 4187SOL    HW213314   2.389   2.213   7.745
 4188SOL     OW13315   2.229   2.962   7.949
 4188SOL    HW113316   2.222   3.045   7.893
 4188SOL    HW213317   2.233   2.882   7.889
 4189SOL     OW13318   3.114   3.210   7.836
 4189SOL    HW113319   3.164   3.287   7.876
 4189SOL    HW213320   3.019   3.212   7.868
 4190SOL     OW13321   3.444   2.501   7.920
 4190SOL    HW113322   3.413   2.562   7.993
 4190SOL    HW213323   3.494   2.553   7.851
 4191SOL     OW13324   3.071   2.387   7.723
 4191SOL    HW113325   3.084   2.303   7.777
 4191SOL    HW213326   3.042   2.461   7.783
 4192SOL     OW13327   3.484   2.229   7.822
 4192SOL    HW113328   3.486   2.153   7.886
 4192SOL    HW213329   3.436   2.306   7.862
 4193SOL     OW13330   3.402   2.136   7.573
 4193SOL    HW113331   3.341   2.061   7.596
 4193SOL    HW213332   3.424   2.188   7.656
 4194SOL     OW13333   3.165   2.700   7.490
 4194SOL    HW113334   3.199   2.607   7.505
 4194SOL    HW213335   3.183   2.727   7.395
 4195SOL     OW13336   1.870   3.188   7.648
 4195SOL    HW113337   1.777   3.209   7.617
 4195SOL    HW213338   1.880   3.089   7.661
 4196SOL     OW13339   3.164   2.717   7.757
 4196SOL    HW113340   3.078   2.686   7.799
 4196SOL    HW213341   3.160   2.703   7.658
 4197SOL     OW13342   3.588   1.997   7.971
 4197SOL    HW113343   3.661   1.980   7.904
 4197SOL    HW213344   3.557   1.910   8.009
 4198SOL     OW13345   3.250   3.435   7.925
 4198SOL    HW113346   3.317   3.447   7.851
 4198SOL    HW213347   3.210   3.524   7.948
 4199SOL     OW13348   2.534   3.478   7.602
 4199SOL    HW113349   2.543   3.488   7.503
 4199SOL    HW213350   2.494   3.389   7.623
 4200SOL     OW13351   3.056   3.474   7.479
 4200SOL    HW113352   3.062   3.381   7.516
 4200SOL    HW213353   2.997   3.474   7.399
 4201SOL     OW13354   3.366   3.469   7.492
 4201SOL    HW113355   3.274   3.506   7.499
 4201SOL    HW213356   3.404   3.489   7.402
 4202SOL     OW13357   2.452   3.349   7.939
 4202SOL    HW113358   2.494   3.291   7.869
 4202SOL    HW213359   2.408   3.428   7.895
 4203SOL     OW13360   2.117   3.210   7.738
 4203SOL    HW113361   2.021   3.211   7.711
 4203SOL    HW213362   2.129   3.263   7.822
 4204SOL     OW13363   1.937   2.207   7.481
 4204SOL    HW113364   1.845   2.179   7.452
 4204SOL    HW213365   1.968   2.284   7.425
 4205SOL     OW13366   1.934   2.028   7.766
 4205SOL    HW113367   1.917   2.111   7.712
 4205SOL    HW213368   2.024   1.991   7.744
 4206SOL     OW13369   3.045   3.197   7.567
 4206SOL    HW113370   2.946   3.186   7.569
 4206SOL    HW213371   3.079   3.212   7.660
 4207SOL     OW13372   3.087   2.187   7.897
 4207SOL    HW113373   3.152   2.113   7.886
 4207SOL    HW213374   3.107   2.237   7.981
 4208SOL     OW13375   2.721   3.236   7.464
 4208SOL    HW113376   2.675   3.251   7.552
 4208SOL    HW213377   2.765   3.321   7.434
 4209SOL     OW13378   2.945   2.846   7.535
 4209SOL    HW113379   2.922   2.899   7.453
 4209SOL    HW213380   3.026   2.790   7.516
 4210SOL     OW13381   2.290   2.286   7.968
 4210SOL    HW113382   2.320   2.214   7.906
 4210SOL    HW213383   2.251   2.246   8.051
 4211SOL     OW13384   2.632   3.192   7.749
 4211SOL    HW113385   2.586   3.105   7.766
 4211SOL    HW213386   2.723   3.189   7.790
 4212SOL     OW13387   3.214   1.914   7.616
 4212SOL    HW113388   3.249   1.873   7.532
 4212SOL    HW213389   3.124   1.876   7.636
 4213SOL     OW13390   1.901   2.939   7.748
 4213SOL    HW113391   2.000   2.928   7.739
 4213SOL    HW213392   1.861   2.853   7.780
 4214SOL     OW13393   2.737   3.508   7.785
 4214SOL    HW113394   2.660   3.473   7.731
 4214SOL    HW213395   2.705   3.579   7.847
 4215SOL     OW13396   2.092   4.352   0.113
 4215SOL    HW113397   1.999   4.350   0.150
 4215SOL    HW213398   2.093   4.313   0.021
 4216SOL     OW13399   2.087   3.999   0.996
 4216SOL    HW113400   2.122   3.982   1.088
 4216SOL    HW213401   1.999   3.954   0.984
 4217SOL     OW13402   1.881   4.092   0.647
 4217SOL    HW113403   1.799   4.135   0.686
 4217SOL    HW213404   1.853   4.019   0.584
 4218SOL     OW13405   2.431   4.999   1.165
 4218SOL    HW113406   2.338   4.992   1.128
 4218SOL    HW213407   2.442   5.088   1.209
 4219SOL     OW13408   3.417   5.235   0.703
 4219SOL    HW113409   3.360   5.219   0.784
 4219SOL    HW213410   3.358   5.245   0.623
 4220SOL     OW13411   2.997   4.427   0.717
 4220SOL    HW113412   3.054   4.505   0.692
 4220SOL    HW213413   2.937   4.453   0.793
 4221SOL     OW13414   3.617   4.331   0.231
 4221SOL    HW113415   3.605   4.318   0.132
 4221SOL    HW213416   3.587   4.250   0.280
 4222SOL     OW13417   2.630   4.868   1.023
 4222SOL    HW113418   2.552   4.885   1.083
 4222SOL    HW213419   2.664   4.955   0.987
 4223SOL     OW13420   2.712   4.522   1.823
 4223SOL    HW113421   2.708   4.598   1.888
 4223SOL    HW213422   2.734   4.558   1.732
 4224SOL     OW13423   2.547   4.736   0.665
 4224SOL    HW113424   2.616   4.720   0.735
 4224SOL    HW213425   2.474   4.793   0.703
 4225SOL     OW13426   2.548   4.885   1.803
 4225SOL    HW113427   2.608   4.964   1.817
 4225SOL    HW213428   2.462   4.916   1.762
 4226SOL     OW13429   2.197   5.159   1.061
 4226SOL    HW113430   2.119   5.128   1.008
 4226SOL    HW213431   2.255   5.217   1.004
 4227SOL     OW13432   3.322   5.229   1.339
 4227SOL    HW113433   3.346   5.323   1.365
 4227SOL    HW213434   3.306   5.175   1.421
 4228SOL     OW13435   2.300   4.116   1.499
 4228SOL    HW113436   2.382   4.060   1.508
 4228SOL    HW213437   2.219   4.058   1.503
 4229SOL     OW13438   3.465   4.171   0.737
 4229SOL    HW113439   3.391   4.217   0.687
 4229SOL    HW213440   3.516   4.239   0.790
 4230SOL     OW13441   2.989   5.065   1.690
 4230SOL    HW113442   3.036   5.065   1.778
 4230SOL    HW213443   2.941   4.978   1.679
 4231SOL     OW13444   2.092   5.158   0.538
 4231SOL    HW113445   2.066   5.254   0.538
 4231SOL    HW213446   2.021   5.104   0.583
 4232SOL     OW13447   2.102   4.815   0.886
 4232SOL    HW113448   2.116   4.731   0.938
 4232SOL    HW213449   2.047   4.879   0.941
 4233SOL     OW13450   2.468   4.688   0.123
 4233SOL    HW113451   2.475   4.772   0.069
 4233SOL    HW213452   2.514   4.701   0.211
 4234SOL     OW13453   3.456   3.838   1.480
 4234SOL    HW113454   3.438   3.905   1.408
 4234SOL    HW213455   3.453   3.884   1.569
 4235SOL     OW13456   1.984   4.367   0.563
 4235SOL    HW113457   1.939   4.279   0.580
 4235SOL    HW213458   1.983   4.421   0.647
 4236SOL     OW13459   1.889   5.320   0.117
 4236SOL    HW113460   1.870   5.224   0.138
 4236SOL    HW213461   1.856   5.378   0.192
 4237SOL     OW13462   3.551   4.646   0.612
 4237SOL    HW113463   3.646   4.617   0.620
 4237SOL    HW213464   3.543   4.711   0.537
 4238SOL     OW13465   3.503   4.832   0.432
 4238SOL    HW113466   3.589   4.834   0.380
 4238SOL    HW213467   3.517   4.879   0.520
 4239SOL     OW13468   1.975   4.461   1.597
 4239SOL    HW113469   2.063   4.448   1.642
 4239SOL    HW213470   1.962   4.558   1.575
 4240SOL     OW13471   2.475   5.089   0.726
 4240SOL    HW113472   2.426   5.002   0.735
 4240SOL    HW213473   2.452   5.132   0.639
 4241SOL     OW13474   3.155   4.952   1.423
 4241SOL    HW113475   3.192   4.879   1.365
 4241SOL    HW213476   3.207   4.957   1.508
 4242SOL     OW13477   2.671   3.728   0.502
 4242SOL    HW113478   2.711   3.819   0.493
 4242SOL    HW213479   2.571   3.736   0.508
 4243SOL     OW13480   2.059   4.700   1.264
 4243SOL    HW113481   2.148   4.655   1.250
 4243SOL    HW213482   1.986   4.635   1.245
 4244SOL     OW13483   3.387   4.723   0.190
 4244SOL    HW113484   3.324   4.647   0.203
 4244SOL    HW213485   3.435   4.741   0.276
 4245SOL     OW13486   2.179   3.975   1.801
 4245SOL    HW113487   2.250   4.046   1.807
 4245SOL    HW213488   2.091   4.014   1.829
 4246SOL     OW13489   3.328   5.141   0.953
 4246SOL    HW113490   3.269   5.147   1.033
 4246SOL    HW213491   3.313   5.053   0.907
 4247SOL     OW13492   2.460   4.453   0.270
 4247SOL    HW113493   2.484   4.522   0.202
 4247SOL    HW213494   2.382   4.486   0.324
 4248SOL     OW13495   3.143   4.069   0.944
 4248SOL    HW113496   3.057   4.019   0.931
 4248SOL    HW213497   3.205   4.015   1.000
 4249SOL     OW13498   2.669   4.329   1.465
 4249SOL    HW113499   2.622   4.326   1.554
 4249SOL    HW213500   2.618   4.274   1.399
 4250SOL     OW13501   3.256   4.193   1.674
 4250SOL    HW113502   3.236   4.236   1.762
 4250SOL    HW213503   3.334   4.131   1.683
 4251SOL     OW13504   2.835   4.614   1.572
 4251SOL    HW113505   2.881   4.530   1.543
 4251SOL    HW213506   2.779   4.648   1.497
 4252SOL     OW13507   2.853   4.134   1.242
 4252SOL    HW113508   2.776   4.168   1.296
 4252SOL    HW213509   2.819   4.083   1.163
 4253SOL     OW13510   2.903   4.425   0.429
 4253SOL    HW113511   2.929   4.421   0.525
 4253SOL    HW213512   2.818   4.374   0.415
 4254SOL     OW13513   1.938   4.535   0.789
 4254SOL    HW113514   2.037   4.523   0.798
 4254SOL    HW213515   1.914   4.630   0.810
 4255SOL     OW13516   2.727   4.072   0.195
 4255SOL    HW113517   2.786   4.135   0.146
 4255SOL    HW213518   2.746   3.978   0.166
 4256SOL     OW13519   3.581   4.309   1.831
 4256SOL    HW113520   3.555   4.398   1.795
 4256SOL    HW213521   3.579   4.241   1.758
 4257SOL     OW13522   3.224   4.868   0.545
 4257SOL    HW113523   3.307   4.839   0.497
 4257SOL    HW213524   3.175   4.935   0.489
 4258SOL     OW13525   2.412   3.920   0.885
 4258SOL    HW113526   2.407   3.915   0.985
 4258SOL    HW213527   2.414   4.016   0.856
 4259SOL     OW13528   2.870   5.180   0.477
 4259SOL    HW113529   2.824   5.252   0.425
 4259SOL    HW213530   2.866   5.200   0.575
 4260SOL     OW13531   3.657   4.790   0.873
 4260SOL    HW113532   3.595   4.775   0.797
 4260SOL    HW213533   3.605   4.801   0.958
 4261SOL     OW13534   3.089   5.274   1.506
 4261SOL    HW113535   3.095   5.197   1.570
 4261SOL    HW213536   3.037   5.248   1.426
 4262SOL     OW13537   2.183   4.667   0.242
 4262SOL    HW113538   2.265   4.706   0.200
 4262SOL    HW213539   2.156   4.585   0.193
 4263SOL     OW13540   3.320   4.459   0.728
 4263SOL    HW113541   3.315   4.394   0.803
 4263SOL    HW213542   3.400   4.518   0.741
 4264SOL     OW13543   2.323   4.990   1.727
 4264SOL    HW113544   2.273   4.991   1.641
 4264SOL    HW213545   2.260   4.972   1.803
 4265SOL     OW13546   2.973   5.500   0.237
 4265SOL    HW113547   2.913   5.438   0.287
 4265SOL    HW213548   3.004   5.456   0.152
 4266SOL     OW13549   2.064   4.009   1.498
 4266SOL    HW113550   1.984   4.069   1.485
 4266SOL    HW213551   2.054   3.960   1.584
 4267SOL     OW13552   3.494   5.101   0.081
 4267SOL    HW113553   3.462   5.195   0.071
 4267SOL    HW213554   3.418   5.038   0.069
 4268SOL     OW13555   3.262   3.831   0.426
 4268SOL    HW113556   3.238   3.794   0.336
 4268SOL    HW213557   3.361   3.847   0.430
 4269SOL     OW13558   2.244   4.424   0.480
 4269SOL    HW113559   2.289   4.334   0.477
 4269SOL    HW213560   2.150   4.413   0.513
 4270SOL     OW13561   3.409   3.946   1.729
 4270SOL    HW113562   3.404   3.983   1.821
 4270SOL    HW213563   3.337   3.877   1.717
 4271SOL     OW13564   2.476   3.846   0.117
 4271SOL    HW113565   2.574   3.824   0.124
 4271SOL    HW213566   2.445   3.829   0.024
 4272SOL     OW13567   2.643   3.988   1.749
 4272SOL    HW113568   2.710   3.927   1.792
 4272SOL    HW213569   2.570   4.007   1.814
 4273SOL     OW13570   3.213   4.314   1.433
 4273SOL    HW113571   3.241   4.271   1.518
 4273SOL    HW213572   3.238   4.410   1.434
 4274SOL     OW13573   2.665   5.126   0.924
 4274SOL    HW113574   2.755   5.140   0.882
 4274SOL    HW213575   2.594   5.128   0.853
 4275SOL     OW13576   2.784   4.227   0.899
 4275SOL    HW113577   2.759   4.218   0.803
 4275SOL    HW213578   2.832   4.145   0.930
 4276SOL     OW13579   2.401   3.788   0.512
 4276SOL    HW113580   2.320   3.789   0.570
 4276SOL    HW213581   2.404   3.871   0.457
 4277SOL     OW13582   3.296   4.912   0.041
 4277SOL    HW113583   3.328   4.836   0.098
 4277SOL    HW213584   3.204   4.939   0.071
 4278SOL     OW13585   2.159   3.759   0.171
 4278SOL    HW113586   2.208   3.843   0.150
 4278SOL    HW213587   2.221   3.694   0.216
 4279SOL     OW13588   2.797   3.960   0.480
 4279SOL    HW113589   2.749   4.001   0.402
 4279SOL    HW213590   2.896   3.958   0.461
 4280SOL     OW13591   2.938   4.407   1.464
 4280SOL    HW113592   2.858   4.346   1.467
 4280SOL    HW213593   3.019   4.354   1.440
 4281SOL     OW13594   3.089   5.294   0.793
 4281SOL    HW113595   3.110   5.368   0.728
 4281SOL    HW213596   3.157   5.294   0.866
 4282SOL     OW13597   2.321   4.876   0.741
 4282SOL    HW113598   2.250   4.849   0.806
 4282SOL    HW213599   2.295   4.848   0.648
 4283SOL     OW13600   2.894   4.273   0.016
 4283SOL    HW113601   2.853   4.355  -0.023
 4283SOL    HW213602   2.958   4.299   0.089
 4284SOL     OW13603   1.940   4.280   1.386
 4284SOL    HW113604   2.032   4.279   1.345
 4284SOL    HW213605   1.934   4.354   1.453
 4285SOL     OW13606   2.423   3.946   1.147
 4285SOL    HW113607   2.461   3.862   1.184
 4285SOL    HW213608   2.335   3.965   1.191
 4286SOL     OW13609   2.728   4.178   0.642
 4286SOL    HW113610   2.696   4.250   0.580
 4286SOL    HW213611   2.752   4.097   0.589
 4287SOL     OW13612   2.879   3.763   0.753
 4287SOL    HW113613   2.807   3.768   0.684
 4287SOL    HW213614   2.855   3.694   0.822
 4288SOL     OW13615   3.291   4.897   0.867
 4288SOL    HW113616   3.236   4.813   0.860
 4288SOL    HW213617   3.317   4.926   0.775
 4289SOL     OW13618   3.328   4.314   0.992
 4289SOL    HW113619   3.298   4.219   0.999
 4289SOL    HW213620   3.401   4.330   1.058
 4290SOL     OW13621   3.719   4.557   0.377
 4290SOL    HW113622   3.761   4.493   0.441
 4290SOL    HW213623   3.681   4.506   0.299
 4291SOL     OW13624   2.350   5.109   0.174
 4291SOL    HW113625   2.263   5.094   0.221
 4291SOL    HW213626   2.333   5.135   0.079
 4292SOL     OW13627   3.526   5.004   0.657
 4292SOL    HW113628   3.625   5.012   0.671
 4292SOL    HW213629   3.481   5.088   0.688
 4293SOL     OW13630   3.252   4.299   0.078
 4293SOL    HW113631   3.198   4.278   0.159
 4293SOL    HW213632   3.343   4.258   0.087
 4294SOL     OW13633   2.389   3.980   0.328
 4294SOL    HW113634   2.416   3.921   0.253
 4294SOL    HW213635   2.389   4.075   0.297
 4295SOL     OW13636   3.616   4.947   1.588
 4295SOL    HW113637   3.707   4.908   1.575
 4295SOL    HW213638   3.624   5.043   1.612
 4296SOL     OW13639   2.926   5.071   1.340
 4296SOL    HW113640   2.846   5.048   1.395
 4296SOL    HW213641   3.009   5.045   1.389
 4297SOL     OW13642   2.973   4.919   1.100
 4297SOL    HW113643   2.933   4.963   1.181
 4297SOL    HW213644   2.932   4.956   1.017
 4298SOL     OW13645   3.500   4.823   1.079
 4298SOL    HW113646   3.505   4.904   1.138
 4298SOL    HW213647   3.414   4.825   1.028
 4299SOL     OW13648   2.777   3.813   1.402
 4299SOL    HW113649   2.802   3.793   1.307
 4299SOL    HW213650   2.849   3.869   1.444
 4300SOL     OW13651   2.842   4.840   1.719
 4300SOL    HW113652   2.743   4.846   1.729
 4300SOL    HW213653   2.865   4.760   1.663
 4301SOL     OW13654   2.567   4.774   0.368
 4301SOL    HW113655   2.553   4.781   0.467
 4301SOL    HW213656   2.651   4.723   0.350
 4302SOL     OW13657   2.272   4.537   1.251
 4302SOL    HW113658   2.358   4.549   1.301
 4302SOL    HW213659   2.230   4.450   1.278
 4303SOL     OW13660   3.136   4.110   1.262
 4303SOL    HW113661   3.157   4.184   1.326
 4303SOL    HW213662   3.047   4.127   1.219
 4304SOL     OW13663   2.229   4.824   0.501
 4304SOL    HW113664   2.222   4.907   0.445
 4304SOL    HW213665   2.233   4.744   0.441
 4305SOL     OW13666   2.428   4.261   0.865
 4305SOL    HW113667   2.440   4.327   0.791
 4305SOL    HW213668   2.474   4.295   0.948
 4306SOL     OW13669   3.114   5.072   0.388
 4306SOL    HW113670   3.164   5.149   0.428
 4306SOL    HW213671   3.019   5.074   0.420
 4307SOL     OW13672   3.134   5.169   1.142
 4307SOL    HW113673   3.181   5.182   1.229
 4307SOL    HW213674   3.068   5.095   1.151
 4308SOL     OW13675   3.444   4.363   0.472
 4308SOL    HW113676   3.413   4.424   0.545
 4308SOL    HW213677   3.494   4.415   0.403
 4309SOL     OW13678   2.216   5.234   1.329
 4309SOL    HW113679   2.195   5.190   1.242
 4309SOL    HW213680   2.313   5.260   1.332
 4310SOL     OW13681   2.264   4.475   1.598
 4310SOL    HW113682   2.332   4.530   1.551
 4310SOL    HW213683   2.304   4.387   1.625
 4311SOL     OW13684   3.449   4.503   1.670
 4311SOL    HW113685   3.357   4.541   1.665
 4311SOL    HW213686   3.509   4.550   1.605
 4312SOL     OW13687   2.875   3.829   1.770
 4312SOL    HW113688   2.881   3.914   1.718
 4312SOL    HW213689   2.907   3.753   1.713
 4313SOL     OW13690   2.366   3.774   1.740
 4313SOL    HW113691   2.324   3.717   1.670
 4313SOL    HW213692   2.300   3.843   1.772
 4314SOL     OW13693   2.435   4.594   1.029
 4314SOL    HW113694   2.479   4.683   1.020
 4314SOL    HW213695   2.372   4.594   1.106
 4315SOL     OW13696   3.222   4.586   1.045
 4315SOL    HW113697   3.147   4.586   0.979
 4315SOL    HW213698   3.259   4.494   1.054
 4316SOL     OW13699   3.071   4.249   0.275
 4316SOL    HW113700   3.084   4.165   0.329
 4316SOL    HW213701   3.042   4.323   0.335
 4317SOL     OW13702   2.169   3.937   1.231
 4317SOL    HW113703   2.146   3.974   1.321
 4317SOL    HW213704   2.139   3.842   1.225
 4318SOL     OW13705   1.899   5.034   1.282
 4318SOL    HW113706   1.952   4.985   1.350
 4318SOL    HW213707   1.921   5.132   1.287
 4319SOL     OW13708   2.594   4.358   1.064
 4319SOL    HW113709   2.653   4.332   0.988
 4319SOL    HW213710   2.566   4.454   1.053
 4320SOL     OW13711   3.590   4.659   1.854
 4320SOL    HW113712   3.544   4.652   1.765
 4320SOL    HW213713   3.528   4.703   1.920
 4321SOL     OW13714   2.169   3.787   0.618
 4321SOL    HW113715   2.158   3.881   0.651
 4321SOL    HW213716   2.164   3.724   0.695
 4322SOL     OW13717   3.484   4.091   0.374
 4322SOL    HW113718   3.486   4.015   0.438
 4322SOL    HW213719   3.436   4.168   0.414
 4323SOL     OW13720   2.885   4.490   0.966
 4323SOL    HW113721   2.900   4.511   1.062
 4323SOL    HW213722   2.855   4.395   0.957
 4324SOL     OW13723   3.721   5.242   1.605
 4324SOL    HW113724   3.735   5.269   1.510
 4324SOL    HW213725   3.804   5.264   1.658
 4325SOL     OW13726   2.212   4.622   1.804
 4325SOL    HW113727   2.288   4.666   1.852
 4325SOL    HW213728   2.247   4.575   1.722
 4326SOL     OW13729   3.402   3.998   0.125
 4326SOL    HW113730   3.341   3.923   0.148
 4326SOL    HW213731   3.424   4.050   0.208
 4327SOL     OW13732   3.165   4.562   0.042
 4327SOL    HW113733   3.199   4.469   0.057
 4327SOL    HW213734   3.183   4.589  -0.053
 4328SOL     OW13735   2.930   5.057   0.849
 4328SOL    HW113736   2.937   4.973   0.794
 4328SOL    HW213737   2.992   5.126   0.813
 4329SOL     OW13738   2.181   4.534   0.949
 4329SOL    HW113739   2.274   4.570   0.954
 4329SOL    HW213740   2.175   4.449   1.001
 4330SOL     OW13741   2.201   4.233   1.006
 4330SOL    HW113742   2.149   4.150   0.989
 4330SOL    HW213743   2.278   4.238   0.942
 4331SOL     OW13744   3.000   4.104   1.678
 4331SOL    HW113745   2.955   4.167   1.742
 4331SOL    HW213746   3.093   4.135   1.661
 4332SOL     OW13747   3.022   3.931   1.477
 4332SOL    HW113748   3.022   3.995   1.554
 4332SOL    HW213749   3.050   3.979   1.394
 4333SOL     OW13750   1.870   5.050   0.200
 4333SOL    HW113751   1.777   5.071   0.169
 4333SOL    HW213752   1.880   4.951   0.213
 4334SOL     OW13753   2.864   4.520   1.238
 4334SOL    HW113754   2.905   4.488   1.324
 4334SOL    HW213755   2.768   4.493   1.235
 4335SOL     OW13756   1.902   4.268   1.114
 4335SOL    HW113757   1.987   4.235   1.073
 4335SOL    HW213758   1.915   4.283   1.212
 4336SOL     OW13759   2.051   4.244   1.722
 4336SOL    HW113760   2.110   4.204   1.652
 4336SOL    HW213761   1.993   4.315   1.681
 4337SOL     OW13762   3.231   4.674   1.660
 4337SOL    HW113763   3.270   4.763   1.680
 4337SOL    HW213764   3.241   4.654   1.563
 4338SOL     OW13765   2.677   4.296   0.325
 4338SOL    HW113766   2.684   4.207   0.279
 4338SOL    HW213767   2.583   4.330   0.317
 4339SOL     OW13768   3.519   4.328   1.206
 4339SOL    HW113769   3.481   4.259   1.268
 4339SOL    HW213770   3.601   4.292   1.162
 4340SOL     OW13771   2.114   5.288   1.744
 4340SOL    HW113772   2.084   5.345   1.820
 4340SOL    HW213773   2.107   5.191   1.770
 4341SOL     OW13774   2.533   4.188   1.269
 4341SOL    HW113775   2.499   4.099   1.239
 4341SOL    HW213776   2.559   4.242   1.189
 4342SOL     OW13777   2.335   4.224   0.191
 4342SOL    HW113778   2.396   4.304   0.195
 4342SOL    HW213779   2.240   4.255   0.198
 4343SOL     OW13780   2.021   4.861   1.466
 4343SOL    HW113781   2.043   4.800   1.542
 4343SOL    HW213782   2.031   4.812   1.380
 4344SOL     OW13783   3.209   4.783   1.234
 4344SOL    HW113784   3.233   4.720   1.160
 4344SOL    HW213785   3.119   4.823   1.216
 4345SOL     OW13786   3.164   4.579   0.309
 4345SOL    HW113787   3.078   4.548   0.351
 4345SOL    HW213788   3.160   4.565   0.210
 4346SOL     OW13789   1.945   4.982   1.022
 4346SOL    HW113790   1.940   4.981   1.122
 4346SOL    HW213791   1.862   4.941   0.984
 4347SOL     OW13792   2.550   5.386   1.716
 4347SOL    HW113793   2.494   5.467   1.725
 4347SOL    HW213794   2.602   5.390   1.630
 4348SOL     OW13795   2.765   3.810   0.133
 4348SOL    HW113796   2.816   3.811   0.047
 4348SOL    HW213797   2.821   3.768   0.204
 4349SOL     OW13798   3.588   3.859   0.523
 4349SOL    HW113799   3.661   3.842   0.456
 4349SOL    HW213800   3.557   3.772   0.561
 4350SOL     OW13801   3.142   4.651   0.672
 4350SOL    HW113802   3.202   4.570   0.674
 4350SOL    HW213803   3.182   4.720   0.612
 4351SOL     OW13804   2.692   4.997   1.422
 4351SOL    HW113805   2.687   5.030   1.517
 4351SOL    HW213806   2.606   5.016   1.376
 4352SOL     OW13807   3.703   3.899   0.963
 4352SOL    HW113808   3.742   3.814   0.927
 4352SOL    HW213809   3.605   3.901   0.944
 4353SOL     OW13810   2.125   4.050   0.720
 4353SOL    HW113811   2.046   4.101   0.686
 4353SOL    HW213812   2.116   4.035   0.818
 4354SOL     OW13813   3.056   5.336   0.031
 4354SOL    HW113814   3.062   5.243   0.068
 4354SOL    HW213815   2.997   5.336  -0.049
 4355SOL     OW13816   2.684   4.726   1.372
 4355SOL    HW113817   2.724   4.725   1.280
 4355SOL    HW213818   2.694   4.818   1.412
 4356SOL     OW13819   2.778   4.634   0.291
 4356SOL    HW113820   2.841   4.672   0.223
 4356SOL    HW213821   2.818   4.551   0.330
 4357SOL     OW13822   2.234   5.012   1.490
 4357SOL    HW113823   2.221   5.105   1.456
 4357SOL    HW213824   2.150   4.960   1.477
 4358SOL     OW13825   3.476   5.016   1.289
 4358SOL    HW113826   3.536   5.019   1.369
 4358SOL    HW213827   3.401   5.080   1.302
 4359SOL     OW13828   2.901   4.822   0.696
 4359SOL    HW113829   2.831   4.775   0.750
 4359SOL    HW213830   2.960   4.754   0.653
 4360SOL     OW13831   2.876   3.960   0.971
 4360SOL    HW113832   2.868   3.924   0.878
 4360SOL    HW213833   2.874   3.884   1.036
 4361SOL     OW13834   3.571   4.109   1.381
 4361SOL    HW113835   3.644   4.178   1.385
 4361SOL    HW213836   3.599   4.034   1.322
 4362SOL     OW13837   2.117   5.072   0.290
 4362SOL    HW113838   2.021   5.073   0.263
 4362SOL    HW213839   2.129   5.125   0.374
 4363SOL     OW13840   1.967   4.737   1.726
 4363SOL    HW113841   1.890   4.704   1.780
 4363SOL    HW213842   2.052   4.707   1.768
 4364SOL     OW13843   2.534   3.927   1.489
 4364SOL    HW113844   2.624   3.911   1.449
 4364SOL    HW213845   2.542   3.932   1.588
 4365SOL     OW13846   1.937   4.069   0.033
 4365SOL    HW113847   1.845   4.041   0.004
 4365SOL    HW213848   1.968   4.146  -0.023
 4366SOL     OW13849   3.302   4.580   1.398
 4366SOL    HW113850   3.245   4.632   1.335
 4366SOL    HW213851   3.398   4.592   1.374
 4367SOL     OW13852   1.934   3.890   0.318
 4367SOL    HW113853   1.917   3.973   0.264
 4367SOL    HW213854   2.024   3.853   0.296
 4368SOL     OW13855   3.045   5.059   0.119
 4368SOL    HW113856   2.946   5.048   0.121
 4368SOL    HW213857   3.079   5.074   0.212
 4369SOL     OW13858   2.475   4.566   1.431
 4369SOL    HW113859   2.531   4.647   1.414
 4369SOL    HW213860   2.534   4.486   1.434
 4370SOL     OW13861   2.578   4.289   1.708
 4370SOL    HW113862   2.597   4.354   1.782
 4370SOL    HW213863   2.638   4.209   1.717
 4371SOL     OW13864   3.312   4.944   1.633
 4371SOL    HW113865   3.303   4.934   1.732
 4371SOL    HW213866   3.408   4.937   1.607
 4372SOL     OW13867   3.536   4.607   1.254
 4372SOL    HW113868   3.509   4.518   1.217
 4372SOL    HW213869   3.537   4.675   1.181
 4373SOL     OW13870   3.087   4.049   0.449
 4373SOL    HW113871   3.152   3.975   0.438
 4373SOL    HW213872   3.107   4.099   0.533
 4374SOL     OW13873   2.456   4.469   0.652
 4374SOL    HW113874   2.506   4.554   0.633
 4374SOL    HW213875   2.368   4.471   0.604
 4375SOL     OW13876   3.639   4.066   1.642
 4375SOL    HW113877   3.622   4.097   1.548
 4375SOL    HW213878   3.555   4.029   1.680
 4376SOL     OW13879   3.592   4.658   1.517
 4376SOL    HW113880   3.630   4.749   1.532
 4376SOL    HW213881   3.584   4.641   1.418
 4377SOL     OW13882   2.721   5.098   0.016
 4377SOL    HW113883   2.675   5.113   0.104
 4377SOL    HW213884   2.765   5.183  -0.014
 4378SOL     OW13885   2.721   4.680   0.861
 4378SOL    HW113886   2.775   4.611   0.909
 4378SOL    HW213887   2.689   4.749   0.927
 4379SOL     OW13888   2.945   4.708   0.087
 4379SOL    HW113889   2.922   4.761   0.005
 4379SOL    HW213890   3.026   4.652   0.068
 4380SOL     OW13891   2.083   5.038   1.844
 4380SOL    HW113892   2.018   4.965   1.823
 4380SOL    HW213893   2.087   5.052   1.942
 4381SOL     OW13894   1.941   4.964   0.653
 4381SOL    HW113895   1.940   4.917   0.741
 4381SOL    HW213896   2.023   4.936   0.602
 4382SOL     OW13897   2.534   5.115   1.624
 4382SOL    HW113898   2.456   5.065   1.662
 4382SOL    HW213899   2.531   5.210   1.655
 4383SOL     OW13900   3.686   3.916   1.227
 4383SOL    HW113901   3.682   3.826   1.271
 4383SOL    HW213902   3.689   3.905   1.128
 4384SOL     OW13903   2.290   4.148   0.520
 4384SOL    HW113904   2.320   4.076   0.458
 4384SOL    HW213905   2.251   4.108   0.603
 4385SOL     OW13906   3.567   5.211   1.104
 4385SOL    HW113907   3.474   5.186   1.077
 4385SOL    HW213908   3.593   5.161   1.186
 4386SOL     OW13909   2.179   4.271   1.280
 4386SOL    HW113910   2.217   4.212   1.352
 4386SOL    HW213911   2.219   4.245   1.192
 4387SOL     OW13912   3.286   3.938   1.112
 4387SOL    HW113913   3.338   3.873   1.167
 4387SOL    HW213914   3.237   4.001   1.173
 4388SOL     OW13915   2.863   3.758   1.154
 4388SOL    HW113916   2.800   3.686   1.123
 4388SOL    HW213917   2.956   3.722   1.154
 4389SOL     OW13918   2.632   5.054   0.301
 4389SOL    HW113919   2.586   4.967   0.318
 4389SOL    HW213920   2.723   5.051   0.342
 4390SOL     OW13921   2.480   5.291   1.284
 4390SOL    HW113922   2.475   5.373   1.341
 4390SOL    HW213923   2.569   5.288   1.239
 4391SOL     OW13924   3.214   3.776   0.168
 4391SOL    HW113925   3.249   3.735   0.084
 4391SOL    HW213926   3.124   3.738   0.188
 4392SOL     OW13927   3.162   4.177   0.691
 4392SOL    HW113928   3.103   4.257   0.695
 4392SOL    HW213929   3.177   4.142   0.784
 4393SOL     OW13930   3.455   3.945   0.882
 4393SOL    HW113931   3.371   3.944   0.936
 4393SOL    HW213932   3.457   4.028   0.826
 4394SOL     OW13933   1.901   4.801   0.300
 4394SOL    HW113934   2.000   4.790   0.291
 4394SOL    HW213935   1.861   4.715   0.332
 4395SOL     OW13936   2.092   4.352   1.975
 4395SOL    HW113937   1.999   4.350   2.012
 4395SOL    HW213938   2.093   4.313   1.883
 4396SOL     OW13939   2.087   3.999   2.858
 4396SOL    HW113940   2.122   3.982   2.950
 4396SOL    HW213941   1.999   3.954   2.846
 4397SOL     OW13942   1.881   4.092   2.509
 4397SOL    HW113943   1.799   4.135   2.548
 4397SOL    HW213944   1.853   4.019   2.446
 4398SOL     OW13945   2.431   4.999   3.027
 4398SOL    HW113946   2.338   4.992   2.990
 4398SOL    HW213947   2.442   5.088   3.071
 4399SOL     OW13948   3.417   5.235   2.565
 4399SOL    HW113949   3.360   5.219   2.646
 4399SOL    HW213950   3.358   5.245   2.485
 4400SOL     OW13951   2.997   4.427   2.579
 4400SOL    HW113952   3.054   4.505   2.554
 4400SOL    HW213953   2.937   4.453   2.655
 4401SOL     OW13954   3.617   4.331   2.093
 4401SOL    HW113955   3.605   4.318   1.994
 4401SOL    HW213956   3.587   4.250   2.142
 4402SOL     OW13957   2.630   4.868   2.885
 4402SOL    HW113958   2.552   4.885   2.945
 4402SOL    HW213959   2.664   4.955   2.849
 4403SOL     OW13960   2.712   4.522   3.685
 4403SOL    HW113961   2.708   4.598   3.750
 4403SOL    HW213962   2.734   4.558   3.594
 4404SOL     OW13963   2.547   4.736   2.527
 4404SOL    HW113964   2.616   4.720   2.597
 4404SOL    HW213965   2.474   4.793   2.565
 4405SOL     OW13966   2.548   4.885   3.665
 4405SOL    HW113967   2.608   4.964   3.679
 4405SOL    HW213968   2.462   4.916   3.624
 4406SOL     OW13969   2.197   5.159   2.923
 4406SOL    HW113970   2.119   5.128   2.870
 4406SOL    HW213971   2.255   5.217   2.866
 4407SOL     OW13972   3.322   5.229   3.201
 4407SOL    HW113973   3.346   5.323   3.227
 4407SOL    HW213974   3.306   5.175   3.283
 4408SOL     OW13975   2.300   4.116   3.361
 4408SOL    HW113976   2.382   4.060   3.370
 4408SOL    HW213977   2.219   4.058   3.365
 4409SOL     OW13978   3.465   4.171   2.599
 4409SOL    HW113979   3.391   4.217   2.549
 4409SOL    HW213980   3.516   4.239   2.652
 4410SOL     OW13981   2.989   5.065   3.552
 4410SOL    HW113982   3.036   5.065   3.640
 4410SOL    HW213983   2.941   4.978   3.541
 4411SOL     OW13984   2.092   5.158   2.400
 4411SOL    HW113985   2.066   5.254   2.400
 4411SOL    HW213986   2.021   5.104   2.445
 4412SOL     OW13987   2.102   4.815   2.748
 4412SOL    HW113988   2.116   4.731   2.800
 4412SOL    HW213989   2.047   4.879   2.803
 4413SOL     OW13990   2.468   4.688   1.985
 4413SOL    HW113991   2.475   4.772   1.931
 4413SOL    HW213992   2.514   4.701   2.073
 4414SOL     OW13993   3.456   3.838   3.342
 4414SOL    HW113994   3.438   3.905   3.270
 4414SOL    HW213995   3.453   3.884   3.431
 4415SOL     OW13996   1.984   4.367   2.425
 4415SOL    HW113997   1.939   4.279   2.442
 4415SOL    HW213998   1.983   4.421   2.509
 4416SOL     OW13999   1.889   5.320   1.979
 4416SOL    HW114000   1.870   5.224   2.000
 4416SOL    HW214001   1.856   5.378   2.054
 4417SOL     OW14002   3.551   4.646   2.474
 4417SOL    HW114003   3.646   4.617   2.482
 4417SOL    HW214004   3.543   4.711   2.399
 4418SOL     OW14005   3.503   4.832   2.294
 4418SOL    HW114006   3.589   4.834   2.242
 4418SOL    HW214007   3.517   4.879   2.382
 4419SOL     OW14008   1.975   4.461   3.459
 4419SOL    HW114009   2.063   4.448   3.504
 4419SOL    HW214010   1.962   4.558   3.437
 4420SOL     OW14011   2.475   5.089   2.588
 4420SOL    HW114012   2.426   5.002   2.597
 4420SOL    HW214013   2.452   5.132   2.501
 4421SOL     OW14014   3.155   4.952   3.285
 4421SOL    HW114015   3.192   4.879   3.227
 4421SOL    HW214016   3.207   4.957   3.370
 4422SOL     OW14017   2.671   3.728   2.364
 4422SOL    HW114018   2.711   3.819   2.355
 4422SOL    HW214019   2.571   3.736   2.370
 4423SOL     OW14020   2.059   4.700   3.126
 4423SOL    HW114021   2.148   4.655   3.112
 4423SOL    HW214022   1.986   4.635   3.107
 4424SOL     OW14023   3.387   4.723   2.052
 4424SOL    HW114024   3.324   4.647   2.065
 4424SOL    HW214025   3.435   4.741   2.138
 4425SOL     OW14026   2.179   3.975   3.663
 4425SOL    HW114027   2.250   4.046   3.669
 4425SOL    HW214028   2.091   4.014   3.691
 4426SOL     OW14029   3.328   5.141   2.815
 4426SOL    HW114030   3.269   5.147   2.895
 4426SOL    HW214031   3.313   5.053   2.769
 4427SOL     OW14032   2.460   4.453   2.132
 4427SOL    HW114033   2.484   4.522   2.064
 4427SOL    HW214034   2.382   4.486   2.186
 4428SOL     OW14035   3.143   4.069   2.806
 4428SOL    HW114036   3.057   4.019   2.793
 4428SOL    HW214037   3.205   4.015   2.862
 4429SOL     OW14038   2.669   4.329   3.327
 4429SOL    HW114039   2.622   4.326   3.416
 4429SOL    HW214040   2.618   4.274   3.261
 4430SOL     OW14041   3.256   4.193   3.536
 4430SOL    HW114042   3.236   4.236   3.624
 4430SOL    HW214043   3.334   4.131   3.545
 4431SOL     OW14044   2.835   4.614   3.434
 4431SOL    HW114045   2.881   4.530   3.405
 4431SOL    HW214046   2.779   4.648   3.359
 4432SOL     OW14047   2.853   4.134   3.104
 4432SOL    HW114048   2.776   4.168   3.158
 4432SOL    HW214049   2.819   4.083   3.025
 4433SOL     OW14050   2.903   4.425   2.291
 4433SOL    HW114051   2.929   4.421   2.387
 4433SOL    HW214052   2.818   4.374   2.277
 4434SOL     OW14053   1.938   4.535   2.651
 4434SOL    HW114054   2.037   4.523   2.660
 4434SOL    HW214055   1.914   4.630   2.672
 4435SOL     OW14056   2.727   4.072   2.057
 4435SOL    HW114057   2.786   4.135   2.008
 4435SOL    HW214058   2.746   3.978   2.028
 4436SOL     OW14059   3.581   4.309   3.693
 4436SOL    HW114060   3.555   4.398   3.657
 4436SOL    HW214061   3.579   4.241   3.620
 4437SOL     OW14062   3.224   4.868   2.407
 4437SOL    HW114063   3.307   4.839   2.359
 4437SOL    HW214064   3.175   4.935   2.351
 4438SOL     OW14065   2.412   3.920   2.747
 4438SOL    HW114066   2.407   3.915   2.847
 4438SOL    HW214067   2.414   4.016   2.718
 4439SOL     OW14068   2.870   5.180   2.339
 4439SOL    HW114069   2.824   5.252   2.287
 4439SOL    HW214070   2.866   5.200   2.437
 4440SOL     OW14071   3.657   4.790   2.735
 4440SOL    HW114072   3.595   4.775   2.659
 4440SOL    HW214073   3.605   4.801   2.820
 4441SOL     OW14074   3.089   5.274   3.368
 4441SOL    HW114075   3.095   5.197   3.432
 4441SOL    HW214076   3.037   5.248   3.288
 4442SOL     OW14077   2.183   4.667   2.104
 4442SOL    HW114078   2.265   4.706   2.062
 4442SOL    HW214079   2.156   4.585   2.055
 4443SOL     OW14080   3.320   4.459   2.590
 4443SOL    HW114081   3.315   4.394   2.665
 4443SOL    HW214082   3.400   4.518   2.603
 4444SOL     OW14083   2.323   4.990   3.589
 4444SOL    HW114084   2.273   4.991   3.503
 4444SOL    HW214085   2.260   4.972   3.665
 4445SOL     OW14086   2.973   5.500   2.099
 4445SOL    HW114087   2.913   5.438   2.149
 4445SOL    HW214088   3.004   5.456   2.014
 4446SOL     OW14089   2.064   4.009   3.360
 4446SOL    HW114090   1.984   4.069   3.347
 4446SOL    HW214091   2.054   3.960   3.446
 4447SOL     OW14092   3.494   5.101   1.943
 4447SOL    HW114093   3.462   5.195   1.933
 4447SOL    HW214094   3.418   5.038   1.931
 4448SOL     OW14095   3.262   3.831   2.288
 4448SOL    HW114096   3.238   3.794   2.198
 4448SOL    HW214097   3.361   3.847   2.292
 4449SOL     OW14098   2.244   4.424   2.342
 4449SOL    HW114099   2.289   4.334   2.339
 4449SOL    HW214100   2.150   4.413   2.375
 4450SOL     OW14101   3.409   3.946   3.591
 4450SOL    HW114102   3.404   3.983   3.683
 4450SOL    HW214103   3.337   3.877   3.579
 4451SOL     OW14104   2.476   3.846   1.979
 4451SOL    HW114105   2.574   3.824   1.986
 4451SOL    HW214106   2.445   3.829   1.886
 4452SOL     OW14107   2.643   3.988   3.611
 4452SOL    HW114108   2.710   3.927   3.654
 4452SOL    HW214109   2.570   4.007   3.676
 4453SOL     OW14110   3.213   4.314   3.295
 4453SOL    HW114111   3.241   4.271   3.380
 4453SOL    HW214112   3.238   4.410   3.296
 4454SOL     OW14113   2.665   5.126   2.786
 4454SOL    HW114114   2.755   5.140   2.744
 4454SOL    HW214115   2.594   5.128   2.715
 4455SOL     OW14116   2.784   4.227   2.761
 4455SOL    HW114117   2.759   4.218   2.665
 4455SOL    HW214118   2.832   4.145   2.792
 4456SOL     OW14119   2.401   3.788   2.374
 4456SOL    HW114120   2.320   3.789   2.432
 4456SOL    HW214121   2.404   3.871   2.319
 4457SOL     OW14122   3.296   4.912   1.903
 4457SOL    HW114123   3.328   4.836   1.960
 4457SOL    HW214124   3.204   4.939   1.933
 4458SOL     OW14125   2.159   3.759   2.033
 4458SOL    HW114126   2.208   3.843   2.012
 4458SOL    HW214127   2.221   3.694   2.078
 4459SOL     OW14128   2.797   3.960   2.342
 4459SOL    HW114129   2.749   4.001   2.264
 4459SOL    HW214130   2.896   3.958   2.323
 4460SOL     OW14131   2.938   4.407   3.326
 4460SOL    HW114132   2.858   4.346   3.329
 4460SOL    HW214133   3.019   4.354   3.302
 4461SOL     OW14134   3.089   5.294   2.655
 4461SOL    HW114135   3.110   5.368   2.590
 4461SOL    HW214136   3.157   5.294   2.728
 4462SOL     OW14137   2.321   4.876   2.603
 4462SOL    HW114138   2.250   4.849   2.668
 4462SOL    HW214139   2.295   4.848   2.510
 4463SOL     OW14140   2.894   4.273   1.878
 4463SOL    HW114141   2.853   4.355   1.839
 4463SOL    HW214142   2.958   4.299   1.951
 4464SOL     OW14143   1.940   4.280   3.248
 4464SOL    HW114144   2.032   4.279   3.207
 4464SOL    HW214145   1.934   4.354   3.315
 4465SOL     OW14146   2.423   3.946   3.009
 4465SOL    HW114147   2.461   3.862   3.046
 4465SOL    HW214148   2.335   3.965   3.053
 4466SOL     OW14149   2.728   4.178   2.504
 4466SOL    HW114150   2.696   4.250   2.442
 4466SOL    HW214151   2.752   4.097   2.451
 4467SOL     OW14152   2.879   3.763   2.615
 4467SOL    HW114153   2.807   3.768   2.546
 4467SOL    HW214154   2.855   3.694   2.684
 4468SOL     OW14155   3.291   4.897   2.729
 4468SOL    HW114156   3.236   4.813   2.722
 4468SOL    HW214157   3.317   4.926   2.637
 4469SOL     OW14158   3.328   4.314   2.854
 4469SOL    HW114159   3.298   4.219   2.861
 4469SOL    HW214160   3.401   4.330   2.920
 4470SOL     OW14161   3.719   4.557   2.239
 4470SOL    HW114162   3.761   4.493   2.303
 4470SOL    HW214163   3.681   4.506   2.161
 4471SOL     OW14164   2.350   5.109   2.036
 4471SOL    HW114165   2.263   5.094   2.083
 4471SOL    HW214166   2.333   5.135   1.941
 4472SOL     OW14167   3.526   5.004   2.519
 4472SOL    HW114168   3.625   5.012   2.533
 4472SOL    HW214169   3.481   5.088   2.550
 4473SOL     OW14170   3.252   4.299   1.940
 4473SOL    HW114171   3.198   4.278   2.021
 4473SOL    HW214172   3.343   4.258   1.949
 4474SOL     OW14173   2.389   3.980   2.190
 4474SOL    HW114174   2.416   3.921   2.115
 4474SOL    HW214175   2.389   4.075   2.159
 4475SOL     OW14176   3.616   4.947   3.450
 4475SOL    HW114177   3.707   4.908   3.437
 4475SOL    HW214178   3.624   5.043   3.474
 4476SOL     OW14179   2.926   5.071   3.202
 4476SOL    HW114180   2.846   5.048   3.257
 4476SOL    HW214181   3.009   5.045   3.251
 4477SOL     OW14182   2.973   4.919   2.962
 4477SOL    HW114183   2.933   4.963   3.043
 4477SOL    HW214184   2.932   4.956   2.879
 4478SOL     OW14185   3.500   4.823   2.941
 4478SOL    HW114186   3.505   4.904   3.000
 4478SOL    HW214187   3.414   4.825   2.890
 4479SOL     OW14188   2.777   3.813   3.264
 4479SOL    HW114189   2.802   3.793   3.169
 4479SOL    HW214190   2.849   3.869   3.306
 4480SOL     OW14191   2.842   4.840   3.581
 4480SOL    HW114192   2.743   4.846   3.591
 4480SOL    HW214193   2.865   4.760   3.525
 4481SOL     OW14194   2.567   4.774   2.230
 4481SOL    HW114195   2.553   4.781   2.329
 4481SOL    HW214196   2.651   4.723   2.212
 4482SOL     OW14197   2.272   4.537   3.113
 4482SOL    HW114198   2.358   4.549   3.163
 4482SOL    HW214199   2.230   4.450   3.140
 4483SOL     OW14200   3.136   4.110   3.124
 4483SOL    HW114201   3.157   4.184   3.188
 4483SOL    HW214202   3.047   4.127   3.081
 4484SOL     OW14203   2.229   4.824   2.363
 4484SOL    HW114204   2.222   4.907   2.307
 4484SOL    HW214205   2.233   4.744   2.303
 4485SOL     OW14206   2.428   4.261   2.727
 4485SOL    HW114207   2.440   4.327   2.653
 4485SOL    HW214208   2.474   4.295   2.810
 4486SOL     OW14209   3.114   5.072   2.250
 4486SOL    HW114210   3.164   5.149   2.290
 4486SOL    HW214211   3.019   5.074   2.282
 4487SOL     OW14212   3.134   5.169   3.004
 4487SOL    HW114213   3.181   5.182   3.091
 4487SOL    HW214214   3.068   5.095   3.013
 4488SOL     OW14215   3.444   4.363   2.334
 4488SOL    HW114216   3.413   4.424   2.407
 4488SOL    HW214217   3.494   4.415   2.265
 4489SOL     OW14218   2.216   5.234   3.191
 4489SOL    HW114219   2.195   5.190   3.104
 4489SOL    HW214220   2.313   5.260   3.194
 4490SOL     OW14221   2.264   4.475   3.460
 4490SOL    HW114222   2.332   4.530   3.413
 4490SOL    HW214223   2.304   4.387   3.487
 4491SOL     OW14224   3.449   4.503   3.532
 4491SOL    HW114225   3.357   4.541   3.527
 4491SOL    HW214226   3.509   4.550   3.467
 4492SOL     OW14227   2.875   3.829   3.632
 4492SOL    HW114228   2.881   3.914   3.580
 4492SOL    HW214229   2.907   3.753   3.575
 4493SOL     OW14230   2.366   3.774   3.602
 4493SOL    HW114231   2.324   3.717   3.532
 4493SOL    HW214232   2.300   3.843   3.634
 4494SOL     OW14233   2.435   4.594   2.891
 4494SOL    HW114234   2.479   4.683   2.882
 4494SOL    HW214235   2.372   4.594   2.968
 4495SOL     OW14236   3.222   4.586   2.907
 4495SOL    HW114237   3.147   4.586   2.841
 4495SOL    HW214238   3.259   4.494   2.916
 4496SOL     OW14239   3.071   4.249   2.137
 4496SOL    HW114240   3.084   4.165   2.191
 4496SOL    HW214241   3.042   4.323   2.197
 4497SOL     OW14242   2.169   3.937   3.093
 4497SOL    HW114243   2.146   3.974   3.183
 4497SOL    HW214244   2.139   3.842   3.087
 4498SOL     OW14245   1.899   5.034   3.144
 4498SOL    HW114246   1.952   4.985   3.212
 4498SOL    HW214247   1.921   5.132   3.149
 4499SOL     OW14248   2.594   4.358   2.926
 4499SOL    HW114249   2.653   4.332   2.850
 4499SOL    HW214250   2.566   4.454   2.915
 4500SOL     OW14251   3.590   4.659   3.716
 4500SOL    HW114252   3.544   4.652   3.627
 4500SOL    HW214253   3.528   4.703   3.782
 4501SOL     OW14254   2.169   3.787   2.480
 4501SOL    HW114255   2.158   3.881   2.513
 4501SOL    HW214256   2.164   3.724   2.557
 4502SOL     OW14257   3.484   4.091   2.236
 4502SOL    HW114258   3.486   4.015   2.300
 4502SOL    HW214259   3.436   4.168   2.276
 4503SOL     OW14260   2.885   4.490   2.828
 4503SOL    HW114261   2.900   4.511   2.924
 4503SOL    HW214262   2.855   4.395   2.819
 4504SOL     OW14263   3.721   5.242   3.467
 4504SOL    HW114264   3.735   5.269   3.372
 4504SOL    HW214265   3.804   5.264   3.520
 4505SOL     OW14266   2.212   4.622   3.666
 4505SOL    HW114267   2.288   4.666   3.714
 4505SOL    HW214268   2.247   4.575   3.584
 4506SOL     OW14269   3.402   3.998   1.987
 4506SOL    HW114270   3.341   3.923   2.010
 4506SOL    HW214271   3.424   4.050   2.070
 4507SOL     OW14272   3.165   4.562   1.904
 4507SOL    HW114273   3.199   4.469   1.919
 4507SOL    HW214274   3.183   4.589   1.809
 4508SOL     OW14275   2.930   5.057   2.711
 4508SOL    HW114276   2.937   4.973   2.656
 4508SOL    HW214277   2.992   5.126   2.675
 4509SOL     OW14278   2.181   4.534   2.811
 4509SOL    HW114279   2.274   4.570   2.816
 4509SOL    HW214280   2.175   4.449   2.863
 4510SOL     OW14281   2.201   4.233   2.868
 4510SOL    HW114282   2.149   4.150   2.851
 4510SOL    HW214283   2.278   4.238   2.804
 4511SOL     OW14284   3.000   4.104   3.540
 4511SOL    HW114285   2.955   4.167   3.604
 4511SOL    HW214286   3.093   4.135   3.523
 4512SOL     OW14287   3.022   3.931   3.339
 4512SOL    HW114288   3.022   3.995   3.416
 4512SOL    HW214289   3.050   3.979   3.256
 4513SOL     OW14290   1.870   5.050   2.062
 4513SOL    HW114291   1.777   5.071   2.031
 4513SOL    HW214292   1.880   4.951   2.075
 4514SOL     OW14293   2.864   4.520   3.100
 4514SOL    HW114294   2.905   4.488   3.186
 4514SOL    HW214295   2.768   4.493   3.097
 4515SOL     OW14296   1.902   4.268   2.976
 4515SOL    HW114297   1.987   4.235   2.935
 4515SOL    HW214298   1.915   4.283   3.074
 4516SOL     OW14299   2.051   4.244   3.584
 4516SOL    HW114300   2.110   4.204   3.514
 4516SOL    HW214301   1.993   4.315   3.543
 4517SOL     OW14302   3.231   4.674   3.522
 4517SOL    HW114303   3.270   4.763   3.542
 4517SOL    HW214304   3.241   4.654   3.425
 4518SOL     OW14305   2.677   4.296   2.187
 4518SOL    HW114306   2.684   4.207   2.141
 4518SOL    HW214307   2.583   4.330   2.179
 4519SOL     OW14308   3.519   4.328   3.068
 4519SOL    HW114309   3.481   4.259   3.130
 4519SOL    HW214310   3.601   4.292   3.024
 4520SOL     OW14311   2.114   5.288   3.606
 4520SOL    HW114312   2.084   5.345   3.682
 4520SOL    HW214313   2.107   5.191   3.632
 4521SOL     OW14314   2.533   4.188   3.131
 4521SOL    HW114315   2.499   4.099   3.101
 4521SOL    HW214316   2.559   4.242   3.051
 4522SOL     OW14317   2.335   4.224   2.053
 4522SOL    HW114318   2.396   4.304   2.057
 4522SOL    HW214319   2.240   4.255   2.060
 4523SOL     OW14320   2.021   4.861   3.328
 4523SOL    HW114321   2.043   4.800   3.404
 4523SOL    HW214322   2.031   4.812   3.242
 4524SOL     OW14323   3.209   4.783   3.096
 4524SOL    HW114324   3.233   4.720   3.022
 4524SOL    HW214325   3.119   4.823   3.078
 4525SOL     OW14326   3.164   4.579   2.171
 4525SOL    HW114327   3.078   4.548   2.213
 4525SOL    HW214328   3.160   4.565   2.072
 4526SOL     OW14329   1.945   4.982   2.884
 4526SOL    HW114330   1.940   4.981   2.984
 4526SOL    HW214331   1.862   4.941   2.846
 4527SOL     OW14332   2.550   5.386   3.578
 4527SOL    HW114333   2.494   5.467   3.587
 4527SOL    HW214334   2.602   5.390   3.492
 4528SOL     OW14335   3.588   3.859   2.385
 4528SOL    HW114336   3.661   3.842   2.318
 4528SOL    HW214337   3.557   3.772   2.423
 4529SOL     OW14338   3.142   4.651   2.534
 4529SOL    HW114339   3.202   4.570   2.536
 4529SOL    HW214340   3.182   4.720   2.474
 4530SOL     OW14341   2.692   4.997   3.284
 4530SOL    HW114342   2.687   5.030   3.379
 4530SOL    HW214343   2.606   5.016   3.238
 4531SOL     OW14344   3.703   3.899   2.825
 4531SOL    HW114345   3.742   3.814   2.789
 4531SOL    HW214346   3.605   3.901   2.806
 4532SOL     OW14347   2.125   4.050   2.582
 4532SOL    HW114348   2.046   4.101   2.548
 4532SOL    HW214349   2.116   4.035   2.680
 4533SOL     OW14350   2.684   4.726   3.234
 4533SOL    HW114351   2.724   4.725   3.142
 4533SOL    HW214352   2.694   4.818   3.274
 4534SOL     OW14353   2.778   4.634   2.153
 4534SOL    HW114354   2.841   4.672   2.085
 4534SOL    HW214355   2.818   4.551   2.192
 4535SOL     OW14356   2.234   5.012   3.352
 4535SOL    HW114357   2.221   5.105   3.318
 4535SOL    HW214358   2.150   4.960   3.339
 4536SOL     OW14359   3.476   5.016   3.151
 4536SOL    HW114360   3.536   5.019   3.231
 4536SOL    HW214361   3.401   5.080   3.164
 4537SOL     OW14362   2.901   4.822   2.558
 4537SOL    HW114363   2.831   4.775   2.612
 4537SOL    HW214364   2.960   4.754   2.515
 4538SOL     OW14365   2.876   3.960   2.833
 4538SOL    HW114366   2.868   3.924   2.740
 4538SOL    HW214367   2.874   3.884   2.898
 4539SOL     OW14368   3.571   4.109   3.243
 4539SOL    HW114369   3.644   4.178   3.247
 4539SOL    HW214370   3.599   4.034   3.184
 4540SOL     OW14371   2.117   5.072   2.152
 4540SOL    HW114372   2.021   5.073   2.125
 4540SOL    HW214373   2.129   5.125   2.236
 4541SOL     OW14374   1.967   4.737   3.588
 4541SOL    HW114375   1.890   4.704   3.642
 4541SOL    HW214376   2.052   4.707   3.630
 4542SOL     OW14377   2.534   3.927   3.351
 4542SOL    HW114378   2.624   3.911   3.311
 4542SOL    HW214379   2.542   3.932   3.450
 4543SOL     OW14380   1.937   4.069   1.895
 4543SOL    HW114381   1.845   4.041   1.866
 4543SOL    HW214382   1.968   4.146   1.839
 4544SOL     OW14383   3.302   4.580   3.260
 4544SOL    HW114384   3.245   4.632   3.197
 4544SOL    HW214385   3.398   4.592   3.236
 4545SOL     OW14386   1.934   3.890   2.180
 4545SOL    HW114387   1.917   3.973   2.126
 4545SOL    HW214388   2.024   3.853   2.158
 4546SOL     OW14389   3.045   5.059   1.981
 4546SOL    HW114390   2.946   5.048   1.983
 4546SOL    HW214391   3.079   5.074   2.074
 4547SOL     OW14392   2.475   4.566   3.293
 4547SOL    HW114393   2.531   4.647   3.276
 4547SOL    HW214394   2.534   4.486   3.296
 4548SOL     OW14395   2.578   4.289   3.570
 4548SOL    HW114396   2.597   4.354   3.644
 4548SOL    HW214397   2.638   4.209   3.579
 4549SOL     OW14398   3.312   4.944   3.495
 4549SOL    HW114399   3.303   4.934   3.594
 4549SOL    HW214400   3.408   4.937   3.469
 4550SOL     OW14401   3.536   4.607   3.116
 4550SOL    HW114402   3.509   4.518   3.079
 4550SOL    HW214403   3.537   4.675   3.043
 4551SOL     OW14404   3.087   4.049   2.311
 4551SOL    HW114405   3.152   3.975   2.300
 4551SOL    HW214406   3.107   4.099   2.395
 4552SOL     OW14407   2.456   4.469   2.514
 4552SOL    HW114408   2.506   4.554   2.495
 4552SOL    HW214409   2.368   4.471   2.466
 4553SOL     OW14410   3.639   4.066   3.504
 4553SOL    HW114411   3.622   4.097   3.410
 4553SOL    HW214412   3.555   4.029   3.542
 4554SOL     OW14413   3.592   4.658   3.379
 4554SOL    HW114414   3.630   4.749   3.394
 4554SOL    HW214415   3.584   4.641   3.280
 4555SOL     OW14416   2.721   5.098   1.878
 4555SOL    HW114417   2.675   5.113   1.966
 4555SOL    HW214418   2.765   5.183   1.848
 4556SOL     OW14419   2.721   4.680   2.723
 4556SOL    HW114420   2.775   4.611   2.771
 4556SOL    HW214421   2.689   4.749   2.789
 4557SOL     OW14422   2.945   4.708   1.949
 4557SOL    HW114423   2.922   4.761   1.867
 4557SOL    HW214424   3.026   4.652   1.930
 4558SOL     OW14425   2.083   5.038   3.706
 4558SOL    HW114426   2.018   4.965   3.685
 4558SOL    HW214427   2.087   5.052   3.804
 4559SOL     OW14428   1.941   4.964   2.515
 4559SOL    HW114429   1.940   4.917   2.603
 4559SOL    HW214430   2.023   4.936   2.464
 4560SOL     OW14431   2.534   5.115   3.486
 4560SOL    HW114432   2.456   5.065   3.524
 4560SOL    HW214433   2.531   5.210   3.517
 4561SOL     OW14434   3.686   3.916   3.089
 4561SOL    HW114435   3.682   3.826   3.133
 4561SOL    HW214436   3.689   3.905   2.990
 4562SOL     OW14437   2.290   4.148   2.382
 4562SOL    HW114438   2.320   4.076   2.320
 4562SOL    HW214439   2.251   4.108   2.465
 4563SOL     OW14440   3.567   5.211   2.966
 4563SOL    HW114441   3.474   5.186   2.939
 4563SOL    HW214442   3.593   5.161   3.048
 4564SOL     OW14443   2.179   4.271   3.142
 4564SOL    HW114444   2.217   4.212   3.214
 4564SOL    HW214445   2.219   4.245   3.054
 4565SOL     OW14446   3.286   3.938   2.974
 4565SOL    HW114447   3.338   3.873   3.029
 4565SOL    HW214448   3.237   4.001   3.035
 4566SOL     OW14449   2.863   3.758   3.016
 4566SOL    HW114450   2.800   3.686   2.985
 4566SOL    HW214451   2.956   3.722   3.016
 4567SOL     OW14452   2.632   5.054   2.163
 4567SOL    HW114453   2.586   4.967   2.180
 4567SOL    HW214454   2.723   5.051   2.204
 4568SOL     OW14455   2.480   5.291   3.146
 4568SOL    HW114456   2.475   5.373   3.203
 4568SOL    HW214457   2.569   5.288   3.101
 4569SOL     OW14458   3.214   3.776   2.030
 4569SOL    HW114459   3.249   3.735   1.946
 4569SOL    HW214460   3.124   3.738   2.050
 4570SOL     OW14461   3.162   4.177   2.553
 4570SOL    HW114462   3.103   4.257   2.557
 4570SOL    HW214463   3.177   4.142   2.646
 4571SOL     OW14464   3.455   3.945   2.744
 4571SOL    HW114465   3.371   3.944   2.798
 4571SOL    HW214466   3.457   4.028   2.688
 4572SOL     OW14467   1.901   4.801   2.162
 4572SOL    HW114468   2.000   4.790   2.153
 4572SOL    HW214469   1.861   4.715   2.194
 4573SOL     OW14470   2.092   4.352   3.837
 4573SOL    HW114471   1.999   4.350   3.874
 4573SOL    HW214472   2.093   4.313   3.745
 4574SOL     OW14473   2.087   3.999   4.720
 4574SOL    HW114474   2.122   3.982   4.812
 4574SOL    HW214475   1.999   3.954   4.708
 4575SOL     OW14476   1.881   4.092   4.371
 4575SOL    HW114477   1.799   4.135   4.410
 4575SOL    HW214478   1.853   4.019   4.308
 4576SOL     OW14479   2.431   4.999   4.889
 4576SOL    HW114480   2.338   4.992   4.852
 4576SOL    HW214481   2.442   5.088   4.933
 4577SOL     OW14482   3.417   5.235   4.427
 4577SOL    HW114483   3.360   5.219   4.508
 4577SOL    HW214484   3.358   5.245   4.347
 4578SOL     OW14485   2.997   4.427   4.441
 4578SOL    HW114486   3.054   4.505   4.416
 4578SOL    HW214487   2.937   4.453   4.517
 4579SOL     OW14488   3.617   4.331   3.955
 4579SOL    HW114489   3.605   4.318   3.856
 4579SOL    HW214490   3.587   4.250   4.004
 4580SOL     OW14491   2.630   4.868   4.747
 4580SOL    HW114492   2.552   4.885   4.807
 4580SOL    HW214493   2.664   4.955   4.711
 4581SOL     OW14494   2.712   4.522   5.547
 4581SOL    HW114495   2.708   4.598   5.612
 4581SOL    HW214496   2.734   4.558   5.456
 4582SOL     OW14497   2.547   4.736   4.389
 4582SOL    HW114498   2.616   4.720   4.459
 4582SOL    HW214499   2.474   4.793   4.427
 4583SOL     OW14500   2.548   4.885   5.527
 4583SOL    HW114501   2.608   4.964   5.541
 4583SOL    HW214502   2.462   4.916   5.486
 4584SOL     OW14503   2.197   5.159   4.785
 4584SOL    HW114504   2.119   5.128   4.732
 4584SOL    HW214505   2.255   5.217   4.728
 4585SOL     OW14506   3.322   5.229   5.063
 4585SOL    HW114507   3.346   5.323   5.089
 4585SOL    HW214508   3.306   5.175   5.145
 4586SOL     OW14509   2.300   4.116   5.223
 4586SOL    HW114510   2.382   4.060   5.232
 4586SOL    HW214511   2.219   4.058   5.227
 4587SOL     OW14512   3.465   4.171   4.461
 4587SOL    HW114513   3.391   4.217   4.411
 4587SOL    HW214514   3.516   4.239   4.514
 4588SOL     OW14515   2.989   5.065   5.414
 4588SOL    HW114516   3.036   5.065   5.502
 4588SOL    HW214517   2.941   4.978   5.403
 4589SOL     OW14518   2.092   5.158   4.262
 4589SOL    HW114519   2.066   5.254   4.262
 4589SOL    HW214520   2.021   5.104   4.307
 4590SOL     OW14521   2.102   4.815   4.610
 4590SOL    HW114522   2.116   4.731   4.662
 4590SOL    HW214523   2.047   4.879   4.665
 4591SOL     OW14524   2.468   4.688   3.847
 4591SOL    HW114525   2.475   4.772   3.793
 4591SOL    HW214526   2.514   4.701   3.935
 4592SOL     OW14527   3.456   3.838   5.204
 4592SOL    HW114528   3.438   3.905   5.132
 4592SOL    HW214529   3.453   3.884   5.293
 4593SOL     OW14530   1.984   4.367   4.287
 4593SOL    HW114531   1.939   4.279   4.304
 4593SOL    HW214532   1.983   4.421   4.371
 4594SOL     OW14533   1.889   5.320   3.841
 4594SOL    HW114534   1.870   5.224   3.862
 4594SOL    HW214535   1.856   5.378   3.916
 4595SOL     OW14536   3.551   4.646   4.336
 4595SOL    HW114537   3.646   4.617   4.344
 4595SOL    HW214538   3.543   4.711   4.261
 4596SOL     OW14539   3.503   4.832   4.156
 4596SOL    HW114540   3.589   4.834   4.104
 4596SOL    HW214541   3.517   4.879   4.244
 4597SOL     OW14542   1.975   4.461   5.321
 4597SOL    HW114543   2.063   4.448   5.366
 4597SOL    HW214544   1.962   4.558   5.299
 4598SOL     OW14545   2.475   5.089   4.450
 4598SOL    HW114546   2.426   5.002   4.459
 4598SOL    HW214547   2.452   5.132   4.363
 4599SOL     OW14548   3.155   4.952   5.147
 4599SOL    HW114549   3.192   4.879   5.089
 4599SOL    HW214550   3.207   4.957   5.232
 4600SOL     OW14551   2.671   3.728   4.226
 4600SOL    HW114552   2.711   3.819   4.217
 4600SOL    HW214553   2.571   3.736   4.232
 4601SOL     OW14554   2.059   4.700   4.988
 4601SOL    HW114555   2.148   4.655   4.974
 4601SOL    HW214556   1.986   4.635   4.969
 4602SOL     OW14557   3.387   4.723   3.914
 4602SOL    HW114558   3.324   4.647   3.927
 4602SOL    HW214559   3.435   4.741   4.000
 4603SOL     OW14560   2.179   3.975   5.525
 4603SOL    HW114561   2.250   4.046   5.531
 4603SOL    HW214562   2.091   4.014   5.553
 4604SOL     OW14563   3.328   5.141   4.677
 4604SOL    HW114564   3.269   5.147   4.757
 4604SOL    HW214565   3.313   5.053   4.631
 4605SOL     OW14566   2.460   4.453   3.994
 4605SOL    HW114567   2.484   4.522   3.926
 4605SOL    HW214568   2.382   4.486   4.048
 4606SOL     OW14569   3.143   4.069   4.668
 4606SOL    HW114570   3.057   4.019   4.655
 4606SOL    HW214571   3.205   4.015   4.724
 4607SOL     OW14572   2.669   4.329   5.189
 4607SOL    HW114573   2.622   4.326   5.278
 4607SOL    HW214574   2.618   4.274   5.123
 4608SOL     OW14575   3.256   4.193   5.398
 4608SOL    HW114576   3.236   4.236   5.486
 4608SOL    HW214577   3.334   4.131   5.407
 4609SOL     OW14578   2.835   4.614   5.296
 4609SOL    HW114579   2.881   4.530   5.267
 4609SOL    HW214580   2.779   4.648   5.221
 4610SOL     OW14581   2.853   4.134   4.966
 4610SOL    HW114582   2.776   4.168   5.020
 4610SOL    HW214583   2.819   4.083   4.887
 4611SOL     OW14584   2.903   4.425   4.153
 4611SOL    HW114585   2.929   4.421   4.249
 4611SOL    HW214586   2.818   4.374   4.139
 4612SOL     OW14587   1.938   4.535   4.513
 4612SOL    HW114588   2.037   4.523   4.522
 4612SOL    HW214589   1.914   4.630   4.534
 4613SOL     OW14590   2.727   4.072   3.919
 4613SOL    HW114591   2.786   4.135   3.870
 4613SOL    HW214592   2.746   3.978   3.890
 4614SOL     OW14593   3.581   4.309   5.555
 4614SOL    HW114594   3.555   4.398   5.519
 4614SOL    HW214595   3.579   4.241   5.482
 4615SOL     OW14596   3.224   4.868   4.269
 4615SOL    HW114597   3.307   4.839   4.221
 4615SOL    HW214598   3.175   4.935   4.213
 4616SOL     OW14599   2.412   3.920   4.609
 4616SOL    HW114600   2.407   3.915   4.709
 4616SOL    HW214601   2.414   4.016   4.580
 4617SOL     OW14602   2.870   5.180   4.201
 4617SOL    HW114603   2.824   5.252   4.149
 4617SOL    HW214604   2.866   5.200   4.299
 4618SOL     OW14605   3.657   4.790   4.597
 4618SOL    HW114606   3.595   4.775   4.521
 4618SOL    HW214607   3.605   4.801   4.682
 4619SOL     OW14608   3.089   5.274   5.230
 4619SOL    HW114609   3.095   5.197   5.294
 4619SOL    HW214610   3.037   5.248   5.150
 4620SOL     OW14611   2.183   4.667   3.966
 4620SOL    HW114612   2.265   4.706   3.924
 4620SOL    HW214613   2.156   4.585   3.917
 4621SOL     OW14614   3.320   4.459   4.452
 4621SOL    HW114615   3.315   4.394   4.527
 4621SOL    HW214616   3.400   4.518   4.465
 4622SOL     OW14617   2.323   4.990   5.451
 4622SOL    HW114618   2.273   4.991   5.365
 4622SOL    HW214619   2.260   4.972   5.527
 4623SOL     OW14620   2.973   5.500   3.961
 4623SOL    HW114621   2.913   5.438   4.011
 4623SOL    HW214622   3.004   5.456   3.876
 4624SOL     OW14623   2.064   4.009   5.222
 4624SOL    HW114624   1.984   4.069   5.209
 4624SOL    HW214625   2.054   3.960   5.308
 4625SOL     OW14626   3.494   5.101   3.805
 4625SOL    HW114627   3.462   5.195   3.795
 4625SOL    HW214628   3.418   5.038   3.793
 4626SOL     OW14629   3.262   3.831   4.150
 4626SOL    HW114630   3.238   3.794   4.060
 4626SOL    HW214631   3.361   3.847   4.154
 4627SOL     OW14632   2.244   4.424   4.204
 4627SOL    HW114633   2.289   4.334   4.201
 4627SOL    HW214634   2.150   4.413   4.237
 4628SOL     OW14635   3.409   3.946   5.453
 4628SOL    HW114636   3.404   3.983   5.545
 4628SOL    HW214637   3.337   3.877   5.441
 4629SOL     OW14638   2.476   3.846   3.841
 4629SOL    HW114639   2.574   3.824   3.848
 4629SOL    HW214640   2.445   3.829   3.748
 4630SOL     OW14641   2.643   3.988   5.473
 4630SOL    HW114642   2.710   3.927   5.516
 4630SOL    HW214643   2.570   4.007   5.538
 4631SOL     OW14644   3.213   4.314   5.157
 4631SOL    HW114645   3.241   4.271   5.242
 4631SOL    HW214646   3.238   4.410   5.158
 4632SOL     OW14647   2.665   5.126   4.648
 4632SOL    HW114648   2.755   5.140   4.606
 4632SOL    HW214649   2.594   5.128   4.577
 4633SOL     OW14650   2.784   4.227   4.623
 4633SOL    HW114651   2.759   4.218   4.527
 4633SOL    HW214652   2.832   4.145   4.654
 4634SOL     OW14653   2.401   3.788   4.236
 4634SOL    HW114654   2.320   3.789   4.294
 4634SOL    HW214655   2.404   3.871   4.181
 4635SOL     OW14656   3.296   4.912   3.765
 4635SOL    HW114657   3.328   4.836   3.822
 4635SOL    HW214658   3.204   4.939   3.795
 4636SOL     OW14659   2.159   3.759   3.895
 4636SOL    HW114660   2.208   3.843   3.874
 4636SOL    HW214661   2.221   3.694   3.940
 4637SOL     OW14662   2.797   3.960   4.204
 4637SOL    HW114663   2.749   4.001   4.126
 4637SOL    HW214664   2.896   3.958   4.185
 4638SOL     OW14665   2.938   4.407   5.188
 4638SOL    HW114666   2.858   4.346   5.191
 4638SOL    HW214667   3.019   4.354   5.164
 4639SOL     OW14668   3.089   5.294   4.517
 4639SOL    HW114669   3.110   5.368   4.452
 4639SOL    HW214670   3.157   5.294   4.590
 4640SOL     OW14671   2.321   4.876   4.465
 4640SOL    HW114672   2.250   4.849   4.530
 4640SOL    HW214673   2.295   4.848   4.372
 4641SOL     OW14674   2.894   4.273   3.740
 4641SOL    HW114675   2.853   4.355   3.701
 4641SOL    HW214676   2.958   4.299   3.813
 4642SOL     OW14677   1.940   4.280   5.110
 4642SOL    HW114678   2.032   4.279   5.069
 4642SOL    HW214679   1.934   4.354   5.177
 4643SOL     OW14680   2.423   3.946   4.871
 4643SOL    HW114681   2.461   3.862   4.908
 4643SOL    HW214682   2.335   3.965   4.915
 4644SOL     OW14683   2.728   4.178   4.366
 4644SOL    HW114684   2.696   4.250   4.304
 4644SOL    HW214685   2.752   4.097   4.313
 4645SOL     OW14686   2.879   3.763   4.477
 4645SOL    HW114687   2.807   3.768   4.408
 4645SOL    HW214688   2.855   3.694   4.546
 4646SOL     OW14689   3.291   4.897   4.591
 4646SOL    HW114690   3.236   4.813   4.584
 4646SOL    HW214691   3.317   4.926   4.499
 4647SOL     OW14692   3.328   4.314   4.716
 4647SOL    HW114693   3.298   4.219   4.723
 4647SOL    HW214694   3.401   4.330   4.782
 4648SOL     OW14695   3.719   4.557   4.101
 4648SOL    HW114696   3.761   4.493   4.165
 4648SOL    HW214697   3.681   4.506   4.023
 4649SOL     OW14698   2.350   5.109   3.898
 4649SOL    HW114699   2.263   5.094   3.945
 4649SOL    HW214700   2.333   5.135   3.803
 4650SOL     OW14701   3.526   5.004   4.381
 4650SOL    HW114702   3.625   5.012   4.395
 4650SOL    HW214703   3.481   5.088   4.412
 4651SOL     OW14704   3.252   4.299   3.802
 4651SOL    HW114705   3.198   4.278   3.883
 4651SOL    HW214706   3.343   4.258   3.811
 4652SOL     OW14707   2.389   3.980   4.052
 4652SOL    HW114708   2.416   3.921   3.977
 4652SOL    HW214709   2.389   4.075   4.021
 4653SOL     OW14710   3.616   4.947   5.312
 4653SOL    HW114711   3.707   4.908   5.299
 4653SOL    HW214712   3.624   5.043   5.336
 4654SOL     OW14713   2.926   5.071   5.064
 4654SOL    HW114714   2.846   5.048   5.119
 4654SOL    HW214715   3.009   5.045   5.113
 4655SOL     OW14716   2.973   4.919   4.824
 4655SOL    HW114717   2.933   4.963   4.905
 4655SOL    HW214718   2.932   4.956   4.741
 4656SOL     OW14719   3.500   4.823   4.803
 4656SOL    HW114720   3.505   4.904   4.862
 4656SOL    HW214721   3.414   4.825   4.752
 4657SOL     OW14722   2.777   3.813   5.126
 4657SOL    HW114723   2.802   3.793   5.031
 4657SOL    HW214724   2.849   3.869   5.168
 4658SOL     OW14725   2.842   4.840   5.443
 4658SOL    HW114726   2.743   4.846   5.453
 4658SOL    HW214727   2.865   4.760   5.387
 4659SOL     OW14728   2.567   4.774   4.092
 4659SOL    HW114729   2.553   4.781   4.191
 4659SOL    HW214730   2.651   4.723   4.074
 4660SOL     OW14731   2.272   4.537   4.975
 4660SOL    HW114732   2.358   4.549   5.025
 4660SOL    HW214733   2.230   4.450   5.002
 4661SOL     OW14734   3.136   4.110   4.986
 4661SOL    HW114735   3.157   4.184   5.050
 4661SOL    HW214736   3.047   4.127   4.943
 4662SOL     OW14737   2.229   4.824   4.225
 4662SOL    HW114738   2.222   4.907   4.169
 4662SOL    HW214739   2.233   4.744   4.165
 4663SOL     OW14740   2.428   4.261   4.589
 4663SOL    HW114741   2.440   4.327   4.515
 4663SOL    HW214742   2.474   4.295   4.672
 4664SOL     OW14743   3.114   5.072   4.112
 4664SOL    HW114744   3.164   5.149   4.152
 4664SOL    HW214745   3.019   5.074   4.144
 4665SOL     OW14746   3.134   5.169   4.866
 4665SOL    HW114747   3.181   5.182   4.953
 4665SOL    HW214748   3.068   5.095   4.875
 4666SOL     OW14749   3.444   4.363   4.196
 4666SOL    HW114750   3.413   4.424   4.269
 4666SOL    HW214751   3.494   4.415   4.127
 4667SOL     OW14752   2.216   5.234   5.053
 4667SOL    HW114753   2.195   5.190   4.966
 4667SOL    HW214754   2.313   5.260   5.056
 4668SOL     OW14755   2.264   4.475   5.322
 4668SOL    HW114756   2.332   4.530   5.275
 4668SOL    HW214757   2.304   4.387   5.349
 4669SOL     OW14758   3.449   4.503   5.394
 4669SOL    HW114759   3.357   4.541   5.389
 4669SOL    HW214760   3.509   4.550   5.329
 4670SOL     OW14761   2.875   3.829   5.494
 4670SOL    HW114762   2.881   3.914   5.442
 4670SOL    HW214763   2.907   3.753   5.437
 4671SOL     OW14764   2.366   3.774   5.464
 4671SOL    HW114765   2.324   3.717   5.394
 4671SOL    HW214766   2.300   3.843   5.496
 4672SOL     OW14767   2.435   4.594   4.753
 4672SOL    HW114768   2.479   4.683   4.744
 4672SOL    HW214769   2.372   4.594   4.830
 4673SOL     OW14770   3.222   4.586   4.769
 4673SOL    HW114771   3.147   4.586   4.703
 4673SOL    HW214772   3.259   4.494   4.778
 4674SOL     OW14773   3.071   4.249   3.999
 4674SOL    HW114774   3.084   4.165   4.053
 4674SOL    HW214775   3.042   4.323   4.059
 4675SOL     OW14776   2.169   3.937   4.955
 4675SOL    HW114777   2.146   3.974   5.045
 4675SOL    HW214778   2.139   3.842   4.949
 4676SOL     OW14779   1.899   5.034   5.006
 4676SOL    HW114780   1.952   4.985   5.074
 4676SOL    HW214781   1.921   5.132   5.011
 4677SOL     OW14782   2.594   4.358   4.788
 4677SOL    HW114783   2.653   4.332   4.712
 4677SOL    HW214784   2.566   4.454   4.777
 4678SOL     OW14785   3.590   4.659   5.578
 4678SOL    HW114786   3.544   4.652   5.489
 4678SOL    HW214787   3.528   4.703   5.644
 4679SOL     OW14788   2.169   3.787   4.342
 4679SOL    HW114789   2.158   3.881   4.375
 4679SOL    HW214790   2.164   3.724   4.419
 4680SOL     OW14791   3.484   4.091   4.098
 4680SOL    HW114792   3.486   4.015   4.162
 4680SOL    HW214793   3.436   4.168   4.138
 4681SOL     OW14794   2.885   4.490   4.690
 4681SOL    HW114795   2.900   4.511   4.786
 4681SOL    HW214796   2.855   4.395   4.681
 4682SOL     OW14797   3.721   5.242   5.329
 4682SOL    HW114798   3.735   5.269   5.234
 4682SOL    HW214799   3.804   5.264   5.382
 4683SOL     OW14800   2.212   4.622   5.528
 4683SOL    HW114801   2.288   4.666   5.576
 4683SOL    HW214802   2.247   4.575   5.446
 4684SOL     OW14803   3.402   3.998   3.849
 4684SOL    HW114804   3.341   3.923   3.872
 4684SOL    HW214805   3.424   4.050   3.932
 4685SOL     OW14806   3.165   4.562   3.766
 4685SOL    HW114807   3.199   4.469   3.781
 4685SOL    HW214808   3.183   4.589   3.671
 4686SOL     OW14809   2.930   5.057   4.573
 4686SOL    HW114810   2.937   4.973   4.518
 4686SOL    HW214811   2.992   5.126   4.537
 4687SOL     OW14812   2.181   4.534   4.673
 4687SOL    HW114813   2.274   4.570   4.678
 4687SOL    HW214814   2.175   4.449   4.725
 4688SOL     OW14815   2.201   4.233   4.730
 4688SOL    HW114816   2.149   4.150   4.713
 4688SOL    HW214817   2.278   4.238   4.666
 4689SOL     OW14818   3.000   4.104   5.402
 4689SOL    HW114819   2.955   4.167   5.466
 4689SOL    HW214820   3.093   4.135   5.385
 4690SOL     OW14821   3.022   3.931   5.201
 4690SOL    HW114822   3.022   3.995   5.278
 4690SOL    HW214823   3.050   3.979   5.118
 4691SOL     OW14824   1.870   5.050   3.924
 4691SOL    HW114825   1.777   5.071   3.893
 4691SOL    HW214826   1.880   4.951   3.937
 4692SOL     OW14827   2.864   4.520   4.962
 4692SOL    HW114828   2.905   4.488   5.048
 4692SOL    HW214829   2.768   4.493   4.959
 4693SOL     OW14830   1.902   4.268   4.838
 4693SOL    HW114831   1.987   4.235   4.797
 4693SOL    HW214832   1.915   4.283   4.936
 4694SOL     OW14833   2.051   4.244   5.446
 4694SOL    HW114834   2.110   4.204   5.376
 4694SOL    HW214835   1.993   4.315   5.405
 4695SOL     OW14836   3.231   4.674   5.384
 4695SOL    HW114837   3.270   4.763   5.404
 4695SOL    HW214838   3.241   4.654   5.287
 4696SOL     OW14839   2.677   4.296   4.049
 4696SOL    HW114840   2.684   4.207   4.003
 4696SOL    HW214841   2.583   4.330   4.041
 4697SOL     OW14842   3.519   4.328   4.930
 4697SOL    HW114843   3.481   4.259   4.992
 4697SOL    HW214844   3.601   4.292   4.886
 4698SOL     OW14845   2.114   5.288   5.468
 4698SOL    HW114846   2.084   5.345   5.544
 4698SOL    HW214847   2.107   5.191   5.494
 4699SOL     OW14848   2.533   4.188   4.993
 4699SOL    HW114849   2.499   4.099   4.963
 4699SOL    HW214850   2.559   4.242   4.913
 4700SOL     OW14851   2.335   4.224   3.915
 4700SOL    HW114852   2.396   4.304   3.919
 4700SOL    HW214853   2.240   4.255   3.922
 4701SOL     OW14854   2.021   4.861   5.190
 4701SOL    HW114855   2.043   4.800   5.266
 4701SOL    HW214856   2.031   4.812   5.104
 4702SOL     OW14857   3.209   4.783   4.958
 4702SOL    HW114858   3.233   4.720   4.884
 4702SOL    HW214859   3.119   4.823   4.940
 4703SOL     OW14860   3.164   4.579   4.033
 4703SOL    HW114861   3.078   4.548   4.075
 4703SOL    HW214862   3.160   4.565   3.934
 4704SOL     OW14863   1.945   4.982   4.746
 4704SOL    HW114864   1.940   4.981   4.846
 4704SOL    HW214865   1.862   4.941   4.708
 4705SOL     OW14866   2.550   5.386   5.440
 4705SOL    HW114867   2.494   5.467   5.449
 4705SOL    HW214868   2.602   5.390   5.354
 4706SOL     OW14869   3.588   3.859   4.247
 4706SOL    HW114870   3.661   3.842   4.180
 4706SOL    HW214871   3.557   3.772   4.285
 4707SOL     OW14872   3.142   4.651   4.396
 4707SOL    HW114873   3.202   4.570   4.398
 4707SOL    HW214874   3.182   4.720   4.336
 4708SOL     OW14875   2.692   4.997   5.146
 4708SOL    HW114876   2.687   5.030   5.241
 4708SOL    HW214877   2.606   5.016   5.100
 4709SOL     OW14878   3.703   3.899   4.687
 4709SOL    HW114879   3.742   3.814   4.651
 4709SOL    HW214880   3.605   3.901   4.668
 4710SOL     OW14881   2.125   4.050   4.444
 4710SOL    HW114882   2.046   4.101   4.410
 4710SOL    HW214883   2.116   4.035   4.542
 4711SOL     OW14884   2.684   4.726   5.096
 4711SOL    HW114885   2.724   4.725   5.004
 4711SOL    HW214886   2.694   4.818   5.136
 4712SOL     OW14887   2.778   4.634   4.015
 4712SOL    HW114888   2.841   4.672   3.947
 4712SOL    HW214889   2.818   4.551   4.054
 4713SOL     OW14890   2.234   5.012   5.214
 4713SOL    HW114891   2.221   5.105   5.180
 4713SOL    HW214892   2.150   4.960   5.201
 4714SOL     OW14893   3.476   5.016   5.013
 4714SOL    HW114894   3.536   5.019   5.093
 4714SOL    HW214895   3.401   5.080   5.026
 4715SOL     OW14896   2.901   4.822   4.420
 4715SOL    HW114897   2.831   4.775   4.474
 4715SOL    HW214898   2.960   4.754   4.377
 4716SOL     OW14899   2.876   3.960   4.695
 4716SOL    HW114900   2.868   3.924   4.602
 4716SOL    HW214901   2.874   3.884   4.760
 4717SOL     OW14902   3.571   4.109   5.105
 4717SOL    HW114903   3.644   4.178   5.109
 4717SOL    HW214904   3.599   4.034   5.046
 4718SOL     OW14905   2.117   5.072   4.014
 4718SOL    HW114906   2.021   5.073   3.987
 4718SOL    HW214907   2.129   5.125   4.098
 4719SOL     OW14908   1.967   4.737   5.450
 4719SOL    HW114909   1.890   4.704   5.504
 4719SOL    HW214910   2.052   4.707   5.492
 4720SOL     OW14911   2.534   3.927   5.213
 4720SOL    HW114912   2.624   3.911   5.173
 4720SOL    HW214913   2.542   3.932   5.312
 4721SOL     OW14914   1.937   4.069   3.757
 4721SOL    HW114915   1.845   4.041   3.728
 4721SOL    HW214916   1.968   4.146   3.701
 4722SOL     OW14917   3.302   4.580   5.122
 4722SOL    HW114918   3.245   4.632   5.059
 4722SOL    HW214919   3.398   4.592   5.098
 4723SOL     OW14920   1.934   3.890   4.042
 4723SOL    HW114921   1.917   3.973   3.988
 4723SOL    HW214922   2.024   3.853   4.020
 4724SOL     OW14923   3.045   5.059   3.843
 4724SOL    HW114924   2.946   5.048   3.845
 4724SOL    HW214925   3.079   5.074   3.936
 4725SOL     OW14926   2.475   4.566   5.155
 4725SOL    HW114927   2.531   4.647   5.138
 4725SOL    HW214928   2.534   4.486   5.158
 4726SOL     OW14929   2.578   4.289   5.432
 4726SOL    HW114930   2.597   4.354   5.506
 4726SOL    HW214931   2.638   4.209   5.441
 4727SOL     OW14932   3.312   4.944   5.357
 4727SOL    HW114933   3.303   4.934   5.456
 4727SOL    HW214934   3.408   4.937   5.331
 4728SOL     OW14935   3.536   4.607   4.978
 4728SOL    HW114936   3.509   4.518   4.941
 4728SOL    HW214937   3.537   4.675   4.905
 4729SOL     OW14938   3.087   4.049   4.173
 4729SOL    HW114939   3.152   3.975   4.162
 4729SOL    HW214940   3.107   4.099   4.257
 4730SOL     OW14941   2.456   4.469   4.376
 4730SOL    HW114942   2.506   4.554   4.357
 4730SOL    HW214943   2.368   4.471   4.328
 4731SOL     OW14944   3.639   4.066   5.366
 4731SOL    HW114945   3.622   4.097   5.272
 4731SOL    HW214946   3.555   4.029   5.404
 4732SOL     OW14947   3.592   4.658   5.241
 4732SOL    HW114948   3.630   4.749   5.256
 4732SOL    HW214949   3.584   4.641   5.142
 4733SOL     OW14950   2.721   5.098   3.740
 4733SOL    HW114951   2.675   5.113   3.828
 4733SOL    HW214952   2.765   5.183   3.710
 4734SOL     OW14953   2.721   4.680   4.585
 4734SOL    HW114954   2.775   4.611   4.633
 4734SOL    HW214955   2.689   4.749   4.651
 4735SOL     OW14956   2.945   4.708   3.811
 4735SOL    HW114957   2.922   4.761   3.729
 4735SOL    HW214958   3.026   4.652   3.792
 4736SOL     OW14959   2.083   5.038   5.568
 4736SOL    HW114960   2.018   4.965   5.547
 4736SOL    HW214961   2.087   5.052   5.666
 4737SOL     OW14962   1.941   4.964   4.377
 4737SOL    HW114963   1.940   4.917   4.465
 4737SOL    HW214964   2.023   4.936   4.326
 4738SOL     OW14965   2.534   5.115   5.348
 4738SOL    HW114966   2.456   5.065   5.386
 4738SOL    HW214967   2.531   5.210   5.379
 4739SOL     OW14968   3.686   3.916   4.951
 4739SOL    HW114969   3.682   3.826   4.995
 4739SOL    HW214970   3.689   3.905   4.852
 4740SOL     OW14971   2.290   4.148   4.244
 4740SOL    HW114972   2.320   4.076   4.182
 4740SOL    HW214973   2.251   4.108   4.327
 4741SOL     OW14974   3.567   5.211   4.828
 4741SOL    HW114975   3.474   5.186   4.801
 4741SOL    HW214976   3.593   5.161   4.910
 4742SOL     OW14977   2.179   4.271   5.004
 4742SOL    HW114978   2.217   4.212   5.076
 4742SOL    HW214979   2.219   4.245   4.916
 4743SOL     OW14980   3.286   3.938   4.836
 4743SOL    HW114981   3.338   3.873   4.891
 4743SOL    HW214982   3.237   4.001   4.897
 4744SOL     OW14983   2.863   3.758   4.878
 4744SOL    HW114984   2.800   3.686   4.847
 4744SOL    HW214985   2.956   3.722   4.878
 4745SOL     OW14986   2.632   5.054   4.025
 4745SOL    HW114987   2.586   4.967   4.042
 4745SOL    HW214988   2.723   5.051   4.066
 4746SOL     OW14989   2.480   5.291   5.008
 4746SOL    HW114990   2.475   5.373   5.065
 4746SOL    HW214991   2.569   5.288   4.963
 4747SOL     OW14992   3.214   3.776   3.892
 4747SOL    HW114993   3.249   3.735   3.808
 4747SOL    HW214994   3.124   3.738   3.912
 4748SOL     OW14995   3.162   4.177   4.415
 4748SOL    HW114996   3.103   4.257   4.419
 4748SOL    HW214997   3.177   4.142   4.508
 4749SOL     OW14998   3.455   3.945   4.606
 4749SOL    HW114999   3.371   3.944   4.660
 4749SOL    HW215000   3.457   4.028   4.550
 4750SOL     OW15001   1.901   4.801   4.024
 4750SOL    HW115002   2.000   4.790   4.015
 4750SOL    HW215003   1.861   4.715   4.056
 4751SOL     OW15004   2.092   4.352   5.699
 4751SOL    HW115005   1.999   4.350   5.736
 4751SOL    HW215006   2.093   4.313   5.607
 4752SOL     OW15007   2.087   3.999   6.582
 4752SOL    HW115008   2.122   3.982   6.674
 4752SOL    HW215009   1.999   3.954   6.570
 4753SOL     OW15010   1.881   4.092   6.233
 4753SOL    HW115011   1.799   4.135   6.272
 4753SOL    HW215012   1.853   4.019   6.170
 4754SOL     OW15013   2.431   4.999   6.751
 4754SOL    HW115014   2.338   4.992   6.714
 4754SOL    HW215015   2.442   5.088   6.795
 4755SOL     OW15016   3.417   5.235   6.289
 4755SOL    HW115017   3.360   5.219   6.370
 4755SOL    HW215018   3.358   5.245   6.209
 4756SOL     OW15019   2.997   4.427   6.303
 4756SOL    HW115020   3.054   4.505   6.278
 4756SOL    HW215021   2.937   4.453   6.379
 4757SOL     OW15022   3.617   4.331   5.817
 4757SOL    HW115023   3.605   4.318   5.718
 4757SOL    HW215024   3.587   4.250   5.866
 4758SOL     OW15025   2.630   4.868   6.609
 4758SOL    HW115026   2.552   4.885   6.669
 4758SOL    HW215027   2.664   4.955   6.573
 4759SOL     OW15028   2.712   4.522   7.409
 4759SOL    HW115029   2.708   4.598   7.474
 4759SOL    HW215030   2.734   4.558   7.318
 4760SOL     OW15031   2.547   4.736   6.251
 4760SOL    HW115032   2.616   4.720   6.321
 4760SOL    HW215033   2.474   4.793   6.289
 4761SOL     OW15034   2.548   4.885   7.389
 4761SOL    HW115035   2.608   4.964   7.403
 4761SOL    HW215036   2.462   4.916   7.348
 4762SOL     OW15037   2.197   5.159   6.647
 4762SOL    HW115038   2.119   5.128   6.594
 4762SOL    HW215039   2.255   5.217   6.590
 4763SOL     OW15040   3.322   5.229   6.925
 4763SOL    HW115041   3.346   5.323   6.951
 4763SOL    HW215042   3.306   5.175   7.007
 4764SOL     OW15043   2.300   4.116   7.085
 4764SOL    HW115044   2.382   4.060   7.094
 4764SOL    HW215045   2.219   4.058   7.089
 4765SOL     OW15046   3.465   4.171   6.323
 4765SOL    HW115047   3.391   4.217   6.273
 4765SOL    HW215048   3.516   4.239   6.376
 4766SOL     OW15049   2.989   5.065   7.276
 4766SOL    HW115050   3.036   5.065   7.364
 4766SOL    HW215051   2.941   4.978   7.265
 4767SOL     OW15052   2.092   5.158   6.124
 4767SOL    HW115053   2.066   5.254   6.124
 4767SOL    HW215054   2.021   5.104   6.169
 4768SOL     OW15055   2.102   4.815   6.472
 4768SOL    HW115056   2.116   4.731   6.524
 4768SOL    HW215057   2.047   4.879   6.527
 4769SOL     OW15058   2.468   4.688   5.709
 4769SOL    HW115059   2.475   4.772   5.655
 4769SOL    HW215060   2.514   4.701   5.797
 4770SOL     OW15061   3.456   3.838   7.066
 4770SOL    HW115062   3.438   3.905   6.994
 4770SOL    HW215063   3.453   3.884   7.155
 4771SOL     OW15064   1.984   4.367   6.149
 4771SOL    HW115065   1.939   4.279   6.166
 4771SOL    HW215066   1.983   4.421   6.233
 4772SOL     OW15067   1.889   5.320   5.703
 4772SOL    HW115068   1.870   5.224   5.724
 4772SOL    HW215069   1.856   5.378   5.778
 4773SOL     OW15070   3.551   4.646   6.198
 4773SOL    HW115071   3.646   4.617   6.206
 4773SOL    HW215072   3.543   4.711   6.123
 4774SOL     OW15073   3.503   4.832   6.018
 4774SOL    HW115074   3.589   4.834   5.966
 4774SOL    HW215075   3.517   4.879   6.106
 4775SOL     OW15076   1.975   4.461   7.183
 4775SOL    HW115077   2.063   4.448   7.228
 4775SOL    HW215078   1.962   4.558   7.161
 4776SOL     OW15079   2.475   5.089   6.312
 4776SOL    HW115080   2.426   5.002   6.321
 4776SOL    HW215081   2.452   5.132   6.225
 4777SOL     OW15082   3.155   4.952   7.009
 4777SOL    HW115083   3.192   4.879   6.951
 4777SOL    HW215084   3.207   4.957   7.094
 4778SOL     OW15085   2.671   3.728   6.088
 4778SOL    HW115086   2.711   3.819   6.079
 4778SOL    HW215087   2.571   3.736   6.094
 4779SOL     OW15088   2.059   4.700   6.850
 4779SOL    HW115089   2.148   4.655   6.836
 4779SOL    HW215090   1.986   4.635   6.831
 4780SOL     OW15091   3.387   4.723   5.776
 4780SOL    HW115092   3.324   4.647   5.789
 4780SOL    HW215093   3.435   4.741   5.862
 4781SOL     OW15094   2.179   3.975   7.387
 4781SOL    HW115095   2.250   4.046   7.393
 4781SOL    HW215096   2.091   4.014   7.415
 4782SOL     OW15097   3.328   5.141   6.539
 4782SOL    HW115098   3.269   5.147   6.619
 4782SOL    HW215099   3.313   5.053   6.493
 4783SOL     OW15100   2.460   4.453   5.856
 4783SOL    HW115101   2.484   4.522   5.788
 4783SOL    HW215102   2.382   4.486   5.910
 4784SOL     OW15103   3.143   4.069   6.530
 4784SOL    HW115104   3.057   4.019   6.517
 4784SOL    HW215105   3.205   4.015   6.586
 4785SOL     OW15106   2.669   4.329   7.051
 4785SOL    HW115107   2.622   4.326   7.140
 4785SOL    HW215108   2.618   4.274   6.985
 4786SOL     OW15109   3.256   4.193   7.260
 4786SOL    HW115110   3.236   4.236   7.348
 4786SOL    HW215111   3.334   4.131   7.269
 4787SOL     OW15112   2.835   4.614   7.158
 4787SOL    HW115113   2.881   4.530   7.129
 4787SOL    HW215114   2.779   4.648   7.083
 4788SOL     OW15115   2.853   4.134   6.828
 4788SOL    HW115116   2.776   4.168   6.882
 4788SOL    HW215117   2.819   4.083   6.749
 4789SOL     OW15118   2.903   4.425   6.015
 4789SOL    HW115119   2.929   4.421   6.111
 4789SOL    HW215120   2.818   4.374   6.001
 4790SOL     OW15121   1.938   4.535   6.375
 4790SOL    HW115122   2.037   4.523   6.384
 4790SOL    HW215123   1.914   4.630   6.396
 4791SOL     OW15124   2.727   4.072   5.781
 4791SOL    HW115125   2.786   4.135   5.732
 4791SOL    HW215126   2.746   3.978   5.752
 4792SOL     OW15127   3.581   4.309   7.417
 4792SOL    HW115128   3.555   4.398   7.381
 4792SOL    HW215129   3.579   4.241   7.344
 4793SOL     OW15130   3.224   4.868   6.131
 4793SOL    HW115131   3.307   4.839   6.083
 4793SOL    HW215132   3.175   4.935   6.075
 4794SOL     OW15133   2.412   3.920   6.471
 4794SOL    HW115134   2.407   3.915   6.571
 4794SOL    HW215135   2.414   4.016   6.442
 4795SOL     OW15136   2.870   5.180   6.063
 4795SOL    HW115137   2.824   5.252   6.011
 4795SOL    HW215138   2.866   5.200   6.161
 4796SOL     OW15139   3.657   4.790   6.459
 4796SOL    HW115140   3.595   4.775   6.383
 4796SOL    HW215141   3.605   4.801   6.544
 4797SOL     OW15142   3.089   5.274   7.092
 4797SOL    HW115143   3.095   5.197   7.156
 4797SOL    HW215144   3.037   5.248   7.012
 4798SOL     OW15145   2.183   4.667   5.828
 4798SOL    HW115146   2.265   4.706   5.786
 4798SOL    HW215147   2.156   4.585   5.779
 4799SOL     OW15148   3.320   4.459   6.314
 4799SOL    HW115149   3.315   4.394   6.389
 4799SOL    HW215150   3.400   4.518   6.327
 4800SOL     OW15151   2.323   4.990   7.313
 4800SOL    HW115152   2.273   4.991   7.227
 4800SOL    HW215153   2.260   4.972   7.389
 4801SOL     OW15154   2.973   5.500   5.823
 4801SOL    HW115155   2.913   5.438   5.873
 4801SOL    HW215156   3.004   5.456   5.738
 4802SOL     OW15157   2.064   4.009   7.084
 4802SOL    HW115158   1.984   4.069   7.071
 4802SOL    HW215159   2.054   3.960   7.170
 4803SOL     OW15160   3.494   5.101   5.667
 4803SOL    HW115161   3.462   5.195   5.657
 4803SOL    HW215162   3.418   5.038   5.655
 4804SOL     OW15163   3.262   3.831   6.012
 4804SOL    HW115164   3.238   3.794   5.922
 4804SOL    HW215165   3.361   3.847   6.016
 4805SOL     OW15166   2.244   4.424   6.066
 4805SOL    HW115167   2.289   4.334   6.063
 4805SOL    HW215168   2.150   4.413   6.099
 4806SOL     OW15169   3.409   3.946   7.315
 4806SOL    HW115170   3.404   3.983   7.407
 4806SOL    HW215171   3.337   3.877   7.303
 4807SOL     OW15172   2.476   3.846   5.703
 4807SOL    HW115173   2.574   3.824   5.710
 4807SOL    HW215174   2.445   3.829   5.610
 4808SOL     OW15175   2.643   3.988   7.335
 4808SOL    HW115176   2.710   3.927   7.378
 4808SOL    HW215177   2.570   4.007   7.400
 4809SOL     OW15178   3.213   4.314   7.019
 4809SOL    HW115179   3.241   4.271   7.104
 4809SOL    HW215180   3.238   4.410   7.020
 4810SOL     OW15181   2.665   5.126   6.510
 4810SOL    HW115182   2.755   5.140   6.468
 4810SOL    HW215183   2.594   5.128   6.439
 4811SOL     OW15184   2.784   4.227   6.485
 4811SOL    HW115185   2.759   4.218   6.389
 4811SOL    HW215186   2.832   4.145   6.516
 4812SOL     OW15187   2.401   3.788   6.098
 4812SOL    HW115188   2.320   3.789   6.156
 4812SOL    HW215189   2.404   3.871   6.043
 4813SOL     OW15190   3.296   4.912   5.627
 4813SOL    HW115191   3.328   4.836   5.684
 4813SOL    HW215192   3.204   4.939   5.657
 4814SOL     OW15193   2.159   3.759   5.757
 4814SOL    HW115194   2.208   3.843   5.736
 4814SOL    HW215195   2.221   3.694   5.802
 4815SOL     OW15196   2.797   3.960   6.066
 4815SOL    HW115197   2.749   4.001   5.988
 4815SOL    HW215198   2.896   3.958   6.047
 4816SOL     OW15199   2.938   4.407   7.050
 4816SOL    HW115200   2.858   4.346   7.053
 4816SOL    HW215201   3.019   4.354   7.026
 4817SOL     OW15202   3.089   5.294   6.379
 4817SOL    HW115203   3.110   5.368   6.314
 4817SOL    HW215204   3.157   5.294   6.452
 4818SOL     OW15205   2.321   4.876   6.327
 4818SOL    HW115206   2.250   4.849   6.392
 4818SOL    HW215207   2.295   4.848   6.234
 4819SOL     OW15208   2.894   4.273   5.602
 4819SOL    HW115209   2.853   4.355   5.563
 4819SOL    HW215210   2.958   4.299   5.675
 4820SOL     OW15211   1.940   4.280   6.972
 4820SOL    HW115212   2.032   4.279   6.931
 4820SOL    HW215213   1.934   4.354   7.039
 4821SOL     OW15214   2.423   3.946   6.733
 4821SOL    HW115215   2.461   3.862   6.770
 4821SOL    HW215216   2.335   3.965   6.777
 4822SOL     OW15217   2.728   4.178   6.228
 4822SOL    HW115218   2.696   4.250   6.166
 4822SOL    HW215219   2.752   4.097   6.175
 4823SOL     OW15220   2.879   3.763   6.339
 4823SOL    HW115221   2.807   3.768   6.270
 4823SOL    HW215222   2.855   3.694   6.408
 4824SOL     OW15223   3.291   4.897   6.453
 4824SOL    HW115224   3.236   4.813   6.446
 4824SOL    HW215225   3.317   4.926   6.361
 4825SOL     OW15226   3.328   4.314   6.578
 4825SOL    HW115227   3.298   4.219   6.585
 4825SOL    HW215228   3.401   4.330   6.644
 4826SOL     OW15229   3.719   4.557   5.963
 4826SOL    HW115230   3.761   4.493   6.027
 4826SOL    HW215231   3.681   4.506   5.885
 4827SOL     OW15232   2.350   5.109   5.760
 4827SOL    HW115233   2.263   5.094   5.807
 4827SOL    HW215234   2.333   5.135   5.665
 4828SOL     OW15235   3.526   5.004   6.243
 4828SOL    HW115236   3.625   5.012   6.257
 4828SOL    HW215237   3.481   5.088   6.274
 4829SOL     OW15238   3.252   4.299   5.664
 4829SOL    HW115239   3.198   4.278   5.745
 4829SOL    HW215240   3.343   4.258   5.673
 4830SOL     OW15241   2.389   3.980   5.914
 4830SOL    HW115242   2.416   3.921   5.839
 4830SOL    HW215243   2.389   4.075   5.883
 4831SOL     OW15244   3.616   4.947   7.174
 4831SOL    HW115245   3.707   4.908   7.161
 4831SOL    HW215246   3.624   5.043   7.198
 4832SOL     OW15247   2.926   5.071   6.926
 4832SOL    HW115248   2.846   5.048   6.981
 4832SOL    HW215249   3.009   5.045   6.975
 4833SOL     OW15250   2.973   4.919   6.686
 4833SOL    HW115251   2.933   4.963   6.767
 4833SOL    HW215252   2.932   4.956   6.603
 4834SOL     OW15253   3.500   4.823   6.665
 4834SOL    HW115254   3.505   4.904   6.724
 4834SOL    HW215255   3.414   4.825   6.614
 4835SOL     OW15256   2.777   3.813   6.988
 4835SOL    HW115257   2.802   3.793   6.893
 4835SOL    HW215258   2.849   3.869   7.030
 4836SOL     OW15259   2.842   4.840   7.305
 4836SOL    HW115260   2.743   4.846   7.315
 4836SOL    HW215261   2.865   4.760   7.249
 4837SOL     OW15262   2.567   4.774   5.954
 4837SOL    HW115263   2.553   4.781   6.053
 4837SOL    HW215264   2.651   4.723   5.936
 4838SOL     OW15265   2.272   4.537   6.837
 4838SOL    HW115266   2.358   4.549   6.887
 4838SOL    HW215267   2.230   4.450   6.864
 4839SOL     OW15268   3.136   4.110   6.848
 4839SOL    HW115269   3.157   4.184   6.912
 4839SOL    HW215270   3.047   4.127   6.805
 4840SOL     OW15271   2.229   4.824   6.087
 4840SOL    HW115272   2.222   4.907   6.031
 4840SOL    HW215273   2.233   4.744   6.027
 4841SOL     OW15274   2.428   4.261   6.451
 4841SOL    HW115275   2.440   4.327   6.377
 4841SOL    HW215276   2.474   4.295   6.534
 4842SOL     OW15277   3.114   5.072   5.974
 4842SOL    HW115278   3.164   5.149   6.014
 4842SOL    HW215279   3.019   5.074   6.006
 4843SOL     OW15280   3.134   5.169   6.728
 4843SOL    HW115281   3.181   5.182   6.815
 4843SOL    HW215282   3.068   5.095   6.737
 4844SOL     OW15283   3.444   4.363   6.058
 4844SOL    HW115284   3.413   4.424   6.131
 4844SOL    HW215285   3.494   4.415   5.989
 4845SOL     OW15286   2.216   5.234   6.915
 4845SOL    HW115287   2.195   5.190   6.828
 4845SOL    HW215288   2.313   5.260   6.918
 4846SOL     OW15289   2.264   4.475   7.184
 4846SOL    HW115290   2.332   4.530   7.137
 4846SOL    HW215291   2.304   4.387   7.211
 4847SOL     OW15292   3.449   4.503   7.256
 4847SOL    HW115293   3.357   4.541   7.251
 4847SOL    HW215294   3.509   4.550   7.191
 4848SOL     OW15295   2.875   3.829   7.356
 4848SOL    HW115296   2.881   3.914   7.304
 4848SOL    HW215297   2.907   3.753   7.299
 4849SOL     OW15298   2.366   3.774   7.326
 4849SOL    HW115299   2.324   3.717   7.256
 4849SOL    HW215300   2.300   3.843   7.358
 4850SOL     OW15301   2.435   4.594   6.615
 4850SOL    HW115302   2.479   4.683   6.606
 4850SOL    HW215303   2.372   4.594   6.692
 4851SOL     OW15304   3.222   4.586   6.631
 4851SOL    HW115305   3.147   4.586   6.565
 4851SOL    HW215306   3.259   4.494   6.640
 4852SOL     OW15307   3.071   4.249   5.861
 4852SOL    HW115308   3.084   4.165   5.915
 4852SOL    HW215309   3.042   4.323   5.921
 4853SOL     OW15310   2.169   3.937   6.817
 4853SOL    HW115311   2.146   3.974   6.907
 4853SOL    HW215312   2.139   3.842   6.811
 4854SOL     OW15313   1.899   5.034   6.868
 4854SOL    HW115314   1.952   4.985   6.936
 4854SOL    HW215315   1.921   5.132   6.873
 4855SOL     OW15316   2.594   4.358   6.650
 4855SOL    HW115317   2.653   4.332   6.574
 4855SOL    HW215318   2.566   4.454   6.639
 4856SOL     OW15319   3.590   4.659   7.440
 4856SOL    HW115320   3.544   4.652   7.351
 4856SOL    HW215321   3.528   4.703   7.506
 4857SOL     OW15322   2.169   3.787   6.204
 4857SOL    HW115323   2.158   3.881   6.237
 4857SOL    HW215324   2.164   3.724   6.281
 4858SOL     OW15325   3.484   4.091   5.960
 4858SOL    HW115326   3.486   4.015   6.024
 4858SOL    HW215327   3.436   4.168   6.000
 4859SOL     OW15328   2.885   4.490   6.552
 4859SOL    HW115329   2.900   4.511   6.648
 4859SOL    HW215330   2.855   4.395   6.543
 4860SOL     OW15331   3.721   5.242   7.191
 4860SOL    HW115332   3.735   5.269   7.096
 4860SOL    HW215333   3.804   5.264   7.244
 4861SOL     OW15334   2.212   4.622   7.390
 4861SOL    HW115335   2.288   4.666   7.438
 4861SOL    HW215336   2.247   4.575   7.308
 4862SOL     OW15337   3.402   3.998   5.711
 4862SOL    HW115338   3.341   3.923   5.734
 4862SOL    HW215339   3.424   4.050   5.794
 4863SOL     OW15340   3.165   4.562   5.628
 4863SOL    HW115341   3.199   4.469   5.643
 4863SOL    HW215342   3.183   4.589   5.533
 4864SOL     OW15343   2.930   5.057   6.435
 4864SOL    HW115344   2.937   4.973   6.380
 4864SOL    HW215345   2.992   5.126   6.399
 4865SOL     OW15346   2.181   4.534   6.535
 4865SOL    HW115347   2.274   4.570   6.540
 4865SOL    HW215348   2.175   4.449   6.587
 4866SOL     OW15349   2.201   4.233   6.592
 4866SOL    HW115350   2.149   4.150   6.575
 4866SOL    HW215351   2.278   4.238   6.528
 4867SOL     OW15352   3.000   4.104   7.264
 4867SOL    HW115353   2.955   4.167   7.328
 4867SOL    HW215354   3.093   4.135   7.247
 4868SOL     OW15355   3.022   3.931   7.063
 4868SOL    HW115356   3.022   3.995   7.140
 4868SOL    HW215357   3.050   3.979   6.980
 4869SOL     OW15358   1.870   5.050   5.786
 4869SOL    HW115359   1.777   5.071   5.755
 4869SOL    HW215360   1.880   4.951   5.799
 4870SOL     OW15361   2.864   4.520   6.824
 4870SOL    HW115362   2.905   4.488   6.910
 4870SOL    HW215363   2.768   4.493   6.821
 4871SOL     OW15364   1.902   4.268   6.700
 4871SOL    HW115365   1.987   4.235   6.659
 4871SOL    HW215366   1.915   4.283   6.798
 4872SOL     OW15367   2.051   4.244   7.308
 4872SOL    HW115368   2.110   4.204   7.238
 4872SOL    HW215369   1.993   4.315   7.267
 4873SOL     OW15370   3.231   4.674   7.246
 4873SOL    HW115371   3.270   4.763   7.266
 4873SOL    HW215372   3.241   4.654   7.149
 4874SOL     OW15373   2.677   4.296   5.911
 4874SOL    HW115374   2.684   4.207   5.865
 4874SOL    HW215375   2.583   4.330   5.903
 4875SOL     OW15376   3.519   4.328   6.792
 4875SOL    HW115377   3.481   4.259   6.854
 4875SOL    HW215378   3.601   4.292   6.748
 4876SOL     OW15379   2.114   5.288   7.330
 4876SOL    HW115380   2.084   5.345   7.406
 4876SOL    HW215381   2.107   5.191   7.356
 4877SOL     OW15382   2.533   4.188   6.855
 4877SOL    HW115383   2.499   4.099   6.825
 4877SOL    HW215384   2.559   4.242   6.775
 4878SOL     OW15385   2.335   4.224   5.777
 4878SOL    HW115386   2.396   4.304   5.781
 4878SOL    HW215387   2.240   4.255   5.784
 4879SOL     OW15388   2.021   4.861   7.052
 4879SOL    HW115389   2.043   4.800   7.128
 4879SOL    HW215390   2.031   4.812   6.966
 4880SOL     OW15391   3.209   4.783   6.820
 4880SOL    HW115392   3.233   4.720   6.746
 4880SOL    HW215393   3.119   4.823   6.802
 4881SOL     OW15394   3.164   4.579   5.895
 4881SOL    HW115395   3.078   4.548   5.937
 4881SOL    HW215396   3.160   4.565   5.796
 4882SOL     OW15397   1.945   4.982   6.608
 4882SOL    HW115398   1.940   4.981   6.708
 4882SOL    HW215399   1.862   4.941   6.570
 4883SOL     OW15400   2.550   5.386   7.302
 4883SOL    HW115401   2.494   5.467   7.311
 4883SOL    HW215402   2.602   5.390   7.216
 4884SOL     OW15403   3.588   3.859   6.109
 4884SOL    HW115404   3.661   3.842   6.042
 4884SOL    HW215405   3.557   3.772   6.147
 4885SOL     OW15406   3.142   4.651   6.258
 4885SOL    HW115407   3.202   4.570   6.260
 4885SOL    HW215408   3.182   4.720   6.198
 4886SOL     OW15409   2.692   4.997   7.008
 4886SOL    HW115410   2.687   5.030   7.103
 4886SOL    HW215411   2.606   5.016   6.962
 4887SOL     OW15412   3.703   3.899   6.549
 4887SOL    HW115413   3.742   3.814   6.513
 4887SOL    HW215414   3.605   3.901   6.530
 4888SOL     OW15415   2.125   4.050   6.306
 4888SOL    HW115416   2.046   4.101   6.272
 4888SOL    HW215417   2.116   4.035   6.404
 4889SOL     OW15418   2.684   4.726   6.958
 4889SOL    HW115419   2.724   4.725   6.866
 4889SOL    HW215420   2.694   4.818   6.998
 4890SOL     OW15421   2.778   4.634   5.877
 4890SOL    HW115422   2.841   4.672   5.809
 4890SOL    HW215423   2.818   4.551   5.916
 4891SOL     OW15424   2.234   5.012   7.076
 4891SOL    HW115425   2.221   5.105   7.042
 4891SOL    HW215426   2.150   4.960   7.063
 4892SOL     OW15427   3.476   5.016   6.875
 4892SOL    HW115428   3.536   5.019   6.955
 4892SOL    HW215429   3.401   5.080   6.888
 4893SOL     OW15430   2.901   4.822   6.282
 4893SOL    HW115431   2.831   4.775   6.336
 4893SOL    HW215432   2.960   4.754   6.239
 4894SOL     OW15433   2.876   3.960   6.557
 4894SOL    HW115434   2.868   3.924   6.464
 4894SOL    HW215435   2.874   3.884   6.622
 4895SOL     OW15436   3.571   4.109   6.967
 4895SOL    HW115437   3.644   4.178   6.971
 4895SOL    HW215438   3.599   4.034   6.908
 4896SOL     OW15439   2.117   5.072   5.876
 4896SOL    HW115440   2.021   5.073   5.849
 4896SOL    HW215441   2.129   5.125   5.960
 4897SOL     OW15442   1.967   4.737   7.312
 4897SOL    HW115443   1.890   4.704   7.366
 4897SOL    HW215444   2.052   4.707   7.354
 4898SOL     OW15445   2.534   3.927   7.075
 4898SOL    HW115446   2.624   3.911   7.035
 4898SOL    HW215447   2.542   3.932   7.174
 4899SOL     OW15448   1.937   4.069   5.619
 4899SOL    HW115449   1.845   4.041   5.590
 4899SOL    HW215450   1.968   4.146   5.563
 4900SOL     OW15451   3.302   4.580   6.984
 4900SOL    HW115452   3.245   4.632   6.921
 4900SOL    HW215453   3.398   4.592   6.960
 4901SOL     OW15454   1.934   3.890   5.904
 4901SOL    HW115455   1.917   3.973   5.850
 4901SOL    HW215456   2.024   3.853   5.882
 4902SOL     OW15457   3.045   5.059   5.705
 4902SOL    HW115458   2.946   5.048   5.707
 4902SOL    HW215459   3.079   5.074   5.798
 4903SOL     OW15460   2.475   4.566   7.017
 4903SOL    HW115461   2.531   4.647   7.000
 4903SOL    HW215462   2.534   4.486   7.020
 4904SOL     OW15463   2.578   4.289   7.294
 4904SOL    HW115464   2.597   4.354   7.368
 4904SOL    HW215465   2.638   4.209   7.303
 4905SOL     OW15466   3.312   4.944   7.219
 4905SOL    HW115467   3.303   4.934   7.318
 4905SOL    HW215468   3.408   4.937   7.193
 4906SOL     OW15469   3.536   4.607   6.840
 4906SOL    HW115470   3.509   4.518   6.803
 4906SOL    HW215471   3.537   4.675   6.767
 4907SOL     OW15472   3.087   4.049   6.035
 4907SOL    HW115473   3.152   3.975   6.024
 4907SOL    HW215474   3.107   4.099   6.119
 4908SOL     OW15475   2.456   4.469   6.238
 4908SOL    HW115476   2.506   4.554   6.219
 4908SOL    HW215477   2.368   4.471   6.190
 4909SOL     OW15478   3.639   4.066   7.228
 4909SOL    HW115479   3.622   4.097   7.134
 4909SOL    HW215480   3.555   4.029   7.266
 4910SOL     OW15481   3.592   4.658   7.103
 4910SOL    HW115482   3.630   4.749   7.118
 4910SOL    HW215483   3.584   4.641   7.004
 4911SOL     OW15484   2.721   5.098   5.602
 4911SOL    HW115485   2.675   5.113   5.690
 4911SOL    HW215486   2.765   5.183   5.572
 4912SOL     OW15487   2.721   4.680   6.447
 4912SOL    HW115488   2.775   4.611   6.495
 4912SOL    HW215489   2.689   4.749   6.513
 4913SOL     OW15490   2.945   4.708   5.673
 4913SOL    HW115491   2.922   4.761   5.591
 4913SOL    HW215492   3.026   4.652   5.654
 4914SOL     OW15493   2.083   5.038   7.430
 4914SOL    HW115494   2.018   4.965   7.409
 4914SOL    HW215495   2.087   5.052   7.528
 4915SOL     OW15496   1.941   4.964   6.239
 4915SOL    HW115497   1.940   4.917   6.327
 4915SOL    HW215498   2.023   4.936   6.188
 4916SOL     OW15499   2.534   5.115   7.210
 4916SOL    HW115500   2.456   5.065   7.248
 4916SOL    HW215501   2.531   5.210   7.241
 4917SOL     OW15502   3.686   3.916   6.813
 4917SOL    HW115503   3.682   3.826   6.857
 4917SOL    HW215504   3.689   3.905   6.714
 4918SOL     OW15505   2.290   4.148   6.106
 4918SOL    HW115506   2.320   4.076   6.044
 4918SOL    HW215507   2.251   4.108   6.189
 4919SOL     OW15508   3.567   5.211   6.690
 4919SOL    HW115509   3.474   5.186   6.663
 4919SOL    HW215510   3.593   5.161   6.772
 4920SOL     OW15511   2.179   4.271   6.866
 4920SOL    HW115512   2.217   4.212   6.938
 4920SOL    HW215513   2.219   4.245   6.778
 4921SOL     OW15514   3.286   3.938   6.698
 4921SOL    HW115515   3.338   3.873   6.753
 4921SOL    HW215516   3.237   4.001   6.759
 4922SOL     OW15517   2.863   3.758   6.740
 4922SOL    HW115518   2.800   3.686   6.709
 4922SOL    HW215519   2.956   3.722   6.740
 4923SOL     OW15520   2.632   5.054   5.887
 4923SOL    HW115521   2.586   4.967   5.904
 4923SOL    HW215522   2.723   5.051   5.928
 4924SOL     OW15523   2.480   5.291   6.870
 4924SOL    HW115524   2.475   5.373   6.927
 4924SOL    HW215525   2.569   5.288   6.825
 4925SOL     OW15526   3.214   3.776   5.754
 4925SOL    HW115527   3.249   3.735   5.670
 4925SOL    HW215528   3.124   3.738   5.774
 4926SOL     OW15529   3.162   4.177   6.277
 4926SOL    HW115530   3.103   4.257   6.281
 4926SOL    HW215531   3.177   4.142   6.370
 4927SOL     OW15532   3.455   3.945   6.468
 4927SOL    HW115533   3.371   3.944   6.522
 4927SOL    HW215534   3.457   4.028   6.412
 4928SOL     OW15535   1.901   4.801   5.886
 4928SOL    HW115536   2.000   4.790   5.877
 4928SOL    HW215537   1.861   4.715   5.918
 4929SOL     OW15538   2.092   4.352   7.561
 4929SOL    HW115539   1.999   4.350   7.598
 4929SOL    HW215540   2.093   4.313   7.469
 4930SOL     OW15541   3.617   4.331   7.679
 4930SOL    HW115542   3.605   4.318   7.580
 4930SOL    HW215543   3.587   4.250   7.728
 4931SOL     OW15544   2.093   5.437   7.931
 4931SOL    HW115545   2.127   5.514   7.985
 4931SOL    HW215546   2.137   5.437   7.841
 4932SOL     OW15547   2.092   5.158   7.986
 4932SOL    HW115548   2.066   5.254   7.986
 4932SOL    HW215549   2.021   5.104   8.031
 4933SOL     OW15550   2.468   4.688   7.571
 4933SOL    HW115551   2.475   4.772   7.517
 4933SOL    HW215552   2.514   4.701   7.659
 4934SOL     OW15553   1.889   5.320   7.565
 4934SOL    HW115554   1.870   5.224   7.586
 4934SOL    HW215555   1.856   5.378   7.640
 4935SOL     OW15556   3.551   4.646   8.060
 4935SOL    HW115557   3.646   4.617   8.068
 4935SOL    HW215558   3.543   4.711   7.985
 4936SOL     OW15559   3.503   4.832   7.880
 4936SOL    HW115560   3.589   4.834   7.828
 4936SOL    HW215561   3.517   4.879   7.968
 4937SOL     OW15562   2.671   3.728   7.950
 4937SOL    HW115563   2.711   3.819   7.941
 4937SOL    HW215564   2.571   3.736   7.956
 4938SOL     OW15565   3.387   4.723   7.638
 4938SOL    HW115566   3.324   4.647   7.651
 4938SOL    HW215567   3.435   4.741   7.724
 4939SOL     OW15568   2.460   4.453   7.718
 4939SOL    HW115569   2.484   4.522   7.650
 4939SOL    HW215570   2.382   4.486   7.772
 4940SOL     OW15571   1.938   4.535   8.237
 4940SOL    HW115572   2.037   4.523   8.246
 4940SOL    HW215573   1.914   4.630   8.258
 4941SOL     OW15574   2.727   4.072   7.643
 4941SOL    HW115575   2.786   4.135   7.594
 4941SOL    HW215576   2.746   3.978   7.614
 4942SOL     OW15577   2.183   4.667   7.690
 4942SOL    HW115578   2.265   4.706   7.648
 4942SOL    HW215579   2.156   4.585   7.641
 4943SOL     OW15580   2.973   5.500   7.685
 4943SOL    HW115581   2.913   5.438   7.735
 4943SOL    HW215582   3.004   5.456   7.600
 4944SOL     OW15583   3.494   5.101   7.529
 4944SOL    HW115584   3.462   5.195   7.519
 4944SOL    HW215585   3.418   5.038   7.517
 4945SOL     OW15586   3.262   3.831   7.874
 4945SOL    HW115587   3.238   3.794   7.784
 4945SOL    HW215588   3.361   3.847   7.878
 4946SOL     OW15589   2.244   4.424   7.928
 4946SOL    HW115590   2.289   4.334   7.925
 4946SOL    HW215591   2.150   4.413   7.961
 4947SOL     OW15592   2.476   3.846   7.565
 4947SOL    HW115593   2.574   3.824   7.572
 4947SOL    HW215594   2.445   3.829   7.472
 4948SOL     OW15595   2.401   3.788   7.960
 4948SOL    HW115596   2.320   3.789   8.018
 4948SOL    HW215597   2.404   3.871   7.905
 4949SOL     OW15598   3.296   4.912   7.489
 4949SOL    HW115599   3.328   4.836   7.546
 4949SOL    HW215600   3.204   4.939   7.519
 4950SOL     OW15601   2.159   3.759   7.619
 4950SOL    HW115602   2.208   3.843   7.598
 4950SOL    HW215603   2.221   3.694   7.664
 4951SOL     OW15604   2.797   3.960   7.928
 4951SOL    HW115605   2.749   4.001   7.850
 4951SOL    HW215606   2.896   3.958   7.909
 4952SOL     OW15607   2.321   4.876   8.189
 4952SOL    HW115608   2.250   4.849   8.254
 4952SOL    HW215609   2.295   4.848   8.096
 4953SOL     OW15610   2.894   4.273   7.464
 4953SOL    HW115611   2.853   4.355   7.425
 4953SOL    HW215612   2.958   4.299   7.537
 4954SOL     OW15613   3.719   4.557   7.825
 4954SOL    HW115614   3.761   4.493   7.889
 4954SOL    HW215615   3.681   4.506   7.747
 4955SOL     OW15616   2.350   5.109   7.622
 4955SOL    HW115617   2.263   5.094   7.669
 4955SOL    HW215618   2.333   5.135   7.527
 4956SOL     OW15619   3.252   4.299   7.526
 4956SOL    HW115620   3.198   4.278   7.607
 4956SOL    HW215621   3.343   4.258   7.535
 4957SOL     OW15622   2.389   3.980   7.776
 4957SOL    HW115623   2.416   3.921   7.701
 4957SOL    HW215624   2.389   4.075   7.745
 4958SOL     OW15625   2.567   4.774   7.816
 4958SOL    HW115626   2.553   4.781   7.915
 4958SOL    HW215627   2.651   4.723   7.798
 4959SOL     OW15628   2.229   4.824   7.949
 4959SOL    HW115629   2.222   4.907   7.893
 4959SOL    HW215630   2.233   4.744   7.889
 4960SOL     OW15631   3.114   5.072   7.836
 4960SOL    HW115632   3.164   5.149   7.876
 4960SOL    HW215633   3.019   5.074   7.868
 4961SOL     OW15634   3.444   4.363   7.920
 4961SOL    HW115635   3.413   4.424   7.993
 4961SOL    HW215636   3.494   4.415   7.851
 4962SOL     OW15637   3.071   4.249   7.723
 4962SOL    HW115638   3.084   4.165   7.777
 4962SOL    HW215639   3.042   4.323   7.783
 4963SOL     OW15640   3.484   4.091   7.822
 4963SOL    HW115641   3.486   4.015   7.886
 4963SOL    HW215642   3.436   4.168   7.862
 4964SOL     OW15643   3.402   3.998   7.573
 4964SOL    HW115644   3.341   3.923   7.596
 4964SOL    HW215645   3.424   4.050   7.656
 4965SOL     OW15646   3.165   4.562   7.490
 4965SOL    HW115647   3.199   4.469   7.505
 4965SOL    HW215648   3.183   4.589   7.395
 4966SOL     OW15649   1.870   5.050   7.648
 4966SOL    HW115650   1.777   5.071   7.617
 4966SOL    HW215651   1.880   4.951   7.661
 4967SOL     OW15652   2.677   4.296   7.773
 4967SOL    HW115653   2.684   4.207   7.727
 4967SOL    HW215654   2.583   4.330   7.765
 4968SOL     OW15655   2.335   4.224   7.639
 4968SOL    HW115656   2.396   4.304   7.643
 4968SOL    HW215657   2.240   4.255   7.646
 4969SOL     OW15658   3.164   4.579   7.757
 4969SOL    HW115659   3.078   4.548   7.799
 4969SOL    HW215660   3.160   4.565   7.658
 4970SOL     OW15661   3.588   3.859   7.971
 4970SOL    HW115662   3.661   3.842   7.904
 4970SOL    HW215663   3.557   3.772   8.009
 4971SOL     OW15664   2.778   4.634   7.739
 4971SOL    HW115665   2.841   4.672   7.671
 4971SOL    HW215666   2.818   4.551   7.778
 4972SOL     OW15667   2.117   5.072   7.738
 4972SOL    HW115668   2.021   5.073   7.711
 4972SOL    HW215669   2.129   5.125   7.822
 4973SOL     OW15670   1.937   4.069   7.481
 4973SOL    HW115671   1.845   4.041   7.452
 4973SOL    HW215672   1.968   4.146   7.425
 4974SOL     OW15673   1.934   3.890   7.766
 4974SOL    HW115674   1.917   3.973   7.712
 4974SOL    HW215675   2.024   3.853   7.744
 4975SOL     OW15676   3.045   5.059   7.567
 4975SOL    HW115677   2.946   5.048   7.569
 4975SOL    HW215678   3.079   5.074   7.660
 4976SOL     OW15679   3.087   4.049   7.897
 4976SOL    HW115680   3.152   3.975   7.886
 4976SOL    HW215681   3.107   4.099   7.981
 4977SOL     OW15682   2.456   4.469   8.100
 4977SOL    HW115683   2.506   4.554   8.081
 4977SOL    HW215684   2.368   4.471   8.052
 4978SOL     OW15685   2.721   5.098   7.464
 4978SOL    HW115686   2.675   5.113   7.552
 4978SOL    HW215687   2.765   5.183   7.434
 4979SOL     OW15688   2.945   4.708   7.535
 4979SOL    HW115689   2.922   4.761   7.453
 4979SOL    HW215690   3.026   4.652   7.516
 4980SOL     OW15691   2.290   4.148   7.968
 4980SOL    HW115692   2.320   4.076   7.906
 4980SOL    HW215693   2.251   4.108   8.051
 4981SOL     OW15694   2.632   5.054   7.749
 4981SOL    HW115695   2.586   4.967   7.766
 4981SOL    HW215696   2.723   5.051   7.790
 4982SOL     OW15697   3.214   3.776   7.616
 4982SOL    HW115698   3.249   3.735   7.532
 4982SOL    HW215699   3.124   3.738   7.636
 4983SOL     OW15700   1.901   4.801   7.748
 4983SOL    HW115701   2.000   4.790   7.739
 4983SOL    HW215702   1.861   4.715   7.780
 4984SOL     OW15703   3.954   0.628   0.113
 4984SOL    HW115704   3.861   0.626   0.150
 4984SOL    HW215705   3.955   0.589   0.021
 4985SOL     OW15706   3.949   0.275   0.996
 4985SOL    HW115707   3.984   0.258   1.088
 4985SOL    HW215708   3.861   0.230   0.984
 4986SOL     OW15709   3.743   0.368   0.647
 4986SOL    HW115710   3.661   0.411   0.686
 4986SOL    HW215711   3.715   0.295   0.584
 4987SOL     OW15712   4.293   1.275   1.165
 4987SOL    HW115713   4.200   1.268   1.128
 4987SOL    HW215714   4.304   1.364   1.209
 4988SOL     OW15715   5.279   1.511   0.703
 4988SOL    HW115716   5.222   1.495   0.784
 4988SOL    HW215717   5.220   1.521   0.623
 4989SOL     OW15718   4.859   0.703   0.717
 4989SOL    HW115719   4.916   0.781   0.692
 4989SOL    HW215720   4.799   0.729   0.793
 4990SOL     OW15721   4.492   1.144   1.023
 4990SOL    HW115722   4.414   1.161   1.083
 4990SOL    HW215723   4.526   1.231   0.987
 4991SOL     OW15724   4.574   0.798   1.823
 4991SOL    HW115725   4.570   0.874   1.888
 4991SOL    HW215726   4.596   0.834   1.732
 4992SOL     OW15727   4.409   1.012   0.665
 4992SOL    HW115728   4.478   0.996   0.735
 4992SOL    HW215729   4.336   1.069   0.703
 4993SOL     OW15730   4.410   1.161   1.803
 4993SOL    HW115731   4.470   1.240   1.817
 4993SOL    HW215732   4.324   1.192   1.762
 4994SOL     OW15733   4.059   1.435   1.061
 4994SOL    HW115734   3.981   1.404   1.008
 4994SOL    HW215735   4.117   1.493   1.004
 4995SOL     OW15736   5.184   1.505   1.339
 4995SOL    HW115737   5.208   1.599   1.365
 4995SOL    HW215738   5.168   1.451   1.421
 4996SOL     OW15739   4.162   0.392   1.499
 4996SOL    HW115740   4.244   0.336   1.508
 4996SOL    HW215741   4.081   0.334   1.503
 4997SOL     OW15742   3.955   1.713   0.483
 4997SOL    HW115743   3.989   1.790   0.537
 4997SOL    HW215744   3.999   1.713   0.393
 4998SOL     OW15745   4.851   1.341   1.690
 4998SOL    HW115746   4.898   1.341   1.778
 4998SOL    HW215747   4.803   1.254   1.679
 4999SOL     OW15748   3.954   1.434   0.538
 4999SOL    HW115749   3.928   1.530   0.538
 4999SOL    HW215750   3.883   1.380   0.583
 5000SOL     OW15751   3.964   1.091   0.886
 5000SOL    HW115752   3.978   1.007   0.938
 5000SOL    HW215753   3.909   1.155   0.941
 5001SOL     OW15754   4.344   1.786   1.439
 5001SOL    HW115755   4.252   1.769   1.474
 5001SOL    HW215756   4.372   1.878   1.465
 5002SOL     OW15757   4.330   0.964   0.123
 5002SOL    HW115758   4.337   1.048   0.069
 5002SOL    HW215759   4.376   0.977   0.211
 5003SOL     OW15760   5.318   0.114   1.480
 5003SOL    HW115761   5.300   0.181   1.408
 5003SOL    HW215762   5.315   0.160   1.569
 5004SOL     OW15763   3.846   0.643   0.563
 5004SOL    HW115764   3.801   0.555   0.580
 5004SOL    HW215765   3.845   0.697   0.647
 5005SOL     OW15766   3.751   1.596   0.117
 5005SOL    HW115767   3.732   1.500   0.138
 5005SOL    HW215768   3.718   1.654   0.192
 5006SOL     OW15769   5.413   0.922   0.612
 5006SOL    HW115770   5.508   0.893   0.620
 5006SOL    HW215771   5.405   0.987   0.537
 5007SOL     OW15772   3.837   0.737   1.597
 5007SOL    HW115773   3.925   0.724   1.642
 5007SOL    HW215774   3.824   0.834   1.575
 5008SOL     OW15775   4.337   1.365   0.726
 5008SOL    HW115776   4.288   1.278   0.735
 5008SOL    HW215777   4.314   1.408   0.639
 5009SOL     OW15778   5.017   1.228   1.423
 5009SOL    HW115779   5.054   1.155   1.365
 5009SOL    HW215780   5.069   1.233   1.508
 5010SOL     OW15781   4.533   0.004   0.502
 5010SOL    HW115782   4.573   0.095   0.493
 5010SOL    HW215783   4.433   0.012   0.508
 5011SOL     OW15784   3.921   0.976   1.264
 5011SOL    HW115785   4.010   0.931   1.250
 5011SOL    HW215786   3.848   0.911   1.245
 5012SOL     OW15787   4.911   1.792   1.616
 5012SOL    HW115788   4.935   1.852   1.540
 5012SOL    HW215789   4.918   1.697   1.586
 5013SOL     OW15790   4.041   0.251   1.801
 5013SOL    HW115791   4.112   0.322   1.807
 5013SOL    HW215792   3.953   0.290   1.829
 5014SOL     OW15793   5.190   1.417   0.953
 5014SOL    HW115794   5.131   1.423   1.033
 5014SOL    HW215795   5.175   1.329   0.907
 5015SOL     OW15796   4.322   0.729   0.270
 5015SOL    HW115797   4.346   0.798   0.202
 5015SOL    HW215798   4.244   0.762   0.324
 5016SOL     OW15799   5.005   0.345   0.944
 5016SOL    HW115800   4.919   0.295   0.931
 5016SOL    HW215801   5.067   0.291   1.000
 5017SOL     OW15802   4.531   0.605   1.465
 5017SOL    HW115803   4.484   0.602   1.554
 5017SOL    HW215804   4.480   0.550   1.399
 5018SOL     OW15805   5.118   0.469   1.674
 5018SOL    HW115806   5.098   0.512   1.762
 5018SOL    HW215807   5.196   0.407   1.683
 5019SOL     OW15808   4.697   0.890   1.572
 5019SOL    HW115809   4.743   0.806   1.543
 5019SOL    HW215810   4.641   0.924   1.497
 5020SOL     OW15811   4.715   0.410   1.242
 5020SOL    HW115812   4.638   0.444   1.296
 5020SOL    HW215813   4.681   0.359   1.163
 5021SOL     OW15814   4.765   0.701   0.429
 5021SOL    HW115815   4.791   0.697   0.525
 5021SOL    HW215816   4.680   0.650   0.415
 5022SOL     OW15817   3.800   0.811   0.789
 5022SOL    HW115818   3.899   0.799   0.798
 5022SOL    HW215819   3.776   0.906   0.810
 5023SOL     OW15820   3.854   1.821   1.571
 5023SOL    HW115821   3.844   1.806   1.670
 5023SOL    HW215822   3.768   1.857   1.535
 5024SOL     OW15823   4.589   0.348   0.195
 5024SOL    HW115824   4.648   0.411   0.146
 5024SOL    HW215825   4.608   0.254   0.166
 5025SOL     OW15826   5.086   1.144   0.545
 5025SOL    HW115827   5.169   1.115   0.497
 5025SOL    HW215828   5.037   1.211   0.489
 5026SOL     OW15829   4.274   0.196   0.885
 5026SOL    HW115830   4.269   0.191   0.985
 5026SOL    HW215831   4.276   0.292   0.856
 5027SOL     OW15832   4.732   1.456   0.477
 5027SOL    HW115833   4.686   1.528   0.425
 5027SOL    HW215834   4.728   1.476   0.575
 5028SOL     OW15835   4.075   1.801   0.853
 5028SOL    HW115836   4.125   1.715   0.859
 5028SOL    HW215837   4.140   1.878   0.850
 5029SOL     OW15838   4.951   1.550   1.506
 5029SOL    HW115839   4.957   1.473   1.570
 5029SOL    HW215840   4.899   1.524   1.426
 5030SOL     OW15841   4.045   0.943   0.242
 5030SOL    HW115842   4.127   0.982   0.200
 5030SOL    HW215843   4.018   0.861   0.193
 5031SOL     OW15844   4.185   1.266   1.727
 5031SOL    HW115845   4.135   1.267   1.641
 5031SOL    HW215846   4.122   1.248   1.803
 5032SOL     OW15847   4.835   1.776   0.237
 5032SOL    HW115848   4.775   1.714   0.287
 5032SOL    HW215849   4.866   1.732   0.152
 5033SOL     OW15850   3.926   0.285   1.498
 5033SOL    HW115851   3.846   0.345   1.485
 5033SOL    HW215852   3.916   0.236   1.584
 5034SOL     OW15853   4.188   1.743   0.323
 5034SOL    HW115854   4.221   1.782   0.409
 5034SOL    HW215855   4.264   1.736   0.258
 5035SOL     OW15856   5.124   0.107   0.426
 5035SOL    HW115857   5.100   0.070   0.336
 5035SOL    HW215858   5.223   0.123   0.430
 5036SOL     OW15859   3.973   1.785   1.241
 5036SOL    HW115860   4.030   1.720   1.291
 5036SOL    HW215861   3.957   1.752   1.148
 5037SOL     OW15862   4.664   1.698   0.904
 5037SOL    HW115863   4.744   1.641   0.925
 5037SOL    HW215864   4.615   1.658   0.827
 5038SOL     OW15865   4.106   0.700   0.480
 5038SOL    HW115866   4.151   0.610   0.477
 5038SOL    HW215867   4.012   0.689   0.513
 5039SOL     OW15868   4.338   0.122   0.117
 5039SOL    HW115869   4.436   0.100   0.124
 5039SOL    HW215870   4.307   0.105   0.024
 5040SOL     OW15871   4.505   0.264   1.749
 5040SOL    HW115872   4.572   0.203   1.792
 5040SOL    HW215873   4.432   0.283   1.814
 5041SOL     OW15874   4.612   1.514   1.195
 5041SOL    HW115875   4.589   1.489   1.101
 5041SOL    HW215876   4.673   1.445   1.234
 5042SOL     OW15877   5.075   0.590   1.433
 5042SOL    HW115878   5.103   0.547   1.518
 5042SOL    HW215879   5.100   0.686   1.434
 5043SOL     OW15880   4.527   1.402   0.924
 5043SOL    HW115881   4.617   1.416   0.882
 5043SOL    HW215882   4.456   1.404   0.853
 5044SOL     OW15883   4.646   0.503   0.899
 5044SOL    HW115884   4.621   0.494   0.803
 5044SOL    HW215885   4.694   0.421   0.930
 5045SOL     OW15886   4.263   0.064   0.512
 5045SOL    HW115887   4.182   0.065   0.570
 5045SOL    HW215888   4.266   0.147   0.457
 5046SOL     OW15889   5.158   1.188   0.041
 5046SOL    HW115890   5.190   1.112   0.098
 5046SOL    HW215891   5.066   1.215   0.071
 5047SOL     OW15892   4.021   0.035   0.171
 5047SOL    HW115893   4.070   0.119   0.150
 5047SOL    HW215894   4.083  -0.030   0.216
 5048SOL     OW15895   4.659   0.236   0.480
 5048SOL    HW115896   4.611   0.277   0.402
 5048SOL    HW215897   4.758   0.234   0.461
 5049SOL     OW15898   4.800   0.683   1.464
 5049SOL    HW115899   4.720   0.622   1.467
 5049SOL    HW215900   4.881   0.630   1.440
 5050SOL     OW15901   4.951   1.570   0.793
 5050SOL    HW115902   4.972   1.644   0.728
 5050SOL    HW215903   5.019   1.570   0.866
 5051SOL     OW15904   4.183   1.152   0.741
 5051SOL    HW115905   4.112   1.125   0.806
 5051SOL    HW215906   4.157   1.124   0.648
 5052SOL     OW15907   4.995   1.797   0.591
 5052SOL    HW115908   5.039   1.861   0.527
 5052SOL    HW215909   4.945   1.849   0.661
 5053SOL     OW15910   4.756   0.549   0.016
 5053SOL    HW115911   4.715   0.631  -0.023
 5053SOL    HW215912   4.820   0.575   0.089
 5054SOL     OW15913   3.802   0.556   1.386
 5054SOL    HW115914   3.894   0.555   1.345
 5054SOL    HW215915   3.796   0.630   1.453
 5055SOL     OW15916   4.285   0.222   1.147
 5055SOL    HW115917   4.323   0.138   1.184
 5055SOL    HW215918   4.197   0.241   1.191
 5056SOL     OW15919   4.590   0.454   0.642
 5056SOL    HW115920   4.558   0.526   0.580
 5056SOL    HW215921   4.614   0.373   0.589
 5057SOL     OW15922   4.741   0.039   0.753
 5057SOL    HW115923   4.669   0.044   0.684
 5057SOL    HW215924   4.717  -0.030   0.822
 5058SOL     OW15925   5.153   1.173   0.867
 5058SOL    HW115926   5.098   1.089   0.860
 5058SOL    HW215927   5.179   1.202   0.775
 5059SOL     OW15928   4.212   1.385   0.174
 5059SOL    HW115929   4.125   1.370   0.221
 5059SOL    HW215930   4.195   1.411   0.079
 5060SOL     OW15931   5.114   0.575   0.078
 5060SOL    HW115932   5.060   0.554   0.159
 5060SOL    HW215933   5.205   0.534   0.087
 5061SOL     OW15934   4.251   0.256   0.328
 5061SOL    HW115935   4.278   0.197   0.253
 5061SOL    HW215936   4.251   0.351   0.297
 5062SOL     OW15937   4.788   1.347   1.340
 5062SOL    HW115938   4.708   1.324   1.395
 5062SOL    HW215939   4.871   1.321   1.389
 5063SOL     OW15940   5.316   1.629   1.625
 5063SOL    HW115941   5.343   1.663   1.535
 5063SOL    HW215942   5.395   1.591   1.671
 5064SOL     OW15943   4.835   1.195   1.100
 5064SOL    HW115944   4.795   1.239   1.181
 5064SOL    HW215945   4.794   1.232   1.017
 5065SOL     OW15946   4.639   0.089   1.402
 5065SOL    HW115947   4.664   0.069   1.307
 5065SOL    HW215948   4.711   0.145   1.444
 5066SOL     OW15949   4.704   1.116   1.719
 5066SOL    HW115950   4.605   1.122   1.729
 5066SOL    HW215951   4.727   1.036   1.663
 5067SOL     OW15952   4.429   1.050   0.368
 5067SOL    HW115953   4.415   1.057   0.467
 5067SOL    HW215954   4.513   0.999   0.350
 5068SOL     OW15955   4.134   0.813   1.251
 5068SOL    HW115956   4.220   0.825   1.301
 5068SOL    HW215957   4.092   0.726   1.278
 5069SOL     OW15958   4.998   0.386   1.262
 5069SOL    HW115959   5.019   0.460   1.326
 5069SOL    HW215960   4.909   0.403   1.219
 5070SOL     OW15961   3.788   1.564   1.331
 5070SOL    HW115962   3.742   1.646   1.297
 5070SOL    HW215963   3.886   1.583   1.340
 5071SOL     OW15964   4.091   1.100   0.501
 5071SOL    HW115965   4.084   1.183   0.445
 5071SOL    HW215966   4.095   1.020   0.441
 5072SOL     OW15967   4.290   0.537   0.865
 5072SOL    HW115968   4.302   0.603   0.791
 5072SOL    HW215969   4.336   0.571   0.948
 5073SOL     OW15970   4.976   1.348   0.388
 5073SOL    HW115971   5.026   1.425   0.428
 5073SOL    HW215972   4.881   1.350   0.420
 5074SOL     OW15973   4.996   1.445   1.142
 5074SOL    HW115974   5.043   1.458   1.229
 5074SOL    HW215975   4.930   1.371   1.151
 5075SOL     OW15976   4.078   1.510   1.329
 5075SOL    HW115977   4.057   1.466   1.242
 5075SOL    HW215978   4.175   1.536   1.332
 5076SOL     OW15979   4.126   0.751   1.598
 5076SOL    HW115980   4.194   0.806   1.551
 5076SOL    HW215981   4.166   0.663   1.625
 5077SOL     OW15982   4.737   0.105   1.770
 5077SOL    HW115983   4.743   0.190   1.718
 5077SOL    HW215984   4.769   0.029   1.713
 5078SOL     OW15985   4.228   0.050   1.740
 5078SOL    HW115986   4.186  -0.007   1.670
 5078SOL    HW215987   4.162   0.119   1.772
 5079SOL     OW15988   4.297   0.870   1.029
 5079SOL    HW115989   4.341   0.959   1.020
 5079SOL    HW215990   4.234   0.870   1.106
 5080SOL     OW15991   5.084   0.862   1.045
 5080SOL    HW115992   5.009   0.862   0.979
 5080SOL    HW215993   5.121   0.770   1.054
 5081SOL     OW15994   4.933   0.525   0.275
 5081SOL    HW115995   4.946   0.441   0.329
 5081SOL    HW215996   4.904   0.599   0.335
 5082SOL     OW15997   4.031   0.213   1.231
 5082SOL    HW115998   4.008   0.250   1.321
 5082SOL    HW215999   4.001   0.118   1.225
 5083SOL     OW16000   3.761   1.310   1.282
 5083SOL    HW116001   3.814   1.261   1.350
 5083SOL    HW216002   3.783   1.408   1.287
 5084SOL     OW16003   4.456   0.634   1.064
 5084SOL    HW116004   4.515   0.608   0.988
 5084SOL    HW216005   4.428   0.730   1.053
 5085SOL     OW16006   4.031   0.063   0.618
 5085SOL    HW116007   4.020   0.157   0.651
 5085SOL    HW216008   4.026   0.000   0.695
 5086SOL     OW16009   5.346   0.367   0.374
 5086SOL    HW116010   5.348   0.291   0.438
 5086SOL    HW216011   5.298   0.444   0.414
 5087SOL     OW16012   4.747   0.766   0.966
 5087SOL    HW116013   4.762   0.787   1.062
 5087SOL    HW216014   4.717   0.671   0.957
 5088SOL     OW16015   4.704   1.573   1.700
 5088SOL    HW116016   4.684   1.617   1.612
 5088SOL    HW216017   4.743   1.482   1.684
 5089SOL     OW16018   4.074   0.898   1.804
 5089SOL    HW116019   4.150   0.942   1.852
 5089SOL    HW216020   4.109   0.851   1.722
 5090SOL     OW16021   5.027   0.838   0.042
 5090SOL    HW116022   5.061   0.745   0.057
 5090SOL    HW216023   5.045   0.865  -0.053
 5091SOL     OW16024   4.792   1.333   0.849
 5091SOL    HW116025   4.799   1.249   0.794
 5091SOL    HW216026   4.854   1.402   0.813
 5092SOL     OW16027   4.043   0.810   0.949
 5092SOL    HW116028   4.136   0.846   0.954
 5092SOL    HW216029   4.037   0.725   1.001
 5093SOL     OW16030   4.063   0.509   1.006
 5093SOL    HW116031   4.011   0.426   0.989
 5093SOL    HW216032   4.140   0.514   0.942
 5094SOL     OW16033   4.862   0.380   1.678
 5094SOL    HW116034   4.817   0.443   1.742
 5094SOL    HW216035   4.955   0.411   1.661
 5095SOL     OW16036   4.884   0.207   1.477
 5095SOL    HW116037   4.884   0.271   1.554
 5095SOL    HW216038   4.912   0.255   1.394
 5096SOL     OW16039   3.732   1.326   0.200
 5096SOL    HW116040   3.639   1.347   0.169
 5096SOL    HW216041   3.742   1.227   0.213
 5097SOL     OW16042   3.812   1.801   0.927
 5097SOL    HW116043   3.770   1.715   0.900
 5097SOL    HW216044   3.906   1.804   0.893
 5098SOL     OW16045   4.228   1.568   0.910
 5098SOL    HW116046   4.294   1.642   0.919
 5098SOL    HW216047   4.272   1.489   0.868
 5099SOL     OW16048   4.726   0.796   1.238
 5099SOL    HW116049   4.767   0.764   1.324
 5099SOL    HW216050   4.630   0.769   1.235
 5100SOL     OW16051   3.764   0.544   1.114
 5100SOL    HW116052   3.849   0.511   1.073
 5100SOL    HW216053   3.777   0.559   1.212
 5101SOL     OW16054   3.913   0.520   1.722
 5101SOL    HW116055   3.972   0.480   1.652
 5101SOL    HW216056   3.855   0.591   1.681
 5102SOL     OW16057   5.093   0.950   1.660
 5102SOL    HW116058   5.132   1.039   1.680
 5102SOL    HW216059   5.103   0.930   1.563
 5103SOL     OW16060   4.539   0.572   0.325
 5103SOL    HW116061   4.546   0.483   0.279
 5103SOL    HW216062   4.445   0.606   0.317
 5104SOL     OW16063   3.976   1.564   1.744
 5104SOL    HW116064   3.946   1.621   1.820
 5104SOL    HW216065   3.969   1.467   1.770
 5105SOL     OW16066   4.395   0.464   1.269
 5105SOL    HW116067   4.361   0.375   1.239
 5105SOL    HW216068   4.421   0.518   1.189
 5106SOL     OW16069   4.654   1.678   1.465
 5106SOL    HW116070   4.630   1.660   1.370
 5106SOL    HW216071   4.684   1.772   1.475
 5107SOL     OW16072   4.197   0.500   0.191
 5107SOL    HW116073   4.258   0.580   0.195
 5107SOL    HW216074   4.102   0.531   0.198
 5108SOL     OW16075   3.883   1.137   1.466
 5108SOL    HW116076   3.905   1.076   1.542
 5108SOL    HW216077   3.893   1.088   1.380
 5109SOL     OW16078   5.071   1.059   1.234
 5109SOL    HW116079   5.095   0.996   1.160
 5109SOL    HW216080   4.981   1.099   1.216
 5110SOL     OW16081   5.026   0.855   0.309
 5110SOL    HW116082   4.940   0.824   0.351
 5110SOL    HW216083   5.022   0.841   0.210
 5111SOL     OW16084   4.976   1.731   1.128
 5111SOL    HW116085   5.060   1.736   1.074
 5111SOL    HW216086   4.953   1.635   1.146
 5112SOL     OW16087   3.807   1.258   1.022
 5112SOL    HW116088   3.802   1.257   1.122
 5112SOL    HW216089   3.724   1.217   0.984
 5113SOL     OW16090   4.412   1.662   1.716
 5113SOL    HW116091   4.356   1.743   1.725
 5113SOL    HW216092   4.464   1.666   1.630
 5114SOL     OW16093   4.627   0.086   0.133
 5114SOL    HW116094   4.678   0.087   0.047
 5114SOL    HW216095   4.683   0.044   0.204
 5115SOL     OW16096   5.112   1.573   0.477
 5115SOL    HW116097   5.179   1.585   0.403
 5115SOL    HW216098   5.072   1.662   0.500
 5116SOL     OW16099   3.854   1.794   1.851
 5116SOL    HW116100   3.813   1.720   1.904
 5116SOL    HW216101   3.918   1.845   1.909
 5117SOL     OW16102   5.004   0.927   0.672
 5117SOL    HW116103   5.064   0.846   0.674
 5117SOL    HW216104   5.044   0.996   0.612
 5118SOL     OW16105   4.554   1.273   1.422
 5118SOL    HW116106   4.549   1.306   1.517
 5118SOL    HW216107   4.468   1.292   1.376
 5119SOL     OW16108   4.396   1.616   0.154
 5119SOL    HW116109   4.405   1.626   0.055
 5119SOL    HW216110   4.356   1.527   0.175
 5120SOL     OW16111   3.987   0.326   0.720
 5120SOL    HW116112   3.908   0.377   0.686
 5120SOL    HW216113   3.978   0.311   0.818
 5121SOL     OW16114   4.918   1.612   0.031
 5121SOL    HW116115   4.924   1.519   0.068
 5121SOL    HW216116   4.859   1.612  -0.049
 5122SOL     OW16117   4.546   1.002   1.372
 5122SOL    HW116118   4.586   1.001   1.280
 5122SOL    HW216119   4.556   1.094   1.412
 5123SOL     OW16120   4.640   0.910   0.291
 5123SOL    HW116121   4.703   0.948   0.223
 5123SOL    HW216122   4.680   0.827   0.330
 5124SOL     OW16123   4.096   1.288   1.490
 5124SOL    HW116124   4.083   1.381   1.456
 5124SOL    HW216125   4.012   1.236   1.477
 5125SOL     OW16126   4.763   1.098   0.696
 5125SOL    HW116127   4.693   1.051   0.750
 5125SOL    HW216128   4.822   1.030   0.653
 5126SOL     OW16129   4.738   0.236   0.971
 5126SOL    HW116130   4.730   0.200   0.878
 5126SOL    HW216131   4.736   0.160   1.036
 5127SOL     OW16132   4.314   1.487   0.491
 5127SOL    HW116133   4.356   1.429   0.421
 5127SOL    HW216134   4.270   1.566   0.447
 5128SOL     OW16135   3.979   1.348   0.290
 5128SOL    HW116136   3.883   1.349   0.263
 5128SOL    HW216137   3.991   1.401   0.374
 5129SOL     OW16138   3.829   1.013   1.726
 5129SOL    HW116139   3.752   0.980   1.780
 5129SOL    HW216140   3.914   0.983   1.768
 5130SOL     OW16141   4.396   0.203   1.489
 5130SOL    HW116142   4.486   0.187   1.449
 5130SOL    HW216143   4.404   0.208   1.588
 5131SOL     OW16144   3.799   0.345   0.033
 5131SOL    HW116145   3.707   0.317   0.004
 5131SOL    HW216146   3.830   0.422  -0.023
 5132SOL     OW16147   5.164   0.856   1.398
 5132SOL    HW116148   5.107   0.908   1.335
 5132SOL    HW216149   5.260   0.868   1.374
 5133SOL     OW16150   3.796   0.166   0.318
 5133SOL    HW116151   3.779   0.249   0.264
 5133SOL    HW216152   3.886   0.129   0.296
 5134SOL     OW16153   4.907   1.335   0.119
 5134SOL    HW116154   4.808   1.324   0.121
 5134SOL    HW216155   4.941   1.350   0.212
 5135SOL     OW16156   4.337   0.842   1.431
 5135SOL    HW116157   4.393   0.923   1.414
 5135SOL    HW216158   4.396   0.762   1.434
 5136SOL     OW16159   4.440   0.565   1.708
 5136SOL    HW116160   4.459   0.630   1.782
 5136SOL    HW216161   4.500   0.485   1.717
 5137SOL     OW16162   5.174   1.220   1.633
 5137SOL    HW116163   5.165   1.210   1.732
 5137SOL    HW216164   5.270   1.213   1.607
 5138SOL     OW16165   4.114   1.741   1.560
 5138SOL    HW116166   4.023   1.782   1.558
 5138SOL    HW216167   4.107   1.647   1.592
 5139SOL     OW16168   4.949   0.325   0.449
 5139SOL    HW116169   5.014   0.251   0.438
 5139SOL    HW216170   4.969   0.375   0.533
 5140SOL     OW16171   4.318   0.745   0.652
 5140SOL    HW116172   4.368   0.830   0.633
 5140SOL    HW216173   4.230   0.747   0.604
 5141SOL     OW16174   4.583   1.374   0.016
 5141SOL    HW116175   4.537   1.389   0.104
 5141SOL    HW216176   4.627   1.459  -0.014
 5142SOL     OW16177   4.385   1.790   0.953
 5142SOL    HW116178   4.339   1.878   0.940
 5142SOL    HW216179   4.484   1.802   0.946
 5143SOL     OW16180   4.583   0.956   0.861
 5143SOL    HW116181   4.637   0.887   0.909
 5143SOL    HW216182   4.551   1.025   0.927
 5144SOL     OW16183   4.807   0.984   0.087
 5144SOL    HW116184   4.784   1.037   0.005
 5144SOL    HW216185   4.888   0.928   0.068
 5145SOL     OW16186   3.945   1.314   1.844
 5145SOL    HW116187   3.880   1.241   1.823
 5145SOL    HW216188   3.949   1.328   1.942
 5146SOL     OW16189   3.803   1.240   0.653
 5146SOL    HW116190   3.802   1.193   0.741
 5146SOL    HW216191   3.885   1.212   0.602
 5147SOL     OW16192   4.396   1.391   1.624
 5147SOL    HW116193   4.318   1.341   1.662
 5147SOL    HW216194   4.393   1.486   1.655
 5148SOL     OW16195   4.152   0.424   0.520
 5148SOL    HW116196   4.182   0.352   0.458
 5148SOL    HW216197   4.113   0.384   0.603
 5149SOL     OW16198   5.429   1.487   1.104
 5149SOL    HW116199   5.336   1.462   1.077
 5149SOL    HW216200   5.455   1.437   1.186
 5150SOL     OW16201   4.041   0.547   1.280
 5150SOL    HW116202   4.079   0.488   1.352
 5150SOL    HW216203   4.081   0.521   1.192
 5151SOL     OW16204   4.536   1.586   0.687
 5151SOL    HW116205   4.568   1.596   0.593
 5151SOL    HW216206   4.457   1.524   0.689
 5152SOL     OW16207   5.148   0.214   1.112
 5152SOL    HW116208   5.200   0.149   1.167
 5152SOL    HW216209   5.099   0.277   1.173
 5153SOL     OW16210   4.725   0.034   1.154
 5153SOL    HW116211   4.662  -0.038   1.123
 5153SOL    HW216212   4.818  -0.002   1.154
 5154SOL     OW16213   4.494   1.330   0.301
 5154SOL    HW116214   4.448   1.243   0.318
 5154SOL    HW216215   4.585   1.327   0.342
 5155SOL     OW16216   4.342   1.567   1.284
 5155SOL    HW116217   4.337   1.649   1.341
 5155SOL    HW216218   4.431   1.564   1.239
 5156SOL     OW16219   5.076   0.052   0.168
 5156SOL    HW116220   5.111   0.011   0.084
 5156SOL    HW216221   4.986   0.014   0.188
 5157SOL     OW16222   5.024   0.453   0.691
 5157SOL    HW116223   4.965   0.533   0.695
 5157SOL    HW216224   5.039   0.418   0.784
 5158SOL     OW16225   5.317   0.221   0.882
 5158SOL    HW116226   5.233   0.220   0.936
 5158SOL    HW216227   5.319   0.304   0.826
 5159SOL     OW16228   3.763   1.077   0.300
 5159SOL    HW116229   3.862   1.066   0.291
 5159SOL    HW216230   3.723   0.991   0.332
 5160SOL     OW16231   4.599   1.646   0.337
 5160SOL    HW116232   4.522   1.611   0.283
 5160SOL    HW216233   4.567   1.717   0.399
 5161SOL     OW16234   3.954   0.628   1.975
 5161SOL    HW116235   3.861   0.626   2.012
 5161SOL    HW216236   3.955   0.589   1.883
 5162SOL     OW16237   3.949   0.275   2.858
 5162SOL    HW116238   3.984   0.258   2.950
 5162SOL    HW216239   3.861   0.230   2.846
 5163SOL     OW16240   3.743   0.368   2.509
 5163SOL    HW116241   3.661   0.411   2.548
 5163SOL    HW216242   3.715   0.295   2.446
 5164SOL     OW16243   4.293   1.275   3.027
 5164SOL    HW116244   4.200   1.268   2.990
 5164SOL    HW216245   4.304   1.364   3.071
 5165SOL     OW16246   5.279   1.511   2.565
 5165SOL    HW116247   5.222   1.495   2.646
 5165SOL    HW216248   5.220   1.521   2.485
 5166SOL     OW16249   4.859   0.703   2.579
 5166SOL    HW116250   4.916   0.781   2.554
 5166SOL    HW216251   4.799   0.729   2.655
 5167SOL     OW16252   4.492   1.144   2.885
 5167SOL    HW116253   4.414   1.161   2.945
 5167SOL    HW216254   4.526   1.231   2.849
 5168SOL     OW16255   4.574   0.798   3.685
 5168SOL    HW116256   4.570   0.874   3.750
 5168SOL    HW216257   4.596   0.834   3.594
 5169SOL     OW16258   4.409   1.012   2.527
 5169SOL    HW116259   4.478   0.996   2.597
 5169SOL    HW216260   4.336   1.069   2.565
 5170SOL     OW16261   4.410   1.161   3.665
 5170SOL    HW116262   4.470   1.240   3.679
 5170SOL    HW216263   4.324   1.192   3.624
 5171SOL     OW16264   4.059   1.435   2.923
 5171SOL    HW116265   3.981   1.404   2.870
 5171SOL    HW216266   4.117   1.493   2.866
 5172SOL     OW16267   5.184   1.505   3.201
 5172SOL    HW116268   5.208   1.599   3.227
 5172SOL    HW216269   5.168   1.451   3.283
 5173SOL     OW16270   4.162   0.392   3.361
 5173SOL    HW116271   4.244   0.336   3.370
 5173SOL    HW216272   4.081   0.334   3.365
 5174SOL     OW16273   3.955   1.713   2.345
 5174SOL    HW116274   3.989   1.790   2.399
 5174SOL    HW216275   3.999   1.713   2.255
 5175SOL     OW16276   4.851   1.341   3.552
 5175SOL    HW116277   4.898   1.341   3.640
 5175SOL    HW216278   4.803   1.254   3.541
 5176SOL     OW16279   3.954   1.434   2.400
 5176SOL    HW116280   3.928   1.530   2.400
 5176SOL    HW216281   3.883   1.380   2.445
 5177SOL     OW16282   3.964   1.091   2.748
 5177SOL    HW116283   3.978   1.007   2.800
 5177SOL    HW216284   3.909   1.155   2.803
 5178SOL     OW16285   4.344   1.786   3.301
 5178SOL    HW116286   4.252   1.769   3.336
 5178SOL    HW216287   4.372   1.878   3.327
 5179SOL     OW16288   4.330   0.964   1.985
 5179SOL    HW116289   4.337   1.048   1.931
 5179SOL    HW216290   4.376   0.977   2.073
 5180SOL     OW16291   5.318   0.114   3.342
 5180SOL    HW116292   5.300   0.181   3.270
 5180SOL    HW216293   5.315   0.160   3.431
 5181SOL     OW16294   3.846   0.643   2.425
 5181SOL    HW116295   3.801   0.555   2.442
 5181SOL    HW216296   3.845   0.697   2.509
 5182SOL     OW16297   3.751   1.596   1.979
 5182SOL    HW116298   3.732   1.500   2.000
 5182SOL    HW216299   3.718   1.654   2.054
 5183SOL     OW16300   5.413   0.922   2.474
 5183SOL    HW116301   5.508   0.893   2.482
 5183SOL    HW216302   5.405   0.987   2.399
 5184SOL     OW16303   3.837   0.737   3.459
 5184SOL    HW116304   3.925   0.724   3.504
 5184SOL    HW216305   3.824   0.834   3.437
 5185SOL     OW16306   4.337   1.365   2.588
 5185SOL    HW116307   4.288   1.278   2.597
 5185SOL    HW216308   4.314   1.408   2.501
 5186SOL     OW16309   5.017   1.228   3.285
 5186SOL    HW116310   5.054   1.155   3.227
 5186SOL    HW216311   5.069   1.233   3.370
 5187SOL     OW16312   4.533   0.004   2.364
 5187SOL    HW116313   4.573   0.095   2.355
 5187SOL    HW216314   4.433   0.012   2.370
 5188SOL     OW16315   3.921   0.976   3.126
 5188SOL    HW116316   4.010   0.931   3.112
 5188SOL    HW216317   3.848   0.911   3.107
 5189SOL     OW16318   4.911   1.792   3.478
 5189SOL    HW116319   4.935   1.852   3.402
 5189SOL    HW216320   4.918   1.697   3.448
 5190SOL     OW16321   4.041   0.251   3.663
 5190SOL    HW116322   4.112   0.322   3.669
 5190SOL    HW216323   3.953   0.290   3.691
 5191SOL     OW16324   5.190   1.417   2.815
 5191SOL    HW116325   5.131   1.423   2.895
 5191SOL    HW216326   5.175   1.329   2.769
 5192SOL     OW16327   4.322   0.729   2.132
 5192SOL    HW116328   4.346   0.798   2.064
 5192SOL    HW216329   4.244   0.762   2.186
 5193SOL     OW16330   5.005   0.345   2.806
 5193SOL    HW116331   4.919   0.295   2.793
 5193SOL    HW216332   5.067   0.291   2.862
 5194SOL     OW16333   4.531   0.605   3.327
 5194SOL    HW116334   4.484   0.602   3.416
 5194SOL    HW216335   4.480   0.550   3.261
 5195SOL     OW16336   5.118   0.469   3.536
 5195SOL    HW116337   5.098   0.512   3.624
 5195SOL    HW216338   5.196   0.407   3.545
 5196SOL     OW16339   4.697   0.890   3.434
 5196SOL    HW116340   4.743   0.806   3.405
 5196SOL    HW216341   4.641   0.924   3.359
 5197SOL     OW16342   4.715   0.410   3.104
 5197SOL    HW116343   4.638   0.444   3.158
 5197SOL    HW216344   4.681   0.359   3.025
 5198SOL     OW16345   4.765   0.701   2.291
 5198SOL    HW116346   4.791   0.697   2.387
 5198SOL    HW216347   4.680   0.650   2.277
 5199SOL     OW16348   3.800   0.811   2.651
 5199SOL    HW116349   3.899   0.799   2.660
 5199SOL    HW216350   3.776   0.906   2.672
 5200SOL     OW16351   3.854   1.821   3.433
 5200SOL    HW116352   3.844   1.806   3.532
 5200SOL    HW216353   3.768   1.857   3.397
 5201SOL     OW16354   4.589   0.348   2.057
 5201SOL    HW116355   4.648   0.411   2.008
 5201SOL    HW216356   4.608   0.254   2.028
 5202SOL     OW16357   5.086   1.144   2.407
 5202SOL    HW116358   5.169   1.115   2.359
 5202SOL    HW216359   5.037   1.211   2.351
 5203SOL     OW16360   4.274   0.196   2.747
 5203SOL    HW116361   4.269   0.191   2.847
 5203SOL    HW216362   4.276   0.292   2.718
 5204SOL     OW16363   4.732   1.456   2.339
 5204SOL    HW116364   4.686   1.528   2.287
 5204SOL    HW216365   4.728   1.476   2.437
 5205SOL     OW16366   4.075   1.801   2.715
 5205SOL    HW116367   4.125   1.715   2.721
 5205SOL    HW216368   4.140   1.878   2.712
 5206SOL     OW16369   4.951   1.550   3.368
 5206SOL    HW116370   4.957   1.473   3.432
 5206SOL    HW216371   4.899   1.524   3.288
 5207SOL     OW16372   4.045   0.943   2.104
 5207SOL    HW116373   4.127   0.982   2.062
 5207SOL    HW216374   4.018   0.861   2.055
 5208SOL     OW16375   4.185   1.266   3.589
 5208SOL    HW116376   4.135   1.267   3.503
 5208SOL    HW216377   4.122   1.248   3.665
 5209SOL     OW16378   4.835   1.776   2.099
 5209SOL    HW116379   4.775   1.714   2.149
 5209SOL    HW216380   4.866   1.732   2.014
 5210SOL     OW16381   3.926   0.285   3.360
 5210SOL    HW116382   3.846   0.345   3.347
 5210SOL    HW216383   3.916   0.236   3.446
 5211SOL     OW16384   4.188   1.743   2.185
 5211SOL    HW116385   4.221   1.782   2.271
 5211SOL    HW216386   4.264   1.736   2.120
 5212SOL     OW16387   5.124   0.107   2.288
 5212SOL    HW116388   5.100   0.070   2.198
 5212SOL    HW216389   5.223   0.123   2.292
 5213SOL     OW16390   3.973   1.785   3.103
 5213SOL    HW116391   4.030   1.720   3.153
 5213SOL    HW216392   3.957   1.752   3.010
 5214SOL     OW16393   4.664   1.698   2.766
 5214SOL    HW116394   4.744   1.641   2.787
 5214SOL    HW216395   4.615   1.658   2.689
 5215SOL     OW16396   4.106   0.700   2.342
 5215SOL    HW116397   4.151   0.610   2.339
 5215SOL    HW216398   4.012   0.689   2.375
 5216SOL     OW16399   4.338   0.122   1.979
 5216SOL    HW116400   4.436   0.100   1.986
 5216SOL    HW216401   4.307   0.105   1.886
 5217SOL     OW16402   4.505   0.264   3.611
 5217SOL    HW116403   4.572   0.203   3.654
 5217SOL    HW216404   4.432   0.283   3.676
 5218SOL     OW16405   4.612   1.514   3.057
 5218SOL    HW116406   4.589   1.489   2.963
 5218SOL    HW216407   4.673   1.445   3.096
 5219SOL     OW16408   5.075   0.590   3.295
 5219SOL    HW116409   5.103   0.547   3.380
 5219SOL    HW216410   5.100   0.686   3.296
 5220SOL     OW16411   4.527   1.402   2.786
 5220SOL    HW116412   4.617   1.416   2.744
 5220SOL    HW216413   4.456   1.404   2.715
 5221SOL     OW16414   4.646   0.503   2.761
 5221SOL    HW116415   4.621   0.494   2.665
 5221SOL    HW216416   4.694   0.421   2.792
 5222SOL     OW16417   4.263   0.064   2.374
 5222SOL    HW116418   4.182   0.065   2.432
 5222SOL    HW216419   4.266   0.147   2.319
 5223SOL     OW16420   5.158   1.188   1.903
 5223SOL    HW116421   5.190   1.112   1.960
 5223SOL    HW216422   5.066   1.215   1.933
 5224SOL     OW16423   4.021   0.035   2.033
 5224SOL    HW116424   4.070   0.119   2.012
 5224SOL    HW216425   4.083  -0.030   2.078
 5225SOL     OW16426   4.659   0.236   2.342
 5225SOL    HW116427   4.611   0.277   2.264
 5225SOL    HW216428   4.758   0.234   2.323
 5226SOL     OW16429   4.800   0.683   3.326
 5226SOL    HW116430   4.720   0.622   3.329
 5226SOL    HW216431   4.881   0.630   3.302
 5227SOL     OW16432   4.951   1.570   2.655
 5227SOL    HW116433   4.972   1.644   2.590
 5227SOL    HW216434   5.019   1.570   2.728
 5228SOL     OW16435   4.183   1.152   2.603
 5228SOL    HW116436   4.112   1.125   2.668
 5228SOL    HW216437   4.157   1.124   2.510
 5229SOL     OW16438   4.995   1.797   2.453
 5229SOL    HW116439   5.039   1.861   2.389
 5229SOL    HW216440   4.945   1.849   2.523
 5230SOL     OW16441   4.756   0.549   1.878
 5230SOL    HW116442   4.715   0.631   1.839
 5230SOL    HW216443   4.820   0.575   1.951
 5231SOL     OW16444   3.802   0.556   3.248
 5231SOL    HW116445   3.894   0.555   3.207
 5231SOL    HW216446   3.796   0.630   3.315
 5232SOL     OW16447   4.285   0.222   3.009
 5232SOL    HW116448   4.323   0.138   3.046
 5232SOL    HW216449   4.197   0.241   3.053
 5233SOL     OW16450   4.590   0.454   2.504
 5233SOL    HW116451   4.558   0.526   2.442
 5233SOL    HW216452   4.614   0.373   2.451
 5234SOL     OW16453   4.741   0.039   2.615
 5234SOL    HW116454   4.669   0.044   2.546
 5234SOL    HW216455   4.717  -0.030   2.684
 5235SOL     OW16456   5.153   1.173   2.729
 5235SOL    HW116457   5.098   1.089   2.722
 5235SOL    HW216458   5.179   1.202   2.637
 5236SOL     OW16459   4.212   1.385   2.036
 5236SOL    HW116460   4.125   1.370   2.083
 5236SOL    HW216461   4.195   1.411   1.941
 5237SOL     OW16462   5.114   0.575   1.940
 5237SOL    HW116463   5.060   0.554   2.021
 5237SOL    HW216464   5.205   0.534   1.949
 5238SOL     OW16465   4.251   0.256   2.190
 5238SOL    HW116466   4.278   0.197   2.115
 5238SOL    HW216467   4.251   0.351   2.159
 5239SOL     OW16468   4.788   1.347   3.202
 5239SOL    HW116469   4.708   1.324   3.257
 5239SOL    HW216470   4.871   1.321   3.251
 5240SOL     OW16471   5.316   1.629   3.487
 5240SOL    HW116472   5.343   1.663   3.397
 5240SOL    HW216473   5.395   1.591   3.533
 5241SOL     OW16474   4.835   1.195   2.962
 5241SOL    HW116475   4.795   1.239   3.043
 5241SOL    HW216476   4.794   1.232   2.879
 5242SOL     OW16477   4.639   0.089   3.264
 5242SOL    HW116478   4.664   0.069   3.169
 5242SOL    HW216479   4.711   0.145   3.306
 5243SOL     OW16480   4.704   1.116   3.581
 5243SOL    HW116481   4.605   1.122   3.591
 5243SOL    HW216482   4.727   1.036   3.525
 5244SOL     OW16483   4.429   1.050   2.230
 5244SOL    HW116484   4.415   1.057   2.329
 5244SOL    HW216485   4.513   0.999   2.212
 5245SOL     OW16486   4.134   0.813   3.113
 5245SOL    HW116487   4.220   0.825   3.163
 5245SOL    HW216488   4.092   0.726   3.140
 5246SOL     OW16489   4.998   0.386   3.124
 5246SOL    HW116490   5.019   0.460   3.188
 5246SOL    HW216491   4.909   0.403   3.081
 5247SOL     OW16492   3.788   1.564   3.193
 5247SOL    HW116493   3.742   1.646   3.159
 5247SOL    HW216494   3.886   1.583   3.202
 5248SOL     OW16495   4.091   1.100   2.363
 5248SOL    HW116496   4.084   1.183   2.307
 5248SOL    HW216497   4.095   1.020   2.303
 5249SOL     OW16498   4.290   0.537   2.727
 5249SOL    HW116499   4.302   0.603   2.653
 5249SOL    HW216500   4.336   0.571   2.810
 5250SOL     OW16501   4.976   1.348   2.250
 5250SOL    HW116502   5.026   1.425   2.290
 5250SOL    HW216503   4.881   1.350   2.282
 5251SOL     OW16504   4.996   1.445   3.004
 5251SOL    HW116505   5.043   1.458   3.091
 5251SOL    HW216506   4.930   1.371   3.013
 5252SOL     OW16507   4.078   1.510   3.191
 5252SOL    HW116508   4.057   1.466   3.104
 5252SOL    HW216509   4.175   1.536   3.194
 5253SOL     OW16510   4.126   0.751   3.460
 5253SOL    HW116511   4.194   0.806   3.413
 5253SOL    HW216512   4.166   0.663   3.487
 5254SOL     OW16513   4.737   0.105   3.632
 5254SOL    HW116514   4.743   0.190   3.580
 5254SOL    HW216515   4.769   0.029   3.575
 5255SOL     OW16516   4.228   0.050   3.602
 5255SOL    HW116517   4.186  -0.007   3.532
 5255SOL    HW216518   4.162   0.119   3.634
 5256SOL     OW16519   4.297   0.870   2.891
 5256SOL    HW116520   4.341   0.959   2.882
 5256SOL    HW216521   4.234   0.870   2.968
 5257SOL     OW16522   5.084   0.862   2.907
 5257SOL    HW116523   5.009   0.862   2.841
 5257SOL    HW216524   5.121   0.770   2.916
 5258SOL     OW16525   4.933   0.525   2.137
 5258SOL    HW116526   4.946   0.441   2.191
 5258SOL    HW216527   4.904   0.599   2.197
 5259SOL     OW16528   4.031   0.213   3.093
 5259SOL    HW116529   4.008   0.250   3.183
 5259SOL    HW216530   4.001   0.118   3.087
 5260SOL     OW16531   3.761   1.310   3.144
 5260SOL    HW116532   3.814   1.261   3.212
 5260SOL    HW216533   3.783   1.408   3.149
 5261SOL     OW16534   4.456   0.634   2.926
 5261SOL    HW116535   4.515   0.608   2.850
 5261SOL    HW216536   4.428   0.730   2.915
 5262SOL     OW16537   4.031   0.063   2.480
 5262SOL    HW116538   4.020   0.157   2.513
 5262SOL    HW216539   4.026   0.000   2.557
 5263SOL     OW16540   5.346   0.367   2.236
 5263SOL    HW116541   5.348   0.291   2.300
 5263SOL    HW216542   5.298   0.444   2.276
 5264SOL     OW16543   4.747   0.766   2.828
 5264SOL    HW116544   4.762   0.787   2.924
 5264SOL    HW216545   4.717   0.671   2.819
 5265SOL     OW16546   4.704   1.573   3.562
 5265SOL    HW116547   4.684   1.617   3.474
 5265SOL    HW216548   4.743   1.482   3.546
 5266SOL     OW16549   4.074   0.898   3.666
 5266SOL    HW116550   4.150   0.942   3.714
 5266SOL    HW216551   4.109   0.851   3.584
 5267SOL     OW16552   5.027   0.838   1.904
 5267SOL    HW116553   5.061   0.745   1.919
 5267SOL    HW216554   5.045   0.865   1.809
 5268SOL     OW16555   4.792   1.333   2.711
 5268SOL    HW116556   4.799   1.249   2.656
 5268SOL    HW216557   4.854   1.402   2.675
 5269SOL     OW16558   4.043   0.810   2.811
 5269SOL    HW116559   4.136   0.846   2.816
 5269SOL    HW216560   4.037   0.725   2.863
 5270SOL     OW16561   4.063   0.509   2.868
 5270SOL    HW116562   4.011   0.426   2.851
 5270SOL    HW216563   4.140   0.514   2.804
 5271SOL     OW16564   4.862   0.380   3.540
 5271SOL    HW116565   4.817   0.443   3.604
 5271SOL    HW216566   4.955   0.411   3.523
 5272SOL     OW16567   4.884   0.207   3.339
 5272SOL    HW116568   4.884   0.271   3.416
 5272SOL    HW216569   4.912   0.255   3.256
 5273SOL     OW16570   3.732   1.326   2.062
 5273SOL    HW116571   3.639   1.347   2.031
 5273SOL    HW216572   3.742   1.227   2.075
 5274SOL     OW16573   3.812   1.801   2.789
 5274SOL    HW116574   3.770   1.715   2.762
 5274SOL    HW216575   3.906   1.804   2.755
 5275SOL     OW16576   4.228   1.568   2.772
 5275SOL    HW116577   4.294   1.642   2.781
 5275SOL    HW216578   4.272   1.489   2.730
 5276SOL     OW16579   4.726   0.796   3.100
 5276SOL    HW116580   4.767   0.764   3.186
 5276SOL    HW216581   4.630   0.769   3.097
 5277SOL     OW16582   3.764   0.544   2.976
 5277SOL    HW116583   3.849   0.511   2.935
 5277SOL    HW216584   3.777   0.559   3.074
 5278SOL     OW16585   3.913   0.520   3.584
 5278SOL    HW116586   3.972   0.480   3.514
 5278SOL    HW216587   3.855   0.591   3.543
 5279SOL     OW16588   5.093   0.950   3.522
 5279SOL    HW116589   5.132   1.039   3.542
 5279SOL    HW216590   5.103   0.930   3.425
 5280SOL     OW16591   4.539   0.572   2.187
 5280SOL    HW116592   4.546   0.483   2.141
 5280SOL    HW216593   4.445   0.606   2.179
 5281SOL     OW16594   3.976   1.564   3.606
 5281SOL    HW116595   3.946   1.621   3.682
 5281SOL    HW216596   3.969   1.467   3.632
 5282SOL     OW16597   4.395   0.464   3.131
 5282SOL    HW116598   4.361   0.375   3.101
 5282SOL    HW216599   4.421   0.518   3.051
 5283SOL     OW16600   4.654   1.678   3.327
 5283SOL    HW116601   4.630   1.660   3.232
 5283SOL    HW216602   4.684   1.772   3.337
 5284SOL     OW16603   4.197   0.500   2.053
 5284SOL    HW116604   4.258   0.580   2.057
 5284SOL    HW216605   4.102   0.531   2.060
 5285SOL     OW16606   3.883   1.137   3.328
 5285SOL    HW116607   3.905   1.076   3.404
 5285SOL    HW216608   3.893   1.088   3.242
 5286SOL     OW16609   5.071   1.059   3.096
 5286SOL    HW116610   5.095   0.996   3.022
 5286SOL    HW216611   4.981   1.099   3.078
 5287SOL     OW16612   5.026   0.855   2.171
 5287SOL    HW116613   4.940   0.824   2.213
 5287SOL    HW216614   5.022   0.841   2.072
 5288SOL     OW16615   4.976   1.731   2.990
 5288SOL    HW116616   5.060   1.736   2.936
 5288SOL    HW216617   4.953   1.635   3.008
 5289SOL     OW16618   3.807   1.258   2.884
 5289SOL    HW116619   3.802   1.257   2.984
 5289SOL    HW216620   3.724   1.217   2.846
 5290SOL     OW16621   4.412   1.662   3.578
 5290SOL    HW116622   4.356   1.743   3.587
 5290SOL    HW216623   4.464   1.666   3.492
 5291SOL     OW16624   5.112   1.573   2.339
 5291SOL    HW116625   5.179   1.585   2.265
 5291SOL    HW216626   5.072   1.662   2.362
 5292SOL     OW16627   3.854   1.794   3.713
 5292SOL    HW116628   3.813   1.720   3.766
 5292SOL    HW216629   3.918   1.845   3.771
 5293SOL     OW16630   5.004   0.927   2.534
 5293SOL    HW116631   5.064   0.846   2.536
 5293SOL    HW216632   5.044   0.996   2.474
 5294SOL     OW16633   4.554   1.273   3.284
 5294SOL    HW116634   4.549   1.306   3.379
 5294SOL    HW216635   4.468   1.292   3.238
 5295SOL     OW16636   4.396   1.616   2.016
 5295SOL    HW116637   4.405   1.626   1.917
 5295SOL    HW216638   4.356   1.527   2.037
 5296SOL     OW16639   3.987   0.326   2.582
 5296SOL    HW116640   3.908   0.377   2.548
 5296SOL    HW216641   3.978   0.311   2.680
 5297SOL     OW16642   4.918   1.612   1.893
 5297SOL    HW116643   4.924   1.519   1.930
 5297SOL    HW216644   4.859   1.612   1.813
 5298SOL     OW16645   4.546   1.002   3.234
 5298SOL    HW116646   4.586   1.001   3.142
 5298SOL    HW216647   4.556   1.094   3.274
 5299SOL     OW16648   4.640   0.910   2.153
 5299SOL    HW116649   4.703   0.948   2.085
 5299SOL    HW216650   4.680   0.827   2.192
 5300SOL     OW16651   4.096   1.288   3.352
 5300SOL    HW116652   4.083   1.381   3.318
 5300SOL    HW216653   4.012   1.236   3.339
 5301SOL     OW16654   4.763   1.098   2.558
 5301SOL    HW116655   4.693   1.051   2.612
 5301SOL    HW216656   4.822   1.030   2.515
 5302SOL     OW16657   4.738   0.236   2.833
 5302SOL    HW116658   4.730   0.200   2.740
 5302SOL    HW216659   4.736   0.160   2.898
 5303SOL     OW16660   4.314   1.487   2.353
 5303SOL    HW116661   4.356   1.429   2.283
 5303SOL    HW216662   4.270   1.566   2.309
 5304SOL     OW16663   3.979   1.348   2.152
 5304SOL    HW116664   3.883   1.349   2.125
 5304SOL    HW216665   3.991   1.401   2.236
 5305SOL     OW16666   3.829   1.013   3.588
 5305SOL    HW116667   3.752   0.980   3.642
 5305SOL    HW216668   3.914   0.983   3.630
 5306SOL     OW16669   4.396   0.203   3.351
 5306SOL    HW116670   4.486   0.187   3.311
 5306SOL    HW216671   4.404   0.208   3.450
 5307SOL     OW16672   3.799   0.345   1.895
 5307SOL    HW116673   3.707   0.317   1.866
 5307SOL    HW216674   3.830   0.422   1.839
 5308SOL     OW16675   5.164   0.856   3.260
 5308SOL    HW116676   5.107   0.908   3.197
 5308SOL    HW216677   5.260   0.868   3.236
 5309SOL     OW16678   3.796   0.166   2.180
 5309SOL    HW116679   3.779   0.249   2.126
 5309SOL    HW216680   3.886   0.129   2.158
 5310SOL     OW16681   4.907   1.335   1.981
 5310SOL    HW116682   4.808   1.324   1.983
 5310SOL    HW216683   4.941   1.350   2.074
 5311SOL     OW16684   4.337   0.842   3.293
 5311SOL    HW116685   4.393   0.923   3.276
 5311SOL    HW216686   4.396   0.762   3.296
 5312SOL     OW16687   4.440   0.565   3.570
 5312SOL    HW116688   4.459   0.630   3.644
 5312SOL    HW216689   4.500   0.485   3.579
 5313SOL     OW16690   5.174   1.220   3.495
 5313SOL    HW116691   5.165   1.210   3.594
 5313SOL    HW216692   5.270   1.213   3.469
 5314SOL     OW16693   4.114   1.741   3.422
 5314SOL    HW116694   4.023   1.782   3.420
 5314SOL    HW216695   4.107   1.647   3.454
 5315SOL     OW16696   4.949   0.325   2.311
 5315SOL    HW116697   5.014   0.251   2.300
 5315SOL    HW216698   4.969   0.375   2.395
 5316SOL     OW16699   4.318   0.745   2.514
 5316SOL    HW116700   4.368   0.830   2.495
 5316SOL    HW216701   4.230   0.747   2.466
 5317SOL     OW16702   4.583   1.374   1.878
 5317SOL    HW116703   4.537   1.389   1.966
 5317SOL    HW216704   4.627   1.459   1.848
 5318SOL     OW16705   4.385   1.790   2.815
 5318SOL    HW116706   4.339   1.878   2.802
 5318SOL    HW216707   4.484   1.802   2.808
 5319SOL     OW16708   4.583   0.956   2.723
 5319SOL    HW116709   4.637   0.887   2.771
 5319SOL    HW216710   4.551   1.025   2.789
 5320SOL     OW16711   4.807   0.984   1.949
 5320SOL    HW116712   4.784   1.037   1.867
 5320SOL    HW216713   4.888   0.928   1.930
 5321SOL     OW16714   3.945   1.314   3.706
 5321SOL    HW116715   3.880   1.241   3.685
 5321SOL    HW216716   3.949   1.328   3.804
 5322SOL     OW16717   3.803   1.240   2.515
 5322SOL    HW116718   3.802   1.193   2.603
 5322SOL    HW216719   3.885   1.212   2.464
 5323SOL     OW16720   4.396   1.391   3.486
 5323SOL    HW116721   4.318   1.341   3.524
 5323SOL    HW216722   4.393   1.486   3.517
 5324SOL     OW16723   4.152   0.424   2.382
 5324SOL    HW116724   4.182   0.352   2.320
 5324SOL    HW216725   4.113   0.384   2.465
 5325SOL     OW16726   5.429   1.487   2.966
 5325SOL    HW116727   5.336   1.462   2.939
 5325SOL    HW216728   5.455   1.437   3.048
 5326SOL     OW16729   4.041   0.547   3.142
 5326SOL    HW116730   4.079   0.488   3.214
 5326SOL    HW216731   4.081   0.521   3.054
 5327SOL     OW16732   4.536   1.586   2.549
 5327SOL    HW116733   4.568   1.596   2.455
 5327SOL    HW216734   4.457   1.524   2.551
 5328SOL     OW16735   5.148   0.214   2.974
 5328SOL    HW116736   5.200   0.149   3.029
 5328SOL    HW216737   5.099   0.277   3.035
 5329SOL     OW16738   4.725   0.034   3.016
 5329SOL    HW116739   4.662  -0.038   2.985
 5329SOL    HW216740   4.818  -0.002   3.016
 5330SOL     OW16741   4.494   1.330   2.163
 5330SOL    HW116742   4.448   1.243   2.180
 5330SOL    HW216743   4.585   1.327   2.204
 5331SOL     OW16744   4.342   1.567   3.146
 5331SOL    HW116745   4.337   1.649   3.203
 5331SOL    HW216746   4.431   1.564   3.101
 5332SOL     OW16747   5.076   0.052   2.030
 5332SOL    HW116748   5.111   0.011   1.946
 5332SOL    HW216749   4.986   0.014   2.050
 5333SOL     OW16750   5.024   0.453   2.553
 5333SOL    HW116751   4.965   0.533   2.557
 5333SOL    HW216752   5.039   0.418   2.646
 5334SOL     OW16753   5.317   0.221   2.744
 5334SOL    HW116754   5.233   0.220   2.798
 5334SOL    HW216755   5.319   0.304   2.688
 5335SOL     OW16756   3.763   1.077   2.162
 5335SOL    HW116757   3.862   1.066   2.153
 5335SOL    HW216758   3.723   0.991   2.194
 5336SOL     OW16759   4.599   1.646   2.199
 5336SOL    HW116760   4.522   1.611   2.145
 5336SOL    HW216761   4.567   1.717   2.261
 5337SOL     OW16762   3.954   0.628   3.837
 5337SOL    HW116763   3.861   0.626   3.874
 5337SOL    HW216764   3.955   0.589   3.745
 5338SOL     OW16765   3.949   0.275   4.720
 5338SOL    HW116766   3.984   0.258   4.812
 5338SOL    HW216767   3.861   0.230   4.708
 5339SOL     OW16768   3.743   0.368   4.371
 5339SOL    HW116769   3.661   0.411   4.410
 5339SOL    HW216770   3.715   0.295   4.308
 5340SOL     OW16771   4.293   1.275   4.889
 5340SOL    HW116772   4.200   1.268   4.852
 5340SOL    HW216773   4.304   1.364   4.933
 5341SOL     OW16774   5.279   1.511   4.427
 5341SOL    HW116775   5.222   1.495   4.508
 5341SOL    HW216776   5.220   1.521   4.347
 5342SOL     OW16777   4.859   0.703   4.441
 5342SOL    HW116778   4.916   0.781   4.416
 5342SOL    HW216779   4.799   0.729   4.517
 5343SOL     OW16780   4.492   1.144   4.747
 5343SOL    HW116781   4.414   1.161   4.807
 5343SOL    HW216782   4.526   1.231   4.711
 5344SOL     OW16783   4.574   0.798   5.547
 5344SOL    HW116784   4.570   0.874   5.612
 5344SOL    HW216785   4.596   0.834   5.456
 5345SOL     OW16786   4.409   1.012   4.389
 5345SOL    HW116787   4.478   0.996   4.459
 5345SOL    HW216788   4.336   1.069   4.427
 5346SOL     OW16789   4.410   1.161   5.527
 5346SOL    HW116790   4.470   1.240   5.541
 5346SOL    HW216791   4.324   1.192   5.486
 5347SOL     OW16792   4.059   1.435   4.785
 5347SOL    HW116793   3.981   1.404   4.732
 5347SOL    HW216794   4.117   1.493   4.728
 5348SOL     OW16795   5.184   1.505   5.063
 5348SOL    HW116796   5.208   1.599   5.089
 5348SOL    HW216797   5.168   1.451   5.145
 5349SOL     OW16798   4.162   0.392   5.223
 5349SOL    HW116799   4.244   0.336   5.232
 5349SOL    HW216800   4.081   0.334   5.227
 5350SOL     OW16801   3.955   1.713   4.207
 5350SOL    HW116802   3.989   1.790   4.261
 5350SOL    HW216803   3.999   1.713   4.117
 5351SOL     OW16804   4.851   1.341   5.414
 5351SOL    HW116805   4.898   1.341   5.502
 5351SOL    HW216806   4.803   1.254   5.403
 5352SOL     OW16807   3.954   1.434   4.262
 5352SOL    HW116808   3.928   1.530   4.262
 5352SOL    HW216809   3.883   1.380   4.307
 5353SOL     OW16810   3.964   1.091   4.610
 5353SOL    HW116811   3.978   1.007   4.662
 5353SOL    HW216812   3.909   1.155   4.665
 5354SOL     OW16813   4.344   1.786   5.163
 5354SOL    HW116814   4.252   1.769   5.198
 5354SOL    HW216815   4.372   1.878   5.189
 5355SOL     OW16816   4.330   0.964   3.847
 5355SOL    HW116817   4.337   1.048   3.793
 5355SOL    HW216818   4.376   0.977   3.935
 5356SOL     OW16819   5.318   0.114   5.204
 5356SOL    HW116820   5.300   0.181   5.132
 5356SOL    HW216821   5.315   0.160   5.293
 5357SOL     OW16822   3.846   0.643   4.287
 5357SOL    HW116823   3.801   0.555   4.304
 5357SOL    HW216824   3.845   0.697   4.371
 5358SOL     OW16825   3.751   1.596   3.841
 5358SOL    HW116826   3.732   1.500   3.862
 5358SOL    HW216827   3.718   1.654   3.916
 5359SOL     OW16828   5.413   0.922   4.336
 5359SOL    HW116829   5.508   0.893   4.344
 5359SOL    HW216830   5.405   0.987   4.261
 5360SOL     OW16831   3.837   0.737   5.321
 5360SOL    HW116832   3.925   0.724   5.366
 5360SOL    HW216833   3.824   0.834   5.299
 5361SOL     OW16834   4.337   1.365   4.450
 5361SOL    HW116835   4.288   1.278   4.459
 5361SOL    HW216836   4.314   1.408   4.363
 5362SOL     OW16837   5.017   1.228   5.147
 5362SOL    HW116838   5.054   1.155   5.089
 5362SOL    HW216839   5.069   1.233   5.232
 5363SOL     OW16840   4.533   0.004   4.226
 5363SOL    HW116841   4.573   0.095   4.217
 5363SOL    HW216842   4.433   0.012   4.232
 5364SOL     OW16843   3.921   0.976   4.988
 5364SOL    HW116844   4.010   0.931   4.974
 5364SOL    HW216845   3.848   0.911   4.969
 5365SOL     OW16846   4.911   1.792   5.340
 5365SOL    HW116847   4.935   1.852   5.264
 5365SOL    HW216848   4.918   1.697   5.310
 5366SOL     OW16849   4.041   0.251   5.525
 5366SOL    HW116850   4.112   0.322   5.531
 5366SOL    HW216851   3.953   0.290   5.553
 5367SOL     OW16852   5.190   1.417   4.677
 5367SOL    HW116853   5.131   1.423   4.757
 5367SOL    HW216854   5.175   1.329   4.631
 5368SOL     OW16855   4.322   0.729   3.994
 5368SOL    HW116856   4.346   0.798   3.926
 5368SOL    HW216857   4.244   0.762   4.048
 5369SOL     OW16858   5.005   0.345   4.668
 5369SOL    HW116859   4.919   0.295   4.655
 5369SOL    HW216860   5.067   0.291   4.724
 5370SOL     OW16861   4.531   0.605   5.189
 5370SOL    HW116862   4.484   0.602   5.278
 5370SOL    HW216863   4.480   0.550   5.123
 5371SOL     OW16864   5.118   0.469   5.398
 5371SOL    HW116865   5.098   0.512   5.486
 5371SOL    HW216866   5.196   0.407   5.407
 5372SOL     OW16867   4.697   0.890   5.296
 5372SOL    HW116868   4.743   0.806   5.267
 5372SOL    HW216869   4.641   0.924   5.221
 5373SOL     OW16870   4.715   0.410   4.966
 5373SOL    HW116871   4.638   0.444   5.020
 5373SOL    HW216872   4.681   0.359   4.887
 5374SOL     OW16873   4.765   0.701   4.153
 5374SOL    HW116874   4.791   0.697   4.249
 5374SOL    HW216875   4.680   0.650   4.139
 5375SOL     OW16876   3.800   0.811   4.513
 5375SOL    HW116877   3.899   0.799   4.522
 5375SOL    HW216878   3.776   0.906   4.534
 5376SOL     OW16879   3.854   1.821   5.295
 5376SOL    HW116880   3.844   1.806   5.394
 5376SOL    HW216881   3.768   1.857   5.259
 5377SOL     OW16882   4.589   0.348   3.919
 5377SOL    HW116883   4.648   0.411   3.870
 5377SOL    HW216884   4.608   0.254   3.890
 5378SOL     OW16885   5.086   1.144   4.269
 5378SOL    HW116886   5.169   1.115   4.221
 5378SOL    HW216887   5.037   1.211   4.213
 5379SOL     OW16888   4.274   0.196   4.609
 5379SOL    HW116889   4.269   0.191   4.709
 5379SOL    HW216890   4.276   0.292   4.580
 5380SOL     OW16891   4.732   1.456   4.201
 5380SOL    HW116892   4.686   1.528   4.149
 5380SOL    HW216893   4.728   1.476   4.299
 5381SOL     OW16894   4.075   1.801   4.577
 5381SOL    HW116895   4.125   1.715   4.583
 5381SOL    HW216896   4.140   1.878   4.574
 5382SOL     OW16897   4.951   1.550   5.230
 5382SOL    HW116898   4.957   1.473   5.294
 5382SOL    HW216899   4.899   1.524   5.150
 5383SOL     OW16900   4.045   0.943   3.966
 5383SOL    HW116901   4.127   0.982   3.924
 5383SOL    HW216902   4.018   0.861   3.917
 5384SOL     OW16903   4.185   1.266   5.451
 5384SOL    HW116904   4.135   1.267   5.365
 5384SOL    HW216905   4.122   1.248   5.527
 5385SOL     OW16906   4.835   1.776   3.961
 5385SOL    HW116907   4.775   1.714   4.011
 5385SOL    HW216908   4.866   1.732   3.876
 5386SOL     OW16909   3.926   0.285   5.222
 5386SOL    HW116910   3.846   0.345   5.209
 5386SOL    HW216911   3.916   0.236   5.308
 5387SOL     OW16912   4.188   1.743   4.047
 5387SOL    HW116913   4.221   1.782   4.133
 5387SOL    HW216914   4.264   1.736   3.982
 5388SOL     OW16915   5.124   0.107   4.150
 5388SOL    HW116916   5.100   0.070   4.060
 5388SOL    HW216917   5.223   0.123   4.154
 5389SOL     OW16918   3.973   1.785   4.965
 5389SOL    HW116919   4.030   1.720   5.015
 5389SOL    HW216920   3.957   1.752   4.872
 5390SOL     OW16921   4.664   1.698   4.628
 5390SOL    HW116922   4.744   1.641   4.649
 5390SOL    HW216923   4.615   1.658   4.551
 5391SOL     OW16924   4.106   0.700   4.204
 5391SOL    HW116925   4.151   0.610   4.201
 5391SOL    HW216926   4.012   0.689   4.237
 5392SOL     OW16927   4.338   0.122   3.841
 5392SOL    HW116928   4.436   0.100   3.848
 5392SOL    HW216929   4.307   0.105   3.748
 5393SOL     OW16930   4.505   0.264   5.473
 5393SOL    HW116931   4.572   0.203   5.516
 5393SOL    HW216932   4.432   0.283   5.538
 5394SOL     OW16933   4.612   1.514   4.919
 5394SOL    HW116934   4.589   1.489   4.825
 5394SOL    HW216935   4.673   1.445   4.958
 5395SOL     OW16936   5.075   0.590   5.157
 5395SOL    HW116937   5.103   0.547   5.242
 5395SOL    HW216938   5.100   0.686   5.158
 5396SOL     OW16939   4.527   1.402   4.648
 5396SOL    HW116940   4.617   1.416   4.606
 5396SOL    HW216941   4.456   1.404   4.577
 5397SOL     OW16942   4.646   0.503   4.623
 5397SOL    HW116943   4.621   0.494   4.527
 5397SOL    HW216944   4.694   0.421   4.654
 5398SOL     OW16945   4.263   0.064   4.236
 5398SOL    HW116946   4.182   0.065   4.294
 5398SOL    HW216947   4.266   0.147   4.181
 5399SOL     OW16948   5.158   1.188   3.765
 5399SOL    HW116949   5.190   1.112   3.822
 5399SOL    HW216950   5.066   1.215   3.795
 5400SOL     OW16951   4.021   0.035   3.895
 5400SOL    HW116952   4.070   0.119   3.874
 5400SOL    HW216953   4.083  -0.030   3.940
 5401SOL     OW16954   4.659   0.236   4.204
 5401SOL    HW116955   4.611   0.277   4.126
 5401SOL    HW216956   4.758   0.234   4.185
 5402SOL     OW16957   4.800   0.683   5.188
 5402SOL    HW116958   4.720   0.622   5.191
 5402SOL    HW216959   4.881   0.630   5.164
 5403SOL     OW16960   4.951   1.570   4.517
 5403SOL    HW116961   4.972   1.644   4.452
 5403SOL    HW216962   5.019   1.570   4.590
 5404SOL     OW16963   4.183   1.152   4.465
 5404SOL    HW116964   4.112   1.125   4.530
 5404SOL    HW216965   4.157   1.124   4.372
 5405SOL     OW16966   4.995   1.797   4.315
 5405SOL    HW116967   5.039   1.861   4.251
 5405SOL    HW216968   4.945   1.849   4.385
 5406SOL     OW16969   4.756   0.549   3.740
 5406SOL    HW116970   4.715   0.631   3.701
 5406SOL    HW216971   4.820   0.575   3.813
 5407SOL     OW16972   3.802   0.556   5.110
 5407SOL    HW116973   3.894   0.555   5.069
 5407SOL    HW216974   3.796   0.630   5.177
 5408SOL     OW16975   4.285   0.222   4.871
 5408SOL    HW116976   4.323   0.138   4.908
 5408SOL    HW216977   4.197   0.241   4.915
 5409SOL     OW16978   4.590   0.454   4.366
 5409SOL    HW116979   4.558   0.526   4.304
 5409SOL    HW216980   4.614   0.373   4.313
 5410SOL     OW16981   4.741   0.039   4.477
 5410SOL    HW116982   4.669   0.044   4.408
 5410SOL    HW216983   4.717  -0.030   4.546
 5411SOL     OW16984   5.153   1.173   4.591
 5411SOL    HW116985   5.098   1.089   4.584
 5411SOL    HW216986   5.179   1.202   4.499
 5412SOL     OW16987   4.212   1.385   3.898
 5412SOL    HW116988   4.125   1.370   3.945
 5412SOL    HW216989   4.195   1.411   3.803
 5413SOL     OW16990   5.114   0.575   3.802
 5413SOL    HW116991   5.060   0.554   3.883
 5413SOL    HW216992   5.205   0.534   3.811
 5414SOL     OW16993   4.251   0.256   4.052
 5414SOL    HW116994   4.278   0.197   3.977
 5414SOL    HW216995   4.251   0.351   4.021
 5415SOL     OW16996   4.788   1.347   5.064
 5415SOL    HW116997   4.708   1.324   5.119
 5415SOL    HW216998   4.871   1.321   5.113
 5416SOL     OW16999   5.316   1.629   5.349
 5416SOL    HW117000   5.343   1.663   5.259
 5416SOL    HW217001   5.395   1.591   5.395
 5417SOL     OW17002   4.835   1.195   4.824
 5417SOL    HW117003   4.795   1.239   4.905
 5417SOL    HW217004   4.794   1.232   4.741
 5418SOL     OW17005   4.639   0.089   5.126
 5418SOL    HW117006   4.664   0.069   5.031
 5418SOL    HW217007   4.711   0.145   5.168
 5419SOL     OW17008   4.704   1.116   5.443
 5419SOL    HW117009   4.605   1.122   5.453
 5419SOL    HW217010   4.727   1.036   5.387
 5420SOL     OW17011   4.429   1.050   4.092
 5420SOL    HW117012   4.415   1.057   4.191
 5420SOL    HW217013   4.513   0.999   4.074
 5421SOL     OW17014   4.134   0.813   4.975
 5421SOL    HW117015   4.220   0.825   5.025
 5421SOL    HW217016   4.092   0.726   5.002
 5422SOL     OW17017   4.998   0.386   4.986
 5422SOL    HW117018   5.019   0.460   5.050
 5422SOL    HW217019   4.909   0.403   4.943
 5423SOL     OW17020   3.788   1.564   5.055
 5423SOL    HW117021   3.742   1.646   5.021
 5423SOL    HW217022   3.886   1.583   5.064
 5424SOL     OW17023   4.091   1.100   4.225
 5424SOL    HW117024   4.084   1.183   4.169
 5424SOL    HW217025   4.095   1.020   4.165
 5425SOL     OW17026   4.290   0.537   4.589
 5425SOL    HW117027   4.302   0.603   4.515
 5425SOL    HW217028   4.336   0.571   4.672
 5426SOL     OW17029   4.976   1.348   4.112
 5426SOL    HW117030   5.026   1.425   4.152
 5426SOL    HW217031   4.881   1.350   4.144
 5427SOL     OW17032   4.996   1.445   4.866
 5427SOL    HW117033   5.043   1.458   4.953
 5427SOL    HW217034   4.930   1.371   4.875
 5428SOL     OW17035   4.078   1.510   5.053
 5428SOL    HW117036   4.057   1.466   4.966
 5428SOL    HW217037   4.175   1.536   5.056
 5429SOL     OW17038   4.126   0.751   5.322
 5429SOL    HW117039   4.194   0.806   5.275
 5429SOL    HW217040   4.166   0.663   5.349
 5430SOL     OW17041   4.737   0.105   5.494
 5430SOL    HW117042   4.743   0.190   5.442
 5430SOL    HW217043   4.769   0.029   5.437
 5431SOL     OW17044   4.228   0.050   5.464
 5431SOL    HW117045   4.186  -0.007   5.394
 5431SOL    HW217046   4.162   0.119   5.496
 5432SOL     OW17047   4.297   0.870   4.753
 5432SOL    HW117048   4.341   0.959   4.744
 5432SOL    HW217049   4.234   0.870   4.830
 5433SOL     OW17050   5.084   0.862   4.769
 5433SOL    HW117051   5.009   0.862   4.703
 5433SOL    HW217052   5.121   0.770   4.778
 5434SOL     OW17053   4.933   0.525   3.999
 5434SOL    HW117054   4.946   0.441   4.053
 5434SOL    HW217055   4.904   0.599   4.059
 5435SOL     OW17056   4.031   0.213   4.955
 5435SOL    HW117057   4.008   0.250   5.045
 5435SOL    HW217058   4.001   0.118   4.949
 5436SOL     OW17059   3.761   1.310   5.006
 5436SOL    HW117060   3.814   1.261   5.074
 5436SOL    HW217061   3.783   1.408   5.011
 5437SOL     OW17062   4.456   0.634   4.788
 5437SOL    HW117063   4.515   0.608   4.712
 5437SOL    HW217064   4.428   0.730   4.777
 5438SOL     OW17065   4.031   0.063   4.342
 5438SOL    HW117066   4.020   0.157   4.375
 5438SOL    HW217067   4.026   0.000   4.419
 5439SOL     OW17068   5.346   0.367   4.098
 5439SOL    HW117069   5.348   0.291   4.162
 5439SOL    HW217070   5.298   0.444   4.138
 5440SOL     OW17071   4.747   0.766   4.690
 5440SOL    HW117072   4.762   0.787   4.786
 5440SOL    HW217073   4.717   0.671   4.681
 5441SOL     OW17074   4.704   1.573   5.424
 5441SOL    HW117075   4.684   1.617   5.336
 5441SOL    HW217076   4.743   1.482   5.408
 5442SOL     OW17077   4.074   0.898   5.528
 5442SOL    HW117078   4.150   0.942   5.576
 5442SOL    HW217079   4.109   0.851   5.446
 5443SOL     OW17080   5.027   0.838   3.766
 5443SOL    HW117081   5.061   0.745   3.781
 5443SOL    HW217082   5.045   0.865   3.671
 5444SOL     OW17083   4.792   1.333   4.573
 5444SOL    HW117084   4.799   1.249   4.518
 5444SOL    HW217085   4.854   1.402   4.537
 5445SOL     OW17086   4.043   0.810   4.673
 5445SOL    HW117087   4.136   0.846   4.678
 5445SOL    HW217088   4.037   0.725   4.725
 5446SOL     OW17089   4.063   0.509   4.730
 5446SOL    HW117090   4.011   0.426   4.713
 5446SOL    HW217091   4.140   0.514   4.666
 5447SOL     OW17092   4.862   0.380   5.402
 5447SOL    HW117093   4.817   0.443   5.466
 5447SOL    HW217094   4.955   0.411   5.385
 5448SOL     OW17095   4.884   0.207   5.201
 5448SOL    HW117096   4.884   0.271   5.278
 5448SOL    HW217097   4.912   0.255   5.118
 5449SOL     OW17098   3.732   1.326   3.924
 5449SOL    HW117099   3.639   1.347   3.893
 5449SOL    HW217100   3.742   1.227   3.937
 5450SOL     OW17101   3.812   1.801   4.651
 5450SOL    HW117102   3.770   1.715   4.624
 5450SOL    HW217103   3.906   1.804   4.617
 5451SOL     OW17104   4.228   1.568   4.634
 5451SOL    HW117105   4.294   1.642   4.643
 5451SOL    HW217106   4.272   1.489   4.592
 5452SOL     OW17107   4.726   0.796   4.962
 5452SOL    HW117108   4.767   0.764   5.048
 5452SOL    HW217109   4.630   0.769   4.959
 5453SOL     OW17110   3.764   0.544   4.838
 5453SOL    HW117111   3.849   0.511   4.797
 5453SOL    HW217112   3.777   0.559   4.936
 5454SOL     OW17113   3.913   0.520   5.446
 5454SOL    HW117114   3.972   0.480   5.376
 5454SOL    HW217115   3.855   0.591   5.405
 5455SOL     OW17116   5.093   0.950   5.384
 5455SOL    HW117117   5.132   1.039   5.404
 5455SOL    HW217118   5.103   0.930   5.287
 5456SOL     OW17119   4.539   0.572   4.049
 5456SOL    HW117120   4.546   0.483   4.003
 5456SOL    HW217121   4.445   0.606   4.041
 5457SOL     OW17122   3.976   1.564   5.468
 5457SOL    HW117123   3.946   1.621   5.544
 5457SOL    HW217124   3.969   1.467   5.494
 5458SOL     OW17125   4.395   0.464   4.993
 5458SOL    HW117126   4.361   0.375   4.963
 5458SOL    HW217127   4.421   0.518   4.913
 5459SOL     OW17128   4.654   1.678   5.189
 5459SOL    HW117129   4.630   1.660   5.094
 5459SOL    HW217130   4.684   1.772   5.199
 5460SOL     OW17131   4.197   0.500   3.915
 5460SOL    HW117132   4.258   0.580   3.919
 5460SOL    HW217133   4.102   0.531   3.922
 5461SOL     OW17134   3.883   1.137   5.190
 5461SOL    HW117135   3.905   1.076   5.266
 5461SOL    HW217136   3.893   1.088   5.104
 5462SOL     OW17137   5.071   1.059   4.958
 5462SOL    HW117138   5.095   0.996   4.884
 5462SOL    HW217139   4.981   1.099   4.940
 5463SOL     OW17140   5.026   0.855   4.033
 5463SOL    HW117141   4.940   0.824   4.075
 5463SOL    HW217142   5.022   0.841   3.934
 5464SOL     OW17143   4.976   1.731   4.852
 5464SOL    HW117144   5.060   1.736   4.798
 5464SOL    HW217145   4.953   1.635   4.870
 5465SOL     OW17146   3.807   1.258   4.746
 5465SOL    HW117147   3.802   1.257   4.846
 5465SOL    HW217148   3.724   1.217   4.708
 5466SOL     OW17149   4.412   1.662   5.440
 5466SOL    HW117150   4.356   1.743   5.449
 5466SOL    HW217151   4.464   1.666   5.354
 5467SOL     OW17152   5.112   1.573   4.201
 5467SOL    HW117153   5.179   1.585   4.127
 5467SOL    HW217154   5.072   1.662   4.224
 5468SOL     OW17155   3.854   1.794   5.575
 5468SOL    HW117156   3.813   1.720   5.628
 5468SOL    HW217157   3.918   1.845   5.633
 5469SOL     OW17158   5.004   0.927   4.396
 5469SOL    HW117159   5.064   0.846   4.398
 5469SOL    HW217160   5.044   0.996   4.336
 5470SOL     OW17161   4.554   1.273   5.146
 5470SOL    HW117162   4.549   1.306   5.241
 5470SOL    HW217163   4.468   1.292   5.100
 5471SOL     OW17164   4.396   1.616   3.878
 5471SOL    HW117165   4.405   1.626   3.779
 5471SOL    HW217166   4.356   1.527   3.899
 5472SOL     OW17167   3.987   0.326   4.444
 5472SOL    HW117168   3.908   0.377   4.410
 5472SOL    HW217169   3.978   0.311   4.542
 5473SOL     OW17170   4.918   1.612   3.755
 5473SOL    HW117171   4.924   1.519   3.792
 5473SOL    HW217172   4.859   1.612   3.675
 5474SOL     OW17173   4.546   1.002   5.096
 5474SOL    HW117174   4.586   1.001   5.004
 5474SOL    HW217175   4.556   1.094   5.136
 5475SOL     OW17176   4.640   0.910   4.015
 5475SOL    HW117177   4.703   0.948   3.947
 5475SOL    HW217178   4.680   0.827   4.054
 5476SOL     OW17179   4.096   1.288   5.214
 5476SOL    HW117180   4.083   1.381   5.180
 5476SOL    HW217181   4.012   1.236   5.201
 5477SOL     OW17182   4.763   1.098   4.420
 5477SOL    HW117183   4.693   1.051   4.474
 5477SOL    HW217184   4.822   1.030   4.377
 5478SOL     OW17185   4.738   0.236   4.695
 5478SOL    HW117186   4.730   0.200   4.602
 5478SOL    HW217187   4.736   0.160   4.760
 5479SOL     OW17188   4.314   1.487   4.215
 5479SOL    HW117189   4.356   1.429   4.145
 5479SOL    HW217190   4.270   1.566   4.171
 5480SOL     OW17191   3.979   1.348   4.014
 5480SOL    HW117192   3.883   1.349   3.987
 5480SOL    HW217193   3.991   1.401   4.098
 5481SOL     OW17194   3.829   1.013   5.450
 5481SOL    HW117195   3.752   0.980   5.504
 5481SOL    HW217196   3.914   0.983   5.492
 5482SOL     OW17197   4.396   0.203   5.213
 5482SOL    HW117198   4.486   0.187   5.173
 5482SOL    HW217199   4.404   0.208   5.312
 5483SOL     OW17200   3.799   0.345   3.757
 5483SOL    HW117201   3.707   0.317   3.728
 5483SOL    HW217202   3.830   0.422   3.701
 5484SOL     OW17203   5.164   0.856   5.122
 5484SOL    HW117204   5.107   0.908   5.059
 5484SOL    HW217205   5.260   0.868   5.098
 5485SOL     OW17206   3.796   0.166   4.042
 5485SOL    HW117207   3.779   0.249   3.988
 5485SOL    HW217208   3.886   0.129   4.020
 5486SOL     OW17209   4.907   1.335   3.843
 5486SOL    HW117210   4.808   1.324   3.845
 5486SOL    HW217211   4.941   1.350   3.936
 5487SOL     OW17212   4.337   0.842   5.155
 5487SOL    HW117213   4.393   0.923   5.138
 5487SOL    HW217214   4.396   0.762   5.158
 5488SOL     OW17215   4.440   0.565   5.432
 5488SOL    HW117216   4.459   0.630   5.506
 5488SOL    HW217217   4.500   0.485   5.441
 5489SOL     OW17218   5.174   1.220   5.357
 5489SOL    HW117219   5.165   1.210   5.456
 5489SOL    HW217220   5.270   1.213   5.331
 5490SOL     OW17221   4.114   1.741   5.284
 5490SOL    HW117222   4.023   1.782   5.282
 5490SOL    HW217223   4.107   1.647   5.316
 5491SOL     OW17224   4.949   0.325   4.173
 5491SOL    HW117225   5.014   0.251   4.162
 5491SOL    HW217226   4.969   0.375   4.257
 5492SOL     OW17227   4.318   0.745   4.376
 5492SOL    HW117228   4.368   0.830   4.357
 5492SOL    HW217229   4.230   0.747   4.328
 5493SOL     OW17230   4.583   1.374   3.740
 5493SOL    HW117231   4.537   1.389   3.828
 5493SOL    HW217232   4.627   1.459   3.710
 5494SOL     OW17233   4.385   1.790   4.677
 5494SOL    HW117234   4.339   1.878   4.664
 5494SOL    HW217235   4.484   1.802   4.670
 5495SOL     OW17236   4.583   0.956   4.585
 5495SOL    HW117237   4.637   0.887   4.633
 5495SOL    HW217238   4.551   1.025   4.651
 5496SOL     OW17239   4.807   0.984   3.811
 5496SOL    HW117240   4.784   1.037   3.729
 5496SOL    HW217241   4.888   0.928   3.792
 5497SOL     OW17242   3.945   1.314   5.568
 5497SOL    HW117243   3.880   1.241   5.547
 5497SOL    HW217244   3.949   1.328   5.666
 5498SOL     OW17245   3.803   1.240   4.377
 5498SOL    HW117246   3.802   1.193   4.465
 5498SOL    HW217247   3.885   1.212   4.326
 5499SOL     OW17248   4.396   1.391   5.348
 5499SOL    HW117249   4.318   1.341   5.386
 5499SOL    HW217250   4.393   1.486   5.379
 5500SOL     OW17251   4.152   0.424   4.244
 5500SOL    HW117252   4.182   0.352   4.182
 5500SOL    HW217253   4.113   0.384   4.327
 5501SOL     OW17254   5.429   1.487   4.828
 5501SOL    HW117255   5.336   1.462   4.801
 5501SOL    HW217256   5.455   1.437   4.910
 5502SOL     OW17257   4.041   0.547   5.004
 5502SOL    HW117258   4.079   0.488   5.076
 5502SOL    HW217259   4.081   0.521   4.916
 5503SOL     OW17260   4.536   1.586   4.411
 5503SOL    HW117261   4.568   1.596   4.317
 5503SOL    HW217262   4.457   1.524   4.413
 5504SOL     OW17263   5.148   0.214   4.836
 5504SOL    HW117264   5.200   0.149   4.891
 5504SOL    HW217265   5.099   0.277   4.897
 5505SOL     OW17266   4.725   0.034   4.878
 5505SOL    HW117267   4.662  -0.038   4.847
 5505SOL    HW217268   4.818  -0.002   4.878
 5506SOL     OW17269   4.494   1.330   4.025
 5506SOL    HW117270   4.448   1.243   4.042
 5506SOL    HW217271   4.585   1.327   4.066
 5507SOL     OW17272   4.342   1.567   5.008
 5507SOL    HW117273   4.337   1.649   5.065
 5507SOL    HW217274   4.431   1.564   4.963
 5508SOL     OW17275   5.076   0.052   3.892
 5508SOL    HW117276   5.111   0.011   3.808
 5508SOL    HW217277   4.986   0.014   3.912
 5509SOL     OW17278   5.024   0.453   4.415
 5509SOL    HW117279   4.965   0.533   4.419
 5509SOL    HW217280   5.039   0.418   4.508
 5510SOL     OW17281   5.317   0.221   4.606
 5510SOL    HW117282   5.233   0.220   4.660
 5510SOL    HW217283   5.319   0.304   4.550
 5511SOL     OW17284   3.763   1.077   4.024
 5511SOL    HW117285   3.862   1.066   4.015
 5511SOL    HW217286   3.723   0.991   4.056
 5512SOL     OW17287   4.599   1.646   4.061
 5512SOL    HW117288   4.522   1.611   4.007
 5512SOL    HW217289   4.567   1.717   4.123
 5513SOL     OW17290   3.954   0.628   5.699
 5513SOL    HW117291   3.861   0.626   5.736
 5513SOL    HW217292   3.955   0.589   5.607
 5514SOL     OW17293   3.949   0.275   6.582
 5514SOL    HW117294   3.984   0.258   6.674
 5514SOL    HW217295   3.861   0.230   6.570
 5515SOL     OW17296   3.743   0.368   6.233
 5515SOL    HW117297   3.661   0.411   6.272
 5515SOL    HW217298   3.715   0.295   6.170
 5516SOL     OW17299   4.293   1.275   6.751
 5516SOL    HW117300   4.200   1.268   6.714
 5516SOL    HW217301   4.304   1.364   6.795
 5517SOL     OW17302   5.279   1.511   6.289
 5517SOL    HW117303   5.222   1.495   6.370
 5517SOL    HW217304   5.220   1.521   6.209
 5518SOL     OW17305   4.859   0.703   6.303
 5518SOL    HW117306   4.916   0.781   6.278
 5518SOL    HW217307   4.799   0.729   6.379
 5519SOL     OW17308   4.492   1.144   6.609
 5519SOL    HW117309   4.414   1.161   6.669
 5519SOL    HW217310   4.526   1.231   6.573
 5520SOL     OW17311   4.574   0.798   7.409
 5520SOL    HW117312   4.570   0.874   7.474
 5520SOL    HW217313   4.596   0.834   7.318
 5521SOL     OW17314   4.409   1.012   6.251
 5521SOL    HW117315   4.478   0.996   6.321
 5521SOL    HW217316   4.336   1.069   6.289
 5522SOL     OW17317   4.410   1.161   7.389
 5522SOL    HW117318   4.470   1.240   7.403
 5522SOL    HW217319   4.324   1.192   7.348
 5523SOL     OW17320   4.059   1.435   6.647
 5523SOL    HW117321   3.981   1.404   6.594
 5523SOL    HW217322   4.117   1.493   6.590
 5524SOL     OW17323   5.184   1.505   6.925
 5524SOL    HW117324   5.208   1.599   6.951
 5524SOL    HW217325   5.168   1.451   7.007
 5525SOL     OW17326   4.162   0.392   7.085
 5525SOL    HW117327   4.244   0.336   7.094
 5525SOL    HW217328   4.081   0.334   7.089
 5526SOL     OW17329   3.955   1.713   6.069
 5526SOL    HW117330   3.989   1.790   6.123
 5526SOL    HW217331   3.999   1.713   5.979
 5527SOL     OW17332   4.851   1.341   7.276
 5527SOL    HW117333   4.898   1.341   7.364
 5527SOL    HW217334   4.803   1.254   7.265
 5528SOL     OW17335   3.954   1.434   6.124
 5528SOL    HW117336   3.928   1.530   6.124
 5528SOL    HW217337   3.883   1.380   6.169
 5529SOL     OW17338   3.964   1.091   6.472
 5529SOL    HW117339   3.978   1.007   6.524
 5529SOL    HW217340   3.909   1.155   6.527
 5530SOL     OW17341   4.344   1.786   7.025
 5530SOL    HW117342   4.252   1.769   7.060
 5530SOL    HW217343   4.372   1.878   7.051
 5531SOL     OW17344   4.330   0.964   5.709
 5531SOL    HW117345   4.337   1.048   5.655
 5531SOL    HW217346   4.376   0.977   5.797
 5532SOL     OW17347   5.318   0.114   7.066
 5532SOL    HW117348   5.300   0.181   6.994
 5532SOL    HW217349   5.315   0.160   7.155
 5533SOL     OW17350   3.846   0.643   6.149
 5533SOL    HW117351   3.801   0.555   6.166
 5533SOL    HW217352   3.845   0.697   6.233
 5534SOL     OW17353   3.751   1.596   5.703
 5534SOL    HW117354   3.732   1.500   5.724
 5534SOL    HW217355   3.718   1.654   5.778
 5535SOL     OW17356   5.413   0.922   6.198
 5535SOL    HW117357   5.508   0.893   6.206
 5535SOL    HW217358   5.405   0.987   6.123
 5536SOL     OW17359   3.837   0.737   7.183
 5536SOL    HW117360   3.925   0.724   7.228
 5536SOL    HW217361   3.824   0.834   7.161
 5537SOL     OW17362   4.337   1.365   6.312
 5537SOL    HW117363   4.288   1.278   6.321
 5537SOL    HW217364   4.314   1.408   6.225
 5538SOL     OW17365   5.017   1.228   7.009
 5538SOL    HW117366   5.054   1.155   6.951
 5538SOL    HW217367   5.069   1.233   7.094
 5539SOL     OW17368   4.533   0.004   6.088
 5539SOL    HW117369   4.573   0.095   6.079
 5539SOL    HW217370   4.433   0.012   6.094
 5540SOL     OW17371   3.921   0.976   6.850
 5540SOL    HW117372   4.010   0.931   6.836
 5540SOL    HW217373   3.848   0.911   6.831
 5541SOL     OW17374   4.911   1.792   7.202
 5541SOL    HW117375   4.935   1.852   7.126
 5541SOL    HW217376   4.918   1.697   7.172
 5542SOL     OW17377   4.041   0.251   7.387
 5542SOL    HW117378   4.112   0.322   7.393
 5542SOL    HW217379   3.953   0.290   7.415
 5543SOL     OW17380   5.190   1.417   6.539
 5543SOL    HW117381   5.131   1.423   6.619
 5543SOL    HW217382   5.175   1.329   6.493
 5544SOL     OW17383   4.322   0.729   5.856
 5544SOL    HW117384   4.346   0.798   5.788
 5544SOL    HW217385   4.244   0.762   5.910
 5545SOL     OW17386   5.005   0.345   6.530
 5545SOL    HW117387   4.919   0.295   6.517
 5545SOL    HW217388   5.067   0.291   6.586
 5546SOL     OW17389   4.531   0.605   7.051
 5546SOL    HW117390   4.484   0.602   7.140
 5546SOL    HW217391   4.480   0.550   6.985
 5547SOL     OW17392   5.118   0.469   7.260
 5547SOL    HW117393   5.098   0.512   7.348
 5547SOL    HW217394   5.196   0.407   7.269
 5548SOL     OW17395   4.697   0.890   7.158
 5548SOL    HW117396   4.743   0.806   7.129
 5548SOL    HW217397   4.641   0.924   7.083
 5549SOL     OW17398   4.715   0.410   6.828
 5549SOL    HW117399   4.638   0.444   6.882
 5549SOL    HW217400   4.681   0.359   6.749
 5550SOL     OW17401   4.765   0.701   6.015
 5550SOL    HW117402   4.791   0.697   6.111
 5550SOL    HW217403   4.680   0.650   6.001
 5551SOL     OW17404   3.800   0.811   6.375
 5551SOL    HW117405   3.899   0.799   6.384
 5551SOL    HW217406   3.776   0.906   6.396
 5552SOL     OW17407   3.854   1.821   7.157
 5552SOL    HW117408   3.844   1.806   7.256
 5552SOL    HW217409   3.768   1.857   7.121
 5553SOL     OW17410   4.589   0.348   5.781
 5553SOL    HW117411   4.648   0.411   5.732
 5553SOL    HW217412   4.608   0.254   5.752
 5554SOL     OW17413   5.086   1.144   6.131
 5554SOL    HW117414   5.169   1.115   6.083
 5554SOL    HW217415   5.037   1.211   6.075
 5555SOL     OW17416   4.274   0.196   6.471
 5555SOL    HW117417   4.269   0.191   6.571
 5555SOL    HW217418   4.276   0.292   6.442
 5556SOL     OW17419   4.732   1.456   6.063
 5556SOL    HW117420   4.686   1.528   6.011
 5556SOL    HW217421   4.728   1.476   6.161
 5557SOL     OW17422   4.075   1.801   6.439
 5557SOL    HW117423   4.125   1.715   6.445
 5557SOL    HW217424   4.140   1.878   6.436
 5558SOL     OW17425   4.951   1.550   7.092
 5558SOL    HW117426   4.957   1.473   7.156
 5558SOL    HW217427   4.899   1.524   7.012
 5559SOL     OW17428   4.045   0.943   5.828
 5559SOL    HW117429   4.127   0.982   5.786
 5559SOL    HW217430   4.018   0.861   5.779
 5560SOL     OW17431   4.185   1.266   7.313
 5560SOL    HW117432   4.135   1.267   7.227
 5560SOL    HW217433   4.122   1.248   7.389
 5561SOL     OW17434   4.835   1.776   5.823
 5561SOL    HW117435   4.775   1.714   5.873
 5561SOL    HW217436   4.866   1.732   5.738
 5562SOL     OW17437   3.926   0.285   7.084
 5562SOL    HW117438   3.846   0.345   7.071
 5562SOL    HW217439   3.916   0.236   7.170
 5563SOL     OW17440   4.188   1.743   5.909
 5563SOL    HW117441   4.221   1.782   5.995
 5563SOL    HW217442   4.264   1.736   5.844
 5564SOL     OW17443   5.124   0.107   6.012
 5564SOL    HW117444   5.100   0.070   5.922
 5564SOL    HW217445   5.223   0.123   6.016
 5565SOL     OW17446   3.973   1.785   6.827
 5565SOL    HW117447   4.030   1.720   6.877
 5565SOL    HW217448   3.957   1.752   6.734
 5566SOL     OW17449   4.664   1.698   6.490
 5566SOL    HW117450   4.744   1.641   6.511
 5566SOL    HW217451   4.615   1.658   6.413
 5567SOL     OW17452   4.106   0.700   6.066
 5567SOL    HW117453   4.151   0.610   6.063
 5567SOL    HW217454   4.012   0.689   6.099
 5568SOL     OW17455   4.338   0.122   5.703
 5568SOL    HW117456   4.436   0.100   5.710
 5568SOL    HW217457   4.307   0.105   5.610
 5569SOL     OW17458   4.505   0.264   7.335
 5569SOL    HW117459   4.572   0.203   7.378
 5569SOL    HW217460   4.432   0.283   7.400
 5570SOL     OW17461   4.612   1.514   6.781
 5570SOL    HW117462   4.589   1.489   6.687
 5570SOL    HW217463   4.673   1.445   6.820
 5571SOL     OW17464   5.075   0.590   7.019
 5571SOL    HW117465   5.103   0.547   7.104
 5571SOL    HW217466   5.100   0.686   7.020
 5572SOL     OW17467   4.527   1.402   6.510
 5572SOL    HW117468   4.617   1.416   6.468
 5572SOL    HW217469   4.456   1.404   6.439
 5573SOL     OW17470   4.646   0.503   6.485
 5573SOL    HW117471   4.621   0.494   6.389
 5573SOL    HW217472   4.694   0.421   6.516
 5574SOL     OW17473   4.263   0.064   6.098
 5574SOL    HW117474   4.182   0.065   6.156
 5574SOL    HW217475   4.266   0.147   6.043
 5575SOL     OW17476   5.158   1.188   5.627
 5575SOL    HW117477   5.190   1.112   5.684
 5575SOL    HW217478   5.066   1.215   5.657
 5576SOL     OW17479   4.021   0.035   5.757
 5576SOL    HW117480   4.070   0.119   5.736
 5576SOL    HW217481   4.083  -0.030   5.802
 5577SOL     OW17482   4.659   0.236   6.066
 5577SOL    HW117483   4.611   0.277   5.988
 5577SOL    HW217484   4.758   0.234   6.047
 5578SOL     OW17485   4.800   0.683   7.050
 5578SOL    HW117486   4.720   0.622   7.053
 5578SOL    HW217487   4.881   0.630   7.026
 5579SOL     OW17488   4.951   1.570   6.379
 5579SOL    HW117489   4.972   1.644   6.314
 5579SOL    HW217490   5.019   1.570   6.452
 5580SOL     OW17491   4.183   1.152   6.327
 5580SOL    HW117492   4.112   1.125   6.392
 5580SOL    HW217493   4.157   1.124   6.234
 5581SOL     OW17494   4.995   1.797   6.177
 5581SOL    HW117495   5.039   1.861   6.113
 5581SOL    HW217496   4.945   1.849   6.247
 5582SOL     OW17497   4.756   0.549   5.602
 5582SOL    HW117498   4.715   0.631   5.563
 5582SOL    HW217499   4.820   0.575   5.675
 5583SOL     OW17500   3.802   0.556   6.972
 5583SOL    HW117501   3.894   0.555   6.931
 5583SOL    HW217502   3.796   0.630   7.039
 5584SOL     OW17503   4.285   0.222   6.733
 5584SOL    HW117504   4.323   0.138   6.770
 5584SOL    HW217505   4.197   0.241   6.777
 5585SOL     OW17506   4.590   0.454   6.228
 5585SOL    HW117507   4.558   0.526   6.166
 5585SOL    HW217508   4.614   0.373   6.175
 5586SOL     OW17509   4.741   0.039   6.339
 5586SOL    HW117510   4.669   0.044   6.270
 5586SOL    HW217511   4.717  -0.030   6.408
 5587SOL     OW17512   5.153   1.173   6.453
 5587SOL    HW117513   5.098   1.089   6.446
 5587SOL    HW217514   5.179   1.202   6.361
 5588SOL     OW17515   4.212   1.385   5.760
 5588SOL    HW117516   4.125   1.370   5.807
 5588SOL    HW217517   4.195   1.411   5.665
 5589SOL     OW17518   5.114   0.575   5.664
 5589SOL    HW117519   5.060   0.554   5.745
 5589SOL    HW217520   5.205   0.534   5.673
 5590SOL     OW17521   4.251   0.256   5.914
 5590SOL    HW117522   4.278   0.197   5.839
 5590SOL    HW217523   4.251   0.351   5.883
 5591SOL     OW17524   4.788   1.347   6.926
 5591SOL    HW117525   4.708   1.324   6.981
 5591SOL    HW217526   4.871   1.321   6.975
 5592SOL     OW17527   5.316   1.629   7.211
 5592SOL    HW117528   5.343   1.663   7.121
 5592SOL    HW217529   5.395   1.591   7.257
 5593SOL     OW17530   4.835   1.195   6.686
 5593SOL    HW117531   4.795   1.239   6.767
 5593SOL    HW217532   4.794   1.232   6.603
 5594SOL     OW17533   4.639   0.089   6.988
 5594SOL    HW117534   4.664   0.069   6.893
 5594SOL    HW217535   4.711   0.145   7.030
 5595SOL     OW17536   4.704   1.116   7.305
 5595SOL    HW117537   4.605   1.122   7.315
 5595SOL    HW217538   4.727   1.036   7.249
 5596SOL     OW17539   4.429   1.050   5.954
 5596SOL    HW117540   4.415   1.057   6.053
 5596SOL    HW217541   4.513   0.999   5.936
 5597SOL     OW17542   4.134   0.813   6.837
 5597SOL    HW117543   4.220   0.825   6.887
 5597SOL    HW217544   4.092   0.726   6.864
 5598SOL     OW17545   4.998   0.386   6.848
 5598SOL    HW117546   5.019   0.460   6.912
 5598SOL    HW217547   4.909   0.403   6.805
 5599SOL     OW17548   3.788   1.564   6.917
 5599SOL    HW117549   3.742   1.646   6.883
 5599SOL    HW217550   3.886   1.583   6.926
 5600SOL     OW17551   4.091   1.100   6.087
 5600SOL    HW117552   4.084   1.183   6.031
 5600SOL    HW217553   4.095   1.020   6.027
 5601SOL     OW17554   4.290   0.537   6.451
 5601SOL    HW117555   4.302   0.603   6.377
 5601SOL    HW217556   4.336   0.571   6.534
 5602SOL     OW17557   4.976   1.348   5.974
 5602SOL    HW117558   5.026   1.425   6.014
 5602SOL    HW217559   4.881   1.350   6.006
 5603SOL     OW17560   4.996   1.445   6.728
 5603SOL    HW117561   5.043   1.458   6.815
 5603SOL    HW217562   4.930   1.371   6.737
 5604SOL     OW17563   4.078   1.510   6.915
 5604SOL    HW117564   4.057   1.466   6.828
 5604SOL    HW217565   4.175   1.536   6.918
 5605SOL     OW17566   4.126   0.751   7.184
 5605SOL    HW117567   4.194   0.806   7.137
 5605SOL    HW217568   4.166   0.663   7.211
 5606SOL     OW17569   4.737   0.105   7.356
 5606SOL    HW117570   4.743   0.190   7.304
 5606SOL    HW217571   4.769   0.029   7.299
 5607SOL     OW17572   4.228   0.050   7.326
 5607SOL    HW117573   4.186  -0.007   7.256
 5607SOL    HW217574   4.162   0.119   7.358
 5608SOL     OW17575   4.297   0.870   6.615
 5608SOL    HW117576   4.341   0.959   6.606
 5608SOL    HW217577   4.234   0.870   6.692
 5609SOL     OW17578   5.084   0.862   6.631
 5609SOL    HW117579   5.009   0.862   6.565
 5609SOL    HW217580   5.121   0.770   6.640
 5610SOL     OW17581   4.933   0.525   5.861
 5610SOL    HW117582   4.946   0.441   5.915
 5610SOL    HW217583   4.904   0.599   5.921
 5611SOL     OW17584   4.031   0.213   6.817
 5611SOL    HW117585   4.008   0.250   6.907
 5611SOL    HW217586   4.001   0.118   6.811
 5612SOL     OW17587   3.761   1.310   6.868
 5612SOL    HW117588   3.814   1.261   6.936
 5612SOL    HW217589   3.783   1.408   6.873
 5613SOL     OW17590   4.456   0.634   6.650
 5613SOL    HW117591   4.515   0.608   6.574
 5613SOL    HW217592   4.428   0.730   6.639
 5614SOL     OW17593   4.031   0.063   6.204
 5614SOL    HW117594   4.020   0.157   6.237
 5614SOL    HW217595   4.026   0.000   6.281
 5615SOL     OW17596   5.346   0.367   5.960
 5615SOL    HW117597   5.348   0.291   6.024
 5615SOL    HW217598   5.298   0.444   6.000
 5616SOL     OW17599   4.747   0.766   6.552
 5616SOL    HW117600   4.762   0.787   6.648
 5616SOL    HW217601   4.717   0.671   6.543
 5617SOL     OW17602   4.704   1.573   7.286
 5617SOL    HW117603   4.684   1.617   7.198
 5617SOL    HW217604   4.743   1.482   7.270
 5618SOL     OW17605   4.074   0.898   7.390
 5618SOL    HW117606   4.150   0.942   7.438
 5618SOL    HW217607   4.109   0.851   7.308
 5619SOL     OW17608   5.027   0.838   5.628
 5619SOL    HW117609   5.061   0.745   5.643
 5619SOL    HW217610   5.045   0.865   5.533
 5620SOL     OW17611   4.792   1.333   6.435
 5620SOL    HW117612   4.799   1.249   6.380
 5620SOL    HW217613   4.854   1.402   6.399
 5621SOL     OW17614   4.043   0.810   6.535
 5621SOL    HW117615   4.136   0.846   6.540
 5621SOL    HW217616   4.037   0.725   6.587
 5622SOL     OW17617   4.063   0.509   6.592
 5622SOL    HW117618   4.011   0.426   6.575
 5622SOL    HW217619   4.140   0.514   6.528
 5623SOL     OW17620   4.862   0.380   7.264
 5623SOL    HW117621   4.817   0.443   7.328
 5623SOL    HW217622   4.955   0.411   7.247
 5624SOL     OW17623   4.884   0.207   7.063
 5624SOL    HW117624   4.884   0.271   7.140
 5624SOL    HW217625   4.912   0.255   6.980
 5625SOL     OW17626   3.732   1.326   5.786
 5625SOL    HW117627   3.639   1.347   5.755
 5625SOL    HW217628   3.742   1.227   5.799
 5626SOL     OW17629   3.812   1.801   6.513
 5626SOL    HW117630   3.770   1.715   6.486
 5626SOL    HW217631   3.906   1.804   6.479
 5627SOL     OW17632   4.228   1.568   6.496
 5627SOL    HW117633   4.294   1.642   6.505
 5627SOL    HW217634   4.272   1.489   6.454
 5628SOL     OW17635   4.726   0.796   6.824
 5628SOL    HW117636   4.767   0.764   6.910
 5628SOL    HW217637   4.630   0.769   6.821
 5629SOL     OW17638   3.764   0.544   6.700
 5629SOL    HW117639   3.849   0.511   6.659
 5629SOL    HW217640   3.777   0.559   6.798
 5630SOL     OW17641   3.913   0.520   7.308
 5630SOL    HW117642   3.972   0.480   7.238
 5630SOL    HW217643   3.855   0.591   7.267
 5631SOL     OW17644   5.093   0.950   7.246
 5631SOL    HW117645   5.132   1.039   7.266
 5631SOL    HW217646   5.103   0.930   7.149
 5632SOL     OW17647   4.539   0.572   5.911
 5632SOL    HW117648   4.546   0.483   5.865
 5632SOL    HW217649   4.445   0.606   5.903
 5633SOL     OW17650   3.976   1.564   7.330
 5633SOL    HW117651   3.946   1.621   7.406
 5633SOL    HW217652   3.969   1.467   7.356
 5634SOL     OW17653   4.395   0.464   6.855
 5634SOL    HW117654   4.361   0.375   6.825
 5634SOL    HW217655   4.421   0.518   6.775
 5635SOL     OW17656   4.654   1.678   7.051
 5635SOL    HW117657   4.630   1.660   6.956
 5635SOL    HW217658   4.684   1.772   7.061
 5636SOL     OW17659   4.197   0.500   5.777
 5636SOL    HW117660   4.258   0.580   5.781
 5636SOL    HW217661   4.102   0.531   5.784
 5637SOL     OW17662   3.883   1.137   7.052
 5637SOL    HW117663   3.905   1.076   7.128
 5637SOL    HW217664   3.893   1.088   6.966
 5638SOL     OW17665   5.071   1.059   6.820
 5638SOL    HW117666   5.095   0.996   6.746
 5638SOL    HW217667   4.981   1.099   6.802
 5639SOL     OW17668   5.026   0.855   5.895
 5639SOL    HW117669   4.940   0.824   5.937
 5639SOL    HW217670   5.022   0.841   5.796
 5640SOL     OW17671   4.976   1.731   6.714
 5640SOL    HW117672   5.060   1.736   6.660
 5640SOL    HW217673   4.953   1.635   6.732
 5641SOL     OW17674   3.807   1.258   6.608
 5641SOL    HW117675   3.802   1.257   6.708
 5641SOL    HW217676   3.724   1.217   6.570
 5642SOL     OW17677   4.412   1.662   7.302
 5642SOL    HW117678   4.356   1.743   7.311
 5642SOL    HW217679   4.464   1.666   7.216
 5643SOL     OW17680   5.112   1.573   6.063
 5643SOL    HW117681   5.179   1.585   5.989
 5643SOL    HW217682   5.072   1.662   6.086
 5644SOL     OW17683   3.854   1.794   7.437
 5644SOL    HW117684   3.813   1.720   7.490
 5644SOL    HW217685   3.918   1.845   7.495
 5645SOL     OW17686   5.004   0.927   6.258
 5645SOL    HW117687   5.064   0.846   6.260
 5645SOL    HW217688   5.044   0.996   6.198
 5646SOL     OW17689   4.554   1.273   7.008
 5646SOL    HW117690   4.549   1.306   7.103
 5646SOL    HW217691   4.468   1.292   6.962
 5647SOL     OW17692   4.396   1.616   5.740
 5647SOL    HW117693   4.405   1.626   5.641
 5647SOL    HW217694   4.356   1.527   5.761
 5648SOL     OW17695   3.987   0.326   6.306
 5648SOL    HW117696   3.908   0.377   6.272
 5648SOL    HW217697   3.978   0.311   6.404
 5649SOL     OW17698   4.918   1.612   5.617
 5649SOL    HW117699   4.924   1.519   5.654
 5649SOL    HW217700   4.859   1.612   5.537
 5650SOL     OW17701   4.546   1.002   6.958
 5650SOL    HW117702   4.586   1.001   6.866
 5650SOL    HW217703   4.556   1.094   6.998
 5651SOL     OW17704   4.640   0.910   5.877
 5651SOL    HW117705   4.703   0.948   5.809
 5651SOL    HW217706   4.680   0.827   5.916
 5652SOL     OW17707   4.096   1.288   7.076
 5652SOL    HW117708   4.083   1.381   7.042
 5652SOL    HW217709   4.012   1.236   7.063
 5653SOL     OW17710   4.763   1.098   6.282
 5653SOL    HW117711   4.693   1.051   6.336
 5653SOL    HW217712   4.822   1.030   6.239
 5654SOL     OW17713   4.738   0.236   6.557
 5654SOL    HW117714   4.730   0.200   6.464
 5654SOL    HW217715   4.736   0.160   6.622
 5655SOL     OW17716   4.314   1.487   6.077
 5655SOL    HW117717   4.356   1.429   6.007
 5655SOL    HW217718   4.270   1.566   6.033
 5656SOL     OW17719   3.979   1.348   5.876
 5656SOL    HW117720   3.883   1.349   5.849
 5656SOL    HW217721   3.991   1.401   5.960
 5657SOL     OW17722   3.829   1.013   7.312
 5657SOL    HW117723   3.752   0.980   7.366
 5657SOL    HW217724   3.914   0.983   7.354
 5658SOL     OW17725   4.396   0.203   7.075
 5658SOL    HW117726   4.486   0.187   7.035
 5658SOL    HW217727   4.404   0.208   7.174
 5659SOL     OW17728   3.799   0.345   5.619
 5659SOL    HW117729   3.707   0.317   5.590
 5659SOL    HW217730   3.830   0.422   5.563
 5660SOL     OW17731   5.164   0.856   6.984
 5660SOL    HW117732   5.107   0.908   6.921
 5660SOL    HW217733   5.260   0.868   6.960
 5661SOL     OW17734   3.796   0.166   5.904
 5661SOL    HW117735   3.779   0.249   5.850
 5661SOL    HW217736   3.886   0.129   5.882
 5662SOL     OW17737   4.907   1.335   5.705
 5662SOL    HW117738   4.808   1.324   5.707
 5662SOL    HW217739   4.941   1.350   5.798
 5663SOL     OW17740   4.337   0.842   7.017
 5663SOL    HW117741   4.393   0.923   7.000
 5663SOL    HW217742   4.396   0.762   7.020
 5664SOL     OW17743   4.440   0.565   7.294
 5664SOL    HW117744   4.459   0.630   7.368
 5664SOL    HW217745   4.500   0.485   7.303
 5665SOL     OW17746   5.174   1.220   7.219
 5665SOL    HW117747   5.165   1.210   7.318
 5665SOL    HW217748   5.270   1.213   7.193
 5666SOL     OW17749   4.114   1.741   7.146
 5666SOL    HW117750   4.023   1.782   7.144
 5666SOL    HW217751   4.107   1.647   7.178
 5667SOL     OW17752   4.949   0.325   6.035
 5667SOL    HW117753   5.014   0.251   6.024
 5667SOL    HW217754   4.969   0.375   6.119
 5668SOL     OW17755   4.318   0.745   6.238
 5668SOL    HW117756   4.368   0.830   6.219
 5668SOL    HW217757   4.230   0.747   6.190
 5669SOL     OW17758   4.583   1.374   5.602
 5669SOL    HW117759   4.537   1.389   5.690
 5669SOL    HW217760   4.627   1.459   5.572
 5670SOL     OW17761   4.385   1.790   6.539
 5670SOL    HW117762   4.339   1.878   6.526
 5670SOL    HW217763   4.484   1.802   6.532
 5671SOL     OW17764   4.583   0.956   6.447
 5671SOL    HW117765   4.637   0.887   6.495
 5671SOL    HW217766   4.551   1.025   6.513
 5672SOL     OW17767   4.807   0.984   5.673
 5672SOL    HW117768   4.784   1.037   5.591
 5672SOL    HW217769   4.888   0.928   5.654
 5673SOL     OW17770   3.945   1.314   7.430
 5673SOL    HW117771   3.880   1.241   7.409
 5673SOL    HW217772   3.949   1.328   7.528
 5674SOL     OW17773   3.803   1.240   6.239
 5674SOL    HW117774   3.802   1.193   6.327
 5674SOL    HW217775   3.885   1.212   6.188
 5675SOL     OW17776   4.396   1.391   7.210
 5675SOL    HW117777   4.318   1.341   7.248
 5675SOL    HW217778   4.393   1.486   7.241
 5676SOL     OW17779   4.152   0.424   6.106
 5676SOL    HW117780   4.182   0.352   6.044
 5676SOL    HW217781   4.113   0.384   6.189
 5677SOL     OW17782   5.429   1.487   6.690
 5677SOL    HW117783   5.336   1.462   6.663
 5677SOL    HW217784   5.455   1.437   6.772
 5678SOL     OW17785   4.041   0.547   6.866
 5678SOL    HW117786   4.079   0.488   6.938
 5678SOL    HW217787   4.081   0.521   6.778
 5679SOL     OW17788   4.536   1.586   6.273
 5679SOL    HW117789   4.568   1.596   6.179
 5679SOL    HW217790   4.457   1.524   6.275
 5680SOL     OW17791   5.148   0.214   6.698
 5680SOL    HW117792   5.200   0.149   6.753
 5680SOL    HW217793   5.099   0.277   6.759
 5681SOL     OW17794   4.725   0.034   6.740
 5681SOL    HW117795   4.662  -0.038   6.709
 5681SOL    HW217796   4.818  -0.002   6.740
 5682SOL     OW17797   4.494   1.330   5.887
 5682SOL    HW117798   4.448   1.243   5.904
 5682SOL    HW217799   4.585   1.327   5.928
 5683SOL     OW17800   4.342   1.567   6.870
 5683SOL    HW117801   4.337   1.649   6.927
 5683SOL    HW217802   4.431   1.564   6.825
 5684SOL     OW17803   5.076   0.052   5.754
 5684SOL    HW117804   5.111   0.011   5.670
 5684SOL    HW217805   4.986   0.014   5.774
 5685SOL     OW17806   5.024   0.453   6.277
 5685SOL    HW117807   4.965   0.533   6.281
 5685SOL    HW217808   5.039   0.418   6.370
 5686SOL     OW17809   5.317   0.221   6.468
 5686SOL    HW117810   5.233   0.220   6.522
 5686SOL    HW217811   5.319   0.304   6.412
 5687SOL     OW17812   3.763   1.077   5.886
 5687SOL    HW117813   3.862   1.066   5.877
 5687SOL    HW217814   3.723   0.991   5.918
 5688SOL     OW17815   4.599   1.646   5.923
 5688SOL    HW117816   4.522   1.611   5.869
 5688SOL    HW217817   4.567   1.717   5.985
 5689SOL     OW17818   3.954   0.628   7.561
 5689SOL    HW117819   3.861   0.626   7.598
 5689SOL    HW217820   3.955   0.589   7.469
 5690SOL     OW17821   3.955   1.713   7.931
 5690SOL    HW117822   3.989   1.790   7.985
 5690SOL    HW217823   3.999   1.713   7.841
 5691SOL     OW17824   3.954   1.434   7.986
 5691SOL    HW117825   3.928   1.530   7.986
 5691SOL    HW217826   3.883   1.380   8.031
 5692SOL     OW17827   4.330   0.964   7.571
 5692SOL    HW117828   4.337   1.048   7.517
 5692SOL    HW217829   4.376   0.977   7.659
 5693SOL     OW17830   3.751   1.596   7.565
 5693SOL    HW117831   3.732   1.500   7.586
 5693SOL    HW217832   3.718   1.654   7.640
 5694SOL     OW17833   5.413   0.922   8.060
 5694SOL    HW117834   5.508   0.893   8.068
 5694SOL    HW217835   5.405   0.987   7.985
 5695SOL     OW17836   4.533   0.004   7.950
 5695SOL    HW117837   4.573   0.095   7.941
 5695SOL    HW217838   4.433   0.012   7.956
 5696SOL     OW17839   4.322   0.729   7.718
 5696SOL    HW117840   4.346   0.798   7.650
 5696SOL    HW217841   4.244   0.762   7.772
 5697SOL     OW17842   3.800   0.811   8.237
 5697SOL    HW117843   3.899   0.799   8.246
 5697SOL    HW217844   3.776   0.906   8.258
 5698SOL     OW17845   4.589   0.348   7.643
 5698SOL    HW117846   4.648   0.411   7.594
 5698SOL    HW217847   4.608   0.254   7.614
 5699SOL     OW17848   4.045   0.943   7.690
 5699SOL    HW117849   4.127   0.982   7.648
 5699SOL    HW217850   4.018   0.861   7.641
 5700SOL     OW17851   4.835   1.776   7.685
 5700SOL    HW117852   4.775   1.714   7.735
 5700SOL    HW217853   4.866   1.732   7.600
 5701SOL     OW17854   4.188   1.743   7.771
 5701SOL    HW117855   4.221   1.782   7.857
 5701SOL    HW217856   4.264   1.736   7.706
 5702SOL     OW17857   5.124   0.107   7.874
 5702SOL    HW117858   5.100   0.070   7.784
 5702SOL    HW217859   5.223   0.123   7.878
 5703SOL     OW17860   4.106   0.700   7.928
 5703SOL    HW117861   4.151   0.610   7.925
 5703SOL    HW217862   4.012   0.689   7.961
 5704SOL     OW17863   4.338   0.122   7.565
 5704SOL    HW117864   4.436   0.100   7.572
 5704SOL    HW217865   4.307   0.105   7.472
 5705SOL     OW17866   4.263   0.064   7.960
 5705SOL    HW117867   4.182   0.065   8.018
 5705SOL    HW217868   4.266   0.147   7.905
 5706SOL     OW17869   5.158   1.188   7.489
 5706SOL    HW117870   5.190   1.112   7.546
 5706SOL    HW217871   5.066   1.215   7.519
 5707SOL     OW17872   4.021   0.035   7.619
 5707SOL    HW117873   4.070   0.119   7.598
 5707SOL    HW217874   4.083  -0.030   7.664
 5708SOL     OW17875   4.659   0.236   7.928
 5708SOL    HW117876   4.611   0.277   7.850
 5708SOL    HW217877   4.758   0.234   7.909
 5709SOL     OW17878   4.183   1.152   8.189
 5709SOL    HW117879   4.112   1.125   8.254
 5709SOL    HW217880   4.157   1.124   8.096
 5710SOL     OW17881   4.995   1.797   8.039
 5710SOL    HW117882   5.039   1.861   7.975
 5710SOL    HW217883   4.945   1.849   8.109
 5711SOL     OW17884   4.756   0.549   7.464
 5711SOL    HW117885   4.715   0.631   7.425
 5711SOL    HW217886   4.820   0.575   7.537
 5712SOL     OW17887   4.212   1.385   7.622
 5712SOL    HW117888   4.125   1.370   7.669
 5712SOL    HW217889   4.195   1.411   7.527
 5713SOL     OW17890   5.114   0.575   7.526
 5713SOL    HW117891   5.060   0.554   7.607
 5713SOL    HW217892   5.205   0.534   7.535
 5714SOL     OW17893   4.251   0.256   7.776
 5714SOL    HW117894   4.278   0.197   7.701
 5714SOL    HW217895   4.251   0.351   7.745
 5715SOL     OW17896   4.429   1.050   7.816
 5715SOL    HW117897   4.415   1.057   7.915
 5715SOL    HW217898   4.513   0.999   7.798
 5716SOL     OW17899   4.091   1.100   7.949
 5716SOL    HW117900   4.084   1.183   7.893
 5716SOL    HW217901   4.095   1.020   7.889
 5717SOL     OW17902   4.976   1.348   7.836
 5717SOL    HW117903   5.026   1.425   7.876
 5717SOL    HW217904   4.881   1.350   7.868
 5718SOL     OW17905   5.306   0.639   7.920
 5718SOL    HW117906   5.275   0.700   7.993
 5718SOL    HW217907   5.356   0.691   7.851
 5719SOL     OW17908   4.933   0.525   7.723
 5719SOL    HW117909   4.946   0.441   7.777
 5719SOL    HW217910   4.904   0.599   7.783
 5720SOL     OW17911   5.346   0.367   7.822
 5720SOL    HW117912   5.348   0.291   7.886
 5720SOL    HW217913   5.298   0.444   7.862
 5721SOL     OW17914   5.027   0.838   7.490
 5721SOL    HW117915   5.061   0.745   7.505
 5721SOL    HW217916   5.045   0.865   7.395
 5722SOL     OW17917   3.732   1.326   7.648
 5722SOL    HW117918   3.639   1.347   7.617
 5722SOL    HW217919   3.742   1.227   7.661
 5723SOL     OW17920   4.539   0.572   7.773
 5723SOL    HW117921   4.546   0.483   7.727
 5723SOL    HW217922   4.445   0.606   7.765
 5724SOL     OW17923   4.197   0.500   7.639
 5724SOL    HW117924   4.258   0.580   7.643
 5724SOL    HW217925   4.102   0.531   7.646
 5725SOL     OW17926   5.026   0.855   7.757
 5725SOL    HW117927   4.940   0.824   7.799
 5725SOL    HW217928   5.022   0.841   7.658
 5726SOL     OW17929   5.112   1.573   7.925
 5726SOL    HW117930   5.179   1.585   7.851
 5726SOL    HW217931   5.072   1.662   7.948
 5727SOL     OW17932   4.396   1.616   7.602
 5727SOL    HW117933   4.405   1.626   7.503
 5727SOL    HW217934   4.356   1.527   7.623
 5728SOL     OW17935   4.918   1.612   7.479
 5728SOL    HW117936   4.924   1.519   7.516
 5728SOL    HW217937   4.859   1.612   7.399
 5729SOL     OW17938   4.640   0.910   7.739
 5729SOL    HW117939   4.703   0.948   7.671
 5729SOL    HW217940   4.680   0.827   7.778
 5730SOL     OW17941   4.314   1.487   7.939
 5730SOL    HW117942   4.356   1.429   7.869
 5730SOL    HW217943   4.270   1.566   7.895
 5731SOL     OW17944   3.979   1.348   7.738
 5731SOL    HW117945   3.883   1.349   7.711
 5731SOL    HW217946   3.991   1.401   7.822
 5732SOL     OW17947   3.799   0.345   7.481
 5732SOL    HW117948   3.707   0.317   7.452
 5732SOL    HW217949   3.830   0.422   7.425
 5733SOL     OW17950   3.796   0.166   7.766
 5733SOL    HW117951   3.779   0.249   7.712
 5733SOL    HW217952   3.886   0.129   7.744
 5734SOL     OW17953   4.907   1.335   7.567
 5734SOL    HW117954   4.808   1.324   7.569
 5734SOL    HW217955   4.941   1.350   7.660
 5735SOL     OW17956   5.217   1.767   8.407
 5735SOL    HW117957   5.250   1.831   8.338
 5735SOL    HW217958   5.283   1.761   8.482
 5736SOL     OW17959   4.949   0.325   7.897
 5736SOL    HW117960   5.014   0.251   7.886
 5736SOL    HW217961   4.969   0.375   7.981
 5737SOL     OW17962   4.318   0.745   8.100
 5737SOL    HW117963   4.368   0.830   8.081
 5737SOL    HW217964   4.230   0.747   8.052
 5738SOL     OW17965   4.583   1.374   7.464
 5738SOL    HW117966   4.537   1.389   7.552
 5738SOL    HW217967   4.627   1.459   7.434
 5739SOL     OW17968   4.807   0.984   7.535
 5739SOL    HW117969   4.784   1.037   7.453
 5739SOL    HW217970   4.888   0.928   7.516
 5740SOL     OW17971   4.152   0.424   7.968
 5740SOL    HW117972   4.182   0.352   7.906
 5740SOL    HW217973   4.113   0.384   8.051
 5741SOL     OW17974   4.494   1.330   7.749
 5741SOL    HW117975   4.448   1.243   7.766
 5741SOL    HW217976   4.585   1.327   7.790
 5742SOL     OW17977   5.076   0.052   7.616
 5742SOL    HW117978   5.111   0.011   7.532
 5742SOL    HW217979   4.986   0.014   7.636
 5743SOL     OW17980   3.763   1.077   7.748
 5743SOL    HW117981   3.862   1.066   7.739
 5743SOL    HW217982   3.723   0.991   7.780
 5744SOL     OW17983   4.599   1.646   7.785
 5744SOL    HW117984   4.522   1.611   7.731
 5744SOL    HW217985   4.567   1.717   7.847
 5745SOL     OW17986   3.954   2.490   0.113
 5745SOL    HW117987   3.861   2.488   0.150
 5745SOL    HW217988   3.955   2.451   0.021
 5746SOL     OW17989   3.949   2.137   0.996
 5746SOL    HW117990   3.984   2.120   1.088
 5746SOL    HW217991   3.861   2.092   0.984
 5747SOL     OW17992   3.743   2.230   0.647
 5747SOL    HW117993   3.661   2.273   0.686
 5747SOL    HW217994   3.715   2.157   0.584
 5748SOL     OW17995   4.293   3.137   1.165
 5748SOL    HW117996   4.200   3.130   1.128
 5748SOL    HW217997   4.304   3.226   1.209
 5749SOL     OW17998   5.279   3.373   0.703
 5749SOL    HW117999   5.222   3.357   0.784
 5749SOL    HW218000   5.220   3.383   0.623
 5750SOL     OW18001   4.859   2.565   0.717
 5750SOL    HW118002   4.916   2.643   0.692
 5750SOL    HW218003   4.799   2.591   0.793
 5751SOL     OW18004   4.492   3.006   1.023
 5751SOL    HW118005   4.414   3.023   1.083
 5751SOL    HW218006   4.526   3.093   0.987
 5752SOL     OW18007   4.574   2.660   1.823
 5752SOL    HW118008   4.570   2.736   1.888
 5752SOL    HW218009   4.596   2.696   1.732
 5753SOL     OW18010   4.409   2.874   0.665
 5753SOL    HW118011   4.478   2.858   0.735
 5753SOL    HW218012   4.336   2.931   0.703
 5754SOL     OW18013   4.410   3.023   1.803
 5754SOL    HW118014   4.470   3.102   1.817
 5754SOL    HW218015   4.324   3.054   1.762
 5755SOL     OW18016   4.059   3.297   1.061
 5755SOL    HW118017   3.981   3.266   1.008
 5755SOL    HW218018   4.117   3.355   1.004
 5756SOL     OW18019   5.184   3.367   1.339
 5756SOL    HW118020   5.208   3.461   1.365
 5756SOL    HW218021   5.168   3.313   1.421
 5757SOL     OW18022   4.162   2.254   1.499
 5757SOL    HW118023   4.244   2.198   1.508
 5757SOL    HW218024   4.081   2.196   1.503
 5758SOL     OW18025   3.955   3.575   0.483
 5758SOL    HW118026   3.989   3.652   0.537
 5758SOL    HW218027   3.999   3.575   0.393
 5759SOL     OW18028   4.851   3.203   1.690
 5759SOL    HW118029   4.898   3.203   1.778
 5759SOL    HW218030   4.803   3.116   1.679
 5760SOL     OW18031   3.954   3.296   0.538
 5760SOL    HW118032   3.928   3.392   0.538
 5760SOL    HW218033   3.883   3.242   0.583
 5761SOL     OW18034   3.964   2.953   0.886
 5761SOL    HW118035   3.978   2.869   0.938
 5761SOL    HW218036   3.909   3.017   0.941
 5762SOL     OW18037   4.344   3.648   1.439
 5762SOL    HW118038   4.252   3.631   1.474
 5762SOL    HW218039   4.372   3.740   1.465
 5763SOL     OW18040   4.330   2.826   0.123
 5763SOL    HW118041   4.337   2.910   0.069
 5763SOL    HW218042   4.376   2.839   0.211
 5764SOL     OW18043   3.846   2.505   0.563
 5764SOL    HW118044   3.801   2.417   0.580
 5764SOL    HW218045   3.845   2.559   0.647
 5765SOL     OW18046   3.751   3.458   0.117
 5765SOL    HW118047   3.732   3.362   0.138
 5765SOL    HW218048   3.718   3.516   0.192
 5766SOL     OW18049   5.413   2.784   0.612
 5766SOL    HW118050   5.508   2.755   0.620
 5766SOL    HW218051   5.405   2.849   0.537
 5767SOL     OW18052   3.837   2.599   1.597
 5767SOL    HW118053   3.925   2.586   1.642
 5767SOL    HW218054   3.824   2.696   1.575
 5768SOL     OW18055   4.337   3.227   0.726
 5768SOL    HW118056   4.288   3.140   0.735
 5768SOL    HW218057   4.314   3.270   0.639
 5769SOL     OW18058   5.017   3.090   1.423
 5769SOL    HW118059   5.054   3.017   1.365
 5769SOL    HW218060   5.069   3.095   1.508
 5770SOL     OW18061   4.533   1.866   0.502
 5770SOL    HW118062   4.573   1.957   0.493
 5770SOL    HW218063   4.433   1.874   0.508
 5771SOL     OW18064   3.921   2.838   1.264
 5771SOL    HW118065   4.010   2.793   1.250
 5771SOL    HW218066   3.848   2.773   1.245
 5772SOL     OW18067   4.911   3.654   1.616
 5772SOL    HW118068   4.935   3.714   1.540
 5772SOL    HW218069   4.918   3.559   1.586
 5773SOL     OW18070   4.041   2.113   1.801
 5773SOL    HW118071   4.112   2.184   1.807
 5773SOL    HW218072   3.953   2.152   1.829
 5774SOL     OW18073   5.190   3.279   0.953
 5774SOL    HW118074   5.131   3.285   1.033
 5774SOL    HW218075   5.175   3.191   0.907
 5775SOL     OW18076   4.322   2.591   0.270
 5775SOL    HW118077   4.346   2.660   0.202
 5775SOL    HW218078   4.244   2.624   0.324
 5776SOL     OW18079   5.005   2.207   0.944
 5776SOL    HW118080   4.919   2.157   0.931
 5776SOL    HW218081   5.067   2.153   1.000
 5777SOL     OW18082   4.531   2.467   1.465
 5777SOL    HW118083   4.484   2.464   1.554
 5777SOL    HW218084   4.480   2.412   1.399
 5778SOL     OW18085   5.118   2.331   1.674
 5778SOL    HW118086   5.098   2.374   1.762
 5778SOL    HW218087   5.196   2.269   1.683
 5779SOL     OW18088   4.697   2.752   1.572
 5779SOL    HW118089   4.743   2.668   1.543
 5779SOL    HW218090   4.641   2.786   1.497
 5780SOL     OW18091   4.715   2.272   1.242
 5780SOL    HW118092   4.638   2.306   1.296
 5780SOL    HW218093   4.681   2.221   1.163
 5781SOL     OW18094   4.765   2.563   0.429
 5781SOL    HW118095   4.791   2.559   0.525
 5781SOL    HW218096   4.680   2.512   0.415
 5782SOL     OW18097   3.800   2.673   0.789
 5782SOL    HW118098   3.899   2.661   0.798
 5782SOL    HW218099   3.776   2.768   0.810
 5783SOL     OW18100   3.854   3.683   1.571
 5783SOL    HW118101   3.844   3.668   1.670
 5783SOL    HW218102   3.768   3.719   1.535
 5784SOL     OW18103   4.589   2.210   0.195
 5784SOL    HW118104   4.648   2.273   0.146
 5784SOL    HW218105   4.608   2.116   0.166
 5785SOL     OW18106   5.086   3.006   0.545
 5785SOL    HW118107   5.169   2.977   0.497
 5785SOL    HW218108   5.037   3.073   0.489
 5786SOL     OW18109   4.274   2.058   0.885
 5786SOL    HW118110   4.269   2.053   0.985
 5786SOL    HW218111   4.276   2.154   0.856
 5787SOL     OW18112   4.732   3.318   0.477
 5787SOL    HW118113   4.686   3.390   0.425
 5787SOL    HW218114   4.728   3.338   0.575
 5788SOL     OW18115   4.075   3.663   0.853
 5788SOL    HW118116   4.125   3.577   0.859
 5788SOL    HW218117   4.140   3.740   0.850
 5789SOL     OW18118   4.951   3.412   1.506
 5789SOL    HW118119   4.957   3.335   1.570
 5789SOL    HW218120   4.899   3.386   1.426
 5790SOL     OW18121   4.045   2.805   0.242
 5790SOL    HW118122   4.127   2.844   0.200
 5790SOL    HW218123   4.018   2.723   0.193
 5791SOL     OW18124   4.185   3.128   1.727
 5791SOL    HW118125   4.135   3.129   1.641
 5791SOL    HW218126   4.122   3.110   1.803
 5792SOL     OW18127   4.835   3.638   0.237
 5792SOL    HW118128   4.775   3.576   0.287
 5792SOL    HW218129   4.866   3.594   0.152
 5793SOL     OW18130   3.926   2.147   1.498
 5793SOL    HW118131   3.846   2.207   1.485
 5793SOL    HW218132   3.916   2.098   1.584
 5794SOL     OW18133   4.188   3.605   0.323
 5794SOL    HW118134   4.221   3.644   0.409
 5794SOL    HW218135   4.264   3.598   0.258
 5795SOL     OW18136   5.124   1.969   0.426
 5795SOL    HW118137   5.100   1.932   0.336
 5795SOL    HW218138   5.223   1.985   0.430
 5796SOL     OW18139   3.973   3.647   1.241
 5796SOL    HW118140   4.030   3.582   1.291
 5796SOL    HW218141   3.957   3.614   1.148
 5797SOL     OW18142   4.664   3.560   0.904
 5797SOL    HW118143   4.744   3.503   0.925
 5797SOL    HW218144   4.615   3.520   0.827
 5798SOL     OW18145   4.106   2.562   0.480
 5798SOL    HW118146   4.151   2.472   0.477
 5798SOL    HW218147   4.012   2.551   0.513
 5799SOL     OW18148   4.338   1.984   0.117
 5799SOL    HW118149   4.436   1.962   0.124
 5799SOL    HW218150   4.307   1.967   0.024
 5800SOL     OW18151   4.505   2.126   1.749
 5800SOL    HW118152   4.572   2.065   1.792
 5800SOL    HW218153   4.432   2.145   1.814
 5801SOL     OW18154   4.612   3.376   1.195
 5801SOL    HW118155   4.589   3.351   1.101
 5801SOL    HW218156   4.673   3.307   1.234
 5802SOL     OW18157   5.075   2.452   1.433
 5802SOL    HW118158   5.103   2.409   1.518
 5802SOL    HW218159   5.100   2.548   1.434
 5803SOL     OW18160   4.527   3.264   0.924
 5803SOL    HW118161   4.617   3.278   0.882
 5803SOL    HW218162   4.456   3.266   0.853
 5804SOL     OW18163   4.646   2.365   0.899
 5804SOL    HW118164   4.621   2.356   0.803
 5804SOL    HW218165   4.694   2.283   0.930
 5805SOL     OW18166   4.263   1.926   0.512
 5805SOL    HW118167   4.182   1.927   0.570
 5805SOL    HW218168   4.266   2.009   0.457
 5806SOL     OW18169   5.158   3.050   0.041
 5806SOL    HW118170   5.190   2.974   0.098
 5806SOL    HW218171   5.066   3.077   0.071
 5807SOL     OW18172   4.021   1.897   0.171
 5807SOL    HW118173   4.070   1.981   0.150
 5807SOL    HW218174   4.083   1.832   0.216
 5808SOL     OW18175   4.659   2.098   0.480
 5808SOL    HW118176   4.611   2.139   0.402
 5808SOL    HW218177   4.758   2.096   0.461
 5809SOL     OW18178   4.800   2.545   1.464
 5809SOL    HW118179   4.720   2.484   1.467
 5809SOL    HW218180   4.881   2.492   1.440
 5810SOL     OW18181   4.951   3.432   0.793
 5810SOL    HW118182   4.972   3.506   0.728
 5810SOL    HW218183   5.019   3.432   0.866
 5811SOL     OW18184   4.183   3.014   0.741
 5811SOL    HW118185   4.112   2.987   0.806
 5811SOL    HW218186   4.157   2.986   0.648
 5812SOL     OW18187   4.995   3.659   0.591
 5812SOL    HW118188   5.039   3.723   0.527
 5812SOL    HW218189   4.945   3.711   0.661
 5813SOL     OW18190   4.756   2.411   0.016
 5813SOL    HW118191   4.715   2.493  -0.023
 5813SOL    HW218192   4.820   2.437   0.089
 5814SOL     OW18193   3.802   2.418   1.386
 5814SOL    HW118194   3.894   2.417   1.345
 5814SOL    HW218195   3.796   2.492   1.453
 5815SOL     OW18196   4.285   2.084   1.147
 5815SOL    HW118197   4.323   2.000   1.184
 5815SOL    HW218198   4.197   2.103   1.191
 5816SOL     OW18199   4.590   2.316   0.642
 5816SOL    HW118200   4.558   2.388   0.580
 5816SOL    HW218201   4.614   2.235   0.589
 5817SOL     OW18202   4.741   1.901   0.753
 5817SOL    HW118203   4.669   1.906   0.684
 5817SOL    HW218204   4.717   1.832   0.822
 5818SOL     OW18205   5.153   3.035   0.867
 5818SOL    HW118206   5.098   2.951   0.860
 5818SOL    HW218207   5.179   3.064   0.775
 5819SOL     OW18208   4.212   3.247   0.174
 5819SOL    HW118209   4.125   3.232   0.221
 5819SOL    HW218210   4.195   3.273   0.079
 5820SOL     OW18211   5.114   2.437   0.078
 5820SOL    HW118212   5.060   2.416   0.159
 5820SOL    HW218213   5.205   2.396   0.087
 5821SOL     OW18214   4.251   2.118   0.328
 5821SOL    HW118215   4.278   2.059   0.253
 5821SOL    HW218216   4.251   2.213   0.297
 5822SOL     OW18217   4.788   3.209   1.340
 5822SOL    HW118218   4.708   3.186   1.395
 5822SOL    HW218219   4.871   3.183   1.389
 5823SOL     OW18220   5.316   3.491   1.625
 5823SOL    HW118221   5.343   3.525   1.535
 5823SOL    HW218222   5.395   3.453   1.671
 5824SOL     OW18223   4.835   3.057   1.100
 5824SOL    HW118224   4.795   3.101   1.181
 5824SOL    HW218225   4.794   3.094   1.017
 5825SOL     OW18226   4.639   1.951   1.402
 5825SOL    HW118227   4.664   1.931   1.307
 5825SOL    HW218228   4.711   2.007   1.444
 5826SOL     OW18229   4.704   2.978   1.719
 5826SOL    HW118230   4.605   2.984   1.729
 5826SOL    HW218231   4.727   2.898   1.663
 5827SOL     OW18232   4.429   2.912   0.368
 5827SOL    HW118233   4.415   2.919   0.467
 5827SOL    HW218234   4.513   2.861   0.350
 5828SOL     OW18235   4.134   2.675   1.251
 5828SOL    HW118236   4.220   2.687   1.301
 5828SOL    HW218237   4.092   2.588   1.278
 5829SOL     OW18238   4.998   2.248   1.262
 5829SOL    HW118239   5.019   2.322   1.326
 5829SOL    HW218240   4.909   2.265   1.219
 5830SOL     OW18241   3.788   3.426   1.331
 5830SOL    HW118242   3.742   3.508   1.297
 5830SOL    HW218243   3.886   3.445   1.340
 5831SOL     OW18244   4.091   2.962   0.501
 5831SOL    HW118245   4.084   3.045   0.445
 5831SOL    HW218246   4.095   2.882   0.441
 5832SOL     OW18247   4.290   2.399   0.865
 5832SOL    HW118248   4.302   2.465   0.791
 5832SOL    HW218249   4.336   2.433   0.948
 5833SOL     OW18250   4.976   3.210   0.388
 5833SOL    HW118251   5.026   3.287   0.428
 5833SOL    HW218252   4.881   3.212   0.420
 5834SOL     OW18253   4.996   3.307   1.142
 5834SOL    HW118254   5.043   3.320   1.229
 5834SOL    HW218255   4.930   3.233   1.151
 5835SOL     OW18256   4.078   3.372   1.329
 5835SOL    HW118257   4.057   3.328   1.242
 5835SOL    HW218258   4.175   3.398   1.332
 5836SOL     OW18259   4.126   2.613   1.598
 5836SOL    HW118260   4.194   2.668   1.551
 5836SOL    HW218261   4.166   2.525   1.625
 5837SOL     OW18262   4.737   1.967   1.770
 5837SOL    HW118263   4.743   2.052   1.718
 5837SOL    HW218264   4.769   1.891   1.713
 5838SOL     OW18265   4.228   1.912   1.740
 5838SOL    HW118266   4.186   1.855   1.670
 5838SOL    HW218267   4.162   1.981   1.772
 5839SOL     OW18268   4.297   2.732   1.029
 5839SOL    HW118269   4.341   2.821   1.020
 5839SOL    HW218270   4.234   2.732   1.106
 5840SOL     OW18271   5.084   2.724   1.045
 5840SOL    HW118272   5.009   2.724   0.979
 5840SOL    HW218273   5.121   2.632   1.054
 5841SOL     OW18274   4.933   2.387   0.275
 5841SOL    HW118275   4.946   2.303   0.329
 5841SOL    HW218276   4.904   2.461   0.335
 5842SOL     OW18277   4.031   2.075   1.231
 5842SOL    HW118278   4.008   2.112   1.321
 5842SOL    HW218279   4.001   1.980   1.225
 5843SOL     OW18280   3.761   3.172   1.282
 5843SOL    HW118281   3.814   3.123   1.350
 5843SOL    HW218282   3.783   3.270   1.287
 5844SOL     OW18283   4.456   2.496   1.064
 5844SOL    HW118284   4.515   2.470   0.988
 5844SOL    HW218285   4.428   2.592   1.053
 5845SOL     OW18286   4.031   1.925   0.618
 5845SOL    HW118287   4.020   2.019   0.651
 5845SOL    HW218288   4.026   1.862   0.695
 5846SOL     OW18289   5.346   2.229   0.374
 5846SOL    HW118290   5.348   2.153   0.438
 5846SOL    HW218291   5.298   2.306   0.414
 5847SOL     OW18292   4.747   2.628   0.966
 5847SOL    HW118293   4.762   2.649   1.062
 5847SOL    HW218294   4.717   2.533   0.957
 5848SOL     OW18295   4.704   3.435   1.700
 5848SOL    HW118296   4.684   3.479   1.612
 5848SOL    HW218297   4.743   3.344   1.684
 5849SOL     OW18298   4.074   2.760   1.804
 5849SOL    HW118299   4.150   2.804   1.852
 5849SOL    HW218300   4.109   2.713   1.722
 5850SOL     OW18301   5.027   2.700   0.042
 5850SOL    HW118302   5.061   2.607   0.057
 5850SOL    HW218303   5.045   2.727  -0.053
 5851SOL     OW18304   4.792   3.195   0.849
 5851SOL    HW118305   4.799   3.111   0.794
 5851SOL    HW218306   4.854   3.264   0.813
 5852SOL     OW18307   4.043   2.672   0.949
 5852SOL    HW118308   4.136   2.708   0.954
 5852SOL    HW218309   4.037   2.587   1.001
 5853SOL     OW18310   4.063   2.371   1.006
 5853SOL    HW118311   4.011   2.288   0.989
 5853SOL    HW218312   4.140   2.376   0.942
 5854SOL     OW18313   4.862   2.242   1.678
 5854SOL    HW118314   4.817   2.305   1.742
 5854SOL    HW218315   4.955   2.273   1.661
 5855SOL     OW18316   4.884   2.069   1.477
 5855SOL    HW118317   4.884   2.133   1.554
 5855SOL    HW218318   4.912   2.117   1.394
 5856SOL     OW18319   3.732   3.188   0.200
 5856SOL    HW118320   3.639   3.209   0.169
 5856SOL    HW218321   3.742   3.089   0.213
 5857SOL     OW18322   3.812   3.663   0.927
 5857SOL    HW118323   3.770   3.577   0.900
 5857SOL    HW218324   3.906   3.666   0.893
 5858SOL     OW18325   4.228   3.430   0.910
 5858SOL    HW118326   4.294   3.504   0.919
 5858SOL    HW218327   4.272   3.351   0.868
 5859SOL     OW18328   4.726   2.658   1.238
 5859SOL    HW118329   4.767   2.626   1.324
 5859SOL    HW218330   4.630   2.631   1.235
 5860SOL     OW18331   3.764   2.406   1.114
 5860SOL    HW118332   3.849   2.373   1.073
 5860SOL    HW218333   3.777   2.421   1.212
 5861SOL     OW18334   3.913   2.382   1.722
 5861SOL    HW118335   3.972   2.342   1.652
 5861SOL    HW218336   3.855   2.453   1.681
 5862SOL     OW18337   5.093   2.812   1.660
 5862SOL    HW118338   5.132   2.901   1.680
 5862SOL    HW218339   5.103   2.792   1.563
 5863SOL     OW18340   4.539   2.434   0.325
 5863SOL    HW118341   4.546   2.345   0.279
 5863SOL    HW218342   4.445   2.468   0.317
 5864SOL     OW18343   3.976   3.426   1.744
 5864SOL    HW118344   3.946   3.483   1.820
 5864SOL    HW218345   3.969   3.329   1.770
 5865SOL     OW18346   4.395   2.326   1.269
 5865SOL    HW118347   4.361   2.237   1.239
 5865SOL    HW218348   4.421   2.380   1.189
 5866SOL     OW18349   4.654   3.540   1.465
 5866SOL    HW118350   4.630   3.522   1.370
 5866SOL    HW218351   4.684   3.634   1.475
 5867SOL     OW18352   4.197   2.362   0.191
 5867SOL    HW118353   4.258   2.442   0.195
 5867SOL    HW218354   4.102   2.393   0.198
 5868SOL     OW18355   3.883   2.999   1.466
 5868SOL    HW118356   3.905   2.938   1.542
 5868SOL    HW218357   3.893   2.950   1.380
 5869SOL     OW18358   5.071   2.921   1.234
 5869SOL    HW118359   5.095   2.858   1.160
 5869SOL    HW218360   4.981   2.961   1.216
 5870SOL     OW18361   5.026   2.717   0.309
 5870SOL    HW118362   4.940   2.686   0.351
 5870SOL    HW218363   5.022   2.703   0.210
 5871SOL     OW18364   4.976   3.593   1.128
 5871SOL    HW118365   5.060   3.598   1.074
 5871SOL    HW218366   4.953   3.497   1.146
 5872SOL     OW18367   3.807   3.120   1.022
 5872SOL    HW118368   3.802   3.119   1.122
 5872SOL    HW218369   3.724   3.079   0.984
 5873SOL     OW18370   4.412   3.524   1.716
 5873SOL    HW118371   4.356   3.605   1.725
 5873SOL    HW218372   4.464   3.528   1.630
 5874SOL     OW18373   4.627   1.948   0.133
 5874SOL    HW118374   4.678   1.949   0.047
 5874SOL    HW218375   4.683   1.906   0.204
 5875SOL     OW18376   5.450   1.997   0.523
 5875SOL    HW118377   5.523   1.980   0.456
 5875SOL    HW218378   5.419   1.910   0.561
 5876SOL     OW18379   5.112   3.435   0.477
 5876SOL    HW118380   5.179   3.447   0.403
 5876SOL    HW218381   5.072   3.524   0.500
 5877SOL     OW18382   3.854   3.656   1.851
 5877SOL    HW118383   3.813   3.582   1.904
 5877SOL    HW218384   3.918   3.707   1.909
 5878SOL     OW18385   5.004   2.789   0.672
 5878SOL    HW118386   5.064   2.708   0.674
 5878SOL    HW218387   5.044   2.858   0.612
 5879SOL     OW18388   4.554   3.135   1.422
 5879SOL    HW118389   4.549   3.168   1.517
 5879SOL    HW218390   4.468   3.154   1.376
 5880SOL     OW18391   4.396   3.478   0.154
 5880SOL    HW118392   4.405   3.488   0.055
 5880SOL    HW218393   4.356   3.389   0.175
 5881SOL     OW18394   3.987   2.188   0.720
 5881SOL    HW118395   3.908   2.239   0.686
 5881SOL    HW218396   3.978   2.173   0.818
 5882SOL     OW18397   4.918   3.474   0.031
 5882SOL    HW118398   4.924   3.381   0.068
 5882SOL    HW218399   4.859   3.474  -0.049
 5883SOL     OW18400   4.546   2.864   1.372
 5883SOL    HW118401   4.586   2.863   1.280
 5883SOL    HW218402   4.556   2.956   1.412
 5884SOL     OW18403   4.640   2.772   0.291
 5884SOL    HW118404   4.703   2.810   0.223
 5884SOL    HW218405   4.680   2.689   0.330
 5885SOL     OW18406   4.096   3.150   1.490
 5885SOL    HW118407   4.083   3.243   1.456
 5885SOL    HW218408   4.012   3.098   1.477
 5886SOL     OW18409   4.763   2.960   0.696
 5886SOL    HW118410   4.693   2.913   0.750
 5886SOL    HW218411   4.822   2.892   0.653
 5887SOL     OW18412   4.738   2.098   0.971
 5887SOL    HW118413   4.730   2.062   0.878
 5887SOL    HW218414   4.736   2.022   1.036
 5888SOL     OW18415   4.314   3.349   0.491
 5888SOL    HW118416   4.356   3.291   0.421
 5888SOL    HW218417   4.270   3.428   0.447
 5889SOL     OW18418   3.979   3.210   0.290
 5889SOL    HW118419   3.883   3.211   0.263
 5889SOL    HW218420   3.991   3.263   0.374
 5890SOL     OW18421   3.829   2.875   1.726
 5890SOL    HW118422   3.752   2.842   1.780
 5890SOL    HW218423   3.914   2.845   1.768
 5891SOL     OW18424   4.396   2.065   1.489
 5891SOL    HW118425   4.486   2.049   1.449
 5891SOL    HW218426   4.404   2.070   1.588
 5892SOL     OW18427   3.799   2.207   0.033
 5892SOL    HW118428   3.707   2.179   0.004
 5892SOL    HW218429   3.830   2.284  -0.023
 5893SOL     OW18430   5.164   2.718   1.398
 5893SOL    HW118431   5.107   2.770   1.335
 5893SOL    HW218432   5.260   2.730   1.374
 5894SOL     OW18433   3.796   2.028   0.318
 5894SOL    HW118434   3.779   2.111   0.264
 5894SOL    HW218435   3.886   1.991   0.296
 5895SOL     OW18436   4.907   3.197   0.119
 5895SOL    HW118437   4.808   3.186   0.121
 5895SOL    HW218438   4.941   3.212   0.212
 5896SOL     OW18439   4.337   2.704   1.431
 5896SOL    HW118440   4.393   2.785   1.414
 5896SOL    HW218441   4.396   2.624   1.434
 5897SOL     OW18442   4.440   2.427   1.708
 5897SOL    HW118443   4.459   2.492   1.782
 5897SOL    HW218444   4.500   2.347   1.717
 5898SOL     OW18445   5.174   3.082   1.633
 5898SOL    HW118446   5.165   3.072   1.732
 5898SOL    HW218447   5.270   3.075   1.607
 5899SOL     OW18448   4.114   3.603   1.560
 5899SOL    HW118449   4.023   3.644   1.558
 5899SOL    HW218450   4.107   3.509   1.592
 5900SOL     OW18451   4.949   2.187   0.449
 5900SOL    HW118452   5.014   2.113   0.438
 5900SOL    HW218453   4.969   2.237   0.533
 5901SOL     OW18454   4.318   2.607   0.652
 5901SOL    HW118455   4.368   2.692   0.633
 5901SOL    HW218456   4.230   2.609   0.604
 5902SOL     OW18457   4.583   3.236   0.016
 5902SOL    HW118458   4.537   3.251   0.104
 5902SOL    HW218459   4.627   3.321  -0.014
 5903SOL     OW18460   4.385   3.652   0.953
 5903SOL    HW118461   4.339   3.740   0.940
 5903SOL    HW218462   4.484   3.664   0.946
 5904SOL     OW18463   4.583   2.818   0.861
 5904SOL    HW118464   4.637   2.749   0.909
 5904SOL    HW218465   4.551   2.887   0.927
 5905SOL     OW18466   4.807   2.846   0.087
 5905SOL    HW118467   4.784   2.899   0.005
 5905SOL    HW218468   4.888   2.790   0.068
 5906SOL     OW18469   3.945   3.176   1.844
 5906SOL    HW118470   3.880   3.103   1.823
 5906SOL    HW218471   3.949   3.190   1.942
 5907SOL     OW18472   3.803   3.102   0.653
 5907SOL    HW118473   3.802   3.055   0.741
 5907SOL    HW218474   3.885   3.074   0.602
 5908SOL     OW18475   4.396   3.253   1.624
 5908SOL    HW118476   4.318   3.203   1.662
 5908SOL    HW218477   4.393   3.348   1.655
 5909SOL     OW18478   4.152   2.286   0.520
 5909SOL    HW118479   4.182   2.214   0.458
 5909SOL    HW218480   4.113   2.246   0.603
 5910SOL     OW18481   5.429   3.349   1.104
 5910SOL    HW118482   5.336   3.324   1.077
 5910SOL    HW218483   5.455   3.299   1.186
 5911SOL     OW18484   4.041   2.409   1.280
 5911SOL    HW118485   4.079   2.350   1.352
 5911SOL    HW218486   4.081   2.383   1.192
 5912SOL     OW18487   4.536   3.448   0.687
 5912SOL    HW118488   4.568   3.458   0.593
 5912SOL    HW218489   4.457   3.386   0.689
 5913SOL     OW18490   5.148   2.076   1.112
 5913SOL    HW118491   5.200   2.011   1.167
 5913SOL    HW218492   5.099   2.139   1.173
 5914SOL     OW18493   4.725   1.896   1.154
 5914SOL    HW118494   4.662   1.824   1.123
 5914SOL    HW218495   4.818   1.860   1.154
 5915SOL     OW18496   4.494   3.192   0.301
 5915SOL    HW118497   4.448   3.105   0.318
 5915SOL    HW218498   4.585   3.189   0.342
 5916SOL     OW18499   4.342   3.429   1.284
 5916SOL    HW118500   4.337   3.511   1.341
 5916SOL    HW218501   4.431   3.426   1.239
 5917SOL     OW18502   5.076   1.914   0.168
 5917SOL    HW118503   5.111   1.873   0.084
 5917SOL    HW218504   4.986   1.876   0.188
 5918SOL     OW18505   5.024   2.315   0.691
 5918SOL    HW118506   4.965   2.395   0.695
 5918SOL    HW218507   5.039   2.280   0.784
 5919SOL     OW18508   5.317   2.083   0.882
 5919SOL    HW118509   5.233   2.082   0.936
 5919SOL    HW218510   5.319   2.166   0.826
 5920SOL     OW18511   3.763   2.939   0.300
 5920SOL    HW118512   3.862   2.928   0.291
 5920SOL    HW218513   3.723   2.853   0.332
 5921SOL     OW18514   4.599   3.508   0.337
 5921SOL    HW118515   4.522   3.473   0.283
 5921SOL    HW218516   4.567   3.579   0.399
 5922SOL     OW18517   3.954   2.490   1.975
 5922SOL    HW118518   3.861   2.488   2.012
 5922SOL    HW218519   3.955   2.451   1.883
 5923SOL     OW18520   3.949   2.137   2.858
 5923SOL    HW118521   3.984   2.120   2.950
 5923SOL    HW218522   3.861   2.092   2.846
 5924SOL     OW18523   3.743   2.230   2.509
 5924SOL    HW118524   3.661   2.273   2.548
 5924SOL    HW218525   3.715   2.157   2.446
 5925SOL     OW18526   4.293   3.137   3.027
 5925SOL    HW118527   4.200   3.130   2.990
 5925SOL    HW218528   4.304   3.226   3.071
 5926SOL     OW18529   5.279   3.373   2.565
 5926SOL    HW118530   5.222   3.357   2.646
 5926SOL    HW218531   5.220   3.383   2.485
 5927SOL     OW18532   4.859   2.565   2.579
 5927SOL    HW118533   4.916   2.643   2.554
 5927SOL    HW218534   4.799   2.591   2.655
 5928SOL     OW18535   4.492   3.006   2.885
 5928SOL    HW118536   4.414   3.023   2.945
 5928SOL    HW218537   4.526   3.093   2.849
 5929SOL     OW18538   4.574   2.660   3.685
 5929SOL    HW118539   4.570   2.736   3.750
 5929SOL    HW218540   4.596   2.696   3.594
 5930SOL     OW18541   4.409   2.874   2.527
 5930SOL    HW118542   4.478   2.858   2.597
 5930SOL    HW218543   4.336   2.931   2.565
 5931SOL     OW18544   4.410   3.023   3.665
 5931SOL    HW118545   4.470   3.102   3.679
 5931SOL    HW218546   4.324   3.054   3.624
 5932SOL     OW18547   4.059   3.297   2.923
 5932SOL    HW118548   3.981   3.266   2.870
 5932SOL    HW218549   4.117   3.355   2.866
 5933SOL     OW18550   5.184   3.367   3.201
 5933SOL    HW118551   5.208   3.461   3.227
 5933SOL    HW218552   5.168   3.313   3.283
 5934SOL     OW18553   4.162   2.254   3.361
 5934SOL    HW118554   4.244   2.198   3.370
 5934SOL    HW218555   4.081   2.196   3.365
 5935SOL     OW18556   3.955   3.575   2.345
 5935SOL    HW118557   3.989   3.652   2.399
 5935SOL    HW218558   3.999   3.575   2.255
 5936SOL     OW18559   4.851   3.203   3.552
 5936SOL    HW118560   4.898   3.203   3.640
 5936SOL    HW218561   4.803   3.116   3.541
 5937SOL     OW18562   3.954   3.296   2.400
 5937SOL    HW118563   3.928   3.392   2.400
 5937SOL    HW218564   3.883   3.242   2.445
 5938SOL     OW18565   3.964   2.953   2.748
 5938SOL    HW118566   3.978   2.869   2.800
 5938SOL    HW218567   3.909   3.017   2.803
 5939SOL     OW18568   4.344   3.648   3.301
 5939SOL    HW118569   4.252   3.631   3.336
 5939SOL    HW218570   4.372   3.740   3.327
 5940SOL     OW18571   4.330   2.826   1.985
 5940SOL    HW118572   4.337   2.910   1.931
 5940SOL    HW218573   4.376   2.839   2.073
 5941SOL     OW18574   3.846   2.505   2.425
 5941SOL    HW118575   3.801   2.417   2.442
 5941SOL    HW218576   3.845   2.559   2.509
 5942SOL     OW18577   3.751   3.458   1.979
 5942SOL    HW118578   3.732   3.362   2.000
 5942SOL    HW218579   3.718   3.516   2.054
 5943SOL     OW18580   5.413   2.784   2.474
 5943SOL    HW118581   5.508   2.755   2.482
 5943SOL    HW218582   5.405   2.849   2.399
 5944SOL     OW18583   3.837   2.599   3.459
 5944SOL    HW118584   3.925   2.586   3.504
 5944SOL    HW218585   3.824   2.696   3.437
 5945SOL     OW18586   4.337   3.227   2.588
 5945SOL    HW118587   4.288   3.140   2.597
 5945SOL    HW218588   4.314   3.270   2.501
 5946SOL     OW18589   5.017   3.090   3.285
 5946SOL    HW118590   5.054   3.017   3.227
 5946SOL    HW218591   5.069   3.095   3.370
 5947SOL     OW18592   4.533   1.866   2.364
 5947SOL    HW118593   4.573   1.957   2.355
 5947SOL    HW218594   4.433   1.874   2.370
 5948SOL     OW18595   3.921   2.838   3.126
 5948SOL    HW118596   4.010   2.793   3.112
 5948SOL    HW218597   3.848   2.773   3.107
 5949SOL     OW18598   4.911   3.654   3.478
 5949SOL    HW118599   4.935   3.714   3.402
 5949SOL    HW218600   4.918   3.559   3.448
 5950SOL     OW18601   4.041   2.113   3.663
 5950SOL    HW118602   4.112   2.184   3.669
 5950SOL    HW218603   3.953   2.152   3.691
 5951SOL     OW18604   5.190   3.279   2.815
 5951SOL    HW118605   5.131   3.285   2.895
 5951SOL    HW218606   5.175   3.191   2.769
 5952SOL     OW18607   4.322   2.591   2.132
 5952SOL    HW118608   4.346   2.660   2.064
 5952SOL    HW218609   4.244   2.624   2.186
 5953SOL     OW18610   5.005   2.207   2.806
 5953SOL    HW118611   4.919   2.157   2.793
 5953SOL    HW218612   5.067   2.153   2.862
 5954SOL     OW18613   4.531   2.467   3.327
 5954SOL    HW118614   4.484   2.464   3.416
 5954SOL    HW218615   4.480   2.412   3.261
 5955SOL     OW18616   5.118   2.331   3.536
 5955SOL    HW118617   5.098   2.374   3.624
 5955SOL    HW218618   5.196   2.269   3.545
 5956SOL     OW18619   4.697   2.752   3.434
 5956SOL    HW118620   4.743   2.668   3.405
 5956SOL    HW218621   4.641   2.786   3.359
 5957SOL     OW18622   4.715   2.272   3.104
 5957SOL    HW118623   4.638   2.306   3.158
 5957SOL    HW218624   4.681   2.221   3.025
 5958SOL     OW18625   4.765   2.563   2.291
 5958SOL    HW118626   4.791   2.559   2.387
 5958SOL    HW218627   4.680   2.512   2.277
 5959SOL     OW18628   3.800   2.673   2.651
 5959SOL    HW118629   3.899   2.661   2.660
 5959SOL    HW218630   3.776   2.768   2.672
 5960SOL     OW18631   3.854   3.683   3.433
 5960SOL    HW118632   3.844   3.668   3.532
 5960SOL    HW218633   3.768   3.719   3.397
 5961SOL     OW18634   4.589   2.210   2.057
 5961SOL    HW118635   4.648   2.273   2.008
 5961SOL    HW218636   4.608   2.116   2.028
 5962SOL     OW18637   5.086   3.006   2.407
 5962SOL    HW118638   5.169   2.977   2.359
 5962SOL    HW218639   5.037   3.073   2.351
 5963SOL     OW18640   4.274   2.058   2.747
 5963SOL    HW118641   4.269   2.053   2.847
 5963SOL    HW218642   4.276   2.154   2.718
 5964SOL     OW18643   4.732   3.318   2.339
 5964SOL    HW118644   4.686   3.390   2.287
 5964SOL    HW218645   4.728   3.338   2.437
 5965SOL     OW18646   4.075   3.663   2.715
 5965SOL    HW118647   4.125   3.577   2.721
 5965SOL    HW218648   4.140   3.740   2.712
 5966SOL     OW18649   4.951   3.412   3.368
 5966SOL    HW118650   4.957   3.335   3.432
 5966SOL    HW218651   4.899   3.386   3.288
 5967SOL     OW18652   4.045   2.805   2.104
 5967SOL    HW118653   4.127   2.844   2.062
 5967SOL    HW218654   4.018   2.723   2.055
 5968SOL     OW18655   4.185   3.128   3.589
 5968SOL    HW118656   4.135   3.129   3.503
 5968SOL    HW218657   4.122   3.110   3.665
 5969SOL     OW18658   4.835   3.638   2.099
 5969SOL    HW118659   4.775   3.576   2.149
 5969SOL    HW218660   4.866   3.594   2.014
 5970SOL     OW18661   3.926   2.147   3.360
 5970SOL    HW118662   3.846   2.207   3.347
 5970SOL    HW218663   3.916   2.098   3.446
 5971SOL     OW18664   4.188   3.605   2.185
 5971SOL    HW118665   4.221   3.644   2.271
 5971SOL    HW218666   4.264   3.598   2.120
 5972SOL     OW18667   5.124   1.969   2.288
 5972SOL    HW118668   5.100   1.932   2.198
 5972SOL    HW218669   5.223   1.985   2.292
 5973SOL     OW18670   3.973   3.647   3.103
 5973SOL    HW118671   4.030   3.582   3.153
 5973SOL    HW218672   3.957   3.614   3.010
 5974SOL     OW18673   4.664   3.560   2.766
 5974SOL    HW118674   4.744   3.503   2.787
 5974SOL    HW218675   4.615   3.520   2.689
 5975SOL     OW18676   4.106   2.562   2.342
 5975SOL    HW118677   4.151   2.472   2.339
 5975SOL    HW218678   4.012   2.551   2.375
 5976SOL     OW18679   4.338   1.984   1.979
 5976SOL    HW118680   4.436   1.962   1.986
 5976SOL    HW218681   4.307   1.967   1.886
 5977SOL     OW18682   4.505   2.126   3.611
 5977SOL    HW118683   4.572   2.065   3.654
 5977SOL    HW218684   4.432   2.145   3.676
 5978SOL     OW18685   4.612   3.376   3.057
 5978SOL    HW118686   4.589   3.351   2.963
 5978SOL    HW218687   4.673   3.307   3.096
 5979SOL     OW18688   5.075   2.452   3.295
 5979SOL    HW118689   5.103   2.409   3.380
 5979SOL    HW218690   5.100   2.548   3.296
 5980SOL     OW18691   4.527   3.264   2.786
 5980SOL    HW118692   4.617   3.278   2.744
 5980SOL    HW218693   4.456   3.266   2.715
 5981SOL     OW18694   4.646   2.365   2.761
 5981SOL    HW118695   4.621   2.356   2.665
 5981SOL    HW218696   4.694   2.283   2.792
 5982SOL     OW18697   4.263   1.926   2.374
 5982SOL    HW118698   4.182   1.927   2.432
 5982SOL    HW218699   4.266   2.009   2.319
 5983SOL     OW18700   5.158   3.050   1.903
 5983SOL    HW118701   5.190   2.974   1.960
 5983SOL    HW218702   5.066   3.077   1.933
 5984SOL     OW18703   4.021   1.897   2.033
 5984SOL    HW118704   4.070   1.981   2.012
 5984SOL    HW218705   4.083   1.832   2.078
 5985SOL     OW18706   4.659   2.098   2.342
 5985SOL    HW118707   4.611   2.139   2.264
 5985SOL    HW218708   4.758   2.096   2.323
 5986SOL     OW18709   4.800   2.545   3.326
 5986SOL    HW118710   4.720   2.484   3.329
 5986SOL    HW218711   4.881   2.492   3.302
 5987SOL     OW18712   4.951   3.432   2.655
 5987SOL    HW118713   4.972   3.506   2.590
 5987SOL    HW218714   5.019   3.432   2.728
 5988SOL     OW18715   4.183   3.014   2.603
 5988SOL    HW118716   4.112   2.987   2.668
 5988SOL    HW218717   4.157   2.986   2.510
 5989SOL     OW18718   4.995   3.659   2.453
 5989SOL    HW118719   5.039   3.723   2.389
 5989SOL    HW218720   4.945   3.711   2.523
 5990SOL     OW18721   4.756   2.411   1.878
 5990SOL    HW118722   4.715   2.493   1.839
 5990SOL    HW218723   4.820   2.437   1.951
 5991SOL     OW18724   3.802   2.418   3.248
 5991SOL    HW118725   3.894   2.417   3.207
 5991SOL    HW218726   3.796   2.492   3.315
 5992SOL     OW18727   4.285   2.084   3.009
 5992SOL    HW118728   4.323   2.000   3.046
 5992SOL    HW218729   4.197   2.103   3.053
 5993SOL     OW18730   4.590   2.316   2.504
 5993SOL    HW118731   4.558   2.388   2.442
 5993SOL    HW218732   4.614   2.235   2.451
 5994SOL     OW18733   4.741   1.901   2.615
 5994SOL    HW118734   4.669   1.906   2.546
 5994SOL    HW218735   4.717   1.832   2.684
 5995SOL     OW18736   5.153   3.035   2.729
 5995SOL    HW118737   5.098   2.951   2.722
 5995SOL    HW218738   5.179   3.064   2.637
 5996SOL     OW18739   4.212   3.247   2.036
 5996SOL    HW118740   4.125   3.232   2.083
 5996SOL    HW218741   4.195   3.273   1.941
 5997SOL     OW18742   5.114   2.437   1.940
 5997SOL    HW118743   5.060   2.416   2.021
 5997SOL    HW218744   5.205   2.396   1.949
 5998SOL     OW18745   4.251   2.118   2.190
 5998SOL    HW118746   4.278   2.059   2.115
 5998SOL    HW218747   4.251   2.213   2.159
 5999SOL     OW18748   4.788   3.209   3.202
 5999SOL    HW118749   4.708   3.186   3.257
 5999SOL    HW218750   4.871   3.183   3.251
 6000SOL     OW18751   5.316   3.491   3.487
 6000SOL    HW118752   5.343   3.525   3.397
 6000SOL    HW218753   5.395   3.453   3.533
 6001SOL     OW18754   4.835   3.057   2.962
 6001SOL    HW118755   4.795   3.101   3.043
 6001SOL    HW218756   4.794   3.094   2.879
 6002SOL     OW18757   4.639   1.951   3.264
 6002SOL    HW118758   4.664   1.931   3.169
 6002SOL    HW218759   4.711   2.007   3.306
 6003SOL     OW18760   4.704   2.978   3.581
 6003SOL    HW118761   4.605   2.984   3.591
 6003SOL    HW218762   4.727   2.898   3.525
 6004SOL     OW18763   4.429   2.912   2.230
 6004SOL    HW118764   4.415   2.919   2.329
 6004SOL    HW218765   4.513   2.861   2.212
 6005SOL     OW18766   4.134   2.675   3.113
 6005SOL    HW118767   4.220   2.687   3.163
 6005SOL    HW218768   4.092   2.588   3.140
 6006SOL     OW18769   4.998   2.248   3.124
 6006SOL    HW118770   5.019   2.322   3.188
 6006SOL    HW218771   4.909   2.265   3.081
 6007SOL     OW18772   3.788   3.426   3.193
 6007SOL    HW118773   3.742   3.508   3.159
 6007SOL    HW218774   3.886   3.445   3.202
 6008SOL     OW18775   4.091   2.962   2.363
 6008SOL    HW118776   4.084   3.045   2.307
 6008SOL    HW218777   4.095   2.882   2.303
 6009SOL     OW18778   4.290   2.399   2.727
 6009SOL    HW118779   4.302   2.465   2.653
 6009SOL    HW218780   4.336   2.433   2.810
 6010SOL     OW18781   4.976   3.210   2.250
 6010SOL    HW118782   5.026   3.287   2.290
 6010SOL    HW218783   4.881   3.212   2.282
 6011SOL     OW18784   4.996   3.307   3.004
 6011SOL    HW118785   5.043   3.320   3.091
 6011SOL    HW218786   4.930   3.233   3.013
 6012SOL     OW18787   4.078   3.372   3.191
 6012SOL    HW118788   4.057   3.328   3.104
 6012SOL    HW218789   4.175   3.398   3.194
 6013SOL     OW18790   4.126   2.613   3.460
 6013SOL    HW118791   4.194   2.668   3.413
 6013SOL    HW218792   4.166   2.525   3.487
 6014SOL     OW18793   4.737   1.967   3.632
 6014SOL    HW118794   4.743   2.052   3.580
 6014SOL    HW218795   4.769   1.891   3.575
 6015SOL     OW18796   4.228   1.912   3.602
 6015SOL    HW118797   4.186   1.855   3.532
 6015SOL    HW218798   4.162   1.981   3.634
 6016SOL     OW18799   4.297   2.732   2.891
 6016SOL    HW118800   4.341   2.821   2.882
 6016SOL    HW218801   4.234   2.732   2.968
 6017SOL     OW18802   5.084   2.724   2.907
 6017SOL    HW118803   5.009   2.724   2.841
 6017SOL    HW218804   5.121   2.632   2.916
 6018SOL     OW18805   4.933   2.387   2.137
 6018SOL    HW118806   4.946   2.303   2.191
 6018SOL    HW218807   4.904   2.461   2.197
 6019SOL     OW18808   4.031   2.075   3.093
 6019SOL    HW118809   4.008   2.112   3.183
 6019SOL    HW218810   4.001   1.980   3.087
 6020SOL     OW18811   3.761   3.172   3.144
 6020SOL    HW118812   3.814   3.123   3.212
 6020SOL    HW218813   3.783   3.270   3.149
 6021SOL     OW18814   4.456   2.496   2.926
 6021SOL    HW118815   4.515   2.470   2.850
 6021SOL    HW218816   4.428   2.592   2.915
 6022SOL     OW18817   4.031   1.925   2.480
 6022SOL    HW118818   4.020   2.019   2.513
 6022SOL    HW218819   4.026   1.862   2.557
 6023SOL     OW18820   5.346   2.229   2.236
 6023SOL    HW118821   5.348   2.153   2.300
 6023SOL    HW218822   5.298   2.306   2.276
 6024SOL     OW18823   4.747   2.628   2.828
 6024SOL    HW118824   4.762   2.649   2.924
 6024SOL    HW218825   4.717   2.533   2.819
 6025SOL     OW18826   4.704   3.435   3.562
 6025SOL    HW118827   4.684   3.479   3.474
 6025SOL    HW218828   4.743   3.344   3.546
 6026SOL     OW18829   4.074   2.760   3.666
 6026SOL    HW118830   4.150   2.804   3.714
 6026SOL    HW218831   4.109   2.713   3.584
 6027SOL     OW18832   5.027   2.700   1.904
 6027SOL    HW118833   5.061   2.607   1.919
 6027SOL    HW218834   5.045   2.727   1.809
 6028SOL     OW18835   4.792   3.195   2.711
 6028SOL    HW118836   4.799   3.111   2.656
 6028SOL    HW218837   4.854   3.264   2.675
 6029SOL     OW18838   4.043   2.672   2.811
 6029SOL    HW118839   4.136   2.708   2.816
 6029SOL    HW218840   4.037   2.587   2.863
 6030SOL     OW18841   4.063   2.371   2.868
 6030SOL    HW118842   4.011   2.288   2.851
 6030SOL    HW218843   4.140   2.376   2.804
 6031SOL     OW18844   4.862   2.242   3.540
 6031SOL    HW118845   4.817   2.305   3.604
 6031SOL    HW218846   4.955   2.273   3.523
 6032SOL     OW18847   4.884   2.069   3.339
 6032SOL    HW118848   4.884   2.133   3.416
 6032SOL    HW218849   4.912   2.117   3.256
 6033SOL     OW18850   3.732   3.188   2.062
 6033SOL    HW118851   3.639   3.209   2.031
 6033SOL    HW218852   3.742   3.089   2.075
 6034SOL     OW18853   3.812   3.663   2.789
 6034SOL    HW118854   3.770   3.577   2.762
 6034SOL    HW218855   3.906   3.666   2.755
 6035SOL     OW18856   4.228   3.430   2.772
 6035SOL    HW118857   4.294   3.504   2.781
 6035SOL    HW218858   4.272   3.351   2.730
 6036SOL     OW18859   4.726   2.658   3.100
 6036SOL    HW118860   4.767   2.626   3.186
 6036SOL    HW218861   4.630   2.631   3.097
 6037SOL     OW18862   3.764   2.406   2.976
 6037SOL    HW118863   3.849   2.373   2.935
 6037SOL    HW218864   3.777   2.421   3.074
 6038SOL     OW18865   3.913   2.382   3.584
 6038SOL    HW118866   3.972   2.342   3.514
 6038SOL    HW218867   3.855   2.453   3.543
 6039SOL     OW18868   5.093   2.812   3.522
 6039SOL    HW118869   5.132   2.901   3.542
 6039SOL    HW218870   5.103   2.792   3.425
 6040SOL     OW18871   4.539   2.434   2.187
 6040SOL    HW118872   4.546   2.345   2.141
 6040SOL    HW218873   4.445   2.468   2.179
 6041SOL     OW18874   3.976   3.426   3.606
 6041SOL    HW118875   3.946   3.483   3.682
 6041SOL    HW218876   3.969   3.329   3.632
 6042SOL     OW18877   4.395   2.326   3.131
 6042SOL    HW118878   4.361   2.237   3.101
 6042SOL    HW218879   4.421   2.380   3.051
 6043SOL     OW18880   4.654   3.540   3.327
 6043SOL    HW118881   4.630   3.522   3.232
 6043SOL    HW218882   4.684   3.634   3.337
 6044SOL     OW18883   4.197   2.362   2.053
 6044SOL    HW118884   4.258   2.442   2.057
 6044SOL    HW218885   4.102   2.393   2.060
 6045SOL     OW18886   3.883   2.999   3.328
 6045SOL    HW118887   3.905   2.938   3.404
 6045SOL    HW218888   3.893   2.950   3.242
 6046SOL     OW18889   5.071   2.921   3.096
 6046SOL    HW118890   5.095   2.858   3.022
 6046SOL    HW218891   4.981   2.961   3.078
 6047SOL     OW18892   5.026   2.717   2.171
 6047SOL    HW118893   4.940   2.686   2.213
 6047SOL    HW218894   5.022   2.703   2.072
 6048SOL     OW18895   4.976   3.593   2.990
 6048SOL    HW118896   5.060   3.598   2.936
 6048SOL    HW218897   4.953   3.497   3.008
 6049SOL     OW18898   3.807   3.120   2.884
 6049SOL    HW118899   3.802   3.119   2.984
 6049SOL    HW218900   3.724   3.079   2.846
 6050SOL     OW18901   4.412   3.524   3.578
 6050SOL    HW118902   4.356   3.605   3.587
 6050SOL    HW218903   4.464   3.528   3.492
 6051SOL     OW18904   5.450   1.997   2.385
 6051SOL    HW118905   5.523   1.980   2.318
 6051SOL    HW218906   5.419   1.910   2.423
 6052SOL     OW18907   5.112   3.435   2.339
 6052SOL    HW118908   5.179   3.447   2.265
 6052SOL    HW218909   5.072   3.524   2.362
 6053SOL     OW18910   3.854   3.656   3.713
 6053SOL    HW118911   3.813   3.582   3.766
 6053SOL    HW218912   3.918   3.707   3.771
 6054SOL     OW18913   5.004   2.789   2.534
 6054SOL    HW118914   5.064   2.708   2.536
 6054SOL    HW218915   5.044   2.858   2.474
 6055SOL     OW18916   4.554   3.135   3.284
 6055SOL    HW118917   4.549   3.168   3.379
 6055SOL    HW218918   4.468   3.154   3.238
 6056SOL     OW18919   4.396   3.478   2.016
 6056SOL    HW118920   4.405   3.488   1.917
 6056SOL    HW218921   4.356   3.389   2.037
 6057SOL     OW18922   3.987   2.188   2.582
 6057SOL    HW118923   3.908   2.239   2.548
 6057SOL    HW218924   3.978   2.173   2.680
 6058SOL     OW18925   4.918   3.474   1.893
 6058SOL    HW118926   4.924   3.381   1.930
 6058SOL    HW218927   4.859   3.474   1.813
 6059SOL     OW18928   4.546   2.864   3.234
 6059SOL    HW118929   4.586   2.863   3.142
 6059SOL    HW218930   4.556   2.956   3.274
 6060SOL     OW18931   4.640   2.772   2.153
 6060SOL    HW118932   4.703   2.810   2.085
 6060SOL    HW218933   4.680   2.689   2.192
 6061SOL     OW18934   4.096   3.150   3.352
 6061SOL    HW118935   4.083   3.243   3.318
 6061SOL    HW218936   4.012   3.098   3.339
 6062SOL     OW18937   4.763   2.960   2.558
 6062SOL    HW118938   4.693   2.913   2.612
 6062SOL    HW218939   4.822   2.892   2.515
 6063SOL     OW18940   4.738   2.098   2.833
 6063SOL    HW118941   4.730   2.062   2.740
 6063SOL    HW218942   4.736   2.022   2.898
 6064SOL     OW18943   4.314   3.349   2.353
 6064SOL    HW118944   4.356   3.291   2.283
 6064SOL    HW218945   4.270   3.428   2.309
 6065SOL     OW18946   3.979   3.210   2.152
 6065SOL    HW118947   3.883   3.211   2.125
 6065SOL    HW218948   3.991   3.263   2.236
 6066SOL     OW18949   3.829   2.875   3.588
 6066SOL    HW118950   3.752   2.842   3.642
 6066SOL    HW218951   3.914   2.845   3.630
 6067SOL     OW18952   4.396   2.065   3.351
 6067SOL    HW118953   4.486   2.049   3.311
 6067SOL    HW218954   4.404   2.070   3.450
 6068SOL     OW18955   3.799   2.207   1.895
 6068SOL    HW118956   3.707   2.179   1.866
 6068SOL    HW218957   3.830   2.284   1.839
 6069SOL     OW18958   5.164   2.718   3.260
 6069SOL    HW118959   5.107   2.770   3.197
 6069SOL    HW218960   5.260   2.730   3.236
 6070SOL     OW18961   3.796   2.028   2.180
 6070SOL    HW118962   3.779   2.111   2.126
 6070SOL    HW218963   3.886   1.991   2.158
 6071SOL     OW18964   4.907   3.197   1.981
 6071SOL    HW118965   4.808   3.186   1.983
 6071SOL    HW218966   4.941   3.212   2.074
 6072SOL     OW18967   4.337   2.704   3.293
 6072SOL    HW118968   4.393   2.785   3.276
 6072SOL    HW218969   4.396   2.624   3.296
 6073SOL     OW18970   4.440   2.427   3.570
 6073SOL    HW118971   4.459   2.492   3.644
 6073SOL    HW218972   4.500   2.347   3.579
 6074SOL     OW18973   5.174   3.082   3.495
 6074SOL    HW118974   5.165   3.072   3.594
 6074SOL    HW218975   5.270   3.075   3.469
 6075SOL     OW18976   4.114   3.603   3.422
 6075SOL    HW118977   4.023   3.644   3.420
 6075SOL    HW218978   4.107   3.509   3.454
 6076SOL     OW18979   4.949   2.187   2.311
 6076SOL    HW118980   5.014   2.113   2.300
 6076SOL    HW218981   4.969   2.237   2.395
 6077SOL     OW18982   4.318   2.607   2.514
 6077SOL    HW118983   4.368   2.692   2.495
 6077SOL    HW218984   4.230   2.609   2.466
 6078SOL     OW18985   4.583   3.236   1.878
 6078SOL    HW118986   4.537   3.251   1.966
 6078SOL    HW218987   4.627   3.321   1.848
 6079SOL     OW18988   4.385   3.652   2.815
 6079SOL    HW118989   4.339   3.740   2.802
 6079SOL    HW218990   4.484   3.664   2.808
 6080SOL     OW18991   4.583   2.818   2.723
 6080SOL    HW118992   4.637   2.749   2.771
 6080SOL    HW218993   4.551   2.887   2.789
 6081SOL     OW18994   4.807   2.846   1.949
 6081SOL    HW118995   4.784   2.899   1.867
 6081SOL    HW218996   4.888   2.790   1.930
 6082SOL     OW18997   3.945   3.176   3.706
 6082SOL    HW118998   3.880   3.103   3.685
 6082SOL    HW218999   3.949   3.190   3.804
 6083SOL     OW19000   3.803   3.102   2.515
 6083SOL    HW119001   3.802   3.055   2.603
 6083SOL    HW219002   3.885   3.074   2.464
 6084SOL     OW19003   4.396   3.253   3.486
 6084SOL    HW119004   4.318   3.203   3.524
 6084SOL    HW219005   4.393   3.348   3.517
 6085SOL     OW19006   4.152   2.286   2.382
 6085SOL    HW119007   4.182   2.214   2.320
 6085SOL    HW219008   4.113   2.246   2.465
 6086SOL     OW19009   5.429   3.349   2.966
 6086SOL    HW119010   5.336   3.324   2.939
 6086SOL    HW219011   5.455   3.299   3.048
 6087SOL     OW19012   4.041   2.409   3.142
 6087SOL    HW119013   4.079   2.350   3.214
 6087SOL    HW219014   4.081   2.383   3.054
 6088SOL     OW19015   4.536   3.448   2.549
 6088SOL    HW119016   4.568   3.458   2.455
 6088SOL    HW219017   4.457   3.386   2.551
 6089SOL     OW19018   5.148   2.076   2.974
 6089SOL    HW119019   5.200   2.011   3.029
 6089SOL    HW219020   5.099   2.139   3.035
 6090SOL     OW19021   4.725   1.896   3.016
 6090SOL    HW119022   4.662   1.824   2.985
 6090SOL    HW219023   4.818   1.860   3.016
 6091SOL     OW19024   4.494   3.192   2.163
 6091SOL    HW119025   4.448   3.105   2.180
 6091SOL    HW219026   4.585   3.189   2.204
 6092SOL     OW19027   4.342   3.429   3.146
 6092SOL    HW119028   4.337   3.511   3.203
 6092SOL    HW219029   4.431   3.426   3.101
 6093SOL     OW19030   5.076   1.914   2.030
 6093SOL    HW119031   5.111   1.873   1.946
 6093SOL    HW219032   4.986   1.876   2.050
 6094SOL     OW19033   5.024   2.315   2.553
 6094SOL    HW119034   4.965   2.395   2.557
 6094SOL    HW219035   5.039   2.280   2.646
 6095SOL     OW19036   5.317   2.083   2.744
 6095SOL    HW119037   5.233   2.082   2.798
 6095SOL    HW219038   5.319   2.166   2.688
 6096SOL     OW19039   3.763   2.939   2.162
 6096SOL    HW119040   3.862   2.928   2.153
 6096SOL    HW219041   3.723   2.853   2.194
 6097SOL     OW19042   4.599   3.508   2.199
 6097SOL    HW119043   4.522   3.473   2.145
 6097SOL    HW219044   4.567   3.579   2.261
 6098SOL     OW19045   3.954   2.490   3.837
 6098SOL    HW119046   3.861   2.488   3.874
 6098SOL    HW219047   3.955   2.451   3.745
 6099SOL     OW19048   3.949   2.137   4.720
 6099SOL    HW119049   3.984   2.120   4.812
 6099SOL    HW219050   3.861   2.092   4.708
 6100SOL     OW19051   3.743   2.230   4.371
 6100SOL    HW119052   3.661   2.273   4.410
 6100SOL    HW219053   3.715   2.157   4.308
 6101SOL     OW19054   4.293   3.137   4.889
 6101SOL    HW119055   4.200   3.130   4.852
 6101SOL    HW219056   4.304   3.226   4.933
 6102SOL     OW19057   5.279   3.373   4.427
 6102SOL    HW119058   5.222   3.357   4.508
 6102SOL    HW219059   5.220   3.383   4.347
 6103SOL     OW19060   4.859   2.565   4.441
 6103SOL    HW119061   4.916   2.643   4.416
 6103SOL    HW219062   4.799   2.591   4.517
 6104SOL     OW19063   4.492   3.006   4.747
 6104SOL    HW119064   4.414   3.023   4.807
 6104SOL    HW219065   4.526   3.093   4.711
 6105SOL     OW19066   4.574   2.660   5.547
 6105SOL    HW119067   4.570   2.736   5.612
 6105SOL    HW219068   4.596   2.696   5.456
 6106SOL     OW19069   4.409   2.874   4.389
 6106SOL    HW119070   4.478   2.858   4.459
 6106SOL    HW219071   4.336   2.931   4.427
 6107SOL     OW19072   4.410   3.023   5.527
 6107SOL    HW119073   4.470   3.102   5.541
 6107SOL    HW219074   4.324   3.054   5.486
 6108SOL     OW19075   4.059   3.297   4.785
 6108SOL    HW119076   3.981   3.266   4.732
 6108SOL    HW219077   4.117   3.355   4.728
 6109SOL     OW19078   5.184   3.367   5.063
 6109SOL    HW119079   5.208   3.461   5.089
 6109SOL    HW219080   5.168   3.313   5.145
 6110SOL     OW19081   4.162   2.254   5.223
 6110SOL    HW119082   4.244   2.198   5.232
 6110SOL    HW219083   4.081   2.196   5.227
 6111SOL     OW19084   3.955   3.575   4.207
 6111SOL    HW119085   3.989   3.652   4.261
 6111SOL    HW219086   3.999   3.575   4.117
 6112SOL     OW19087   4.851   3.203   5.414
 6112SOL    HW119088   4.898   3.203   5.502
 6112SOL    HW219089   4.803   3.116   5.403
 6113SOL     OW19090   3.954   3.296   4.262
 6113SOL    HW119091   3.928   3.392   4.262
 6113SOL    HW219092   3.883   3.242   4.307
 6114SOL     OW19093   3.964   2.953   4.610
 6114SOL    HW119094   3.978   2.869   4.662
 6114SOL    HW219095   3.909   3.017   4.665
 6115SOL     OW19096   4.344   3.648   5.163
 6115SOL    HW119097   4.252   3.631   5.198
 6115SOL    HW219098   4.372   3.740   5.189
 6116SOL     OW19099   4.330   2.826   3.847
 6116SOL    HW119100   4.337   2.910   3.793
 6116SOL    HW219101   4.376   2.839   3.935
 6117SOL     OW19102   3.846   2.505   4.287
 6117SOL    HW119103   3.801   2.417   4.304
 6117SOL    HW219104   3.845   2.559   4.371
 6118SOL     OW19105   3.751   3.458   3.841
 6118SOL    HW119106   3.732   3.362   3.862
 6118SOL    HW219107   3.718   3.516   3.916
 6119SOL     OW19108   5.413   2.784   4.336
 6119SOL    HW119109   5.508   2.755   4.344
 6119SOL    HW219110   5.405   2.849   4.261
 6120SOL     OW19111   3.837   2.599   5.321
 6120SOL    HW119112   3.925   2.586   5.366
 6120SOL    HW219113   3.824   2.696   5.299
 6121SOL     OW19114   4.337   3.227   4.450
 6121SOL    HW119115   4.288   3.140   4.459
 6121SOL    HW219116   4.314   3.270   4.363
 6122SOL     OW19117   5.017   3.090   5.147
 6122SOL    HW119118   5.054   3.017   5.089
 6122SOL    HW219119   5.069   3.095   5.232
 6123SOL     OW19120   4.533   1.866   4.226
 6123SOL    HW119121   4.573   1.957   4.217
 6123SOL    HW219122   4.433   1.874   4.232
 6124SOL     OW19123   3.921   2.838   4.988
 6124SOL    HW119124   4.010   2.793   4.974
 6124SOL    HW219125   3.848   2.773   4.969
 6125SOL     OW19126   4.911   3.654   5.340
 6125SOL    HW119127   4.935   3.714   5.264
 6125SOL    HW219128   4.918   3.559   5.310
 6126SOL     OW19129   4.041   2.113   5.525
 6126SOL    HW119130   4.112   2.184   5.531
 6126SOL    HW219131   3.953   2.152   5.553
 6127SOL     OW19132   5.190   3.279   4.677
 6127SOL    HW119133   5.131   3.285   4.757
 6127SOL    HW219134   5.175   3.191   4.631
 6128SOL     OW19135   4.322   2.591   3.994
 6128SOL    HW119136   4.346   2.660   3.926
 6128SOL    HW219137   4.244   2.624   4.048
 6129SOL     OW19138   5.005   2.207   4.668
 6129SOL    HW119139   4.919   2.157   4.655
 6129SOL    HW219140   5.067   2.153   4.724
 6130SOL     OW19141   4.531   2.467   5.189
 6130SOL    HW119142   4.484   2.464   5.278
 6130SOL    HW219143   4.480   2.412   5.123
 6131SOL     OW19144   5.118   2.331   5.398
 6131SOL    HW119145   5.098   2.374   5.486
 6131SOL    HW219146   5.196   2.269   5.407
 6132SOL     OW19147   4.697   2.752   5.296
 6132SOL    HW119148   4.743   2.668   5.267
 6132SOL    HW219149   4.641   2.786   5.221
 6133SOL     OW19150   4.715   2.272   4.966
 6133SOL    HW119151   4.638   2.306   5.020
 6133SOL    HW219152   4.681   2.221   4.887
 6134SOL     OW19153   4.765   2.563   4.153
 6134SOL    HW119154   4.791   2.559   4.249
 6134SOL    HW219155   4.680   2.512   4.139
 6135SOL     OW19156   3.800   2.673   4.513
 6135SOL    HW119157   3.899   2.661   4.522
 6135SOL    HW219158   3.776   2.768   4.534
 6136SOL     OW19159   3.854   3.683   5.295
 6136SOL    HW119160   3.844   3.668   5.394
 6136SOL    HW219161   3.768   3.719   5.259
 6137SOL     OW19162   4.589   2.210   3.919
 6137SOL    HW119163   4.648   2.273   3.870
 6137SOL    HW219164   4.608   2.116   3.890
 6138SOL     OW19165   5.086   3.006   4.269
 6138SOL    HW119166   5.169   2.977   4.221
 6138SOL    HW219167   5.037   3.073   4.213
 6139SOL     OW19168   4.274   2.058   4.609
 6139SOL    HW119169   4.269   2.053   4.709
 6139SOL    HW219170   4.276   2.154   4.580
 6140SOL     OW19171   4.732   3.318   4.201
 6140SOL    HW119172   4.686   3.390   4.149
 6140SOL    HW219173   4.728   3.338   4.299
 6141SOL     OW19174   4.075   3.663   4.577
 6141SOL    HW119175   4.125   3.577   4.583
 6141SOL    HW219176   4.140   3.740   4.574
 6142SOL     OW19177   4.951   3.412   5.230
 6142SOL    HW119178   4.957   3.335   5.294
 6142SOL    HW219179   4.899   3.386   5.150
 6143SOL     OW19180   4.045   2.805   3.966
 6143SOL    HW119181   4.127   2.844   3.924
 6143SOL    HW219182   4.018   2.723   3.917
 6144SOL     OW19183   4.185   3.128   5.451
 6144SOL    HW119184   4.135   3.129   5.365
 6144SOL    HW219185   4.122   3.110   5.527
 6145SOL     OW19186   4.835   3.638   3.961
 6145SOL    HW119187   4.775   3.576   4.011
 6145SOL    HW219188   4.866   3.594   3.876
 6146SOL     OW19189   3.926   2.147   5.222
 6146SOL    HW119190   3.846   2.207   5.209
 6146SOL    HW219191   3.916   2.098   5.308
 6147SOL     OW19192   4.188   3.605   4.047
 6147SOL    HW119193   4.221   3.644   4.133
 6147SOL    HW219194   4.264   3.598   3.982
 6148SOL     OW19195   5.124   1.969   4.150
 6148SOL    HW119196   5.100   1.932   4.060
 6148SOL    HW219197   5.223   1.985   4.154
 6149SOL     OW19198   3.973   3.647   4.965
 6149SOL    HW119199   4.030   3.582   5.015
 6149SOL    HW219200   3.957   3.614   4.872
 6150SOL     OW19201   4.664   3.560   4.628
 6150SOL    HW119202   4.744   3.503   4.649
 6150SOL    HW219203   4.615   3.520   4.551
 6151SOL     OW19204   4.106   2.562   4.204
 6151SOL    HW119205   4.151   2.472   4.201
 6151SOL    HW219206   4.012   2.551   4.237
 6152SOL     OW19207   4.338   1.984   3.841
 6152SOL    HW119208   4.436   1.962   3.848
 6152SOL    HW219209   4.307   1.967   3.748
 6153SOL     OW19210   4.505   2.126   5.473
 6153SOL    HW119211   4.572   2.065   5.516
 6153SOL    HW219212   4.432   2.145   5.538
 6154SOL     OW19213   4.612   3.376   4.919
 6154SOL    HW119214   4.589   3.351   4.825
 6154SOL    HW219215   4.673   3.307   4.958
 6155SOL     OW19216   5.075   2.452   5.157
 6155SOL    HW119217   5.103   2.409   5.242
 6155SOL    HW219218   5.100   2.548   5.158
 6156SOL     OW19219   4.527   3.264   4.648
 6156SOL    HW119220   4.617   3.278   4.606
 6156SOL    HW219221   4.456   3.266   4.577
 6157SOL     OW19222   4.646   2.365   4.623
 6157SOL    HW119223   4.621   2.356   4.527
 6157SOL    HW219224   4.694   2.283   4.654
 6158SOL     OW19225   4.263   1.926   4.236
 6158SOL    HW119226   4.182   1.927   4.294
 6158SOL    HW219227   4.266   2.009   4.181
 6159SOL     OW19228   5.158   3.050   3.765
 6159SOL    HW119229   5.190   2.974   3.822
 6159SOL    HW219230   5.066   3.077   3.795
 6160SOL     OW19231   4.021   1.897   3.895
 6160SOL    HW119232   4.070   1.981   3.874
 6160SOL    HW219233   4.083   1.832   3.940
 6161SOL     OW19234   4.659   2.098   4.204
 6161SOL    HW119235   4.611   2.139   4.126
 6161SOL    HW219236   4.758   2.096   4.185
 6162SOL     OW19237   4.800   2.545   5.188
 6162SOL    HW119238   4.720   2.484   5.191
 6162SOL    HW219239   4.881   2.492   5.164
 6163SOL     OW19240   4.951   3.432   4.517
 6163SOL    HW119241   4.972   3.506   4.452
 6163SOL    HW219242   5.019   3.432   4.590
 6164SOL     OW19243   4.183   3.014   4.465
 6164SOL    HW119244   4.112   2.987   4.530
 6164SOL    HW219245   4.157   2.986   4.372
 6165SOL     OW19246   4.995   3.659   4.315
 6165SOL    HW119247   5.039   3.723   4.251
 6165SOL    HW219248   4.945   3.711   4.385
 6166SOL     OW19249   4.756   2.411   3.740
 6166SOL    HW119250   4.715   2.493   3.701
 6166SOL    HW219251   4.820   2.437   3.813
 6167SOL     OW19252   3.802   2.418   5.110
 6167SOL    HW119253   3.894   2.417   5.069
 6167SOL    HW219254   3.796   2.492   5.177
 6168SOL     OW19255   4.285   2.084   4.871
 6168SOL    HW119256   4.323   2.000   4.908
 6168SOL    HW219257   4.197   2.103   4.915
 6169SOL     OW19258   4.590   2.316   4.366
 6169SOL    HW119259   4.558   2.388   4.304
 6169SOL    HW219260   4.614   2.235   4.313
 6170SOL     OW19261   4.741   1.901   4.477
 6170SOL    HW119262   4.669   1.906   4.408
 6170SOL    HW219263   4.717   1.832   4.546
 6171SOL     OW19264   5.153   3.035   4.591
 6171SOL    HW119265   5.098   2.951   4.584
 6171SOL    HW219266   5.179   3.064   4.499
 6172SOL     OW19267   4.212   3.247   3.898
 6172SOL    HW119268   4.125   3.232   3.945
 6172SOL    HW219269   4.195   3.273   3.803
 6173SOL     OW19270   5.114   2.437   3.802
 6173SOL    HW119271   5.060   2.416   3.883
 6173SOL    HW219272   5.205   2.396   3.811
 6174SOL     OW19273   4.251   2.118   4.052
 6174SOL    HW119274   4.278   2.059   3.977
 6174SOL    HW219275   4.251   2.213   4.021
 6175SOL     OW19276   4.788   3.209   5.064
 6175SOL    HW119277   4.708   3.186   5.119
 6175SOL    HW219278   4.871   3.183   5.113
 6176SOL     OW19279   5.316   3.491   5.349
 6176SOL    HW119280   5.343   3.525   5.259
 6176SOL    HW219281   5.395   3.453   5.395
 6177SOL     OW19282   4.835   3.057   4.824
 6177SOL    HW119283   4.795   3.101   4.905
 6177SOL    HW219284   4.794   3.094   4.741
 6178SOL     OW19285   4.639   1.951   5.126
 6178SOL    HW119286   4.664   1.931   5.031
 6178SOL    HW219287   4.711   2.007   5.168
 6179SOL     OW19288   4.704   2.978   5.443
 6179SOL    HW119289   4.605   2.984   5.453
 6179SOL    HW219290   4.727   2.898   5.387
 6180SOL     OW19291   4.429   2.912   4.092
 6180SOL    HW119292   4.415   2.919   4.191
 6180SOL    HW219293   4.513   2.861   4.074
 6181SOL     OW19294   4.134   2.675   4.975
 6181SOL    HW119295   4.220   2.687   5.025
 6181SOL    HW219296   4.092   2.588   5.002
 6182SOL     OW19297   4.998   2.248   4.986
 6182SOL    HW119298   5.019   2.322   5.050
 6182SOL    HW219299   4.909   2.265   4.943
 6183SOL     OW19300   3.788   3.426   5.055
 6183SOL    HW119301   3.742   3.508   5.021
 6183SOL    HW219302   3.886   3.445   5.064
 6184SOL     OW19303   4.091   2.962   4.225
 6184SOL    HW119304   4.084   3.045   4.169
 6184SOL    HW219305   4.095   2.882   4.165
 6185SOL     OW19306   4.290   2.399   4.589
 6185SOL    HW119307   4.302   2.465   4.515
 6185SOL    HW219308   4.336   2.433   4.672
 6186SOL     OW19309   4.976   3.210   4.112
 6186SOL    HW119310   5.026   3.287   4.152
 6186SOL    HW219311   4.881   3.212   4.144
 6187SOL     OW19312   4.996   3.307   4.866
 6187SOL    HW119313   5.043   3.320   4.953
 6187SOL    HW219314   4.930   3.233   4.875
 6188SOL     OW19315   4.078   3.372   5.053
 6188SOL    HW119316   4.057   3.328   4.966
 6188SOL    HW219317   4.175   3.398   5.056
 6189SOL     OW19318   4.126   2.613   5.322
 6189SOL    HW119319   4.194   2.668   5.275
 6189SOL    HW219320   4.166   2.525   5.349
 6190SOL     OW19321   4.737   1.967   5.494
 6190SOL    HW119322   4.743   2.052   5.442
 6190SOL    HW219323   4.769   1.891   5.437
 6191SOL     OW19324   4.228   1.912   5.464
 6191SOL    HW119325   4.186   1.855   5.394
 6191SOL    HW219326   4.162   1.981   5.496
 6192SOL     OW19327   4.297   2.732   4.753
 6192SOL    HW119328   4.341   2.821   4.744
 6192SOL    HW219329   4.234   2.732   4.830
 6193SOL     OW19330   5.084   2.724   4.769
 6193SOL    HW119331   5.009   2.724   4.703
 6193SOL    HW219332   5.121   2.632   4.778
 6194SOL     OW19333   4.933   2.387   3.999
 6194SOL    HW119334   4.946   2.303   4.053
 6194SOL    HW219335   4.904   2.461   4.059
 6195SOL     OW19336   4.031   2.075   4.955
 6195SOL    HW119337   4.008   2.112   5.045
 6195SOL    HW219338   4.001   1.980   4.949
 6196SOL     OW19339   3.761   3.172   5.006
 6196SOL    HW119340   3.814   3.123   5.074
 6196SOL    HW219341   3.783   3.270   5.011
 6197SOL     OW19342   4.456   2.496   4.788
 6197SOL    HW119343   4.515   2.470   4.712
 6197SOL    HW219344   4.428   2.592   4.777
 6198SOL     OW19345   4.031   1.925   4.342
 6198SOL    HW119346   4.020   2.019   4.375
 6198SOL    HW219347   4.026   1.862   4.419
 6199SOL     OW19348   5.346   2.229   4.098
 6199SOL    HW119349   5.348   2.153   4.162
 6199SOL    HW219350   5.298   2.306   4.138
 6200SOL     OW19351   4.747   2.628   4.690
 6200SOL    HW119352   4.762   2.649   4.786
 6200SOL    HW219353   4.717   2.533   4.681
 6201SOL     OW19354   4.704   3.435   5.424
 6201SOL    HW119355   4.684   3.479   5.336
 6201SOL    HW219356   4.743   3.344   5.408
 6202SOL     OW19357   4.074   2.760   5.528
 6202SOL    HW119358   4.150   2.804   5.576
 6202SOL    HW219359   4.109   2.713   5.446
 6203SOL     OW19360   5.027   2.700   3.766
 6203SOL    HW119361   5.061   2.607   3.781
 6203SOL    HW219362   5.045   2.727   3.671
 6204SOL     OW19363   4.792   3.195   4.573
 6204SOL    HW119364   4.799   3.111   4.518
 6204SOL    HW219365   4.854   3.264   4.537
 6205SOL     OW19366   4.043   2.672   4.673
 6205SOL    HW119367   4.136   2.708   4.678
 6205SOL    HW219368   4.037   2.587   4.725
 6206SOL     OW19369   4.063   2.371   4.730
 6206SOL    HW119370   4.011   2.288   4.713
 6206SOL    HW219371   4.140   2.376   4.666
 6207SOL     OW19372   4.862   2.242   5.402
 6207SOL    HW119373   4.817   2.305   5.466
 6207SOL    HW219374   4.955   2.273   5.385
 6208SOL     OW19375   4.884   2.069   5.201
 6208SOL    HW119376   4.884   2.133   5.278
 6208SOL    HW219377   4.912   2.117   5.118
 6209SOL     OW19378   3.732   3.188   3.924
 6209SOL    HW119379   3.639   3.209   3.893
 6209SOL    HW219380   3.742   3.089   3.937
 6210SOL     OW19381   3.812   3.663   4.651
 6210SOL    HW119382   3.770   3.577   4.624
 6210SOL    HW219383   3.906   3.666   4.617
 6211SOL     OW19384   4.228   3.430   4.634
 6211SOL    HW119385   4.294   3.504   4.643
 6211SOL    HW219386   4.272   3.351   4.592
 6212SOL     OW19387   4.726   2.658   4.962
 6212SOL    HW119388   4.767   2.626   5.048
 6212SOL    HW219389   4.630   2.631   4.959
 6213SOL     OW19390   3.764   2.406   4.838
 6213SOL    HW119391   3.849   2.373   4.797
 6213SOL    HW219392   3.777   2.421   4.936
 6214SOL     OW19393   3.913   2.382   5.446
 6214SOL    HW119394   3.972   2.342   5.376
 6214SOL    HW219395   3.855   2.453   5.405
 6215SOL     OW19396   5.093   2.812   5.384
 6215SOL    HW119397   5.132   2.901   5.404
 6215SOL    HW219398   5.103   2.792   5.287
 6216SOL     OW19399   4.539   2.434   4.049
 6216SOL    HW119400   4.546   2.345   4.003
 6216SOL    HW219401   4.445   2.468   4.041
 6217SOL     OW19402   3.976   3.426   5.468
 6217SOL    HW119403   3.946   3.483   5.544
 6217SOL    HW219404   3.969   3.329   5.494
 6218SOL     OW19405   4.395   2.326   4.993
 6218SOL    HW119406   4.361   2.237   4.963
 6218SOL    HW219407   4.421   2.380   4.913
 6219SOL     OW19408   4.654   3.540   5.189
 6219SOL    HW119409   4.630   3.522   5.094
 6219SOL    HW219410   4.684   3.634   5.199
 6220SOL     OW19411   4.197   2.362   3.915
 6220SOL    HW119412   4.258   2.442   3.919
 6220SOL    HW219413   4.102   2.393   3.922
 6221SOL     OW19414   3.883   2.999   5.190
 6221SOL    HW119415   3.905   2.938   5.266
 6221SOL    HW219416   3.893   2.950   5.104
 6222SOL     OW19417   5.071   2.921   4.958
 6222SOL    HW119418   5.095   2.858   4.884
 6222SOL    HW219419   4.981   2.961   4.940
 6223SOL     OW19420   5.026   2.717   4.033
 6223SOL    HW119421   4.940   2.686   4.075
 6223SOL    HW219422   5.022   2.703   3.934
 6224SOL     OW19423   4.976   3.593   4.852
 6224SOL    HW119424   5.060   3.598   4.798
 6224SOL    HW219425   4.953   3.497   4.870
 6225SOL     OW19426   3.807   3.120   4.746
 6225SOL    HW119427   3.802   3.119   4.846
 6225SOL    HW219428   3.724   3.079   4.708
 6226SOL     OW19429   4.412   3.524   5.440
 6226SOL    HW119430   4.356   3.605   5.449
 6226SOL    HW219431   4.464   3.528   5.354
 6227SOL     OW19432   5.450   1.997   4.247
 6227SOL    HW119433   5.523   1.980   4.180
 6227SOL    HW219434   5.419   1.910   4.285
 6228SOL     OW19435   5.112   3.435   4.201
 6228SOL    HW119436   5.179   3.447   4.127
 6228SOL    HW219437   5.072   3.524   4.224
 6229SOL     OW19438   3.854   3.656   5.575
 6229SOL    HW119439   3.813   3.582   5.628
 6229SOL    HW219440   3.918   3.707   5.633
 6230SOL     OW19441   5.004   2.789   4.396
 6230SOL    HW119442   5.064   2.708   4.398
 6230SOL    HW219443   5.044   2.858   4.336
 6231SOL     OW19444   4.554   3.135   5.146
 6231SOL    HW119445   4.549   3.168   5.241
 6231SOL    HW219446   4.468   3.154   5.100
 6232SOL     OW19447   4.396   3.478   3.878
 6232SOL    HW119448   4.405   3.488   3.779
 6232SOL    HW219449   4.356   3.389   3.899
 6233SOL     OW19450   3.987   2.188   4.444
 6233SOL    HW119451   3.908   2.239   4.410
 6233SOL    HW219452   3.978   2.173   4.542
 6234SOL     OW19453   4.918   3.474   3.755
 6234SOL    HW119454   4.924   3.381   3.792
 6234SOL    HW219455   4.859   3.474   3.675
 6235SOL     OW19456   4.546   2.864   5.096
 6235SOL    HW119457   4.586   2.863   5.004
 6235SOL    HW219458   4.556   2.956   5.136
 6236SOL     OW19459   4.640   2.772   4.015
 6236SOL    HW119460   4.703   2.810   3.947
 6236SOL    HW219461   4.680   2.689   4.054
 6237SOL     OW19462   4.096   3.150   5.214
 6237SOL    HW119463   4.083   3.243   5.180
 6237SOL    HW219464   4.012   3.098   5.201
 6238SOL     OW19465   4.763   2.960   4.420
 6238SOL    HW119466   4.693   2.913   4.474
 6238SOL    HW219467   4.822   2.892   4.377
 6239SOL     OW19468   4.738   2.098   4.695
 6239SOL    HW119469   4.730   2.062   4.602
 6239SOL    HW219470   4.736   2.022   4.760
 6240SOL     OW19471   4.314   3.349   4.215
 6240SOL    HW119472   4.356   3.291   4.145
 6240SOL    HW219473   4.270   3.428   4.171
 6241SOL     OW19474   3.979   3.210   4.014
 6241SOL    HW119475   3.883   3.211   3.987
 6241SOL    HW219476   3.991   3.263   4.098
 6242SOL     OW19477   3.829   2.875   5.450
 6242SOL    HW119478   3.752   2.842   5.504
 6242SOL    HW219479   3.914   2.845   5.492
 6243SOL     OW19480   4.396   2.065   5.213
 6243SOL    HW119481   4.486   2.049   5.173
 6243SOL    HW219482   4.404   2.070   5.312
 6244SOL     OW19483   3.799   2.207   3.757
 6244SOL    HW119484   3.707   2.179   3.728
 6244SOL    HW219485   3.830   2.284   3.701
 6245SOL     OW19486   5.164   2.718   5.122
 6245SOL    HW119487   5.107   2.770   5.059
 6245SOL    HW219488   5.260   2.730   5.098
 6246SOL     OW19489   3.796   2.028   4.042
 6246SOL    HW119490   3.779   2.111   3.988
 6246SOL    HW219491   3.886   1.991   4.020
 6247SOL     OW19492   4.907   3.197   3.843
 6247SOL    HW119493   4.808   3.186   3.845
 6247SOL    HW219494   4.941   3.212   3.936
 6248SOL     OW19495   4.337   2.704   5.155
 6248SOL    HW119496   4.393   2.785   5.138
 6248SOL    HW219497   4.396   2.624   5.158
 6249SOL     OW19498   4.440   2.427   5.432
 6249SOL    HW119499   4.459   2.492   5.506
 6249SOL    HW219500   4.500   2.347   5.441
 6250SOL     OW19501   5.174   3.082   5.357
 6250SOL    HW119502   5.165   3.072   5.456
 6250SOL    HW219503   5.270   3.075   5.331
 6251SOL     OW19504   4.114   3.603   5.284
 6251SOL    HW119505   4.023   3.644   5.282
 6251SOL    HW219506   4.107   3.509   5.316
 6252SOL     OW19507   4.949   2.187   4.173
 6252SOL    HW119508   5.014   2.113   4.162
 6252SOL    HW219509   4.969   2.237   4.257
 6253SOL     OW19510   4.318   2.607   4.376
 6253SOL    HW119511   4.368   2.692   4.357
 6253SOL    HW219512   4.230   2.609   4.328
 6254SOL     OW19513   4.583   3.236   3.740
 6254SOL    HW119514   4.537   3.251   3.828
 6254SOL    HW219515   4.627   3.321   3.710
 6255SOL     OW19516   4.385   3.652   4.677
 6255SOL    HW119517   4.339   3.740   4.664
 6255SOL    HW219518   4.484   3.664   4.670
 6256SOL     OW19519   4.583   2.818   4.585
 6256SOL    HW119520   4.637   2.749   4.633
 6256SOL    HW219521   4.551   2.887   4.651
 6257SOL     OW19522   4.807   2.846   3.811
 6257SOL    HW119523   4.784   2.899   3.729
 6257SOL    HW219524   4.888   2.790   3.792
 6258SOL     OW19525   3.945   3.176   5.568
 6258SOL    HW119526   3.880   3.103   5.547
 6258SOL    HW219527   3.949   3.190   5.666
 6259SOL     OW19528   3.803   3.102   4.377
 6259SOL    HW119529   3.802   3.055   4.465
 6259SOL    HW219530   3.885   3.074   4.326
 6260SOL     OW19531   4.396   3.253   5.348
 6260SOL    HW119532   4.318   3.203   5.386
 6260SOL    HW219533   4.393   3.348   5.379
 6261SOL     OW19534   4.152   2.286   4.244
 6261SOL    HW119535   4.182   2.214   4.182
 6261SOL    HW219536   4.113   2.246   4.327
 6262SOL     OW19537   5.429   3.349   4.828
 6262SOL    HW119538   5.336   3.324   4.801
 6262SOL    HW219539   5.455   3.299   4.910
 6263SOL     OW19540   4.041   2.409   5.004
 6263SOL    HW119541   4.079   2.350   5.076
 6263SOL    HW219542   4.081   2.383   4.916
 6264SOL     OW19543   4.536   3.448   4.411
 6264SOL    HW119544   4.568   3.458   4.317
 6264SOL    HW219545   4.457   3.386   4.413
 6265SOL     OW19546   5.148   2.076   4.836
 6265SOL    HW119547   5.200   2.011   4.891
 6265SOL    HW219548   5.099   2.139   4.897
 6266SOL     OW19549   4.725   1.896   4.878
 6266SOL    HW119550   4.662   1.824   4.847
 6266SOL    HW219551   4.818   1.860   4.878
 6267SOL     OW19552   4.494   3.192   4.025
 6267SOL    HW119553   4.448   3.105   4.042
 6267SOL    HW219554   4.585   3.189   4.066
 6268SOL     OW19555   4.342   3.429   5.008
 6268SOL    HW119556   4.337   3.511   5.065
 6268SOL    HW219557   4.431   3.426   4.963
 6269SOL     OW19558   5.076   1.914   3.892
 6269SOL    HW119559   5.111   1.873   3.808
 6269SOL    HW219560   4.986   1.876   3.912
 6270SOL     OW19561   5.024   2.315   4.415
 6270SOL    HW119562   4.965   2.395   4.419
 6270SOL    HW219563   5.039   2.280   4.508
 6271SOL     OW19564   5.317   2.083   4.606
 6271SOL    HW119565   5.233   2.082   4.660
 6271SOL    HW219566   5.319   2.166   4.550
 6272SOL     OW19567   3.763   2.939   4.024
 6272SOL    HW119568   3.862   2.928   4.015
 6272SOL    HW219569   3.723   2.853   4.056
 6273SOL     OW19570   4.599   3.508   4.061
 6273SOL    HW119571   4.522   3.473   4.007
 6273SOL    HW219572   4.567   3.579   4.123
 6274SOL     OW19573   3.954   2.490   5.699
 6274SOL    HW119574   3.861   2.488   5.736
 6274SOL    HW219575   3.955   2.451   5.607
 6275SOL     OW19576   3.949   2.137   6.582
 6275SOL    HW119577   3.984   2.120   6.674
 6275SOL    HW219578   3.861   2.092   6.570
 6276SOL     OW19579   3.743   2.230   6.233
 6276SOL    HW119580   3.661   2.273   6.272
 6276SOL    HW219581   3.715   2.157   6.170
 6277SOL     OW19582   4.293   3.137   6.751
 6277SOL    HW119583   4.200   3.130   6.714
 6277SOL    HW219584   4.304   3.226   6.795
 6278SOL     OW19585   5.279   3.373   6.289
 6278SOL    HW119586   5.222   3.357   6.370
 6278SOL    HW219587   5.220   3.383   6.209
 6279SOL     OW19588   4.859   2.565   6.303
 6279SOL    HW119589   4.916   2.643   6.278
 6279SOL    HW219590   4.799   2.591   6.379
 6280SOL     OW19591   4.492   3.006   6.609
 6280SOL    HW119592   4.414   3.023   6.669
 6280SOL    HW219593   4.526   3.093   6.573
 6281SOL     OW19594   4.574   2.660   7.409
 6281SOL    HW119595   4.570   2.736   7.474
 6281SOL    HW219596   4.596   2.696   7.318
 6282SOL     OW19597   4.409   2.874   6.251
 6282SOL    HW119598   4.478   2.858   6.321
 6282SOL    HW219599   4.336   2.931   6.289
 6283SOL     OW19600   4.410   3.023   7.389
 6283SOL    HW119601   4.470   3.102   7.403
 6283SOL    HW219602   4.324   3.054   7.348
 6284SOL     OW19603   4.059   3.297   6.647
 6284SOL    HW119604   3.981   3.266   6.594
 6284SOL    HW219605   4.117   3.355   6.590
 6285SOL     OW19606   5.184   3.367   6.925
 6285SOL    HW119607   5.208   3.461   6.951
 6285SOL    HW219608   5.168   3.313   7.007
 6286SOL     OW19609   4.162   2.254   7.085
 6286SOL    HW119610   4.244   2.198   7.094
 6286SOL    HW219611   4.081   2.196   7.089
 6287SOL     OW19612   3.955   3.575   6.069
 6287SOL    HW119613   3.989   3.652   6.123
 6287SOL    HW219614   3.999   3.575   5.979
 6288SOL     OW19615   4.851   3.203   7.276
 6288SOL    HW119616   4.898   3.203   7.364
 6288SOL    HW219617   4.803   3.116   7.265
 6289SOL     OW19618   3.954   3.296   6.124
 6289SOL    HW119619   3.928   3.392   6.124
 6289SOL    HW219620   3.883   3.242   6.169
 6290SOL     OW19621   3.964   2.953   6.472
 6290SOL    HW119622   3.978   2.869   6.524
 6290SOL    HW219623   3.909   3.017   6.527
 6291SOL     OW19624   4.344   3.648   7.025
 6291SOL    HW119625   4.252   3.631   7.060
 6291SOL    HW219626   4.372   3.740   7.051
 6292SOL     OW19627   4.330   2.826   5.709
 6292SOL    HW119628   4.337   2.910   5.655
 6292SOL    HW219629   4.376   2.839   5.797
 6293SOL     OW19630   3.846   2.505   6.149
 6293SOL    HW119631   3.801   2.417   6.166
 6293SOL    HW219632   3.845   2.559   6.233
 6294SOL     OW19633   3.751   3.458   5.703
 6294SOL    HW119634   3.732   3.362   5.724
 6294SOL    HW219635   3.718   3.516   5.778
 6295SOL     OW19636   5.413   2.784   6.198
 6295SOL    HW119637   5.508   2.755   6.206
 6295SOL    HW219638   5.405   2.849   6.123
 6296SOL     OW19639   3.837   2.599   7.183
 6296SOL    HW119640   3.925   2.586   7.228
 6296SOL    HW219641   3.824   2.696   7.161
 6297SOL     OW19642   4.337   3.227   6.312
 6297SOL    HW119643   4.288   3.140   6.321
 6297SOL    HW219644   4.314   3.270   6.225
 6298SOL     OW19645   5.017   3.090   7.009
 6298SOL    HW119646   5.054   3.017   6.951
 6298SOL    HW219647   5.069   3.095   7.094
 6299SOL     OW19648   4.533   1.866   6.088
 6299SOL    HW119649   4.573   1.957   6.079
 6299SOL    HW219650   4.433   1.874   6.094
 6300SOL     OW19651   3.921   2.838   6.850
 6300SOL    HW119652   4.010   2.793   6.836
 6300SOL    HW219653   3.848   2.773   6.831
 6301SOL     OW19654   4.911   3.654   7.202
 6301SOL    HW119655   4.935   3.714   7.126
 6301SOL    HW219656   4.918   3.559   7.172
 6302SOL     OW19657   4.041   2.113   7.387
 6302SOL    HW119658   4.112   2.184   7.393
 6302SOL    HW219659   3.953   2.152   7.415
 6303SOL     OW19660   5.190   3.279   6.539
 6303SOL    HW119661   5.131   3.285   6.619
 6303SOL    HW219662   5.175   3.191   6.493
 6304SOL     OW19663   4.322   2.591   5.856
 6304SOL    HW119664   4.346   2.660   5.788
 6304SOL    HW219665   4.244   2.624   5.910
 6305SOL     OW19666   5.005   2.207   6.530
 6305SOL    HW119667   4.919   2.157   6.517
 6305SOL    HW219668   5.067   2.153   6.586
 6306SOL     OW19669   4.531   2.467   7.051
 6306SOL    HW119670   4.484   2.464   7.140
 6306SOL    HW219671   4.480   2.412   6.985
 6307SOL     OW19672   5.118   2.331   7.260
 6307SOL    HW119673   5.098   2.374   7.348
 6307SOL    HW219674   5.196   2.269   7.269
 6308SOL     OW19675   4.697   2.752   7.158
 6308SOL    HW119676   4.743   2.668   7.129
 6308SOL    HW219677   4.641   2.786   7.083
 6309SOL     OW19678   4.715   2.272   6.828
 6309SOL    HW119679   4.638   2.306   6.882
 6309SOL    HW219680   4.681   2.221   6.749
 6310SOL     OW19681   4.765   2.563   6.015
 6310SOL    HW119682   4.791   2.559   6.111
 6310SOL    HW219683   4.680   2.512   6.001
 6311SOL     OW19684   3.800   2.673   6.375
 6311SOL    HW119685   3.899   2.661   6.384
 6311SOL    HW219686   3.776   2.768   6.396
 6312SOL     OW19687   3.854   3.683   7.157
 6312SOL    HW119688   3.844   3.668   7.256
 6312SOL    HW219689   3.768   3.719   7.121
 6313SOL     OW19690   4.589   2.210   5.781
 6313SOL    HW119691   4.648   2.273   5.732
 6313SOL    HW219692   4.608   2.116   5.752
 6314SOL     OW19693   5.086   3.006   6.131
 6314SOL    HW119694   5.169   2.977   6.083
 6314SOL    HW219695   5.037   3.073   6.075
 6315SOL     OW19696   4.274   2.058   6.471
 6315SOL    HW119697   4.269   2.053   6.571
 6315SOL    HW219698   4.276   2.154   6.442
 6316SOL     OW19699   4.732   3.318   6.063
 6316SOL    HW119700   4.686   3.390   6.011
 6316SOL    HW219701   4.728   3.338   6.161
 6317SOL     OW19702   4.075   3.663   6.439
 6317SOL    HW119703   4.125   3.577   6.445
 6317SOL    HW219704   4.140   3.740   6.436
 6318SOL     OW19705   4.951   3.412   7.092
 6318SOL    HW119706   4.957   3.335   7.156
 6318SOL    HW219707   4.899   3.386   7.012
 6319SOL     OW19708   4.045   2.805   5.828
 6319SOL    HW119709   4.127   2.844   5.786
 6319SOL    HW219710   4.018   2.723   5.779
 6320SOL     OW19711   4.185   3.128   7.313
 6320SOL    HW119712   4.135   3.129   7.227
 6320SOL    HW219713   4.122   3.110   7.389
 6321SOL     OW19714   4.835   3.638   5.823
 6321SOL    HW119715   4.775   3.576   5.873
 6321SOL    HW219716   4.866   3.594   5.738
 6322SOL     OW19717   3.926   2.147   7.084
 6322SOL    HW119718   3.846   2.207   7.071
 6322SOL    HW219719   3.916   2.098   7.170
 6323SOL     OW19720   4.188   3.605   5.909
 6323SOL    HW119721   4.221   3.644   5.995
 6323SOL    HW219722   4.264   3.598   5.844
 6324SOL     OW19723   5.124   1.969   6.012
 6324SOL    HW119724   5.100   1.932   5.922
 6324SOL    HW219725   5.223   1.985   6.016
 6325SOL     OW19726   3.973   3.647   6.827
 6325SOL    HW119727   4.030   3.582   6.877
 6325SOL    HW219728   3.957   3.614   6.734
 6326SOL     OW19729   4.664   3.560   6.490
 6326SOL    HW119730   4.744   3.503   6.511
 6326SOL    HW219731   4.615   3.520   6.413
 6327SOL     OW19732   4.106   2.562   6.066
 6327SOL    HW119733   4.151   2.472   6.063
 6327SOL    HW219734   4.012   2.551   6.099
 6328SOL     OW19735   4.338   1.984   5.703
 6328SOL    HW119736   4.436   1.962   5.710
 6328SOL    HW219737   4.307   1.967   5.610
 6329SOL     OW19738   4.505   2.126   7.335
 6329SOL    HW119739   4.572   2.065   7.378
 6329SOL    HW219740   4.432   2.145   7.400
 6330SOL     OW19741   4.612   3.376   6.781
 6330SOL    HW119742   4.589   3.351   6.687
 6330SOL    HW219743   4.673   3.307   6.820
 6331SOL     OW19744   5.075   2.452   7.019
 6331SOL    HW119745   5.103   2.409   7.104
 6331SOL    HW219746   5.100   2.548   7.020
 6332SOL     OW19747   4.527   3.264   6.510
 6332SOL    HW119748   4.617   3.278   6.468
 6332SOL    HW219749   4.456   3.266   6.439
 6333SOL     OW19750   4.646   2.365   6.485
 6333SOL    HW119751   4.621   2.356   6.389
 6333SOL    HW219752   4.694   2.283   6.516
 6334SOL     OW19753   4.263   1.926   6.098
 6334SOL    HW119754   4.182   1.927   6.156
 6334SOL    HW219755   4.266   2.009   6.043
 6335SOL     OW19756   5.158   3.050   5.627
 6335SOL    HW119757   5.190   2.974   5.684
 6335SOL    HW219758   5.066   3.077   5.657
 6336SOL     OW19759   4.021   1.897   5.757
 6336SOL    HW119760   4.070   1.981   5.736
 6336SOL    HW219761   4.083   1.832   5.802
 6337SOL     OW19762   4.659   2.098   6.066
 6337SOL    HW119763   4.611   2.139   5.988
 6337SOL    HW219764   4.758   2.096   6.047
 6338SOL     OW19765   4.800   2.545   7.050
 6338SOL    HW119766   4.720   2.484   7.053
 6338SOL    HW219767   4.881   2.492   7.026
 6339SOL     OW19768   4.951   3.432   6.379
 6339SOL    HW119769   4.972   3.506   6.314
 6339SOL    HW219770   5.019   3.432   6.452
 6340SOL     OW19771   4.183   3.014   6.327
 6340SOL    HW119772   4.112   2.987   6.392
 6340SOL    HW219773   4.157   2.986   6.234
 6341SOL     OW19774   4.995   3.659   6.177
 6341SOL    HW119775   5.039   3.723   6.113
 6341SOL    HW219776   4.945   3.711   6.247
 6342SOL     OW19777   4.756   2.411   5.602
 6342SOL    HW119778   4.715   2.493   5.563
 6342SOL    HW219779   4.820   2.437   5.675
 6343SOL     OW19780   3.802   2.418   6.972
 6343SOL    HW119781   3.894   2.417   6.931
 6343SOL    HW219782   3.796   2.492   7.039
 6344SOL     OW19783   4.285   2.084   6.733
 6344SOL    HW119784   4.323   2.000   6.770
 6344SOL    HW219785   4.197   2.103   6.777
 6345SOL     OW19786   4.590   2.316   6.228
 6345SOL    HW119787   4.558   2.388   6.166
 6345SOL    HW219788   4.614   2.235   6.175
 6346SOL     OW19789   4.741   1.901   6.339
 6346SOL    HW119790   4.669   1.906   6.270
 6346SOL    HW219791   4.717   1.832   6.408
 6347SOL     OW19792   5.153   3.035   6.453
 6347SOL    HW119793   5.098   2.951   6.446
 6347SOL    HW219794   5.179   3.064   6.361
 6348SOL     OW19795   4.212   3.247   5.760
 6348SOL    HW119796   4.125   3.232   5.807
 6348SOL    HW219797   4.195   3.273   5.665
 6349SOL     OW19798   5.114   2.437   5.664
 6349SOL    HW119799   5.060   2.416   5.745
 6349SOL    HW219800   5.205   2.396   5.673
 6350SOL     OW19801   4.251   2.118   5.914
 6350SOL    HW119802   4.278   2.059   5.839
 6350SOL    HW219803   4.251   2.213   5.883
 6351SOL     OW19804   4.788   3.209   6.926
 6351SOL    HW119805   4.708   3.186   6.981
 6351SOL    HW219806   4.871   3.183   6.975
 6352SOL     OW19807   5.316   3.491   7.211
 6352SOL    HW119808   5.343   3.525   7.121
 6352SOL    HW219809   5.395   3.453   7.257
 6353SOL     OW19810   4.835   3.057   6.686
 6353SOL    HW119811   4.795   3.101   6.767
 6353SOL    HW219812   4.794   3.094   6.603
 6354SOL     OW19813   4.639   1.951   6.988
 6354SOL    HW119814   4.664   1.931   6.893
 6354SOL    HW219815   4.711   2.007   7.030
 6355SOL     OW19816   4.704   2.978   7.305
 6355SOL    HW119817   4.605   2.984   7.315
 6355SOL    HW219818   4.727   2.898   7.249
 6356SOL     OW19819   4.429   2.912   5.954
 6356SOL    HW119820   4.415   2.919   6.053
 6356SOL    HW219821   4.513   2.861   5.936
 6357SOL     OW19822   4.134   2.675   6.837
 6357SOL    HW119823   4.220   2.687   6.887
 6357SOL    HW219824   4.092   2.588   6.864
 6358SOL     OW19825   4.998   2.248   6.848
 6358SOL    HW119826   5.019   2.322   6.912
 6358SOL    HW219827   4.909   2.265   6.805
 6359SOL     OW19828   3.788   3.426   6.917
 6359SOL    HW119829   3.742   3.508   6.883
 6359SOL    HW219830   3.886   3.445   6.926
 6360SOL     OW19831   4.091   2.962   6.087
 6360SOL    HW119832   4.084   3.045   6.031
 6360SOL    HW219833   4.095   2.882   6.027
 6361SOL     OW19834   4.290   2.399   6.451
 6361SOL    HW119835   4.302   2.465   6.377
 6361SOL    HW219836   4.336   2.433   6.534
 6362SOL     OW19837   4.976   3.210   5.974
 6362SOL    HW119838   5.026   3.287   6.014
 6362SOL    HW219839   4.881   3.212   6.006
 6363SOL     OW19840   4.996   3.307   6.728
 6363SOL    HW119841   5.043   3.320   6.815
 6363SOL    HW219842   4.930   3.233   6.737
 6364SOL     OW19843   4.078   3.372   6.915
 6364SOL    HW119844   4.057   3.328   6.828
 6364SOL    HW219845   4.175   3.398   6.918
 6365SOL     OW19846   4.126   2.613   7.184
 6365SOL    HW119847   4.194   2.668   7.137
 6365SOL    HW219848   4.166   2.525   7.211
 6366SOL     OW19849   4.737   1.967   7.356
 6366SOL    HW119850   4.743   2.052   7.304
 6366SOL    HW219851   4.769   1.891   7.299
 6367SOL     OW19852   4.228   1.912   7.326
 6367SOL    HW119853   4.186   1.855   7.256
 6367SOL    HW219854   4.162   1.981   7.358
 6368SOL     OW19855   4.297   2.732   6.615
 6368SOL    HW119856   4.341   2.821   6.606
 6368SOL    HW219857   4.234   2.732   6.692
 6369SOL     OW19858   5.084   2.724   6.631
 6369SOL    HW119859   5.009   2.724   6.565
 6369SOL    HW219860   5.121   2.632   6.640
 6370SOL     OW19861   4.933   2.387   5.861
 6370SOL    HW119862   4.946   2.303   5.915
 6370SOL    HW219863   4.904   2.461   5.921
 6371SOL     OW19864   4.031   2.075   6.817
 6371SOL    HW119865   4.008   2.112   6.907
 6371SOL    HW219866   4.001   1.980   6.811
 6372SOL     OW19867   3.761   3.172   6.868
 6372SOL    HW119868   3.814   3.123   6.936
 6372SOL    HW219869   3.783   3.270   6.873
 6373SOL     OW19870   4.456   2.496   6.650
 6373SOL    HW119871   4.515   2.470   6.574
 6373SOL    HW219872   4.428   2.592   6.639
 6374SOL     OW19873   4.031   1.925   6.204
 6374SOL    HW119874   4.020   2.019   6.237
 6374SOL    HW219875   4.026   1.862   6.281
 6375SOL     OW19876   5.346   2.229   5.960
 6375SOL    HW119877   5.348   2.153   6.024
 6375SOL    HW219878   5.298   2.306   6.000
 6376SOL     OW19879   4.747   2.628   6.552
 6376SOL    HW119880   4.762   2.649   6.648
 6376SOL    HW219881   4.717   2.533   6.543
 6377SOL     OW19882   4.704   3.435   7.286
 6377SOL    HW119883   4.684   3.479   7.198
 6377SOL    HW219884   4.743   3.344   7.270
 6378SOL     OW19885   4.074   2.760   7.390
 6378SOL    HW119886   4.150   2.804   7.438
 6378SOL    HW219887   4.109   2.713   7.308
 6379SOL     OW19888   5.027   2.700   5.628
 6379SOL    HW119889   5.061   2.607   5.643
 6379SOL    HW219890   5.045   2.727   5.533
 6380SOL     OW19891   4.792   3.195   6.435
 6380SOL    HW119892   4.799   3.111   6.380
 6380SOL    HW219893   4.854   3.264   6.399
 6381SOL     OW19894   4.043   2.672   6.535
 6381SOL    HW119895   4.136   2.708   6.540
 6381SOL    HW219896   4.037   2.587   6.587
 6382SOL     OW19897   4.063   2.371   6.592
 6382SOL    HW119898   4.011   2.288   6.575
 6382SOL    HW219899   4.140   2.376   6.528
 6383SOL     OW19900   4.862   2.242   7.264
 6383SOL    HW119901   4.817   2.305   7.328
 6383SOL    HW219902   4.955   2.273   7.247
 6384SOL     OW19903   4.884   2.069   7.063
 6384SOL    HW119904   4.884   2.133   7.140
 6384SOL    HW219905   4.912   2.117   6.980
 6385SOL     OW19906   3.732   3.188   5.786
 6385SOL    HW119907   3.639   3.209   5.755
 6385SOL    HW219908   3.742   3.089   5.799
 6386SOL     OW19909   3.812   3.663   6.513
 6386SOL    HW119910   3.770   3.577   6.486
 6386SOL    HW219911   3.906   3.666   6.479
 6387SOL     OW19912   4.228   3.430   6.496
 6387SOL    HW119913   4.294   3.504   6.505
 6387SOL    HW219914   4.272   3.351   6.454
 6388SOL     OW19915   4.726   2.658   6.824
 6388SOL    HW119916   4.767   2.626   6.910
 6388SOL    HW219917   4.630   2.631   6.821
 6389SOL     OW19918   3.764   2.406   6.700
 6389SOL    HW119919   3.849   2.373   6.659
 6389SOL    HW219920   3.777   2.421   6.798
 6390SOL     OW19921   3.913   2.382   7.308
 6390SOL    HW119922   3.972   2.342   7.238
 6390SOL    HW219923   3.855   2.453   7.267
 6391SOL     OW19924   5.093   2.812   7.246
 6391SOL    HW119925   5.132   2.901   7.266
 6391SOL    HW219926   5.103   2.792   7.149
 6392SOL     OW19927   4.539   2.434   5.911
 6392SOL    HW119928   4.546   2.345   5.865
 6392SOL    HW219929   4.445   2.468   5.903
 6393SOL     OW19930   3.976   3.426   7.330
 6393SOL    HW119931   3.946   3.483   7.406
 6393SOL    HW219932   3.969   3.329   7.356
 6394SOL     OW19933   4.395   2.326   6.855
 6394SOL    HW119934   4.361   2.237   6.825
 6394SOL    HW219935   4.421   2.380   6.775
 6395SOL     OW19936   4.654   3.540   7.051
 6395SOL    HW119937   4.630   3.522   6.956
 6395SOL    HW219938   4.684   3.634   7.061
 6396SOL     OW19939   4.197   2.362   5.777
 6396SOL    HW119940   4.258   2.442   5.781
 6396SOL    HW219941   4.102   2.393   5.784
 6397SOL     OW19942   3.883   2.999   7.052
 6397SOL    HW119943   3.905   2.938   7.128
 6397SOL    HW219944   3.893   2.950   6.966
 6398SOL     OW19945   5.071   2.921   6.820
 6398SOL    HW119946   5.095   2.858   6.746
 6398SOL    HW219947   4.981   2.961   6.802
 6399SOL     OW19948   5.026   2.717   5.895
 6399SOL    HW119949   4.940   2.686   5.937
 6399SOL    HW219950   5.022   2.703   5.796
 6400SOL     OW19951   4.976   3.593   6.714
 6400SOL    HW119952   5.060   3.598   6.660
 6400SOL    HW219953   4.953   3.497   6.732
 6401SOL     OW19954   3.807   3.120   6.608
 6401SOL    HW119955   3.802   3.119   6.708
 6401SOL    HW219956   3.724   3.079   6.570
 6402SOL     OW19957   4.412   3.524   7.302
 6402SOL    HW119958   4.356   3.605   7.311
 6402SOL    HW219959   4.464   3.528   7.216
 6403SOL     OW19960   5.450   1.997   6.109
 6403SOL    HW119961   5.523   1.980   6.042
 6403SOL    HW219962   5.419   1.910   6.147
 6404SOL     OW19963   5.112   3.435   6.063
 6404SOL    HW119964   5.179   3.447   5.989
 6404SOL    HW219965   5.072   3.524   6.086
 6405SOL     OW19966   3.854   3.656   7.437
 6405SOL    HW119967   3.813   3.582   7.490
 6405SOL    HW219968   3.918   3.707   7.495
 6406SOL     OW19969   5.004   2.789   6.258
 6406SOL    HW119970   5.064   2.708   6.260
 6406SOL    HW219971   5.044   2.858   6.198
 6407SOL     OW19972   4.554   3.135   7.008
 6407SOL    HW119973   4.549   3.168   7.103
 6407SOL    HW219974   4.468   3.154   6.962
 6408SOL     OW19975   4.396   3.478   5.740
 6408SOL    HW119976   4.405   3.488   5.641
 6408SOL    HW219977   4.356   3.389   5.761
 6409SOL     OW19978   3.987   2.188   6.306
 6409SOL    HW119979   3.908   2.239   6.272
 6409SOL    HW219980   3.978   2.173   6.404
 6410SOL     OW19981   4.918   3.474   5.617
 6410SOL    HW119982   4.924   3.381   5.654
 6410SOL    HW219983   4.859   3.474   5.537
 6411SOL     OW19984   4.546   2.864   6.958
 6411SOL    HW119985   4.586   2.863   6.866
 6411SOL    HW219986   4.556   2.956   6.998
 6412SOL     OW19987   4.640   2.772   5.877
 6412SOL    HW119988   4.703   2.810   5.809
 6412SOL    HW219989   4.680   2.689   5.916
 6413SOL     OW19990   4.096   3.150   7.076
 6413SOL    HW119991   4.083   3.243   7.042
 6413SOL    HW219992   4.012   3.098   7.063
 6414SOL     OW19993   4.763   2.960   6.282
 6414SOL    HW119994   4.693   2.913   6.336
 6414SOL    HW219995   4.822   2.892   6.239
 6415SOL     OW19996   4.738   2.098   6.557
 6415SOL    HW119997   4.730   2.062   6.464
 6415SOL    HW219998   4.736   2.022   6.622
 6416SOL     OW19999   4.314   3.349   6.077
 6416SOL    HW120000   4.356   3.291   6.007
 6416SOL    HW220001   4.270   3.428   6.033
 6417SOL     OW20002   3.979   3.210   5.876
 6417SOL    HW120003   3.883   3.211   5.849
 6417SOL    HW220004   3.991   3.263   5.960
 6418SOL     OW20005   3.829   2.875   7.312
 6418SOL    HW120006   3.752   2.842   7.366
 6418SOL    HW220007   3.914   2.845   7.354
 6419SOL     OW20008   4.396   2.065   7.075
 6419SOL    HW120009   4.486   2.049   7.035
 6419SOL    HW220010   4.404   2.070   7.174
 6420SOL     OW20011   3.799   2.207   5.619
 6420SOL    HW120012   3.707   2.179   5.590
 6420SOL    HW220013   3.830   2.284   5.563
 6421SOL     OW20014   5.164   2.718   6.984
 6421SOL    HW120015   5.107   2.770   6.921
 6421SOL    HW220016   5.260   2.730   6.960
 6422SOL     OW20017   3.796   2.028   5.904
 6422SOL    HW120018   3.779   2.111   5.850
 6422SOL    HW220019   3.886   1.991   5.882
 6423SOL     OW20020   4.907   3.197   5.705
 6423SOL    HW120021   4.808   3.186   5.707
 6423SOL    HW220022   4.941   3.212   5.798
 6424SOL     OW20023   4.337   2.704   7.017
 6424SOL    HW120024   4.393   2.785   7.000
 6424SOL    HW220025   4.396   2.624   7.020
 6425SOL     OW20026   4.440   2.427   7.294
 6425SOL    HW120027   4.459   2.492   7.368
 6425SOL    HW220028   4.500   2.347   7.303
 6426SOL     OW20029   5.174   3.082   7.219
 6426SOL    HW120030   5.165   3.072   7.318
 6426SOL    HW220031   5.270   3.075   7.193
 6427SOL     OW20032   4.114   3.603   7.146
 6427SOL    HW120033   4.023   3.644   7.144
 6427SOL    HW220034   4.107   3.509   7.178
 6428SOL     OW20035   4.949   2.187   6.035
 6428SOL    HW120036   5.014   2.113   6.024
 6428SOL    HW220037   4.969   2.237   6.119
 6429SOL     OW20038   4.318   2.607   6.238
 6429SOL    HW120039   4.368   2.692   6.219
 6429SOL    HW220040   4.230   2.609   6.190
 6430SOL     OW20041   4.583   3.236   5.602
 6430SOL    HW120042   4.537   3.251   5.690
 6430SOL    HW220043   4.627   3.321   5.572
 6431SOL     OW20044   4.385   3.652   6.539
 6431SOL    HW120045   4.339   3.740   6.526
 6431SOL    HW220046   4.484   3.664   6.532
 6432SOL     OW20047   4.583   2.818   6.447
 6432SOL    HW120048   4.637   2.749   6.495
 6432SOL    HW220049   4.551   2.887   6.513
 6433SOL     OW20050   4.807   2.846   5.673
 6433SOL    HW120051   4.784   2.899   5.591
 6433SOL    HW220052   4.888   2.790   5.654
 6434SOL     OW20053   3.945   3.176   7.430
 6434SOL    HW120054   3.880   3.103   7.409
 6434SOL    HW220055   3.949   3.190   7.528
 6435SOL     OW20056   3.803   3.102   6.239
 6435SOL    HW120057   3.802   3.055   6.327
 6435SOL    HW220058   3.885   3.074   6.188
 6436SOL     OW20059   4.396   3.253   7.210
 6436SOL    HW120060   4.318   3.203   7.248
 6436SOL    HW220061   4.393   3.348   7.241
 6437SOL     OW20062   4.152   2.286   6.106
 6437SOL    HW120063   4.182   2.214   6.044
 6437SOL    HW220064   4.113   2.246   6.189
 6438SOL     OW20065   5.429   3.349   6.690
 6438SOL    HW120066   5.336   3.324   6.663
 6438SOL    HW220067   5.455   3.299   6.772
 6439SOL     OW20068   4.041   2.409   6.866
 6439SOL    HW120069   4.079   2.350   6.938
 6439SOL    HW220070   4.081   2.383   6.778
 6440SOL     OW20071   4.536   3.448   6.273
 6440SOL    HW120072   4.568   3.458   6.179
 6440SOL    HW220073   4.457   3.386   6.275
 6441SOL     OW20074   5.148   2.076   6.698
 6441SOL    HW120075   5.200   2.011   6.753
 6441SOL    HW220076   5.099   2.139   6.759
 6442SOL     OW20077   4.725   1.896   6.740
 6442SOL    HW120078   4.662   1.824   6.709
 6442SOL    HW220079   4.818   1.860   6.740
 6443SOL     OW20080   4.494   3.192   5.887
 6443SOL    HW120081   4.448   3.105   5.904
 6443SOL    HW220082   4.585   3.189   5.928
 6444SOL     OW20083   4.342   3.429   6.870
 6444SOL    HW120084   4.337   3.511   6.927
 6444SOL    HW220085   4.431   3.426   6.825
 6445SOL     OW20086   5.076   1.914   5.754
 6445SOL    HW120087   5.111   1.873   5.670
 6445SOL    HW220088   4.986   1.876   5.774
 6446SOL     OW20089   5.024   2.315   6.277
 6446SOL    HW120090   4.965   2.395   6.281
 6446SOL    HW220091   5.039   2.280   6.370
 6447SOL     OW20092   5.317   2.083   6.468
 6447SOL    HW120093   5.233   2.082   6.522
 6447SOL    HW220094   5.319   2.166   6.412
 6448SOL     OW20095   3.763   2.939   5.886
 6448SOL    HW120096   3.862   2.928   5.877
 6448SOL    HW220097   3.723   2.853   5.918
 6449SOL     OW20098   4.599   3.508   5.923
 6449SOL    HW120099   4.522   3.473   5.869
 6449SOL    HW220100   4.567   3.579   5.985
 6450SOL     OW20101   3.954   2.490   7.561
 6450SOL    HW120102   3.861   2.488   7.598
 6450SOL    HW220103   3.955   2.451   7.469
 6451SOL     OW20104   3.955   3.575   7.931
 6451SOL    HW120105   3.989   3.652   7.985
 6451SOL    HW220106   3.999   3.575   7.841
 6452SOL     OW20107   3.954   3.296   7.986
 6452SOL    HW120108   3.928   3.392   7.986
 6452SOL    HW220109   3.883   3.242   8.031
 6453SOL     OW20110   4.330   2.826   7.571
 6453SOL    HW120111   4.337   2.910   7.517
 6453SOL    HW220112   4.376   2.839   7.659
 6454SOL     OW20113   3.751   3.458   7.565
 6454SOL    HW120114   3.732   3.362   7.586
 6454SOL    HW220115   3.718   3.516   7.640
 6455SOL     OW20116   5.413   2.784   8.060
 6455SOL    HW120117   5.508   2.755   8.068
 6455SOL    HW220118   5.405   2.849   7.985
 6456SOL     OW20119   4.533   1.866   7.950
 6456SOL    HW120120   4.573   1.957   7.941
 6456SOL    HW220121   4.433   1.874   7.956
 6457SOL     OW20122   4.322   2.591   7.718
 6457SOL    HW120123   4.346   2.660   7.650
 6457SOL    HW220124   4.244   2.624   7.772
 6458SOL     OW20125   3.800   2.673   8.237
 6458SOL    HW120126   3.899   2.661   8.246
 6458SOL    HW220127   3.776   2.768   8.258
 6459SOL     OW20128   4.589   2.210   7.643
 6459SOL    HW120129   4.648   2.273   7.594
 6459SOL    HW220130   4.608   2.116   7.614
 6460SOL     OW20131   4.045   2.805   7.690
 6460SOL    HW120132   4.127   2.844   7.648
 6460SOL    HW220133   4.018   2.723   7.641
 6461SOL     OW20134   4.835   3.638   7.685
 6461SOL    HW120135   4.775   3.576   7.735
 6461SOL    HW220136   4.866   3.594   7.600
 6462SOL     OW20137   4.188   3.605   7.771
 6462SOL    HW120138   4.221   3.644   7.857
 6462SOL    HW220139   4.264   3.598   7.706
 6463SOL     OW20140   5.124   1.969   7.874
 6463SOL    HW120141   5.100   1.932   7.784
 6463SOL    HW220142   5.223   1.985   7.878
 6464SOL     OW20143   4.106   2.562   7.928
 6464SOL    HW120144   4.151   2.472   7.925
 6464SOL    HW220145   4.012   2.551   7.961
 6465SOL     OW20146   4.338   1.984   7.565
 6465SOL    HW120147   4.436   1.962   7.572
 6465SOL    HW220148   4.307   1.967   7.472
 6466SOL     OW20149   4.263   1.926   7.960
 6466SOL    HW120150   4.182   1.927   8.018
 6466SOL    HW220151   4.266   2.009   7.905
 6467SOL     OW20152   5.158   3.050   7.489
 6467SOL    HW120153   5.190   2.974   7.546
 6467SOL    HW220154   5.066   3.077   7.519
 6468SOL     OW20155   4.021   1.897   7.619
 6468SOL    HW120156   4.070   1.981   7.598
 6468SOL    HW220157   4.083   1.832   7.664
 6469SOL     OW20158   4.659   2.098   7.928
 6469SOL    HW120159   4.611   2.139   7.850
 6469SOL    HW220160   4.758   2.096   7.909
 6470SOL     OW20161   4.183   3.014   8.189
 6470SOL    HW120162   4.112   2.987   8.254
 6470SOL    HW220163   4.157   2.986   8.096
 6471SOL     OW20164   4.995   3.659   8.039
 6471SOL    HW120165   5.039   3.723   7.975
 6471SOL    HW220166   4.945   3.711   8.109
 6472SOL     OW20167   4.756   2.411   7.464
 6472SOL    HW120168   4.715   2.493   7.425
 6472SOL    HW220169   4.820   2.437   7.537
 6473SOL     OW20170   4.212   3.247   7.622
 6473SOL    HW120171   4.125   3.232   7.669
 6473SOL    HW220172   4.195   3.273   7.527
 6474SOL     OW20173   5.114   2.437   7.526
 6474SOL    HW120174   5.060   2.416   7.607
 6474SOL    HW220175   5.205   2.396   7.535
 6475SOL     OW20176   4.251   2.118   7.776
 6475SOL    HW120177   4.278   2.059   7.701
 6475SOL    HW220178   4.251   2.213   7.745
 6476SOL     OW20179   4.429   2.912   7.816
 6476SOL    HW120180   4.415   2.919   7.915
 6476SOL    HW220181   4.513   2.861   7.798
 6477SOL     OW20182   4.091   2.962   7.949
 6477SOL    HW120183   4.084   3.045   7.893
 6477SOL    HW220184   4.095   2.882   7.889
 6478SOL     OW20185   4.976   3.210   7.836
 6478SOL    HW120186   5.026   3.287   7.876
 6478SOL    HW220187   4.881   3.212   7.868
 6479SOL     OW20188   5.306   2.501   7.920
 6479SOL    HW120189   5.275   2.562   7.993
 6479SOL    HW220190   5.356   2.553   7.851
 6480SOL     OW20191   4.933   2.387   7.723
 6480SOL    HW120192   4.946   2.303   7.777
 6480SOL    HW220193   4.904   2.461   7.783
 6481SOL     OW20194   5.346   2.229   7.822
 6481SOL    HW120195   5.348   2.153   7.886
 6481SOL    HW220196   5.298   2.306   7.862
 6482SOL     OW20197   5.027   2.700   7.490
 6482SOL    HW120198   5.061   2.607   7.505
 6482SOL    HW220199   5.045   2.727   7.395
 6483SOL     OW20200   3.732   3.188   7.648
 6483SOL    HW120201   3.639   3.209   7.617
 6483SOL    HW220202   3.742   3.089   7.661
 6484SOL     OW20203   4.539   2.434   7.773
 6484SOL    HW120204   4.546   2.345   7.727
 6484SOL    HW220205   4.445   2.468   7.765
 6485SOL     OW20206   4.197   2.362   7.639
 6485SOL    HW120207   4.258   2.442   7.643
 6485SOL    HW220208   4.102   2.393   7.646
 6486SOL     OW20209   5.026   2.717   7.757
 6486SOL    HW120210   4.940   2.686   7.799
 6486SOL    HW220211   5.022   2.703   7.658
 6487SOL     OW20212   5.450   1.997   7.971
 6487SOL    HW120213   5.523   1.980   7.904
 6487SOL    HW220214   5.419   1.910   8.009
 6488SOL     OW20215   5.112   3.435   7.925
 6488SOL    HW120216   5.179   3.447   7.851
 6488SOL    HW220217   5.072   3.524   7.948
 6489SOL     OW20218   4.396   3.478   7.602
 6489SOL    HW120219   4.405   3.488   7.503
 6489SOL    HW220220   4.356   3.389   7.623
 6490SOL     OW20221   4.918   3.474   7.479
 6490SOL    HW120222   4.924   3.381   7.516
 6490SOL    HW220223   4.859   3.474   7.399
 6491SOL     OW20224   4.640   2.772   7.739
 6491SOL    HW120225   4.703   2.810   7.671
 6491SOL    HW220226   4.680   2.689   7.778
 6492SOL     OW20227   4.314   3.349   7.939
 6492SOL    HW120228   4.356   3.291   7.869
 6492SOL    HW220229   4.270   3.428   7.895
 6493SOL     OW20230   3.979   3.210   7.738
 6493SOL    HW120231   3.883   3.211   7.711
 6493SOL    HW220232   3.991   3.263   7.822
 6494SOL     OW20233   3.799   2.207   7.481
 6494SOL    HW120234   3.707   2.179   7.452
 6494SOL    HW220235   3.830   2.284   7.425
 6495SOL     OW20236   3.796   2.028   7.766
 6495SOL    HW120237   3.779   2.111   7.712
 6495SOL    HW220238   3.886   1.991   7.744
 6496SOL     OW20239   4.907   3.197   7.567
 6496SOL    HW120240   4.808   3.186   7.569
 6496SOL    HW220241   4.941   3.212   7.660
 6497SOL     OW20242   5.217   3.629   8.407
 6497SOL    HW120243   5.250   3.693   8.338
 6497SOL    HW220244   5.283   3.623   8.482
 6498SOL     OW20245   4.949   2.187   7.897
 6498SOL    HW120246   5.014   2.113   7.886
 6498SOL    HW220247   4.969   2.237   7.981
 6499SOL     OW20248   4.318   2.607   8.100
 6499SOL    HW120249   4.368   2.692   8.081
 6499SOL    HW220250   4.230   2.609   8.052
 6500SOL     OW20251   4.583   3.236   7.464
 6500SOL    HW120252   4.537   3.251   7.552
 6500SOL    HW220253   4.627   3.321   7.434
 6501SOL     OW20254   4.807   2.846   7.535
 6501SOL    HW120255   4.784   2.899   7.453
 6501SOL    HW220256   4.888   2.790   7.516
 6502SOL     OW20257   4.152   2.286   7.968
 6502SOL    HW120258   4.182   2.214   7.906
 6502SOL    HW220259   4.113   2.246   8.051
 6503SOL     OW20260   4.494   3.192   7.749
 6503SOL    HW120261   4.448   3.105   7.766
 6503SOL    HW220262   4.585   3.189   7.790
 6504SOL     OW20263   5.076   1.914   7.616
 6504SOL    HW120264   5.111   1.873   7.532
 6504SOL    HW220265   4.986   1.876   7.636
 6505SOL     OW20266   3.763   2.939   7.748
 6505SOL    HW120267   3.862   2.928   7.739
 6505SOL    HW220268   3.723   2.853   7.780
 6506SOL     OW20269   4.599   3.508   7.785
 6506SOL    HW120270   4.522   3.473   7.731
 6506SOL    HW220271   4.567   3.579   7.847
 6507SOL     OW20272   3.954   4.352   0.113
 6507SOL    HW120273   3.861   4.350   0.150
 6507SOL    HW220274   3.955   4.313   0.021
 6508SOL     OW20275   3.949   3.999   0.996
 6508SOL    HW120276   3.984   3.982   1.088
 6508SOL    HW220277   3.861   3.954   0.984
 6509SOL     OW20278   3.743   4.092   0.647
 6509SOL    HW120279   3.661   4.135   0.686
 6509SOL    HW220280   3.715   4.019   0.584
 6510SOL     OW20281   4.293   4.999   1.165
 6510SOL    HW120282   4.200   4.992   1.128
 6510SOL    HW220283   4.304   5.088   1.209
 6511SOL     OW20284   5.279   5.235   0.703
 6511SOL    HW120285   5.222   5.219   0.784
 6511SOL    HW220286   5.220   5.245   0.623
 6512SOL     OW20287   4.859   4.427   0.717
 6512SOL    HW120288   4.916   4.505   0.692
 6512SOL    HW220289   4.799   4.453   0.793
 6513SOL     OW20290   4.492   4.868   1.023
 6513SOL    HW120291   4.414   4.885   1.083
 6513SOL    HW220292   4.526   4.955   0.987
 6514SOL     OW20293   4.574   4.522   1.823
 6514SOL    HW120294   4.570   4.598   1.888
 6514SOL    HW220295   4.596   4.558   1.732
 6515SOL     OW20296   4.409   4.736   0.665
 6515SOL    HW120297   4.478   4.720   0.735
 6515SOL    HW220298   4.336   4.793   0.703
 6516SOL     OW20299   4.410   4.885   1.803
 6516SOL    HW120300   4.470   4.964   1.817
 6516SOL    HW220301   4.324   4.916   1.762
 6517SOL     OW20302   4.059   5.159   1.061
 6517SOL    HW120303   3.981   5.128   1.008
 6517SOL    HW220304   4.117   5.217   1.004
 6518SOL     OW20305   5.184   5.229   1.339
 6518SOL    HW120306   5.208   5.323   1.365
 6518SOL    HW220307   5.168   5.175   1.421
 6519SOL     OW20308   4.162   4.116   1.499
 6519SOL    HW120309   4.244   4.060   1.508
 6519SOL    HW220310   4.081   4.058   1.503
 6520SOL     OW20311   4.851   5.065   1.690
 6520SOL    HW120312   4.898   5.065   1.778
 6520SOL    HW220313   4.803   4.978   1.679
 6521SOL     OW20314   3.954   5.158   0.538
 6521SOL    HW120315   3.928   5.254   0.538
 6521SOL    HW220316   3.883   5.104   0.583
 6522SOL     OW20317   3.964   4.815   0.886
 6522SOL    HW120318   3.978   4.731   0.938
 6522SOL    HW220319   3.909   4.879   0.941
 6523SOL     OW20320   4.330   4.688   0.123
 6523SOL    HW120321   4.337   4.772   0.069
 6523SOL    HW220322   4.376   4.701   0.211
 6524SOL     OW20323   3.846   4.367   0.563
 6524SOL    HW120324   3.801   4.279   0.580
 6524SOL    HW220325   3.845   4.421   0.647
 6525SOL     OW20326   3.751   5.320   0.117
 6525SOL    HW120327   3.732   5.224   0.138
 6525SOL    HW220328   3.718   5.378   0.192
 6526SOL     OW20329   5.413   4.646   0.612
 6526SOL    HW120330   5.508   4.617   0.620
 6526SOL    HW220331   5.405   4.711   0.537
 6527SOL     OW20332   3.837   4.461   1.597
 6527SOL    HW120333   3.925   4.448   1.642
 6527SOL    HW220334   3.824   4.558   1.575
 6528SOL     OW20335   4.337   5.089   0.726
 6528SOL    HW120336   4.288   5.002   0.735
 6528SOL    HW220337   4.314   5.132   0.639
 6529SOL     OW20338   5.017   4.952   1.423
 6529SOL    HW120339   5.054   4.879   1.365
 6529SOL    HW220340   5.069   4.957   1.508
 6530SOL     OW20341   4.533   3.728   0.502
 6530SOL    HW120342   4.573   3.819   0.493
 6530SOL    HW220343   4.433   3.736   0.508
 6531SOL     OW20344   3.921   4.700   1.264
 6531SOL    HW120345   4.010   4.655   1.250
 6531SOL    HW220346   3.848   4.635   1.245
 6532SOL     OW20347   4.041   3.975   1.801
 6532SOL    HW120348   4.112   4.046   1.807
 6532SOL    HW220349   3.953   4.014   1.829
 6533SOL     OW20350   5.190   5.141   0.953
 6533SOL    HW120351   5.131   5.147   1.033
 6533SOL    HW220352   5.175   5.053   0.907
 6534SOL     OW20353   5.391   5.438   0.572
 6534SOL    HW120354   5.350   5.415   0.484
 6534SOL    HW220355   5.373   5.364   0.637
 6535SOL     OW20356   4.322   4.453   0.270
 6535SOL    HW120357   4.346   4.522   0.202
 6535SOL    HW220358   4.244   4.486   0.324
 6536SOL     OW20359   5.005   4.069   0.944
 6536SOL    HW120360   4.919   4.019   0.931
 6536SOL    HW220361   5.067   4.015   1.000
 6537SOL     OW20362   4.531   4.329   1.465
 6537SOL    HW120363   4.484   4.326   1.554
 6537SOL    HW220364   4.480   4.274   1.399
 6538SOL     OW20365   5.118   4.193   1.674
 6538SOL    HW120366   5.098   4.236   1.762
 6538SOL    HW220367   5.196   4.131   1.683
 6539SOL     OW20368   4.697   4.614   1.572
 6539SOL    HW120369   4.743   4.530   1.543
 6539SOL    HW220370   4.641   4.648   1.497
 6540SOL     OW20371   4.715   4.134   1.242
 6540SOL    HW120372   4.638   4.168   1.296
 6540SOL    HW220373   4.681   4.083   1.163
 6541SOL     OW20374   4.765   4.425   0.429
 6541SOL    HW120375   4.791   4.421   0.525
 6541SOL    HW220376   4.680   4.374   0.415
 6542SOL     OW20377   3.800   4.535   0.789
 6542SOL    HW120378   3.899   4.523   0.798
 6542SOL    HW220379   3.776   4.630   0.810
 6543SOL     OW20380   4.589   4.072   0.195
 6543SOL    HW120381   4.648   4.135   0.146
 6543SOL    HW220382   4.608   3.978   0.166
 6544SOL     OW20383   5.086   4.868   0.545
 6544SOL    HW120384   5.169   4.839   0.497
 6544SOL    HW220385   5.037   4.935   0.489
 6545SOL     OW20386   4.274   3.920   0.885
 6545SOL    HW120387   4.269   3.915   0.985
 6545SOL    HW220388   4.276   4.016   0.856
 6546SOL     OW20389   4.732   5.180   0.477
 6546SOL    HW120390   4.686   5.252   0.425
 6546SOL    HW220391   4.728   5.200   0.575
 6547SOL     OW20392   4.951   5.274   1.506
 6547SOL    HW120393   4.957   5.197   1.570
 6547SOL    HW220394   4.899   5.248   1.426
 6548SOL     OW20395   4.045   4.667   0.242
 6548SOL    HW120396   4.127   4.706   0.200
 6548SOL    HW220397   4.018   4.585   0.193
 6549SOL     OW20398   4.185   4.990   1.727
 6549SOL    HW120399   4.135   4.991   1.641
 6549SOL    HW220400   4.122   4.972   1.803
 6550SOL     OW20401   4.835   5.500   0.237
 6550SOL    HW120402   4.775   5.438   0.287
 6550SOL    HW220403   4.866   5.456   0.152
 6551SOL     OW20404   3.926   4.009   1.498
 6551SOL    HW120405   3.846   4.069   1.485
 6551SOL    HW220406   3.916   3.960   1.584
 6552SOL     OW20407   5.124   3.831   0.426
 6552SOL    HW120408   5.100   3.794   0.336
 6552SOL    HW220409   5.223   3.847   0.430
 6553SOL     OW20410   4.106   4.424   0.480
 6553SOL    HW120411   4.151   4.334   0.477
 6553SOL    HW220412   4.012   4.413   0.513
 6554SOL     OW20413   4.338   3.846   0.117
 6554SOL    HW120414   4.436   3.824   0.124
 6554SOL    HW220415   4.307   3.829   0.024
 6555SOL     OW20416   4.505   3.988   1.749
 6555SOL    HW120417   4.572   3.927   1.792
 6555SOL    HW220418   4.432   4.007   1.814
 6556SOL     OW20419   5.075   4.314   1.433
 6556SOL    HW120420   5.103   4.271   1.518
 6556SOL    HW220421   5.100   4.410   1.434
 6557SOL     OW20422   4.527   5.126   0.924
 6557SOL    HW120423   4.617   5.140   0.882
 6557SOL    HW220424   4.456   5.128   0.853
 6558SOL     OW20425   4.646   4.227   0.899
 6558SOL    HW120426   4.621   4.218   0.803
 6558SOL    HW220427   4.694   4.145   0.930
 6559SOL     OW20428   4.263   3.788   0.512
 6559SOL    HW120429   4.182   3.789   0.570
 6559SOL    HW220430   4.266   3.871   0.457
 6560SOL     OW20431   5.158   4.912   0.041
 6560SOL    HW120432   5.190   4.836   0.098
 6560SOL    HW220433   5.066   4.939   0.071
 6561SOL     OW20434   4.021   3.759   0.171
 6561SOL    HW120435   4.070   3.843   0.150
 6561SOL    HW220436   4.083   3.694   0.216
 6562SOL     OW20437   4.659   3.960   0.480
 6562SOL    HW120438   4.611   4.001   0.402
 6562SOL    HW220439   4.758   3.958   0.461
 6563SOL     OW20440   4.800   4.407   1.464
 6563SOL    HW120441   4.720   4.346   1.467
 6563SOL    HW220442   4.881   4.354   1.440
 6564SOL     OW20443   4.951   5.294   0.793
 6564SOL    HW120444   4.972   5.368   0.728
 6564SOL    HW220445   5.019   5.294   0.866
 6565SOL     OW20446   4.183   4.876   0.741
 6565SOL    HW120447   4.112   4.849   0.806
 6565SOL    HW220448   4.157   4.848   0.648
 6566SOL     OW20449   4.756   4.273   0.016
 6566SOL    HW120450   4.715   4.355  -0.023
 6566SOL    HW220451   4.820   4.299   0.089
 6567SOL     OW20452   3.802   4.280   1.386
 6567SOL    HW120453   3.894   4.279   1.345
 6567SOL    HW220454   3.796   4.354   1.453
 6568SOL     OW20455   4.285   3.946   1.147
 6568SOL    HW120456   4.323   3.862   1.184
 6568SOL    HW220457   4.197   3.965   1.191
 6569SOL     OW20458   4.590   4.178   0.642
 6569SOL    HW120459   4.558   4.250   0.580
 6569SOL    HW220460   4.614   4.097   0.589
 6570SOL     OW20461   4.741   3.763   0.753
 6570SOL    HW120462   4.669   3.768   0.684
 6570SOL    HW220463   4.717   3.694   0.822
 6571SOL     OW20464   5.153   4.897   0.867
 6571SOL    HW120465   5.098   4.813   0.860
 6571SOL    HW220466   5.179   4.926   0.775
 6572SOL     OW20467   4.212   5.109   0.174
 6572SOL    HW120468   4.125   5.094   0.221
 6572SOL    HW220469   4.195   5.135   0.079
 6573SOL     OW20470   5.114   4.299   0.078
 6573SOL    HW120471   5.060   4.278   0.159
 6573SOL    HW220472   5.205   4.258   0.087
 6574SOL     OW20473   4.251   3.980   0.328
 6574SOL    HW120474   4.278   3.921   0.253
 6574SOL    HW220475   4.251   4.075   0.297
 6575SOL     OW20476   4.788   5.071   1.340
 6575SOL    HW120477   4.708   5.048   1.395
 6575SOL    HW220478   4.871   5.045   1.389
 6576SOL     OW20479   4.835   4.919   1.100
 6576SOL    HW120480   4.795   4.963   1.181
 6576SOL    HW220481   4.794   4.956   1.017
 6577SOL     OW20482   4.639   3.813   1.402
 6577SOL    HW120483   4.664   3.793   1.307
 6577SOL    HW220484   4.711   3.869   1.444
 6578SOL     OW20485   4.704   4.840   1.719
 6578SOL    HW120486   4.605   4.846   1.729
 6578SOL    HW220487   4.727   4.760   1.663
 6579SOL     OW20488   4.429   4.774   0.368
 6579SOL    HW120489   4.415   4.781   0.467
 6579SOL    HW220490   4.513   4.723   0.350
 6580SOL     OW20491   4.134   4.537   1.251
 6580SOL    HW120492   4.220   4.549   1.301
 6580SOL    HW220493   4.092   4.450   1.278
 6581SOL     OW20494   4.998   4.110   1.262
 6581SOL    HW120495   5.019   4.184   1.326
 6581SOL    HW220496   4.909   4.127   1.219
 6582SOL     OW20497   4.091   4.824   0.501
 6582SOL    HW120498   4.084   4.907   0.445
 6582SOL    HW220499   4.095   4.744   0.441
 6583SOL     OW20500   4.290   4.261   0.865
 6583SOL    HW120501   4.302   4.327   0.791
 6583SOL    HW220502   4.336   4.295   0.948
 6584SOL     OW20503   4.976   5.072   0.388
 6584SOL    HW120504   5.026   5.149   0.428
 6584SOL    HW220505   4.881   5.074   0.420
 6585SOL     OW20506   4.996   5.169   1.142
 6585SOL    HW120507   5.043   5.182   1.229
 6585SOL    HW220508   4.930   5.095   1.151
 6586SOL     OW20509   4.078   5.234   1.329
 6586SOL    HW120510   4.057   5.190   1.242
 6586SOL    HW220511   4.175   5.260   1.332
 6587SOL     OW20512   4.126   4.475   1.598
 6587SOL    HW120513   4.194   4.530   1.551
 6587SOL    HW220514   4.166   4.387   1.625
 6588SOL     OW20515   4.737   3.829   1.770
 6588SOL    HW120516   4.743   3.914   1.718
 6588SOL    HW220517   4.769   3.753   1.713
 6589SOL     OW20518   4.228   3.774   1.740
 6589SOL    HW120519   4.186   3.717   1.670
 6589SOL    HW220520   4.162   3.843   1.772
 6590SOL     OW20521   4.297   4.594   1.029
 6590SOL    HW120522   4.341   4.683   1.020
 6590SOL    HW220523   4.234   4.594   1.106
 6591SOL     OW20524   5.084   4.586   1.045
 6591SOL    HW120525   5.009   4.586   0.979
 6591SOL    HW220526   5.121   4.494   1.054
 6592SOL     OW20527   4.933   4.249   0.275
 6592SOL    HW120528   4.946   4.165   0.329
 6592SOL    HW220529   4.904   4.323   0.335
 6593SOL     OW20530   4.031   3.937   1.231
 6593SOL    HW120531   4.008   3.974   1.321
 6593SOL    HW220532   4.001   3.842   1.225
 6594SOL     OW20533   3.761   5.034   1.282
 6594SOL    HW120534   3.814   4.985   1.350
 6594SOL    HW220535   3.783   5.132   1.287
 6595SOL     OW20536   4.456   4.358   1.064
 6595SOL    HW120537   4.515   4.332   0.988
 6595SOL    HW220538   4.428   4.454   1.053
 6596SOL     OW20539   4.031   3.787   0.618
 6596SOL    HW120540   4.020   3.881   0.651
 6596SOL    HW220541   4.026   3.724   0.695
 6597SOL     OW20542   5.346   4.091   0.374
 6597SOL    HW120543   5.348   4.015   0.438
 6597SOL    HW220544   5.298   4.168   0.414
 6598SOL     OW20545   4.747   4.490   0.966
 6598SOL    HW120546   4.762   4.511   1.062
 6598SOL    HW220547   4.717   4.395   0.957
 6599SOL     OW20548   4.074   4.622   1.804
 6599SOL    HW120549   4.150   4.666   1.852
 6599SOL    HW220550   4.109   4.575   1.722
 6600SOL     OW20551   5.027   4.562   0.042
 6600SOL    HW120552   5.061   4.469   0.057
 6600SOL    HW220553   5.045   4.589  -0.053
 6601SOL     OW20554   4.792   5.057   0.849
 6601SOL    HW120555   4.799   4.973   0.794
 6601SOL    HW220556   4.854   5.126   0.813
 6602SOL     OW20557   4.043   4.534   0.949
 6602SOL    HW120558   4.136   4.570   0.954
 6602SOL    HW220559   4.037   4.449   1.001
 6603SOL     OW20560   4.063   4.233   1.006
 6603SOL    HW120561   4.011   4.150   0.989
 6603SOL    HW220562   4.140   4.238   0.942
 6604SOL     OW20563   4.862   4.104   1.678
 6604SOL    HW120564   4.817   4.167   1.742
 6604SOL    HW220565   4.955   4.135   1.661
 6605SOL     OW20566   4.884   3.931   1.477
 6605SOL    HW120567   4.884   3.995   1.554
 6605SOL    HW220568   4.912   3.979   1.394
 6606SOL     OW20569   3.732   5.050   0.200
 6606SOL    HW120570   3.639   5.071   0.169
 6606SOL    HW220571   3.742   4.951   0.213
 6607SOL     OW20572   4.726   4.520   1.238
 6607SOL    HW120573   4.767   4.488   1.324
 6607SOL    HW220574   4.630   4.493   1.235
 6608SOL     OW20575   3.764   4.268   1.114
 6608SOL    HW120576   3.849   4.235   1.073
 6608SOL    HW220577   3.777   4.283   1.212
 6609SOL     OW20578   3.913   4.244   1.722
 6609SOL    HW120579   3.972   4.204   1.652
 6609SOL    HW220580   3.855   4.315   1.681
 6610SOL     OW20581   5.093   4.674   1.660
 6610SOL    HW120582   5.132   4.763   1.680
 6610SOL    HW220583   5.103   4.654   1.563
 6611SOL     OW20584   4.539   4.296   0.325
 6611SOL    HW120585   4.546   4.207   0.279
 6611SOL    HW220586   4.445   4.330   0.317
 6612SOL     OW20587   3.976   5.288   1.744
 6612SOL    HW120588   3.946   5.345   1.820
 6612SOL    HW220589   3.969   5.191   1.770
 6613SOL     OW20590   4.395   4.188   1.269
 6613SOL    HW120591   4.361   4.099   1.239
 6613SOL    HW220592   4.421   4.242   1.189
 6614SOL     OW20593   4.197   4.224   0.191
 6614SOL    HW120594   4.258   4.304   0.195
 6614SOL    HW220595   4.102   4.255   0.198
 6615SOL     OW20596   3.883   4.861   1.466
 6615SOL    HW120597   3.905   4.800   1.542
 6615SOL    HW220598   3.893   4.812   1.380
 6616SOL     OW20599   5.071   4.783   1.234
 6616SOL    HW120600   5.095   4.720   1.160
 6616SOL    HW220601   4.981   4.823   1.216
 6617SOL     OW20602   5.026   4.579   0.309
 6617SOL    HW120603   4.940   4.548   0.351
 6617SOL    HW220604   5.022   4.565   0.210
 6618SOL     OW20605   3.807   4.982   1.022
 6618SOL    HW120606   3.802   4.981   1.122
 6618SOL    HW220607   3.724   4.941   0.984
 6619SOL     OW20608   4.412   5.386   1.716
 6619SOL    HW120609   4.356   5.467   1.725
 6619SOL    HW220610   4.464   5.390   1.630
 6620SOL     OW20611   4.627   3.810   0.133
 6620SOL    HW120612   4.678   3.811   0.047
 6620SOL    HW220613   4.683   3.768   0.204
 6621SOL     OW20614   5.450   3.859   0.523
 6621SOL    HW120615   5.523   3.842   0.456
 6621SOL    HW220616   5.419   3.772   0.561
 6622SOL     OW20617   5.004   4.651   0.672
 6622SOL    HW120618   5.064   4.570   0.674
 6622SOL    HW220619   5.044   4.720   0.612
 6623SOL     OW20620   4.554   4.997   1.422
 6623SOL    HW120621   4.549   5.030   1.517
 6623SOL    HW220622   4.468   5.016   1.376
 6624SOL     OW20623   3.987   4.050   0.720
 6624SOL    HW120624   3.908   4.101   0.686
 6624SOL    HW220625   3.978   4.035   0.818
 6625SOL     OW20626   4.918   5.336   0.031
 6625SOL    HW120627   4.924   5.243   0.068
 6625SOL    HW220628   4.859   5.336  -0.049
 6626SOL     OW20629   4.546   4.726   1.372
 6626SOL    HW120630   4.586   4.725   1.280
 6626SOL    HW220631   4.556   4.818   1.412
 6627SOL     OW20632   4.640   4.634   0.291
 6627SOL    HW120633   4.703   4.672   0.223
 6627SOL    HW220634   4.680   4.551   0.330
 6628SOL     OW20635   4.096   5.012   1.490
 6628SOL    HW120636   4.083   5.105   1.456
 6628SOL    HW220637   4.012   4.960   1.477
 6629SOL     OW20638   4.763   4.822   0.696
 6629SOL    HW120639   4.693   4.775   0.750
 6629SOL    HW220640   4.822   4.754   0.653
 6630SOL     OW20641   4.738   3.960   0.971
 6630SOL    HW120642   4.730   3.924   0.878
 6630SOL    HW220643   4.736   3.884   1.036
 6631SOL     OW20644   3.979   5.072   0.290
 6631SOL    HW120645   3.883   5.073   0.263
 6631SOL    HW220646   3.991   5.125   0.374
 6632SOL     OW20647   3.829   4.737   1.726
 6632SOL    HW120648   3.752   4.704   1.780
 6632SOL    HW220649   3.914   4.707   1.768
 6633SOL     OW20650   4.396   3.927   1.489
 6633SOL    HW120651   4.486   3.911   1.449
 6633SOL    HW220652   4.404   3.932   1.588
 6634SOL     OW20653   3.799   4.069   0.033
 6634SOL    HW120654   3.707   4.041   0.004
 6634SOL    HW220655   3.830   4.146  -0.023
 6635SOL     OW20656   5.164   4.580   1.398
 6635SOL    HW120657   5.107   4.632   1.335
 6635SOL    HW220658   5.260   4.592   1.374
 6636SOL     OW20659   3.796   3.890   0.318
 6636SOL    HW120660   3.779   3.973   0.264
 6636SOL    HW220661   3.886   3.853   0.296
 6637SOL     OW20662   4.907   5.059   0.119
 6637SOL    HW120663   4.808   5.048   0.121
 6637SOL    HW220664   4.941   5.074   0.212
 6638SOL     OW20665   4.337   4.566   1.431
 6638SOL    HW120666   4.393   4.647   1.414
 6638SOL    HW220667   4.396   4.486   1.434
 6639SOL     OW20668   4.440   4.289   1.708
 6639SOL    HW120669   4.459   4.354   1.782
 6639SOL    HW220670   4.500   4.209   1.717
 6640SOL     OW20671   5.174   4.944   1.633
 6640SOL    HW120672   5.165   4.934   1.732
 6640SOL    HW220673   5.270   4.937   1.607
 6641SOL     OW20674   4.949   4.049   0.449
 6641SOL    HW120675   5.014   3.975   0.438
 6641SOL    HW220676   4.969   4.099   0.533
 6642SOL     OW20677   4.318   4.469   0.652
 6642SOL    HW120678   4.368   4.554   0.633
 6642SOL    HW220679   4.230   4.471   0.604
 6643SOL     OW20680   4.583   5.098   0.016
 6643SOL    HW120681   4.537   5.113   0.104
 6643SOL    HW220682   4.627   5.183  -0.014
 6644SOL     OW20683   4.583   4.680   0.861
 6644SOL    HW120684   4.637   4.611   0.909
 6644SOL    HW220685   4.551   4.749   0.927
 6645SOL     OW20686   4.807   4.708   0.087
 6645SOL    HW120687   4.784   4.761   0.005
 6645SOL    HW220688   4.888   4.652   0.068
 6646SOL     OW20689   3.945   5.038   1.844
 6646SOL    HW120690   3.880   4.965   1.823
 6646SOL    HW220691   3.949   5.052   1.942
 6647SOL     OW20692   3.803   4.964   0.653
 6647SOL    HW120693   3.802   4.917   0.741
 6647SOL    HW220694   3.885   4.936   0.602
 6648SOL     OW20695   4.396   5.115   1.624
 6648SOL    HW120696   4.318   5.065   1.662
 6648SOL    HW220697   4.393   5.210   1.655
 6649SOL     OW20698   4.152   4.148   0.520
 6649SOL    HW120699   4.182   4.076   0.458
 6649SOL    HW220700   4.113   4.108   0.603
 6650SOL     OW20701   5.429   5.211   1.104
 6650SOL    HW120702   5.336   5.186   1.077
 6650SOL    HW220703   5.455   5.161   1.186
 6651SOL     OW20704   4.041   4.271   1.280
 6651SOL    HW120705   4.079   4.212   1.352
 6651SOL    HW220706   4.081   4.245   1.192
 6652SOL     OW20707   5.148   3.938   1.112
 6652SOL    HW120708   5.200   3.873   1.167
 6652SOL    HW220709   5.099   4.001   1.173
 6653SOL     OW20710   4.725   3.758   1.154
 6653SOL    HW120711   4.662   3.686   1.123
 6653SOL    HW220712   4.818   3.722   1.154
 6654SOL     OW20713   4.494   5.054   0.301
 6654SOL    HW120714   4.448   4.967   0.318
 6654SOL    HW220715   4.585   5.051   0.342
 6655SOL     OW20716   4.342   5.291   1.284
 6655SOL    HW120717   4.337   5.373   1.341
 6655SOL    HW220718   4.431   5.288   1.239
 6656SOL     OW20719   5.076   3.776   0.168
 6656SOL    HW120720   5.111   3.735   0.084
 6656SOL    HW220721   4.986   3.738   0.188
 6657SOL     OW20722   5.024   4.177   0.691
 6657SOL    HW120723   4.965   4.257   0.695
 6657SOL    HW220724   5.039   4.142   0.784
 6658SOL     OW20725   5.317   3.945   0.882
 6658SOL    HW120726   5.233   3.944   0.936
 6658SOL    HW220727   5.319   4.028   0.826
 6659SOL     OW20728   3.763   4.801   0.300
 6659SOL    HW120729   3.862   4.790   0.291
 6659SOL    HW220730   3.723   4.715   0.332
 6660SOL     OW20731   3.954   4.352   1.975
 6660SOL    HW120732   3.861   4.350   2.012
 6660SOL    HW220733   3.955   4.313   1.883
 6661SOL     OW20734   3.949   3.999   2.858
 6661SOL    HW120735   3.984   3.982   2.950
 6661SOL    HW220736   3.861   3.954   2.846
 6662SOL     OW20737   3.743   4.092   2.509
 6662SOL    HW120738   3.661   4.135   2.548
 6662SOL    HW220739   3.715   4.019   2.446
 6663SOL     OW20740   4.293   4.999   3.027
 6663SOL    HW120741   4.200   4.992   2.990
 6663SOL    HW220742   4.304   5.088   3.071
 6664SOL     OW20743   5.279   5.235   2.565
 6664SOL    HW120744   5.222   5.219   2.646
 6664SOL    HW220745   5.220   5.245   2.485
 6665SOL     OW20746   4.859   4.427   2.579
 6665SOL    HW120747   4.916   4.505   2.554
 6665SOL    HW220748   4.799   4.453   2.655
 6666SOL     OW20749   4.492   4.868   2.885
 6666SOL    HW120750   4.414   4.885   2.945
 6666SOL    HW220751   4.526   4.955   2.849
 6667SOL     OW20752   4.574   4.522   3.685
 6667SOL    HW120753   4.570   4.598   3.750
 6667SOL    HW220754   4.596   4.558   3.594
 6668SOL     OW20755   4.409   4.736   2.527
 6668SOL    HW120756   4.478   4.720   2.597
 6668SOL    HW220757   4.336   4.793   2.565
 6669SOL     OW20758   4.410   4.885   3.665
 6669SOL    HW120759   4.470   4.964   3.679
 6669SOL    HW220760   4.324   4.916   3.624
 6670SOL     OW20761   4.059   5.159   2.923
 6670SOL    HW120762   3.981   5.128   2.870
 6670SOL    HW220763   4.117   5.217   2.866
 6671SOL     OW20764   5.184   5.229   3.201
 6671SOL    HW120765   5.208   5.323   3.227
 6671SOL    HW220766   5.168   5.175   3.283
 6672SOL     OW20767   4.162   4.116   3.361
 6672SOL    HW120768   4.244   4.060   3.370
 6672SOL    HW220769   4.081   4.058   3.365
 6673SOL     OW20770   4.851   5.065   3.552
 6673SOL    HW120771   4.898   5.065   3.640
 6673SOL    HW220772   4.803   4.978   3.541
 6674SOL     OW20773   3.954   5.158   2.400
 6674SOL    HW120774   3.928   5.254   2.400
 6674SOL    HW220775   3.883   5.104   2.445
 6675SOL     OW20776   3.964   4.815   2.748
 6675SOL    HW120777   3.978   4.731   2.800
 6675SOL    HW220778   3.909   4.879   2.803
 6676SOL     OW20779   4.330   4.688   1.985
 6676SOL    HW120780   4.337   4.772   1.931
 6676SOL    HW220781   4.376   4.701   2.073
 6677SOL     OW20782   3.846   4.367   2.425
 6677SOL    HW120783   3.801   4.279   2.442
 6677SOL    HW220784   3.845   4.421   2.509
 6678SOL     OW20785   3.751   5.320   1.979
 6678SOL    HW120786   3.732   5.224   2.000
 6678SOL    HW220787   3.718   5.378   2.054
 6679SOL     OW20788   5.413   4.646   2.474
 6679SOL    HW120789   5.508   4.617   2.482
 6679SOL    HW220790   5.405   4.711   2.399
 6680SOL     OW20791   3.837   4.461   3.459
 6680SOL    HW120792   3.925   4.448   3.504
 6680SOL    HW220793   3.824   4.558   3.437
 6681SOL     OW20794   4.337   5.089   2.588
 6681SOL    HW120795   4.288   5.002   2.597
 6681SOL    HW220796   4.314   5.132   2.501
 6682SOL     OW20797   5.017   4.952   3.285
 6682SOL    HW120798   5.054   4.879   3.227
 6682SOL    HW220799   5.069   4.957   3.370
 6683SOL     OW20800   4.533   3.728   2.364
 6683SOL    HW120801   4.573   3.819   2.355
 6683SOL    HW220802   4.433   3.736   2.370
 6684SOL     OW20803   3.921   4.700   3.126
 6684SOL    HW120804   4.010   4.655   3.112
 6684SOL    HW220805   3.848   4.635   3.107
 6685SOL     OW20806   4.041   3.975   3.663
 6685SOL    HW120807   4.112   4.046   3.669
 6685SOL    HW220808   3.953   4.014   3.691
 6686SOL     OW20809   5.190   5.141   2.815
 6686SOL    HW120810   5.131   5.147   2.895
 6686SOL    HW220811   5.175   5.053   2.769
 6687SOL     OW20812   5.391   5.438   2.434
 6687SOL    HW120813   5.350   5.415   2.346
 6687SOL    HW220814   5.373   5.364   2.499
 6688SOL     OW20815   4.322   4.453   2.132
 6688SOL    HW120816   4.346   4.522   2.064
 6688SOL    HW220817   4.244   4.486   2.186
 6689SOL     OW20818   5.005   4.069   2.806
 6689SOL    HW120819   4.919   4.019   2.793
 6689SOL    HW220820   5.067   4.015   2.862
 6690SOL     OW20821   4.531   4.329   3.327
 6690SOL    HW120822   4.484   4.326   3.416
 6690SOL    HW220823   4.480   4.274   3.261
 6691SOL     OW20824   5.118   4.193   3.536
 6691SOL    HW120825   5.098   4.236   3.624
 6691SOL    HW220826   5.196   4.131   3.545
 6692SOL     OW20827   4.697   4.614   3.434
 6692SOL    HW120828   4.743   4.530   3.405
 6692SOL    HW220829   4.641   4.648   3.359
 6693SOL     OW20830   4.715   4.134   3.104
 6693SOL    HW120831   4.638   4.168   3.158
 6693SOL    HW220832   4.681   4.083   3.025
 6694SOL     OW20833   4.765   4.425   2.291
 6694SOL    HW120834   4.791   4.421   2.387
 6694SOL    HW220835   4.680   4.374   2.277
 6695SOL     OW20836   3.800   4.535   2.651
 6695SOL    HW120837   3.899   4.523   2.660
 6695SOL    HW220838   3.776   4.630   2.672
 6696SOL     OW20839   4.589   4.072   2.057
 6696SOL    HW120840   4.648   4.135   2.008
 6696SOL    HW220841   4.608   3.978   2.028
 6697SOL     OW20842   5.086   4.868   2.407
 6697SOL    HW120843   5.169   4.839   2.359
 6697SOL    HW220844   5.037   4.935   2.351
 6698SOL     OW20845   4.274   3.920   2.747
 6698SOL    HW120846   4.269   3.915   2.847
 6698SOL    HW220847   4.276   4.016   2.718
 6699SOL     OW20848   4.732   5.180   2.339
 6699SOL    HW120849   4.686   5.252   2.287
 6699SOL    HW220850   4.728   5.200   2.437
 6700SOL     OW20851   4.951   5.274   3.368
 6700SOL    HW120852   4.957   5.197   3.432
 6700SOL    HW220853   4.899   5.248   3.288
 6701SOL     OW20854   4.045   4.667   2.104
 6701SOL    HW120855   4.127   4.706   2.062
 6701SOL    HW220856   4.018   4.585   2.055
 6702SOL     OW20857   4.185   4.990   3.589
 6702SOL    HW120858   4.135   4.991   3.503
 6702SOL    HW220859   4.122   4.972   3.665
 6703SOL     OW20860   4.835   5.500   2.099
 6703SOL    HW120861   4.775   5.438   2.149
 6703SOL    HW220862   4.866   5.456   2.014
 6704SOL     OW20863   3.926   4.009   3.360
 6704SOL    HW120864   3.846   4.069   3.347
 6704SOL    HW220865   3.916   3.960   3.446
 6705SOL     OW20866   5.124   3.831   2.288
 6705SOL    HW120867   5.100   3.794   2.198
 6705SOL    HW220868   5.223   3.847   2.292
 6706SOL     OW20869   4.106   4.424   2.342
 6706SOL    HW120870   4.151   4.334   2.339
 6706SOL    HW220871   4.012   4.413   2.375
 6707SOL     OW20872   4.338   3.846   1.979
 6707SOL    HW120873   4.436   3.824   1.986
 6707SOL    HW220874   4.307   3.829   1.886
 6708SOL     OW20875   4.505   3.988   3.611
 6708SOL    HW120876   4.572   3.927   3.654
 6708SOL    HW220877   4.432   4.007   3.676
 6709SOL     OW20878   5.075   4.314   3.295
 6709SOL    HW120879   5.103   4.271   3.380
 6709SOL    HW220880   5.100   4.410   3.296
 6710SOL     OW20881   4.527   5.126   2.786
 6710SOL    HW120882   4.617   5.140   2.744
 6710SOL    HW220883   4.456   5.128   2.715
 6711SOL     OW20884   4.646   4.227   2.761
 6711SOL    HW120885   4.621   4.218   2.665
 6711SOL    HW220886   4.694   4.145   2.792
 6712SOL     OW20887   4.263   3.788   2.374
 6712SOL    HW120888   4.182   3.789   2.432
 6712SOL    HW220889   4.266   3.871   2.319
 6713SOL     OW20890   5.158   4.912   1.903
 6713SOL    HW120891   5.190   4.836   1.960
 6713SOL    HW220892   5.066   4.939   1.933
 6714SOL     OW20893   4.021   3.759   2.033
 6714SOL    HW120894   4.070   3.843   2.012
 6714SOL    HW220895   4.083   3.694   2.078
 6715SOL     OW20896   4.659   3.960   2.342
 6715SOL    HW120897   4.611   4.001   2.264
 6715SOL    HW220898   4.758   3.958   2.323
 6716SOL     OW20899   4.800   4.407   3.326
 6716SOL    HW120900   4.720   4.346   3.329
 6716SOL    HW220901   4.881   4.354   3.302
 6717SOL     OW20902   4.951   5.294   2.655
 6717SOL    HW120903   4.972   5.368   2.590
 6717SOL    HW220904   5.019   5.294   2.728
 6718SOL     OW20905   4.183   4.876   2.603
 6718SOL    HW120906   4.112   4.849   2.668
 6718SOL    HW220907   4.157   4.848   2.510
 6719SOL     OW20908   4.756   4.273   1.878
 6719SOL    HW120909   4.715   4.355   1.839
 6719SOL    HW220910   4.820   4.299   1.951
 6720SOL     OW20911   3.802   4.280   3.248
 6720SOL    HW120912   3.894   4.279   3.207
 6720SOL    HW220913   3.796   4.354   3.315
 6721SOL     OW20914   4.285   3.946   3.009
 6721SOL    HW120915   4.323   3.862   3.046
 6721SOL    HW220916   4.197   3.965   3.053
 6722SOL     OW20917   4.590   4.178   2.504
 6722SOL    HW120918   4.558   4.250   2.442
 6722SOL    HW220919   4.614   4.097   2.451
 6723SOL     OW20920   4.741   3.763   2.615
 6723SOL    HW120921   4.669   3.768   2.546
 6723SOL    HW220922   4.717   3.694   2.684
 6724SOL     OW20923   5.153   4.897   2.729
 6724SOL    HW120924   5.098   4.813   2.722
 6724SOL    HW220925   5.179   4.926   2.637
 6725SOL     OW20926   4.212   5.109   2.036
 6725SOL    HW120927   4.125   5.094   2.083
 6725SOL    HW220928   4.195   5.135   1.941
 6726SOL     OW20929   5.114   4.299   1.940
 6726SOL    HW120930   5.060   4.278   2.021
 6726SOL    HW220931   5.205   4.258   1.949
 6727SOL     OW20932   4.251   3.980   2.190
 6727SOL    HW120933   4.278   3.921   2.115
 6727SOL    HW220934   4.251   4.075   2.159
 6728SOL     OW20935   4.788   5.071   3.202
 6728SOL    HW120936   4.708   5.048   3.257
 6728SOL    HW220937   4.871   5.045   3.251
 6729SOL     OW20938   4.835   4.919   2.962
 6729SOL    HW120939   4.795   4.963   3.043
 6729SOL    HW220940   4.794   4.956   2.879
 6730SOL     OW20941   4.639   3.813   3.264
 6730SOL    HW120942   4.664   3.793   3.169
 6730SOL    HW220943   4.711   3.869   3.306
 6731SOL     OW20944   4.704   4.840   3.581
 6731SOL    HW120945   4.605   4.846   3.591
 6731SOL    HW220946   4.727   4.760   3.525
 6732SOL     OW20947   4.429   4.774   2.230
 6732SOL    HW120948   4.415   4.781   2.329
 6732SOL    HW220949   4.513   4.723   2.212
 6733SOL     OW20950   4.134   4.537   3.113
 6733SOL    HW120951   4.220   4.549   3.163
 6733SOL    HW220952   4.092   4.450   3.140
 6734SOL     OW20953   4.998   4.110   3.124
 6734SOL    HW120954   5.019   4.184   3.188
 6734SOL    HW220955   4.909   4.127   3.081
 6735SOL     OW20956   4.091   4.824   2.363
 6735SOL    HW120957   4.084   4.907   2.307
 6735SOL    HW220958   4.095   4.744   2.303
 6736SOL     OW20959   4.290   4.261   2.727
 6736SOL    HW120960   4.302   4.327   2.653
 6736SOL    HW220961   4.336   4.295   2.810
 6737SOL     OW20962   4.976   5.072   2.250
 6737SOL    HW120963   5.026   5.149   2.290
 6737SOL    HW220964   4.881   5.074   2.282
 6738SOL     OW20965   4.996   5.169   3.004
 6738SOL    HW120966   5.043   5.182   3.091
 6738SOL    HW220967   4.930   5.095   3.013
 6739SOL     OW20968   4.078   5.234   3.191
 6739SOL    HW120969   4.057   5.190   3.104
 6739SOL    HW220970   4.175   5.260   3.194
 6740SOL     OW20971   4.126   4.475   3.460
 6740SOL    HW120972   4.194   4.530   3.413
 6740SOL    HW220973   4.166   4.387   3.487
 6741SOL     OW20974   4.737   3.829   3.632
 6741SOL    HW120975   4.743   3.914   3.580
 6741SOL    HW220976   4.769   3.753   3.575
 6742SOL     OW20977   4.228   3.774   3.602
 6742SOL    HW120978   4.186   3.717   3.532
 6742SOL    HW220979   4.162   3.843   3.634
 6743SOL     OW20980   4.297   4.594   2.891
 6743SOL    HW120981   4.341   4.683   2.882
 6743SOL    HW220982   4.234   4.594   2.968
 6744SOL     OW20983   5.084   4.586   2.907
 6744SOL    HW120984   5.009   4.586   2.841
 6744SOL    HW220985   5.121   4.494   2.916
 6745SOL     OW20986   4.933   4.249   2.137
 6745SOL    HW120987   4.946   4.165   2.191
 6745SOL    HW220988   4.904   4.323   2.197
 6746SOL     OW20989   4.031   3.937   3.093
 6746SOL    HW120990   4.008   3.974   3.183
 6746SOL    HW220991   4.001   3.842   3.087
 6747SOL     OW20992   3.761   5.034   3.144
 6747SOL    HW120993   3.814   4.985   3.212
 6747SOL    HW220994   3.783   5.132   3.149
 6748SOL     OW20995   4.456   4.358   2.926
 6748SOL    HW120996   4.515   4.332   2.850
 6748SOL    HW220997   4.428   4.454   2.915
 6749SOL     OW20998   4.031   3.787   2.480
 6749SOL    HW120999   4.020   3.881   2.513
 6749SOL    HW221000   4.026   3.724   2.557
 6750SOL     OW21001   5.346   4.091   2.236
 6750SOL    HW121002   5.348   4.015   2.300
 6750SOL    HW221003   5.298   4.168   2.276
 6751SOL     OW21004   4.747   4.490   2.828
 6751SOL    HW121005   4.762   4.511   2.924
 6751SOL    HW221006   4.717   4.395   2.819
 6752SOL     OW21007   4.074   4.622   3.666
 6752SOL    HW121008   4.150   4.666   3.714
 6752SOL    HW221009   4.109   4.575   3.584
 6753SOL     OW21010   5.027   4.562   1.904
 6753SOL    HW121011   5.061   4.469   1.919
 6753SOL    HW221012   5.045   4.589   1.809
 6754SOL     OW21013   4.792   5.057   2.711
 6754SOL    HW121014   4.799   4.973   2.656
 6754SOL    HW221015   4.854   5.126   2.675
 6755SOL     OW21016   4.043   4.534   2.811
 6755SOL    HW121017   4.136   4.570   2.816
 6755SOL    HW221018   4.037   4.449   2.863
 6756SOL     OW21019   4.063   4.233   2.868
 6756SOL    HW121020   4.011   4.150   2.851
 6756SOL    HW221021   4.140   4.238   2.804
 6757SOL     OW21022   4.862   4.104   3.540
 6757SOL    HW121023   4.817   4.167   3.604
 6757SOL    HW221024   4.955   4.135   3.523
 6758SOL     OW21025   4.884   3.931   3.339
 6758SOL    HW121026   4.884   3.995   3.416
 6758SOL    HW221027   4.912   3.979   3.256
 6759SOL     OW21028   3.732   5.050   2.062
 6759SOL    HW121029   3.639   5.071   2.031
 6759SOL    HW221030   3.742   4.951   2.075
 6760SOL     OW21031   4.726   4.520   3.100
 6760SOL    HW121032   4.767   4.488   3.186
 6760SOL    HW221033   4.630   4.493   3.097
 6761SOL     OW21034   3.764   4.268   2.976
 6761SOL    HW121035   3.849   4.235   2.935
 6761SOL    HW221036   3.777   4.283   3.074
 6762SOL     OW21037   3.913   4.244   3.584
 6762SOL    HW121038   3.972   4.204   3.514
 6762SOL    HW221039   3.855   4.315   3.543
 6763SOL     OW21040   5.093   4.674   3.522
 6763SOL    HW121041   5.132   4.763   3.542
 6763SOL    HW221042   5.103   4.654   3.425
 6764SOL     OW21043   4.539   4.296   2.187
 6764SOL    HW121044   4.546   4.207   2.141
 6764SOL    HW221045   4.445   4.330   2.179
 6765SOL     OW21046   3.976   5.288   3.606
 6765SOL    HW121047   3.946   5.345   3.682
 6765SOL    HW221048   3.969   5.191   3.632
 6766SOL     OW21049   4.395   4.188   3.131
 6766SOL    HW121050   4.361   4.099   3.101
 6766SOL    HW221051   4.421   4.242   3.051
 6767SOL     OW21052   4.197   4.224   2.053
 6767SOL    HW121053   4.258   4.304   2.057
 6767SOL    HW221054   4.102   4.255   2.060
 6768SOL     OW21055   3.883   4.861   3.328
 6768SOL    HW121056   3.905   4.800   3.404
 6768SOL    HW221057   3.893   4.812   3.242
 6769SOL     OW21058   5.071   4.783   3.096
 6769SOL    HW121059   5.095   4.720   3.022
 6769SOL    HW221060   4.981   4.823   3.078
 6770SOL     OW21061   5.026   4.579   2.171
 6770SOL    HW121062   4.940   4.548   2.213
 6770SOL    HW221063   5.022   4.565   2.072
 6771SOL     OW21064   3.807   4.982   2.884
 6771SOL    HW121065   3.802   4.981   2.984
 6771SOL    HW221066   3.724   4.941   2.846
 6772SOL     OW21067   4.412   5.386   3.578
 6772SOL    HW121068   4.356   5.467   3.587
 6772SOL    HW221069   4.464   5.390   3.492
 6773SOL     OW21070   5.450   3.859   2.385
 6773SOL    HW121071   5.523   3.842   2.318
 6773SOL    HW221072   5.419   3.772   2.423
 6774SOL     OW21073   5.004   4.651   2.534
 6774SOL    HW121074   5.064   4.570   2.536
 6774SOL    HW221075   5.044   4.720   2.474
 6775SOL     OW21076   4.554   4.997   3.284
 6775SOL    HW121077   4.549   5.030   3.379
 6775SOL    HW221078   4.468   5.016   3.238
 6776SOL     OW21079   3.987   4.050   2.582
 6776SOL    HW121080   3.908   4.101   2.548
 6776SOL    HW221081   3.978   4.035   2.680
 6777SOL     OW21082   4.546   4.726   3.234
 6777SOL    HW121083   4.586   4.725   3.142
 6777SOL    HW221084   4.556   4.818   3.274
 6778SOL     OW21085   4.640   4.634   2.153
 6778SOL    HW121086   4.703   4.672   2.085
 6778SOL    HW221087   4.680   4.551   2.192
 6779SOL     OW21088   4.096   5.012   3.352
 6779SOL    HW121089   4.083   5.105   3.318
 6779SOL    HW221090   4.012   4.960   3.339
 6780SOL     OW21091   4.763   4.822   2.558
 6780SOL    HW121092   4.693   4.775   2.612
 6780SOL    HW221093   4.822   4.754   2.515
 6781SOL     OW21094   4.738   3.960   2.833
 6781SOL    HW121095   4.730   3.924   2.740
 6781SOL    HW221096   4.736   3.884   2.898
 6782SOL     OW21097   3.979   5.072   2.152
 6782SOL    HW121098   3.883   5.073   2.125
 6782SOL    HW221099   3.991   5.125   2.236
 6783SOL     OW21100   3.829   4.737   3.588
 6783SOL    HW121101   3.752   4.704   3.642
 6783SOL    HW221102   3.914   4.707   3.630
 6784SOL     OW21103   4.396   3.927   3.351
 6784SOL    HW121104   4.486   3.911   3.311
 6784SOL    HW221105   4.404   3.932   3.450
 6785SOL     OW21106   3.799   4.069   1.895
 6785SOL    HW121107   3.707   4.041   1.866
 6785SOL    HW221108   3.830   4.146   1.839
 6786SOL     OW21109   5.164   4.580   3.260
 6786SOL    HW121110   5.107   4.632   3.197
 6786SOL    HW221111   5.260   4.592   3.236
 6787SOL     OW21112   3.796   3.890   2.180
 6787SOL    HW121113   3.779   3.973   2.126
 6787SOL    HW221114   3.886   3.853   2.158
 6788SOL     OW21115   4.907   5.059   1.981
 6788SOL    HW121116   4.808   5.048   1.983
 6788SOL    HW221117   4.941   5.074   2.074
 6789SOL     OW21118   4.337   4.566   3.293
 6789SOL    HW121119   4.393   4.647   3.276
 6789SOL    HW221120   4.396   4.486   3.296
 6790SOL     OW21121   4.440   4.289   3.570
 6790SOL    HW121122   4.459   4.354   3.644
 6790SOL    HW221123   4.500   4.209   3.579
 6791SOL     OW21124   5.174   4.944   3.495
 6791SOL    HW121125   5.165   4.934   3.594
 6791SOL    HW221126   5.270   4.937   3.469
 6792SOL     OW21127   4.949   4.049   2.311
 6792SOL    HW121128   5.014   3.975   2.300
 6792SOL    HW221129   4.969   4.099   2.395
 6793SOL     OW21130   4.318   4.469   2.514
 6793SOL    HW121131   4.368   4.554   2.495
 6793SOL    HW221132   4.230   4.471   2.466
 6794SOL     OW21133   4.583   5.098   1.878
 6794SOL    HW121134   4.537   5.113   1.966
 6794SOL    HW221135   4.627   5.183   1.848
 6795SOL     OW21136   4.583   4.680   2.723
 6795SOL    HW121137   4.637   4.611   2.771
 6795SOL    HW221138   4.551   4.749   2.789
 6796SOL     OW21139   4.807   4.708   1.949
 6796SOL    HW121140   4.784   4.761   1.867
 6796SOL    HW221141   4.888   4.652   1.930
 6797SOL     OW21142   3.945   5.038   3.706
 6797SOL    HW121143   3.880   4.965   3.685
 6797SOL    HW221144   3.949   5.052   3.804
 6798SOL     OW21145   3.803   4.964   2.515
 6798SOL    HW121146   3.802   4.917   2.603
 6798SOL    HW221147   3.885   4.936   2.464
 6799SOL     OW21148   4.396   5.115   3.486
 6799SOL    HW121149   4.318   5.065   3.524
 6799SOL    HW221150   4.393   5.210   3.517
 6800SOL     OW21151   4.152   4.148   2.382
 6800SOL    HW121152   4.182   4.076   2.320
 6800SOL    HW221153   4.113   4.108   2.465
 6801SOL     OW21154   5.429   5.211   2.966
 6801SOL    HW121155   5.336   5.186   2.939
 6801SOL    HW221156   5.455   5.161   3.048
 6802SOL     OW21157   4.041   4.271   3.142
 6802SOL    HW121158   4.079   4.212   3.214
 6802SOL    HW221159   4.081   4.245   3.054
 6803SOL     OW21160   5.148   3.938   2.974
 6803SOL    HW121161   5.200   3.873   3.029
 6803SOL    HW221162   5.099   4.001   3.035
 6804SOL     OW21163   4.725   3.758   3.016
 6804SOL    HW121164   4.662   3.686   2.985
 6804SOL    HW221165   4.818   3.722   3.016
 6805SOL     OW21166   4.494   5.054   2.163
 6805SOL    HW121167   4.448   4.967   2.180
 6805SOL    HW221168   4.585   5.051   2.204
 6806SOL     OW21169   4.342   5.291   3.146
 6806SOL    HW121170   4.337   5.373   3.203
 6806SOL    HW221171   4.431   5.288   3.101
 6807SOL     OW21172   5.076   3.776   2.030
 6807SOL    HW121173   5.111   3.735   1.946
 6807SOL    HW221174   4.986   3.738   2.050
 6808SOL     OW21175   5.024   4.177   2.553
 6808SOL    HW121176   4.965   4.257   2.557
 6808SOL    HW221177   5.039   4.142   2.646
 6809SOL     OW21178   5.317   3.945   2.744
 6809SOL    HW121179   5.233   3.944   2.798
 6809SOL    HW221180   5.319   4.028   2.688
 6810SOL     OW21181   3.763   4.801   2.162
 6810SOL    HW121182   3.862   4.790   2.153
 6810SOL    HW221183   3.723   4.715   2.194
 6811SOL     OW21184   3.954   4.352   3.837
 6811SOL    HW121185   3.861   4.350   3.874
 6811SOL    HW221186   3.955   4.313   3.745
 6812SOL     OW21187   3.949   3.999   4.720
 6812SOL    HW121188   3.984   3.982   4.812
 6812SOL    HW221189   3.861   3.954   4.708
 6813SOL     OW21190   3.743   4.092   4.371
 6813SOL    HW121191   3.661   4.135   4.410
 6813SOL    HW221192   3.715   4.019   4.308
 6814SOL     OW21193   4.293   4.999   4.889
 6814SOL    HW121194   4.200   4.992   4.852
 6814SOL    HW221195   4.304   5.088   4.933
 6815SOL     OW21196   5.279   5.235   4.427
 6815SOL    HW121197   5.222   5.219   4.508
 6815SOL    HW221198   5.220   5.245   4.347
 6816SOL     OW21199   4.859   4.427   4.441
 6816SOL    HW121200   4.916   4.505   4.416
 6816SOL    HW221201   4.799   4.453   4.517
 6817SOL     OW21202   4.492   4.868   4.747
 6817SOL    HW121203   4.414   4.885   4.807
 6817SOL    HW221204   4.526   4.955   4.711
 6818SOL     OW21205   4.574   4.522   5.547
 6818SOL    HW121206   4.570   4.598   5.612
 6818SOL    HW221207   4.596   4.558   5.456
 6819SOL     OW21208   4.409   4.736   4.389
 6819SOL    HW121209   4.478   4.720   4.459
 6819SOL    HW221210   4.336   4.793   4.427
 6820SOL     OW21211   4.410   4.885   5.527
 6820SOL    HW121212   4.470   4.964   5.541
 6820SOL    HW221213   4.324   4.916   5.486
 6821SOL     OW21214   4.059   5.159   4.785
 6821SOL    HW121215   3.981   5.128   4.732
 6821SOL    HW221216   4.117   5.217   4.728
 6822SOL     OW21217   5.184   5.229   5.063
 6822SOL    HW121218   5.208   5.323   5.089
 6822SOL    HW221219   5.168   5.175   5.145
 6823SOL     OW21220   4.162   4.116   5.223
 6823SOL    HW121221   4.244   4.060   5.232
 6823SOL    HW221222   4.081   4.058   5.227
 6824SOL     OW21223   4.851   5.065   5.414
 6824SOL    HW121224   4.898   5.065   5.502
 6824SOL    HW221225   4.803   4.978   5.403
 6825SOL     OW21226   3.954   5.158   4.262
 6825SOL    HW121227   3.928   5.254   4.262
 6825SOL    HW221228   3.883   5.104   4.307
 6826SOL     OW21229   3.964   4.815   4.610
 6826SOL    HW121230   3.978   4.731   4.662
 6826SOL    HW221231   3.909   4.879   4.665
 6827SOL     OW21232   4.330   4.688   3.847
 6827SOL    HW121233   4.337   4.772   3.793
 6827SOL    HW221234   4.376   4.701   3.935
 6828SOL     OW21235   3.846   4.367   4.287
 6828SOL    HW121236   3.801   4.279   4.304
 6828SOL    HW221237   3.845   4.421   4.371
 6829SOL     OW21238   3.751   5.320   3.841
 6829SOL    HW121239   3.732   5.224   3.862
 6829SOL    HW221240   3.718   5.378   3.916
 6830SOL     OW21241   5.413   4.646   4.336
 6830SOL    HW121242   5.508   4.617   4.344
 6830SOL    HW221243   5.405   4.711   4.261
 6831SOL     OW21244   3.837   4.461   5.321
 6831SOL    HW121245   3.925   4.448   5.366
 6831SOL    HW221246   3.824   4.558   5.299
 6832SOL     OW21247   4.337   5.089   4.450
 6832SOL    HW121248   4.288   5.002   4.459
 6832SOL    HW221249   4.314   5.132   4.363
 6833SOL     OW21250   5.017   4.952   5.147
 6833SOL    HW121251   5.054   4.879   5.089
 6833SOL    HW221252   5.069   4.957   5.232
 6834SOL     OW21253   4.533   3.728   4.226
 6834SOL    HW121254   4.573   3.819   4.217
 6834SOL    HW221255   4.433   3.736   4.232
 6835SOL     OW21256   3.921   4.700   4.988
 6835SOL    HW121257   4.010   4.655   4.974
 6835SOL    HW221258   3.848   4.635   4.969
 6836SOL     OW21259   4.041   3.975   5.525
 6836SOL    HW121260   4.112   4.046   5.531
 6836SOL    HW221261   3.953   4.014   5.553
 6837SOL     OW21262   5.190   5.141   4.677
 6837SOL    HW121263   5.131   5.147   4.757
 6837SOL    HW221264   5.175   5.053   4.631
 6838SOL     OW21265   5.391   5.438   4.296
 6838SOL    HW121266   5.350   5.415   4.208
 6838SOL    HW221267   5.373   5.364   4.361
 6839SOL     OW21268   4.322   4.453   3.994
 6839SOL    HW121269   4.346   4.522   3.926
 6839SOL    HW221270   4.244   4.486   4.048
 6840SOL     OW21271   5.005   4.069   4.668
 6840SOL    HW121272   4.919   4.019   4.655
 6840SOL    HW221273   5.067   4.015   4.724
 6841SOL     OW21274   4.531   4.329   5.189
 6841SOL    HW121275   4.484   4.326   5.278
 6841SOL    HW221276   4.480   4.274   5.123
 6842SOL     OW21277   5.118   4.193   5.398
 6842SOL    HW121278   5.098   4.236   5.486
 6842SOL    HW221279   5.196   4.131   5.407
 6843SOL     OW21280   4.697   4.614   5.296
 6843SOL    HW121281   4.743   4.530   5.267
 6843SOL    HW221282   4.641   4.648   5.221
 6844SOL     OW21283   4.715   4.134   4.966
 6844SOL    HW121284   4.638   4.168   5.020
 6844SOL    HW221285   4.681   4.083   4.887
 6845SOL     OW21286   4.765   4.425   4.153
 6845SOL    HW121287   4.791   4.421   4.249
 6845SOL    HW221288   4.680   4.374   4.139
 6846SOL     OW21289   3.800   4.535   4.513
 6846SOL    HW121290   3.899   4.523   4.522
 6846SOL    HW221291   3.776   4.630   4.534
 6847SOL     OW21292   4.589   4.072   3.919
 6847SOL    HW121293   4.648   4.135   3.870
 6847SOL    HW221294   4.608   3.978   3.890
 6848SOL     OW21295   5.086   4.868   4.269
 6848SOL    HW121296   5.169   4.839   4.221
 6848SOL    HW221297   5.037   4.935   4.213
 6849SOL     OW21298   4.274   3.920   4.609
 6849SOL    HW121299   4.269   3.915   4.709
 6849SOL    HW221300   4.276   4.016   4.580
 6850SOL     OW21301   4.732   5.180   4.201
 6850SOL    HW121302   4.686   5.252   4.149
 6850SOL    HW221303   4.728   5.200   4.299
 6851SOL     OW21304   4.951   5.274   5.230
 6851SOL    HW121305   4.957   5.197   5.294
 6851SOL    HW221306   4.899   5.248   5.150
 6852SOL     OW21307   4.045   4.667   3.966
 6852SOL    HW121308   4.127   4.706   3.924
 6852SOL    HW221309   4.018   4.585   3.917
 6853SOL     OW21310   4.185   4.990   5.451
 6853SOL    HW121311   4.135   4.991   5.365
 6853SOL    HW221312   4.122   4.972   5.527
 6854SOL     OW21313   4.835   5.500   3.961
 6854SOL    HW121314   4.775   5.438   4.011
 6854SOL    HW221315   4.866   5.456   3.876
 6855SOL     OW21316   3.926   4.009   5.222
 6855SOL    HW121317   3.846   4.069   5.209
 6855SOL    HW221318   3.916   3.960   5.308
 6856SOL     OW21319   5.124   3.831   4.150
 6856SOL    HW121320   5.100   3.794   4.060
 6856SOL    HW221321   5.223   3.847   4.154
 6857SOL     OW21322   4.106   4.424   4.204
 6857SOL    HW121323   4.151   4.334   4.201
 6857SOL    HW221324   4.012   4.413   4.237
 6858SOL     OW21325   4.338   3.846   3.841
 6858SOL    HW121326   4.436   3.824   3.848
 6858SOL    HW221327   4.307   3.829   3.748
 6859SOL     OW21328   4.505   3.988   5.473
 6859SOL    HW121329   4.572   3.927   5.516
 6859SOL    HW221330   4.432   4.007   5.538
 6860SOL     OW21331   5.075   4.314   5.157
 6860SOL    HW121332   5.103   4.271   5.242
 6860SOL    HW221333   5.100   4.410   5.158
 6861SOL     OW21334   4.527   5.126   4.648
 6861SOL    HW121335   4.617   5.140   4.606
 6861SOL    HW221336   4.456   5.128   4.577
 6862SOL     OW21337   4.646   4.227   4.623
 6862SOL    HW121338   4.621   4.218   4.527
 6862SOL    HW221339   4.694   4.145   4.654
 6863SOL     OW21340   4.263   3.788   4.236
 6863SOL    HW121341   4.182   3.789   4.294
 6863SOL    HW221342   4.266   3.871   4.181
 6864SOL     OW21343   5.158   4.912   3.765
 6864SOL    HW121344   5.190   4.836   3.822
 6864SOL    HW221345   5.066   4.939   3.795
 6865SOL     OW21346   4.021   3.759   3.895
 6865SOL    HW121347   4.070   3.843   3.874
 6865SOL    HW221348   4.083   3.694   3.940
 6866SOL     OW21349   4.659   3.960   4.204
 6866SOL    HW121350   4.611   4.001   4.126
 6866SOL    HW221351   4.758   3.958   4.185
 6867SOL     OW21352   4.800   4.407   5.188
 6867SOL    HW121353   4.720   4.346   5.191
 6867SOL    HW221354   4.881   4.354   5.164
 6868SOL     OW21355   4.951   5.294   4.517
 6868SOL    HW121356   4.972   5.368   4.452
 6868SOL    HW221357   5.019   5.294   4.590
 6869SOL     OW21358   4.183   4.876   4.465
 6869SOL    HW121359   4.112   4.849   4.530
 6869SOL    HW221360   4.157   4.848   4.372
 6870SOL     OW21361   4.756   4.273   3.740
 6870SOL    HW121362   4.715   4.355   3.701
 6870SOL    HW221363   4.820   4.299   3.813
 6871SOL     OW21364   3.802   4.280   5.110
 6871SOL    HW121365   3.894   4.279   5.069
 6871SOL    HW221366   3.796   4.354   5.177
 6872SOL     OW21367   4.285   3.946   4.871
 6872SOL    HW121368   4.323   3.862   4.908
 6872SOL    HW221369   4.197   3.965   4.915
 6873SOL     OW21370   4.590   4.178   4.366
 6873SOL    HW121371   4.558   4.250   4.304
 6873SOL    HW221372   4.614   4.097   4.313
 6874SOL     OW21373   4.741   3.763   4.477
 6874SOL    HW121374   4.669   3.768   4.408
 6874SOL    HW221375   4.717   3.694   4.546
 6875SOL     OW21376   5.153   4.897   4.591
 6875SOL    HW121377   5.098   4.813   4.584
 6875SOL    HW221378   5.179   4.926   4.499
 6876SOL     OW21379   4.212   5.109   3.898
 6876SOL    HW121380   4.125   5.094   3.945
 6876SOL    HW221381   4.195   5.135   3.803
 6877SOL     OW21382   5.114   4.299   3.802
 6877SOL    HW121383   5.060   4.278   3.883
 6877SOL    HW221384   5.205   4.258   3.811
 6878SOL     OW21385   4.251   3.980   4.052
 6878SOL    HW121386   4.278   3.921   3.977
 6878SOL    HW221387   4.251   4.075   4.021
 6879SOL     OW21388   4.788   5.071   5.064
 6879SOL    HW121389   4.708   5.048   5.119
 6879SOL    HW221390   4.871   5.045   5.113
 6880SOL     OW21391   4.835   4.919   4.824
 6880SOL    HW121392   4.795   4.963   4.905
 6880SOL    HW221393   4.794   4.956   4.741
 6881SOL     OW21394   4.639   3.813   5.126
 6881SOL    HW121395   4.664   3.793   5.031
 6881SOL    HW221396   4.711   3.869   5.168
 6882SOL     OW21397   4.704   4.840   5.443
 6882SOL    HW121398   4.605   4.846   5.453
 6882SOL    HW221399   4.727   4.760   5.387
 6883SOL     OW21400   4.429   4.774   4.092
 6883SOL    HW121401   4.415   4.781   4.191
 6883SOL    HW221402   4.513   4.723   4.074
 6884SOL     OW21403   4.134   4.537   4.975
 6884SOL    HW121404   4.220   4.549   5.025
 6884SOL    HW221405   4.092   4.450   5.002
 6885SOL     OW21406   4.998   4.110   4.986
 6885SOL    HW121407   5.019   4.184   5.050
 6885SOL    HW221408   4.909   4.127   4.943
 6886SOL     OW21409   4.091   4.824   4.225
 6886SOL    HW121410   4.084   4.907   4.169
 6886SOL    HW221411   4.095   4.744   4.165
 6887SOL     OW21412   4.290   4.261   4.589
 6887SOL    HW121413   4.302   4.327   4.515
 6887SOL    HW221414   4.336   4.295   4.672
 6888SOL     OW21415   4.976   5.072   4.112
 6888SOL    HW121416   5.026   5.149   4.152
 6888SOL    HW221417   4.881   5.074   4.144
 6889SOL     OW21418   4.996   5.169   4.866
 6889SOL    HW121419   5.043   5.182   4.953
 6889SOL    HW221420   4.930   5.095   4.875
 6890SOL     OW21421   4.078   5.234   5.053
 6890SOL    HW121422   4.057   5.190   4.966
 6890SOL    HW221423   4.175   5.260   5.056
 6891SOL     OW21424   4.126   4.475   5.322
 6891SOL    HW121425   4.194   4.530   5.275
 6891SOL    HW221426   4.166   4.387   5.349
 6892SOL     OW21427   4.737   3.829   5.494
 6892SOL    HW121428   4.743   3.914   5.442
 6892SOL    HW221429   4.769   3.753   5.437
 6893SOL     OW21430   4.228   3.774   5.464
 6893SOL    HW121431   4.186   3.717   5.394
 6893SOL    HW221432   4.162   3.843   5.496
 6894SOL     OW21433   4.297   4.594   4.753
 6894SOL    HW121434   4.341   4.683   4.744
 6894SOL    HW221435   4.234   4.594   4.830
 6895SOL     OW21436   5.084   4.586   4.769
 6895SOL    HW121437   5.009   4.586   4.703
 6895SOL    HW221438   5.121   4.494   4.778
 6896SOL     OW21439   4.933   4.249   3.999
 6896SOL    HW121440   4.946   4.165   4.053
 6896SOL    HW221441   4.904   4.323   4.059
 6897SOL     OW21442   4.031   3.937   4.955
 6897SOL    HW121443   4.008   3.974   5.045
 6897SOL    HW221444   4.001   3.842   4.949
 6898SOL     OW21445   3.761   5.034   5.006
 6898SOL    HW121446   3.814   4.985   5.074
 6898SOL    HW221447   3.783   5.132   5.011
 6899SOL     OW21448   4.456   4.358   4.788
 6899SOL    HW121449   4.515   4.332   4.712
 6899SOL    HW221450   4.428   4.454   4.777
 6900SOL     OW21451   4.031   3.787   4.342
 6900SOL    HW121452   4.020   3.881   4.375
 6900SOL    HW221453   4.026   3.724   4.419
 6901SOL     OW21454   5.346   4.091   4.098
 6901SOL    HW121455   5.348   4.015   4.162
 6901SOL    HW221456   5.298   4.168   4.138
 6902SOL     OW21457   4.747   4.490   4.690
 6902SOL    HW121458   4.762   4.511   4.786
 6902SOL    HW221459   4.717   4.395   4.681
 6903SOL     OW21460   4.074   4.622   5.528
 6903SOL    HW121461   4.150   4.666   5.576
 6903SOL    HW221462   4.109   4.575   5.446
 6904SOL     OW21463   5.027   4.562   3.766
 6904SOL    HW121464   5.061   4.469   3.781
 6904SOL    HW221465   5.045   4.589   3.671
 6905SOL     OW21466   4.792   5.057   4.573
 6905SOL    HW121467   4.799   4.973   4.518
 6905SOL    HW221468   4.854   5.126   4.537
 6906SOL     OW21469   4.043   4.534   4.673
 6906SOL    HW121470   4.136   4.570   4.678
 6906SOL    HW221471   4.037   4.449   4.725
 6907SOL     OW21472   4.063   4.233   4.730
 6907SOL    HW121473   4.011   4.150   4.713
 6907SOL    HW221474   4.140   4.238   4.666
 6908SOL     OW21475   4.862   4.104   5.402
 6908SOL    HW121476   4.817   4.167   5.466
 6908SOL    HW221477   4.955   4.135   5.385
 6909SOL     OW21478   4.884   3.931   5.201
 6909SOL    HW121479   4.884   3.995   5.278
 6909SOL    HW221480   4.912   3.979   5.118
 6910SOL     OW21481   3.732   5.050   3.924
 6910SOL    HW121482   3.639   5.071   3.893
 6910SOL    HW221483   3.742   4.951   3.937
 6911SOL     OW21484   4.726   4.520   4.962
 6911SOL    HW121485   4.767   4.488   5.048
 6911SOL    HW221486   4.630   4.493   4.959
 6912SOL     OW21487   3.764   4.268   4.838
 6912SOL    HW121488   3.849   4.235   4.797
 6912SOL    HW221489   3.777   4.283   4.936
 6913SOL     OW21490   3.913   4.244   5.446
 6913SOL    HW121491   3.972   4.204   5.376
 6913SOL    HW221492   3.855   4.315   5.405
 6914SOL     OW21493   5.093   4.674   5.384
 6914SOL    HW121494   5.132   4.763   5.404
 6914SOL    HW221495   5.103   4.654   5.287
 6915SOL     OW21496   4.539   4.296   4.049
 6915SOL    HW121497   4.546   4.207   4.003
 6915SOL    HW221498   4.445   4.330   4.041
 6916SOL     OW21499   3.976   5.288   5.468
 6916SOL    HW121500   3.946   5.345   5.544
 6916SOL    HW221501   3.969   5.191   5.494
 6917SOL     OW21502   4.395   4.188   4.993
 6917SOL    HW121503   4.361   4.099   4.963
 6917SOL    HW221504   4.421   4.242   4.913
 6918SOL     OW21505   4.197   4.224   3.915
 6918SOL    HW121506   4.258   4.304   3.919
 6918SOL    HW221507   4.102   4.255   3.922
 6919SOL     OW21508   3.883   4.861   5.190
 6919SOL    HW121509   3.905   4.800   5.266
 6919SOL    HW221510   3.893   4.812   5.104
 6920SOL     OW21511   5.071   4.783   4.958
 6920SOL    HW121512   5.095   4.720   4.884
 6920SOL    HW221513   4.981   4.823   4.940
 6921SOL     OW21514   5.026   4.579   4.033
 6921SOL    HW121515   4.940   4.548   4.075
 6921SOL    HW221516   5.022   4.565   3.934
 6922SOL     OW21517   3.807   4.982   4.746
 6922SOL    HW121518   3.802   4.981   4.846
 6922SOL    HW221519   3.724   4.941   4.708
 6923SOL     OW21520   4.412   5.386   5.440
 6923SOL    HW121521   4.356   5.467   5.449
 6923SOL    HW221522   4.464   5.390   5.354
 6924SOL     OW21523   5.450   3.859   4.247
 6924SOL    HW121524   5.523   3.842   4.180
 6924SOL    HW221525   5.419   3.772   4.285
 6925SOL     OW21526   5.004   4.651   4.396
 6925SOL    HW121527   5.064   4.570   4.398
 6925SOL    HW221528   5.044   4.720   4.336
 6926SOL     OW21529   4.554   4.997   5.146
 6926SOL    HW121530   4.549   5.030   5.241
 6926SOL    HW221531   4.468   5.016   5.100
 6927SOL     OW21532   3.987   4.050   4.444
 6927SOL    HW121533   3.908   4.101   4.410
 6927SOL    HW221534   3.978   4.035   4.542
 6928SOL     OW21535   4.546   4.726   5.096
 6928SOL    HW121536   4.586   4.725   5.004
 6928SOL    HW221537   4.556   4.818   5.136
 6929SOL     OW21538   4.640   4.634   4.015
 6929SOL    HW121539   4.703   4.672   3.947
 6929SOL    HW221540   4.680   4.551   4.054
 6930SOL     OW21541   4.096   5.012   5.214
 6930SOL    HW121542   4.083   5.105   5.180
 6930SOL    HW221543   4.012   4.960   5.201
 6931SOL     OW21544   4.763   4.822   4.420
 6931SOL    HW121545   4.693   4.775   4.474
 6931SOL    HW221546   4.822   4.754   4.377
 6932SOL     OW21547   4.738   3.960   4.695
 6932SOL    HW121548   4.730   3.924   4.602
 6932SOL    HW221549   4.736   3.884   4.760
 6933SOL     OW21550   3.979   5.072   4.014
 6933SOL    HW121551   3.883   5.073   3.987
 6933SOL    HW221552   3.991   5.125   4.098
 6934SOL     OW21553   3.829   4.737   5.450
 6934SOL    HW121554   3.752   4.704   5.504
 6934SOL    HW221555   3.914   4.707   5.492
 6935SOL     OW21556   4.396   3.927   5.213
 6935SOL    HW121557   4.486   3.911   5.173
 6935SOL    HW221558   4.404   3.932   5.312
 6936SOL     OW21559   3.799   4.069   3.757
 6936SOL    HW121560   3.707   4.041   3.728
 6936SOL    HW221561   3.830   4.146   3.701
 6937SOL     OW21562   5.164   4.580   5.122
 6937SOL    HW121563   5.107   4.632   5.059
 6937SOL    HW221564   5.260   4.592   5.098
 6938SOL     OW21565   3.796   3.890   4.042
 6938SOL    HW121566   3.779   3.973   3.988
 6938SOL    HW221567   3.886   3.853   4.020
 6939SOL     OW21568   4.907   5.059   3.843
 6939SOL    HW121569   4.808   5.048   3.845
 6939SOL    HW221570   4.941   5.074   3.936
 6940SOL     OW21571   4.337   4.566   5.155
 6940SOL    HW121572   4.393   4.647   5.138
 6940SOL    HW221573   4.396   4.486   5.158
 6941SOL     OW21574   4.440   4.289   5.432
 6941SOL    HW121575   4.459   4.354   5.506
 6941SOL    HW221576   4.500   4.209   5.441
 6942SOL     OW21577   5.174   4.944   5.357
 6942SOL    HW121578   5.165   4.934   5.456
 6942SOL    HW221579   5.270   4.937   5.331
 6943SOL     OW21580   4.949   4.049   4.173
 6943SOL    HW121581   5.014   3.975   4.162
 6943SOL    HW221582   4.969   4.099   4.257
 6944SOL     OW21583   4.318   4.469   4.376
 6944SOL    HW121584   4.368   4.554   4.357
 6944SOL    HW221585   4.230   4.471   4.328
 6945SOL     OW21586   4.583   5.098   3.740
 6945SOL    HW121587   4.537   5.113   3.828
 6945SOL    HW221588   4.627   5.183   3.710
 6946SOL     OW21589   4.583   4.680   4.585
 6946SOL    HW121590   4.637   4.611   4.633
 6946SOL    HW221591   4.551   4.749   4.651
 6947SOL     OW21592   4.807   4.708   3.811
 6947SOL    HW121593   4.784   4.761   3.729
 6947SOL    HW221594   4.888   4.652   3.792
 6948SOL     OW21595   3.945   5.038   5.568
 6948SOL    HW121596   3.880   4.965   5.547
 6948SOL    HW221597   3.949   5.052   5.666
 6949SOL     OW21598   3.803   4.964   4.377
 6949SOL    HW121599   3.802   4.917   4.465
 6949SOL    HW221600   3.885   4.936   4.326
 6950SOL     OW21601   4.396   5.115   5.348
 6950SOL    HW121602   4.318   5.065   5.386
 6950SOL    HW221603   4.393   5.210   5.379
 6951SOL     OW21604   4.152   4.148   4.244
 6951SOL    HW121605   4.182   4.076   4.182
 6951SOL    HW221606   4.113   4.108   4.327
 6952SOL     OW21607   5.429   5.211   4.828
 6952SOL    HW121608   5.336   5.186   4.801
 6952SOL    HW221609   5.455   5.161   4.910
 6953SOL     OW21610   4.041   4.271   5.004
 6953SOL    HW121611   4.079   4.212   5.076
 6953SOL    HW221612   4.081   4.245   4.916
 6954SOL     OW21613   5.148   3.938   4.836
 6954SOL    HW121614   5.200   3.873   4.891
 6954SOL    HW221615   5.099   4.001   4.897
 6955SOL     OW21616   4.725   3.758   4.878
 6955SOL    HW121617   4.662   3.686   4.847
 6955SOL    HW221618   4.818   3.722   4.878
 6956SOL     OW21619   4.494   5.054   4.025
 6956SOL    HW121620   4.448   4.967   4.042
 6956SOL    HW221621   4.585   5.051   4.066
 6957SOL     OW21622   4.342   5.291   5.008
 6957SOL    HW121623   4.337   5.373   5.065
 6957SOL    HW221624   4.431   5.288   4.963
 6958SOL     OW21625   5.076   3.776   3.892
 6958SOL    HW121626   5.111   3.735   3.808
 6958SOL    HW221627   4.986   3.738   3.912
 6959SOL     OW21628   5.024   4.177   4.415
 6959SOL    HW121629   4.965   4.257   4.419
 6959SOL    HW221630   5.039   4.142   4.508
 6960SOL     OW21631   5.317   3.945   4.606
 6960SOL    HW121632   5.233   3.944   4.660
 6960SOL    HW221633   5.319   4.028   4.550
 6961SOL     OW21634   3.763   4.801   4.024
 6961SOL    HW121635   3.862   4.790   4.015
 6961SOL    HW221636   3.723   4.715   4.056
 6962SOL     OW21637   3.954   4.352   5.699
 6962SOL    HW121638   3.861   4.350   5.736
 6962SOL    HW221639   3.955   4.313   5.607
 6963SOL     OW21640   3.949   3.999   6.582
 6963SOL    HW121641   3.984   3.982   6.674
 6963SOL    HW221642   3.861   3.954   6.570
 6964SOL     OW21643   3.743   4.092   6.233
 6964SOL    HW121644   3.661   4.135   6.272
 6964SOL    HW221645   3.715   4.019   6.170
 6965SOL     OW21646   4.293   4.999   6.751
 6965SOL    HW121647   4.200   4.992   6.714
 6965SOL    HW221648   4.304   5.088   6.795
 6966SOL     OW21649   5.279   5.235   6.289
 6966SOL    HW121650   5.222   5.219   6.370
 6966SOL    HW221651   5.220   5.245   6.209
 6967SOL     OW21652   4.859   4.427   6.303
 6967SOL    HW121653   4.916   4.505   6.278
 6967SOL    HW221654   4.799   4.453   6.379
 6968SOL     OW21655   4.492   4.868   6.609
 6968SOL    HW121656   4.414   4.885   6.669
 6968SOL    HW221657   4.526   4.955   6.573
 6969SOL     OW21658   4.574   4.522   7.409
 6969SOL    HW121659   4.570   4.598   7.474
 6969SOL    HW221660   4.596   4.558   7.318
 6970SOL     OW21661   4.409   4.736   6.251
 6970SOL    HW121662   4.478   4.720   6.321
 6970SOL    HW221663   4.336   4.793   6.289
 6971SOL     OW21664   4.410   4.885   7.389
 6971SOL    HW121665   4.470   4.964   7.403
 6971SOL    HW221666   4.324   4.916   7.348
 6972SOL     OW21667   4.059   5.159   6.647
 6972SOL    HW121668   3.981   5.128   6.594
 6972SOL    HW221669   4.117   5.217   6.590
 6973SOL     OW21670   5.184   5.229   6.925
 6973SOL    HW121671   5.208   5.323   6.951
 6973SOL    HW221672   5.168   5.175   7.007
 6974SOL     OW21673   4.162   4.116   7.085
 6974SOL    HW121674   4.244   4.060   7.094
 6974SOL    HW221675   4.081   4.058   7.089
 6975SOL     OW21676   4.851   5.065   7.276
 6975SOL    HW121677   4.898   5.065   7.364
 6975SOL    HW221678   4.803   4.978   7.265
 6976SOL     OW21679   3.954   5.158   6.124
 6976SOL    HW121680   3.928   5.254   6.124
 6976SOL    HW221681   3.883   5.104   6.169
 6977SOL     OW21682   3.964   4.815   6.472
 6977SOL    HW121683   3.978   4.731   6.524
 6977SOL    HW221684   3.909   4.879   6.527
 6978SOL     OW21685   4.330   4.688   5.709
 6978SOL    HW121686   4.337   4.772   5.655
 6978SOL    HW221687   4.376   4.701   5.797
 6979SOL     OW21688   3.846   4.367   6.149
 6979SOL    HW121689   3.801   4.279   6.166
 6979SOL    HW221690   3.845   4.421   6.233
 6980SOL     OW21691   3.751   5.320   5.703
 6980SOL    HW121692   3.732   5.224   5.724
 6980SOL    HW221693   3.718   5.378   5.778
 6981SOL     OW21694   5.413   4.646   6.198
 6981SOL    HW121695   5.508   4.617   6.206
 6981SOL    HW221696   5.405   4.711   6.123
 6982SOL     OW21697   3.837   4.461   7.183
 6982SOL    HW121698   3.925   4.448   7.228
 6982SOL    HW221699   3.824   4.558   7.161
 6983SOL     OW21700   4.337   5.089   6.312
 6983SOL    HW121701   4.288   5.002   6.321
 6983SOL    HW221702   4.314   5.132   6.225
 6984SOL     OW21703   5.017   4.952   7.009
 6984SOL    HW121704   5.054   4.879   6.951
 6984SOL    HW221705   5.069   4.957   7.094
 6985SOL     OW21706   4.533   3.728   6.088
 6985SOL    HW121707   4.573   3.819   6.079
 6985SOL    HW221708   4.433   3.736   6.094
 6986SOL     OW21709   3.921   4.700   6.850
 6986SOL    HW121710   4.010   4.655   6.836
 6986SOL    HW221711   3.848   4.635   6.831
 6987SOL     OW21712   4.041   3.975   7.387
 6987SOL    HW121713   4.112   4.046   7.393
 6987SOL    HW221714   3.953   4.014   7.415
 6988SOL     OW21715   5.190   5.141   6.539
 6988SOL    HW121716   5.131   5.147   6.619
 6988SOL    HW221717   5.175   5.053   6.493
 6989SOL     OW21718   5.391   5.438   6.158
 6989SOL    HW121719   5.350   5.415   6.070
 6989SOL    HW221720   5.373   5.364   6.223
 6990SOL     OW21721   4.322   4.453   5.856
 6990SOL    HW121722   4.346   4.522   5.788
 6990SOL    HW221723   4.244   4.486   5.910
 6991SOL     OW21724   5.005   4.069   6.530
 6991SOL    HW121725   4.919   4.019   6.517
 6991SOL    HW221726   5.067   4.015   6.586
 6992SOL     OW21727   4.531   4.329   7.051
 6992SOL    HW121728   4.484   4.326   7.140
 6992SOL    HW221729   4.480   4.274   6.985
 6993SOL     OW21730   5.118   4.193   7.260
 6993SOL    HW121731   5.098   4.236   7.348
 6993SOL    HW221732   5.196   4.131   7.269
 6994SOL     OW21733   4.697   4.614   7.158
 6994SOL    HW121734   4.743   4.530   7.129
 6994SOL    HW221735   4.641   4.648   7.083
 6995SOL     OW21736   4.715   4.134   6.828
 6995SOL    HW121737   4.638   4.168   6.882
 6995SOL    HW221738   4.681   4.083   6.749
 6996SOL     OW21739   4.765   4.425   6.015
 6996SOL    HW121740   4.791   4.421   6.111
 6996SOL    HW221741   4.680   4.374   6.001
 6997SOL     OW21742   3.800   4.535   6.375
 6997SOL    HW121743   3.899   4.523   6.384
 6997SOL    HW221744   3.776   4.630   6.396
 6998SOL     OW21745   4.589   4.072   5.781
 6998SOL    HW121746   4.648   4.135   5.732
 6998SOL    HW221747   4.608   3.978   5.752
 6999SOL     OW21748   5.086   4.868   6.131
 6999SOL    HW121749   5.169   4.839   6.083
 6999SOL    HW221750   5.037   4.935   6.075
 7000SOL     OW21751   4.274   3.920   6.471
 7000SOL    HW121752   4.269   3.915   6.571
 7000SOL    HW221753   4.276   4.016   6.442
 7001SOL     OW21754   4.732   5.180   6.063
 7001SOL    HW121755   4.686   5.252   6.011
 7001SOL    HW221756   4.728   5.200   6.161
 7002SOL     OW21757   4.951   5.274   7.092
 7002SOL    HW121758   4.957   5.197   7.156
 7002SOL    HW221759   4.899   5.248   7.012
 7003SOL     OW21760   4.045   4.667   5.828
 7003SOL    HW121761   4.127   4.706   5.786
 7003SOL    HW221762   4.018   4.585   5.779
 7004SOL     OW21763   4.185   4.990   7.313
 7004SOL    HW121764   4.135   4.991   7.227
 7004SOL    HW221765   4.122   4.972   7.389
 7005SOL     OW21766   4.835   5.500   5.823
 7005SOL    HW121767   4.775   5.438   5.873
 7005SOL    HW221768   4.866   5.456   5.738
 7006SOL     OW21769   3.926   4.009   7.084
 7006SOL    HW121770   3.846   4.069   7.071
 7006SOL    HW221771   3.916   3.960   7.170
 7007SOL     OW21772   5.124   3.831   6.012
 7007SOL    HW121773   5.100   3.794   5.922
 7007SOL    HW221774   5.223   3.847   6.016
 7008SOL     OW21775   4.106   4.424   6.066
 7008SOL    HW121776   4.151   4.334   6.063
 7008SOL    HW221777   4.012   4.413   6.099
 7009SOL     OW21778   4.338   3.846   5.703
 7009SOL    HW121779   4.436   3.824   5.710
 7009SOL    HW221780   4.307   3.829   5.610
 7010SOL     OW21781   4.505   3.988   7.335
 7010SOL    HW121782   4.572   3.927   7.378
 7010SOL    HW221783   4.432   4.007   7.400
 7011SOL     OW21784   5.075   4.314   7.019
 7011SOL    HW121785   5.103   4.271   7.104
 7011SOL    HW221786   5.100   4.410   7.020
 7012SOL     OW21787   4.527   5.126   6.510
 7012SOL    HW121788   4.617   5.140   6.468
 7012SOL    HW221789   4.456   5.128   6.439
 7013SOL     OW21790   4.646   4.227   6.485
 7013SOL    HW121791   4.621   4.218   6.389
 7013SOL    HW221792   4.694   4.145   6.516
 7014SOL     OW21793   4.263   3.788   6.098
 7014SOL    HW121794   4.182   3.789   6.156
 7014SOL    HW221795   4.266   3.871   6.043
 7015SOL     OW21796   5.158   4.912   5.627
 7015SOL    HW121797   5.190   4.836   5.684
 7015SOL    HW221798   5.066   4.939   5.657
 7016SOL     OW21799   4.021   3.759   5.757
 7016SOL    HW121800   4.070   3.843   5.736
 7016SOL    HW221801   4.083   3.694   5.802
 7017SOL     OW21802   4.659   3.960   6.066
 7017SOL    HW121803   4.611   4.001   5.988
 7017SOL    HW221804   4.758   3.958   6.047
 7018SOL     OW21805   4.800   4.407   7.050
 7018SOL    HW121806   4.720   4.346   7.053
 7018SOL    HW221807   4.881   4.354   7.026
 7019SOL     OW21808   4.951   5.294   6.379
 7019SOL    HW121809   4.972   5.368   6.314
 7019SOL    HW221810   5.019   5.294   6.452
 7020SOL     OW21811   4.183   4.876   6.327
 7020SOL    HW121812   4.112   4.849   6.392
 7020SOL    HW221813   4.157   4.848   6.234
 7021SOL     OW21814   4.756   4.273   5.602
 7021SOL    HW121815   4.715   4.355   5.563
 7021SOL    HW221816   4.820   4.299   5.675
 7022SOL     OW21817   3.802   4.280   6.972
 7022SOL    HW121818   3.894   4.279   6.931
 7022SOL    HW221819   3.796   4.354   7.039
 7023SOL     OW21820   4.285   3.946   6.733
 7023SOL    HW121821   4.323   3.862   6.770
 7023SOL    HW221822   4.197   3.965   6.777
 7024SOL     OW21823   4.590   4.178   6.228
 7024SOL    HW121824   4.558   4.250   6.166
 7024SOL    HW221825   4.614   4.097   6.175
 7025SOL     OW21826   4.741   3.763   6.339
 7025SOL    HW121827   4.669   3.768   6.270
 7025SOL    HW221828   4.717   3.694   6.408
 7026SOL     OW21829   5.153   4.897   6.453
 7026SOL    HW121830   5.098   4.813   6.446
 7026SOL    HW221831   5.179   4.926   6.361
 7027SOL     OW21832   4.212   5.109   5.760
 7027SOL    HW121833   4.125   5.094   5.807
 7027SOL    HW221834   4.195   5.135   5.665
 7028SOL     OW21835   5.114   4.299   5.664
 7028SOL    HW121836   5.060   4.278   5.745
 7028SOL    HW221837   5.205   4.258   5.673
 7029SOL     OW21838   4.251   3.980   5.914
 7029SOL    HW121839   4.278   3.921   5.839
 7029SOL    HW221840   4.251   4.075   5.883
 7030SOL     OW21841   4.788   5.071   6.926
 7030SOL    HW121842   4.708   5.048   6.981
 7030SOL    HW221843   4.871   5.045   6.975
 7031SOL     OW21844   4.835   4.919   6.686
 7031SOL    HW121845   4.795   4.963   6.767
 7031SOL    HW221846   4.794   4.956   6.603
 7032SOL     OW21847   4.639   3.813   6.988
 7032SOL    HW121848   4.664   3.793   6.893
 7032SOL    HW221849   4.711   3.869   7.030
 7033SOL     OW21850   4.704   4.840   7.305
 7033SOL    HW121851   4.605   4.846   7.315
 7033SOL    HW221852   4.727   4.760   7.249
 7034SOL     OW21853   4.429   4.774   5.954
 7034SOL    HW121854   4.415   4.781   6.053
 7034SOL    HW221855   4.513   4.723   5.936
 7035SOL     OW21856   4.134   4.537   6.837
 7035SOL    HW121857   4.220   4.549   6.887
 7035SOL    HW221858   4.092   4.450   6.864
 7036SOL     OW21859   4.998   4.110   6.848
 7036SOL    HW121860   5.019   4.184   6.912
 7036SOL    HW221861   4.909   4.127   6.805
 7037SOL     OW21862   4.091   4.824   6.087
 7037SOL    HW121863   4.084   4.907   6.031
 7037SOL    HW221864   4.095   4.744   6.027
 7038SOL     OW21865   4.290   4.261   6.451
 7038SOL    HW121866   4.302   4.327   6.377
 7038SOL    HW221867   4.336   4.295   6.534
 7039SOL     OW21868   4.976   5.072   5.974
 7039SOL    HW121869   5.026   5.149   6.014
 7039SOL    HW221870   4.881   5.074   6.006
 7040SOL     OW21871   4.996   5.169   6.728
 7040SOL    HW121872   5.043   5.182   6.815
 7040SOL    HW221873   4.930   5.095   6.737
 7041SOL     OW21874   4.078   5.234   6.915
 7041SOL    HW121875   4.057   5.190   6.828
 7041SOL    HW221876   4.175   5.260   6.918
 7042SOL     OW21877   4.126   4.475   7.184
 7042SOL    HW121878   4.194   4.530   7.137
 7042SOL    HW221879   4.166   4.387   7.211
 7043SOL     OW21880   4.737   3.829   7.356
 7043SOL    HW121881   4.743   3.914   7.304
 7043SOL    HW221882   4.769   3.753   7.299
 7044SOL     OW21883   4.228   3.774   7.326
 7044SOL    HW121884   4.186   3.717   7.256
 7044SOL    HW221885   4.162   3.843   7.358
 7045SOL     OW21886   4.297   4.594   6.615
 7045SOL    HW121887   4.341   4.683   6.606
 7045SOL    HW221888   4.234   4.594   6.692
 7046SOL     OW21889   5.084   4.586   6.631
 7046SOL    HW121890   5.009   4.586   6.565
 7046SOL    HW221891   5.121   4.494   6.640
 7047SOL     OW21892   4.933   4.249   5.861
 7047SOL    HW121893   4.946   4.165   5.915
 7047SOL    HW221894   4.904   4.323   5.921
 7048SOL     OW21895   4.031   3.937   6.817
 7048SOL    HW121896   4.008   3.974   6.907
 7048SOL    HW221897   4.001   3.842   6.811
 7049SOL     OW21898   3.761   5.034   6.868
 7049SOL    HW121899   3.814   4.985   6.936
 7049SOL    HW221900   3.783   5.132   6.873
 7050SOL     OW21901   4.456   4.358   6.650
 7050SOL    HW121902   4.515   4.332   6.574
 7050SOL    HW221903   4.428   4.454   6.639
 7051SOL     OW21904   4.031   3.787   6.204
 7051SOL    HW121905   4.020   3.881   6.237
 7051SOL    HW221906   4.026   3.724   6.281
 7052SOL     OW21907   5.346   4.091   5.960
 7052SOL    HW121908   5.348   4.015   6.024
 7052SOL    HW221909   5.298   4.168   6.000
 7053SOL     OW21910   4.747   4.490   6.552
 7053SOL    HW121911   4.762   4.511   6.648
 7053SOL    HW221912   4.717   4.395   6.543
 7054SOL     OW21913   4.074   4.622   7.390
 7054SOL    HW121914   4.150   4.666   7.438
 7054SOL    HW221915   4.109   4.575   7.308
 7055SOL     OW21916   5.027   4.562   5.628
 7055SOL    HW121917   5.061   4.469   5.643
 7055SOL    HW221918   5.045   4.589   5.533
 7056SOL     OW21919   4.792   5.057   6.435
 7056SOL    HW121920   4.799   4.973   6.380
 7056SOL    HW221921   4.854   5.126   6.399
 7057SOL     OW21922   4.043   4.534   6.535
 7057SOL    HW121923   4.136   4.570   6.540
 7057SOL    HW221924   4.037   4.449   6.587
 7058SOL     OW21925   4.063   4.233   6.592
 7058SOL    HW121926   4.011   4.150   6.575
 7058SOL    HW221927   4.140   4.238   6.528
 7059SOL     OW21928   4.862   4.104   7.264
 7059SOL    HW121929   4.817   4.167   7.328
 7059SOL    HW221930   4.955   4.135   7.247
 7060SOL     OW21931   4.884   3.931   7.063
 7060SOL    HW121932   4.884   3.995   7.140
 7060SOL    HW221933   4.912   3.979   6.980
 7061SOL     OW21934   3.732   5.050   5.786
 7061SOL    HW121935   3.639   5.071   5.755
 7061SOL    HW221936   3.742   4.951   5.799
 7062SOL     OW21937   4.726   4.520   6.824
 7062SOL    HW121938   4.767   4.488   6.910
 7062SOL    HW221939   4.630   4.493   6.821
 7063SOL     OW21940   3.764   4.268   6.700
 7063SOL    HW121941   3.849   4.235   6.659
 7063SOL    HW221942   3.777   4.283   6.798
 7064SOL     OW21943   3.913   4.244   7.308
 7064SOL    HW121944   3.972   4.204   7.238
 7064SOL    HW221945   3.855   4.315   7.267
 7065SOL     OW21946   5.093   4.674   7.246
 7065SOL    HW121947   5.132   4.763   7.266
 7065SOL    HW221948   5.103   4.654   7.149
 7066SOL     OW21949   4.539   4.296   5.911
 7066SOL    HW121950   4.546   4.207   5.865
 7066SOL    HW221951   4.445   4.330   5.903
 7067SOL     OW21952   3.976   5.288   7.330
 7067SOL    HW121953   3.946   5.345   7.406
 7067SOL    HW221954   3.969   5.191   7.356
 7068SOL     OW21955   4.395   4.188   6.855
 7068SOL    HW121956   4.361   4.099   6.825
 7068SOL    HW221957   4.421   4.242   6.775
 7069SOL     OW21958   4.197   4.224   5.777
 7069SOL    HW121959   4.258   4.304   5.781
 7069SOL    HW221960   4.102   4.255   5.784
 7070SOL     OW21961   3.883   4.861   7.052
 7070SOL    HW121962   3.905   4.800   7.128
 7070SOL    HW221963   3.893   4.812   6.966
 7071SOL     OW21964   5.071   4.783   6.820
 7071SOL    HW121965   5.095   4.720   6.746
 7071SOL    HW221966   4.981   4.823   6.802
 7072SOL     OW21967   5.026   4.579   5.895
 7072SOL    HW121968   4.940   4.548   5.937
 7072SOL    HW221969   5.022   4.565   5.796
 7073SOL     OW21970   3.807   4.982   6.608
 7073SOL    HW121971   3.802   4.981   6.708
 7073SOL    HW221972   3.724   4.941   6.570
 7074SOL     OW21973   4.412   5.386   7.302
 7074SOL    HW121974   4.356   5.467   7.311
 7074SOL    HW221975   4.464   5.390   7.216
 7075SOL     OW21976   5.450   3.859   6.109
 7075SOL    HW121977   5.523   3.842   6.042
 7075SOL    HW221978   5.419   3.772   6.147
 7076SOL     OW21979   5.004   4.651   6.258
 7076SOL    HW121980   5.064   4.570   6.260
 7076SOL    HW221981   5.044   4.720   6.198
 7077SOL     OW21982   4.554   4.997   7.008
 7077SOL    HW121983   4.549   5.030   7.103
 7077SOL    HW221984   4.468   5.016   6.962
 7078SOL     OW21985   3.987   4.050   6.306
 7078SOL    HW121986   3.908   4.101   6.272
 7078SOL    HW221987   3.978   4.035   6.404
 7079SOL     OW21988   4.546   4.726   6.958
 7079SOL    HW121989   4.586   4.725   6.866
 7079SOL    HW221990   4.556   4.818   6.998
 7080SOL     OW21991   4.640   4.634   5.877
 7080SOL    HW121992   4.703   4.672   5.809
 7080SOL    HW221993   4.680   4.551   5.916
 7081SOL     OW21994   4.096   5.012   7.076
 7081SOL    HW121995   4.083   5.105   7.042
 7081SOL    HW221996   4.012   4.960   7.063
 7082SOL     OW21997   4.763   4.822   6.282
 7082SOL    HW121998   4.693   4.775   6.336
 7082SOL    HW221999   4.822   4.754   6.239
 7083SOL     OW22000   4.738   3.960   6.557
 7083SOL    HW122001   4.730   3.924   6.464
 7083SOL    HW222002   4.736   3.884   6.622
 7084SOL     OW22003   3.979   5.072   5.876
 7084SOL    HW122004   3.883   5.073   5.849
 7084SOL    HW222005   3.991   5.125   5.960
 7085SOL     OW22006   3.829   4.737   7.312
 7085SOL    HW122007   3.752   4.704   7.366
 7085SOL    HW222008   3.914   4.707   7.354
 7086SOL     OW22009   4.396   3.927   7.075
 7086SOL    HW122010   4.486   3.911   7.035
 7086SOL    HW222011   4.404   3.932   7.174
 7087SOL     OW22012   3.799   4.069   5.619
 7087SOL    HW122013   3.707   4.041   5.590
 7087SOL    HW222014   3.830   4.146   5.563
 7088SOL     OW22015   5.164   4.580   6.984
 7088SOL    HW122016   5.107   4.632   6.921
 7088SOL    HW222017   5.260   4.592   6.960
 7089SOL     OW22018   3.796   3.890   5.904
 7089SOL    HW122019   3.779   3.973   5.850
 7089SOL    HW222020   3.886   3.853   5.882
 7090SOL     OW22021   4.907   5.059   5.705
 7090SOL    HW122022   4.808   5.048   5.707
 7090SOL    HW222023   4.941   5.074   5.798
 7091SOL     OW22024   4.337   4.566   7.017
 7091SOL    HW122025   4.393   4.647   7.000
 7091SOL    HW222026   4.396   4.486   7.020
 7092SOL     OW22027   4.440   4.289   7.294
 7092SOL    HW122028   4.459   4.354   7.368
 7092SOL    HW222029   4.500   4.209   7.303
 7093SOL     OW22030   5.174   4.944   7.219
 7093SOL    HW122031   5.165   4.934   7.318
 7093SOL    HW222032   5.270   4.937   7.193
 7094SOL     OW22033   4.949   4.049   6.035
 7094SOL    HW122034   5.014   3.975   6.024
 7094SOL    HW222035   4.969   4.099   6.119
 7095SOL     OW22036   4.318   4.469   6.238
 7095SOL    HW122037   4.368   4.554   6.219
 7095SOL    HW222038   4.230   4.471   6.190
 7096SOL     OW22039   4.583   5.098   5.602
 7096SOL    HW122040   4.537   5.113   5.690
 7096SOL    HW222041   4.627   5.183   5.572
 7097SOL     OW22042   4.583   4.680   6.447
 7097SOL    HW122043   4.637   4.611   6.495
 7097SOL    HW222044   4.551   4.749   6.513
 7098SOL     OW22045   4.807   4.708   5.673
 7098SOL    HW122046   4.784   4.761   5.591
 7098SOL    HW222047   4.888   4.652   5.654
 7099SOL     OW22048   3.945   5.038   7.430
 7099SOL    HW122049   3.880   4.965   7.409
 7099SOL    HW222050   3.949   5.052   7.528
 7100SOL     OW22051   3.803   4.964   6.239
 7100SOL    HW122052   3.802   4.917   6.327
 7100SOL    HW222053   3.885   4.936   6.188
 7101SOL     OW22054   4.396   5.115   7.210
 7101SOL    HW122055   4.318   5.065   7.248
 7101SOL    HW222056   4.393   5.210   7.241
 7102SOL     OW22057   4.152   4.148   6.106
 7102SOL    HW122058   4.182   4.076   6.044
 7102SOL    HW222059   4.113   4.108   6.189
 7103SOL     OW22060   5.429   5.211   6.690
 7103SOL    HW122061   5.336   5.186   6.663
 7103SOL    HW222062   5.455   5.161   6.772
 7104SOL     OW22063   4.041   4.271   6.866
 7104SOL    HW122064   4.079   4.212   6.938
 7104SOL    HW222065   4.081   4.245   6.778
 7105SOL     OW22066   5.148   3.938   6.698
 7105SOL    HW122067   5.200   3.873   6.753
 7105SOL    HW222068   5.099   4.001   6.759
 7106SOL     OW22069   4.725   3.758   6.740
 7106SOL    HW122070   4.662   3.686   6.709
 7106SOL    HW222071   4.818   3.722   6.740
 7107SOL     OW22072   4.494   5.054   5.887
 7107SOL    HW122073   4.448   4.967   5.904
 7107SOL    HW222074   4.585   5.051   5.928
 7108SOL     OW22075   4.342   5.291   6.870
 7108SOL    HW122076   4.337   5.373   6.927
 7108SOL    HW222077   4.431   5.288   6.825
 7109SOL     OW22078   5.076   3.776   5.754
 7109SOL    HW122079   5.111   3.735   5.670
 7109SOL    HW222080   4.986   3.738   5.774
 7110SOL     OW22081   5.024   4.177   6.277
 7110SOL    HW122082   4.965   4.257   6.281
 7110SOL    HW222083   5.039   4.142   6.370
 7111SOL     OW22084   5.317   3.945   6.468
 7111SOL    HW122085   5.233   3.944   6.522
 7111SOL    HW222086   5.319   4.028   6.412
 7112SOL     OW22087   3.763   4.801   5.886
 7112SOL    HW122088   3.862   4.790   5.877
 7112SOL    HW222089   3.723   4.715   5.918
 7113SOL     OW22090   3.954   4.352   7.561
 7113SOL    HW122091   3.861   4.350   7.598
 7113SOL    HW222092   3.955   4.313   7.469
 7114SOL     OW22093   3.955   5.437   7.931
 7114SOL    HW122094   3.989   5.514   7.985
 7114SOL    HW222095   3.999   5.437   7.841
 7115SOL     OW22096   3.954   5.158   7.986
 7115SOL    HW122097   3.928   5.254   7.986
 7115SOL    HW222098   3.883   5.104   8.031
 7116SOL     OW22099   4.330   4.688   7.571
 7116SOL    HW122100   4.337   4.772   7.517
 7116SOL    HW222101   4.376   4.701   7.659
 7117SOL     OW22102   3.751   5.320   7.565
 7117SOL    HW122103   3.732   5.224   7.586
 7117SOL    HW222104   3.718   5.378   7.640
 7118SOL     OW22105   5.413   4.646   8.060
 7118SOL    HW122106   5.508   4.617   8.068
 7118SOL    HW222107   5.405   4.711   7.985
 7119SOL     OW22108   4.533   3.728   7.950
 7119SOL    HW122109   4.573   3.819   7.941
 7119SOL    HW222110   4.433   3.736   7.956
 7120SOL     OW22111   4.322   4.453   7.718
 7120SOL    HW122112   4.346   4.522   7.650
 7120SOL    HW222113   4.244   4.486   7.772
 7121SOL     OW22114   3.800   4.535   8.237
 7121SOL    HW122115   3.899   4.523   8.246
 7121SOL    HW222116   3.776   4.630   8.258
 7122SOL     OW22117   4.589   4.072   7.643
 7122SOL    HW122118   4.648   4.135   7.594
 7122SOL    HW222119   4.608   3.978   7.614
 7123SOL     OW22120   4.045   4.667   7.690
 7123SOL    HW122121   4.127   4.706   7.648
 7123SOL    HW222122   4.018   4.585   7.641
 7124SOL     OW22123   4.835   5.500   7.685
 7124SOL    HW122124   4.775   5.438   7.735
 7124SOL    HW222125   4.866   5.456   7.600
 7125SOL     OW22126   5.124   3.831   7.874
 7125SOL    HW122127   5.100   3.794   7.784
 7125SOL    HW222128   5.223   3.847   7.878
 7126SOL     OW22129   4.106   4.424   7.928
 7126SOL    HW122130   4.151   4.334   7.925
 7126SOL    HW222131   4.012   4.413   7.961
 7127SOL     OW22132   4.338   3.846   7.565
 7127SOL    HW122133   4.436   3.824   7.572
 7127SOL    HW222134   4.307   3.829   7.472
 7128SOL     OW22135   4.263   3.788   7.960
 7128SOL    HW122136   4.182   3.789   8.018
 7128SOL    HW222137   4.266   3.871   7.905
 7129SOL     OW22138   5.158   4.912   7.489
 7129SOL    HW122139   5.190   4.836   7.546
 7129SOL    HW222140   5.066   4.939   7.519
 7130SOL     OW22141   4.021   3.759   7.619
 7130SOL    HW122142   4.070   3.843   7.598
 7130SOL    HW222143   4.083   3.694   7.664
 7131SOL     OW22144   4.659   3.960   7.928
 7131SOL    HW122145   4.611   4.001   7.850
 7131SOL    HW222146   4.758   3.958   7.909
 7132SOL     OW22147   4.183   4.876   8.189
 7132SOL    HW122148   4.112   4.849   8.254
 7132SOL    HW222149   4.157   4.848   8.096
 7133SOL     OW22150   4.756   4.273   7.464
 7133SOL    HW122151   4.715   4.355   7.425
 7133SOL    HW222152   4.820   4.299   7.537
 7134SOL     OW22153   4.212   5.109   7.622
 7134SOL    HW122154   4.125   5.094   7.669
 7134SOL    HW222155   4.195   5.135   7.527
 7135SOL     OW22156   5.114   4.299   7.526
 7135SOL    HW122157   5.060   4.278   7.607
 7135SOL    HW222158   5.205   4.258   7.535
 7136SOL     OW22159   4.251   3.980   7.776
 7136SOL    HW122160   4.278   3.921   7.701
 7136SOL    HW222161   4.251   4.075   7.745
 7137SOL     OW22162   4.429   4.774   7.816
 7137SOL    HW122163   4.415   4.781   7.915
 7137SOL    HW222164   4.513   4.723   7.798
 7138SOL     OW22165   4.091   4.824   7.949
 7138SOL    HW122166   4.084   4.907   7.893
 7138SOL    HW222167   4.095   4.744   7.889
 7139SOL     OW22168   4.976   5.072   7.836
 7139SOL    HW122169   5.026   5.149   7.876
 7139SOL    HW222170   4.881   5.074   7.868
 7140SOL     OW22171   5.306   4.363   7.920
 7140SOL    HW122172   5.275   4.424   7.993
 7140SOL    HW222173   5.356   4.415   7.851
 7141SOL     OW22174   4.933   4.249   7.723
 7141SOL    HW122175   4.946   4.165   7.777
 7141SOL    HW222176   4.904   4.323   7.783
 7142SOL     OW22177   5.346   4.091   7.822
 7142SOL    HW122178   5.348   4.015   7.886
 7142SOL    HW222179   5.298   4.168   7.862
 7143SOL     OW22180   5.027   4.562   7.490
 7143SOL    HW122181   5.061   4.469   7.505
 7143SOL    HW222182   5.045   4.589   7.395
 7144SOL     OW22183   3.732   5.050   7.648
 7144SOL    HW122184   3.639   5.071   7.617
 7144SOL    HW222185   3.742   4.951   7.661
 7145SOL     OW22186   4.539   4.296   7.773
 7145SOL    HW122187   4.546   4.207   7.727
 7145SOL    HW222188   4.445   4.330   7.765
 7146SOL     OW22189   4.197   4.224   7.639
 7146SOL    HW122190   4.258   4.304   7.643
 7146SOL    HW222191   4.102   4.255   7.646
 7147SOL     OW22192   5.026   4.579   7.757
 7147SOL    HW122193   4.940   4.548   7.799
 7147SOL    HW222194   5.022   4.565   7.658
 7148SOL     OW22195   5.450   3.859   7.971
 7148SOL    HW122196   5.523   3.842   7.904
 7148SOL    HW222197   5.419   3.772   8.009
 7149SOL     OW22198   4.640   4.634   7.739
 7149SOL    HW122199   4.703   4.672   7.671
 7149SOL    HW222200   4.680   4.551   7.778
 7150SOL     OW22201   3.979   5.072   7.738
 7150SOL    HW122202   3.883   5.073   7.711
 7150SOL    HW222203   3.991   5.125   7.822
 7151SOL     OW22204   3.799   4.069   7.481
 7151SOL    HW122205   3.707   4.041   7.452
 7151SOL    HW222206   3.830   4.146   7.425
 7152SOL     OW22207   3.796   3.890   7.766
 7152SOL    HW122208   3.779   3.973   7.712
 7152SOL    HW222209   3.886   3.853   7.744
 7153SOL     OW22210   4.907   5.059   7.567
 7153SOL    HW122211   4.808   5.048   7.569
 7153SOL    HW222212   4.941   5.074   7.660
 7154SOL     OW22213   4.949   4.049   7.897
 7154SOL    HW122214   5.014   3.975   7.886
 7154SOL    HW222215   4.969   4.099   7.981
 7155SOL     OW22216   4.318   4.469   8.100
 7155SOL    HW122217   4.368   4.554   8.081
 7155SOL    HW222218   4.230   4.471   8.052
 7156SOL     OW22219   4.583   5.098   7.464
 7156SOL    HW122220   4.537   5.113   7.552
 7156SOL    HW222221   4.627   5.183   7.434
 7157SOL     OW22222   4.807   4.708   7.535
 7157SOL    HW122223   4.784   4.761   7.453
 7157SOL    HW222224   4.888   4.652   7.516
 7158SOL     OW22225   4.152   4.148   7.968
 7158SOL    HW122226   4.182   4.076   7.906
 7158SOL    HW222227   4.113   4.108   8.051
 7159SOL     OW22228   4.494   5.054   7.749
 7159SOL    HW122229   4.448   4.967   7.766
 7159SOL    HW222230   4.585   5.051   7.790
 7160SOL     OW22231   5.076   3.776   7.616
 7160SOL    HW122232   5.111   3.735   7.532
 7160SOL    HW222233   4.986   3.738   7.636
 7161SOL     OW22234   3.763   4.801   7.748
 7161SOL    HW122235   3.862   4.790   7.739
 7161SOL    HW222236   3.723   4.715   7.780
   5.30000   5.30000   8.08000
