2gCDOC_1PEG_l8
22134
    1LIG      O    1   2.768   2.593   8.080
    1LIG      C    2   2.752   2.632   0.135
    1LIG     C1    3   2.619   2.571   0.187
    1LIG     O1    4   2.561   2.658   0.283
    1LIG     C2    5   2.589   2.615   0.413
    1LIG     C3    6   2.735   2.656   0.448
    1LIG     O2    7   2.767   2.606   0.576
    1LIG     C4    8   2.711   2.690   0.675
    1LIG     C5    9   2.579   2.627   0.726
    1LIG     O3   10   2.541   2.696   0.841
    1LIG     C6   11   2.589   2.637   0.959
    1LIG     C7   12   2.735   2.683   0.994
    1LIG     O4   13   2.781   2.623   1.114
    1LIG     C8   14   2.728   2.686   1.229
    1LIG     C9   15   2.600   2.607   1.267
    1LIG     O5   16   2.525   2.670   1.369
    1LIG    C10   17   2.582   2.633   1.492
    1LIG    C11   18   2.687   2.736   1.532
    1LIG     O6   19   2.640   2.786   1.653
    1LIG    C12   20   2.688   2.708   1.759
    1LIG    C13   21   2.597   2.587   1.796
    1LIG     O7   22   2.656   2.524   1.909
    1LIG    C14   23   2.615   2.588   2.029
    1LIG    C15   24   2.709   2.707   2.071
    1LIG     O8   25   2.643   2.788   2.166
    1LIG    C16   26   2.675   2.742   2.294
    1LIG    C17   27   2.565   2.641   2.336
    1LIG     O9   28   2.620   2.553   2.431
    1LIG    C18   29   2.588   2.602   2.559
    1LIG    C19   30   2.688   2.714   2.599
    1LIG    O10   31   2.651   2.767   2.721
    1LIG    C20   32   2.712   2.699   2.827
    1LIG    C21   33   2.611   2.594   2.878
    1LIG    O11   34   2.663   2.526   2.990
    1LIG    C22   35   2.615   2.583   3.108
    1LIG    C23   36   2.698   2.710   3.146
    1LIG    O12   37   2.636   2.779   3.251
    1LIG    C24   38   2.685   2.735   3.375
    1LIG    C25   39   2.597   2.614   3.419
    1LIG    O13   40   2.661   2.527   3.511
    1LIG    C26   41   2.631   2.571   3.642
    1LIG    C27   42   2.733   2.680   3.679
    1LIG    O14   43   2.672   2.764   3.774
    1LIG    C28   44   2.702   2.724   3.904
    1LIG    C29   45   2.584   2.638   3.955
    1LIG    O15   46   2.629   2.560   4.065
    1LIG    C30   47   2.587   2.611   4.189
    1LIG    C31   48   2.680   2.730   4.224
    1LIG    O16   49   2.632   2.802   4.336
    1LIG    C32   50   2.678   2.738   4.454
    1LIG    C33   51   2.569   2.638   4.498
    1LIG    O17   52   2.531   2.672   4.629
    1LIG    C34   53   2.601   2.594   4.724
    1LIG    C35   54   2.739   2.655   4.757
    1LIG    O18   55   2.764   2.621   4.891
    1LIG    C36   56   2.705   2.716   4.978
    1LIG    C37   57   2.555   2.685   5.016
    1LIG    O19   58   2.528   2.720   5.152
    1LIG    C38   59   2.593   2.629   5.241
    1LIG    C39   60   2.730   2.688   5.289
    1LIG    O20   61   2.776   2.622   5.403
    1LIG    C40   62   2.713   2.674   5.515
    1LIG    C41   63   2.596   2.582   5.551
    1LIG    O21   64   2.634   2.516   5.668
    1LIG    C42   65   2.600   2.592   5.781
    1LIG    C43   66   2.693   2.717   5.805
    1LIG    O22   67   2.641   2.795   5.910
    1LIG    C44   68   2.680   2.741   6.035
    1LIG    C45   69   2.572   2.639   6.083
    1LIG    O23   70   2.632   2.551   6.176
    1LIG    C46   71   2.597   2.593   6.306
    1LIG    C47   72   2.689   2.709   6.347
    1LIG    O24   73   2.643   2.758   6.469
    1LIG    C48   74   2.710   2.695   6.576
    1LIG    C49   75   2.612   2.591   6.634
    1LIG    O25   76   2.669   2.530   6.749
    1LIG    C50   77   2.623   2.595   6.865
    1LIG    C51   78   2.703   2.725   6.894
    1LIG    O26   79   2.637   2.793   6.997
    1LIG    C52   80   2.679   2.741   7.121
    1LIG    C53   81   2.583   2.630   7.165
    1LIG    O27   82   2.545   2.664   7.293
    1LIG    C54   83   2.600   2.593   7.398
    1LIG    C55   84   2.729   2.667   7.446
    1LIG    O28   85   2.788   2.604   7.560
    1LIG    C56   86   2.740   2.662   7.681
    1LIG    C57   87   2.600   2.602   7.709
    1LIG    O29   88   2.537   2.662   7.820
    1LIG    C58   89   2.569   2.593   7.939
    1LIG    C59   90   2.684   2.675   8.000
    1LIG      H   91   2.747   2.742   0.143
    1LIG     H1   92   2.839   2.598   0.192
    1LIG     H2   93   2.638   2.471   0.229
    1LIG     H3   94   2.545   2.559   0.108
    1LIG     H4   95   2.574   2.507   0.424
    1LIG     H5   96   2.517   2.667   0.476
    1LIG     H6   97   2.746   2.765   0.445
    1LIG     H7   98   2.807   2.613   0.380
    1LIG     H8   99   2.693   2.792   0.639
    1LIG     H9  100   2.788   2.699   0.749
    1LIG    H10  101   2.591   2.519   0.745
    1LIG    H11  102   2.496   2.638   0.657
    1LIG    H12  103   2.585   2.527   0.953
    1LIG    H13  104   2.516   2.672   1.030
    1LIG    H14  105   2.741   2.792   1.000
    1LIG    H15  106   2.807   2.648   0.921
    1LIG    H16  107   2.709   2.793   1.210
    1LIG    H17  108   2.804   2.679   1.307
    1LIG    H18  109   2.631   2.507   1.296
    1LIG    H19  110   2.528   2.592   1.189
    1LIG    H20  111   2.627   2.532   1.490
    1LIG    H21  112   2.500   2.629   1.564
    1LIG    H22  113   2.694   2.820   1.462
    1LIG    H23  114   2.786   2.692   1.544
    1LIG    H24  115   2.682   2.784   1.834
    1LIG    H25  116   2.791   2.676   1.747
    1LIG    H26  117   2.596   2.512   1.715
    1LIG    H27  118   2.494   2.617   1.816
    1LIG    H28  119   2.622   2.511   2.105
    1LIG    H29  120   2.509   2.618   2.025
    1LIG    H30  121   2.731   2.781   1.998
    1LIG    H31  122   2.806   2.670   2.104
    1LIG    H32  123   2.678   2.831   2.356
    1LIG    H33  124   2.775   2.696   2.297
    1LIG    H34  125   2.530   2.578   2.255
    1LIG    H35  126   2.477   2.695   2.372
    1LIG    H36  127   2.597   2.515   2.624
    1LIG    H37  128   2.485   2.638   2.564
    1LIG    H38  129   2.684   2.800   2.534
    1LIG    H39  130   2.792   2.677   2.601
    1LIG    H40  131   2.737   2.777   2.897
    1LIG    H41  132   2.806   2.652   2.799
    1LIG    H42  133   2.598   2.515   2.806
    1LIG    H43  134   2.511   2.636   2.897
    1LIG    H44  135   2.628   2.502   3.178
    1LIG    H45  136   2.509   2.608   3.100
    1LIG    H46  137   2.698   2.785   3.069
    1LIG    H47  138   2.802   2.683   3.168
    1LIG    H48  139   2.669   2.819   3.444
    1LIG    H49  140   2.792   2.712   3.371
    1LIG    H50  141   2.562   2.551   3.339
    1LIG    H51  142   2.508   2.659   3.460
    1LIG    H52  143   2.636   2.486   3.711
    1LIG    H53  144   2.528   2.609   3.647
    1LIG    H54  145   2.758   2.747   3.597
    1LIG    H55  146   2.827   2.638   3.713
    1LIG    H56  147   2.713   2.817   3.961
    1LIG    H57  148   2.797   2.670   3.909
    1LIG    H58  149   2.549   2.568   3.878
    1LIG    H59  150   2.499   2.701   3.982
    1LIG    H60  151   2.597   2.530   4.262
    1LIG    H61  152   2.481   2.638   4.183
    1LIG    H62  153   2.683   2.801   4.143
    1LIG    H63  154   2.782   2.698   4.239
    1LIG    H64  155   2.698   2.814   4.529
    1LIG    H65  156   2.770   2.682   4.437
    1LIG    H66  157   2.611   2.536   4.494
    1LIG    H67  158   2.481   2.640   4.434
    1LIG    H68  159   2.619   2.492   4.690
    1LIG    H69  160   2.534   2.586   4.808
    1LIG    H70  161   2.740   2.764   4.745
    1LIG    H71  162   2.817   2.613   4.693
    1LIG    H72  163   2.714   2.816   4.939
    1LIG    H73  164   2.771   2.717   5.061
    1LIG    H74  165   2.530   2.579   5.004
    1LIG    H75  166   2.488   2.742   4.951
    1LIG    H76  167   2.605   2.530   5.197
    1LIG    H77  168   2.523   2.619   5.324
    1LIG    H78  169   2.722   2.796   5.304
    1LIG    H79  170   2.814   2.669   5.223
    1LIG    H80  171   2.679   2.777   5.501
    1LIG    H81  172   2.792   2.673   5.591
    1LIG    H82  173   2.578   2.506   5.475
    1LIG    H83  174   2.503   2.640   5.565
    1LIG    H84  175   2.615   2.521   5.859
    1LIG    H85  176   2.494   2.622   5.778
    1LIG    H86  177   2.694   2.786   5.721
    1LIG    H87  178   2.796   2.684   5.825
    1LIG    H88  179   2.688   2.826   6.102
    1LIG    H89  180   2.780   2.695   6.030
    1LIG    H90  181   2.530   2.573   6.009
    1LIG    H91  182   2.485   2.692   6.122
    1LIG    H92  183   2.611   2.507   6.372
    1LIG    H93  184   2.491   2.622   6.310
    1LIG    H94  185   2.682   2.795   6.282
    1LIG    H95  186   2.793   2.678   6.351
    1LIG    H96  187   2.736   2.777   6.641
    1LIG    H97  188   2.803   2.648   6.547
    1LIG    H98  189   2.597   2.510   6.563
    1LIG    H99  190   2.514   2.634   6.655
    1LIG   H100  191   2.635   2.524   6.947
    1LIG   H101  192   2.516   2.618   6.857
    1LIG   H102  193   2.702   2.798   6.814
    1LIG   H103  194   2.807   2.702   6.918
    1LIG   H104  195   2.673   2.825   7.192
    1LIG   H105  196   2.782   2.707   7.119
    1LIG   H106  197   2.628   2.528   7.157
    1LIG   H107  198   2.490   2.631   7.110
    1LIG   H108  199   2.615   2.485   7.378
    1LIG   H109  200   2.514   2.601   7.462
    1LIG   H110  201   2.704   2.772   7.469
    1LIG   H111  202   2.804   2.667   7.366
    1LIG   H112  203   2.735   2.772   7.673
    1LIG   H113  204   2.811   2.638   7.761
    1LIG   H114  205   2.605   2.493   7.717
    1LIG   H115  206   2.530   2.627   7.633
    1LIG   H116  207   2.599   2.489   7.919
    1LIG   H117  208   2.481   2.592   8.003
    1LIG   H118  209   2.746   2.724   7.925
    1LIG   H119  210   2.638   2.756   8.056
    2MOL     C1  211   2.128   2.192   3.438
    2MOL     H1  212   2.109   2.084   3.424
    2MOL     O1  213   2.087   2.230   3.571
    2MOL     C2  214   2.102   2.369   3.605
    2MOL     H2  215   2.206   2.400   3.588
    2MOL     C3  216   2.074   2.381   3.757
    2MOL     H3  217   2.103   2.480   3.792
    2MOL     H4  218   2.134   2.307   3.811
    2MOL     O2  219   1.934   2.358   3.780
    2MOL     C4  220   1.890   2.383   3.914
    2MOL     C5  221   2.043   2.270   3.335
    2MOL     H5  222   1.942   2.228   3.337
    2MOL     O3  223   2.097   2.257   3.201
    2MOL     C6  224   2.080   2.128   3.140
    2MOL     C7  225   2.035   2.420   3.364
    2MOL     H6  226   2.132   2.461   3.336
    2MOL     O4  227   1.930   2.476   3.282
    2MOL     C8  228   1.976   2.584   3.198
    2MOL     C9  229   2.008   2.453   3.514
    2MOL     H7  230   1.904   2.428   3.536
    2MOL     O5  231   2.033   2.594   3.533
    2MOL    C10  232   1.947   2.664   3.626
    2MOL     H8  233   1.866   2.598   3.659
    2MOL     O6  234   2.025   2.703   3.741
    2MOL    C11  235   2.136   2.791   3.715
    2MOL     H9  236   2.204   2.744   3.642
    2MOL    C12  237   2.214   2.808   3.848
    2MOL    H10  238   2.308   2.862   3.830
    2MOL    H11  239   2.239   2.709   3.888
    2MOL     O7  240   2.131   2.880   3.942
    2MOL    C13  241   2.198   2.917   4.062
    2MOL    C14  242   1.887   2.791   3.559
    2MOL    H12  243   1.812   2.835   3.626
    2MOL     O8  244   1.826   2.756   3.433
    2MOL    C15  245   1.704   2.681   3.442
    2MOL    C16  246   1.994   2.897   3.530
    2MOL    H13  247   2.058   2.861   3.448
    2MOL     O9  248   1.927   3.020   3.494
    2MOL    C17  249   1.946   3.062   3.357
    2MOL    C18  250   2.082   2.924   3.654
    2MOL    H14  251   2.021   2.977   3.728
    2MOL    O10  252   2.193   3.004   3.608
    2MOL    C19  253   2.229   3.116   3.692
    2MOL    H15  254   2.156   3.129   3.773
    2MOL    O11  255   2.358   3.089   3.749
    2MOL    C20  256   2.465   3.073   3.653
    2MOL    H16  257   2.439   2.993   3.583
    2MOL    C21  258   2.589   3.027   3.728
    2MOL    H17  259   2.658   2.979   3.658
    2MOL    H18  260   2.555   2.956   3.803
    2MOL    O12  261   2.656   3.135   3.794
    2MOL    C22  262   2.766   3.087   3.874
    2MOL    C23  263   2.238   3.246   3.608
    2MOL    H19  264   2.259   3.331   3.674
    2MOL    O13  265   2.114   3.269   3.539
    2MOL    C24  266   2.007   3.315   3.622
    2MOL    C25  267   2.350   3.238   3.503
    2MOL    H20  268   2.327   3.158   3.432
    2MOL    O14  269   2.360   3.366   3.437
    2MOL    C26  270   2.314   3.364   3.301
    2MOL    C27  271   2.484   3.202   3.573
    2MOL    H21  272   2.517   3.283   3.640
    2MOL    O15  273   2.584   3.174   3.473
    2MOL    C28  274   2.656   3.289   3.427
    2MOL    H22  275   2.588   3.374   3.413
    2MOL    O16  276   2.758   3.322   3.523
    2MOL    C29  277   2.858   3.221   3.548
    2MOL    H23  278   2.811   3.130   3.586
    2MOL    C30  279   2.949   3.280   3.657
    2MOL    H24  280   3.012   3.202   3.701
    2MOL    H25  281   2.886   3.321   3.737
    2MOL    O17  282   3.029   3.383   3.598
    2MOL    C31  283   3.120   3.444   3.690
    2MOL    C32  284   2.722   3.258   3.292
    2MOL    H26  285   2.770   3.349   3.255
    2MOL    O18  286   2.618   3.214   3.202
    2MOL    C33  287   2.621   3.281   3.075
    2MOL    C34  288   2.830   3.149   3.304
    2MOL    H27  289   2.781   3.054   3.330
    2MOL    O19  290   2.901   3.141   3.178
    2MOL    C35  291   2.912   3.007   3.127
    2MOL    C36  292   2.931   3.188   3.413
    2MOL    H28  293   2.986   3.276   3.378
    2MOL    O20  294   3.020   3.075   3.429
    2MOL    C37  295   3.156   3.107   3.463
    2MOL    H29  296   3.174   3.215   3.457
    2MOL    O21  297   3.179   3.063   3.598
    2MOL    C38  298   3.159   2.921   3.620
    2MOL    H30  299   3.057   2.892   3.594
    2MOL    C39  300   3.181   2.900   3.770
    2MOL    H31  301   3.154   2.797   3.794
    2MOL    H32  302   3.117   2.967   3.828
    2MOL    O22  303   3.320   2.925   3.797
    2MOL    C40  304   3.359   2.890   3.929
    2MOL    C41  305   3.256   3.033   3.370
    2MOL    H33  306   3.358   3.066   3.396
    2MOL    O23  307   3.229   3.064   3.232
    2MOL    C42  308   3.277   3.191   3.189
    2MOL    C43  309   3.251   2.880   3.386
    2MOL    H34  310   3.156   2.842   3.345
    2MOL    O24  311   3.366   2.826   3.318
    2MOL    C44  312   3.336   2.747   3.201
    2MOL    C45  313   3.261   2.841   3.534
    2MOL    H35  314   3.363   2.866   3.566
    2MOL    O25  315   3.236   2.699   3.545
    2MOL    C46  316   3.322   2.627   3.636
    2MOL    H36  317   3.400   2.693   3.675
    2MOL    O26  318   3.242   2.578   3.746
    2MOL    C47  319   3.137   2.483   3.712
    2MOL    H37  320   3.066   2.529   3.642
    2MOL    C48  321   3.063   2.445   3.841
    2MOL    H38  322   2.971   2.391   3.816
    2MOL    H39  323   3.033   2.536   3.894
    2MOL    O27  324   3.152   2.365   3.922
    2MOL    C49  325   3.096   2.308   4.042
    2MOL    C50  326   3.390   2.507   3.563
    2MOL    H40  327   3.465   2.463   3.630
    2MOL    O28  328   3.451   2.549   3.439
    2MOL    C51  329   3.573   2.622   3.451
    2MOL    C52  330   3.288   2.399   3.526
    2MOL    H41  331   3.222   2.438   3.447
    2MOL    O29  332   3.362   2.283   3.482
    2MOL    C53  333   3.334   2.245   3.347
    2MOL    C54  334   3.202   2.358   3.645
    2MOL    H42  335   3.268   2.308   3.718
    2MOL    O30  336   3.100   2.269   3.595
    2MOL    C55  337   3.083   2.146   3.670
    2MOL    H43  338   3.168   2.130   3.738
    2MOL    O31  339   2.962   2.155   3.746
    2MOL    C56  340   2.842   2.179   3.668
    2MOL    H44  341   2.848   2.275   3.615
    2MOL    C57  342   2.726   2.182   3.766
    2MOL    H45  343   2.731   2.092   3.828
    2MOL    H46  344   2.630   2.184   3.714
    2MOL    O32  345   2.740   2.298   3.846
    2MOL    C58  346   2.647   2.295   3.952
    2MOL    C59  347   3.070   2.024   3.575
    2MOL    H47  348   3.059   1.934   3.635
    2MOL    O33  349   3.187   2.013   3.491
    2MOL    C60  350   3.306   1.965   3.556
    2MOL    C61  351   2.946   2.038   3.483
    2MOL    H48  352   2.959   2.124   3.417
    2MOL    O34  353   2.927   1.915   3.408
    2MOL    C62  354   2.985   1.918   3.277
    2MOL    C63  355   2.820   2.064   3.569
    2MOL    H49  356   2.796   1.973   3.627
    2MOL    O35  357   2.711   2.102   3.483
    2MOL    C64  358   2.627   1.991   3.445
    2MOL    H50  359   2.687   1.900   3.439
    2MOL    O36  360   2.524   1.975   3.544
    2MOL    C65  361   2.425   2.081   3.556
    2MOL    H51  362   2.473   2.175   3.585
    2MOL    C66  363   2.329   2.035   3.667
    2MOL    H52  364   2.296   1.932   3.647
    2MOL    H53  365   2.241   2.099   3.672
    2MOL    O37  366   2.398   2.043   3.792
    2MOL    C67  367   2.316   1.997   3.900
    2MOL    C68  368   2.562   2.017   3.307
    2MOL    H54  369   2.511   1.924   3.277
    2MOL    O38  370   2.665   2.051   3.212
    2MOL    C69  371   2.647   1.991   3.083
    2MOL    C70  372   2.460   2.132   3.311
    2MOL    H55  373   2.514   2.224   3.338
    2MOL    O39  374   2.396   2.144   3.183
    2MOL    C71  375   2.409   2.272   3.119
    2MOL    C72  376   2.355   2.104   3.419
    2MOL    H56  377   2.299   2.013   3.390
    2MOL    O40  378   2.269   2.220   3.425
    2MOL    H57  379   1.782   2.365   3.922
    2MOL    H58  380   1.941   2.317   3.984
    2MOL    H59  381   1.910   2.487   3.941
    2MOL    H60  382   2.370   2.006   3.994
    2MOL    H61  383   2.225   2.057   3.906
    2MOL    H62  384   2.289   1.892   3.884
    2MOL    H63  385   2.686   2.354   4.034
    2MOL    H64  386   2.548   2.328   3.918
    2MOL    H65  387   2.639   2.195   3.993
    2MOL    H66  388   3.154   2.220   4.071
    2MOL    H67  389   3.103   2.381   4.124
    2MOL    H68  390   2.992   2.279   4.027
    2MOL    H69  391   3.465   2.911   3.944
    2MOL    H70  392   3.300   2.949   4.001
    2MOL    H71  393   3.341   2.783   3.946
    2MOL    H72  394   3.182   3.517   3.636
    2MOL    H73  395   3.064   3.497   3.768
    2MOL    H74  396   3.182   3.367   3.737
    2MOL    H75  397   2.824   3.169   3.915
    2MOL    H76  398   2.726   3.028   3.957
    2MOL    H77  399   2.832   3.023   3.814
    2MOL    H78  400   2.131   2.972   4.129
    2MOL    H79  401   2.236   2.828   4.115
    2MOL    H80  402   2.282   2.984   4.038
    2MOL    H81  403   1.895   3.158   3.340
    2MOL    H82  404   2.053   3.076   3.336
    2MOL    H83  405   1.906   2.987   3.288
    2MOL    H84  406   1.663   2.669   3.341
    2MOL    H85  407   1.723   2.581   3.481
    2MOL    H86  408   1.631   2.733   3.504
    2MOL    H87  409   1.891   2.628   3.144
    2MOL    H88  410   2.023   2.662   3.259
    2MOL    H89  411   2.048   2.547   3.125
    2MOL    H90  412   2.096   2.135   3.032
    2MOL    H91  413   2.151   2.056   3.182
    2MOL    H92  414   1.979   2.092   3.158
    2MOL    H93  415   2.360   2.270   3.021
    2MOL    H94  416   2.361   2.349   3.181
    2MOL    H95  417   2.515   2.297   3.106
    2MOL    H96  418   2.718   2.035   3.013
    2MOL    H97  419   2.664   1.883   3.090
    2MOL    H98  420   2.546   2.008   3.045
    2MOL    H99  421   2.967   1.823   3.226
    2MOL   H100  422   2.940   1.999   3.217
    2MOL   H101  423   3.093   1.934   3.282
    2MOL   H102  424   3.383   1.942   3.481
    2MOL   H103  425   3.346   2.043   3.622
    2MOL   H104  426   3.285   1.875   3.614
    2MOL   H105  427   3.390   2.155   3.321
    2MOL   H106  428   3.227   2.223   3.336
    2MOL   H107  429   3.362   2.326   3.279
    2MOL   H108  430   3.623   2.626   3.354
    2MOL   H109  431   3.553   2.725   3.483
    2MOL   H110  432   3.639   2.573   3.524
    2MOL   H111  433   3.429   2.714   3.154
    2MOL   H112  434   3.278   2.659   3.230
    2MOL   H113  435   3.279   2.807   3.129
    2MOL   H114  436   3.282   3.192   3.080
    2MOL   H115  437   3.210   3.271   3.225
    2MOL   H116  438   3.378   3.210   3.228
    2MOL   H117  439   2.963   3.007   3.030
    2MOL   H118  440   2.968   2.943   3.197
    2MOL   H119  441   2.811   2.965   3.113
    2MOL   H120  442   2.536   3.249   3.014
    2MOL   H121  443   2.616   3.389   3.088
    2MOL   H122  444   2.715   3.255   3.024
    2MOL   H123  445   2.336   3.460   3.252
    2MOL   H124  446   2.363   3.285   3.245
    2MOL   H125  447   2.205   3.348   3.299
    2MOL   H126  448   1.924   3.351   3.561
    2MOL   H127  449   1.971   3.234   3.687
    2MOL   H128  450   2.043   3.398   3.685
    3MOL     C1  451   2.123   2.194   4.426
    3MOL     H1  452   2.102   2.089   4.410
    3MOL     O1  453   2.079   2.233   4.556
    3MOL     C2  454   2.095   2.372   4.591
    3MOL     H2  455   2.199   2.403   4.576
    3MOL     C3  456   2.062   2.385   4.739
    3MOL     H3  457   2.097   2.480   4.778
    3MOL     H4  458   2.113   2.305   4.793
    3MOL     O2  459   1.919   2.372   4.752
    3MOL     C4  460   1.876   2.382   4.886
    3MOL     C5  461   2.041   2.278   4.322
    3MOL     H5  462   1.936   2.246   4.330
    3MOL     O3  463   2.088   2.256   4.188
    3MOL     C6  464   2.058   2.128   4.132
    3MOL     C7  465   2.043   2.430   4.351
    3MOL     H6  466   2.144   2.469   4.329
    3MOL     O4  467   1.943   2.493   4.268
    3MOL     C8  468   1.993   2.593   4.177
    3MOL     C9  469   2.010   2.461   4.497
    3MOL     H7  470   1.902   2.438   4.513
    3MOL     O5  471   2.038   2.600   4.521
    3MOL    C10  472   1.952   2.668   4.615
    3MOL     H8  473   1.869   2.602   4.645
    3MOL     O6  474   2.028   2.703   4.732
    3MOL    C11  475   2.140   2.794   4.710
    3MOL     H9  476   2.209   2.750   4.638
    3MOL    C12  477   2.214   2.807   4.845
    3MOL    H10  478   2.311   2.857   4.830
    3MOL    H11  479   2.234   2.707   4.886
    3MOL     O7  480   2.133   2.883   4.937
    3MOL    C13  481   2.195   2.908   5.063
    3MOL    C14  482   1.893   2.797   4.551
    3MOL    H12  483   1.817   2.839   4.618
    3MOL     O8  484   1.837   2.767   4.422
    3MOL    C15  485   1.711   2.701   4.428
    3MOL    C16  486   2.001   2.904   4.527
    3MOL    H13  487   2.067   2.870   4.447
    3MOL     O9  488   1.934   3.027   4.492
    3MOL    C17  489   1.948   3.067   4.355
    3MOL    C18  490   2.084   2.928   4.654
    3MOL    H14  491   2.021   2.977   4.728
    3MOL    O10  492   2.193   3.012   4.612
    3MOL    C19  493   2.229   3.118   4.702
    3MOL    H15  494   2.156   3.126   4.783
    3MOL    O11  495   2.359   3.087   4.756
    3MOL    C20  496   2.462   3.068   4.656
    3MOL    H16  497   2.431   2.992   4.583
    3MOL    C21  498   2.587   3.014   4.725
    3MOL    H17  499   2.660   2.979   4.651
    3MOL    H18  500   2.559   2.929   4.789
    3MOL    O12  501   2.646   3.119   4.804
    3MOL    C22  502   2.753   3.074   4.886
    3MOL    C23  503   2.238   3.251   4.623
    3MOL    H19  504   2.259   3.333   4.693
    3MOL    O13  505   2.113   3.277   4.554
    3MOL    C24  506   2.002   3.314   4.638
    3MOL    C25  507   2.350   3.248   4.517
    3MOL    H20  508   2.324   3.177   4.438
    3MOL    O14  509   2.365   3.382   4.464
    3MOL    C26  510   2.316   3.398   4.330
    3MOL    C27  511   2.484   3.202   4.581
    3MOL    H21  512   2.519   3.278   4.653
    3MOL    O15  513   2.582   3.177   4.479
    3MOL    C28  514   2.654   3.293   4.433
    3MOL    H22  515   2.587   3.379   4.420
    3MOL    O16  516   2.756   3.326   4.530
    3MOL    C29  517   2.860   3.227   4.553
    3MOL    H23  518   2.816   3.136   4.596
    3MOL    C30  519   2.957   3.291   4.653
    3MOL    H24  520   3.032   3.218   4.685
    3MOL    H25  521   2.903   3.323   4.743
    3MOL    O17  522   3.020   3.404   4.589
    3MOL    C31  523   3.119   3.471   4.668
    3MOL    C32  524   2.720   3.263   4.298
    3MOL    H26  525   2.770   3.354   4.263
    3MOL    O18  526   2.618   3.220   4.207
    3MOL    C33  527   2.618   3.294   4.085
    3MOL    C34  528   2.824   3.151   4.311
    3MOL    H27  529   2.772   3.058   4.339
    3MOL    O19  530   2.891   3.136   4.183
    3MOL    C35  531   2.919   3.000   4.145
    3MOL    C36  532   2.928   3.188   4.418
    3MOL    H28  533   2.986   3.273   4.379
    3MOL    O20  534   3.012   3.072   4.438
    3MOL    C37  535   3.149   3.101   4.469
    3MOL    H29  536   3.169   3.209   4.461
    3MOL    O21  537   3.175   3.058   4.604
    3MOL    C38  538   3.153   2.917   4.629
    3MOL    H30  539   3.052   2.888   4.598
    3MOL    C39  540   3.165   2.895   4.781
    3MOL    H31  541   3.130   2.794   4.806
    3MOL    H32  542   3.102   2.968   4.832
    3MOL    O22  543   3.303   2.911   4.822
    3MOL    C40  544   3.322   2.887   4.962
    3MOL    C41  545   3.245   3.027   4.372
    3MOL    H33  546   3.345   3.065   4.388
    3MOL    O23  547   3.206   3.046   4.235
    3MOL    C42  548   3.235   3.175   4.180
    3MOL    C43  549   3.248   2.876   4.398
    3MOL    H34  550   3.157   2.831   4.355
    3MOL    O24  551   3.367   2.823   4.338
    3MOL    C44  552   3.341   2.755   4.216
    3MOL    C45  553   3.257   2.839   4.546
    3MOL    H35  554   3.358   2.865   4.580
    3MOL    O25  555   3.234   2.696   4.553
    3MOL    C46  556   3.322   2.625   4.641
    3MOL    H36  557   3.401   2.691   4.679
    3MOL    O26  558   3.243   2.577   4.751
    3MOL    C47  559   3.136   2.485   4.715
    3MOL    H37  560   3.070   2.533   4.643
    3MOL    C48  561   3.054   2.457   4.841
    3MOL    H38  562   2.957   2.415   4.811
    3MOL    H39  563   3.035   2.551   4.895
    3MOL    O27  564   3.125   2.365   4.925
    3MOL    C49  565   3.052   2.325   5.041
    3MOL    C50  566   3.389   2.505   4.568
    3MOL    H40  567   3.466   2.462   4.633
    3MOL    O28  568   3.447   2.548   4.443
    3MOL    C51  569   3.572   2.615   4.456
    3MOL    C52  570   3.289   2.395   4.532
    3MOL    H41  571   3.226   2.429   4.449
    3MOL    O29  572   3.365   2.277   4.496
    3MOL    C53  573   3.349   2.236   4.360
    3MOL    C54  574   3.199   2.358   4.651
    3MOL    H42  575   3.261   2.307   4.725
    3MOL    O30  576   3.095   2.272   4.598
    3MOL    C55  577   3.078   2.148   4.671
    3MOL    H43  578   3.164   2.131   4.736
    3MOL    O31  579   2.958   2.158   4.749
    3MOL    C56  580   2.836   2.178   4.675
    3MOL    H44  581   2.839   2.273   4.620
    3MOL    C57  582   2.720   2.181   4.776
    3MOL    H45  583   2.730   2.096   4.844
    3MOL    H46  584   2.625   2.174   4.723
    3MOL    O32  585   2.725   2.305   4.848
    3MOL    C58  586   2.631   2.310   4.956
    3MOL    C59  587   3.066   2.026   4.576
    3MOL    H47  588   3.056   1.935   4.637
    3MOL    O33  589   3.182   2.015   4.492
    3MOL    C60  590   3.302   1.967   4.556
    3MOL    C61  591   2.941   2.037   4.486
    3MOL    H48  592   2.955   2.122   4.418
    3MOL    O34  593   2.921   1.913   4.414
    3MOL    C62  594   2.975   1.911   4.281
    3MOL    C63  595   2.816   2.063   4.573
    3MOL    H49  596   2.792   1.971   4.630
    3MOL    O35  597   2.708   2.099   4.485
    3MOL    C64  598   2.625   1.988   4.444
    3MOL    H50  599   2.685   1.896   4.439
    3MOL    O36  600   2.519   1.972   4.540
    3MOL    C65  601   2.425   2.082   4.552
    3MOL    H51  602   2.480   2.173   4.576
    3MOL    C66  603   2.334   2.050   4.672
    3MOL    H52  604   2.288   1.952   4.658
    3MOL    H53  605   2.256   2.127   4.679
    3MOL    O37  606   2.415   2.053   4.791
    3MOL    C67  607   2.349   2.008   4.910
    3MOL    C68  608   2.563   2.014   4.305
    3MOL    H54  609   2.513   1.923   4.272
    3MOL    O38  610   2.669   2.051   4.214
    3MOL    C69  611   2.671   1.976   4.092
    3MOL    C70  612   2.461   2.131   4.310
    3MOL    H55  613   2.513   2.221   4.339
    3MOL    O39  614   2.399   2.144   4.180
    3MOL    C71  615   2.388   2.279   4.135
    3MOL    C72  616   2.352   2.102   4.416
    3MOL    H56  617   2.297   2.012   4.390
    3MOL    O40  618   2.266   2.220   4.417
    3MOL    H57  619   1.767   2.370   4.891
    3MOL    H58  620   1.923   2.302   4.945
    3MOL    H59  621   1.903   2.479   4.928
    3MOL    H60  622   2.416   2.017   4.996
    3MOL    H61  623   2.259   2.068   4.930
    3MOL    H62  624   2.320   1.902   4.899
    3MOL    H63  625   2.649   2.400   5.015
    3MOL    H64  626   2.529   2.311   4.917
    3MOL    H65  627   2.644   2.222   5.021
    3MOL    H66  628   3.118   2.267   5.107
    3MOL    H67  629   3.017   2.413   5.096
    3MOL    H68  630   2.965   2.264   5.011
    3MOL    H69  631   3.424   2.915   4.991
    3MOL    H70  632   3.252   2.948   5.021
    3MOL    H71  633   3.307   2.781   4.985
    3MOL    H72  634   3.159   3.557   4.612
    3MOL    H73  635   3.077   3.506   4.763
    3MOL    H74  636   3.202   3.403   4.690
    3MOL    H75  637   2.799   3.159   4.935
    3MOL    H76  638   2.715   3.008   4.964
    3MOL    H77  639   2.830   3.022   4.826
    3MOL    H78  640   2.124   2.959   5.129
    3MOL    H79  641   2.225   2.814   5.111
    3MOL    H80  642   2.284   2.972   5.050
    3MOL    H81  643   1.892   3.160   4.337
    3MOL    H82  644   2.054   3.085   4.331
    3MOL    H83  645   1.909   2.989   4.289
    3MOL    H84  646   1.668   2.697   4.327
    3MOL    H85  647   1.724   2.598   4.464
    3MOL    H86  648   1.644   2.756   4.494
    3MOL    H87  649   1.909   2.635   4.120
    3MOL    H88  650   2.042   2.674   4.232
    3MOL    H89  651   2.064   2.548   4.107
    3MOL    H90  652   2.076   2.131   4.025
    3MOL    H91  653   2.121   2.050   4.178
    3MOL    H92  654   1.952   2.104   4.148
    3MOL    H93  655   2.353   2.280   4.031
    3MOL    H94  656   2.319   2.337   4.196
    3MOL    H95  657   2.486   2.329   4.140
    3MOL    H96  658   2.762   2.001   4.034
    3MOL    H97  659   2.671   1.869   4.113
    3MOL    H98  660   2.583   2.000   4.031
    3MOL    H99  661   2.949   1.817   4.231
    3MOL   H100  662   2.936   1.995   4.222
    3MOL   H101  663   3.084   1.919   4.284
    3MOL   H102  664   3.377   1.941   4.479
    3MOL   H103  665   3.345   2.045   4.620
    3MOL   H104  666   3.282   1.878   4.617
    3MOL   H105  667   3.402   2.142   4.343
    3MOL   H106  668   3.243   2.222   4.336
    3MOL   H107  669   3.390   2.313   4.295
    3MOL   H108  670   3.617   2.632   4.357
    3MOL   H109  671   3.558   2.713   4.503
    3MOL   H110  672   3.642   2.555   4.517
    3MOL   H111  673   3.435   2.741   4.161
    3MOL   H112  674   3.293   2.659   4.235
    3MOL   H113  675   3.274   2.816   4.156
    3MOL   H114  676   3.223   3.173   4.071
    3MOL   H115  677   3.166   3.249   4.221
    3MOL   H116  678   3.339   3.204   4.202
    3MOL   H117  679   2.976   2.998   4.051
    3MOL   H118  680   2.977   2.949   4.222
    3MOL   H119  681   2.826   2.946   4.131
    3MOL   H120  682   2.553   3.245   4.013
    3MOL   H121  683   2.582   3.396   4.103
    3MOL   H122  684   2.719   3.300   4.043
    3MOL   H123  685   2.330   3.501   4.296
    3MOL   H124  686   2.369   3.331   4.261
    3MOL   H125  687   2.208   3.375   4.325
    3MOL   H126  688   1.917   3.344   4.575
    3MOL   H127  689   1.970   3.229   4.699
    3MOL   H128  690   2.030   3.398   4.703
    4SOL     OW  691   0.224   0.627   0.105
    4SOL    HW1  692   0.166   0.587   0.170
    4SOL    HW2  693   0.246   0.555   0.045
    5SOL     OW  694   0.232   0.281   0.990
    5SOL    HW1  695   0.251   0.244   1.076
    5SOL    HW2  696   0.152   0.236   0.962
    6SOL     OW  697   0.002   0.406   0.661
    6SOL    HW1  698   5.209   0.427   0.668
    6SOL    HW2  699   0.003   0.315   0.631
    7SOL     OW  700   0.573   1.282   1.180
    7SOL    HW1  701   0.490   1.290   1.133
    7SOL    HW2  702   0.589   1.370   1.215
    8SOL     OW  703   1.559   1.512   0.707
    8SOL    HW1  704   1.516   1.492   0.790
    8SOL    HW2  705   1.488   1.515   0.643
    9SOL     OW  706   1.131   0.698   0.703
    9SOL    HW1  707   1.180   0.779   0.688
    9SOL    HW2  708   1.084   0.713   0.785
   10SOL     OW  709   1.770   0.600   0.232
   10SOL    HW1  710   1.729   0.603   0.146
   10SOL    HW2  711   1.729   0.526   0.276
   11SOL     OW  712   0.757   1.142   1.038
   11SOL    HW1  713   0.689   1.176   1.097
   11SOL    HW2  714   0.791   1.220   0.994
   12SOL     OW  715   0.863   0.779   1.821
   12SOL    HW1  716   0.856   0.851   1.884
   12SOL    HW2  717   0.888   0.822   1.739
   13SOL     OW  718   0.684   1.003   0.650
   13SOL    HW1  719   0.750   0.991   0.718
   13SOL    HW2  720   0.617   1.056   0.691
   14SOL     OW  721   0.709   1.151   1.812
   14SOL    HW1  722   0.757   1.229   1.837
   14SOL    HW2  723   0.626   1.184   1.776
   15SOL     OW  724   0.358   1.406   1.060
   15SOL    HW1  725   0.271   1.402   1.021
   15SOL    HW2  726   0.406   1.468   1.006
   16SOL     OW  727   1.461   1.499   1.353
   16SOL    HW1  728   1.510   1.581   1.363
   16SOL    HW2  729   1.401   1.497   1.428
   17SOL     OW  730   0.448   0.400   1.493
   17SOL    HW1  731   0.527   0.346   1.485
   17SOL    HW2  732   0.376   0.336   1.498
   18SOL     OW  733   1.611   0.452   0.737
   18SOL    HW1  734   1.533   0.474   0.687
   18SOL    HW2  735   1.630   0.530   0.790
   19SOL     OW  736   0.217   1.729   0.467
   19SOL    HW1  737   0.260   1.784   0.532
   19SOL    HW2  738   0.285   1.707   0.404
   20SOL     OW  739   1.136   1.341   1.692
   20SOL    HW1  740   1.177   1.337   1.779
   20SOL    HW2  741   1.084   1.262   1.686
   21SOL     OW  742   0.221   1.447   0.534
   21SOL    HW1  743   0.202   1.541   0.541
   21SOL    HW2  744   0.158   1.406   0.593
   22SOL     OW  745   0.252   1.079   0.878
   22SOL    HW1  746   0.259   0.993   0.920
   22SOL    HW2  747   0.198   1.130   0.939
   23SOL     OW  748   0.615   1.790   1.433
   23SOL    HW1  749   0.531   1.773   1.475
   23SOL    HW2  750   0.635   1.881   1.455
   24SOL     OW  751   0.624   0.960   0.136
   24SOL    HW1  752   0.580   1.039   0.106
   24SOL    HW2  753   0.678   0.988   0.209
   25SOL     OW  754   1.586   0.134   1.457
   25SOL    HW1  755   1.606   0.219   1.418
   25SOL    HW2  756   1.585   0.151   1.551
   26SOL     OW  757   0.128   0.639   0.581
   26SOL    HW1  758   0.092   0.555   0.608
   26SOL    HW2  759   0.097   0.701   0.648
   27SOL     OW  760   1.844   1.759   0.333
   27SOL    HW1  761   1.907   1.729   0.398
   27SOL    HW2  762   1.870   1.850   0.315
   28SOL     OW  763   0.032   1.586   0.105
   28SOL    HW1  764   0.024   1.500   0.146
   28SOL    HW2  765   0.005   1.648   0.173
   29SOL     OW  766   1.689   0.919   0.643
   29SOL    HW1  767   1.772   0.877   0.621
   29SOL    HW2  768   1.667   0.970   0.565
   30SOL     OW  769   1.646   1.105   0.434
   30SOL    HW1  770   1.726   1.120   0.384
   30SOL    HW2  771   1.651   1.167   0.507
   31SOL     OW  772   0.129   0.748   1.588
   31SOL    HW1  773   0.223   0.763   1.590
   31SOL    HW2  774   0.091   0.835   1.600
   32SOL     OW  775   0.615   1.385   0.734
   32SOL    HW1  776   0.567   1.302   0.745
   32SOL    HW2  777   0.597   1.411   0.644
   33SOL     OW  778   1.289   1.238   1.424
   33SOL    HW1  779   1.322   1.171   1.364
   33SOL    HW2  780   1.346   1.232   1.500
   34SOL     OW  781   0.814   0.025   0.526
   34SOL    HW1  782   0.843   0.112   0.498
   34SOL    HW2  783   0.719   0.028   0.519
   35SOL     OW  784   0.177   0.947   1.278
   35SOL    HW1  785   0.268   0.918   1.267
   35SOL    HW2  786   0.134   0.922   1.196
   36SOL     OW  787   1.511   1.006   0.211
   36SOL    HW1  788   1.450   0.940   0.243
   36SOL    HW2  789   1.563   1.030   0.288
   37SOL     OW  790   1.186   1.805   1.622
   37SOL    HW1  791   1.197   1.864   1.547
   37SOL    HW2  792   1.201   1.718   1.586
   38SOL     OW  793   0.326   0.274   1.797
   38SOL    HW1  794   0.386   0.336   1.838
   38SOL    HW2  795   0.245   0.281   1.848
   39SOL     OW  796   1.466   1.419   0.952
   39SOL    HW1  797   1.398   1.434   1.017
   39SOL    HW2  798   1.454   1.328   0.925
   40SOL     OW  799   1.660   1.738   0.581
   40SOL    HW1  800   1.638   1.710   0.492
   40SOL    HW2  801   1.634   1.664   0.636
   41SOL     OW  802   0.595   0.714   0.279
   41SOL    HW1  803   0.617   0.793   0.229
   41SOL    HW2  804   0.535   0.744   0.346
   42SOL     OW  805   1.278   0.346   0.931
   42SOL    HW1  806   1.187   0.317   0.943
   42SOL    HW2  807   1.328   0.296   0.996
   43SOL     OW  808   1.586   1.671   0.319
   43SOL    HW1  809   1.677   1.701   0.312
   43SOL    HW2  810   1.560   1.653   0.228
   44SOL     OW  811   0.794   0.617   1.452
   44SOL    HW1  812   0.766   0.596   1.541
   44SOL    HW2  813   0.751   0.552   1.397
   45SOL     OW  814   1.395   0.475   1.678
   45SOL    HW1  815   1.396   0.519   1.763
   45SOL    HW2  816   1.458   0.404   1.687
   46SOL     OW  817   0.956   0.888   1.582
   46SOL    HW1  818   1.010   0.817   1.547
   46SOL    HW2  819   0.908   0.921   1.506
   47SOL     OW  820   0.994   0.417   1.236
   47SOL    HW1  821   0.909   0.438   1.275
   47SOL    HW2  822   0.971   0.367   1.157
   48SOL     OW  823   1.051   0.699   0.428
   48SOL    HW1  824   1.067   0.691   0.522
   48SOL    HW2  825   0.969   0.652   0.412
   49SOL     OW  826   0.068   0.789   0.817
   49SOL    HW1  827   0.153   0.793   0.862
   49SOL    HW2  828   0.064   0.871   0.768
   50SOL     OW  829   0.131   1.882   1.584
   50SOL    HW1  830   0.133   1.850   1.674
   50SOL    HW2  831   0.058   1.835   1.544
   51SOL     OW  832   0.885   0.359   0.202
   51SOL    HW1  833   0.930   0.405   0.131
   51SOL    HW2  834   0.868   0.272   0.166
   52SOL     OW  835   1.708   0.575   1.828
   52SOL    HW1  836   1.671   0.650   1.780
   52SOL    HW2  837   1.737   0.515   1.760
   53SOL     OW  838   1.376   1.142   0.542
   53SOL    HW1  839   1.454   1.128   0.488
   53SOL    HW2  840   1.323   1.204   0.492
   54SOL     OW  841   0.538   0.200   0.885
   54SOL    HW1  842   0.554   0.220   0.977
   54SOL    HW2  843   0.549   0.284   0.840
   55SOL     OW  844   1.006   1.445   0.473
   55SOL    HW1  845   0.967   1.517   0.424
   55SOL    HW2  846   0.988   1.467   0.565
   56SOL     OW  847   0.357   1.801   0.867
   56SOL    HW1  848   0.398   1.716   0.881
   56SOL    HW2  849   0.423   1.864   0.897
   57SOL     OW  850   1.799   1.058   0.868
   57SOL    HW1  851   1.744   1.040   0.792
   57SOL    HW2  852   1.738   1.064   0.941
   58SOL     OW  853   1.228   1.539   1.513
   58SOL    HW1  854   1.214   1.466   1.573
   58SOL    HW2  855   1.165   1.524   1.442
   59SOL     OW  856   0.327   0.948   0.246
   59SOL    HW1  857   0.408   0.967   0.200
   59SOL    HW2  858   0.319   0.853   0.243
   60SOL     OW  859   1.477   0.742   0.727
   60SOL    HW1  860   1.468   0.697   0.811
   60SOL    HW2  861   1.555   0.797   0.738
   61SOL     OW  862   0.464   1.263   1.737
   61SOL    HW1  863   0.437   1.269   1.646
   61SOL    HW2  864   0.382   1.264   1.787
   62SOL     OW  865   1.108   1.781   0.224
   62SOL    HW1  866   1.052   1.740   0.291
   62SOL    HW2  867   1.128   1.710   0.164
   63SOL     OW  868   0.197   0.278   1.492
   63SOL    HW1  869   0.157   0.365   1.489
   63SOL    HW2  870   0.206   0.259   1.585
   64SOL     OW  871   1.633   1.373   0.082
   64SOL    HW1  872   1.592   1.460   0.081
   64SOL    HW2  873   1.562   1.312   0.064
   65SOL     OW  874   0.470   1.734   0.325
   65SOL    HW1  875   0.512   1.795   0.386
   65SOL    HW2  876   0.540   1.709   0.265
   66SOL     OW  877   1.414   0.100   0.445
   66SOL    HW1  878   1.404   0.079   0.352
   66SOL    HW2  879   1.505   0.127   0.454
   67SOL     OW  880   0.276   1.801   1.215
   67SOL    HW1  881   0.306   1.725   1.264
   67SOL    HW2  882   0.225   1.764   1.143
   68SOL     OW  883   0.938   1.698   0.899
   68SOL    HW1  884   1.016   1.646   0.920
   68SOL    HW2  885   0.893   1.649   0.831
   69SOL     OW  886   0.380   0.698   0.475
   69SOL    HW1  887   0.413   0.609   0.485
   69SOL    HW2  888   0.289   0.693   0.503
   70SOL     OW  889   1.540   0.228   1.724
   70SOL    HW1  890   1.547   0.246   1.818
   70SOL    HW2  891   1.465   0.169   1.716
   71SOL     OW  892   0.625   0.137   0.122
   71SOL    HW1  893   0.715   0.108   0.135
   71SOL    HW2  894   0.597   0.097   0.040
   72SOL     OW  895   0.783   0.313   1.766
   72SOL    HW1  896   0.841   0.237   1.767
   72SOL    HW2  897   0.734   0.307   1.848
   73SOL     OW  898   0.877   1.521   1.193
   73SOL    HW1  899   0.861   1.485   1.106
   73SOL    HW2  900   0.947   1.467   1.230
   74SOL     OW  901   1.341   0.589   1.432
   74SOL    HW1  902   1.372   0.557   1.517
   74SOL    HW2  903   1.377   0.677   1.425
   75SOL     OW  904   0.815   1.395   0.938
   75SOL    HW1  905   0.899   1.385   0.894
   75SOL    HW2  906   0.750   1.396   0.868
   76SOL     OW  907   0.927   0.510   0.903
   76SOL    HW1  908   0.904   0.502   0.810
   76SOL    HW2  909   0.959   0.423   0.928
   77SOL     OW  910   0.548   0.059   0.507
   77SOL    HW1  911   0.468   0.059   0.560
   77SOL    HW2  912   0.536   0.130   0.444
   78SOL     OW  913   1.434   1.199   0.036
   78SOL    HW1  914   1.458   1.125   0.092
   78SOL    HW2  915   1.345   1.223   0.066
   79SOL     OW  916   0.315   0.070   0.198
   79SOL    HW1  917   0.376   0.139   0.170
   79SOL    HW2  918   0.366   5.289   0.194
   80SOL     OW  919   0.944   0.256   0.455
   80SOL    HW1  920   0.917   0.302   0.376
   80SOL    HW2  921   1.037   0.279   0.464
   81SOL     OW  922   1.080   0.680   1.460
   81SOL    HW1  923   1.011   0.615   1.465
   81SOL    HW2  924   1.161   0.630   1.453
   82SOL     OW  925   1.224   1.569   0.794
   82SOL    HW1  926   1.240   1.637   0.728
   82SOL    HW2  927   1.292   1.583   0.860
   83SOL     OW  928   0.467   1.150   0.733
   83SOL    HW1  929   0.398   1.130   0.796
   83SOL    HW2  930   0.427   1.133   0.648
   84SOL     OW  931   1.269   1.794   0.606
   84SOL    HW1  932   1.317   1.857   0.553
   84SOL    HW2  933   1.203   1.847   0.651
   85SOL     OW  934   1.031   0.530   0.030
   85SOL    HW1  935   0.990   0.612   0.001
   85SOL    HW2  936   1.093   0.557   0.097
   86SOL     OW  937   0.097   0.532   1.410
   86SOL    HW1  938   0.177   0.551   1.363
   86SOL    HW2  939   0.077   0.613   1.457
   87SOL     OW  940   0.560   0.239   1.158
   87SOL    HW1  941   0.591   0.152   1.183
   87SOL    HW2  942   0.467   0.240   1.182
   88SOL     OW  943   0.869   0.461   0.639
   88SOL    HW1  944   0.824   0.514   0.574
   88SOL    HW2  945   0.889   0.379   0.595
   89SOL     OW  946   0.978   0.061   0.762
   89SOL    HW1  947   0.914   0.055   0.691
   89SOL    HW2  948   0.986   5.271   0.794
   90SOL     OW  949   1.436   1.163   0.857
   90SOL    HW1  950   1.368   1.096   0.856
   90SOL    HW2  951   1.460   1.175   0.765
   91SOL     OW  952   1.467   0.605   0.979
   91SOL    HW1  953   1.418   0.522   0.982
   91SOL    HW2  954   1.527   0.600   1.053
   92SOL     OW  955   1.848   0.816   0.387
   92SOL    HW1  956   1.900   0.763   0.448
   92SOL    HW2  957   1.817   0.754   0.321
   93SOL     OW  958   0.483   1.439   0.173
   93SOL    HW1  959   0.411   1.399   0.221
   93SOL    HW2  960   0.486   1.392   0.090
   94SOL     OW  961   1.670   1.266   0.648
   94SOL    HW1  962   1.765   1.270   0.661
   94SOL    HW2  963   1.639   1.354   0.669
   95SOL     OW  964   1.398   0.580   0.087
   95SOL    HW1  965   1.336   0.560   0.156
   95SOL    HW2  966   1.456   0.503   0.083
   96SOL     OW  967   0.523   0.268   0.328
   96SOL    HW1  968   0.565   0.212   0.262
   96SOL    HW2  969   0.508   0.351   0.282
   97SOL     OW  970   1.753   1.238   1.574
   97SOL    HW1  971   1.840   1.199   1.571
   97SOL    HW2  972   1.768   1.328   1.603
   98SOL     OW  973   1.059   1.353   1.334
   98SOL    HW1  974   0.984   1.322   1.385
   98SOL    HW2  975   1.135   1.312   1.375
   99SOL     OW  976   1.607   1.625   1.653
   99SOL    HW1  977   1.602   1.659   1.564
   99SOL    HW2  978   1.690   1.578   1.656
  100SOL     OW  979   1.128   1.203   1.106
  100SOL    HW1  980   1.069   1.241   1.171
  100SOL    HW2  981   1.094   1.234   1.022
  101SOL     OW  982   1.629   1.099   1.078
  101SOL    HW1  983   1.625   1.161   1.151
  101SOL    HW2  984   1.550   1.115   1.027
  102SOL     OW  985   0.906   0.106   1.391
  102SOL    HW1  986   0.936   0.072   1.307
  102SOL    HW2  987   0.983   0.148   1.429
  103SOL     OW  988   0.984   1.115   1.722
  103SOL    HW1  989   0.892   1.130   1.742
  103SOL    HW2  990   0.984   1.037   1.666
  104SOL     OW  991   0.713   1.061   0.380
  104SOL    HW1  992   0.697   1.045   0.473
  104SOL    HW2  993   0.791   1.010   0.360
  105SOL     OW  994   0.420   0.819   1.252
  105SOL    HW1  995   0.489   0.825   1.318
  105SOL    HW2  996   0.385   0.731   1.262
  106SOL     OW  997   1.267   0.379   1.272
  106SOL    HW1  998   1.300   0.456   1.319
  106SOL    HW2  999   1.177   0.401   1.249
  107SOL     OW 1000   0.101   1.623   1.367
  107SOL    HW1 1001   0.078   1.632   1.275
  107SOL    HW2 1002   0.187   1.581   1.367
  108SOL     OW 1003   0.346   1.107   0.488
  108SOL    HW1 1004   0.347   1.186   0.435
  108SOL    HW2 1005   0.362   1.036   0.427
  109SOL     OW 1006   0.556   0.538   0.860
  109SOL    HW1 1007   0.572   0.596   0.786
  109SOL    HW2 1008   0.621   0.565   0.926
  110SOL     OW 1009   1.247   1.347   0.393
  110SOL    HW1 1010   1.303   1.420   0.422
  110SOL    HW2 1011   1.160   1.370   0.425
  111SOL     OW 1012   1.280   1.457   1.146
  111SOL    HW1 1013   1.335   1.459   1.224
  111SOL    HW2 1014   1.224   1.380   1.158
  112SOL     OW 1015   1.583   0.626   0.480
  112SOL    HW1 1016   1.534   0.676   0.545
  112SOL    HW2 1017   1.619   0.692   0.420
  113SOL     OW 1018   0.351   1.519   1.311
  113SOL    HW1 1019   0.342   1.476   1.227
  113SOL    HW2 1020   0.445   1.537   1.318
  114SOL     OW 1021   0.414   0.741   1.602
  114SOL    HW1 1022   0.472   0.790   1.544
  114SOL    HW2 1023   0.459   0.658   1.618
  115SOL     OW 1024   1.600   0.778   1.681
  115SOL    HW1 1025   1.514   0.819   1.674
  115SOL    HW2 1026   1.652   0.820   1.613
  116SOL     OW 1027   1.041   0.116   1.782
  116SOL    HW1 1028   1.067   0.195   1.734
  116SOL    HW2 1029   1.049   0.045   1.717
  117SOL     OW 1030   0.483   0.058   1.738
  117SOL    HW1 1031   0.428   5.290   1.698
  117SOL    HW2 1032   0.422   0.130   1.756
  118SOL     OW 1033   0.586   0.873   1.032
  118SOL    HW1 1034   0.616   0.964   1.030
  118SOL    HW2 1035   0.528   0.869   1.109
  119SOL     OW 1036   1.359   0.859   1.031
  119SOL    HW1 1037   1.277   0.851   0.983
  119SOL    HW2 1038   1.398   0.772   1.026
  120SOL     OW 1039   1.204   0.527   0.270
  120SOL    HW1 1040   1.211   0.447   0.322
  120SOL    HW2 1041   1.162   0.590   0.329
  121SOL     OW 1042   0.304   0.206   1.245
  121SOL    HW1 1043   0.264   0.236   1.326
  121SOL    HW2 1044   0.298   0.111   1.249
  122SOL     OW 1045   0.070   1.319   1.281
  122SOL    HW1 1046   0.090   1.259   1.353
  122SOL    HW2 1047   0.002   1.377   1.316
  123SOL     OW 1048   0.727   0.633   1.061
  123SOL    HW1 1049   0.800   0.615   1.001
  123SOL    HW2 1050   0.698   0.721   1.038
  124SOL     OW 1051   1.734   0.959   1.852
  124SOL    HW1 1052   1.687   0.899   1.793
  124SOL    HW2 1053   1.674   0.972   1.925
  125SOL     OW 1054   0.318   0.066   0.653
  125SOL    HW1 1055   0.299   0.160   0.662
  125SOL    HW2 1056   0.318   0.033   0.742
  126SOL     OW 1057   1.619   0.377   0.368
  126SOL    HW1 1058   1.647   0.311   0.432
  126SOL    HW2 1059   1.594   0.453   0.421
  127SOL     OW 1060   1.027   0.760   0.961
  127SOL    HW1 1061   1.025   0.777   1.055
  127SOL    HW2 1062   1.001   0.668   0.953
  128SOL     OW 1063   0.982   1.566   1.716
  128SOL    HW1 1064   0.967   1.610   1.633
  128SOL    HW2 1065   1.026   1.484   1.692
  129SOL     OW 1066   1.855   1.507   1.606
  129SOL    HW1 1067   1.873   1.533   1.515
  129SOL    HW2 1068   1.936   1.526   1.653
  130SOL     OW 1069   0.353   0.917   1.807
  130SOL    HW1 1070   0.434   0.937   1.853
  130SOL    HW2 1071   0.379   0.853   1.740
  131SOL     OW 1072   1.523   0.299   0.126
  131SOL    HW1 1073   1.483   0.213   0.142
  131SOL    HW2 1074   1.562   0.324   0.210
  132SOL     OW 1075   1.294   0.825   0.022
  132SOL    HW1 1076   1.333   0.739   0.040
  132SOL    HW2 1077   1.353   0.865   8.038
  133SOL     OW 1078   1.065   1.335   0.853
  133SOL    HW1 1079   1.068   1.263   0.791
  133SOL    HW2 1080   1.127   1.399   0.819
  134SOL     OW 1081   0.315   0.810   0.950
  134SOL    HW1 1082   0.409   0.828   0.945
  134SOL    HW2 1083   0.309   0.720   0.981
  135SOL     OW 1084   0.337   0.526   1.015
  135SOL    HW1 1085   0.299   0.439   0.998
  135SOL    HW2 1086   0.412   0.531   0.955
  136SOL     OW 1087   1.136   0.378   1.687
  136SOL    HW1 1088   1.088   0.433   1.750
  136SOL    HW2 1089   1.223   0.417   1.683
  137SOL     OW 1090   1.134   0.223   1.465
  137SOL    HW1 1091   1.139   0.281   1.541
  137SOL    HW2 1092   1.189   0.264   1.399
  138SOL     OW 1093   0.008   1.330   0.202
  138SOL    HW1 1094   5.232   1.320   0.145
  138SOL    HW2 1095   0.014   1.247   0.249
  139SOL     OW 1096   0.092   1.783   0.948
  139SOL    HW1 1097   0.058   1.710   0.895
  139SOL    HW2 1098   0.180   1.798   0.914
  140SOL     OW 1099   0.505   1.573   0.907
  140SOL    HW1 1100   0.573   1.638   0.928
  140SOL    HW2 1101   0.548   1.511   0.848
  141SOL     OW 1102   0.985   0.793   1.227
  141SOL    HW1 1103   1.040   0.769   1.302
  141SOL    HW2 1104   0.899   0.756   1.247
  142SOL     OW 1105   0.036   0.565   1.118
  142SOL    HW1 1106   0.117   0.533   1.079
  142SOL    HW2 1107   0.039   0.534   1.209
  143SOL     OW 1108   0.168   0.514   1.714
  143SOL    HW1 1109   0.252   0.494   1.671
  143SOL    HW2 1110   0.137   0.593   1.671
  144SOL     OW 1111   1.376   0.940   1.659
  144SOL    HW1 1112   1.398   1.033   1.657
  144SOL    HW2 1113   1.374   0.914   1.567
  145SOL     OW 1114   0.818   0.571   0.364
  145SOL    HW1 1115   0.827   0.498   0.302
  145SOL    HW2 1116   0.740   0.618   0.333
  146SOL     OW 1117   1.643   0.602   1.187
  146SOL    HW1 1118   1.631   0.542   1.261
  146SOL    HW2 1119   1.730   0.581   1.153
  147SOL     OW 1120   0.257   1.556   1.735
  147SOL    HW1 1121   0.233   1.619   1.804
  147SOL    HW2 1122   0.249   1.470   1.777
  148SOL     OW 1123   0.695   0.454   1.263
  148SOL    HW1 1124   0.647   0.379   1.228
  148SOL    HW2 1125   0.696   0.517   1.191
  149SOL     OW 1126   0.929   1.679   1.467
  149SOL    HW1 1127   0.902   1.646   1.381
  149SOL    HW2 1128   0.925   1.774   1.458
  150SOL     OW 1129   0.469   0.491   0.176
  150SOL    HW1 1130   0.535   0.557   0.195
  150SOL    HW2 1131   0.386   0.534   0.195
  151SOL     OW 1132   0.148   1.138   1.471
  151SOL    HW1 1133   0.147   1.088   1.553
  151SOL    HW2 1134   0.161   1.071   1.403
  152SOL     OW 1135   1.327   1.048   1.224
  152SOL    HW1 1136   1.350   0.984   1.156
  152SOL    HW2 1137   1.256   1.099   1.185
  153SOL     OW 1138   1.306   0.849   0.308
  153SOL    HW1 1139   1.228   0.820   0.357
  153SOL    HW2 1140   1.282   0.838   0.216
  154SOL     OW 1141   1.770   1.745   1.149
  154SOL    HW1 1142   1.831   1.771   1.080
  154SOL    HW2 1143   1.746   1.655   1.129
  155SOL     OW 1144   1.241   1.733   1.114
  155SOL    HW1 1145   1.323   1.753   1.069
  155SOL    HW2 1146   1.246   1.639   1.132
  156SOL     OW 1147   0.083   1.219   1.027
  156SOL    HW1 1148   0.069   1.244   1.119
  156SOL    HW2 1149   5.295   1.207   0.992
  157SOL     OW 1150   0.678   1.665   1.728
  157SOL    HW1 1151   0.623   1.744   1.723
  157SOL    HW2 1152   0.741   1.676   1.657
  158SOL     OW 1153   0.894   0.086   0.139
  158SOL    HW1 1154   0.942   0.078   0.057
  158SOL    HW2 1155   0.913   0.006   0.187
  159SOL     OW 1156   1.713   0.148   0.505
  159SOL    HW1 1157   1.787   0.126   0.449
  159SOL    HW2 1158   1.704   0.072   0.563
  160SOL     OW 1159   1.389   1.568   0.485
  160SOL    HW1 1160   1.453   1.601   0.421
  160SOL    HW2 1161   1.342   1.646   0.514
  161SOL     OW 1162   0.144   1.798   1.843
  161SOL    HW1 1163   0.089   1.735   1.889
  161SOL    HW2 1164   0.189   1.846   1.912
  162SOL     OW 1165   1.277   0.925   0.671
  162SOL    HW1 1166   1.350   0.864   0.677
  162SOL    HW2 1167   1.310   0.998   0.619
  163SOL     OW 1168   0.816   1.273   1.431
  163SOL    HW1 1169   0.788   1.312   1.513
  163SOL    HW2 1170   0.746   1.294   1.369
  164SOL     OW 1171   0.678   1.619   0.155
  164SOL    HW1 1172   0.681   1.626   0.060
  164SOL    HW2 1173   0.617   1.547   0.172
  165SOL     OW 1174   1.628   1.726   1.391
  165SOL    HW1 1175   1.677   1.734   1.310
  165SOL    HW2 1176   1.615   1.817   1.419
  166SOL     OW 1177   1.845   0.158   0.958
  166SOL    HW1 1178   1.846   0.063   0.941
  166SOL    HW2 1179   1.758   0.186   0.930
  167SOL     OW 1180   0.271   0.329   0.719
  167SOL    HW1 1181   0.184   0.366   0.701
  167SOL    HW2 1182   0.271   0.313   0.813
  168SOL     OW 1183   1.156   1.582   0.051
  168SOL    HW1 1184   1.173   1.489   0.070
  168SOL    HW2 1185   1.166   1.589   8.036
  169SOL     OW 1186   0.824   1.006   1.372
  169SOL    HW1 1187   0.868   1.001   1.287
  169SOL    HW2 1188   0.824   1.099   1.395
  170SOL     OW 1189   0.917   0.913   0.296
  170SOL    HW1 1190   0.972   0.938   0.222
  170SOL    HW2 1191   0.965   0.841   0.338
  171SOL     OW 1192   1.510   1.624   0.060
  171SOL    HW1 1193   1.415   1.625   0.050
  171SOL    HW2 1194   1.544   1.624   8.051
  172SOL     OW 1195   0.368   1.303   1.493
  172SOL    HW1 1196   0.359   1.378   1.434
  172SOL    HW2 1197   0.292   1.249   1.474
  173SOL     OW 1198   1.611   1.283   1.281
  173SOL    HW1 1199   1.671   1.273   1.355
  173SOL    HW2 1200   1.551   1.352   1.307
  174SOL     OW 1201   1.050   1.106   0.706
  174SOL    HW1 1202   0.980   1.055   0.746
  174SOL    HW2 1203   1.112   1.041   0.673
  175SOL     OW 1204   1.020   0.242   0.968
  175SOL    HW1 1205   1.000   0.197   0.886
  175SOL    HW2 1206   1.012   0.175   1.035
  176SOL     OW 1207   0.602   1.487   0.480
  176SOL    HW1 1208   0.644   1.438   0.410
  176SOL    HW2 1209   0.535   1.540   0.436
  177SOL     OW 1210   1.723   0.387   1.378
  177SOL    HW1 1211   1.793   0.452   1.378
  177SOL    HW2 1212   1.755   0.317   1.321
  178SOL     OW 1213   0.268   1.326   0.299
  178SOL    HW1 1214   0.182   1.337   0.258
  178SOL    HW2 1215   0.261   1.372   0.383
  179SOL     OW 1216   0.115   1.016   1.718
  179SOL    HW1 1217   0.044   0.982   1.772
  179SOL    HW2 1218   0.195   0.985   1.762
  180SOL     OW 1219   0.673   0.213   1.488
  180SOL    HW1 1220   0.757   0.196   1.445
  180SOL    HW2 1221   0.697   0.259   1.569
  181SOL     OW 1222   0.087   0.354   0.008
  181SOL    HW1 1223   0.002   0.320   0.034
  181SOL    HW2 1224   0.068   0.438   8.047
  182SOL     OW 1225   1.431   0.858   1.401
  182SOL    HW1 1226   1.382   0.919   1.345
  182SOL    HW2 1227   1.520   0.861   1.367
  183SOL     OW 1228   0.079   0.140   0.291
  183SOL    HW1 1229   0.077   0.235   0.280
  183SOL    HW2 1230   0.168   0.115   0.266
  184SOL     OW 1231   1.185   1.319   0.122
  184SOL    HW1 1232   1.089   1.308   0.122
  184SOL    HW2 1233   1.209   1.321   0.214
  185SOL     OW 1234   0.619   0.831   1.435
  185SOL    HW1 1235   0.674   0.907   1.419
  185SOL    HW2 1236   0.681   0.758   1.443
  186SOL     OW 1237   1.484   1.775   0.977
  186SOL    HW1 1238   1.509   1.834   0.906
  186SOL    HW2 1239   1.566   1.758   1.023
  187SOL     OW 1240   0.714   0.572   1.704
  187SOL    HW1 1241   0.755   0.636   1.763
  187SOL    HW2 1242   0.747   0.488   1.734
  188SOL     OW 1243   1.471   1.201   1.632
  188SOL    HW1 1244   1.458   1.215   1.726
  188SOL    HW2 1245   1.564   1.215   1.618
  189SOL     OW 1246   0.379   1.742   1.564
  189SOL    HW1 1247   0.296   1.787   1.549
  189SOL    HW2 1248   0.354   1.661   1.609
  190SOL     OW 1249   1.670   0.882   1.255
  190SOL    HW1 1250   1.663   0.796   1.213
  190SOL    HW2 1251   1.661   0.945   1.184
  191SOL     OW 1252   1.216   0.328   0.473
  191SOL    HW1 1253   1.275   0.254   0.457
  191SOL    HW2 1254   1.256   0.374   0.547
  192SOL     OW 1255   0.590   0.738   0.668
  192SOL    HW1 1256   0.629   0.824   0.653
  192SOL    HW2 1257   0.519   0.732   0.604
  193SOL     OW 1258   1.767   0.361   1.648
  193SOL    HW1 1259   1.747   0.375   1.556
  193SOL    HW2 1260   1.696   0.305   1.680
  194SOL     OW 1261   1.744   0.934   1.512
  194SOL    HW1 1262   1.743   1.028   1.525
  194SOL    HW2 1263   1.729   0.922   1.418
  195SOL     OW 1264   0.892   1.372   0.033
  195SOL    HW1 1265   0.829   1.365   0.105
  195SOL    HW2 1266   0.879   1.461   8.079
  196SOL     OW 1267   0.662   1.794   0.945
  196SOL    HW1 1268   0.641   1.885   0.922
  196SOL    HW2 1269   0.758   1.790   0.938
  197SOL     OW 1270   0.867   0.966   0.855
  197SOL    HW1 1271   0.917   0.895   0.895
  197SOL    HW2 1272   0.833   1.016   0.929
  198SOL     OW 1273   1.076   0.977   0.085
  198SOL    HW1 1274   1.067   1.041   0.014
  198SOL    HW2 1275   1.154   0.927   0.063
  199SOL     OW 1276   1.855   1.555   0.845
  199SOL    HW1 1277   1.777   1.544   0.790
  199SOL    HW2 1278   1.847   1.488   0.913
  200SOL     OW 1279   0.224   1.305   1.859
  200SOL    HW1 1280   0.156   1.243   1.834
  200SOL    HW2 1281   0.213   1.316   1.954
  201SOL     OW 1282   0.092   1.232   0.659
  201SOL    HW1 1283   0.097   1.188   0.744
  201SOL    HW2 1284   0.170   1.202   0.612
  202SOL     OW 1285   0.681   1.401   1.628
  202SOL    HW1 1286   0.600   1.359   1.657
  202SOL    HW2 1287   0.676   1.490   1.664
  203SOL     OW 1288   1.816   0.178   1.233
  203SOL    HW1 1289   1.784   0.089   1.241
  203SOL    HW2 1290   1.832   0.190   1.140
  204SOL     OW 1291   0.430   0.439   0.521
  204SOL    HW1 1292   0.464   0.366   0.470
  204SOL    HW2 1293   0.386   0.398   0.596
  205SOL     OW 1294   1.701   1.490   1.098
  205SOL    HW1 1295   1.620   1.466   1.053
  205SOL    HW2 1296   1.713   1.421   1.163
  206SOL     OW 1297   0.335   0.559   1.288
  206SOL    HW1 1298   0.392   0.502   1.339
  206SOL    HW2 1299   0.349   0.533   1.198
  207SOL     OW 1300   0.827   1.577   0.678
  207SOL    HW1 1301   0.816   1.629   0.599
  207SOL    HW2 1302   0.750   1.521   0.681
  208SOL     OW 1303   1.428   0.218   1.117
  208SOL    HW1 1304   1.465   0.143   1.164
  208SOL    HW2 1305   1.380   0.267   1.183
  209SOL     OW 1306   1.001   0.021   1.142
  209SOL    HW1 1307   0.951   5.253   1.098
  209SOL    HW2 1308   1.088   5.284   1.154
  210SOL     OW 1309   0.770   1.327   0.307
  210SOL    HW1 1310   0.739   1.238   0.322
  210SOL    HW2 1311   0.852   1.332   0.357
  211SOL     OW 1312   0.622   1.557   1.287
  211SOL    HW1 1313   0.624   1.639   1.336
  211SOL    HW2 1314   0.709   1.551   1.247
  212SOL     OW 1315   1.392   0.042   0.170
  212SOL    HW1 1316   1.386   0.027   0.076
  212SOL    HW2 1317   1.304   0.067   0.196
  213SOL     OW 1318   1.308   0.467   0.690
  213SOL    HW1 1319   1.249   0.542   0.693
  213SOL    HW2 1320   1.297   0.424   0.775
  214SOL     OW 1321   1.595   0.216   0.882
  214SOL    HW1 1322   1.527   0.227   0.948
  214SOL    HW2 1323   1.587   0.294   0.827
  215SOL     OW 1324   0.045   1.076   0.311
  215SOL    HW1 1325   0.134   1.049   0.290
  215SOL    HW2 1326   5.298   0.993   0.322
  216SOL     OW 1327   0.882   1.652   0.347
  216SOL    HW1 1328   0.814   1.636   0.282
  216SOL    HW2 1329   0.851   1.728   0.396
  217SOL     OW 1330   0.233   0.633   1.978
  217SOL    HW1 1331   0.156   0.608   2.029
  217SOL    HW2 1332   0.216   0.600   1.890
  218SOL     OW 1333   0.232   0.280   2.852
  218SOL    HW1 1334   0.252   0.244   2.938
  218SOL    HW2 1335   0.152   0.236   2.824
  219SOL     OW 1336   0.000   0.406   2.525
  219SOL    HW1 1337   5.207   0.427   2.530
  219SOL    HW2 1338   0.003   0.315   2.494
  220SOL     OW 1339   0.573   1.282   3.042
  220SOL    HW1 1340   0.490   1.291   2.995
  220SOL    HW2 1341   0.590   1.370   3.077
  221SOL     OW 1342   1.560   1.512   2.568
  221SOL    HW1 1343   1.517   1.493   2.652
  221SOL    HW2 1344   1.488   1.516   2.505
  222SOL     OW 1345   1.130   0.698   2.564
  222SOL    HW1 1346   1.180   0.779   2.550
  222SOL    HW2 1347   1.083   0.713   2.646
  223SOL     OW 1348   1.766   0.607   2.091
  223SOL    HW1 1349   1.746   0.598   1.998
  223SOL    HW2 1350   1.731   0.526   2.130
  224SOL     OW 1351   0.756   1.142   2.900
  224SOL    HW1 1352   0.689   1.176   2.959
  224SOL    HW2 1353   0.791   1.220   2.856
  225SOL     OW 1354   0.863   0.779   3.683
  225SOL    HW1 1355   0.856   0.851   3.746
  225SOL    HW2 1356   0.888   0.822   3.601
  226SOL     OW 1357   0.686   1.004   2.510
  226SOL    HW1 1358   0.751   0.991   2.578
  226SOL    HW2 1359   0.617   1.056   2.552
  227SOL     OW 1360   0.709   1.151   3.674
  227SOL    HW1 1361   0.757   1.229   3.699
  227SOL    HW2 1362   0.626   1.184   3.638
  228SOL     OW 1363   0.358   1.405   2.921
  228SOL    HW1 1364   0.270   1.405   2.884
  228SOL    HW2 1365   0.407   1.468   2.868
  229SOL     OW 1366   1.461   1.499   3.215
  229SOL    HW1 1367   1.510   1.581   3.223
  229SOL    HW2 1368   1.402   1.499   3.290
  230SOL     OW 1369   0.448   0.400   3.354
  230SOL    HW1 1370   0.527   0.346   3.347
  230SOL    HW2 1371   0.376   0.336   3.360
  231SOL     OW 1372   1.611   0.452   2.600
  231SOL    HW1 1373   1.535   0.476   2.547
  231SOL    HW2 1374   1.631   0.530   2.651
  232SOL     OW 1375   0.230   1.714   2.339
  232SOL    HW1 1376   0.265   1.783   2.397
  232SOL    HW2 1377   0.292   1.711   2.266
  233SOL     OW 1378   1.136   1.341   3.554
  233SOL    HW1 1379   1.177   1.337   3.641
  233SOL    HW2 1380   1.084   1.261   3.548
  234SOL     OW 1381   0.222   1.443   2.401
  234SOL    HW1 1382   0.214   1.539   2.399
  234SOL    HW2 1383   0.153   1.414   2.460
  235SOL     OW 1384   0.249   1.078   2.738
  235SOL    HW1 1385   0.260   0.994   2.781
  235SOL    HW2 1386   0.197   1.130   2.800
  236SOL     OW 1387   0.615   1.790   3.295
  236SOL    HW1 1388   0.531   1.773   3.337
  236SOL    HW2 1389   0.636   1.881   3.317
  237SOL     OW 1390   0.584   0.983   1.996
  237SOL    HW1 1391   0.630   1.031   1.927
  237SOL    HW2 1392   0.626   1.011   2.077
  238SOL     OW 1393   1.586   0.134   3.319
  238SOL    HW1 1394   1.606   0.219   3.280
  238SOL    HW2 1395   1.585   0.151   3.413
  239SOL     OW 1396   0.124   0.637   2.439
  239SOL    HW1 1397   0.090   0.554   2.471
  239SOL    HW2 1398   0.098   0.701   2.505
  240SOL     OW 1399   1.842   1.760   2.198
  240SOL    HW1 1400   1.904   1.731   2.264
  240SOL    HW2 1401   1.868   1.850   2.178
  241SOL     OW 1402   0.037   1.599   1.993
  241SOL    HW1 1403   0.024   1.507   2.018
  241SOL    HW2 1404   5.284   1.648   2.054
  242SOL     OW 1405   1.689   0.918   2.502
  242SOL    HW1 1406   1.773   0.877   2.481
  242SOL    HW2 1407   1.668   0.969   2.423
  243SOL     OW 1408   1.645   1.107   2.292
  243SOL    HW1 1409   1.731   1.114   2.249
  243SOL    HW2 1410   1.651   1.168   2.365
  244SOL     OW 1411   0.129   0.748   3.450
  244SOL    HW1 1412   0.224   0.763   3.452
  244SOL    HW2 1413   0.091   0.835   3.462
  245SOL     OW 1414   0.615   1.384   2.597
  245SOL    HW1 1415   0.567   1.302   2.607
  245SOL    HW2 1416   0.597   1.411   2.506
  246SOL     OW 1417   1.289   1.238   3.286
  246SOL    HW1 1418   1.322   1.171   3.226
  246SOL    HW2 1419   1.346   1.232   3.362
  247SOL     OW 1420   0.813   0.025   2.387
  247SOL    HW1 1421   0.841   0.114   2.364
  247SOL    HW2 1422   0.718   0.027   2.380
  248SOL     OW 1423   0.178   0.947   3.140
  248SOL    HW1 1424   0.268   0.918   3.129
  248SOL    HW2 1425   0.134   0.921   3.058
  249SOL     OW 1426   1.532   0.993   2.060
  249SOL    HW1 1427   1.462   0.935   2.091
  249SOL    HW2 1428   1.572   1.027   2.139
  250SOL     OW 1429   1.184   1.805   3.484
  250SOL    HW1 1430   1.198   1.864   3.410
  250SOL    HW2 1431   1.201   1.718   3.448
  251SOL     OW 1432   0.326   0.274   3.659
  251SOL    HW1 1433   0.386   0.336   3.700
  251SOL    HW2 1434   0.245   0.281   3.710
  252SOL     OW 1435   1.466   1.419   2.814
  252SOL    HW1 1436   1.398   1.434   2.879
  252SOL    HW2 1437   1.454   1.328   2.787
  253SOL     OW 1438   1.659   1.737   2.440
  253SOL    HW1 1439   1.639   1.708   2.351
  253SOL    HW2 1440   1.634   1.664   2.496
  254SOL     OW 1441   0.595   0.721   2.126
  254SOL    HW1 1442   0.603   0.802   2.076
  254SOL    HW2 1443   0.530   0.742   2.194
  255SOL     OW 1444   1.279   0.345   2.793
  255SOL    HW1 1445   1.188   0.317   2.805
  255SOL    HW2 1446   1.328   0.296   2.858
  256SOL     OW 1447   1.581   1.669   2.171
  256SOL    HW1 1448   1.671   1.702   2.164
  256SOL    HW2 1449   1.555   1.652   2.080
  257SOL     OW 1450   0.794   0.617   3.314
  257SOL    HW1 1451   0.766   0.596   3.403
  257SOL    HW2 1452   0.751   0.552   3.259
  258SOL     OW 1453   1.395   0.475   3.540
  258SOL    HW1 1454   1.396   0.519   3.625
  258SOL    HW2 1455   1.458   0.404   3.549
  259SOL     OW 1456   0.955   0.888   3.444
  259SOL    HW1 1457   1.010   0.817   3.409
  259SOL    HW2 1458   0.908   0.921   3.368
  260SOL     OW 1459   0.994   0.417   3.098
  260SOL    HW1 1460   0.909   0.439   3.137
  260SOL    HW2 1461   0.971   0.368   3.019
  261SOL     OW 1462   1.050   0.698   2.289
  261SOL    HW1 1463   1.065   0.691   2.383
  261SOL    HW2 1464   0.968   0.652   2.274
  262SOL     OW 1465   0.072   0.788   2.675
  262SOL    HW1 1466   0.155   0.793   2.723
  262SOL    HW2 1467   0.062   0.874   2.635
  263SOL     OW 1468   0.131   1.882   3.446
  263SOL    HW1 1469   0.133   1.850   3.536
  263SOL    HW2 1470   0.058   1.835   3.406
  264SOL     OW 1471   0.871   0.362   2.050
  264SOL    HW1 1472   0.916   0.422   1.990
  264SOL    HW2 1473   0.923   0.282   2.047
  265SOL     OW 1474   1.708   0.575   3.690
  265SOL    HW1 1475   1.671   0.650   3.642
  265SOL    HW2 1476   1.737   0.515   3.622
  266SOL     OW 1477   1.376   1.142   2.403
  266SOL    HW1 1478   1.455   1.129   2.351
  266SOL    HW2 1479   1.324   1.204   2.353
  267SOL     OW 1480   0.538   0.201   2.746
  267SOL    HW1 1481   0.554   0.219   2.838
  267SOL    HW2 1482   0.550   0.286   2.703
  268SOL     OW 1483   1.006   1.444   2.335
  268SOL    HW1 1484   0.968   1.517   2.285
  268SOL    HW2 1485   0.991   1.466   2.426
  269SOL     OW 1486   0.356   1.802   2.731
  269SOL    HW1 1487   0.397   1.716   2.744
  269SOL    HW2 1488   0.423   1.865   2.758
  270SOL     OW 1489   1.799   1.057   2.730
  270SOL    HW1 1490   1.743   1.041   2.653
  270SOL    HW2 1491   1.738   1.063   2.803
  271SOL     OW 1492   1.228   1.539   3.375
  271SOL    HW1 1493   1.214   1.465   3.435
  271SOL    HW2 1494   1.166   1.525   3.304
  272SOL     OW 1495   0.317   0.952   2.109
  272SOL    HW1 1496   0.399   0.976   2.066
  272SOL    HW2 1497   0.294   0.867   2.072
  273SOL     OW 1498   1.477   0.741   2.589
  273SOL    HW1 1499   1.468   0.698   2.674
  273SOL    HW2 1500   1.555   0.797   2.599
  274SOL     OW 1501   0.464   1.263   3.599
  274SOL    HW1 1502   0.437   1.269   3.508
  274SOL    HW2 1503   0.382   1.264   3.649
  275SOL     OW 1504   1.121   1.778   2.093
  275SOL    HW1 1505   1.049   1.735   2.139
  275SOL    HW2 1506   1.144   1.717   2.023
  276SOL     OW 1507   0.198   0.279   3.354
  276SOL    HW1 1508   0.157   0.365   3.351
  276SOL    HW2 1509   0.206   0.260   3.448
  277SOL     OW 1510   1.629   1.379   1.949
  277SOL    HW1 1511   1.588   1.465   1.934
  277SOL    HW2 1512   1.560   1.316   1.930
  278SOL     OW 1513   0.471   1.735   2.182
  278SOL    HW1 1514   0.513   1.793   2.246
  278SOL    HW2 1515   0.543   1.705   2.126
  279SOL     OW 1516   1.406   0.100   2.293
  279SOL    HW1 1517   1.398   0.082   2.199
  279SOL    HW2 1518   1.499   0.122   2.305
  280SOL     OW 1519   0.275   1.801   3.078
  280SOL    HW1 1520   0.307   1.725   3.125
  280SOL    HW2 1521   0.226   1.764   3.004
  281SOL     OW 1522   0.938   1.698   2.762
  281SOL    HW1 1523   1.016   1.647   2.782
  281SOL    HW2 1524   0.894   1.649   2.693
  282SOL     OW 1525   0.385   0.696   2.341
  282SOL    HW1 1526   0.415   0.605   2.349
  282SOL    HW2 1527   0.292   0.693   2.362
  283SOL     OW 1528   1.540   0.228   3.586
  283SOL    HW1 1529   1.547   0.246   3.680
  283SOL    HW2 1530   1.465   0.169   3.578
  284SOL     OW 1531   0.621   0.133   1.969
  284SOL    HW1 1532   0.689   0.070   1.993
  284SOL    HW2 1533   0.574   0.091   1.896
  285SOL     OW 1534   0.783   0.313   3.628
  285SOL    HW1 1535   0.841   0.237   3.629
  285SOL    HW2 1536   0.734   0.307   3.710
  286SOL     OW 1537   0.877   1.521   3.055
  286SOL    HW1 1538   0.861   1.485   2.968
  286SOL    HW2 1539   0.947   1.467   3.091
  287SOL     OW 1540   1.341   0.589   3.294
  287SOL    HW1 1541   1.372   0.558   3.379
  287SOL    HW2 1542   1.377   0.677   3.287
  288SOL     OW 1543   0.815   1.395   2.800
  288SOL    HW1 1544   0.899   1.385   2.756
  288SOL    HW2 1545   0.750   1.396   2.730
  289SOL     OW 1546   0.927   0.510   2.766
  289SOL    HW1 1547   0.904   0.502   2.673
  289SOL    HW2 1548   0.959   0.423   2.790
  290SOL     OW 1549   0.547   0.059   2.366
  290SOL    HW1 1550   0.468   0.060   2.420
  290SOL    HW2 1551   0.535   0.131   2.305
  291SOL     OW 1552   1.428   1.198   1.903
  291SOL    HW1 1553   1.459   1.122   1.953
  291SOL    HW2 1554   1.343   1.219   1.941
  292SOL     OW 1555   0.313   0.063   2.046
  292SOL    HW1 1556   0.379   0.128   2.024
  292SOL    HW2 1557   0.363   5.282   2.061
  293SOL     OW 1558   0.939   0.261   2.325
  293SOL    HW1 1559   0.911   0.299   2.241
  293SOL    HW2 1560   1.034   0.272   2.325
  294SOL     OW 1561   1.080   0.681   3.322
  294SOL    HW1 1562   1.011   0.614   3.327
  294SOL    HW2 1563   1.161   0.630   3.315
  295SOL     OW 1564   1.224   1.569   2.655
  295SOL    HW1 1565   1.241   1.637   2.590
  295SOL    HW2 1566   1.292   1.584   2.722
  296SOL     OW 1567   0.467   1.149   2.595
  296SOL    HW1 1568   0.398   1.130   2.658
  296SOL    HW2 1569   0.427   1.131   2.509
  297SOL     OW 1570   1.269   1.794   2.469
  297SOL    HW1 1571   1.315   1.856   2.411
  297SOL    HW2 1572   1.204   1.847   2.514
  298SOL     OW 1573   1.026   0.547   1.884
  298SOL    HW1 1574   0.984   0.631   1.865
  298SOL    HW2 1575   1.090   0.567   1.952
  299SOL     OW 1576   0.096   0.533   3.272
  299SOL    HW1 1577   0.177   0.551   3.225
  299SOL    HW2 1578   0.077   0.614   3.319
  300SOL     OW 1579   0.560   0.239   3.020
  300SOL    HW1 1580   0.591   0.152   3.046
  300SOL    HW2 1581   0.468   0.240   3.044
  301SOL     OW 1582   0.868   0.463   2.503
  301SOL    HW1 1583   0.821   0.515   2.438
  301SOL    HW2 1584   0.890   0.382   2.457
  302SOL     OW 1585   0.979   0.060   2.624
  302SOL    HW1 1586   0.914   0.054   2.554
  302SOL    HW2 1587   0.987   5.271   2.657
  303SOL     OW 1588   1.437   1.163   2.720
  303SOL    HW1 1589   1.368   1.096   2.717
  303SOL    HW2 1590   1.461   1.175   2.628
  304SOL     OW 1591   1.467   0.605   2.841
  304SOL    HW1 1592   1.418   0.522   2.845
  304SOL    HW2 1593   1.527   0.600   2.915
  305SOL     OW 1594   1.846   0.817   2.244
  305SOL    HW1 1595   1.902   0.766   2.302
  305SOL    HW2 1596   1.817   0.755   2.177
  306SOL     OW 1597   0.492   1.416   2.021
  306SOL    HW1 1598   0.417   1.388   2.073
  306SOL    HW2 1599   0.474   1.384   1.933
  307SOL     OW 1600   1.669   1.264   2.509
  307SOL    HW1 1601   1.764   1.269   2.522
  307SOL    HW2 1602   1.638   1.353   2.530
  308SOL     OW 1603   1.394   0.572   1.933
  308SOL    HW1 1604   1.333   0.553   2.005
  308SOL    HW2 1605   1.479   0.541   1.965
  309SOL     OW 1606   0.523   0.265   2.183
  309SOL    HW1 1607   0.568   0.216   2.114
  309SOL    HW2 1608   0.504   0.350   2.143
  310SOL     OW 1609   1.753   1.238   3.437
  310SOL    HW1 1610   1.841   1.200   3.432
  310SOL    HW2 1611   1.768   1.328   3.465
  311SOL     OW 1612   1.059   1.353   3.195
  311SOL    HW1 1613   0.985   1.322   3.247
  311SOL    HW2 1614   1.135   1.312   3.237
  312SOL     OW 1615   1.608   1.624   3.515
  312SOL    HW1 1616   1.602   1.660   3.427
  312SOL    HW2 1617   1.692   1.578   3.516
  313SOL     OW 1618   1.127   1.202   2.968
  313SOL    HW1 1619   1.069   1.241   3.033
  313SOL    HW2 1620   1.094   1.235   2.884
  314SOL     OW 1621   1.629   1.099   2.940
  314SOL    HW1 1622   1.625   1.161   3.012
  314SOL    HW2 1623   1.550   1.115   2.889
  315SOL     OW 1624   0.906   0.106   3.253
  315SOL    HW1 1625   0.936   0.072   3.169
  315SOL    HW2 1626   0.982   0.148   3.291
  316SOL     OW 1627   0.984   1.114   3.584
  316SOL    HW1 1628   0.892   1.131   3.604
  316SOL    HW2 1629   0.984   1.037   3.528
  317SOL     OW 1630   0.707   1.059   2.234
  317SOL    HW1 1631   0.696   1.045   2.328
  317SOL    HW2 1632   0.784   1.007   2.211
  318SOL     OW 1633   0.420   0.819   3.114
  318SOL    HW1 1634   0.489   0.825   3.180
  318SOL    HW2 1635   0.385   0.730   3.124
  319SOL     OW 1636   1.267   0.379   3.134
  319SOL    HW1 1637   1.300   0.456   3.181
  319SOL    HW2 1638   1.177   0.401   3.111
  320SOL     OW 1639   0.100   1.623   3.230
  320SOL    HW1 1640   0.078   1.633   3.137
  320SOL    HW2 1641   0.187   1.581   3.229
  321SOL     OW 1642   0.344   1.105   2.350
  321SOL    HW1 1643   0.354   1.184   2.298
  321SOL    HW2 1644   0.355   1.033   2.288
  322SOL     OW 1645   0.556   0.538   2.722
  322SOL    HW1 1646   0.572   0.596   2.648
  322SOL    HW2 1647   0.620   0.565   2.788
  323SOL     OW 1648   1.248   1.348   2.251
  323SOL    HW1 1649   1.304   1.420   2.282
  323SOL    HW2 1650   1.161   1.369   2.285
  324SOL     OW 1651   1.280   1.456   3.009
  324SOL    HW1 1652   1.335   1.460   3.086
  324SOL    HW2 1653   1.224   1.380   3.022
  325SOL     OW 1654   1.582   0.623   2.340
  325SOL    HW1 1655   1.537   0.679   2.403
  325SOL    HW2 1656   1.628   0.685   2.283
  326SOL     OW 1657   0.352   1.519   3.173
  326SOL    HW1 1658   0.342   1.476   3.088
  326SOL    HW2 1659   0.445   1.537   3.180
  327SOL     OW 1660   0.414   0.741   3.464
  327SOL    HW1 1661   0.472   0.790   3.406
  327SOL    HW2 1662   0.459   0.659   3.480
  328SOL     OW 1663   1.600   0.778   3.543
  328SOL    HW1 1664   1.514   0.819   3.536
  328SOL    HW2 1665   1.652   0.821   3.475
  329SOL     OW 1666   1.041   0.116   3.643
  329SOL    HW1 1667   1.067   0.195   3.596
  329SOL    HW2 1668   1.050   0.045   3.579
  330SOL     OW 1669   0.483   0.058   3.600
  330SOL    HW1 1670   0.428   5.290   3.560
  330SOL    HW2 1671   0.422   0.130   3.618
  331SOL     OW 1672   0.585   0.873   2.894
  331SOL    HW1 1673   0.616   0.964   2.892
  331SOL    HW2 1674   0.529   0.869   2.971
  332SOL     OW 1675   1.359   0.859   2.893
  332SOL    HW1 1676   1.277   0.851   2.845
  332SOL    HW2 1677   1.398   0.771   2.888
  333SOL     OW 1678   1.206   0.529   2.130
  333SOL    HW1 1679   1.211   0.448   2.181
  333SOL    HW2 1680   1.164   0.592   2.188
  334SOL     OW 1681   0.305   0.206   3.107
  334SOL    HW1 1682   0.265   0.237   3.188
  334SOL    HW2 1683   0.296   0.111   3.111
  335SOL     OW 1684   0.070   1.319   3.143
  335SOL    HW1 1685   0.090   1.259   3.215
  335SOL    HW2 1686   0.003   1.377   3.178
  336SOL     OW 1687   0.727   0.632   2.923
  336SOL    HW1 1688   0.799   0.614   2.863
  336SOL    HW2 1689   0.698   0.721   2.900
  337SOL     OW 1690   1.734   0.959   3.714
  337SOL    HW1 1691   1.688   0.900   3.655
  337SOL    HW2 1692   1.674   0.972   3.788
  338SOL     OW 1693   0.318   0.067   2.514
  338SOL    HW1 1694   0.299   0.161   2.524
  338SOL    HW2 1695   0.319   0.034   2.604
  339SOL     OW 1696   1.611   0.374   2.228
  339SOL    HW1 1697   1.645   0.311   2.292
  339SOL    HW2 1698   1.591   0.452   2.280
  340SOL     OW 1699   1.027   0.759   2.823
  340SOL    HW1 1700   1.025   0.777   2.917
  340SOL    HW2 1701   1.001   0.668   2.815
  341SOL     OW 1702   0.981   1.565   3.578
  341SOL    HW1 1703   0.967   1.611   3.495
  341SOL    HW2 1704   1.026   1.484   3.554
  342SOL     OW 1705   1.857   1.507   3.467
  342SOL    HW1 1706   1.871   1.533   3.376
  342SOL    HW2 1707   1.939   1.527   3.511
  343SOL     OW 1708   0.353   0.916   3.669
  343SOL    HW1 1709   0.434   0.937   3.715
  343SOL    HW2 1710   0.379   0.853   3.602
  344SOL     OW 1711   1.527   0.273   1.988
  344SOL    HW1 1712   1.463   0.208   2.019
  344SOL    HW2 1713   1.563   0.311   2.068
  345SOL     OW 1714   1.292   0.827   1.894
  345SOL    HW1 1715   1.335   0.741   1.897
  345SOL    HW2 1716   1.324   0.866   1.812
  346SOL     OW 1717   1.066   1.335   2.715
  346SOL    HW1 1718   1.069   1.263   2.653
  346SOL    HW2 1719   1.128   1.399   2.681
  347SOL     OW 1720   0.315   0.811   2.812
  347SOL    HW1 1721   0.409   0.828   2.807
  347SOL    HW2 1722   0.309   0.720   2.843
  348SOL     OW 1723   0.337   0.526   2.877
  348SOL    HW1 1724   0.299   0.439   2.860
  348SOL    HW2 1725   0.411   0.531   2.817
  349SOL     OW 1726   1.136   0.378   3.549
  349SOL    HW1 1727   1.088   0.433   3.612
  349SOL    HW2 1728   1.223   0.417   3.545
  350SOL     OW 1729   1.134   0.223   3.327
  350SOL    HW1 1730   1.139   0.282   3.403
  350SOL    HW2 1731   1.189   0.265   3.261
  351SOL     OW 1732   0.001   1.331   2.072
  351SOL    HW1 1733   5.226   1.321   2.014
  351SOL    HW2 1734   0.012   1.244   2.112
  352SOL     OW 1735   0.092   1.782   2.812
  352SOL    HW1 1736   0.059   1.711   2.757
  352SOL    HW2 1737   0.179   1.800   2.777
  353SOL     OW 1738   0.505   1.573   2.769
  353SOL    HW1 1739   0.573   1.638   2.790
  353SOL    HW2 1740   0.549   1.512   2.710
  354SOL     OW 1741   0.985   0.793   3.089
  354SOL    HW1 1742   1.040   0.769   3.164
  354SOL    HW2 1743   0.899   0.756   3.110
  355SOL     OW 1744   0.036   0.564   2.980
  355SOL    HW1 1745   0.119   0.533   2.942
  355SOL    HW2 1746   0.039   0.534   3.071
  356SOL     OW 1747   0.168   0.514   3.576
  356SOL    HW1 1748   0.252   0.494   3.534
  356SOL    HW2 1749   0.137   0.593   3.533
  357SOL     OW 1750   1.376   0.940   3.521
  357SOL    HW1 1751   1.398   1.033   3.519
  357SOL    HW2 1752   1.374   0.914   3.429
  358SOL     OW 1753   0.814   0.571   2.222
  358SOL    HW1 1754   0.818   0.497   2.162
  358SOL    HW2 1755   0.740   0.624   2.191
  359SOL     OW 1756   1.642   0.601   3.049
  359SOL    HW1 1757   1.631   0.542   3.123
  359SOL    HW2 1758   1.729   0.581   3.015
  360SOL     OW 1759   0.257   1.556   3.597
  360SOL    HW1 1760   0.233   1.619   3.666
  360SOL    HW2 1761   0.249   1.470   3.640
  361SOL     OW 1762   0.695   0.454   3.124
  361SOL    HW1 1763   0.647   0.379   3.089
  361SOL    HW2 1764   0.696   0.517   3.053
  362SOL     OW 1765   0.929   1.679   3.329
  362SOL    HW1 1766   0.902   1.646   3.243
  362SOL    HW2 1767   0.926   1.774   3.320
  363SOL     OW 1768   0.464   0.493   2.043
  363SOL    HW1 1769   0.527   0.562   2.066
  363SOL    HW2 1770   0.380   0.537   2.037
  364SOL     OW 1771   0.148   1.138   3.333
  364SOL    HW1 1772   0.147   1.088   3.415
  364SOL    HW2 1773   0.161   1.071   3.265
  365SOL     OW 1774   1.327   1.048   3.086
  365SOL    HW1 1775   1.351   0.985   3.018
  365SOL    HW2 1776   1.256   1.099   3.047
  366SOL     OW 1777   1.310   0.857   2.169
  366SOL    HW1 1778   1.234   0.826   2.218
  366SOL    HW2 1779   1.286   0.843   2.077
  367SOL     OW 1780   1.766   1.743   3.009
  367SOL    HW1 1781   1.831   1.770   2.944
  367SOL    HW2 1782   1.747   1.652   2.988
  368SOL     OW 1783   1.240   1.732   2.975
  368SOL    HW1 1784   1.323   1.754   2.931
  368SOL    HW2 1785   1.247   1.638   2.993
  369SOL     OW 1786   0.083   1.219   2.889
  369SOL    HW1 1787   0.069   1.244   2.981
  369SOL    HW2 1788   5.294   1.207   2.855
  370SOL     OW 1789   0.678   1.665   3.589
  370SOL    HW1 1790   0.623   1.744   3.585
  370SOL    HW2 1791   0.742   1.676   3.519
  371SOL     OW 1792   1.712   0.147   2.366
  371SOL    HW1 1793   1.788   0.127   2.311
  371SOL    HW2 1794   1.705   0.072   2.425
  372SOL     OW 1795   1.390   1.568   2.346
  372SOL    HW1 1796   1.450   1.600   2.279
  372SOL    HW2 1797   1.342   1.646   2.374
  373SOL     OW 1798   0.144   1.798   3.705
  373SOL    HW1 1799   0.089   1.735   3.752
  373SOL    HW2 1800   0.190   1.846   3.773
  374SOL     OW 1801   1.277   0.925   2.533
  374SOL    HW1 1802   1.351   0.864   2.539
  374SOL    HW2 1803   1.311   0.998   2.481
  375SOL     OW 1804   0.816   1.272   3.293
  375SOL    HW1 1805   0.788   1.312   3.375
  375SOL    HW2 1806   0.746   1.295   3.231
  376SOL     OW 1807   0.672   1.618   2.017
  376SOL    HW1 1808   0.682   1.631   1.923
  376SOL    HW2 1809   0.618   1.540   2.026
  377SOL     OW 1810   1.627   1.725   3.253
  377SOL    HW1 1811   1.677   1.733   3.171
  377SOL    HW2 1812   1.614   1.815   3.282
  378SOL     OW 1813   1.845   0.158   2.820
  378SOL    HW1 1814   1.846   0.063   2.804
  378SOL    HW2 1815   1.758   0.186   2.792
  379SOL     OW 1816   0.270   0.328   2.581
  379SOL    HW1 1817   0.184   0.366   2.564
  379SOL    HW2 1818   0.271   0.313   2.675
  380SOL     OW 1819   1.207   1.607   1.893
  380SOL    HW1 1820   1.198   1.515   1.920
  380SOL    HW2 1821   1.142   1.618   1.824
  381SOL     OW 1822   0.824   1.006   3.234
  381SOL    HW1 1823   0.868   1.002   3.149
  381SOL    HW2 1824   0.824   1.099   3.257
  382SOL     OW 1825   0.915   0.910   2.152
  382SOL    HW1 1826   0.976   0.942   2.085
  382SOL    HW2 1827   0.962   0.841   2.197
  383SOL     OW 1828   1.493   1.625   1.904
  383SOL    HW1 1829   1.398   1.619   1.891
  383SOL    HW2 1830   1.529   1.631   1.816
  384SOL     OW 1831   0.368   1.303   3.355
  384SOL    HW1 1832   0.359   1.378   3.296
  384SOL    HW2 1833   0.292   1.249   3.335
  385SOL     OW 1834   1.610   1.283   3.143
  385SOL    HW1 1835   1.672   1.274   3.215
  385SOL    HW2 1836   1.551   1.352   3.169
  386SOL     OW 1837   1.050   1.106   2.567
  386SOL    HW1 1838   0.980   1.055   2.607
  386SOL    HW2 1839   1.113   1.041   2.536
  387SOL     OW 1840   1.020   0.242   2.830
  387SOL    HW1 1841   1.000   0.197   2.748
  387SOL    HW2 1842   1.012   0.175   2.897
  388SOL     OW 1843   0.601   1.487   2.343
  388SOL    HW1 1844   0.645   1.439   2.274
  388SOL    HW2 1845   0.535   1.540   2.298
  389SOL     OW 1846   1.723   0.387   3.240
  389SOL    HW1 1847   1.793   0.452   3.240
  389SOL    HW2 1848   1.755   0.317   3.183
  390SOL     OW 1849   0.260   1.348   2.154
  390SOL    HW1 1850   0.167   1.351   2.131
  390SOL    HW2 1851   0.264   1.385   2.242
  391SOL     OW 1852   0.115   1.015   3.580
  391SOL    HW1 1853   0.044   0.982   3.634
  391SOL    HW2 1854   0.195   0.985   3.623
  392SOL     OW 1855   0.673   0.213   3.350
  392SOL    HW1 1856   0.757   0.196   3.307
  392SOL    HW2 1857   0.697   0.259   3.431
  393SOL     OW 1858   0.078   0.338   1.900
  393SOL    HW1 1859   5.288   0.310   1.885
  393SOL    HW2 1860   0.093   0.405   1.833
  394SOL     OW 1861   1.431   0.858   3.263
  394SOL    HW1 1862   1.382   0.919   3.207
  394SOL    HW2 1863   1.520   0.861   3.229
  395SOL     OW 1864   0.083   0.141   2.157
  395SOL    HW1 1865   0.076   0.234   2.138
  395SOL    HW2 1866   0.170   0.116   2.126
  396SOL     OW 1867   1.179   1.340   1.979
  396SOL    HW1 1868   1.088   1.310   1.982
  396SOL    HW2 1869   1.208   1.340   2.070
  397SOL     OW 1870   0.619   0.831   3.297
  397SOL    HW1 1871   0.674   0.908   3.281
  397SOL    HW2 1872   0.681   0.758   3.305
  398SOL     OW 1873   1.485   1.774   2.839
  398SOL    HW1 1874   1.510   1.834   2.769
  398SOL    HW2 1875   1.566   1.760   2.888
  399SOL     OW 1876   0.714   0.572   3.566
  399SOL    HW1 1877   0.755   0.636   3.624
  399SOL    HW2 1878   0.747   0.488   3.596
  400SOL     OW 1879   1.471   1.201   3.494
  400SOL    HW1 1880   1.459   1.215   3.588
  400SOL    HW2 1881   1.564   1.215   3.480
  401SOL     OW 1882   0.379   1.742   3.426
  401SOL    HW1 1883   0.296   1.787   3.411
  401SOL    HW2 1884   0.354   1.661   3.471
  402SOL     OW 1885   1.670   0.882   3.117
  402SOL    HW1 1886   1.663   0.796   3.074
  402SOL    HW2 1887   1.661   0.945   3.047
  403SOL     OW 1888   1.221   0.320   2.328
  403SOL    HW1 1889   1.284   0.248   2.320
  403SOL    HW2 1890   1.251   0.371   2.402
  404SOL     OW 1891   0.590   0.739   2.531
  404SOL    HW1 1892   0.629   0.824   2.514
  404SOL    HW2 1893   0.521   0.731   2.465
  405SOL     OW 1894   1.767   0.361   3.510
  405SOL    HW1 1895   1.747   0.375   3.418
  405SOL    HW2 1896   1.696   0.305   3.542
  406SOL     OW 1897   1.745   0.934   3.374
  406SOL    HW1 1898   1.743   1.029   3.388
  406SOL    HW2 1899   1.730   0.922   3.281
  407SOL     OW 1900   0.862   1.367   1.894
  407SOL    HW1 1901   0.824   1.396   1.978
  407SOL    HW2 1902   0.881   1.449   1.848
  408SOL     OW 1903   0.662   1.794   2.807
  408SOL    HW1 1904   0.641   1.885   2.784
  408SOL    HW2 1905   0.758   1.790   2.800
  409SOL     OW 1906   0.867   0.966   2.717
  409SOL    HW1 1907   0.917   0.895   2.757
  409SOL    HW2 1908   0.833   1.016   2.791
  410SOL     OW 1909   1.078   0.987   1.950
  410SOL    HW1 1910   1.058   1.038   1.872
  410SOL    HW2 1911   1.154   0.934   1.925
  411SOL     OW 1912   1.856   1.555   2.707
  411SOL    HW1 1913   1.777   1.545   2.653
  411SOL    HW2 1914   1.845   1.491   2.777
  412SOL     OW 1915   0.225   1.305   3.721
  412SOL    HW1 1916   0.156   1.244   3.696
  412SOL    HW2 1917   0.213   1.316   3.816
  413SOL     OW 1918   0.086   1.221   2.516
  413SOL    HW1 1919   0.098   1.189   2.606
  413SOL    HW2 1920   0.172   1.212   2.476
  414SOL     OW 1921   0.681   1.401   3.490
  414SOL    HW1 1922   0.600   1.359   3.519
  414SOL    HW2 1923   0.676   1.490   3.525
  415SOL     OW 1924   1.816   0.178   3.095
  415SOL    HW1 1925   1.784   0.088   3.103
  415SOL    HW2 1926   1.832   0.190   3.002
  416SOL     OW 1927   0.432   0.436   2.384
  416SOL    HW1 1928   0.463   0.362   2.332
  416SOL    HW2 1929   0.387   0.395   2.458
  417SOL     OW 1930   1.703   1.486   2.956
  417SOL    HW1 1931   1.620   1.464   2.913
  417SOL    HW2 1932   1.714   1.419   3.024
  418SOL     OW 1933   0.335   0.559   3.151
  418SOL    HW1 1934   0.392   0.502   3.202
  418SOL    HW2 1935   0.350   0.532   3.060
  419SOL     OW 1936   0.827   1.577   2.540
  419SOL    HW1 1937   0.817   1.630   2.461
  419SOL    HW2 1938   0.750   1.521   2.543
  420SOL     OW 1939   1.428   0.218   2.978
  420SOL    HW1 1940   1.465   0.144   3.026
  420SOL    HW2 1941   1.380   0.267   3.045
  421SOL     OW 1942   1.002   0.021   3.004
  421SOL    HW1 1943   0.951   5.252   2.961
  421SOL    HW2 1944   1.089   5.284   3.017
  422SOL     OW 1945   0.771   1.332   2.176
  422SOL    HW1 1946   0.741   1.242   2.182
  422SOL    HW2 1947   0.854   1.333   2.224
  423SOL     OW 1948   0.622   1.557   3.149
  423SOL    HW1 1949   0.624   1.639   3.198
  423SOL    HW2 1950   0.709   1.551   3.109
  424SOL     OW 1951   1.354   0.040   2.023
  424SOL    HW1 1952   1.386   5.297   1.944
  424SOL    HW2 1953   1.276   5.291   2.047
  425SOL     OW 1954   1.301   0.463   2.547
  425SOL    HW1 1955   1.246   0.541   2.553
  425SOL    HW2 1956   1.295   0.423   2.634
  426SOL     OW 1957   1.594   0.216   2.744
  426SOL    HW1 1958   1.527   0.227   2.811
  426SOL    HW2 1959   1.587   0.294   2.689
  427SOL     OW 1960   0.047   1.069   2.153
  427SOL    HW1 1961   0.137   1.038   2.142
  427SOL    HW2 1962   5.300   0.993   2.187
  428SOL     OW 1963   0.884   1.651   2.205
  428SOL    HW1 1964   0.811   1.635   2.144
  428SOL    HW2 1965   0.856   1.726   2.256
  429SOL     OW 1966   0.233   0.633   3.840
  429SOL    HW1 1967   0.156   0.608   3.891
  429SOL    HW2 1968   0.216   0.599   3.753
  430SOL     OW 1969   0.232   0.280   4.714
  430SOL    HW1 1970   0.252   0.244   4.800
  430SOL    HW2 1971   0.152   0.235   4.686
  431SOL     OW 1972   0.000   0.406   4.387
  431SOL    HW1 1973   5.207   0.427   4.392
  431SOL    HW2 1974   0.003   0.315   4.356
  432SOL     OW 1975   0.573   1.282   4.904
  432SOL    HW1 1976   0.490   1.291   4.857
  432SOL    HW2 1977   0.590   1.370   4.939
  433SOL     OW 1978   1.559   1.511   4.431
  433SOL    HW1 1979   1.516   1.492   4.515
  433SOL    HW2 1980   1.487   1.515   4.368
  434SOL     OW 1981   1.130   0.698   4.426
  434SOL    HW1 1982   1.180   0.779   4.412
  434SOL    HW2 1983   1.083   0.713   4.508
  435SOL     OW 1984   1.766   0.607   3.953
  435SOL    HW1 1985   1.746   0.599   3.860
  435SOL    HW2 1986   1.731   0.526   3.992
  436SOL     OW 1987   0.756   1.142   4.762
  436SOL    HW1 1988   0.689   1.176   4.821
  436SOL    HW2 1989   0.791   1.220   4.718
  437SOL     OW 1990   0.863   0.779   5.545
  437SOL    HW1 1991   0.856   0.851   5.608
  437SOL    HW2 1992   0.888   0.822   5.463
  438SOL     OW 1993   0.686   1.004   4.372
  438SOL    HW1 1994   0.751   0.991   4.440
  438SOL    HW2 1995   0.617   1.056   4.414
  439SOL     OW 1996   0.708   1.151   5.536
  439SOL    HW1 1997   0.757   1.229   5.562
  439SOL    HW2 1998   0.626   1.184   5.500
  440SOL     OW 1999   0.358   1.405   4.783
  440SOL    HW1 2000   0.270   1.405   4.746
  440SOL    HW2 2001   0.407   1.468   4.730
  441SOL     OW 2002   1.461   1.499   5.076
  441SOL    HW1 2003   1.511   1.581   5.085
  441SOL    HW2 2004   1.403   1.498   5.152
  442SOL     OW 2005   0.448   0.400   5.216
  442SOL    HW1 2006   0.527   0.346   5.209
  442SOL    HW2 2007   0.376   0.336   5.222
  443SOL     OW 2008   1.611   0.452   4.462
  443SOL    HW1 2009   1.535   0.476   4.409
  443SOL    HW2 2010   1.630   0.530   4.514
  444SOL     OW 2011   0.230   1.714   4.202
  444SOL    HW1 2012   0.265   1.783   4.259
  444SOL    HW2 2013   0.292   1.711   4.128
  445SOL     OW 2014   1.136   1.341   5.416
  445SOL    HW1 2015   1.177   1.337   5.502
  445SOL    HW2 2016   1.084   1.261   5.410
  446SOL     OW 2017   0.222   1.443   4.263
  446SOL    HW1 2018   0.214   1.538   4.260
  446SOL    HW2 2019   0.152   1.415   4.322
  447SOL     OW 2020   0.249   1.078   4.600
  447SOL    HW1 2021   0.260   0.994   4.643
  447SOL    HW2 2022   0.197   1.130   4.662
  448SOL     OW 2023   0.615   1.790   5.157
  448SOL    HW1 2024   0.531   1.773   5.199
  448SOL    HW2 2025   0.635   1.881   5.179
  449SOL     OW 2026   0.584   0.983   3.858
  449SOL    HW1 2027   0.629   1.031   3.789
  449SOL    HW2 2028   0.626   1.011   3.939
  450SOL     OW 2029   1.586   0.134   5.181
  450SOL    HW1 2030   1.606   0.219   5.142
  450SOL    HW2 2031   1.585   0.151   5.275
  451SOL     OW 2032   0.124   0.637   4.301
  451SOL    HW1 2033   0.090   0.554   4.333
  451SOL    HW2 2034   0.098   0.701   4.367
  452SOL     OW 2035   1.840   1.765   4.058
  452SOL    HW1 2036   1.898   1.735   4.128
  452SOL    HW2 2037   1.879   1.848   4.029
  453SOL     OW 2038   0.037   1.599   3.855
  453SOL    HW1 2039   0.024   1.507   3.880
  453SOL    HW2 2040   5.283   1.648   3.916
  454SOL     OW 2041   1.689   0.918   4.364
  454SOL    HW1 2042   1.773   0.877   4.344
  454SOL    HW2 2043   1.668   0.968   4.285
  455SOL     OW 2044   1.646   1.107   4.153
  455SOL    HW1 2045   1.731   1.114   4.111
  455SOL    HW2 2046   1.650   1.168   4.227
  456SOL     OW 2047   0.129   0.748   5.312
  456SOL    HW1 2048   0.224   0.763   5.314
  456SOL    HW2 2049   0.091   0.835   5.325
  457SOL     OW 2050   0.615   1.384   4.459
  457SOL    HW1 2051   0.567   1.302   4.469
  457SOL    HW2 2052   0.597   1.411   4.368
  458SOL     OW 2053   1.289   1.238   5.148
  458SOL    HW1 2054   1.322   1.171   5.088
  458SOL    HW2 2055   1.346   1.232   5.225
  459SOL     OW 2056   0.813   0.025   4.249
  459SOL    HW1 2057   0.841   0.114   4.226
  459SOL    HW2 2058   0.718   0.027   4.242
  460SOL     OW 2059   0.178   0.947   5.002
  460SOL    HW1 2060   0.268   0.918   4.991
  460SOL    HW2 2061   0.134   0.921   4.920
  461SOL     OW 2062   1.532   0.993   3.922
  461SOL    HW1 2063   1.462   0.935   3.953
  461SOL    HW2 2064   1.572   1.027   4.002
  462SOL     OW 2065   1.184   1.805   5.345
  462SOL    HW1 2066   1.198   1.864   5.271
  462SOL    HW2 2067   1.201   1.718   5.310
  463SOL     OW 2068   0.326   0.274   5.521
  463SOL    HW1 2069   0.386   0.336   5.562
  463SOL    HW2 2070   0.245   0.281   5.572
  464SOL     OW 2071   1.466   1.419   4.676
  464SOL    HW1 2072   1.398   1.434   4.742
  464SOL    HW2 2073   1.454   1.328   4.650
  465SOL     OW 2074   1.665   1.729   4.302
  465SOL    HW1 2075   1.636   1.703   4.215
  465SOL    HW2 2076   1.635   1.657   4.359
  466SOL     OW 2077   0.595   0.721   3.988
  466SOL    HW1 2078   0.603   0.802   3.938
  466SOL    HW2 2079   0.530   0.742   4.056
  467SOL     OW 2080   1.279   0.345   4.654
  467SOL    HW1 2081   1.188   0.317   4.667
  467SOL    HW2 2082   1.328   0.296   4.720
  468SOL     OW 2083   1.580   1.667   4.034
  468SOL    HW1 2084   1.668   1.705   4.026
  468SOL    HW2 2085   1.552   1.652   3.943
  469SOL     OW 2086   0.794   0.617   5.176
  469SOL    HW1 2087   0.766   0.596   5.265
  469SOL    HW2 2088   0.751   0.552   5.121
  470SOL     OW 2089   1.394   0.475   5.402
  470SOL    HW1 2090   1.396   0.519   5.487
  470SOL    HW2 2091   1.459   0.404   5.411
  471SOL     OW 2092   0.955   0.888   5.306
  471SOL    HW1 2093   1.010   0.817   5.271
  471SOL    HW2 2094   0.908   0.921   5.230
  472SOL     OW 2095   0.994   0.416   4.960
  472SOL    HW1 2096   0.909   0.439   5.000
  472SOL    HW2 2097   0.971   0.368   4.881
  473SOL     OW 2098   1.050   0.698   4.151
  473SOL    HW1 2099   1.065   0.691   4.245
  473SOL    HW2 2100   0.968   0.652   4.136
  474SOL     OW 2101   0.072   0.787   4.537
  474SOL    HW1 2102   0.155   0.793   4.585
  474SOL    HW2 2103   0.061   0.874   4.497
  475SOL     OW 2104   0.131   1.882   5.308
  475SOL    HW1 2105   0.133   1.850   5.398
  475SOL    HW2 2106   0.058   1.835   5.268
  476SOL     OW 2107   0.871   0.362   3.912
  476SOL    HW1 2108   0.916   0.422   3.852
  476SOL    HW2 2109   0.923   0.282   3.909
  477SOL     OW 2110   1.708   0.575   5.552
  477SOL    HW1 2111   1.671   0.650   5.505
  477SOL    HW2 2112   1.737   0.515   5.483
  478SOL     OW 2113   1.376   1.142   4.266
  478SOL    HW1 2114   1.455   1.129   4.213
  478SOL    HW2 2115   1.324   1.204   4.215
  479SOL     OW 2116   0.538   0.201   4.608
  479SOL    HW1 2117   0.554   0.219   4.700
  479SOL    HW2 2118   0.550   0.286   4.565
  480SOL     OW 2119   1.006   1.444   4.197
  480SOL    HW1 2120   0.968   1.516   4.147
  480SOL    HW2 2121   0.991   1.466   4.288
  481SOL     OW 2122   0.356   1.802   4.593
  481SOL    HW1 2123   0.397   1.716   4.606
  481SOL    HW2 2124   0.423   1.865   4.620
  482SOL     OW 2125   1.798   1.058   4.591
  482SOL    HW1 2126   1.742   1.040   4.515
  482SOL    HW2 2127   1.738   1.064   4.664
  483SOL     OW 2128   1.228   1.539   5.237
  483SOL    HW1 2129   1.214   1.466   5.297
  483SOL    HW2 2130   1.166   1.524   5.166
  484SOL     OW 2131   0.317   0.952   3.971
  484SOL    HW1 2132   0.399   0.976   3.928
  484SOL    HW2 2133   0.295   0.867   3.934
  485SOL     OW 2134   1.477   0.741   4.451
  485SOL    HW1 2135   1.468   0.698   4.536
  485SOL    HW2 2136   1.555   0.797   4.461
  486SOL     OW 2137   0.464   1.263   5.461
  486SOL    HW1 2138   0.437   1.269   5.370
  486SOL    HW2 2139   0.382   1.264   5.511
  487SOL     OW 2140   1.121   1.777   3.955
  487SOL    HW1 2141   1.048   1.734   4.001
  487SOL    HW2 2142   1.143   1.717   3.885
  488SOL     OW 2143   0.198   0.279   5.216
  488SOL    HW1 2144   0.157   0.365   5.213
  488SOL    HW2 2145   0.206   0.260   5.310
  489SOL     OW 2146   1.629   1.381   3.812
  489SOL    HW1 2147   1.587   1.465   3.796
  489SOL    HW2 2148   1.561   1.316   3.793
  490SOL     OW 2149   0.471   1.735   4.044
  490SOL    HW1 2150   0.513   1.793   4.108
  490SOL    HW2 2151   0.543   1.706   3.988
  491SOL     OW 2152   1.406   0.100   4.155
  491SOL    HW1 2153   1.398   0.082   4.061
  491SOL    HW2 2154   1.499   0.122   4.167
  492SOL     OW 2155   0.275   1.801   4.939
  492SOL    HW1 2156   0.307   1.725   4.987
  492SOL    HW2 2157   0.226   1.764   4.866
  493SOL     OW 2158   0.939   1.698   4.624
  493SOL    HW1 2159   1.016   1.646   4.644
  493SOL    HW2 2160   0.894   1.649   4.555
  494SOL     OW 2161   0.385   0.696   4.203
  494SOL    HW1 2162   0.415   0.605   4.211
  494SOL    HW2 2163   0.292   0.693   4.224
  495SOL     OW 2164   1.540   0.228   5.448
  495SOL    HW1 2165   1.547   0.246   5.542
  495SOL    HW2 2166   1.465   0.169   5.440
  496SOL     OW 2167   0.621   0.133   3.831
  496SOL    HW1 2168   0.690   0.071   3.855
  496SOL    HW2 2169   0.574   0.091   3.758
  497SOL     OW 2170   0.783   0.313   5.490
  497SOL    HW1 2171   0.841   0.237   5.491
  497SOL    HW2 2172   0.734   0.307   5.572
  498SOL     OW 2173   0.877   1.521   4.917
  498SOL    HW1 2174   0.861   1.485   4.830
  498SOL    HW2 2175   0.947   1.467   4.954
  499SOL     OW 2176   1.341   0.589   5.156
  499SOL    HW1 2177   1.372   0.558   5.241
  499SOL    HW2 2178   1.377   0.677   5.149
  500SOL     OW 2179   0.815   1.395   4.662
  500SOL    HW1 2180   0.899   1.385   4.618
  500SOL    HW2 2181   0.750   1.396   4.592
  501SOL     OW 2182   0.927   0.510   4.628
  501SOL    HW1 2183   0.904   0.502   4.535
  501SOL    HW2 2184   0.959   0.423   4.652
  502SOL     OW 2185   0.547   0.059   4.228
  502SOL    HW1 2186   0.468   0.060   4.282
  502SOL    HW2 2187   0.535   0.131   4.167
  503SOL     OW 2188   1.429   1.198   3.765
  503SOL    HW1 2189   1.459   1.122   3.815
  503SOL    HW2 2190   1.343   1.219   3.802
  504SOL     OW 2191   0.313   0.063   3.908
  504SOL    HW1 2192   0.379   0.128   3.886
  504SOL    HW2 2193   0.363   5.282   3.923
  505SOL     OW 2194   0.939   0.261   4.187
  505SOL    HW1 2195   0.911   0.299   4.103
  505SOL    HW2 2196   1.034   0.272   4.187
  506SOL     OW 2197   1.080   0.681   5.184
  506SOL    HW1 2198   1.011   0.614   5.189
  506SOL    HW2 2199   1.162   0.630   5.177
  507SOL     OW 2200   1.224   1.569   4.517
  507SOL    HW1 2201   1.241   1.637   4.452
  507SOL    HW2 2202   1.292   1.584   4.584
  508SOL     OW 2203   0.467   1.149   4.457
  508SOL    HW1 2204   0.397   1.130   4.520
  508SOL    HW2 2205   0.427   1.131   4.371
  509SOL     OW 2206   1.270   1.794   4.331
  509SOL    HW1 2207   1.315   1.855   4.273
  509SOL    HW2 2208   1.204   1.848   4.376
  510SOL     OW 2209   1.026   0.547   3.746
  510SOL    HW1 2210   0.984   0.631   3.727
  510SOL    HW2 2211   1.090   0.567   3.814
  511SOL     OW 2212   0.096   0.533   5.134
  511SOL    HW1 2213   0.177   0.551   5.087
  511SOL    HW2 2214   0.077   0.614   5.181
  512SOL     OW 2215   0.560   0.239   4.882
  512SOL    HW1 2216   0.591   0.152   4.908
  512SOL    HW2 2217   0.467   0.239   4.906
  513SOL     OW 2218   0.868   0.463   4.365
  513SOL    HW1 2219   0.821   0.515   4.300
  513SOL    HW2 2220   0.890   0.382   4.319
  514SOL     OW 2221   0.979   0.060   4.486
  514SOL    HW1 2222   0.914   0.054   4.416
  514SOL    HW2 2223   0.987   5.271   4.519
  515SOL     OW 2224   1.437   1.163   4.581
  515SOL    HW1 2225   1.368   1.096   4.580
  515SOL    HW2 2226   1.460   1.175   4.489
  516SOL     OW 2227   1.467   0.605   4.703
  516SOL    HW1 2228   1.418   0.522   4.707
  516SOL    HW2 2229   1.527   0.600   4.776
  517SOL     OW 2230   1.846   0.817   4.106
  517SOL    HW1 2231   1.902   0.766   4.164
  517SOL    HW2 2232   1.817   0.755   4.039
  518SOL     OW 2233   0.492   1.416   3.883
  518SOL    HW1 2234   0.417   1.388   3.935
  518SOL    HW2 2235   0.474   1.384   3.795
  519SOL     OW 2236   1.671   1.265   4.370
  519SOL    HW1 2237   1.765   1.270   4.384
  519SOL    HW2 2238   1.638   1.352   4.392
  520SOL     OW 2239   1.394   0.572   3.795
  520SOL    HW1 2240   1.333   0.553   3.867
  520SOL    HW2 2241   1.479   0.541   3.827
  521SOL     OW 2242   0.522   0.265   4.045
  521SOL    HW1 2243   0.568   0.216   3.976
  521SOL    HW2 2244   0.504   0.350   4.005
  522SOL     OW 2245   1.753   1.238   5.299
  522SOL    HW1 2246   1.841   1.200   5.293
  522SOL    HW2 2247   1.768   1.329   5.327
  523SOL     OW 2248   1.059   1.353   5.057
  523SOL    HW1 2249   0.985   1.322   5.109
  523SOL    HW2 2250   1.135   1.312   5.099
  524SOL     OW 2251   1.607   1.624   5.377
  524SOL    HW1 2252   1.602   1.660   5.288
  524SOL    HW2 2253   1.691   1.578   5.380
  525SOL     OW 2254   1.127   1.202   4.830
  525SOL    HW1 2255   1.069   1.241   4.895
  525SOL    HW2 2256   1.094   1.235   4.746
  526SOL     OW 2257   1.629   1.099   4.802
  526SOL    HW1 2258   1.625   1.161   4.874
  526SOL    HW2 2259   1.550   1.115   4.751
  527SOL     OW 2260   0.906   0.106   5.115
  527SOL    HW1 2261   0.936   0.073   5.031
  527SOL    HW2 2262   0.982   0.148   5.153
  528SOL     OW 2263   0.984   1.114   5.446
  528SOL    HW1 2264   0.892   1.130   5.466
  528SOL    HW2 2265   0.984   1.037   5.390
  529SOL     OW 2266   0.707   1.059   4.096
  529SOL    HW1 2267   0.696   1.045   4.190
  529SOL    HW2 2268   0.784   1.007   4.073
  530SOL     OW 2269   0.420   0.819   4.976
  530SOL    HW1 2270   0.489   0.825   5.042
  530SOL    HW2 2271   0.385   0.730   4.986
  531SOL     OW 2272   1.267   0.379   4.996
  531SOL    HW1 2273   1.300   0.456   5.043
  531SOL    HW2 2274   1.177   0.401   4.973
  532SOL     OW 2275   0.101   1.623   5.092
  532SOL    HW1 2276   0.078   1.633   4.999
  532SOL    HW2 2277   0.187   1.581   5.091
  533SOL     OW 2278   0.344   1.105   4.213
  533SOL    HW1 2279   0.354   1.184   4.160
  533SOL    HW2 2280   0.355   1.033   4.150
  534SOL     OW 2281   0.556   0.538   4.584
  534SOL    HW1 2282   0.572   0.596   4.510
  534SOL    HW2 2283   0.620   0.565   4.649
  535SOL     OW 2284   1.248   1.348   4.113
  535SOL    HW1 2285   1.303   1.420   4.144
  535SOL    HW2 2286   1.161   1.369   4.147
  536SOL     OW 2287   1.280   1.457   4.871
  536SOL    HW1 2288   1.336   1.460   4.948
  536SOL    HW2 2289   1.224   1.380   4.884
  537SOL     OW 2290   1.582   0.623   4.202
  537SOL    HW1 2291   1.536   0.679   4.265
  537SOL    HW2 2292   1.627   0.685   4.144
  538SOL     OW 2293   0.352   1.519   5.035
  538SOL    HW1 2294   0.342   1.476   4.950
  538SOL    HW2 2295   0.445   1.537   5.042
  539SOL     OW 2296   0.414   0.741   5.326
  539SOL    HW1 2297   0.472   0.790   5.268
  539SOL    HW2 2298   0.460   0.659   5.342
  540SOL     OW 2299   1.600   0.778   5.405
  540SOL    HW1 2300   1.514   0.819   5.398
  540SOL    HW2 2301   1.652   0.820   5.337
  541SOL     OW 2302   1.041   0.116   5.505
  541SOL    HW1 2303   1.067   0.195   5.458
  541SOL    HW2 2304   1.050   0.045   5.441
  542SOL     OW 2305   0.483   0.058   5.463
  542SOL    HW1 2306   0.428   5.290   5.422
  542SOL    HW2 2307   0.422   0.130   5.480
  543SOL     OW 2308   0.585   0.873   4.756
  543SOL    HW1 2309   0.616   0.964   4.754
  543SOL    HW2 2310   0.529   0.869   4.833
  544SOL     OW 2311   1.359   0.859   4.755
  544SOL    HW1 2312   1.276   0.850   4.707
  544SOL    HW2 2313   1.398   0.772   4.750
  545SOL     OW 2314   1.206   0.529   3.992
  545SOL    HW1 2315   1.211   0.448   4.043
  545SOL    HW2 2316   1.164   0.592   4.050
  546SOL     OW 2317   0.305   0.206   4.969
  546SOL    HW1 2318   0.265   0.237   5.050
  546SOL    HW2 2319   0.295   0.111   4.972
  547SOL     OW 2320   0.070   1.319   5.005
  547SOL    HW1 2321   0.090   1.259   5.077
  547SOL    HW2 2322   0.003   1.377   5.040
  548SOL     OW 2323   0.727   0.632   4.785
  548SOL    HW1 2324   0.799   0.614   4.725
  548SOL    HW2 2325   0.698   0.721   4.762
  549SOL     OW 2326   1.734   0.959   5.576
  549SOL    HW1 2327   1.687   0.900   5.517
  549SOL    HW2 2328   1.674   0.972   5.650
  550SOL     OW 2329   0.318   0.067   4.376
  550SOL    HW1 2330   0.299   0.161   4.386
  550SOL    HW2 2331   0.319   0.034   4.466
  551SOL     OW 2332   1.611   0.374   4.090
  551SOL    HW1 2333   1.645   0.311   4.154
  551SOL    HW2 2334   1.591   0.452   4.142
  552SOL     OW 2335   1.027   0.759   4.685
  552SOL    HW1 2336   1.025   0.777   4.779
  552SOL    HW2 2337   1.001   0.668   4.677
  553SOL     OW 2338   0.981   1.565   5.440
  553SOL    HW1 2339   0.967   1.610   5.357
  553SOL    HW2 2340   1.026   1.484   5.416
  554SOL     OW 2341   1.855   1.507   5.330
  554SOL    HW1 2342   1.872   1.532   5.239
  554SOL    HW2 2343   1.937   1.526   5.376
  555SOL     OW 2344   0.353   0.916   5.531
  555SOL    HW1 2345   0.434   0.937   5.577
  555SOL    HW2 2346   0.379   0.853   5.464
  556SOL     OW 2347   1.527   0.273   3.850
  556SOL    HW1 2348   1.463   0.208   3.881
  556SOL    HW2 2349   1.563   0.311   3.930
  557SOL     OW 2350   1.293   0.827   3.756
  557SOL    HW1 2351   1.335   0.741   3.759
  557SOL    HW2 2352   1.324   0.866   3.674
  558SOL     OW 2353   1.066   1.335   4.577
  558SOL    HW1 2354   1.069   1.263   4.515
  558SOL    HW2 2355   1.128   1.400   4.543
  559SOL     OW 2356   0.315   0.811   4.674
  559SOL    HW1 2357   0.409   0.829   4.669
  559SOL    HW2 2358   0.309   0.720   4.705
  560SOL     OW 2359   0.337   0.526   4.739
  560SOL    HW1 2360   0.299   0.439   4.722
  560SOL    HW2 2361   0.411   0.531   4.679
  561SOL     OW 2362   1.136   0.378   5.411
  561SOL    HW1 2363   1.088   0.433   5.474
  561SOL    HW2 2364   1.223   0.417   5.407
  562SOL     OW 2365   1.134   0.223   5.189
  562SOL    HW1 2366   1.139   0.281   5.265
  562SOL    HW2 2367   1.189   0.265   5.123
  563SOL     OW 2368   0.001   1.331   3.934
  563SOL    HW1 2369   5.226   1.321   3.876
  563SOL    HW2 2370   0.012   1.244   3.974
  564SOL     OW 2371   0.092   1.782   4.674
  564SOL    HW1 2372   0.059   1.711   4.619
  564SOL    HW2 2373   0.179   1.800   4.639
  565SOL     OW 2374   0.505   1.573   4.631
  565SOL    HW1 2375   0.573   1.638   4.652
  565SOL    HW2 2376   0.549   1.512   4.572
  566SOL     OW 2377   0.985   0.793   4.951
  566SOL    HW1 2378   1.040   0.769   5.026
  566SOL    HW2 2379   0.899   0.756   4.972
  567SOL     OW 2380   0.036   0.563   4.842
  567SOL    HW1 2381   0.119   0.533   4.804
  567SOL    HW2 2382   0.039   0.534   4.933
  568SOL     OW 2383   0.168   0.514   5.438
  568SOL    HW1 2384   0.252   0.494   5.396
  568SOL    HW2 2385   0.137   0.593   5.395
  569SOL     OW 2386   1.376   0.940   5.383
  569SOL    HW1 2387   1.398   1.033   5.382
  569SOL    HW2 2388   1.374   0.915   5.290
  570SOL     OW 2389   0.814   0.571   4.084
  570SOL    HW1 2390   0.818   0.497   4.024
  570SOL    HW2 2391   0.740   0.624   4.053
  571SOL     OW 2392   1.642   0.601   4.911
  571SOL    HW1 2393   1.631   0.542   4.985
  571SOL    HW2 2394   1.730   0.581   4.877
  572SOL     OW 2395   0.257   1.556   5.459
  572SOL    HW1 2396   0.233   1.619   5.528
  572SOL    HW2 2397   0.249   1.470   5.502
  573SOL     OW 2398   0.695   0.454   4.986
  573SOL    HW1 2399   0.647   0.379   4.951
  573SOL    HW2 2400   0.696   0.517   4.915
  574SOL     OW 2401   0.929   1.679   5.191
  574SOL    HW1 2402   0.902   1.646   5.105
  574SOL    HW2 2403   0.925   1.774   5.182
  575SOL     OW 2404   0.464   0.493   3.905
  575SOL    HW1 2405   0.527   0.562   3.928
  575SOL    HW2 2406   0.380   0.537   3.899
  576SOL     OW 2407   0.148   1.138   5.195
  576SOL    HW1 2408   0.147   1.088   5.277
  576SOL    HW2 2409   0.161   1.071   5.127
  577SOL     OW 2410   1.327   1.048   4.948
  577SOL    HW1 2411   1.351   0.985   4.880
  577SOL    HW2 2412   1.255   1.099   4.909
  578SOL     OW 2413   1.310   0.857   4.031
  578SOL    HW1 2414   1.234   0.826   4.080
  578SOL    HW2 2415   1.286   0.843   3.939
  579SOL     OW 2416   1.760   1.746   4.869
  579SOL    HW1 2417   1.826   1.774   4.806
  579SOL    HW2 2418   1.744   1.654   4.849
  580SOL     OW 2419   1.241   1.733   4.837
  580SOL    HW1 2420   1.323   1.753   4.793
  580SOL    HW2 2421   1.246   1.639   4.856
  581SOL     OW 2422   0.083   1.218   4.751
  581SOL    HW1 2423   0.069   1.244   4.843
  581SOL    HW2 2424   5.294   1.207   4.717
  582SOL     OW 2425   0.678   1.665   5.452
  582SOL    HW1 2426   0.623   1.744   5.447
  582SOL    HW2 2427   0.742   1.676   5.381
  583SOL     OW 2428   1.712   0.147   4.228
  583SOL    HW1 2429   1.788   0.127   4.173
  583SOL    HW2 2430   1.705   0.072   4.287
  584SOL     OW 2431   1.390   1.567   4.209
  584SOL    HW1 2432   1.449   1.599   4.141
  584SOL    HW2 2433   1.341   1.645   4.236
  585SOL     OW 2434   0.144   1.798   5.567
  585SOL    HW1 2435   0.089   1.735   5.613
  585SOL    HW2 2436   0.190   1.846   5.636
  586SOL     OW 2437   1.277   0.925   4.395
  586SOL    HW1 2438   1.351   0.864   4.401
  586SOL    HW2 2439   1.311   0.998   4.343
  587SOL     OW 2440   0.816   1.272   5.155
  587SOL    HW1 2441   0.788   1.312   5.237
  587SOL    HW2 2442   0.746   1.295   5.093
  588SOL     OW 2443   0.672   1.618   3.879
  588SOL    HW1 2444   0.682   1.631   3.785
  588SOL    HW2 2445   0.618   1.540   3.887
  589SOL     OW 2446   1.627   1.727   5.115
  589SOL    HW1 2447   1.676   1.734   5.033
  589SOL    HW2 2448   1.613   1.817   5.143
  590SOL     OW 2449   1.845   0.158   4.682
  590SOL    HW1 2450   1.846   0.063   4.665
  590SOL    HW2 2451   1.758   0.186   4.654
  591SOL     OW 2452   0.270   0.328   4.443
  591SOL    HW1 2453   0.184   0.366   4.426
  591SOL    HW2 2454   0.271   0.313   4.537
  592SOL     OW 2455   1.207   1.607   3.755
  592SOL    HW1 2456   1.198   1.515   3.782
  592SOL    HW2 2457   1.142   1.619   3.686
  593SOL     OW 2458   0.824   1.006   5.096
  593SOL    HW1 2459   0.868   1.002   5.011
  593SOL    HW2 2460   0.824   1.099   5.119
  594SOL     OW 2461   0.915   0.910   4.014
  594SOL    HW1 2462   0.976   0.942   3.947
  594SOL    HW2 2463   0.963   0.841   4.059
  595SOL     OW 2464   1.494   1.624   3.766
  595SOL    HW1 2465   1.399   1.620   3.754
  595SOL    HW2 2466   1.529   1.631   3.678
  596SOL     OW 2467   0.368   1.303   5.217
  596SOL    HW1 2468   0.359   1.378   5.158
  596SOL    HW2 2469   0.292   1.249   5.197
  597SOL     OW 2470   1.610   1.283   5.004
  597SOL    HW1 2471   1.673   1.275   5.076
  597SOL    HW2 2472   1.551   1.353   5.031
  598SOL     OW 2473   1.050   1.106   4.430
  598SOL    HW1 2474   0.980   1.055   4.469
  598SOL    HW2 2475   1.113   1.041   4.398
  599SOL     OW 2476   1.020   0.242   4.691
  599SOL    HW1 2477   1.000   0.197   4.610
  599SOL    HW2 2478   1.012   0.175   4.759
  600SOL     OW 2479   0.601   1.487   4.206
  600SOL    HW1 2480   0.645   1.439   4.136
  600SOL    HW2 2481   0.535   1.540   4.160
  601SOL     OW 2482   1.723   0.387   5.102
  601SOL    HW1 2483   1.793   0.452   5.102
  601SOL    HW2 2484   1.755   0.317   5.045
  602SOL     OW 2485   0.260   1.348   4.016
  602SOL    HW1 2486   0.167   1.351   3.993
  602SOL    HW2 2487   0.264   1.385   4.104
  603SOL     OW 2488   0.115   1.015   5.442
  603SOL    HW1 2489   0.044   0.982   5.496
  603SOL    HW2 2490   0.195   0.985   5.485
  604SOL     OW 2491   0.674   0.213   5.212
  604SOL    HW1 2492   0.757   0.196   5.169
  604SOL    HW2 2493   0.697   0.259   5.293
  605SOL     OW 2494   0.078   0.338   3.761
  605SOL    HW1 2495   5.287   0.311   3.748
  605SOL    HW2 2496   0.093   0.405   3.695
  606SOL     OW 2497   1.430   0.858   5.125
  606SOL    HW1 2498   1.382   0.919   5.069
  606SOL    HW2 2499   1.520   0.861   5.092
  607SOL     OW 2500   0.083   0.141   4.019
  607SOL    HW1 2501   0.076   0.234   4.001
  607SOL    HW2 2502   0.170   0.116   3.988
  608SOL     OW 2503   1.180   1.340   3.841
  608SOL    HW1 2504   1.088   1.310   3.844
  608SOL    HW2 2505   1.208   1.340   3.932
  609SOL     OW 2506   0.619   0.831   5.159
  609SOL    HW1 2507   0.674   0.908   5.143
  609SOL    HW2 2508   0.681   0.758   5.167
  610SOL     OW 2509   1.485   1.775   4.702
  610SOL    HW1 2510   1.508   1.838   4.633
  610SOL    HW2 2511   1.568   1.761   4.749
  611SOL     OW 2512   0.714   0.572   5.428
  611SOL    HW1 2513   0.755   0.636   5.486
  611SOL    HW2 2514   0.747   0.488   5.458
  612SOL     OW 2515   1.471   1.201   5.356
  612SOL    HW1 2516   1.459   1.215   5.450
  612SOL    HW2 2517   1.564   1.215   5.341
  613SOL     OW 2518   0.379   1.742   5.288
  613SOL    HW1 2519   0.296   1.787   5.273
  613SOL    HW2 2520   0.354   1.661   5.333
  614SOL     OW 2521   1.670   0.882   4.979
  614SOL    HW1 2522   1.663   0.796   4.936
  614SOL    HW2 2523   1.661   0.945   4.909
  615SOL     OW 2524   1.221   0.320   4.189
  615SOL    HW1 2525   1.284   0.248   4.182
  615SOL    HW2 2526   1.251   0.371   4.264
  616SOL     OW 2527   0.590   0.739   4.392
  616SOL    HW1 2528   0.629   0.824   4.376
  616SOL    HW2 2529   0.521   0.731   4.327
  617SOL     OW 2530   1.767   0.361   5.372
  617SOL    HW1 2531   1.747   0.375   5.280
  617SOL    HW2 2532   1.696   0.305   5.404
  618SOL     OW 2533   1.743   0.934   5.237
  618SOL    HW1 2534   1.744   1.028   5.250
  618SOL    HW2 2535   1.729   0.923   5.143
  619SOL     OW 2536   0.862   1.367   3.757
  619SOL    HW1 2537   0.824   1.396   3.839
  619SOL    HW2 2538   0.881   1.448   3.709
  620SOL     OW 2539   0.662   1.794   4.669
  620SOL    HW1 2540   0.641   1.885   4.646
  620SOL    HW2 2541   0.758   1.790   4.662
  621SOL     OW 2542   0.867   0.966   4.579
  621SOL    HW1 2543   0.917   0.895   4.619
  621SOL    HW2 2544   0.833   1.016   4.653
  622SOL     OW 2545   1.078   0.987   3.812
  622SOL    HW1 2546   1.058   1.038   3.734
  622SOL    HW2 2547   1.154   0.934   3.787
  623SOL     OW 2548   1.859   1.550   4.564
  623SOL    HW1 2549   1.775   1.543   4.517
  623SOL    HW2 2550   1.849   1.490   4.638
  624SOL     OW 2551   0.225   1.305   5.583
  624SOL    HW1 2552   0.156   1.244   5.558
  624SOL    HW2 2553   0.213   1.316   5.678
  625SOL     OW 2554   0.086   1.221   4.378
  625SOL    HW1 2555   0.098   1.189   4.467
  625SOL    HW2 2556   0.173   1.212   4.338
  626SOL     OW 2557   0.680   1.401   5.352
  626SOL    HW1 2558   0.600   1.359   5.381
  626SOL    HW2 2559   0.676   1.490   5.387
  627SOL     OW 2560   1.816   0.178   4.957
  627SOL    HW1 2561   1.784   0.088   4.965
  627SOL    HW2 2562   1.832   0.190   4.864
  628SOL     OW 2563   0.432   0.436   4.246
  628SOL    HW1 2564   0.463   0.362   4.194
  628SOL    HW2 2565   0.387   0.395   4.320
  629SOL     OW 2566   1.704   1.488   4.817
  629SOL    HW1 2567   1.621   1.464   4.776
  629SOL    HW2 2568   1.717   1.421   4.885
  630SOL     OW 2569   0.335   0.559   5.013
  630SOL    HW1 2570   0.392   0.502   5.064
  630SOL    HW2 2571   0.350   0.532   4.922
  631SOL     OW 2572   0.827   1.577   4.402
  631SOL    HW1 2573   0.817   1.630   4.323
  631SOL    HW2 2574   0.750   1.521   4.405
  632SOL     OW 2575   1.428   0.218   4.840
  632SOL    HW1 2576   1.465   0.144   4.888
  632SOL    HW2 2577   1.380   0.268   4.906
  633SOL     OW 2578   1.002   0.021   4.866
  633SOL    HW1 2579   0.951   5.252   4.823
  633SOL    HW2 2580   1.089   5.284   4.879
  634SOL     OW 2581   0.771   1.332   4.038
  634SOL    HW1 2582   0.740   1.242   4.044
  634SOL    HW2 2583   0.854   1.333   4.086
  635SOL     OW 2584   0.622   1.557   5.011
  635SOL    HW1 2585   0.624   1.639   5.060
  635SOL    HW2 2586   0.709   1.551   4.971
  636SOL     OW 2587   1.354   0.040   3.885
  636SOL    HW1 2588   1.387   5.297   3.806
  636SOL    HW2 2589   1.276   5.290   3.909
  637SOL     OW 2590   1.301   0.463   4.409
  637SOL    HW1 2591   1.246   0.541   4.415
  637SOL    HW2 2592   1.295   0.423   4.496
  638SOL     OW 2593   1.594   0.216   4.606
  638SOL    HW1 2594   1.527   0.227   4.673
  638SOL    HW2 2595   1.587   0.294   4.551
  639SOL     OW 2596   0.047   1.069   4.014
  639SOL    HW1 2597   0.137   1.038   4.004
  639SOL    HW2 2598   5.300   0.993   4.049
  640SOL     OW 2599   0.883   1.650   4.067
  640SOL    HW1 2600   0.811   1.635   4.006
  640SOL    HW2 2601   0.856   1.726   4.118
  641SOL     OW 2602   0.233   0.633   5.702
  641SOL    HW1 2603   0.156   0.608   5.753
  641SOL    HW2 2604   0.216   0.599   5.615
  642SOL     OW 2605   0.232   0.280   6.576
  642SOL    HW1 2606   0.252   0.244   6.662
  642SOL    HW2 2607   0.152   0.236   6.548
  643SOL     OW 2608   0.000   0.406   6.249
  643SOL    HW1 2609   5.207   0.427   6.254
  643SOL    HW2 2610   0.003   0.315   6.218
  644SOL     OW 2611   0.573   1.282   6.766
  644SOL    HW1 2612   0.490   1.291   6.719
  644SOL    HW2 2613   0.590   1.370   6.801
  645SOL     OW 2614   1.560   1.511   6.292
  645SOL    HW1 2615   1.516   1.492   6.375
  645SOL    HW2 2616   1.488   1.516   6.228
  646SOL     OW 2617   1.130   0.698   6.288
  646SOL    HW1 2618   1.180   0.779   6.274
  646SOL    HW2 2619   1.083   0.713   6.370
  647SOL     OW 2620   1.765   0.607   5.815
  647SOL    HW1 2621   1.746   0.599   5.722
  647SOL    HW2 2622   1.731   0.526   5.854
  648SOL     OW 2623   0.756   1.142   6.624
  648SOL    HW1 2624   0.689   1.176   6.683
  648SOL    HW2 2625   0.791   1.220   6.580
  649SOL     OW 2626   0.862   0.781   7.406
  649SOL    HW1 2627   0.855   0.856   7.465
  649SOL    HW2 2628   0.889   0.819   7.322
  650SOL     OW 2629   0.685   1.004   6.234
  650SOL    HW1 2630   0.751   0.991   6.302
  650SOL    HW2 2631   0.617   1.056   6.276
  651SOL     OW 2632   0.708   1.151   7.398
  651SOL    HW1 2633   0.757   1.230   7.423
  651SOL    HW2 2634   0.626   1.185   7.362
  652SOL     OW 2635   0.358   1.405   6.645
  652SOL    HW1 2636   0.270   1.405   6.608
  652SOL    HW2 2637   0.407   1.468   6.592
  653SOL     OW 2638   1.461   1.499   6.939
  653SOL    HW1 2639   1.510   1.581   6.948
  653SOL    HW2 2640   1.402   1.497   7.014
  654SOL     OW 2641   0.448   0.400   7.080
  654SOL    HW1 2642   0.527   0.347   7.073
  654SOL    HW2 2643   0.376   0.336   7.083
  655SOL     OW 2644   1.611   0.452   6.324
  655SOL    HW1 2645   1.535   0.477   6.270
  655SOL    HW2 2646   1.631   0.530   6.375
  656SOL     OW 2647   0.230   1.714   6.064
  656SOL    HW1 2648   0.265   1.783   6.121
  656SOL    HW2 2649   0.292   1.711   5.990
  657SOL     OW 2650   1.136   1.341   7.276
  657SOL    HW1 2651   1.176   1.338   7.363
  657SOL    HW2 2652   1.084   1.261   7.271
  658SOL     OW 2653   0.222   1.443   6.125
  658SOL    HW1 2654   0.214   1.538   6.122
  658SOL    HW2 2655   0.152   1.415   6.184
  659SOL     OW 2656   0.249   1.078   6.462
  659SOL    HW1 2657   0.260   0.994   6.505
  659SOL    HW2 2658   0.197   1.130   6.524
  660SOL     OW 2659   0.615   1.790   7.018
  660SOL    HW1 2660   0.531   1.773   7.061
  660SOL    HW2 2661   0.635   1.881   7.041
  661SOL     OW 2662   0.584   0.983   5.720
  661SOL    HW1 2663   0.629   1.031   5.651
  661SOL    HW2 2664   0.626   1.011   5.801
  662SOL     OW 2665   1.586   0.134   7.043
  662SOL    HW1 2666   1.606   0.219   7.004
  662SOL    HW2 2667   1.585   0.151   7.138
  663SOL     OW 2668   0.124   0.637   6.163
  663SOL    HW1 2669   0.089   0.554   6.195
  663SOL    HW2 2670   0.098   0.701   6.228
  664SOL     OW 2671   1.842   1.760   5.923
  664SOL    HW1 2672   1.906   1.731   5.988
  664SOL    HW2 2673   1.867   1.850   5.902
  665SOL     OW 2674   0.037   1.599   5.717
  665SOL    HW1 2675   0.024   1.507   5.742
  665SOL    HW2 2676   5.283   1.648   5.778
  666SOL     OW 2677   1.689   0.918   6.226
  666SOL    HW1 2678   1.773   0.877   6.205
  666SOL    HW2 2679   1.668   0.969   6.147
  667SOL     OW 2680   1.645   1.107   6.016
  667SOL    HW1 2681   1.731   1.114   5.973
  667SOL    HW2 2682   1.651   1.168   6.089
  668SOL     OW 2683   0.129   0.748   7.174
  668SOL    HW1 2684   0.223   0.763   7.176
  668SOL    HW2 2685   0.091   0.835   7.188
  669SOL     OW 2686   0.615   1.384   6.321
  669SOL    HW1 2687   0.567   1.302   6.331
  669SOL    HW2 2688   0.597   1.411   6.230
  670SOL     OW 2689   1.289   1.238   7.010
  670SOL    HW1 2690   1.322   1.171   6.950
  670SOL    HW2 2691   1.346   1.232   7.087
  671SOL     OW 2692   0.813   0.025   6.111
  671SOL    HW1 2693   0.841   0.114   6.088
  671SOL    HW2 2694   0.718   0.027   6.104
  672SOL     OW 2695   0.177   0.947   6.864
  672SOL    HW1 2696   0.268   0.918   6.853
  672SOL    HW2 2697   0.134   0.922   6.782
  673SOL     OW 2698   1.531   0.993   5.784
  673SOL    HW1 2699   1.462   0.935   5.815
  673SOL    HW2 2700   1.572   1.027   5.863
  674SOL     OW 2701   1.185   1.805   7.207
  674SOL    HW1 2702   1.197   1.864   7.132
  674SOL    HW2 2703   1.201   1.718   7.172
  675SOL     OW 2704   0.324   0.271   7.388
  675SOL    HW1 2705   0.386   0.335   7.423
  675SOL    HW2 2706   0.244   0.284   7.439
  676SOL     OW 2707   1.466   1.420   6.538
  676SOL    HW1 2708   1.398   1.435   6.604
  676SOL    HW2 2709   1.454   1.329   6.511
  677SOL     OW 2710   1.659   1.738   6.164
  677SOL    HW1 2711   1.639   1.709   6.075
  677SOL    HW2 2712   1.634   1.664   6.220
  678SOL     OW 2713   0.595   0.721   5.850
  678SOL    HW1 2714   0.604   0.802   5.800
  678SOL    HW2 2715   0.530   0.742   5.918
  679SOL     OW 2716   1.279   0.345   6.516
  679SOL    HW1 2717   1.188   0.317   6.529
  679SOL    HW2 2718   1.328   0.296   6.582
  680SOL     OW 2719   1.581   1.669   5.895
  680SOL    HW1 2720   1.671   1.702   5.889
  680SOL    HW2 2721   1.555   1.652   5.805
  681SOL     OW 2722   0.794   0.617   7.038
  681SOL    HW1 2723   0.766   0.596   7.127
  681SOL    HW2 2724   0.751   0.552   6.983
  682SOL     OW 2725   1.395   0.475   7.264
  682SOL    HW1 2726   1.396   0.519   7.348
  682SOL    HW2 2727   1.458   0.404   7.273
  683SOL     OW 2728   0.955   0.887   7.168
  683SOL    HW1 2729   1.010   0.817   7.132
  683SOL    HW2 2730   0.908   0.922   7.092
  684SOL     OW 2731   0.994   0.416   6.822
  684SOL    HW1 2732   0.909   0.439   6.862
  684SOL    HW2 2733   0.971   0.368   6.743
  685SOL     OW 2734   1.050   0.698   6.013
  685SOL    HW1 2735   1.065   0.691   6.107
  685SOL    HW2 2736   0.968   0.652   5.998
  686SOL     OW 2737   0.072   0.787   6.399
  686SOL    HW1 2738   0.155   0.793   6.447
  686SOL    HW2 2739   0.061   0.874   6.359
  687SOL     OW 2740   0.131   1.882   7.170
  687SOL    HW1 2741   0.131   1.851   7.261
  687SOL    HW2 2742   0.058   1.834   7.129
  688SOL     OW 2743   0.871   0.362   5.774
  688SOL    HW1 2744   0.916   0.422   5.714
  688SOL    HW2 2745   0.923   0.282   5.771
  689SOL     OW 2746   1.709   0.576   7.415
  689SOL    HW1 2747   1.672   0.651   7.368
  689SOL    HW2 2748   1.737   0.516   7.346
  690SOL     OW 2749   1.376   1.142   6.127
  690SOL    HW1 2750   1.455   1.129   6.075
  690SOL    HW2 2751   1.324   1.204   6.077
  691SOL     OW 2752   0.538   0.201   6.470
  691SOL    HW1 2753   0.554   0.219   6.562
  691SOL    HW2 2754   0.550   0.286   6.426
  692SOL     OW 2755   1.006   1.444   6.059
  692SOL    HW1 2756   0.968   1.516   6.009
  692SOL    HW2 2757   0.991   1.467   6.150
  693SOL     OW 2758   0.356   1.802   6.455
  693SOL    HW1 2759   0.397   1.716   6.468
  693SOL    HW2 2760   0.423   1.865   6.482
  694SOL     OW 2761   1.799   1.057   6.454
  694SOL    HW1 2762   1.744   1.041   6.377
  694SOL    HW2 2763   1.737   1.063   6.527
  695SOL     OW 2764   1.228   1.539   7.099
  695SOL    HW1 2765   1.214   1.466   7.159
  695SOL    HW2 2766   1.165   1.524   7.028
  696SOL     OW 2767   0.317   0.952   5.833
  696SOL    HW1 2768   0.399   0.976   5.790
  696SOL    HW2 2769   0.295   0.867   5.796
  697SOL     OW 2770   1.477   0.741   6.314
  697SOL    HW1 2771   1.469   0.698   6.398
  697SOL    HW2 2772   1.555   0.797   6.323
  698SOL     OW 2773   0.464   1.262   7.323
  698SOL    HW1 2774   0.437   1.269   7.232
  698SOL    HW2 2775   0.382   1.264   7.373
  699SOL     OW 2776   1.121   1.778   5.817
  699SOL    HW1 2777   1.049   1.735   5.863
  699SOL    HW2 2778   1.144   1.717   5.747
  700SOL     OW 2779   0.198   0.279   7.078
  700SOL    HW1 2780   0.157   0.365   7.074
  700SOL    HW2 2781   0.205   0.260   7.171
  701SOL     OW 2782   1.628   1.379   5.674
  701SOL    HW1 2783   1.588   1.465   5.658
  701SOL    HW2 2784   1.559   1.316   5.654
  702SOL     OW 2785   0.471   1.735   5.906
  702SOL    HW1 2786   0.513   1.793   5.970
  702SOL    HW2 2787   0.543   1.705   5.850
  703SOL     OW 2788   1.406   0.100   6.017
  703SOL    HW1 2789   1.398   0.082   5.923
  703SOL    HW2 2790   1.499   0.122   6.029
  704SOL     OW 2791   0.275   1.801   6.801
  704SOL    HW1 2792   0.307   1.725   6.850
  704SOL    HW2 2793   0.226   1.765   6.728
  705SOL     OW 2794   0.939   1.698   6.486
  705SOL    HW1 2795   1.016   1.646   6.506
  705SOL    HW2 2796   0.894   1.649   6.417
  706SOL     OW 2797   0.385   0.696   6.065
  706SOL    HW1 2798   0.415   0.605   6.073
  706SOL    HW2 2799   0.292   0.693   6.086
  707SOL     OW 2800   1.540   0.228   7.311
  707SOL    HW1 2801   1.546   0.246   7.404
  707SOL    HW2 2802   1.465   0.169   7.303
  708SOL     OW 2803   0.621   0.133   5.693
  708SOL    HW1 2804   0.690   0.071   5.717
  708SOL    HW2 2805   0.574   0.091   5.621
  709SOL     OW 2806   0.781   0.312   7.349
  709SOL    HW1 2807   0.842   0.239   7.352
  709SOL    HW2 2808   0.740   0.312   7.435
  710SOL     OW 2809   0.877   1.521   6.779
  710SOL    HW1 2810   0.861   1.485   6.692
  710SOL    HW2 2811   0.947   1.467   6.816
  711SOL     OW 2812   1.341   0.589   7.018
  711SOL    HW1 2813   1.372   0.558   7.103
  711SOL    HW2 2814   1.377   0.677   7.011
  712SOL     OW 2815   0.815   1.395   6.524
  712SOL    HW1 2816   0.899   1.385   6.480
  712SOL    HW2 2817   0.750   1.396   6.454
  713SOL     OW 2818   0.927   0.510   6.490
  713SOL    HW1 2819   0.903   0.502   6.397
  713SOL    HW2 2820   0.959   0.423   6.514
  714SOL     OW 2821   0.547   0.059   6.090
  714SOL    HW1 2822   0.468   0.060   6.144
  714SOL    HW2 2823   0.535   0.131   6.029
  715SOL     OW 2824   1.428   1.198   5.627
  715SOL    HW1 2825   1.459   1.122   5.677
  715SOL    HW2 2826   1.343   1.219   5.665
  716SOL     OW 2827   0.313   0.063   5.770
  716SOL    HW1 2828   0.379   0.128   5.748
  716SOL    HW2 2829   0.363   5.282   5.785
  717SOL     OW 2830   0.939   0.261   6.049
  717SOL    HW1 2831   0.911   0.299   5.965
  717SOL    HW2 2832   1.034   0.272   6.049
  718SOL     OW 2833   1.080   0.681   7.046
  718SOL    HW1 2834   1.012   0.614   7.051
  718SOL    HW2 2835   1.162   0.630   7.039
  719SOL     OW 2836   1.224   1.569   6.380
  719SOL    HW1 2837   1.240   1.637   6.314
  719SOL    HW2 2838   1.292   1.583   6.446
  720SOL     OW 2839   0.467   1.149   6.319
  720SOL    HW1 2840   0.397   1.130   6.382
  720SOL    HW2 2841   0.428   1.131   6.233
  721SOL     OW 2842   1.270   1.794   6.193
  721SOL    HW1 2843   1.315   1.855   6.135
  721SOL    HW2 2844   1.204   1.848   6.238
  722SOL     OW 2845   1.026   0.547   5.608
  722SOL    HW1 2846   0.984   0.631   5.589
  722SOL    HW2 2847   1.090   0.567   5.676
  723SOL     OW 2848   0.096   0.532   6.996
  723SOL    HW1 2849   0.177   0.551   6.949
  723SOL    HW2 2850   0.076   0.613   7.043
  724SOL     OW 2851   0.560   0.239   6.744
  724SOL    HW1 2852   0.591   0.152   6.770
  724SOL    HW2 2853   0.468   0.239   6.768
  725SOL     OW 2854   0.868   0.462   6.227
  725SOL    HW1 2855   0.822   0.515   6.162
  725SOL    HW2 2856   0.890   0.382   6.181
  726SOL     OW 2857   0.979   0.060   6.348
  726SOL    HW1 2858   0.914   0.054   6.278
  726SOL    HW2 2859   0.987   5.271   6.381
  727SOL     OW 2860   1.437   1.163   6.444
  727SOL    HW1 2861   1.368   1.096   6.441
  727SOL    HW2 2862   1.461   1.175   6.352
  728SOL     OW 2863   1.467   0.605   6.565
  728SOL    HW1 2864   1.418   0.522   6.569
  728SOL    HW2 2865   1.527   0.600   6.639
  729SOL     OW 2866   1.846   0.817   5.968
  729SOL    HW1 2867   1.902   0.766   6.026
  729SOL    HW2 2868   1.817   0.755   5.901
  730SOL     OW 2869   0.492   1.416   5.745
  730SOL    HW1 2870   0.417   1.388   5.797
  730SOL    HW2 2871   0.474   1.384   5.657
  731SOL     OW 2872   1.669   1.264   6.234
  731SOL    HW1 2873   1.764   1.268   6.246
  731SOL    HW2 2874   1.639   1.352   6.254
  732SOL     OW 2875   1.394   0.572   5.657
  732SOL    HW1 2876   1.333   0.553   5.729
  732SOL    HW2 2877   1.479   0.541   5.689
  733SOL     OW 2878   0.522   0.265   5.907
  733SOL    HW1 2879   0.568   0.216   5.838
  733SOL    HW2 2880   0.504   0.350   5.867
  734SOL     OW 2881   1.753   1.238   7.160
  734SOL    HW1 2882   1.841   1.199   7.156
  734SOL    HW2 2883   1.767   1.328   7.190
  735SOL     OW 2884   1.059   1.353   6.919
  735SOL    HW1 2885   0.985   1.322   6.971
  735SOL    HW2 2886   1.135   1.312   6.961
  736SOL     OW 2887   1.607   1.625   7.238
  736SOL    HW1 2888   1.603   1.659   7.148
  736SOL    HW2 2889   1.690   1.578   7.242
  737SOL     OW 2890   1.127   1.202   6.692
  737SOL    HW1 2891   1.069   1.241   6.757
  737SOL    HW2 2892   1.094   1.235   6.608
  738SOL     OW 2893   1.629   1.099   6.664
  738SOL    HW1 2894   1.625   1.161   6.737
  738SOL    HW2 2895   1.550   1.116   6.613
  739SOL     OW 2896   0.905   0.106   6.977
  739SOL    HW1 2897   0.936   0.072   6.893
  739SOL    HW2 2898   0.982   0.148   7.015
  740SOL     OW 2899   0.984   1.114   7.310
  740SOL    HW1 2900   0.892   1.131   7.328
  740SOL    HW2 2901   0.984   1.037   7.253
  741SOL     OW 2902   0.707   1.059   5.958
  741SOL    HW1 2903   0.696   1.045   6.052
  741SOL    HW2 2904   0.784   1.007   5.935
  742SOL     OW 2905   0.420   0.819   6.838
  742SOL    HW1 2906   0.490   0.825   6.904
  742SOL    HW2 2907   0.385   0.730   6.848
  743SOL     OW 2908   1.268   0.379   6.858
  743SOL    HW1 2909   1.300   0.456   6.905
  743SOL    HW2 2910   1.177   0.402   6.835
  744SOL     OW 2911   0.101   1.623   6.954
  744SOL    HW1 2912   0.078   1.633   6.861
  744SOL    HW2 2913   0.187   1.581   6.953
  745SOL     OW 2914   0.344   1.105   6.075
  745SOL    HW1 2915   0.354   1.184   6.022
  745SOL    HW2 2916   0.355   1.033   6.012
  746SOL     OW 2917   0.556   0.538   6.446
  746SOL    HW1 2918   0.571   0.596   6.372
  746SOL    HW2 2919   0.620   0.565   6.511
  747SOL     OW 2920   1.248   1.348   5.975
  747SOL    HW1 2921   1.304   1.420   6.006
  747SOL    HW2 2922   1.161   1.369   6.009
  748SOL     OW 2923   1.280   1.457   6.733
  748SOL    HW1 2924   1.335   1.460   6.810
  748SOL    HW2 2925   1.224   1.380   6.746
  749SOL     OW 2926   1.582   0.623   6.064
  749SOL    HW1 2927   1.537   0.679   6.127
  749SOL    HW2 2928   1.628   0.685   6.007
  750SOL     OW 2929   0.352   1.519   6.897
  750SOL    HW1 2930   0.342   1.476   6.812
  750SOL    HW2 2931   0.445   1.537   6.904
  751SOL     OW 2932   0.414   0.741   7.188
  751SOL    HW1 2933   0.472   0.790   7.130
  751SOL    HW2 2934   0.460   0.659   7.204
  752SOL     OW 2935   1.600   0.778   7.267
  752SOL    HW1 2936   1.514   0.819   7.260
  752SOL    HW2 2937   1.652   0.820   7.199
  753SOL     OW 2938   1.040   0.115   7.368
  753SOL    HW1 2939   1.068   0.194   7.322
  753SOL    HW2 2940   1.050   0.045   7.303
  754SOL     OW 2941   0.482   0.058   7.324
  754SOL    HW1 2942   0.428   5.291   7.284
  754SOL    HW2 2943   0.422   0.130   7.342
  755SOL     OW 2944   0.585   0.873   6.618
  755SOL    HW1 2945   0.617   0.964   6.616
  755SOL    HW2 2946   0.529   0.869   6.695
  756SOL     OW 2947   1.359   0.859   6.617
  756SOL    HW1 2948   1.277   0.851   6.569
  756SOL    HW2 2949   1.398   0.772   6.612
  757SOL     OW 2950   1.206   0.529   5.854
  757SOL    HW1 2951   1.211   0.448   5.905
  757SOL    HW2 2952   1.164   0.592   5.912
  758SOL     OW 2953   0.305   0.206   6.831
  758SOL    HW1 2954   0.264   0.237   6.912
  758SOL    HW2 2955   0.295   0.111   6.834
  759SOL     OW 2956   0.070   1.319   6.867
  759SOL    HW1 2957   0.090   1.259   6.939
  759SOL    HW2 2958   0.002   1.377   6.902
  760SOL     OW 2959   0.727   0.632   6.647
  760SOL    HW1 2960   0.799   0.614   6.588
  760SOL    HW2 2961   0.698   0.721   6.624
  761SOL     OW 2962   1.735   0.959   7.438
  761SOL    HW1 2963   1.686   0.900   7.380
  761SOL    HW2 2964   1.677   0.973   7.513
  762SOL     OW 2965   0.318   0.067   6.238
  762SOL    HW1 2966   0.299   0.161   6.248
  762SOL    HW2 2967   0.319   0.034   6.328
  763SOL     OW 2968   1.611   0.374   5.952
  763SOL    HW1 2969   1.645   0.311   6.016
  763SOL    HW2 2970   1.591   0.452   6.004
  764SOL     OW 2971   1.027   0.759   6.547
  764SOL    HW1 2972   1.025   0.777   6.641
  764SOL    HW2 2973   1.001   0.668   6.539
  765SOL     OW 2974   0.981   1.565   7.302
  765SOL    HW1 2975   0.967   1.610   7.219
  765SOL    HW2 2976   1.026   1.484   7.278
  766SOL     OW 2977   1.855   1.507   7.191
  766SOL    HW1 2978   1.873   1.533   7.101
  766SOL    HW2 2979   1.936   1.526   7.238
  767SOL     OW 2980   0.353   0.914   7.395
  767SOL    HW1 2981   0.435   0.938   7.438
  767SOL    HW2 2982   0.379   0.852   7.327
  768SOL     OW 2983   1.527   0.272   5.712
  768SOL    HW1 2984   1.463   0.208   5.743
  768SOL    HW2 2985   1.563   0.311   5.792
  769SOL     OW 2986   1.292   0.827   5.618
  769SOL    HW1 2987   1.335   0.741   5.621
  769SOL    HW2 2988   1.324   0.866   5.536
  770SOL     OW 2989   1.066   1.335   6.440
  770SOL    HW1 2990   1.069   1.263   6.377
  770SOL    HW2 2991   1.127   1.399   6.405
  771SOL     OW 2992   0.315   0.811   6.536
  771SOL    HW1 2993   0.409   0.829   6.531
  771SOL    HW2 2994   0.309   0.720   6.567
  772SOL     OW 2995   0.337   0.526   6.601
  772SOL    HW1 2996   0.299   0.439   6.584
  772SOL    HW2 2997   0.411   0.531   6.541
  773SOL     OW 2998   1.136   0.378   7.273
  773SOL    HW1 2999   1.089   0.432   7.336
  773SOL    HW2 3000   1.223   0.416   7.268
  774SOL     OW 3001   1.134   0.223   7.051
  774SOL    HW1 3002   1.139   0.281   7.127
  774SOL    HW2 3003   1.189   0.264   6.985
  775SOL     OW 3004   0.001   1.331   5.796
  775SOL    HW1 3005   5.226   1.321   5.738
  775SOL    HW2 3006   0.012   1.244   5.836
  776SOL     OW 3007   0.092   1.782   6.536
  776SOL    HW1 3008   0.059   1.711   6.481
  776SOL    HW2 3009   0.179   1.800   6.501
  777SOL     OW 3010   0.505   1.573   6.493
  777SOL    HW1 3011   0.572   1.638   6.514
  777SOL    HW2 3012   0.549   1.512   6.434
  778SOL     OW 3013   0.985   0.793   6.813
  778SOL    HW1 3014   1.040   0.769   6.888
  778SOL    HW2 3015   0.899   0.756   6.834
  779SOL     OW 3016   0.036   0.563   6.703
  779SOL    HW1 3017   0.119   0.533   6.666
  779SOL    HW2 3018   0.039   0.534   6.794
  780SOL     OW 3019   0.170   0.513   7.298
  780SOL    HW1 3020   0.253   0.494   7.254
  780SOL    HW2 3021   0.138   0.592   7.256
  781SOL     OW 3022   1.376   0.940   7.245
  781SOL    HW1 3023   1.397   1.033   7.245
  781SOL    HW2 3024   1.374   0.915   7.153
  782SOL     OW 3025   0.814   0.571   5.946
  782SOL    HW1 3026   0.818   0.497   5.886
  782SOL    HW2 3027   0.740   0.624   5.915
  783SOL     OW 3028   1.642   0.601   6.773
  783SOL    HW1 3029   1.631   0.542   6.847
  783SOL    HW2 3030   1.729   0.581   6.739
  784SOL     OW 3031   0.256   1.556   7.322
  784SOL    HW1 3032   0.233   1.618   7.391
  784SOL    HW2 3033   0.249   1.470   7.363
  785SOL     OW 3034   0.694   0.454   6.848
  785SOL    HW1 3035   0.647   0.379   6.813
  785SOL    HW2 3036   0.696   0.517   6.777
  786SOL     OW 3037   0.929   1.679   7.053
  786SOL    HW1 3038   0.902   1.646   6.967
  786SOL    HW2 3039   0.925   1.774   7.045
  787SOL     OW 3040   0.464   0.493   5.767
  787SOL    HW1 3041   0.527   0.562   5.790
  787SOL    HW2 3042   0.380   0.537   5.761
  788SOL     OW 3043   0.149   1.138   7.057
  788SOL    HW1 3044   0.146   1.088   7.139
  788SOL    HW2 3045   0.161   1.071   6.989
  789SOL     OW 3046   1.327   1.048   6.810
  789SOL    HW1 3047   1.351   0.984   6.742
  789SOL    HW2 3048   1.256   1.099   6.771
  790SOL     OW 3049   1.310   0.856   5.893
  790SOL    HW1 3050   1.234   0.826   5.942
  790SOL    HW2 3051   1.287   0.843   5.801
  791SOL     OW 3052   1.770   1.745   6.735
  791SOL    HW1 3053   1.831   1.771   6.666
  791SOL    HW2 3054   1.747   1.655   6.714
  792SOL     OW 3055   1.241   1.733   6.700
  792SOL    HW1 3056   1.323   1.753   6.655
  792SOL    HW2 3057   1.246   1.639   6.718
  793SOL     OW 3058   0.083   1.218   6.613
  793SOL    HW1 3059   0.070   1.244   6.705
  793SOL    HW2 3060   5.294   1.207   6.579
  794SOL     OW 3061   0.677   1.664   7.312
  794SOL    HW1 3062   0.624   1.744   7.310
  794SOL    HW2 3063   0.742   1.676   7.243
  795SOL     OW 3064   1.712   0.147   6.090
  795SOL    HW1 3065   1.788   0.127   6.035
  795SOL    HW2 3066   1.705   0.072   6.149
  796SOL     OW 3067   1.390   1.568   6.070
  796SOL    HW1 3068   1.451   1.599   6.003
  796SOL    HW2 3069   1.342   1.646   6.098
  797SOL     OW 3070   0.140   1.799   7.429
  797SOL    HW1 3071   0.089   1.735   7.478
  797SOL    HW2 3072   0.193   1.843   7.496
  798SOL     OW 3073   1.277   0.925   6.257
  798SOL    HW1 3074   1.351   0.864   6.263
  798SOL    HW2 3075   1.310   0.998   6.205
  799SOL     OW 3076   0.816   1.272   7.017
  799SOL    HW1 3077   0.788   1.312   7.099
  799SOL    HW2 3078   0.747   1.295   6.955
  800SOL     OW 3079   0.672   1.618   5.741
  800SOL    HW1 3080   0.682   1.631   5.647
  800SOL    HW2 3081   0.618   1.540   5.750
  801SOL     OW 3082   1.628   1.727   6.977
  801SOL    HW1 3083   1.678   1.734   6.895
  801SOL    HW2 3084   1.615   1.817   7.005
  802SOL     OW 3085   1.845   0.158   6.544
  802SOL    HW1 3086   1.846   0.064   6.527
  802SOL    HW2 3087   1.758   0.186   6.516
  803SOL     OW 3088   0.270   0.328   6.304
  803SOL    HW1 3089   0.184   0.366   6.288
  803SOL    HW2 3090   0.271   0.313   6.399
  804SOL     OW 3091   1.206   1.607   5.617
  804SOL    HW1 3092   1.198   1.515   5.644
  804SOL    HW2 3093   1.142   1.618   5.548
  805SOL     OW 3094   0.824   1.006   6.958
  805SOL    HW1 3095   0.868   1.002   6.873
  805SOL    HW2 3096   0.824   1.099   6.981
  806SOL     OW 3097   0.915   0.910   5.876
  806SOL    HW1 3098   0.976   0.942   5.809
  806SOL    HW2 3099   0.963   0.841   5.921
  807SOL     OW 3100   1.493   1.624   5.628
  807SOL    HW1 3101   1.398   1.620   5.615
  807SOL    HW2 3102   1.529   1.631   5.540
  808SOL     OW 3103   0.367   1.303   7.079
  808SOL    HW1 3104   0.359   1.378   7.020
  808SOL    HW2 3105   0.291   1.249   7.059
  809SOL     OW 3106   1.611   1.283   6.867
  809SOL    HW1 3107   1.671   1.273   6.941
  809SOL    HW2 3108   1.551   1.352   6.893
  810SOL     OW 3109   1.050   1.106   6.292
  810SOL    HW1 3110   0.980   1.055   6.331
  810SOL    HW2 3111   1.113   1.041   6.260
  811SOL     OW 3112   1.020   0.242   6.554
  811SOL    HW1 3113   1.000   0.197   6.472
  811SOL    HW2 3114   1.012   0.175   6.621
  812SOL     OW 3115   0.601   1.487   6.068
  812SOL    HW1 3116   0.645   1.439   5.998
  812SOL    HW2 3117   0.535   1.540   6.022
  813SOL     OW 3118   1.723   0.387   6.965
  813SOL    HW1 3119   1.793   0.452   6.964
  813SOL    HW2 3120   1.755   0.317   6.907
  814SOL     OW 3121   0.260   1.348   5.878
  814SOL    HW1 3122   0.167   1.351   5.855
  814SOL    HW2 3123   0.264   1.385   5.966
  815SOL     OW 3124   0.115   1.014   7.302
  815SOL    HW1 3125   0.043   0.985   7.358
  815SOL    HW2 3126   0.194   0.983   7.348
  816SOL     OW 3127   0.674   0.213   7.075
  816SOL    HW1 3128   0.757   0.196   7.032
  816SOL    HW2 3129   0.698   0.259   7.156
  817SOL     OW 3130   0.078   0.338   5.623
  817SOL    HW1 3131   5.287   0.311   5.610
  817SOL    HW2 3132   0.093   0.405   5.557
  818SOL     OW 3133   1.430   0.858   6.987
  818SOL    HW1 3134   1.382   0.919   6.931
  818SOL    HW2 3135   1.520   0.861   6.953
  819SOL     OW 3136   0.083   0.141   5.881
  819SOL    HW1 3137   0.076   0.234   5.863
  819SOL    HW2 3138   0.170   0.116   5.850
  820SOL     OW 3139   1.180   1.340   5.703
  820SOL    HW1 3140   1.089   1.310   5.706
  820SOL    HW2 3141   1.208   1.340   5.794
  821SOL     OW 3142   0.619   0.831   7.021
  821SOL    HW1 3143   0.674   0.908   7.005
  821SOL    HW2 3144   0.681   0.758   7.029
  822SOL     OW 3145   1.484   1.775   6.564
  822SOL    HW1 3146   1.508   1.834   6.492
  822SOL    HW2 3147   1.567   1.758   6.609
  823SOL     OW 3148   0.713   0.573   7.291
  823SOL    HW1 3149   0.755   0.636   7.349
  823SOL    HW2 3150   0.747   0.488   7.319
  824SOL     OW 3151   1.470   1.201   7.218
  824SOL    HW1 3152   1.458   1.214   7.312
  824SOL    HW2 3153   1.564   1.215   7.204
  825SOL     OW 3154   0.379   1.742   7.150
  825SOL    HW1 3155   0.296   1.787   7.135
  825SOL    HW2 3156   0.354   1.661   7.194
  826SOL     OW 3157   1.670   0.882   6.841
  826SOL    HW1 3158   1.663   0.796   6.798
  826SOL    HW2 3159   1.661   0.945   6.770
  827SOL     OW 3160   1.221   0.319   6.051
  827SOL    HW1 3161   1.284   0.248   6.044
  827SOL    HW2 3162   1.251   0.371   6.126
  828SOL     OW 3163   0.590   0.739   6.255
  828SOL    HW1 3164   0.629   0.824   6.238
  828SOL    HW2 3165   0.521   0.731   6.189
  829SOL     OW 3166   1.767   0.360   7.235
  829SOL    HW1 3167   1.748   0.375   7.143
  829SOL    HW2 3168   1.695   0.305   7.266
  830SOL     OW 3169   1.744   0.933   7.099
  830SOL    HW1 3170   1.743   1.028   7.112
  830SOL    HW2 3171   1.729   0.922   7.005
  831SOL     OW 3172   0.862   1.367   5.618
  831SOL    HW1 3173   0.824   1.396   5.701
  831SOL    HW2 3174   0.882   1.448   5.571
  832SOL     OW 3175   0.662   1.794   6.531
  832SOL    HW1 3176   0.641   1.885   6.508
  832SOL    HW2 3177   0.758   1.790   6.524
  833SOL     OW 3178   0.867   0.965   6.441
  833SOL    HW1 3179   0.917   0.895   6.481
  833SOL    HW2 3180   0.833   1.016   6.515
  834SOL     OW 3181   1.078   0.986   5.674
  834SOL    HW1 3182   1.058   1.039   5.596
  834SOL    HW2 3183   1.154   0.934   5.649
  835SOL     OW 3184   1.855   1.555   6.431
  835SOL    HW1 3185   1.777   1.543   6.376
  835SOL    HW2 3186   1.847   1.488   6.498
  836SOL     OW 3187   0.225   1.305   7.445
  836SOL    HW1 3188   0.154   1.245   7.420
  836SOL    HW2 3189   0.212   1.317   7.540
  837SOL     OW 3190   0.086   1.220   6.240
  837SOL    HW1 3191   0.098   1.189   6.329
  837SOL    HW2 3192   0.173   1.212   6.200
  838SOL     OW 3193   0.680   1.401   7.213
  838SOL    HW1 3194   0.599   1.359   7.243
  838SOL    HW2 3195   0.677   1.490   7.249
  839SOL     OW 3196   1.816   0.178   6.819
  839SOL    HW1 3197   1.783   0.088   6.827
  839SOL    HW2 3198   1.832   0.190   6.726
  840SOL     OW 3199   0.432   0.436   6.108
  840SOL    HW1 3200   0.463   0.362   6.056
  840SOL    HW2 3201   0.387   0.395   6.182
  841SOL     OW 3202   1.701   1.490   6.684
  841SOL    HW1 3203   1.620   1.466   6.639
  841SOL    HW2 3204   1.713   1.421   6.749
  842SOL     OW 3205   0.335   0.559   6.875
  842SOL    HW1 3206   0.393   0.502   6.925
  842SOL    HW2 3207   0.349   0.533   6.784
  843SOL     OW 3208   0.827   1.577   6.265
  843SOL    HW1 3209   0.817   1.630   6.185
  843SOL    HW2 3210   0.750   1.521   6.267
  844SOL     OW 3211   1.428   0.218   6.702
  844SOL    HW1 3212   1.465   0.144   6.750
  844SOL    HW2 3213   1.380   0.267   6.769
  845SOL     OW 3214   1.002   0.021   6.728
  845SOL    HW1 3215   0.952   5.252   6.685
  845SOL    HW2 3216   1.089   5.284   6.741
  846SOL     OW 3217   0.771   1.332   5.900
  846SOL    HW1 3218   0.741   1.242   5.906
  846SOL    HW2 3219   0.854   1.333   5.948
  847SOL     OW 3220   0.622   1.557   6.873
  847SOL    HW1 3221   0.624   1.639   6.922
  847SOL    HW2 3222   0.709   1.551   6.833
  848SOL     OW 3223   1.354   0.040   5.747
  848SOL    HW1 3224   1.387   5.298   5.668
  848SOL    HW2 3225   1.275   5.290   5.770
  849SOL     OW 3226   1.301   0.463   6.271
  849SOL    HW1 3227   1.246   0.541   6.277
  849SOL    HW2 3228   1.294   0.423   6.358
  850SOL     OW 3229   1.594   0.216   6.467
  850SOL    HW1 3230   1.527   0.227   6.535
  850SOL    HW2 3231   1.588   0.294   6.413
  851SOL     OW 3232   0.047   1.069   5.876
  851SOL    HW1 3233   0.137   1.038   5.866
  851SOL    HW2 3234   5.300   0.993   5.911
  852SOL     OW 3235   0.883   1.650   5.929
  852SOL    HW1 3236   0.811   1.635   5.868
  852SOL    HW2 3237   0.856   1.726   5.980
  853SOL     OW 3238   0.229   0.631   7.566
  853SOL    HW1 3239   0.150   0.597   7.608
  853SOL    HW2 3240   0.222   0.603   7.475
  854SOL     OW 3241   1.767   0.599   7.680
  854SOL    HW1 3242   1.747   0.594   7.586
  854SOL    HW2 3243   1.725   0.522   7.717
  855SOL     OW 3244   0.228   1.708   7.920
  855SOL    HW1 3245   0.264   1.752   7.998
  855SOL    HW2 3246   0.299   1.713   7.856
  856SOL     OW 3247   0.218   1.436   7.990
  856SOL    HW1 3248   0.208   1.531   7.985
  856SOL    HW2 3249   0.154   1.409   8.057
  857SOL     OW 3250   0.584   0.983   7.580
  857SOL    HW1 3251   0.629   1.032   7.511
  857SOL    HW2 3252   0.626   1.013   7.661
  858SOL     OW 3253   1.837   1.760   7.798
  858SOL    HW1 3254   1.907   1.729   7.855
  858SOL    HW2 3255   1.864   1.848   7.772
  859SOL     OW 3256   0.037   1.601   7.581
  859SOL    HW1 3257   0.027   1.508   7.601
  859SOL    HW2 3258   5.278   1.645   7.643
  860SOL     OW 3259   1.684   0.868   8.035
  860SOL    HW1 3260   1.765   0.880   0.005
  860SOL    HW2 3261   1.671   0.952   7.990
  861SOL     OW 3262   1.654   1.099   7.876
  861SOL    HW1 3263   1.741   1.124   7.846
  861SOL    HW2 3264   1.628   1.170   7.935
  862SOL     OW 3265   0.810   5.291   7.944
  862SOL    HW1 3266   0.851   0.076   7.931
  862SOL    HW2 3267   0.716   0.009   7.942
  863SOL     OW 3268   1.533   0.994   7.648
  863SOL    HW1 3269   1.466   0.935   7.682
  863SOL    HW2 3270   1.576   1.029   7.726
  864SOL     OW 3271   0.588   0.723   7.707
  864SOL    HW1 3272   0.598   0.804   7.657
  864SOL    HW2 3273   0.533   0.747   7.782
  865SOL     OW 3274   1.575   1.670   7.757
  865SOL    HW1 3275   1.665   1.700   7.765
  865SOL    HW2 3276   1.563   1.657   7.663
  866SOL     OW 3277   0.051   0.816   0.201
  866SOL    HW1 3278   0.124   0.768   0.163
  866SOL    HW2 3279   0.029   0.882   0.136
  867SOL     OW 3280   0.866   0.355   7.630
  867SOL    HW1 3281   0.914   0.420   7.577
  867SOL    HW2 3282   0.927   0.282   7.639
  868SOL     OW 3283   0.320   0.949   7.694
  868SOL    HW1 3284   0.400   0.976   7.650
  868SOL    HW2 3285   0.297   0.866   7.652
  869SOL     OW 3286   1.123   1.776   7.682
  869SOL    HW1 3287   1.047   1.735   7.724
  869SOL    HW2 3288   1.146   1.716   7.611
  870SOL     OW 3289   1.629   1.380   7.533
  870SOL    HW1 3290   1.587   1.465   7.520
  870SOL    HW2 3291   1.560   1.316   7.516
  871SOL     OW 3292   0.470   1.737   7.769
  871SOL    HW1 3293   0.515   1.791   7.834
  871SOL    HW2 3294   0.539   1.704   7.713
  872SOL     OW 3295   1.408   0.106   7.881
  872SOL    HW1 3296   1.403   0.083   7.789
  872SOL    HW2 3297   1.502   0.112   7.899
  873SOL     OW 3298   0.378   0.697   7.921
  873SOL    HW1 3299   0.403   0.605   7.925
  873SOL    HW2 3300   0.289   0.700   7.956
  874SOL     OW 3301   0.616   0.131   7.559
  874SOL    HW1 3302   0.692   0.077   7.578
  874SOL    HW2 3303   0.574   0.089   7.484
  875SOL     OW 3304   0.545   0.062   7.952
  875SOL    HW1 3305   0.454   0.047   7.976
  875SOL    HW2 3306   0.543   0.135   7.891
  876SOL     OW 3307   1.428   1.197   7.489
  876SOL    HW1 3308   1.459   1.123   7.542
  876SOL    HW2 3309   1.344   1.221   7.528
  877SOL     OW 3310   0.313   0.069   7.651
  877SOL    HW1 3311   0.372   0.125   7.601
  877SOL    HW2 3312   0.359   5.285   7.658
  878SOL     OW 3313   0.950   0.228   7.909
  878SOL    HW1 3314   0.899   0.298   7.867
  878SOL    HW2 3315   1.038   0.264   7.918
  879SOL     OW 3316   0.447   1.157   0.092
  879SOL    HW1 3317   0.374   1.179   0.150
  879SOL    HW2 3318   0.406   1.140   0.008
  880SOL     OW 3319   1.290   1.811   8.014
  880SOL    HW1 3320   1.325   1.880   7.958
  880SOL    HW2 3321   1.208   1.846   8.048
  881SOL     OW 3322   1.028   0.547   7.466
  881SOL    HW1 3323   0.984   0.631   7.451
  881SOL    HW2 3324   1.087   0.564   7.539
  882SOL     OW 3325   1.870   0.818   7.802
  882SOL    HW1 3326   1.870   0.787   7.892
  882SOL    HW2 3327   1.830   0.747   7.752
  883SOL     OW 3328   0.491   1.414   7.607
  883SOL    HW1 3329   0.416   1.386   7.659
  883SOL    HW2 3330   0.471   1.384   7.518
  884SOL     OW 3331   1.393   0.572   7.519
  884SOL    HW1 3332   1.332   0.552   7.590
  884SOL    HW2 3333   1.478   0.539   7.551
  885SOL     OW 3334   0.524   0.270   7.773
  885SOL    HW1 3335   0.566   0.217   7.705
  885SOL    HW2 3336   0.504   0.353   7.730
  886SOL     OW 3337   0.709   1.060   7.814
  886SOL    HW1 3338   0.693   1.050   7.908
  886SOL    HW2 3339   0.788   1.008   7.797
  887SOL     OW 3340   0.347   1.094   7.929
  887SOL    HW1 3341   0.348   1.178   7.884
  887SOL    HW2 3342   0.350   1.029   7.859
  888SOL     OW 3343   1.225   1.356   7.821
  888SOL    HW1 3344   1.288   1.423   7.847
  888SOL    HW2 3345   1.182   1.331   7.903
  889SOL     OW 3346   1.589   0.628   7.921
  889SOL    HW1 3347   1.572   0.686   7.996
  889SOL    HW2 3348   1.628   0.685   7.855
  890SOL     OW 3349   1.204   0.526   7.716
  890SOL    HW1 3350   1.206   0.439   7.756
  890SOL    HW2 3351   1.181   0.585   7.788
  891SOL     OW 3352   1.616   0.376   7.815
  891SOL    HW1 3353   1.637   0.308   7.879
  891SOL    HW2 3354   1.591   0.452   7.867
  892SOL     OW 3355   1.529   0.273   7.575
  892SOL    HW1 3356   1.465   0.208   7.605
  892SOL    HW2 3357   1.565   0.310   7.656
  893SOL     OW 3358   1.294   0.828   7.482
  893SOL    HW1 3359   1.335   0.741   7.483
  893SOL    HW2 3360   1.325   0.867   7.400
  894SOL     OW 3361   0.003   1.333   7.656
  894SOL    HW1 3362   5.219   1.332   7.609
  894SOL    HW2 3363   0.013   1.244   7.690
  895SOL     OW 3364   0.835   0.598   7.766
  895SOL    HW1 3365   0.826   0.508   7.734
  895SOL    HW2 3366   0.746   0.633   7.765
  896SOL     OW 3367   0.461   0.493   7.633
  896SOL    HW1 3368   0.524   0.563   7.651
  896SOL    HW2 3369   0.377   0.538   7.624
  897SOL     OW 3370   1.311   0.851   7.755
  897SOL    HW1 3371   1.224   0.851   7.795
  897SOL    HW2 3372   1.294   0.841   7.661
  898SOL     OW 3373   1.708   0.129   7.946
  898SOL    HW1 3374   1.784   0.130   7.887
  898SOL    HW2 3375   1.739   0.083   8.023
  899SOL     OW 3376   1.365   1.576   7.897
  899SOL    HW1 3377   1.440   1.597   7.841
  899SOL    HW2 3378   1.333   1.661   7.927
  900SOL     OW 3379   0.668   1.618   7.604
  900SOL    HW1 3380   0.680   1.630   7.509
  900SOL    HW2 3381   0.617   1.538   7.612
  901SOL     OW 3382   1.208   1.608   7.478
  901SOL    HW1 3383   1.198   1.516   7.506
  901SOL    HW2 3384   1.142   1.619   7.410
  902SOL     OW 3385   0.924   0.911   7.753
  902SOL    HW1 3386   0.979   0.936   7.679
  902SOL    HW2 3387   0.924   0.815   7.753
  903SOL     OW 3388   1.494   1.625   7.488
  903SOL    HW1 3389   1.399   1.619   7.477
  903SOL    HW2 3390   1.529   1.631   7.399
  904SOL     OW 3391   0.603   1.504   7.936
  904SOL    HW1 3392   0.648   1.445   7.876
  904SOL    HW2 3393   0.534   1.544   7.884
  905SOL     OW 3394   0.259   1.347   7.741
  905SOL    HW1 3395   0.167   1.351   7.717
  905SOL    HW2 3396   0.263   1.383   7.829
  906SOL     OW 3397   0.077   0.344   7.487
  906SOL    HW1 3398   5.290   0.308   7.468
  906SOL    HW2 3399   0.092   0.408   7.417
  907SOL     OW 3400   0.067   0.142   7.736
  907SOL    HW1 3401   0.069   0.237   7.723
  907SOL    HW2 3402   0.156   0.114   7.715
  908SOL     OW 3403   1.177   1.339   7.556
  908SOL    HW1 3404   1.085   1.314   7.558
  908SOL    HW2 3405   1.202   1.345   7.649
  909SOL     OW 3406   1.223   0.319   7.916
  909SOL    HW1 3407   1.289   0.250   7.909
  909SOL    HW2 3408   1.246   0.367   7.995
  910SOL     OW 3409   0.622   0.740   8.048
  910SOL    HW1 3410   0.629   0.818   0.023
  910SOL    HW2 3411   0.530   0.738   8.021
  911SOL     OW 3412   0.862   1.367   7.481
  911SOL    HW1 3413   0.824   1.396   7.564
  911SOL    HW2 3414   0.882   1.449   7.434
  912SOL     OW 3415   1.072   0.978   7.536
  912SOL    HW1 3416   1.055   1.036   7.462
  912SOL    HW2 3417   1.152   0.931   7.512
  913SOL     OW 3418   0.398   0.426   7.981
  913SOL    HW1 3419   0.447   0.367   7.924
  913SOL    HW2 3420   0.439   0.417   8.066
  914SOL     OW 3421   0.766   1.334   7.759
  914SOL    HW1 3422   0.735   1.244   7.762
  914SOL    HW2 3423   0.847   1.334   7.810
  915SOL     OW 3424   1.362   0.039   7.610
  915SOL    HW1 3425   1.378   5.293   7.528
  915SOL    HW2 3426   1.282   5.299   7.644
  916SOL     OW 3427   0.047   1.070   7.722
  916SOL    HW1 3428   0.137   1.038   7.723
  916SOL    HW2 3429   5.299   1.010   7.779
  917SOL     OW 3430   0.892   1.650   7.781
  917SOL    HW1 3431   0.816   1.627   7.728
  917SOL    HW2 3432   0.858   1.714   7.845
  918SOL     OW 3433   0.225   2.487   0.114
  918SOL    HW1 3434   0.155   2.446   0.164
  918SOL    HW2 3435   0.232   2.434   0.034
  919SOL     OW 3436   0.240   2.137   0.990
  919SOL    HW1 3437   0.255   2.104   1.078
  919SOL    HW2 3438   0.157   2.099   0.963
  920SOL     OW 3439   5.297   2.258   0.649
  920SOL    HW1 3440   5.206   2.285   0.659
  920SOL    HW2 3441   5.292   2.165   0.627
  921SOL     OW 3442   0.573   3.144   1.180
  921SOL    HW1 3443   0.490   3.152   1.133
  921SOL    HW2 3444   0.589   3.232   1.215
  922SOL     OW 3445   1.559   3.373   0.707
  922SOL    HW1 3446   1.516   3.354   0.790
  922SOL    HW2 3447   1.488   3.378   0.643
  923SOL     OW 3448   1.130   2.560   0.702
  923SOL    HW1 3449   1.180   2.641   0.688
  923SOL    HW2 3450   1.084   2.575   0.784
  924SOL     OW 3451   1.770   2.462   0.233
  924SOL    HW1 3452   1.730   2.466   0.146
  924SOL    HW2 3453   1.729   2.387   0.275
  925SOL     OW 3454   0.757   3.004   1.038
  925SOL    HW1 3455   0.689   3.038   1.097
  925SOL    HW2 3456   0.791   3.082   0.994
  926SOL     OW 3457   0.865   2.639   1.822
  926SOL    HW1 3458   0.855   2.711   1.884
  926SOL    HW2 3459   0.888   2.682   1.739
  927SOL     OW 3460   0.684   2.864   0.650
  927SOL    HW1 3461   0.750   2.853   0.718
  927SOL    HW2 3462   0.616   2.918   0.691
  928SOL     OW 3463   0.709   3.013   1.812
  928SOL    HW1 3464   0.757   3.091   1.837
  928SOL    HW2 3465   0.626   3.046   1.776
  929SOL     OW 3466   0.358   3.268   1.060
  929SOL    HW1 3467   0.271   3.265   1.021
  929SOL    HW2 3468   0.406   3.330   1.006
  930SOL     OW 3469   1.461   3.361   1.353
  930SOL    HW1 3470   1.510   3.443   1.362
  930SOL    HW2 3471   1.401   3.360   1.428
  931SOL     OW 3472   0.450   2.262   1.494
  931SOL    HW1 3473   0.524   2.201   1.495
  931SOL    HW2 3474   0.373   2.206   1.502
  932SOL     OW 3475   1.613   2.311   0.740
  932SOL    HW1 3476   1.537   2.334   0.686
  932SOL    HW2 3477   1.628   2.388   0.794
  933SOL     OW 3478   0.217   3.590   0.467
  933SOL    HW1 3479   0.260   3.646   0.532
  933SOL    HW2 3480   0.286   3.569   0.404
  934SOL     OW 3481   1.136   3.203   1.692
  934SOL    HW1 3482   1.177   3.199   1.779
  934SOL    HW2 3483   1.084   3.123   1.686
  935SOL     OW 3484   0.221   3.309   0.534
  935SOL    HW1 3485   0.202   3.403   0.540
  935SOL    HW2 3486   0.158   3.268   0.593
  936SOL     OW 3487   0.252   2.941   0.878
  936SOL    HW1 3488   0.259   2.855   0.920
  936SOL    HW2 3489   0.198   2.993   0.939
  937SOL     OW 3490   0.615   3.652   1.433
  937SOL    HW1 3491   0.531   3.635   1.475
  937SOL    HW2 3492   0.635   3.743   1.455
  938SOL     OW 3493   0.624   2.822   0.135
  938SOL    HW1 3494   0.580   2.902   0.106
  938SOL    HW2 3495   0.678   2.850   0.209
  939SOL     OW 3496   1.596   1.985   1.469
  939SOL    HW1 3497   1.599   2.065   1.417
  939SOL    HW2 3498   1.583   2.014   1.559
  940SOL     OW 3499   0.130   2.497   0.582
  940SOL    HW1 3500   0.087   2.414   0.606
  940SOL    HW2 3501   0.099   2.560   0.647
  941SOL     OW 3502   1.845   3.621   0.333
  941SOL    HW1 3503   1.908   3.591   0.398
  941SOL    HW2 3504   1.870   3.711   0.315
  942SOL     OW 3505   0.032   3.448   0.105
  942SOL    HW1 3506   0.024   3.362   0.146
  942SOL    HW2 3507   0.005   3.510   0.173
  943SOL     OW 3508   1.687   2.780   0.642
  943SOL    HW1 3509   1.771   2.740   0.620
  943SOL    HW2 3510   1.665   2.832   0.565
  944SOL     OW 3511   1.646   2.967   0.435
  944SOL    HW1 3512   1.725   2.983   0.384
  944SOL    HW2 3513   1.651   3.029   0.507
  945SOL     OW 3514   0.130   2.610   1.586
  945SOL    HW1 3515   0.224   2.624   1.590
  945SOL    HW2 3516   0.092   2.696   1.600
  946SOL     OW 3517   0.615   3.247   0.734
  946SOL    HW1 3518   0.567   3.164   0.745
  946SOL    HW2 3519   0.597   3.273   0.644
  947SOL     OW 3520   1.289   3.100   1.424
  947SOL    HW1 3521   1.322   3.033   1.364
  947SOL    HW2 3522   1.346   3.094   1.500
  948SOL     OW 3523   0.822   1.863   0.511
  948SOL    HW1 3524   0.861   1.948   0.490
  948SOL    HW2 3525   0.728   1.880   0.516
  949SOL     OW 3526   0.178   2.810   1.278
  949SOL    HW1 3527   0.269   2.781   1.267
  949SOL    HW2 3528   0.135   2.782   1.197
  950SOL     OW 3529   1.511   2.868   0.211
  950SOL    HW1 3530   1.450   2.801   0.243
  950SOL    HW2 3531   1.562   2.893   0.288
  951SOL     OW 3532   1.185   3.667   1.622
  951SOL    HW1 3533   1.197   3.726   1.547
  951SOL    HW2 3534   1.201   3.580   1.586
  952SOL     OW 3535   0.334   2.115   1.814
  952SOL    HW1 3536   0.382   2.197   1.827
  952SOL    HW2 3537   0.248   2.132   1.850
  953SOL     OW 3538   1.466   3.281   0.952
  953SOL    HW1 3539   1.398   3.296   1.018
  953SOL    HW2 3540   1.454   3.190   0.925
  954SOL     OW 3541   1.660   3.600   0.581
  954SOL    HW1 3542   1.639   3.572   0.492
  954SOL    HW2 3543   1.634   3.526   0.636
  955SOL     OW 3544   0.597   2.576   0.280
  955SOL    HW1 3545   0.617   2.654   0.228
  955SOL    HW2 3546   0.534   2.607   0.346
  956SOL     OW 3547   1.280   2.212   0.932
  956SOL    HW1 3548   1.190   2.180   0.940
  956SOL    HW2 3549   1.330   2.160   0.994
  957SOL     OW 3550   1.586   3.532   0.319
  957SOL    HW1 3551   1.677   3.563   0.312
  957SOL    HW2 3552   1.560   3.515   0.228
  958SOL     OW 3553   0.793   2.479   1.452
  958SOL    HW1 3554   0.765   2.456   1.541
  958SOL    HW2 3555   0.751   2.413   1.396
  959SOL     OW 3556   1.394   2.336   1.678
  959SOL    HW1 3557   1.395   2.380   1.762
  959SOL    HW2 3558   1.455   2.263   1.688
  960SOL     OW 3559   0.956   2.750   1.582
  960SOL    HW1 3560   1.010   2.679   1.547
  960SOL    HW2 3561   0.908   2.784   1.506
  961SOL     OW 3562   0.992   2.274   1.239
  961SOL    HW1 3563   0.907   2.297   1.278
  961SOL    HW2 3564   0.971   2.228   1.158
  962SOL     OW 3565   1.052   2.561   0.427
  962SOL    HW1 3566   1.066   2.554   0.521
  962SOL    HW2 3567   0.969   2.514   0.413
  963SOL     OW 3568   0.069   2.650   0.817
  963SOL    HW1 3569   0.153   2.654   0.862
  963SOL    HW2 3570   0.063   2.732   0.768
  964SOL     OW 3571   0.131   3.743   1.584
  964SOL    HW1 3572   0.133   3.712   1.674
  964SOL    HW2 3573   0.058   3.697   1.544
  965SOL     OW 3574   0.884   2.219   0.201
  965SOL    HW1 3575   0.929   2.268   0.132
  965SOL    HW2 3576   0.884   2.128   0.170
  966SOL     OW 3577   1.710   2.438   1.828
  966SOL    HW1 3578   1.672   2.512   1.781
  966SOL    HW2 3579   1.735   2.377   1.758
  967SOL     OW 3580   1.376   3.003   0.541
  967SOL    HW1 3581   1.454   2.990   0.488
  967SOL    HW2 3582   1.323   3.066   0.492
  968SOL     OW 3583   0.554   2.046   0.893
  968SOL    HW1 3584   0.552   2.073   0.985
  968SOL    HW2 3585   0.553   2.128   0.844
  969SOL     OW 3586   1.006   3.307   0.473
  969SOL    HW1 3587   0.967   3.379   0.423
  969SOL    HW2 3588   0.988   3.329   0.565
  970SOL     OW 3589   0.357   3.663   0.867
  970SOL    HW1 3590   0.398   3.578   0.881
  970SOL    HW2 3591   0.423   3.726   0.897
  971SOL     OW 3592   1.798   2.918   0.868
  971SOL    HW1 3593   1.742   2.903   0.792
  971SOL    HW2 3594   1.737   2.925   0.942
  972SOL     OW 3595   1.228   3.401   1.513
  972SOL    HW1 3596   1.214   3.328   1.573
  972SOL    HW2 3597   1.165   3.386   1.442
  973SOL     OW 3598   0.330   2.813   0.249
  973SOL    HW1 3599   0.411   2.827   0.200
  973SOL    HW2 3600   0.314   2.719   0.243
  974SOL     OW 3601   1.477   2.602   0.727
  974SOL    HW1 3602   1.468   2.559   0.812
  974SOL    HW2 3603   1.554   2.659   0.737
  975SOL     OW 3604   0.464   3.125   1.737
  975SOL    HW1 3605   0.437   3.131   1.646
  975SOL    HW2 3606   0.382   3.126   1.787
  976SOL     OW 3607   1.108   3.643   0.224
  976SOL    HW1 3608   1.052   3.602   0.291
  976SOL    HW2 3609   1.128   3.571   0.164
  977SOL     OW 3610   0.205   2.144   1.497
  977SOL    HW1 3611   0.125   2.195   1.482
  977SOL    HW2 3612   0.174   2.066   1.544
  978SOL     OW 3613   1.633   3.235   0.082
  978SOL    HW1 3614   1.593   3.322   0.081
  978SOL    HW2 3615   1.561   3.174   0.064
  979SOL     OW 3616   0.470   3.597   0.325
  979SOL    HW1 3617   0.512   3.657   0.386
  979SOL    HW2 3618   0.540   3.571   0.265
  980SOL     OW 3619   1.407   1.973   0.442
  980SOL    HW1 3620   1.397   1.952   0.350
  980SOL    HW2 3621   1.501   1.980   0.455
  981SOL     OW 3622   0.275   3.663   1.215
  981SOL    HW1 3623   0.307   3.587   1.264
  981SOL    HW2 3624   0.226   3.626   1.142
  982SOL     OW 3625   0.938   3.561   0.899
  982SOL    HW1 3626   1.016   3.508   0.920
  982SOL    HW2 3627   0.894   3.511   0.831
  983SOL     OW 3628   0.382   2.561   0.476
  983SOL    HW1 3629   0.414   2.471   0.485
  983SOL    HW2 3630   0.290   2.556   0.502
  984SOL     OW 3631   1.537   2.087   1.725
  984SOL    HW1 3632   1.545   2.108   1.818
  984SOL    HW2 3633   1.467   2.021   1.722
  985SOL     OW 3634   0.628   1.973   0.135
  985SOL    HW1 3635   0.723   1.961   0.141
  985SOL    HW2 3636   0.607   1.954   0.044
  986SOL     OW 3637   0.767   2.140   1.753
  986SOL    HW1 3638   0.842   2.079   1.757
  986SOL    HW2 3639   0.718   2.121   1.833
  987SOL     OW 3640   0.877   3.383   1.193
  987SOL    HW1 3641   0.861   3.347   1.106
  987SOL    HW2 3642   0.947   3.329   1.230
  988SOL     OW 3643   1.341   2.450   1.432
  988SOL    HW1 3644   1.372   2.419   1.517
  988SOL    HW2 3645   1.377   2.539   1.424
  989SOL     OW 3646   0.815   3.257   0.938
  989SOL    HW1 3647   0.899   3.247   0.894
  989SOL    HW2 3648   0.750   3.258   0.868
  990SOL     OW 3649   0.928   2.371   0.903
  990SOL    HW1 3650   0.904   2.363   0.810
  990SOL    HW2 3651   0.959   2.284   0.928
  991SOL     OW 3652   0.560   1.924   0.500
  991SOL    HW1 3653   0.485   1.924   0.560
  991SOL    HW2 3654   0.549   2.003   0.448
  992SOL     OW 3655   1.433   3.061   0.036
  992SOL    HW1 3656   1.458   2.987   0.092
  992SOL    HW2 3657   1.345   3.085   0.066
  993SOL     OW 3658   0.313   1.907   0.173
  993SOL    HW1 3659   0.376   1.979   0.177
  993SOL    HW2 3660   0.357   1.834   0.218
  994SOL     OW 3661   0.940   2.108   0.460
  994SOL    HW1 3662   0.911   2.150   0.378
  994SOL    HW2 3663   1.034   2.124   0.463
  995SOL     OW 3664   1.080   2.542   1.460
  995SOL    HW1 3665   1.010   2.476   1.465
  995SOL    HW2 3666   1.160   2.491   1.453
  996SOL     OW 3667   1.224   3.431   0.794
  996SOL    HW1 3668   1.240   3.499   0.728
  996SOL    HW2 3669   1.292   3.446   0.860
  997SOL     OW 3670   0.467   3.012   0.733
  997SOL    HW1 3671   0.398   2.992   0.796
  997SOL    HW2 3672   0.428   2.995   0.648
  998SOL     OW 3673   1.269   3.656   0.606
  998SOL    HW1 3674   1.317   3.719   0.553
  998SOL    HW2 3675   1.203   3.709   0.651
  999SOL     OW 3676   1.031   2.392   0.030
  999SOL    HW1 3677   0.990   2.473   8.079
  999SOL    HW2 3678   1.094   2.422   0.096
 1000SOL     OW 3679   0.086   2.408   1.397
 1000SOL    HW1 3680   0.174   2.415   1.361
 1000SOL    HW2 3681   0.079   2.484   1.456
 1001SOL     OW 3682   0.560   2.089   1.165
 1001SOL    HW1 3683   0.598   2.009   1.202
 1001SOL    HW2 3684   0.469   2.088   1.193
 1002SOL     OW 3685   0.868   2.321   0.639
 1002SOL    HW1 3686   0.825   2.376   0.574
 1002SOL    HW2 3687   0.889   2.240   0.592
 1003SOL     OW 3688   1.016   1.914   0.751
 1003SOL    HW1 3689   0.956   1.907   0.677
 1003SOL    HW2 3690   0.994   1.839   0.806
 1004SOL     OW 3691   1.437   3.025   0.857
 1004SOL    HW1 3692   1.368   2.959   0.856
 1004SOL    HW2 3693   1.460   3.037   0.765
 1005SOL     OW 3694   1.467   2.466   0.978
 1005SOL    HW1 3695   1.417   2.385   0.982
 1005SOL    HW2 3696   1.526   2.461   1.053
 1006SOL     OW 3697   1.850   2.678   0.389
 1006SOL    HW1 3698   1.901   2.623   0.448
 1006SOL    HW2 3699   1.818   2.617   0.322
 1007SOL     OW 3700   0.483   3.301   0.173
 1007SOL    HW1 3701   0.411   3.261   0.221
 1007SOL    HW2 3702   0.486   3.254   0.090
 1008SOL     OW 3703   1.669   3.127   0.648
 1008SOL    HW1 3704   1.764   3.131   0.661
 1008SOL    HW2 3705   1.639   3.215   0.669
 1009SOL     OW 3706   1.398   2.442   0.086
 1009SOL    HW1 3707   1.336   2.422   0.156
 1009SOL    HW2 3708   1.456   2.365   0.082
 1010SOL     OW 3709   0.516   2.125   0.324
 1010SOL    HW1 3710   0.565   2.073   0.260
 1010SOL    HW2 3711   0.503   2.210   0.281
 1011SOL     OW 3712   1.753   3.100   1.575
 1011SOL    HW1 3713   1.841   3.062   1.569
 1011SOL    HW2 3714   1.768   3.190   1.604
 1012SOL     OW 3715   1.059   3.215   1.334
 1012SOL    HW1 3716   0.984   3.184   1.385
 1012SOL    HW2 3717   1.135   3.174   1.375
 1013SOL     OW 3718   1.607   3.487   1.653
 1013SOL    HW1 3719   1.602   3.521   1.563
 1013SOL    HW2 3720   1.690   3.440   1.656
 1014SOL     OW 3721   1.127   3.064   1.106
 1014SOL    HW1 3722   1.069   3.103   1.171
 1014SOL    HW2 3723   1.094   3.096   1.022
 1015SOL     OW 3724   1.629   2.961   1.078
 1015SOL    HW1 3725   1.625   3.023   1.151
 1015SOL    HW2 3726   1.550   2.977   1.027
 1016SOL     OW 3727   0.919   1.959   1.398
 1016SOL    HW1 3728   0.940   1.941   1.306
 1016SOL    HW2 3729   0.998   1.999   1.434
 1017SOL     OW 3730   0.984   2.976   1.723
 1017SOL    HW1 3731   0.892   2.993   1.742
 1017SOL    HW2 3732   0.983   2.899   1.667
 1018SOL     OW 3733   0.713   2.923   0.380
 1018SOL    HW1 3734   0.697   2.907   0.473
 1018SOL    HW2 3735   0.791   2.872   0.360
 1019SOL     OW 3736   0.420   2.680   1.252
 1019SOL    HW1 3737   0.489   2.687   1.318
 1019SOL    HW2 3738   0.385   2.591   1.263
 1020SOL     OW 3739   1.266   2.239   1.274
 1020SOL    HW1 3740   1.298   2.317   1.320
 1020SOL    HW2 3741   1.176   2.262   1.251
 1021SOL     OW 3742   0.100   3.485   1.367
 1021SOL    HW1 3743   0.078   3.494   1.275
 1021SOL    HW2 3744   0.187   3.443   1.367
 1022SOL     OW 3745   0.347   2.969   0.488
 1022SOL    HW1 3746   0.347   3.048   0.435
 1022SOL    HW2 3747   0.361   2.898   0.426
 1023SOL     OW 3748   0.555   2.398   0.859
 1023SOL    HW1 3749   0.571   2.457   0.785
 1023SOL    HW2 3750   0.618   2.425   0.926
 1024SOL     OW 3751   1.247   3.209   0.393
 1024SOL    HW1 3752   1.303   3.282   0.422
 1024SOL    HW2 3753   1.160   3.232   0.425
 1025SOL     OW 3754   1.280   3.319   1.146
 1025SOL    HW1 3755   1.335   3.321   1.224
 1025SOL    HW2 3756   1.224   3.242   1.159
 1026SOL     OW 3757   1.584   2.487   0.480
 1026SOL    HW1 3758   1.535   2.537   0.545
 1026SOL    HW2 3759   1.619   2.552   0.420
 1027SOL     OW 3760   0.351   3.381   1.311
 1027SOL    HW1 3761   0.342   3.338   1.227
 1027SOL    HW2 3762   0.445   3.399   1.318
 1028SOL     OW 3763   0.413   2.605   1.602
 1028SOL    HW1 3764   0.473   2.651   1.544
 1028SOL    HW2 3765   0.453   2.519   1.615
 1029SOL     OW 3766   1.600   2.640   1.681
 1029SOL    HW1 3767   1.514   2.681   1.674
 1029SOL    HW2 3768   1.652   2.682   1.613
 1030SOL     OW 3769   0.996   1.983   1.756
 1030SOL    HW1 3770   1.050   2.056   1.726
 1030SOL    HW2 3771   1.045   1.905   1.730
 1031SOL     OW 3772   0.498   1.904   1.747
 1031SOL    HW1 3773   0.456   1.850   1.680
 1031SOL    HW2 3774   0.437   1.978   1.759
 1032SOL     OW 3775   0.585   2.735   1.032
 1032SOL    HW1 3776   0.615   2.826   1.030
 1032SOL    HW2 3777   0.528   2.730   1.109
 1033SOL     OW 3778   1.359   2.721   1.031
 1033SOL    HW1 3779   1.276   2.713   0.983
 1033SOL    HW2 3780   1.398   2.633   1.026
 1034SOL     OW 3781   1.205   2.390   0.271
 1034SOL    HW1 3782   1.212   2.311   0.325
 1034SOL    HW2 3783   1.162   2.454   0.328
 1035SOL     OW 3784   0.302   2.066   1.248
 1035SOL    HW1 3785   0.267   2.091   1.333
 1035SOL    HW2 3786   0.289   1.971   1.243
 1036SOL     OW 3787   0.070   3.181   1.281
 1036SOL    HW1 3788   0.090   3.121   1.353
 1036SOL    HW2 3789   0.003   3.239   1.316
 1037SOL     OW 3790   0.725   2.493   1.058
 1037SOL    HW1 3791   0.799   2.477   1.000
 1037SOL    HW2 3792   0.697   2.583   1.038
 1038SOL     OW 3793   1.734   2.821   1.852
 1038SOL    HW1 3794   1.686   2.762   1.793
 1038SOL    HW2 3795   1.675   2.834   1.926
 1039SOL     OW 3796   0.326   1.925   0.635
 1039SOL    HW1 3797   0.309   2.015   0.665
 1039SOL    HW2 3798   0.331   1.874   0.716
 1040SOL     OW 3799   1.619   2.236   0.370
 1040SOL    HW1 3800   1.644   2.172   0.437
 1040SOL    HW2 3801   1.594   2.314   0.420
 1041SOL     OW 3802   1.028   2.621   0.961
 1041SOL    HW1 3803   1.025   2.639   1.055
 1041SOL    HW2 3804   1.001   2.530   0.953
 1042SOL     OW 3805   0.982   3.428   1.716
 1042SOL    HW1 3806   0.967   3.472   1.633
 1042SOL    HW2 3807   1.026   3.346   1.692
 1043SOL     OW 3808   1.855   3.369   1.605
 1043SOL    HW1 3809   1.873   3.395   1.515
 1043SOL    HW2 3810   1.936   3.388   1.652
 1044SOL     OW 3811   0.353   2.780   1.806
 1044SOL    HW1 3812   0.435   2.799   1.853
 1044SOL    HW2 3813   0.378   2.715   1.740
 1045SOL     OW 3814   1.521   2.160   0.126
 1045SOL    HW1 3815   1.470   2.080   0.143
 1045SOL    HW2 3816   1.559   2.182   0.211
 1046SOL     OW 3817   1.294   2.687   0.022
 1046SOL    HW1 3818   1.334   2.601   0.039
 1046SOL    HW2 3819   1.353   2.728   8.038
 1047SOL     OW 3820   1.066   3.197   0.854
 1047SOL    HW1 3821   1.068   3.125   0.791
 1047SOL    HW2 3822   1.127   3.262   0.819
 1048SOL     OW 3823   0.315   2.672   0.950
 1048SOL    HW1 3824   0.408   2.690   0.946
 1048SOL    HW2 3825   0.309   2.582   0.982
 1049SOL     OW 3826   0.335   2.387   1.014
 1049SOL    HW1 3827   0.300   2.299   1.000
 1049SOL    HW2 3828   0.410   2.393   0.955
 1050SOL     OW 3829   1.134   2.239   1.681
 1050SOL    HW1 3830   1.087   2.293   1.744
 1050SOL    HW2 3831   1.222   2.277   1.677
 1051SOL     OW 3832   1.161   2.065   1.470
 1051SOL    HW1 3833   1.150   2.128   1.541
 1051SOL    HW2 3834   1.199   2.116   1.399
 1052SOL     OW 3835   0.008   3.192   0.203
 1052SOL    HW1 3836   5.233   3.181   0.145
 1052SOL    HW2 3837   0.014   3.110   0.251
 1053SOL     OW 3838   0.092   3.644   0.948
 1053SOL    HW1 3839   0.058   3.572   0.895
 1053SOL    HW2 3840   0.180   3.660   0.914
 1054SOL     OW 3841   0.505   3.435   0.907
 1054SOL    HW1 3842   0.573   3.500   0.928
 1054SOL    HW2 3843   0.548   3.373   0.848
 1055SOL     OW 3844   0.985   2.654   1.227
 1055SOL    HW1 3845   1.040   2.631   1.302
 1055SOL    HW2 3846   0.899   2.618   1.248
 1056SOL     OW 3847   0.033   2.419   1.114
 1056SOL    HW1 3848   0.121   2.397   1.083
 1056SOL    HW2 3849   0.038   2.404   1.209
 1057SOL     OW 3850   0.175   2.375   1.712
 1057SOL    HW1 3851   0.241   2.340   1.652
 1057SOL    HW2 3852   0.145   2.455   1.670
 1058SOL     OW 3853   1.377   2.802   1.659
 1058SOL    HW1 3854   1.398   2.895   1.658
 1058SOL    HW2 3855   1.374   2.777   1.567
 1059SOL     OW 3856   0.818   2.432   0.365
 1059SOL    HW1 3857   0.828   2.360   0.302
 1059SOL    HW2 3858   0.742   2.480   0.334
 1060SOL     OW 3859   1.642   2.463   1.187
 1060SOL    HW1 3860   1.631   2.404   1.262
 1060SOL    HW2 3861   1.729   2.443   1.153
 1061SOL     OW 3862   0.257   3.418   1.735
 1061SOL    HW1 3863   0.233   3.481   1.804
 1061SOL    HW2 3864   0.249   3.332   1.777
 1062SOL     OW 3865   0.699   2.313   1.261
 1062SOL    HW1 3866   0.647   2.239   1.230
 1062SOL    HW2 3867   0.696   2.376   1.188
 1063SOL     OW 3868   0.930   3.541   1.467
 1063SOL    HW1 3869   0.902   3.508   1.381
 1063SOL    HW2 3870   0.925   3.636   1.458
 1064SOL     OW 3871   0.467   2.352   0.181
 1064SOL    HW1 3872   0.532   2.419   0.200
 1064SOL    HW2 3873   0.383   2.398   0.185
 1065SOL     OW 3874   0.148   3.000   1.471
 1065SOL    HW1 3875   0.147   2.950   1.553
 1065SOL    HW2 3876   0.161   2.934   1.403
 1066SOL     OW 3877   1.327   2.910   1.224
 1066SOL    HW1 3878   1.351   2.847   1.156
 1066SOL    HW2 3879   1.256   2.961   1.185
 1067SOL     OW 3880   1.306   2.710   0.308
 1067SOL    HW1 3881   1.228   2.683   0.356
 1067SOL    HW2 3882   1.283   2.700   0.216
 1068SOL     OW 3883   1.770   3.607   1.149
 1068SOL    HW1 3884   1.831   3.633   1.080
 1068SOL    HW2 3885   1.747   3.517   1.128
 1069SOL     OW 3886   1.241   3.595   1.114
 1069SOL    HW1 3887   1.323   3.615   1.069
 1069SOL    HW2 3888   1.246   3.501   1.132
 1070SOL     OW 3889   0.083   3.081   1.027
 1070SOL    HW1 3890   0.069   3.106   1.119
 1070SOL    HW2 3891   5.295   3.069   0.992
 1071SOL     OW 3892   0.678   3.527   1.728
 1071SOL    HW1 3893   0.623   3.606   1.723
 1071SOL    HW2 3894   0.741   3.538   1.657
 1072SOL     OW 3895   0.904   1.953   0.133
 1072SOL    HW1 3896   0.926   1.939   0.041
 1072SOL    HW2 3897   0.968   1.900   0.182
 1073SOL     OW 3898   1.719   2.006   0.511
 1073SOL    HW1 3899   1.792   1.990   0.450
 1073SOL    HW2 3900   1.703   1.921   0.552
 1074SOL     OW 3901   1.389   3.430   0.485
 1074SOL    HW1 3902   1.453   3.463   0.421
 1074SOL    HW2 3903   1.342   3.508   0.514
 1075SOL     OW 3904   0.144   3.659   1.843
 1075SOL    HW1 3905   0.089   3.597   1.889
 1075SOL    HW2 3906   0.189   3.708   1.912
 1076SOL     OW 3907   1.277   2.787   0.671
 1076SOL    HW1 3908   1.351   2.726   0.676
 1076SOL    HW2 3909   1.310   2.860   0.619
 1077SOL     OW 3910   0.816   3.135   1.431
 1077SOL    HW1 3911   0.788   3.174   1.513
 1077SOL    HW2 3912   0.746   3.156   1.369
 1078SOL     OW 3913   0.678   3.481   0.155
 1078SOL    HW1 3914   0.681   3.488   0.060
 1078SOL    HW2 3915   0.617   3.409   0.172
 1079SOL     OW 3916   1.628   3.588   1.391
 1079SOL    HW1 3917   1.677   3.596   1.310
 1079SOL    HW2 3918   1.614   3.679   1.419
 1080SOL     OW 3919   1.840   2.035   0.966
 1080SOL    HW1 3920   1.868   1.948   0.939
 1080SOL    HW2 3921   1.753   2.046   0.927
 1081SOL     OW 3922   0.270   2.179   0.717
 1081SOL    HW1 3923   0.188   2.222   0.697
 1081SOL    HW2 3924   0.269   2.168   0.812
 1082SOL     OW 3925   1.156   3.444   0.051
 1082SOL    HW1 3926   1.174   3.351   0.070
 1082SOL    HW2 3927   1.166   3.452   8.037
 1083SOL     OW 3928   0.824   2.868   1.372
 1083SOL    HW1 3929   0.867   2.864   1.287
 1083SOL    HW2 3930   0.824   2.960   1.395
 1084SOL     OW 3931   0.918   2.775   0.297
 1084SOL    HW1 3932   0.972   2.800   0.222
 1084SOL    HW2 3933   0.965   2.703   0.338
 1085SOL     OW 3934   1.510   3.486   0.060
 1085SOL    HW1 3935   1.415   3.487   0.049
 1085SOL    HW2 3936   1.545   3.487   8.051
 1086SOL     OW 3937   0.368   3.165   1.493
 1086SOL    HW1 3938   0.359   3.240   1.434
 1086SOL    HW2 3939   0.292   3.110   1.474
 1087SOL     OW 3940   1.611   3.145   1.281
 1087SOL    HW1 3941   1.671   3.136   1.354
 1087SOL    HW2 3942   1.551   3.214   1.307
 1088SOL     OW 3943   1.050   2.968   0.706
 1088SOL    HW1 3944   0.980   2.917   0.746
 1088SOL    HW2 3945   1.112   2.903   0.673
 1089SOL     OW 3946   1.021   2.102   0.966
 1089SOL    HW1 3947   1.016   2.054   0.883
 1089SOL    HW2 3948   1.015   2.034   1.033
 1090SOL     OW 3949   0.602   3.349   0.480
 1090SOL    HW1 3950   0.644   3.300   0.410
 1090SOL    HW2 3951   0.535   3.402   0.436
 1091SOL     OW 3952   1.721   2.254   1.380
 1091SOL    HW1 3953   1.793   2.318   1.378
 1091SOL    HW2 3954   1.751   2.183   1.324
 1092SOL     OW 3955   0.268   3.188   0.299
 1092SOL    HW1 3956   0.182   3.199   0.258
 1092SOL    HW2 3957   0.260   3.234   0.383
 1093SOL     OW 3958   0.115   2.878   1.718
 1093SOL    HW1 3959   0.044   2.843   1.772
 1093SOL    HW2 3960   0.195   2.847   1.761
 1094SOL     OW 3961   0.674   2.058   1.499
 1094SOL    HW1 3962   0.758   2.039   1.457
 1094SOL    HW2 3963   0.697   2.089   1.587
 1095SOL     OW 3964   0.041   2.256   0.028
 1095SOL    HW1 3965   0.019   2.167   0.056
 1095SOL    HW2 3966   0.121   2.245   8.056
 1096SOL     OW 3967   1.431   2.720   1.401
 1096SOL    HW1 3968   1.382   2.781   1.345
 1096SOL    HW2 3969   1.520   2.723   1.367
 1097SOL     OW 3970   0.051   1.997   0.220
 1097SOL    HW1 3971   0.053   2.085   0.256
 1097SOL    HW2 3972   0.144   1.974   0.209
 1098SOL     OW 3973   1.184   3.181   0.122
 1098SOL    HW1 3974   1.089   3.171   0.122
 1098SOL    HW2 3975   1.208   3.183   0.214
 1099SOL     OW 3976   0.619   2.693   1.435
 1099SOL    HW1 3977   0.675   2.769   1.419
 1099SOL    HW2 3978   0.680   2.620   1.443
 1100SOL     OW 3979   1.484   3.637   0.977
 1100SOL    HW1 3980   1.509   3.697   0.906
 1100SOL    HW2 3981   1.566   3.620   1.024
 1101SOL     OW 3982   0.717   2.427   1.705
 1101SOL    HW1 3983   0.757   2.490   1.765
 1101SOL    HW2 3984   0.748   2.341   1.736
 1102SOL     OW 3985   1.471   3.063   1.632
 1102SOL    HW1 3986   1.458   3.077   1.726
 1102SOL    HW2 3987   1.564   3.077   1.618
 1103SOL     OW 3988   0.379   3.604   1.564
 1103SOL    HW1 3989   0.296   3.649   1.549
 1103SOL    HW2 3990   0.354   3.523   1.609
 1104SOL     OW 3991   1.671   2.744   1.255
 1104SOL    HW1 3992   1.662   2.658   1.212
 1104SOL    HW2 3993   1.661   2.807   1.185
 1105SOL     OW 3994   1.218   2.180   0.460
 1105SOL    HW1 3995   1.283   2.110   0.452
 1105SOL    HW2 3996   1.245   2.230   0.536
 1106SOL     OW 3997   0.590   2.599   0.668
 1106SOL    HW1 3998   0.629   2.685   0.654
 1106SOL    HW2 3999   0.519   2.595   0.604
 1107SOL     OW 4000   1.764   2.223   1.649
 1107SOL    HW1 4001   1.745   2.238   1.557
 1107SOL    HW2 4002   1.692   2.166   1.679
 1108SOL     OW 4003   1.744   2.795   1.512
 1108SOL    HW1 4004   1.744   2.890   1.526
 1108SOL    HW2 4005   1.729   2.784   1.418
 1109SOL     OW 4006   0.892   3.235   0.033
 1109SOL    HW1 4007   0.829   3.227   0.105
 1109SOL    HW2 4008   0.879   3.323   8.079
 1110SOL     OW 4009   0.662   3.656   0.945
 1110SOL    HW1 4010   0.641   3.747   0.922
 1110SOL    HW2 4011   0.758   3.652   0.938
 1111SOL     OW 4012   0.867   2.828   0.855
 1111SOL    HW1 4013   0.917   2.757   0.895
 1111SOL    HW2 4014   0.833   2.878   0.929
 1112SOL     OW 4015   1.076   2.839   0.085
 1112SOL    HW1 4016   1.067   2.903   0.015
 1112SOL    HW2 4017   1.154   2.789   0.062
 1113SOL     OW 4018   1.855   3.416   0.844
 1113SOL    HW1 4019   1.776   3.406   0.791
 1113SOL    HW2 4020   1.846   3.351   0.913
 1114SOL     OW 4021   0.224   3.167   1.859
 1114SOL    HW1 4022   0.157   3.105   1.833
 1114SOL    HW2 4023   0.213   3.178   1.954
 1115SOL     OW 4024   0.092   3.094   0.659
 1115SOL    HW1 4025   0.098   3.050   0.744
 1115SOL    HW2 4026   0.169   3.064   0.611
 1116SOL     OW 4027   0.681   3.263   1.628
 1116SOL    HW1 4028   0.600   3.221   1.657
 1116SOL    HW2 4029   0.676   3.352   1.664
 1117SOL     OW 4030   1.814   2.047   1.238
 1117SOL    HW1 4031   1.822   1.953   1.253
 1117SOL    HW2 4032   1.823   2.057   1.143
 1118SOL     OW 4033   0.431   2.300   0.523
 1118SOL    HW1 4034   0.461   2.228   0.469
 1118SOL    HW2 4035   0.387   2.258   0.597
 1119SOL     OW 4036   1.701   3.352   1.097
 1119SOL    HW1 4037   1.620   3.328   1.053
 1119SOL    HW2 4038   1.714   3.283   1.163
 1120SOL     OW 4039   0.335   2.420   1.291
 1120SOL    HW1 4040   0.388   2.361   1.345
 1120SOL    HW2 4041   0.350   2.391   1.201
 1121SOL     OW 4042   0.827   3.439   0.678
 1121SOL    HW1 4043   0.817   3.491   0.599
 1121SOL    HW2 4044   0.750   3.383   0.681
 1122SOL     OW 4045   1.432   2.087   1.118
 1122SOL    HW1 4046   1.457   2.007   1.165
 1122SOL    HW2 4047   1.380   2.136   1.181
 1123SOL     OW 4048   1.009   1.881   1.143
 1123SOL    HW1 4049   0.954   1.813   1.104
 1123SOL    HW2 4050   1.096   1.843   1.145
 1124SOL     OW 4051   0.771   3.189   0.307
 1124SOL    HW1 4052   0.739   3.100   0.322
 1124SOL    HW2 4053   0.852   3.194   0.357
 1125SOL     OW 4054   0.622   3.419   1.287
 1125SOL    HW1 4055   0.624   3.501   1.336
 1125SOL    HW2 4056   0.709   3.413   1.247
 1126SOL     OW 4057   1.356   1.917   0.183
 1126SOL    HW1 4058   1.378   1.868   0.104
 1126SOL    HW2 4059   1.270   1.882   0.209
 1127SOL     OW 4060   1.297   2.323   0.682
 1127SOL    HW1 4061   1.244   2.402   0.689
 1127SOL    HW2 4062   1.293   2.283   0.769
 1128SOL     OW 4063   1.587   2.066   0.877
 1128SOL    HW1 4064   1.525   2.085   0.948
 1128SOL    HW2 4065   1.586   2.144   0.823
 1129SOL     OW 4066   0.045   2.939   0.315
 1129SOL    HW1 4067   0.134   2.915   0.291
 1129SOL    HW2 4068   5.298   2.856   0.320
 1130SOL     OW 4069   0.882   3.514   0.347
 1130SOL    HW1 4070   0.814   3.497   0.282
 1130SOL    HW2 4071   0.851   3.590   0.396
 1131SOL     OW 4072   0.233   2.495   1.977
 1131SOL    HW1 4073   0.158   2.463   2.028
 1131SOL    HW2 4074   0.220   2.459   1.890
 1132SOL     OW 4075   0.241   2.138   2.852
 1132SOL    HW1 4076   0.255   2.103   2.940
 1132SOL    HW2 4077   0.157   2.100   2.825
 1133SOL     OW 4078   5.299   2.259   2.514
 1133SOL    HW1 4079   5.206   2.281   2.522
 1133SOL    HW2 4080   5.299   2.168   2.484
 1134SOL     OW 4081   0.573   3.144   3.042
 1134SOL    HW1 4082   0.490   3.153   2.995
 1134SOL    HW2 4083   0.589   3.232   3.077
 1135SOL     OW 4084   1.560   3.373   2.568
 1135SOL    HW1 4085   1.516   3.355   2.651
 1135SOL    HW2 4086   1.488   3.378   2.505
 1136SOL     OW 4087   1.130   2.560   2.564
 1136SOL    HW1 4088   1.179   2.641   2.550
 1136SOL    HW2 4089   1.083   2.575   2.646
 1137SOL     OW 4090   1.768   2.467   2.091
 1137SOL    HW1 4091   1.747   2.460   1.998
 1137SOL    HW2 4092   1.730   2.389   2.131
 1138SOL     OW 4093   0.757   3.004   2.900
 1138SOL    HW1 4094   0.689   3.038   2.959
 1138SOL    HW2 4095   0.791   3.082   2.856
 1139SOL     OW 4096   0.864   2.639   3.683
 1139SOL    HW1 4097   0.855   2.712   3.745
 1139SOL    HW2 4098   0.888   2.681   3.601
 1140SOL     OW 4099   0.685   2.866   2.510
 1140SOL    HW1 4100   0.751   2.853   2.579
 1140SOL    HW2 4101   0.617   2.918   2.552
 1141SOL     OW 4102   0.709   3.013   3.674
 1141SOL    HW1 4103   0.757   3.091   3.699
 1141SOL    HW2 4104   0.626   3.046   3.638
 1142SOL     OW 4105   0.358   3.267   2.922
 1142SOL    HW1 4106   0.270   3.267   2.884
 1142SOL    HW2 4107   0.407   3.330   2.868
 1143SOL     OW 4108   1.462   3.359   3.215
 1143SOL    HW1 4109   1.510   3.441   3.223
 1143SOL    HW2 4110   1.400   3.359   3.288
 1144SOL     OW 4111   0.450   2.262   3.356
 1144SOL    HW1 4112   0.524   2.202   3.357
 1144SOL    HW2 4113   0.373   2.206   3.364
 1145SOL     OW 4114   1.613   2.311   2.602
 1145SOL    HW1 4115   1.537   2.333   2.548
 1145SOL    HW2 4116   1.627   2.388   2.657
 1146SOL     OW 4117   0.230   3.576   2.339
 1146SOL    HW1 4118   0.265   3.645   2.397
 1146SOL    HW2 4119   0.292   3.573   2.266
 1147SOL     OW 4120   1.136   3.203   3.554
 1147SOL    HW1 4121   1.176   3.199   3.641
 1147SOL    HW2 4122   1.084   3.123   3.548
 1148SOL     OW 4123   0.222   3.305   2.401
 1148SOL    HW1 4124   0.214   3.401   2.399
 1148SOL    HW2 4125   0.152   3.276   2.460
 1149SOL     OW 4126   0.249   2.940   2.738
 1149SOL    HW1 4127   0.260   2.856   2.781
 1149SOL    HW2 4128   0.198   2.992   2.800
 1150SOL     OW 4129   0.615   3.652   3.295
 1150SOL    HW1 4130   0.531   3.635   3.337
 1150SOL    HW2 4131   0.635   3.743   3.317
 1151SOL     OW 4132   0.585   2.844   1.996
 1151SOL    HW1 4133   0.630   2.893   1.927
 1151SOL    HW2 4134   0.626   2.873   2.077
 1152SOL     OW 4135   1.595   1.981   3.335
 1152SOL    HW1 4136   1.601   2.058   3.279
 1152SOL    HW2 4137   1.581   2.016   3.423
 1153SOL     OW 4138   0.126   2.497   2.440
 1153SOL    HW1 4139   0.089   2.413   2.469
 1153SOL    HW2 4140   0.098   2.559   2.507
 1154SOL     OW 4141   1.842   3.621   2.198
 1154SOL    HW1 4142   1.905   3.593   2.264
 1154SOL    HW2 4143   1.867   3.712   2.179
 1155SOL     OW 4144   0.037   3.460   1.993
 1155SOL    HW1 4145   0.024   3.369   2.018
 1155SOL    HW2 4146   5.284   3.510   2.054
 1156SOL     OW 4147   1.688   2.779   2.501
 1156SOL    HW1 4148   1.773   2.741   2.482
 1156SOL    HW2 4149   1.667   2.831   2.423
 1157SOL     OW 4150   1.646   2.969   2.291
 1157SOL    HW1 4151   1.731   2.976   2.249
 1157SOL    HW2 4152   1.651   3.030   2.365
 1158SOL     OW 4153   0.130   2.610   3.448
 1158SOL    HW1 4154   0.224   2.623   3.452
 1158SOL    HW2 4155   0.092   2.697   3.462
 1159SOL     OW 4156   0.615   3.246   2.597
 1159SOL    HW1 4157   0.567   3.164   2.607
 1159SOL    HW2 4158   0.597   3.273   2.506
 1160SOL     OW 4159   1.288   3.101   3.285
 1160SOL    HW1 4160   1.319   3.032   3.226
 1160SOL    HW2 4161   1.343   3.092   3.363
 1161SOL     OW 4162   0.821   1.860   2.370
 1161SOL    HW1 4163   0.861   1.945   2.352
 1161SOL    HW2 4164   0.728   1.879   2.377
 1162SOL     OW 4165   0.179   2.810   3.139
 1162SOL    HW1 4166   0.269   2.781   3.129
 1162SOL    HW2 4167   0.135   2.781   3.059
 1163SOL     OW 4168   1.532   2.854   2.060
 1163SOL    HW1 4169   1.462   2.797   2.092
 1163SOL    HW2 4170   1.572   2.889   2.139
 1164SOL     OW 4171   1.185   3.667   3.484
 1164SOL    HW1 4172   1.197   3.726   3.409
 1164SOL    HW2 4173   1.202   3.580   3.448
 1165SOL     OW 4174   0.334   2.115   3.676
 1165SOL    HW1 4175   0.383   2.196   3.688
 1165SOL    HW2 4176   0.247   2.132   3.713
 1166SOL     OW 4177   1.465   3.281   2.814
 1166SOL    HW1 4178   1.396   3.296   2.879
 1166SOL    HW2 4179   1.453   3.190   2.787
 1167SOL     OW 4180   1.658   3.600   2.440
 1167SOL    HW1 4181   1.638   3.570   2.351
 1167SOL    HW2 4182   1.635   3.526   2.496
 1168SOL     OW 4183   0.596   2.584   2.127
 1168SOL    HW1 4184   0.604   2.664   2.076
 1168SOL    HW2 4185   0.531   2.605   2.194
 1169SOL     OW 4186   1.279   2.213   2.794
 1169SOL    HW1 4187   1.190   2.180   2.803
 1169SOL    HW2 4188   1.330   2.160   2.855
 1170SOL     OW 4189   1.581   3.531   2.171
 1170SOL    HW1 4190   1.671   3.564   2.165
 1170SOL    HW2 4191   1.555   3.514   2.080
 1171SOL     OW 4192   0.792   2.479   3.314
 1171SOL    HW1 4193   0.764   2.456   3.403
 1171SOL    HW2 4194   0.751   2.413   3.258
 1172SOL     OW 4195   1.394   2.336   3.538
 1172SOL    HW1 4196   1.395   2.382   3.622
 1172SOL    HW2 4197   1.459   2.267   3.547
 1173SOL     OW 4198   0.955   2.749   3.444
 1173SOL    HW1 4199   1.010   2.679   3.409
 1173SOL    HW2 4200   0.908   2.783   3.368
 1174SOL     OW 4201   0.992   2.275   3.101
 1174SOL    HW1 4202   0.907   2.297   3.139
 1174SOL    HW2 4203   0.971   2.228   3.021
 1175SOL     OW 4204   1.050   2.561   2.288
 1175SOL    HW1 4205   1.066   2.554   2.383
 1175SOL    HW2 4206   0.968   2.514   2.274
 1176SOL     OW 4207   0.072   2.648   2.674
 1176SOL    HW1 4208   0.155   2.654   2.722
 1176SOL    HW2 4209   0.061   2.736   2.636
 1177SOL     OW 4210   0.131   3.744   3.446
 1177SOL    HW1 4211   0.133   3.712   3.536
 1177SOL    HW2 4212   0.058   3.697   3.406
 1178SOL     OW 4213   0.891   2.210   2.056
 1178SOL    HW1 4214   0.932   2.271   1.995
 1178SOL    HW2 4215   0.908   2.124   2.018
 1179SOL     OW 4216   1.657   2.433   3.689
 1179SOL    HW1 4217   1.675   2.515   3.644
 1179SOL    HW2 4218   1.710   2.368   3.644
 1180SOL     OW 4219   1.376   3.004   2.403
 1180SOL    HW1 4220   1.455   2.991   2.351
 1180SOL    HW2 4221   1.324   3.066   2.353
 1181SOL     OW 4222   0.555   2.046   2.755
 1181SOL    HW1 4223   0.552   2.073   2.847
 1181SOL    HW2 4224   0.551   2.127   2.705
 1182SOL     OW 4225   1.006   3.306   2.335
 1182SOL    HW1 4226   0.968   3.379   2.285
 1182SOL    HW2 4227   0.991   3.328   2.426
 1183SOL     OW 4228   0.356   3.664   2.731
 1183SOL    HW1 4229   0.397   3.578   2.744
 1183SOL    HW2 4230   0.423   3.727   2.758
 1184SOL     OW 4231   1.798   2.919   2.729
 1184SOL    HW1 4232   1.742   2.904   2.653
 1184SOL    HW2 4233   1.736   2.926   2.802
 1185SOL     OW 4234   1.229   3.400   3.374
 1185SOL    HW1 4235   1.214   3.328   3.435
 1185SOL    HW2 4236   1.165   3.387   3.304
 1186SOL     OW 4237   0.317   2.814   2.109
 1186SOL    HW1 4238   0.398   2.838   2.065
 1186SOL    HW2 4239   0.293   2.729   2.072
 1187SOL     OW 4240   1.477   2.602   2.589
 1187SOL    HW1 4241   1.468   2.560   2.674
 1187SOL    HW2 4242   1.554   2.659   2.599
 1188SOL     OW 4243   0.464   3.125   3.599
 1188SOL    HW1 4244   0.437   3.131   3.508
 1188SOL    HW2 4245   0.382   3.126   3.649
 1189SOL     OW 4246   1.121   3.640   2.093
 1189SOL    HW1 4247   1.049   3.597   2.139
 1189SOL    HW2 4248   1.144   3.579   2.023
 1190SOL     OW 4249   0.205   2.144   3.359
 1190SOL    HW1 4250   0.125   2.195   3.344
 1190SOL    HW2 4251   0.174   2.066   3.406
 1191SOL     OW 4252   1.629   3.241   1.949
 1191SOL    HW1 4253   1.588   3.326   1.934
 1191SOL    HW2 4254   1.559   3.178   1.930
 1192SOL     OW 4255   0.471   3.597   2.182
 1192SOL    HW1 4256   0.513   3.655   2.246
 1192SOL    HW2 4257   0.543   3.567   2.126
 1193SOL     OW 4258   1.401   1.970   2.294
 1193SOL    HW1 4259   1.390   1.945   2.202
 1193SOL    HW2 4260   1.496   1.976   2.306
 1194SOL     OW 4261   0.275   3.663   3.077
 1194SOL    HW1 4262   0.307   3.586   3.125
 1194SOL    HW2 4263   0.226   3.627   3.004
 1195SOL     OW 4264   0.939   3.560   2.762
 1195SOL    HW1 4265   1.016   3.508   2.782
 1195SOL    HW2 4266   0.894   3.511   2.693
 1196SOL     OW 4267   0.386   2.558   2.341
 1196SOL    HW1 4268   0.415   2.467   2.349
 1196SOL    HW2 4269   0.292   2.555   2.362
 1197SOL     OW 4270   1.535   2.084   3.588
 1197SOL    HW1 4271   1.545   2.108   3.680
 1197SOL    HW2 4272   1.464   2.020   3.588
 1198SOL     OW 4273   0.631   1.985   1.968
 1198SOL    HW1 4274   0.704   1.924   1.979
 1198SOL    HW2 4275   0.584   1.953   1.891
 1199SOL     OW 4276   0.767   2.139   3.615
 1199SOL    HW1 4277   0.842   2.079   3.618
 1199SOL    HW2 4278   0.718   2.121   3.695
 1200SOL     OW 4279   0.877   3.383   3.055
 1200SOL    HW1 4280   0.861   3.348   2.968
 1200SOL    HW2 4281   0.947   3.329   3.092
 1201SOL     OW 4282   1.341   2.451   3.293
 1201SOL    HW1 4283   1.370   2.420   3.379
 1201SOL    HW2 4284   1.375   2.540   3.287
 1202SOL     OW 4285   0.815   3.257   2.800
 1202SOL    HW1 4286   0.899   3.247   2.756
 1202SOL    HW2 4287   0.750   3.258   2.730
 1203SOL     OW 4288   0.928   2.371   2.765
 1203SOL    HW1 4289   0.904   2.363   2.673
 1203SOL    HW2 4290   0.959   2.285   2.790
 1204SOL     OW 4291   0.559   1.923   2.359
 1204SOL    HW1 4292   0.485   1.924   2.419
 1204SOL    HW2 4293   0.549   2.003   2.307
 1205SOL     OW 4294   1.428   3.060   1.903
 1205SOL    HW1 4295   1.458   2.984   1.953
 1205SOL    HW2 4296   1.343   3.081   1.941
 1206SOL     OW 4297   0.305   1.909   2.042
 1206SOL    HW1 4298   0.367   1.973   2.007
 1206SOL    HW2 4299   0.360   1.844   2.086
 1207SOL     OW 4300   0.938   2.108   2.323
 1207SOL    HW1 4301   0.911   2.150   2.242
 1207SOL    HW2 4302   1.033   2.122   2.326
 1208SOL     OW 4303   1.079   2.542   3.321
 1208SOL    HW1 4304   1.011   2.476   3.327
 1208SOL    HW2 4305   1.161   2.492   3.315
 1209SOL     OW 4306   1.224   3.432   2.656
 1209SOL    HW1 4307   1.240   3.499   2.590
 1209SOL    HW2 4308   1.292   3.445   2.721
 1210SOL     OW 4309   0.467   3.011   2.595
 1210SOL    HW1 4310   0.397   2.992   2.658
 1210SOL    HW2 4311   0.427   2.993   2.509
 1211SOL     OW 4312   1.269   3.656   2.469
 1211SOL    HW1 4313   1.315   3.717   2.411
 1211SOL    HW2 4314   1.204   3.710   2.514
 1212SOL     OW 4315   1.024   2.405   1.884
 1212SOL    HW1 4316   0.982   2.489   1.863
 1212SOL    HW2 4317   1.089   2.426   1.950
 1213SOL     OW 4318   0.086   2.408   3.260
 1213SOL    HW1 4319   0.174   2.415   3.223
 1213SOL    HW2 4320   0.079   2.484   3.318
 1214SOL     OW 4321   0.560   2.089   3.027
 1214SOL    HW1 4322   0.598   2.009   3.064
 1214SOL    HW2 4323   0.469   2.088   3.056
 1215SOL     OW 4324   0.868   2.321   2.502
 1215SOL    HW1 4325   0.822   2.375   2.437
 1215SOL    HW2 4326   0.889   2.240   2.455
 1216SOL     OW 4327   1.015   1.915   2.614
 1216SOL    HW1 4328   0.956   1.907   2.539
 1216SOL    HW2 4329   0.994   1.839   2.669
 1217SOL     OW 4330   1.436   3.025   2.720
 1217SOL    HW1 4331   1.368   2.958   2.717
 1217SOL    HW2 4332   1.461   3.037   2.628
 1218SOL     OW 4333   1.466   2.466   2.839
 1218SOL    HW1 4334   1.416   2.384   2.844
 1218SOL    HW2 4335   1.527   2.461   2.913
 1219SOL     OW 4336   1.847   2.679   2.244
 1219SOL    HW1 4337   1.904   2.628   2.302
 1219SOL    HW2 4338   1.818   2.616   2.178
 1220SOL     OW 4339   0.492   3.278   2.021
 1220SOL    HW1 4340   0.417   3.250   2.073
 1220SOL    HW2 4341   0.473   3.246   1.933
 1221SOL     OW 4342   1.669   3.126   2.510
 1221SOL    HW1 4343   1.764   3.129   2.522
 1221SOL    HW2 4344   1.639   3.214   2.530
 1222SOL     OW 4345   1.394   2.433   1.933
 1222SOL    HW1 4346   1.333   2.415   2.005
 1222SOL    HW2 4347   1.478   2.401   1.965
 1223SOL     OW 4348   0.524   2.125   2.180
 1223SOL    HW1 4349   0.568   2.077   2.110
 1223SOL    HW2 4350   0.503   2.210   2.142
 1224SOL     OW 4351   1.059   3.215   3.195
 1224SOL    HW1 4352   0.984   3.184   3.247
 1224SOL    HW2 4353   1.135   3.174   3.236
 1225SOL     OW 4354   1.603   3.487   3.513
 1225SOL    HW1 4355   1.605   3.518   3.423
 1225SOL    HW2 4356   1.690   3.449   3.527
 1226SOL     OW 4357   1.127   3.064   2.967
 1226SOL    HW1 4358   1.068   3.103   3.033
 1226SOL    HW2 4359   1.094   3.097   2.884
 1227SOL     OW 4360   1.629   2.965   2.937
 1227SOL    HW1 4361   1.626   3.027   3.011
 1227SOL    HW2 4362   1.549   2.981   2.888
 1228SOL     OW 4363   0.918   1.959   3.260
 1228SOL    HW1 4364   0.940   1.940   3.168
 1228SOL    HW2 4365   0.997   1.999   3.296
 1229SOL     OW 4366   0.984   2.976   3.585
 1229SOL    HW1 4367   0.892   2.992   3.604
 1229SOL    HW2 4368   0.984   2.899   3.529
 1230SOL     OW 4369   0.707   2.922   2.235
 1230SOL    HW1 4370   0.696   2.907   2.328
 1230SOL    HW2 4371   0.784   2.869   2.211
 1231SOL     OW 4372   0.420   2.680   3.114
 1231SOL    HW1 4373   0.489   2.687   3.180
 1231SOL    HW2 4374   0.385   2.591   3.125
 1232SOL     OW 4375   1.266   2.239   3.136
 1232SOL    HW1 4376   1.299   2.317   3.182
 1232SOL    HW2 4377   1.176   2.262   3.113
 1233SOL     OW 4378   0.100   3.485   3.230
 1233SOL    HW1 4379   0.078   3.495   3.137
 1233SOL    HW2 4380   0.187   3.443   3.229
 1234SOL     OW 4381   0.344   2.967   2.350
 1234SOL    HW1 4382   0.354   3.046   2.297
 1234SOL    HW2 4383   0.354   2.895   2.288
 1235SOL     OW 4384   0.555   2.398   2.721
 1235SOL    HW1 4385   0.571   2.457   2.647
 1235SOL    HW2 4386   0.619   2.426   2.787
 1236SOL     OW 4387   1.248   3.210   2.251
 1236SOL    HW1 4388   1.303   3.282   2.282
 1236SOL    HW2 4389   1.161   3.231   2.285
 1237SOL     OW 4390   1.279   3.318   3.009
 1237SOL    HW1 4391   1.334   3.321   3.087
 1237SOL    HW2 4392   1.223   3.242   3.021
 1238SOL     OW 4393   1.582   2.486   2.339
 1238SOL    HW1 4394   1.536   2.539   2.404
 1238SOL    HW2 4395   1.627   2.550   2.284
 1239SOL     OW 4396   0.351   3.381   3.173
 1239SOL    HW1 4397   0.342   3.338   3.088
 1239SOL    HW2 4398   0.445   3.399   3.180
 1240SOL     OW 4399   0.413   2.605   3.464
 1240SOL    HW1 4400   0.473   2.651   3.406
 1240SOL    HW2 4401   0.453   2.519   3.477
 1241SOL     OW 4402   0.996   1.983   3.618
 1241SOL    HW1 4403   1.050   2.056   3.588
 1241SOL    HW2 4404   1.045   1.905   3.591
 1242SOL     OW 4405   0.497   1.904   3.609
 1242SOL    HW1 4406   0.456   1.850   3.542
 1242SOL    HW2 4407   0.437   1.977   3.621
 1243SOL     OW 4408   0.585   2.736   2.894
 1243SOL    HW1 4409   0.616   2.826   2.893
 1243SOL    HW2 4410   0.529   2.730   2.971
 1244SOL     OW 4411   1.359   2.721   2.893
 1244SOL    HW1 4412   1.276   2.713   2.845
 1244SOL    HW2 4413   1.398   2.634   2.889
 1245SOL     OW 4414   1.205   2.391   2.130
 1245SOL    HW1 4415   1.213   2.313   2.184
 1245SOL    HW2 4416   1.163   2.455   2.186
 1246SOL     OW 4417   0.302   2.065   3.110
 1246SOL    HW1 4418   0.267   2.091   3.196
 1246SOL    HW2 4419   0.289   1.971   3.106
 1247SOL     OW 4420   0.070   3.181   3.143
 1247SOL    HW1 4421   0.090   3.121   3.215
 1247SOL    HW2 4422   0.003   3.239   3.178
 1248SOL     OW 4423   0.725   2.493   2.921
 1248SOL    HW1 4424   0.799   2.477   2.863
 1248SOL    HW2 4425   0.697   2.583   2.899
 1249SOL     OW 4426   0.327   1.924   2.496
 1249SOL    HW1 4427   0.307   2.013   2.524
 1249SOL    HW2 4428   0.331   1.874   2.578
 1250SOL     OW 4429   1.615   2.236   2.230
 1250SOL    HW1 4430   1.642   2.172   2.296
 1250SOL    HW2 4431   1.593   2.314   2.280
 1251SOL     OW 4432   1.028   2.621   2.823
 1251SOL    HW1 4433   1.025   2.639   2.917
 1251SOL    HW2 4434   1.001   2.530   2.815
 1252SOL     OW 4435   0.982   3.428   3.578
 1252SOL    HW1 4436   0.967   3.472   3.495
 1252SOL    HW2 4437   1.025   3.346   3.554
 1253SOL     OW 4438   0.353   2.780   3.668
 1253SOL    HW1 4439   0.435   2.799   3.715
 1253SOL    HW2 4440   0.378   2.715   3.602
 1254SOL     OW 4441   1.530   2.135   1.989
 1254SOL    HW1 4442   1.465   2.070   2.016
 1254SOL    HW2 4443   1.563   2.171   2.072
 1255SOL     OW 4444   1.292   2.688   1.894
 1255SOL    HW1 4445   1.335   2.603   1.897
 1255SOL    HW2 4446   1.323   2.728   1.812
 1256SOL     OW 4447   1.066   3.197   2.715
 1256SOL    HW1 4448   1.069   3.125   2.653
 1256SOL    HW2 4449   1.127   3.262   2.681
 1257SOL     OW 4450   0.314   2.672   2.812
 1257SOL    HW1 4451   0.408   2.691   2.808
 1257SOL    HW2 4452   0.309   2.582   2.844
 1258SOL     OW 4453   0.335   2.387   2.876
 1258SOL    HW1 4454   0.300   2.299   2.862
 1258SOL    HW2 4455   0.410   2.393   2.817
 1259SOL     OW 4456   1.135   2.238   3.544
 1259SOL    HW1 4457   1.088   2.294   3.606
 1259SOL    HW2 4458   1.223   2.275   3.540
 1260SOL     OW 4459   1.160   2.065   3.332
 1260SOL    HW1 4460   1.151   2.128   3.404
 1260SOL    HW2 4461   1.200   2.116   3.261
 1261SOL     OW 4462   0.001   3.192   2.072
 1261SOL    HW1 4463   5.226   3.183   2.014
 1261SOL    HW2 4464   0.012   3.106   2.112
 1262SOL     OW 4465   0.092   3.644   2.812
 1262SOL    HW1 4466   0.059   3.573   2.757
 1262SOL    HW2 4467   0.179   3.662   2.777
 1263SOL     OW 4468   0.505   3.435   2.769
 1263SOL    HW1 4469   0.573   3.500   2.790
 1263SOL    HW2 4470   0.549   3.374   2.710
 1264SOL     OW 4471   0.985   2.655   3.089
 1264SOL    HW1 4472   1.040   2.631   3.164
 1264SOL    HW2 4473   0.899   2.618   3.110
 1265SOL     OW 4474   0.034   2.422   2.977
 1265SOL    HW1 4475   0.120   2.396   2.944
 1265SOL    HW2 4476   0.038   2.404   3.071
 1266SOL     OW 4477   0.175   2.375   3.574
 1266SOL    HW1 4478   0.242   2.340   3.515
 1266SOL    HW2 4479   0.145   2.455   3.532
 1267SOL     OW 4480   1.373   2.802   3.523
 1267SOL    HW1 4481   1.397   2.895   3.516
 1267SOL    HW2 4482   1.385   2.768   3.435
 1268SOL     OW 4483   0.816   2.431   2.221
 1268SOL    HW1 4484   0.820   2.356   2.161
 1268SOL    HW2 4485   0.742   2.483   2.189
 1269SOL     OW 4486   1.643   2.460   3.045
 1269SOL    HW1 4487   1.626   2.405   3.121
 1269SOL    HW2 4488   1.730   2.433   3.014
 1270SOL     OW 4489   0.257   3.418   3.597
 1270SOL    HW1 4490   0.233   3.481   3.666
 1270SOL    HW2 4491   0.249   3.332   3.639
 1271SOL     OW 4492   0.699   2.313   3.123
 1271SOL    HW1 4493   0.647   2.239   3.092
 1271SOL    HW2 4494   0.696   2.376   3.050
 1272SOL     OW 4495   0.930   3.541   3.329
 1272SOL    HW1 4496   0.902   3.508   3.243
 1272SOL    HW2 4497   0.925   3.636   3.320
 1273SOL     OW 4498   0.466   2.355   2.048
 1273SOL    HW1 4499   0.525   2.427   2.069
 1273SOL    HW2 4500   0.380   2.397   2.037
 1274SOL     OW 4501   0.148   3.000   3.333
 1274SOL    HW1 4502   0.147   2.950   3.415
 1274SOL    HW2 4503   0.161   2.934   3.265
 1275SOL     OW 4504   1.327   2.913   3.084
 1275SOL    HW1 4505   1.351   2.848   3.018
 1275SOL    HW2 4506   1.255   2.962   3.045
 1276SOL     OW 4507   1.311   2.718   2.168
 1276SOL    HW1 4508   1.234   2.689   2.218
 1276SOL    HW2 4509   1.286   2.705   2.077
 1277SOL     OW 4510   1.768   3.610   3.010
 1277SOL    HW1 4511   1.831   3.636   2.943
 1277SOL    HW2 4512   1.745   3.520   2.989
 1278SOL     OW 4513   1.241   3.595   2.976
 1278SOL    HW1 4514   1.323   3.615   2.931
 1278SOL    HW2 4515   1.246   3.501   2.994
 1279SOL     OW 4516   0.083   3.081   2.889
 1279SOL    HW1 4517   0.070   3.106   2.981
 1279SOL    HW2 4518   5.294   3.069   2.855
 1280SOL     OW 4519   0.678   3.527   3.590
 1280SOL    HW1 4520   0.623   3.606   3.585
 1280SOL    HW2 4521   0.741   3.538   3.519
 1281SOL     OW 4522   1.720   2.007   2.373
 1281SOL    HW1 4523   1.792   1.992   2.312
 1281SOL    HW2 4524   1.703   1.922   2.413
 1282SOL     OW 4525   1.390   3.430   2.346
 1282SOL    HW1 4526   1.451   3.462   2.279
 1282SOL    HW2 4527   1.342   3.508   2.374
 1283SOL     OW 4528   0.144   3.660   3.705
 1283SOL    HW1 4529   0.089   3.597   3.751
 1283SOL    HW2 4530   0.189   3.708   3.774
 1284SOL     OW 4531   1.277   2.787   2.533
 1284SOL    HW1 4532   1.351   2.726   2.539
 1284SOL    HW2 4533   1.311   2.860   2.481
 1285SOL     OW 4534   0.816   3.135   3.293
 1285SOL    HW1 4535   0.788   3.174   3.375
 1285SOL    HW2 4536   0.746   3.156   3.231
 1286SOL     OW 4537   0.672   3.480   2.017
 1286SOL    HW1 4538   0.682   3.493   1.923
 1286SOL    HW2 4539   0.618   3.402   2.026
 1287SOL     OW 4540   1.627   3.588   3.254
 1287SOL    HW1 4541   1.677   3.595   3.173
 1287SOL    HW2 4542   1.614   3.679   3.281
 1288SOL     OW 4543   1.853   2.047   2.823
 1288SOL    HW1 4544   1.883   1.958   2.803
 1288SOL    HW2 4545   1.766   2.052   2.784
 1289SOL     OW 4546   0.272   2.179   2.580
 1289SOL    HW1 4547   0.188   2.218   2.558
 1289SOL    HW2 4548   0.270   2.168   2.675
 1290SOL     OW 4549   1.207   3.469   1.893
 1290SOL    HW1 4550   1.198   3.377   1.920
 1290SOL    HW2 4551   1.142   3.480   1.824
 1291SOL     OW 4552   0.824   2.868   3.234
 1291SOL    HW1 4553   0.868   2.863   3.149
 1291SOL    HW2 4554   0.824   2.961   3.257
 1292SOL     OW 4555   0.915   2.772   2.152
 1292SOL    HW1 4556   0.976   2.804   2.085
 1292SOL    HW2 4557   0.963   2.703   2.197
 1293SOL     OW 4558   1.493   3.486   1.904
 1293SOL    HW1 4559   1.398   3.481   1.891
 1293SOL    HW2 4560   1.529   3.493   1.816
 1294SOL     OW 4561   0.368   3.165   3.355
 1294SOL    HW1 4562   0.359   3.240   3.296
 1294SOL    HW2 4563   0.292   3.110   3.336
 1295SOL     OW 4564   1.628   3.155   3.141
 1295SOL    HW1 4565   1.677   3.143   3.222
 1295SOL    HW2 4566   1.559   3.218   3.162
 1296SOL     OW 4567   1.050   2.968   2.568
 1296SOL    HW1 4568   0.980   2.917   2.608
 1296SOL    HW2 4569   1.113   2.903   2.536
 1297SOL     OW 4570   1.020   2.102   2.828
 1297SOL    HW1 4571   1.016   2.054   2.745
 1297SOL    HW2 4572   1.016   2.035   2.895
 1298SOL     OW 4573   0.601   3.349   2.343
 1298SOL    HW1 4574   0.645   3.301   2.273
 1298SOL    HW2 4575   0.535   3.402   2.298
 1299SOL     OW 4576   1.710   2.252   3.238
 1299SOL    HW1 4577   1.784   2.312   3.231
 1299SOL    HW2 4578   1.729   2.182   3.176
 1300SOL     OW 4579   0.260   3.210   2.154
 1300SOL    HW1 4580   0.167   3.213   2.131
 1300SOL    HW2 4581   0.264   3.247   2.242
 1301SOL     OW 4582   0.115   2.878   3.580
 1301SOL    HW1 4583   0.044   2.843   3.634
 1301SOL    HW2 4584   0.195   2.847   3.623
 1302SOL     OW 4585   0.674   2.058   3.361
 1302SOL    HW1 4586   0.757   2.039   3.319
 1302SOL    HW2 4587   0.697   2.089   3.448
 1303SOL     OW 4588   0.081   2.214   1.903
 1303SOL    HW1 4589   0.002   2.164   1.879
 1303SOL    HW2 4590   0.098   2.270   1.828
 1304SOL     OW 4591   1.429   2.722   3.261
 1304SOL    HW1 4592   1.376   2.782   3.209
 1304SOL    HW2 4593   1.516   2.727   3.223
 1305SOL     OW 4594   0.055   1.995   2.104
 1305SOL    HW1 4595   0.054   2.091   2.099
 1305SOL    HW2 4596   0.146   1.971   2.085
 1306SOL     OW 4597   1.179   3.202   1.979
 1306SOL    HW1 4598   1.088   3.173   1.982
 1306SOL    HW2 4599   1.208   3.202   2.070
 1307SOL     OW 4600   0.619   2.693   3.297
 1307SOL    HW1 4601   0.675   2.769   3.281
 1307SOL    HW2 4602   0.679   2.620   3.305
 1308SOL     OW 4603   1.485   3.637   2.840
 1308SOL    HW1 4604   1.509   3.696   2.768
 1308SOL    HW2 4605   1.567   3.619   2.885
 1309SOL     OW 4606   0.717   2.427   3.568
 1309SOL    HW1 4607   0.757   2.490   3.627
 1309SOL    HW2 4608   0.748   2.342   3.598
 1310SOL     OW 4609   1.465   3.065   3.497
 1310SOL    HW1 4610   1.446   3.075   3.590
 1310SOL    HW2 4611   1.559   3.080   3.490
 1311SOL     OW 4612   0.379   3.604   3.426
 1311SOL    HW1 4613   0.296   3.649   3.411
 1311SOL    HW2 4614   0.354   3.523   3.471
 1312SOL     OW 4615   1.659   2.743   3.106
 1312SOL    HW1 4616   1.655   2.659   3.060
 1312SOL    HW2 4617   1.656   2.809   3.037
 1313SOL     OW 4618   1.217   2.181   2.320
 1313SOL    HW1 4619   1.281   2.110   2.311
 1313SOL    HW2 4620   1.246   2.230   2.397
 1314SOL     OW 4621   0.591   2.600   2.530
 1314SOL    HW1 4622   0.630   2.686   2.515
 1314SOL    HW2 4623   0.521   2.593   2.465
 1315SOL     OW 4624   1.750   2.236   3.511
 1315SOL    HW1 4625   1.731   2.235   3.417
 1315SOL    HW2 4626   1.692   2.169   3.547
 1316SOL     OW 4627   0.862   3.229   1.895
 1316SOL    HW1 4628   0.824   3.258   1.977
 1316SOL    HW2 4629   0.881   3.311   1.848
 1317SOL     OW 4630   0.662   3.656   2.807
 1317SOL    HW1 4631   0.641   3.747   2.784
 1317SOL    HW2 4632   0.758   3.652   2.800
 1318SOL     OW 4633   0.867   2.828   2.717
 1318SOL    HW1 4634   0.917   2.757   2.757
 1318SOL    HW2 4635   0.833   2.878   2.791
 1319SOL     OW 4636   1.078   2.849   1.950
 1319SOL    HW1 4637   1.057   2.901   1.872
 1319SOL    HW2 4638   1.154   2.797   1.925
 1320SOL     OW 4639   1.855   3.418   2.704
 1320SOL    HW1 4640   1.775   3.403   2.655
 1320SOL    HW2 4641   1.852   3.353   2.775
 1321SOL     OW 4642   0.224   3.167   3.721
 1321SOL    HW1 4643   0.157   3.105   3.695
 1321SOL    HW2 4644   0.213   3.178   3.815
 1322SOL     OW 4645   0.086   3.083   2.517
 1322SOL    HW1 4646   0.098   3.051   2.606
 1322SOL    HW2 4647   0.172   3.074   2.476
 1323SOL     OW 4648   0.681   3.263   3.490
 1323SOL    HW1 4649   0.600   3.221   3.519
 1323SOL    HW2 4650   0.676   3.352   3.526
 1324SOL     OW 4651   1.758   2.039   3.080
 1324SOL    HW1 4652   1.789   1.950   3.100
 1324SOL    HW2 4653   1.791   2.056   2.992
 1325SOL     OW 4654   0.434   2.298   2.386
 1325SOL    HW1 4655   0.462   2.225   2.330
 1325SOL    HW2 4656   0.387   2.256   2.458
 1326SOL     OW 4657   1.697   3.358   2.955
 1326SOL    HW1 4658   1.618   3.329   2.910
 1326SOL    HW2 4659   1.709   3.295   3.026
 1327SOL     OW 4660   0.335   2.420   3.153
 1327SOL    HW1 4661   0.388   2.361   3.207
 1327SOL    HW2 4662   0.350   2.391   3.063
 1328SOL     OW 4663   0.827   3.439   2.541
 1328SOL    HW1 4664   0.817   3.492   2.461
 1328SOL    HW2 4665   0.750   3.383   2.543
 1329SOL     OW 4666   1.431   2.086   2.978
 1329SOL    HW1 4667   1.473   2.015   3.028
 1329SOL    HW2 4668   1.379   2.134   3.043
 1330SOL     OW 4669   1.008   1.881   3.005
 1330SOL    HW1 4670   0.954   1.813   2.966
 1330SOL    HW2 4671   1.097   1.844   3.007
 1331SOL     OW 4672   0.771   3.194   2.176
 1331SOL    HW1 4673   0.741   3.104   2.182
 1331SOL    HW2 4674   0.854   3.195   2.224
 1332SOL     OW 4675   0.622   3.419   3.149
 1332SOL    HW1 4676   0.624   3.501   3.198
 1332SOL    HW2 4677   0.709   3.413   3.109
 1333SOL     OW 4678   1.352   1.916   2.027
 1333SOL    HW1 4679   1.379   1.853   1.959
 1333SOL    HW2 4680   1.265   1.886   2.053
 1334SOL     OW 4681   1.297   2.322   2.543
 1334SOL    HW1 4682   1.244   2.401   2.551
 1334SOL    HW2 4683   1.293   2.282   2.630
 1335SOL     OW 4684   1.592   2.065   2.742
 1335SOL    HW1 4685   1.528   2.083   2.811
 1335SOL    HW2 4686   1.588   2.143   2.686
 1336SOL     OW 4687   0.047   2.931   2.152
 1336SOL    HW1 4688   0.137   2.900   2.141
 1336SOL    HW2 4689   5.300   2.855   2.187
 1337SOL     OW 4690   0.884   3.512   2.205
 1337SOL    HW1 4691   0.811   3.497   2.144
 1337SOL    HW2 4692   0.856   3.588   2.256
 1338SOL     OW 4693   0.233   2.495   3.840
 1338SOL    HW1 4694   0.158   2.463   3.890
 1338SOL    HW2 4695   0.220   2.459   3.752
 1339SOL     OW 4696   0.241   2.138   4.714
 1339SOL    HW1 4697   0.255   2.103   4.802
 1339SOL    HW2 4698   0.157   2.100   4.687
 1340SOL     OW 4699   5.299   2.259   4.376
 1340SOL    HW1 4700   5.206   2.281   4.384
 1340SOL    HW2 4701   5.299   2.168   4.346
 1341SOL     OW 4702   0.573   3.144   4.904
 1341SOL    HW1 4703   0.490   3.153   4.857
 1341SOL    HW2 4704   0.589   3.232   4.939
 1342SOL     OW 4705   1.557   3.375   4.425
 1342SOL    HW1 4706   1.520   3.345   4.508
 1342SOL    HW2 4707   1.483   3.370   4.364
 1343SOL     OW 4708   1.128   2.560   4.427
 1343SOL    HW1 4709   1.174   2.642   4.412
 1343SOL    HW2 4710   1.081   2.574   4.510
 1344SOL     OW 4711   0.757   3.004   4.762
 1344SOL    HW1 4712   0.689   3.037   4.821
 1344SOL    HW2 4713   0.791   3.082   4.718
 1345SOL     OW 4714   0.865   2.639   5.546
 1345SOL    HW1 4715   0.855   2.711   5.608
 1345SOL    HW2 4716   0.888   2.682   5.463
 1346SOL     OW 4717   0.686   2.866   4.372
 1346SOL    HW1 4718   0.751   2.853   4.441
 1346SOL    HW2 4719   0.617   2.918   4.413
 1347SOL     OW 4720   0.709   3.013   5.536
 1347SOL    HW1 4721   0.757   3.091   5.561
 1347SOL    HW2 4722   0.626   3.046   5.500
 1348SOL     OW 4723   0.358   3.267   4.784
 1348SOL    HW1 4724   0.270   3.267   4.746
 1348SOL    HW2 4725   0.407   3.330   4.730
 1349SOL     OW 4726   1.461   3.359   5.078
 1349SOL    HW1 4727   1.509   3.442   5.086
 1349SOL    HW2 4728   1.400   3.359   5.151
 1350SOL     OW 4729   0.450   2.262   5.218
 1350SOL    HW1 4730   0.524   2.202   5.219
 1350SOL    HW2 4731   0.373   2.206   5.226
 1351SOL     OW 4732   1.591   2.307   4.478
 1351SOL    HW1 4733   1.527   2.333   4.411
 1351SOL    HW2 4734   1.658   2.376   4.475
 1352SOL     OW 4735   0.230   3.576   4.202
 1352SOL    HW1 4736   0.265   3.645   4.259
 1352SOL    HW2 4737   0.291   3.573   4.128
 1353SOL     OW 4738   1.136   3.203   5.416
 1353SOL    HW1 4739   1.176   3.199   5.503
 1353SOL    HW2 4740   1.084   3.123   5.410
 1354SOL     OW 4741   0.222   3.305   4.263
 1354SOL    HW1 4742   0.214   3.401   4.261
 1354SOL    HW2 4743   0.153   3.276   4.322
 1355SOL     OW 4744   0.249   2.940   4.600
 1355SOL    HW1 4745   0.260   2.856   4.643
 1355SOL    HW2 4746   0.198   2.992   4.662
 1356SOL     OW 4747   0.615   3.652   5.157
 1356SOL    HW1 4748   0.531   3.635   5.199
 1356SOL    HW2 4749   0.635   3.743   5.179
 1357SOL     OW 4750   0.585   2.844   3.858
 1357SOL    HW1 4751   0.630   2.893   3.789
 1357SOL    HW2 4752   0.626   2.873   3.939
 1358SOL     OW 4753   1.592   1.985   5.192
 1358SOL    HW1 4754   1.607   2.065   5.143
 1358SOL    HW2 4755   1.581   2.014   5.283
 1359SOL     OW 4756   0.126   2.497   4.302
 1359SOL    HW1 4757   0.089   2.413   4.331
 1359SOL    HW2 4758   0.098   2.559   4.369
 1360SOL     OW 4759   1.840   3.625   4.068
 1360SOL    HW1 4760   1.909   3.595   4.127
 1360SOL    HW2 4761   1.866   3.714   4.043
 1361SOL     OW 4762   0.037   3.461   3.855
 1361SOL    HW1 4763   0.024   3.369   3.880
 1361SOL    HW2 4764   5.283   3.510   3.916
 1362SOL     OW 4765   1.639   2.970   4.158
 1362SOL    HW1 4766   1.721   2.972   4.109
 1362SOL    HW2 4767   1.658   3.016   4.239
 1363SOL     OW 4768   0.130   2.610   5.310
 1363SOL    HW1 4769   0.224   2.623   5.314
 1363SOL    HW2 4770   0.092   2.697   5.324
 1364SOL     OW 4771   0.615   3.246   4.459
 1364SOL    HW1 4772   0.567   3.164   4.469
 1364SOL    HW2 4773   0.597   3.273   4.368
 1365SOL     OW 4774   1.289   3.101   5.148
 1365SOL    HW1 4775   1.320   3.032   5.088
 1365SOL    HW2 4776   1.345   3.093   5.224
 1366SOL     OW 4777   0.821   1.860   4.233
 1366SOL    HW1 4778   0.861   1.945   4.214
 1366SOL    HW2 4779   0.728   1.879   4.239
 1367SOL     OW 4780   0.179   2.810   5.001
 1367SOL    HW1 4781   0.269   2.781   4.991
 1367SOL    HW2 4782   0.135   2.781   4.921
 1368SOL     OW 4783   1.524   2.858   3.927
 1368SOL    HW1 4784   1.456   2.798   3.956
 1368SOL    HW2 4785   1.562   2.893   4.008
 1369SOL     OW 4786   1.186   3.667   5.346
 1369SOL    HW1 4787   1.197   3.726   5.271
 1369SOL    HW2 4788   1.201   3.580   5.310
 1370SOL     OW 4789   0.334   2.115   5.538
 1370SOL    HW1 4790   0.382   2.196   5.551
 1370SOL    HW2 4791   0.247   2.132   5.575
 1371SOL     OW 4792   1.466   3.282   4.675
 1371SOL    HW1 4793   1.398   3.297   4.741
 1371SOL    HW2 4794   1.456   3.190   4.650
 1372SOL     OW 4795   1.661   3.598   4.308
 1372SOL    HW1 4796   1.643   3.571   4.218
 1372SOL    HW2 4797   1.637   3.522   4.361
 1373SOL     OW 4798   0.596   2.584   3.989
 1373SOL    HW1 4799   0.603   2.664   3.937
 1373SOL    HW2 4800   0.531   2.605   4.056
 1374SOL     OW 4801   1.279   2.217   4.658
 1374SOL    HW1 4802   1.190   2.183   4.665
 1374SOL    HW2 4803   1.330   2.163   4.717
 1375SOL     OW 4804   1.581   3.531   4.034
 1375SOL    HW1 4805   1.670   3.565   4.029
 1375SOL    HW2 4806   1.556   3.515   3.943
 1376SOL     OW 4807   0.792   2.479   5.176
 1376SOL    HW1 4808   0.765   2.456   5.265
 1376SOL    HW2 4809   0.751   2.413   5.120
 1377SOL     OW 4810   1.393   2.336   5.401
 1377SOL    HW1 4811   1.396   2.380   5.486
 1377SOL    HW2 4812   1.456   2.264   5.409
 1378SOL     OW 4813   0.956   2.750   5.306
 1378SOL    HW1 4814   1.010   2.679   5.271
 1378SOL    HW2 4815   0.908   2.783   5.230
 1379SOL     OW 4816   0.992   2.276   4.963
 1379SOL    HW1 4817   0.907   2.297   5.001
 1379SOL    HW2 4818   0.971   2.227   4.883
 1380SOL     OW 4819   1.050   2.560   4.151
 1380SOL    HW1 4820   1.064   2.553   4.245
 1380SOL    HW2 4821   0.968   2.514   4.135
 1381SOL     OW 4822   0.072   2.649   4.536
 1381SOL    HW1 4823   0.154   2.654   4.584
 1381SOL    HW2 4824   0.061   2.735   4.497
 1382SOL     OW 4825   0.131   3.744   5.308
 1382SOL    HW1 4826   0.133   3.712   5.398
 1382SOL    HW2 4827   0.058   3.697   5.268
 1383SOL     OW 4828   0.891   2.210   3.918
 1383SOL    HW1 4829   0.932   2.272   3.858
 1383SOL    HW2 4830   0.909   2.124   3.880
 1384SOL     OW 4831   1.710   2.439   5.553
 1384SOL    HW1 4832   1.672   2.512   5.503
 1384SOL    HW2 4833   1.735   2.375   5.487
 1385SOL     OW 4834   1.382   3.007   4.269
 1385SOL    HW1 4835   1.455   2.990   4.210
 1385SOL    HW2 4836   1.326   3.067   4.220
 1386SOL     OW 4837   0.555   2.046   4.617
 1386SOL    HW1 4838   0.552   2.073   4.709
 1386SOL    HW2 4839   0.551   2.127   4.567
 1387SOL     OW 4840   1.006   3.306   4.197
 1387SOL    HW1 4841   0.968   3.378   4.147
 1387SOL    HW2 4842   0.991   3.329   4.288
 1388SOL     OW 4843   0.356   3.664   4.593
 1388SOL    HW1 4844   0.397   3.578   4.606
 1388SOL    HW2 4845   0.423   3.727   4.620
 1389SOL     OW 4846   1.229   3.401   5.237
 1389SOL    HW1 4847   1.213   3.328   5.297
 1389SOL    HW2 4848   1.166   3.387   5.166
 1390SOL     OW 4849   0.317   2.814   3.971
 1390SOL    HW1 4850   0.398   2.838   3.927
 1390SOL    HW2 4851   0.293   2.729   3.934
 1391SOL     OW 4852   1.446   2.590   4.457
 1391SOL    HW1 4853   1.426   2.525   4.524
 1391SOL    HW2 4854   1.518   2.641   4.493
 1392SOL     OW 4855   0.464   3.125   5.461
 1392SOL    HW1 4856   0.437   3.131   5.370
 1392SOL    HW2 4857   0.382   3.126   5.511
 1393SOL     OW 4858   1.121   3.640   3.955
 1393SOL    HW1 4859   1.049   3.597   4.001
 1393SOL    HW2 4860   1.144   3.579   3.885
 1394SOL     OW 4861   0.205   2.144   5.221
 1394SOL    HW1 4862   0.125   2.195   5.206
 1394SOL    HW2 4863   0.174   2.066   5.268
 1395SOL     OW 4864   1.630   3.241   3.806
 1395SOL    HW1 4865   1.588   3.326   3.797
 1395SOL    HW2 4866   1.558   3.178   3.791
 1396SOL     OW 4867   0.471   3.597   4.044
 1396SOL    HW1 4868   0.513   3.655   4.108
 1396SOL    HW2 4869   0.543   3.567   3.988
 1397SOL     OW 4870   1.401   1.968   4.157
 1397SOL    HW1 4871   1.391   1.945   4.065
 1397SOL    HW2 4872   1.494   1.985   4.168
 1398SOL     OW 4873   0.275   3.663   4.939
 1398SOL    HW1 4874   0.307   3.586   4.987
 1398SOL    HW2 4875   0.226   3.627   4.866
 1399SOL     OW 4876   0.939   3.560   4.624
 1399SOL    HW1 4877   1.018   3.509   4.642
 1399SOL    HW2 4878   0.894   3.511   4.555
 1400SOL     OW 4879   0.386   2.558   4.203
 1400SOL    HW1 4880   0.415   2.467   4.212
 1400SOL    HW2 4881   0.292   2.555   4.224
 1401SOL     OW 4882   1.535   2.087   5.450
 1401SOL    HW1 4883   1.543   2.108   5.543
 1401SOL    HW2 4884   1.466   2.020   5.447
 1402SOL     OW 4885   0.631   1.985   3.831
 1402SOL    HW1 4886   0.704   1.924   3.841
 1402SOL    HW2 4887   0.584   1.953   3.753
 1403SOL     OW 4888   0.767   2.140   5.477
 1403SOL    HW1 4889   0.842   2.080   5.480
 1403SOL    HW2 4890   0.718   2.121   5.557
 1404SOL     OW 4891   0.877   3.383   4.918
 1404SOL    HW1 4892   0.861   3.348   4.830
 1404SOL    HW2 4893   0.947   3.328   4.953
 1405SOL     OW 4894   1.340   2.451   5.156
 1405SOL    HW1 4895   1.372   2.418   5.240
 1405SOL    HW2 4896   1.376   2.540   5.150
 1406SOL     OW 4897   0.815   3.257   4.662
 1406SOL    HW1 4898   0.899   3.247   4.618
 1406SOL    HW2 4899   0.750   3.258   4.592
 1407SOL     OW 4900   0.928   2.372   4.627
 1407SOL    HW1 4901   0.904   2.363   4.535
 1407SOL    HW2 4902   0.959   2.285   4.652
 1408SOL     OW 4903   0.559   1.923   4.221
 1408SOL    HW1 4904   0.485   1.924   4.280
 1408SOL    HW2 4905   0.549   2.003   4.169
 1409SOL     OW 4906   1.428   3.060   3.765
 1409SOL    HW1 4907   1.460   2.983   3.813
 1409SOL    HW2 4908   1.342   3.078   3.804
 1410SOL     OW 4909   0.305   1.909   3.904
 1410SOL    HW1 4910   0.367   1.972   3.868
 1410SOL    HW2 4911   0.360   1.844   3.948
 1411SOL     OW 4912   0.938   2.108   4.185
 1411SOL    HW1 4913   0.911   2.150   4.103
 1411SOL    HW2 4914   1.033   2.121   4.188
 1412SOL     OW 4915   1.079   2.542   5.184
 1412SOL    HW1 4916   1.010   2.476   5.189
 1412SOL    HW2 4917   1.160   2.492   5.177
 1413SOL     OW 4918   1.223   3.431   4.518
 1413SOL    HW1 4919   1.240   3.498   4.452
 1413SOL    HW2 4920   1.295   3.441   4.581
 1414SOL     OW 4921   0.467   3.011   4.457
 1414SOL    HW1 4922   0.398   2.992   4.520
 1414SOL    HW2 4923   0.428   2.993   4.371
 1415SOL     OW 4924   1.270   3.656   4.331
 1415SOL    HW1 4925   1.315   3.717   4.273
 1415SOL    HW2 4926   1.204   3.710   4.376
 1416SOL     OW 4927   1.023   2.404   3.747
 1416SOL    HW1 4928   0.983   2.488   3.726
 1416SOL    HW2 4929   1.092   2.426   3.810
 1417SOL     OW 4930   0.086   2.408   5.122
 1417SOL    HW1 4931   0.174   2.415   5.084
 1417SOL    HW2 4932   0.079   2.484   5.180
 1418SOL     OW 4933   0.560   2.089   4.890
 1418SOL    HW1 4934   0.598   2.009   4.926
 1418SOL    HW2 4935   0.469   2.088   4.918
 1419SOL     OW 4936   0.869   2.322   4.363
 1419SOL    HW1 4937   0.822   2.375   4.299
 1419SOL    HW2 4938   0.889   2.241   4.317
 1420SOL     OW 4939   1.014   1.915   4.476
 1420SOL    HW1 4940   0.956   1.907   4.401
 1420SOL    HW2 4941   0.993   1.840   4.531
 1421SOL     OW 4942   1.436   3.025   4.579
 1421SOL    HW1 4943   1.368   2.958   4.590
 1421SOL    HW2 4944   1.438   3.041   4.484
 1422SOL     OW 4945   1.460   2.460   4.719
 1422SOL    HW1 4946   1.410   2.380   4.702
 1422SOL    HW2 4947   1.529   2.432   4.779
 1423SOL     OW 4948   0.492   3.278   3.883
 1423SOL    HW1 4949   0.417   3.250   3.935
 1423SOL    HW2 4950   0.474   3.246   3.795
 1424SOL     OW 4951   1.387   2.437   3.792
 1424SOL    HW1 4952   1.339   2.410   3.870
 1424SOL    HW2 4953   1.477   2.408   3.808
 1425SOL     OW 4954   0.524   2.125   4.043
 1425SOL    HW1 4955   0.568   2.077   3.972
 1425SOL    HW2 4956   0.503   2.210   4.004
 1426SOL     OW 4957   1.768   3.092   5.295
 1426SOL    HW1 4958   1.830   3.043   5.349
 1426SOL    HW2 4959   1.781   3.184   5.320
 1427SOL     OW 4960   1.059   3.214   5.057
 1427SOL    HW1 4961   0.984   3.184   5.108
 1427SOL    HW2 4962   1.135   3.174   5.099
 1428SOL     OW 4963   1.607   3.486   5.377
 1428SOL    HW1 4964   1.603   3.521   5.288
 1428SOL    HW2 4965   1.691   3.439   5.380
 1429SOL     OW 4966   1.127   3.063   4.829
 1429SOL    HW1 4967   1.069   3.102   4.895
 1429SOL    HW2 4968   1.094   3.097   4.746
 1430SOL     OW 4969   1.628   2.951   4.807
 1430SOL    HW1 4970   1.628   3.024   4.868
 1430SOL    HW2 4971   1.568   2.978   4.737
 1431SOL     OW 4972   0.918   1.959   5.122
 1431SOL    HW1 4973   0.940   1.940   5.030
 1431SOL    HW2 4974   0.997   1.999   5.158
 1432SOL     OW 4975   0.984   2.976   5.446
 1432SOL    HW1 4976   0.892   2.992   5.466
 1432SOL    HW2 4977   0.984   2.899   5.390
 1433SOL     OW 4978   0.707   2.922   4.096
 1433SOL    HW1 4979   0.696   2.907   4.190
 1433SOL    HW2 4980   0.784   2.869   4.073
 1434SOL     OW 4981   0.420   2.680   4.976
 1434SOL    HW1 4982   0.489   2.687   5.042
 1434SOL    HW2 4983   0.385   2.591   4.987
 1435SOL     OW 4984   1.266   2.240   4.998
 1435SOL    HW1 4985   1.298   2.316   5.045
 1435SOL    HW2 4986   1.175   2.262   4.975
 1436SOL     OW 4987   0.100   3.485   5.091
 1436SOL    HW1 4988   0.078   3.495   4.999
 1436SOL    HW2 4989   0.187   3.443   5.091
 1437SOL     OW 4990   0.344   2.967   4.212
 1437SOL    HW1 4991   0.354   3.046   4.159
 1437SOL    HW2 4992   0.355   2.895   4.150
 1438SOL     OW 4993   0.555   2.398   4.583
 1438SOL    HW1 4994   0.571   2.457   4.509
 1438SOL    HW2 4995   0.619   2.426   4.650
 1439SOL     OW 4996   1.247   3.207   4.115
 1439SOL    HW1 4997   1.302   3.281   4.142
 1439SOL    HW2 4998   1.160   3.230   4.148
 1440SOL     OW 4999   1.280   3.318   4.871
 1440SOL    HW1 5000   1.336   3.321   4.949
 1440SOL    HW2 5001   1.224   3.242   4.884
 1441SOL     OW 5002   1.584   2.482   4.205
 1441SOL    HW1 5003   1.515   2.527   4.253
 1441SOL    HW2 5004   1.606   2.541   4.132
 1442SOL     OW 5005   0.351   3.381   5.035
 1442SOL    HW1 5006   0.342   3.338   4.950
 1442SOL    HW2 5007   0.445   3.399   5.042
 1443SOL     OW 5008   0.413   2.605   5.326
 1443SOL    HW1 5009   0.473   2.651   5.268
 1443SOL    HW2 5010   0.453   2.519   5.339
 1444SOL     OW 5011   1.600   2.641   5.405
 1444SOL    HW1 5012   1.514   2.681   5.398
 1444SOL    HW2 5013   1.652   2.683   5.337
 1445SOL     OW 5014   0.996   1.983   5.480
 1445SOL    HW1 5015   1.050   2.056   5.450
 1445SOL    HW2 5016   1.044   1.905   5.454
 1446SOL     OW 5017   0.497   1.904   5.471
 1446SOL    HW1 5018   0.456   1.850   5.404
 1446SOL    HW2 5019   0.437   1.978   5.483
 1447SOL     OW 5020   0.585   2.735   4.756
 1447SOL    HW1 5021   0.615   2.826   4.755
 1447SOL    HW2 5022   0.529   2.730   4.833
 1448SOL     OW 5023   1.359   2.720   4.750
 1448SOL    HW1 5024   1.272   2.712   4.712
 1448SOL    HW2 5025   1.393   2.631   4.751
 1449SOL     OW 5026   1.207   2.389   3.995
 1449SOL    HW1 5027   1.213   2.311   4.050
 1449SOL    HW2 5028   1.162   2.453   4.051
 1450SOL     OW 5029   0.302   2.065   4.972
 1450SOL    HW1 5030   0.267   2.091   5.058
 1450SOL    HW2 5031   0.289   1.971   4.968
 1451SOL     OW 5032   0.070   3.181   5.005
 1451SOL    HW1 5033   0.090   3.121   5.077
 1451SOL    HW2 5034   0.003   3.239   5.040
 1452SOL     OW 5035   0.725   2.494   4.783
 1452SOL    HW1 5036   0.799   2.477   4.724
 1452SOL    HW2 5037   0.697   2.583   4.761
 1453SOL     OW 5038   1.730   2.823   5.574
 1453SOL    HW1 5039   1.686   2.759   5.519
 1453SOL    HW2 5040   1.671   2.834   5.649
 1454SOL     OW 5041   0.327   1.924   4.358
 1454SOL    HW1 5042   0.307   2.013   4.386
 1454SOL    HW2 5043   0.331   1.874   4.440
 1455SOL     OW 5044   1.604   2.224   4.099
 1455SOL    HW1 5045   1.635   2.164   4.167
 1455SOL    HW2 5046   1.597   2.309   4.143
 1456SOL     OW 5047   1.029   2.621   4.686
 1456SOL    HW1 5048   1.025   2.639   4.780
 1456SOL    HW2 5049   1.001   2.529   4.678
 1457SOL     OW 5050   0.982   3.428   5.440
 1457SOL    HW1 5051   0.967   3.473   5.357
 1457SOL    HW2 5052   1.025   3.346   5.416
 1458SOL     OW 5053   1.856   3.365   5.329
 1458SOL    HW1 5054   1.872   3.395   5.239
 1458SOL    HW2 5055   1.936   3.388   5.377
 1459SOL     OW 5056   0.353   2.780   5.530
 1459SOL    HW1 5057   0.435   2.799   5.577
 1459SOL    HW2 5058   0.378   2.715   5.464
 1460SOL     OW 5059   1.528   2.132   3.852
 1460SOL    HW1 5060   1.463   2.069   3.880
 1460SOL    HW2 5061   1.561   2.171   3.933
 1461SOL     OW 5062   1.294   2.691   3.758
 1461SOL    HW1 5063   1.332   2.603   3.760
 1461SOL    HW2 5064   1.325   2.729   3.676
 1462SOL     OW 5065   1.066   3.197   4.578
 1462SOL    HW1 5066   1.068   3.126   4.515
 1462SOL    HW2 5067   1.127   3.262   4.543
 1463SOL     OW 5068   0.314   2.672   4.674
 1463SOL    HW1 5069   0.408   2.690   4.670
 1463SOL    HW2 5070   0.309   2.582   4.706
 1464SOL     OW 5071   0.336   2.387   4.738
 1464SOL    HW1 5072   0.300   2.299   4.724
 1464SOL    HW2 5073   0.410   2.393   4.679
 1465SOL     OW 5074   1.134   2.239   5.405
 1465SOL    HW1 5075   1.087   2.294   5.468
 1465SOL    HW2 5076   1.222   2.276   5.401
 1466SOL     OW 5077   1.160   2.065   5.194
 1466SOL    HW1 5078   1.150   2.128   5.265
 1466SOL    HW2 5079   1.200   2.116   5.123
 1467SOL     OW 5080   0.001   3.192   3.934
 1467SOL    HW1 5081   5.226   3.183   3.876
 1467SOL    HW2 5082   0.012   3.106   3.975
 1468SOL     OW 5083   0.092   3.644   4.674
 1468SOL    HW1 5084   0.058   3.573   4.619
 1468SOL    HW2 5085   0.179   3.662   4.639
 1469SOL     OW 5086   0.505   3.435   4.631
 1469SOL    HW1 5087   0.573   3.500   4.652
 1469SOL    HW2 5088   0.549   3.374   4.572
 1470SOL     OW 5089   0.985   2.654   4.951
 1470SOL    HW1 5090   1.039   2.631   5.026
 1470SOL    HW2 5091   0.899   2.618   4.972
 1471SOL     OW 5092   0.034   2.422   4.839
 1471SOL    HW1 5093   0.119   2.396   4.806
 1471SOL    HW2 5094   0.038   2.404   4.933
 1472SOL     OW 5095   0.175   2.375   5.436
 1472SOL    HW1 5096   0.241   2.340   5.376
 1472SOL    HW2 5097   0.145   2.455   5.394
 1473SOL     OW 5098   1.376   2.802   5.383
 1473SOL    HW1 5099   1.396   2.895   5.381
 1473SOL    HW2 5100   1.373   2.776   5.291
 1474SOL     OW 5101   0.816   2.431   4.082
 1474SOL    HW1 5102   0.820   2.356   4.022
 1474SOL    HW2 5103   0.742   2.483   4.051
 1475SOL     OW 5104   0.257   3.418   5.459
 1475SOL    HW1 5105   0.233   3.481   5.528
 1475SOL    HW2 5106   0.249   3.332   5.501
 1476SOL     OW 5107   0.699   2.313   4.985
 1476SOL    HW1 5108   0.647   2.239   4.955
 1476SOL    HW2 5109   0.696   2.376   4.912
 1477SOL     OW 5110   0.930   3.541   5.191
 1477SOL    HW1 5111   0.902   3.507   5.105
 1477SOL    HW2 5112   0.925   3.636   5.182
 1478SOL     OW 5113   0.466   2.355   3.911
 1478SOL    HW1 5114   0.525   2.427   3.931
 1478SOL    HW2 5115   0.380   2.397   3.899
 1479SOL     OW 5116   0.148   3.000   5.195
 1479SOL    HW1 5117   0.147   2.950   5.277
 1479SOL    HW2 5118   0.161   2.934   5.127
 1480SOL     OW 5119   1.325   2.908   4.949
 1480SOL    HW1 5120   1.356   2.850   4.879
 1480SOL    HW2 5121   1.254   2.959   4.909
 1481SOL     OW 5122   1.311   2.712   4.034
 1481SOL    HW1 5123   1.231   2.686   4.079
 1481SOL    HW2 5124   1.290   2.703   3.941
 1482SOL     OW 5125   1.773   3.609   4.877
 1482SOL    HW1 5126   1.831   3.633   4.805
 1482SOL    HW2 5127   1.745   3.520   4.857
 1483SOL     OW 5128   1.241   3.595   4.840
 1483SOL    HW1 5129   1.322   3.616   4.793
 1483SOL    HW2 5130   1.246   3.501   4.856
 1484SOL     OW 5131   0.083   3.081   4.751
 1484SOL    HW1 5132   0.070   3.106   4.843
 1484SOL    HW2 5133   5.294   3.069   4.717
 1485SOL     OW 5134   0.678   3.527   5.452
 1485SOL    HW1 5135   0.623   3.606   5.447
 1485SOL    HW2 5136   0.741   3.538   5.380
 1486SOL     OW 5137   1.696   1.994   4.235
 1486SOL    HW1 5138   1.782   1.978   4.197
 1486SOL    HW2 5139   1.676   1.913   4.283
 1487SOL     OW 5140   1.385   3.429   4.202
 1487SOL    HW1 5141   1.450   3.462   4.140
 1487SOL    HW2 5142   1.341   3.508   4.235
 1488SOL     OW 5143   0.144   3.660   5.567
 1488SOL    HW1 5144   0.089   3.597   5.613
 1488SOL    HW2 5145   0.189   3.708   5.636
 1489SOL     OW 5146   1.270   2.791   4.392
 1489SOL    HW1 5147   1.339   2.725   4.399
 1489SOL    HW2 5148   1.309   2.862   4.341
 1490SOL     OW 5149   0.816   3.135   5.155
 1490SOL    HW1 5150   0.788   3.174   5.237
 1490SOL    HW2 5151   0.746   3.156   5.093
 1491SOL     OW 5152   0.672   3.480   3.879
 1491SOL    HW1 5153   0.682   3.493   3.785
 1491SOL    HW2 5154   0.618   3.402   3.887
 1492SOL     OW 5155   1.630   3.589   5.117
 1492SOL    HW1 5156   1.677   3.596   5.035
 1492SOL    HW2 5157   1.615   3.679   5.145
 1493SOL     OW 5158   1.811   2.032   4.690
 1493SOL    HW1 5159   1.849   1.950   4.660
 1493SOL    HW2 5160   1.728   2.039   4.642
 1494SOL     OW 5161   0.272   2.179   4.442
 1494SOL    HW1 5162   0.188   2.218   4.420
 1494SOL    HW2 5163   0.270   2.168   4.537
 1495SOL     OW 5164   1.206   3.469   3.755
 1495SOL    HW1 5165   1.197   3.377   3.782
 1495SOL    HW2 5166   1.142   3.480   3.686
 1496SOL     OW 5167   0.824   2.868   5.096
 1496SOL    HW1 5168   0.867   2.864   5.011
 1496SOL    HW2 5169   0.824   2.961   5.119
 1497SOL     OW 5170   0.916   2.773   4.014
 1497SOL    HW1 5171   0.976   2.804   3.947
 1497SOL    HW2 5172   0.963   2.702   4.058
 1498SOL     OW 5173   1.491   3.485   3.766
 1498SOL    HW1 5174   1.396   3.481   3.756
 1498SOL    HW2 5175   1.524   3.493   3.677
 1499SOL     OW 5176   0.368   3.165   5.217
 1499SOL    HW1 5177   0.359   3.240   5.158
 1499SOL    HW2 5178   0.292   3.110   5.198
 1500SOL     OW 5179   1.621   3.149   5.006
 1500SOL    HW1 5180   1.665   3.132   5.089
 1500SOL    HW2 5181   1.555   3.215   5.025
 1501SOL     OW 5182   1.050   2.969   4.429
 1501SOL    HW1 5183   0.979   2.919   4.470
 1501SOL    HW2 5184   1.112   2.903   4.399
 1502SOL     OW 5185   1.021   2.103   4.690
 1502SOL    HW1 5186   1.016   2.054   4.607
 1502SOL    HW2 5187   1.016   2.035   4.757
 1503SOL     OW 5188   0.601   3.349   4.206
 1503SOL    HW1 5189   0.645   3.301   4.136
 1503SOL    HW2 5190   0.535   3.402   4.161
 1504SOL     OW 5191   1.718   2.242   5.120
 1504SOL    HW1 5192   1.783   2.312   5.119
 1504SOL    HW2 5193   1.751   2.178   5.057
 1505SOL     OW 5194   0.260   3.210   4.016
 1505SOL    HW1 5195   0.167   3.212   3.993
 1505SOL    HW2 5196   0.264   3.247   4.104
 1506SOL     OW 5197   0.115   2.878   5.443
 1506SOL    HW1 5198   0.044   2.842   5.496
 1506SOL    HW2 5199   0.195   2.847   5.485
 1507SOL     OW 5200   0.674   2.058   5.223
 1507SOL    HW1 5201   0.757   2.039   5.181
 1507SOL    HW2 5202   0.697   2.089   5.310
 1508SOL     OW 5203   0.081   2.214   3.765
 1508SOL    HW1 5204   0.002   2.164   3.741
 1508SOL    HW2 5205   0.098   2.270   3.690
 1509SOL     OW 5206   1.430   2.721   5.125
 1509SOL    HW1 5207   1.380   2.780   5.069
 1509SOL    HW2 5208   1.520   2.726   5.092
 1510SOL     OW 5209   0.055   1.995   3.967
 1510SOL    HW1 5210   0.055   2.091   3.961
 1510SOL    HW2 5211   0.146   1.971   3.947
 1511SOL     OW 5212   1.179   3.202   3.841
 1511SOL    HW1 5213   1.088   3.173   3.844
 1511SOL    HW2 5214   1.207   3.202   3.933
 1512SOL     OW 5215   0.619   2.693   5.159
 1512SOL    HW1 5216   0.675   2.769   5.143
 1512SOL    HW2 5217   0.680   2.620   5.167
 1513SOL     OW 5218   1.481   3.641   4.704
 1513SOL    HW1 5219   1.506   3.693   4.628
 1513SOL    HW2 5220   1.564   3.618   4.746
 1514SOL     OW 5221   0.717   2.427   5.429
 1514SOL    HW1 5222   0.757   2.490   5.489
 1514SOL    HW2 5223   0.748   2.341   5.460
 1515SOL     OW 5224   1.470   3.063   5.356
 1515SOL    HW1 5225   1.456   3.076   5.450
 1515SOL    HW2 5226   1.564   3.077   5.344
 1516SOL     OW 5227   0.379   3.604   5.288
 1516SOL    HW1 5228   0.296   3.649   5.273
 1516SOL    HW2 5229   0.354   3.523   5.333
 1517SOL     OW 5230   1.666   2.746   4.978
 1517SOL    HW1 5231   1.671   2.670   4.920
 1517SOL    HW2 5232   1.661   2.821   4.919
 1518SOL     OW 5233   1.217   2.180   4.182
 1518SOL    HW1 5234   1.281   2.109   4.173
 1518SOL    HW2 5235   1.246   2.229   4.259
 1519SOL     OW 5236   0.591   2.600   4.392
 1519SOL    HW1 5237   0.630   2.686   4.376
 1519SOL    HW2 5238   0.521   2.593   4.327
 1520SOL     OW 5239   1.763   2.221   5.386
 1520SOL    HW1 5240   1.753   2.235   5.292
 1520SOL    HW2 5241   1.690   2.165   5.410
 1521SOL     OW 5242   1.741   2.800   5.235
 1521SOL    HW1 5243   1.743   2.895   5.243
 1521SOL    HW2 5244   1.729   2.783   5.142
 1522SOL     OW 5245   0.863   3.230   3.757
 1522SOL    HW1 5246   0.823   3.258   3.839
 1522SOL    HW2 5247   0.881   3.311   3.710
 1523SOL     OW 5248   0.662   3.656   4.669
 1523SOL    HW1 5249   0.641   3.747   4.646
 1523SOL    HW2 5250   0.758   3.652   4.662
 1524SOL     OW 5251   0.867   2.828   4.579
 1524SOL    HW1 5252   0.917   2.757   4.620
 1524SOL    HW2 5253   0.833   2.878   4.653
 1525SOL     OW 5254   1.079   2.849   3.812
 1525SOL    HW1 5255   1.058   2.900   3.734
 1525SOL    HW2 5256   1.155   2.797   3.787
 1526SOL     OW 5257   0.224   3.167   5.583
 1526SOL    HW1 5258   0.157   3.104   5.557
 1526SOL    HW2 5259   0.213   3.178   5.677
 1527SOL     OW 5260   0.086   3.084   4.379
 1527SOL    HW1 5261   0.098   3.051   4.468
 1527SOL    HW2 5262   0.172   3.073   4.337
 1528SOL     OW 5263   0.681   3.263   5.352
 1528SOL    HW1 5264   0.600   3.221   5.381
 1528SOL    HW2 5265   0.676   3.352   5.388
 1529SOL     OW 5266   1.813   2.048   4.962
 1529SOL    HW1 5267   1.837   1.957   4.982
 1529SOL    HW2 5268   1.806   2.051   4.866
 1530SOL     OW 5269   0.434   2.298   4.248
 1530SOL    HW1 5270   0.462   2.225   4.192
 1530SOL    HW2 5271   0.387   2.256   4.320
 1531SOL     OW 5272   1.698   3.359   4.825
 1531SOL    HW1 5273   1.624   3.333   4.770
 1531SOL    HW2 5274   1.715   3.282   4.880
 1532SOL     OW 5275   0.335   2.420   5.015
 1532SOL    HW1 5276   0.388   2.361   5.068
 1532SOL    HW2 5277   0.350   2.391   4.925
 1533SOL     OW 5278   0.828   3.439   4.403
 1533SOL    HW1 5279   0.817   3.492   4.323
 1533SOL    HW2 5280   0.750   3.383   4.404
 1534SOL     OW 5281   1.433   2.088   4.842
 1534SOL    HW1 5282   1.463   2.010   4.889
 1534SOL    HW2 5283   1.380   2.136   4.905
 1535SOL     OW 5284   1.009   1.881   4.867
 1535SOL    HW1 5285   0.954   1.813   4.828
 1535SOL    HW2 5286   1.097   1.844   4.869
 1536SOL     OW 5287   0.771   3.195   4.038
 1536SOL    HW1 5288   0.740   3.104   4.044
 1536SOL    HW2 5289   0.854   3.195   4.086
 1537SOL     OW 5290   0.622   3.419   5.011
 1537SOL    HW1 5291   0.624   3.501   5.060
 1537SOL    HW2 5292   0.709   3.413   4.971
 1538SOL     OW 5293   1.351   1.914   3.891
 1538SOL    HW1 5294   1.377   1.856   3.819
 1538SOL    HW2 5295   1.265   1.883   3.917
 1539SOL     OW 5296   1.293   2.324   4.404
 1539SOL    HW1 5297   1.235   2.400   4.414
 1539SOL    HW2 5298   1.291   2.282   4.491
 1540SOL     OW 5299   1.565   2.057   4.590
 1540SOL    HW1 5300   1.514   2.080   4.668
 1540SOL    HW2 5301   1.572   2.139   4.542
 1541SOL     OW 5302   0.047   2.931   4.015
 1541SOL    HW1 5303   0.137   2.900   4.003
 1541SOL    HW2 5304   5.300   2.855   4.048
 1542SOL     OW 5305   0.883   3.512   4.067
 1542SOL    HW1 5306   0.811   3.497   4.006
 1542SOL    HW2 5307   0.856   3.588   4.118
 1543SOL     OW 5308   0.233   2.495   5.702
 1543SOL    HW1 5309   0.158   2.463   5.752
 1543SOL    HW2 5310   0.220   2.459   5.614
 1544SOL     OW 5311   0.241   2.138   6.576
 1544SOL    HW1 5312   0.255   2.103   6.664
 1544SOL    HW2 5313   0.157   2.100   6.549
 1545SOL     OW 5314   5.299   2.259   6.238
 1545SOL    HW1 5315   5.206   2.281   6.246
 1545SOL    HW2 5316   5.299   2.168   6.208
 1546SOL     OW 5317   0.573   3.144   6.766
 1546SOL    HW1 5318   0.490   3.153   6.719
 1546SOL    HW2 5319   0.589   3.232   6.801
 1547SOL     OW 5320   1.560   3.373   6.292
 1547SOL    HW1 5321   1.517   3.355   6.376
 1547SOL    HW2 5322   1.488   3.378   6.229
 1548SOL     OW 5323   1.130   2.560   6.288
 1548SOL    HW1 5324   1.179   2.641   6.274
 1548SOL    HW2 5325   1.083   2.575   6.370
 1549SOL     OW 5326   1.765   2.468   5.816
 1549SOL    HW1 5327   1.746   2.460   5.723
 1549SOL    HW2 5328   1.731   2.388   5.854
 1550SOL     OW 5329   0.757   3.004   6.624
 1550SOL    HW1 5330   0.689   3.038   6.683
 1550SOL    HW2 5331   0.791   3.082   6.580
 1551SOL     OW 5332   0.864   2.641   7.406
 1551SOL    HW1 5333   0.853   2.716   7.465
 1551SOL    HW2 5334   0.889   2.679   7.322
 1552SOL     OW 5335   0.685   2.866   6.234
 1552SOL    HW1 5336   0.751   2.853   6.302
 1552SOL    HW2 5337   0.617   2.918   6.276
 1553SOL     OW 5338   0.708   3.013   7.398
 1553SOL    HW1 5339   0.757   3.092   7.423
 1553SOL    HW2 5340   0.626   3.046   7.362
 1554SOL     OW 5341   0.358   3.268   6.646
 1554SOL    HW1 5342   0.270   3.266   6.608
 1554SOL    HW2 5343   0.406   3.330   6.592
 1555SOL     OW 5344   1.461   3.361   6.939
 1555SOL    HW1 5345   1.510   3.443   6.948
 1555SOL    HW2 5346   1.402   3.359   7.014
 1556SOL     OW 5347   0.450   2.263   7.081
 1556SOL    HW1 5348   0.524   2.202   7.081
 1556SOL    HW2 5349   0.373   2.206   7.089
 1557SOL     OW 5350   1.613   2.311   6.326
 1557SOL    HW1 5351   1.537   2.334   6.272
 1557SOL    HW2 5352   1.629   2.388   6.379
 1558SOL     OW 5353   0.230   3.576   6.063
 1558SOL    HW1 5354   0.265   3.645   6.121
 1558SOL    HW2 5355   0.292   3.573   5.990
 1559SOL     OW 5356   1.136   3.203   7.276
 1559SOL    HW1 5357   1.176   3.200   7.363
 1559SOL    HW2 5358   1.084   3.123   7.271
 1560SOL     OW 5359   0.222   3.305   6.125
 1560SOL    HW1 5360   0.214   3.401   6.123
 1560SOL    HW2 5361   0.153   3.276   6.184
 1561SOL     OW 5362   0.249   2.940   6.462
 1561SOL    HW1 5363   0.260   2.856   6.505
 1561SOL    HW2 5364   0.198   2.992   6.524
 1562SOL     OW 5365   0.615   3.652   7.018
 1562SOL    HW1 5366   0.531   3.635   7.061
 1562SOL    HW2 5367   0.635   3.743   7.041
 1563SOL     OW 5368   0.585   2.844   5.720
 1563SOL    HW1 5369   0.630   2.893   5.651
 1563SOL    HW2 5370   0.626   2.873   5.801
 1564SOL     OW 5371   1.596   1.984   7.055
 1564SOL    HW1 5372   1.599   2.065   7.003
 1564SOL    HW2 5373   1.583   2.014   7.145
 1565SOL     OW 5374   0.126   2.497   6.164
 1565SOL    HW1 5375   0.089   2.413   6.193
 1565SOL    HW2 5376   0.098   2.559   6.231
 1566SOL     OW 5377   1.842   3.621   5.921
 1566SOL    HW1 5378   1.904   3.593   5.988
 1566SOL    HW2 5379   1.867   3.712   5.903
 1567SOL     OW 5380   0.037   3.461   5.717
 1567SOL    HW1 5381   0.024   3.369   5.742
 1567SOL    HW2 5382   5.284   3.510   5.778
 1568SOL     OW 5383   1.689   2.780   6.225
 1568SOL    HW1 5384   1.773   2.740   6.206
 1568SOL    HW2 5385   1.667   2.831   6.147
 1569SOL     OW 5386   1.646   2.969   6.015
 1569SOL    HW1 5387   1.731   2.976   5.973
 1569SOL    HW2 5388   1.650   3.030   6.089
 1570SOL     OW 5389   0.130   2.608   7.174
 1570SOL    HW1 5390   0.224   2.623   7.176
 1570SOL    HW2 5391   0.092   2.695   7.187
 1571SOL     OW 5392   0.615   3.246   6.321
 1571SOL    HW1 5393   0.567   3.164   6.331
 1571SOL    HW2 5394   0.597   3.273   6.230
 1572SOL     OW 5395   1.289   3.100   7.010
 1572SOL    HW1 5396   1.322   3.033   6.950
 1572SOL    HW2 5397   1.346   3.094   7.087
 1573SOL     OW 5398   0.821   1.860   6.095
 1573SOL    HW1 5399   0.861   1.945   6.076
 1573SOL    HW2 5400   0.728   1.879   6.101
 1574SOL     OW 5401   0.179   2.810   6.863
 1574SOL    HW1 5402   0.269   2.781   6.853
 1574SOL    HW2 5403   0.135   2.781   6.783
 1575SOL     OW 5404   1.532   2.855   5.784
 1575SOL    HW1 5405   1.462   2.797   5.815
 1575SOL    HW2 5406   1.572   2.889   5.864
 1576SOL     OW 5407   1.185   3.667   7.207
 1576SOL    HW1 5408   1.197   3.725   7.132
 1576SOL    HW2 5409   1.201   3.580   7.173
 1577SOL     OW 5410   0.335   2.114   7.399
 1577SOL    HW1 5411   0.383   2.196   7.412
 1577SOL    HW2 5412   0.248   2.132   7.436
 1578SOL     OW 5413   1.466   3.282   6.538
 1578SOL    HW1 5414   1.398   3.297   6.604
 1578SOL    HW2 5415   1.454   3.191   6.511
 1579SOL     OW 5416   1.659   3.599   6.164
 1579SOL    HW1 5417   1.638   3.570   6.075
 1579SOL    HW2 5418   1.634   3.526   6.220
 1580SOL     OW 5419   0.596   2.584   5.851
 1580SOL    HW1 5420   0.604   2.664   5.800
 1580SOL    HW2 5421   0.531   2.605   5.918
 1581SOL     OW 5422   1.279   2.213   6.518
 1581SOL    HW1 5423   1.190   2.180   6.527
 1581SOL    HW2 5424   1.330   2.160   6.580
 1582SOL     OW 5425   1.581   3.531   5.895
 1582SOL    HW1 5426   1.671   3.564   5.888
 1582SOL    HW2 5427   1.555   3.515   5.804
 1583SOL     OW 5428   0.792   2.479   7.038
 1583SOL    HW1 5429   0.765   2.456   7.127
 1583SOL    HW2 5430   0.751   2.413   6.983
 1584SOL     OW 5431   1.394   2.336   7.263
 1584SOL    HW1 5432   1.395   2.381   7.348
 1584SOL    HW2 5433   1.456   2.263   7.273
 1585SOL     OW 5434   0.956   2.749   7.168
 1585SOL    HW1 5435   1.010   2.679   7.132
 1585SOL    HW2 5436   0.908   2.783   7.092
 1586SOL     OW 5437   0.992   2.275   6.825
 1586SOL    HW1 5438   0.907   2.297   6.863
 1586SOL    HW2 5439   0.971   2.228   6.745
 1587SOL     OW 5440   1.050   2.561   6.012
 1587SOL    HW1 5441   1.066   2.554   6.107
 1587SOL    HW2 5442   0.968   2.513   5.998
 1588SOL     OW 5443   0.072   2.649   6.398
 1588SOL    HW1 5444   0.154   2.654   6.446
 1588SOL    HW2 5445   0.061   2.735   6.359
 1589SOL     OW 5446   0.130   3.744   7.170
 1589SOL    HW1 5447   0.131   3.713   7.261
 1589SOL    HW2 5448   0.059   3.696   7.129
 1590SOL     OW 5449   0.891   2.210   5.780
 1590SOL    HW1 5450   0.932   2.272   5.719
 1590SOL    HW2 5451   0.908   2.124   5.742
 1591SOL     OW 5452   1.709   2.438   7.415
 1591SOL    HW1 5453   1.672   2.513   7.369
 1591SOL    HW2 5454   1.736   2.377   7.346
 1592SOL     OW 5455   1.376   3.004   6.127
 1592SOL    HW1 5456   1.455   2.991   6.075
 1592SOL    HW2 5457   1.324   3.066   6.077
 1593SOL     OW 5458   0.555   2.046   6.479
 1593SOL    HW1 5459   0.552   2.073   6.571
 1593SOL    HW2 5460   0.551   2.127   6.429
 1594SOL     OW 5461   1.006   3.306   6.059
 1594SOL    HW1 5462   0.968   3.379   6.009
 1594SOL    HW2 5463   0.990   3.328   6.150
 1595SOL     OW 5464   0.356   3.664   6.455
 1595SOL    HW1 5465   0.397   3.578   6.468
 1595SOL    HW2 5466   0.423   3.727   6.482
 1596SOL     OW 5467   1.798   2.919   6.454
 1596SOL    HW1 5468   1.742   2.903   6.378
 1596SOL    HW2 5469   1.737   2.925   6.527
 1597SOL     OW 5470   1.228   3.401   7.099
 1597SOL    HW1 5471   1.214   3.328   7.159
 1597SOL    HW2 5472   1.165   3.386   7.028
 1598SOL     OW 5473   0.317   2.814   5.833
 1598SOL    HW1 5474   0.398   2.838   5.789
 1598SOL    HW2 5475   0.293   2.729   5.796
 1599SOL     OW 5476   1.477   2.603   6.314
 1599SOL    HW1 5477   1.468   2.559   6.398
 1599SOL    HW2 5478   1.554   2.659   6.323
 1600SOL     OW 5479   0.464   3.124   7.323
 1600SOL    HW1 5480   0.437   3.131   7.232
 1600SOL    HW2 5481   0.382   3.126   7.373
 1601SOL     OW 5482   1.121   3.639   5.817
 1601SOL    HW1 5483   1.049   3.597   5.863
 1601SOL    HW2 5484   1.144   3.579   5.747
 1602SOL     OW 5485   0.204   2.144   7.084
 1602SOL    HW1 5486   0.125   2.194   7.067
 1602SOL    HW2 5487   0.174   2.065   7.130
 1603SOL     OW 5488   1.629   3.241   5.671
 1603SOL    HW1 5489   1.588   3.326   5.658
 1603SOL    HW2 5490   1.559   3.178   5.654
 1604SOL     OW 5491   0.471   3.597   5.906
 1604SOL    HW1 5492   0.513   3.655   5.970
 1604SOL    HW2 5493   0.543   3.567   5.850
 1605SOL     OW 5494   1.401   1.970   6.018
 1605SOL    HW1 5495   1.390   1.945   5.926
 1605SOL    HW2 5496   1.496   1.976   6.030
 1606SOL     OW 5497   0.275   3.663   6.801
 1606SOL    HW1 5498   0.307   3.587   6.850
 1606SOL    HW2 5499   0.226   3.627   6.728
 1607SOL     OW 5500   0.939   3.561   6.486
 1607SOL    HW1 5501   1.016   3.508   6.506
 1607SOL    HW2 5502   0.894   3.511   6.417
 1608SOL     OW 5503   0.386   2.558   6.065
 1608SOL    HW1 5504   0.415   2.468   6.073
 1608SOL    HW2 5505   0.292   2.555   6.086
 1609SOL     OW 5506   1.536   2.087   7.312
 1609SOL    HW1 5507   1.545   2.108   7.404
 1609SOL    HW2 5508   1.467   2.021   7.309
 1610SOL     OW 5509   0.631   1.985   5.692
 1610SOL    HW1 5510   0.704   1.924   5.703
 1610SOL    HW2 5511   0.584   1.953   5.615
 1611SOL     OW 5512   0.766   2.138   7.338
 1611SOL    HW1 5513   0.842   2.079   7.342
 1611SOL    HW2 5514   0.723   2.126   7.423
 1612SOL     OW 5515   0.877   3.383   6.779
 1612SOL    HW1 5516   0.861   3.347   6.692
 1612SOL    HW2 5517   0.947   3.329   6.816
 1613SOL     OW 5518   1.341   2.451   7.018
 1613SOL    HW1 5519   1.372   2.419   7.103
 1613SOL    HW2 5520   1.377   2.539   7.010
 1614SOL     OW 5521   0.815   3.257   6.524
 1614SOL    HW1 5522   0.899   3.247   6.480
 1614SOL    HW2 5523   0.750   3.258   6.454
 1615SOL     OW 5524   0.928   2.371   6.489
 1615SOL    HW1 5525   0.904   2.363   6.397
 1615SOL    HW2 5526   0.959   2.284   6.514
 1616SOL     OW 5527   0.559   1.923   6.083
 1616SOL    HW1 5528   0.485   1.924   6.143
 1616SOL    HW2 5529   0.549   2.003   6.031
 1617SOL     OW 5530   1.428   3.060   5.627
 1617SOL    HW1 5531   1.458   2.984   5.677
 1617SOL    HW2 5532   1.343   3.081   5.664
 1618SOL     OW 5533   0.305   1.909   5.766
 1618SOL    HW1 5534   0.367   1.972   5.730
 1618SOL    HW2 5535   0.360   1.844   5.810
 1619SOL     OW 5536   0.939   2.108   6.047
 1619SOL    HW1 5537   0.911   2.150   5.966
 1619SOL    HW2 5538   1.033   2.122   6.050
 1620SOL     OW 5539   1.080   2.542   7.046
 1620SOL    HW1 5540   1.011   2.476   7.051
 1620SOL    HW2 5541   1.161   2.492   7.039
 1621SOL     OW 5542   1.224   3.431   6.379
 1621SOL    HW1 5543   1.241   3.499   6.314
 1621SOL    HW2 5544   1.292   3.445   6.446
 1622SOL     OW 5545   0.467   3.011   6.319
 1622SOL    HW1 5546   0.398   2.992   6.382
 1622SOL    HW2 5547   0.427   2.993   6.233
 1623SOL     OW 5548   1.270   3.656   6.193
 1623SOL    HW1 5549   1.315   3.718   6.135
 1623SOL    HW2 5550   1.204   3.709   6.238
 1624SOL     OW 5551   1.024   2.405   5.608
 1624SOL    HW1 5552   0.982   2.489   5.588
 1624SOL    HW2 5553   1.089   2.426   5.674
 1625SOL     OW 5554   0.087   2.408   6.984
 1625SOL    HW1 5555   0.174   2.415   6.947
 1625SOL    HW2 5556   0.079   2.483   7.042
 1626SOL     OW 5557   0.561   2.089   6.751
 1626SOL    HW1 5558   0.598   2.009   6.788
 1626SOL    HW2 5559   0.469   2.088   6.780
 1627SOL     OW 5560   0.868   2.321   6.226
 1627SOL    HW1 5561   0.822   2.375   6.161
 1627SOL    HW2 5562   0.889   2.240   6.179
 1628SOL     OW 5563   1.015   1.915   6.338
 1628SOL    HW1 5564   0.956   1.907   6.263
 1628SOL    HW2 5565   0.994   1.839   6.393
 1629SOL     OW 5566   1.437   3.025   6.443
 1629SOL    HW1 5567   1.368   2.958   6.442
 1629SOL    HW2 5568   1.460   3.037   6.351
 1630SOL     OW 5569   1.467   2.466   6.564
 1630SOL    HW1 5570   1.417   2.384   6.568
 1630SOL    HW2 5571   1.527   2.461   6.639
 1631SOL     OW 5572   1.847   2.679   5.968
 1631SOL    HW1 5573   1.903   2.627   6.026
 1631SOL    HW2 5574   1.817   2.617   5.902
 1632SOL     OW 5575   0.492   3.278   5.745
 1632SOL    HW1 5576   0.417   3.250   5.797
 1632SOL    HW2 5577   0.474   3.246   5.657
 1633SOL     OW 5578   1.669   3.126   6.233
 1633SOL    HW1 5579   1.764   3.130   6.246
 1633SOL    HW2 5580   1.639   3.214   6.254
 1634SOL     OW 5581   1.394   2.434   5.657
 1634SOL    HW1 5582   1.334   2.414   5.729
 1634SOL    HW2 5583   1.479   2.401   5.687
 1635SOL     OW 5584   0.524   2.125   5.904
 1635SOL    HW1 5585   0.568   2.077   5.834
 1635SOL    HW2 5586   0.503   2.210   5.866
 1636SOL     OW 5587   1.753   3.100   7.160
 1636SOL    HW1 5588   1.840   3.062   7.156
 1636SOL    HW2 5589   1.767   3.190   7.190
 1637SOL     OW 5590   1.059   3.215   6.919
 1637SOL    HW1 5591   0.985   3.184   6.971
 1637SOL    HW2 5592   1.135   3.174   6.961
 1638SOL     OW 5593   1.607   3.487   7.237
 1638SOL    HW1 5594   1.603   3.521   7.148
 1638SOL    HW2 5595   1.690   3.440   7.242
 1639SOL     OW 5596   1.127   3.064   6.692
 1639SOL    HW1 5597   1.069   3.103   6.757
 1639SOL    HW2 5598   1.094   3.097   6.608
 1640SOL     OW 5599   1.629   2.961   6.664
 1640SOL    HW1 5600   1.625   3.022   6.737
 1640SOL    HW2 5601   1.549   2.977   6.614
 1641SOL     OW 5602   0.918   1.959   6.984
 1641SOL    HW1 5603   0.941   1.941   6.892
 1641SOL    HW2 5604   0.997   1.999   7.020
 1642SOL     OW 5605   0.984   2.976   7.310
 1642SOL    HW1 5606   0.892   2.993   7.328
 1642SOL    HW2 5607   0.984   2.898   7.254
 1643SOL     OW 5608   0.707   2.922   5.959
 1643SOL    HW1 5609   0.696   2.907   6.052
 1643SOL    HW2 5610   0.784   2.869   5.935
 1644SOL     OW 5611   0.420   2.680   6.838
 1644SOL    HW1 5612   0.489   2.687   6.904
 1644SOL    HW2 5613   0.385   2.591   6.849
 1645SOL     OW 5614   1.266   2.239   6.860
 1645SOL    HW1 5615   1.299   2.317   6.906
 1645SOL    HW2 5616   1.176   2.262   6.837
 1646SOL     OW 5617   0.101   3.485   6.953
 1646SOL    HW1 5618   0.078   3.494   6.861
 1646SOL    HW2 5619   0.187   3.443   6.953
 1647SOL     OW 5620   0.344   2.967   6.074
 1647SOL    HW1 5621   0.354   3.046   6.021
 1647SOL    HW2 5622   0.355   2.895   6.012
 1648SOL     OW 5623   0.555   2.399   6.445
 1648SOL    HW1 5624   0.571   2.457   6.371
 1648SOL    HW2 5625   0.619   2.426   6.512
 1649SOL     OW 5626   1.248   3.210   5.975
 1649SOL    HW1 5627   1.303   3.282   6.006
 1649SOL    HW2 5628   1.161   3.231   6.009
 1650SOL     OW 5629   1.280   3.319   6.733
 1650SOL    HW1 5630   1.335   3.322   6.810
 1650SOL    HW2 5631   1.224   3.242   6.746
 1651SOL     OW 5632   1.582   2.485   6.065
 1651SOL    HW1 5633   1.536   2.540   6.128
 1651SOL    HW2 5634   1.627   2.547   6.007
 1652SOL     OW 5635   0.352   3.381   6.897
 1652SOL    HW1 5636   0.342   3.338   6.812
 1652SOL    HW2 5637   0.445   3.399   6.904
 1653SOL     OW 5638   0.413   2.605   7.188
 1653SOL    HW1 5639   0.473   2.652   7.130
 1653SOL    HW2 5640   0.453   2.519   7.200
 1654SOL     OW 5641   1.599   2.640   7.267
 1654SOL    HW1 5642   1.513   2.681   7.260
 1654SOL    HW2 5643   1.652   2.682   7.199
 1655SOL     OW 5644   0.996   1.983   7.341
 1655SOL    HW1 5645   1.051   2.056   7.312
 1655SOL    HW2 5646   1.045   1.905   7.316
 1656SOL     OW 5647   0.498   1.904   7.333
 1656SOL    HW1 5648   0.457   1.849   7.266
 1656SOL    HW2 5649   0.438   1.977   7.345
 1657SOL     OW 5650   0.585   2.736   6.618
 1657SOL    HW1 5651   0.616   2.826   6.617
 1657SOL    HW2 5652   0.529   2.730   6.695
 1658SOL     OW 5653   1.359   2.721   6.617
 1658SOL    HW1 5654   1.276   2.712   6.569
 1658SOL    HW2 5655   1.398   2.634   6.612
 1659SOL     OW 5656   1.205   2.391   5.854
 1659SOL    HW1 5657   1.214   2.312   5.908
 1659SOL    HW2 5658   1.163   2.455   5.910
 1660SOL     OW 5659   0.302   2.066   6.834
 1660SOL    HW1 5660   0.267   2.091   6.920
 1660SOL    HW2 5661   0.289   1.971   6.830
 1661SOL     OW 5662   0.070   3.181   6.867
 1661SOL    HW1 5663   0.090   3.121   6.939
 1661SOL    HW2 5664   0.002   3.239   6.902
 1662SOL     OW 5665   0.725   2.494   6.645
 1662SOL    HW1 5666   0.799   2.477   6.587
 1662SOL    HW2 5667   0.697   2.583   6.623
 1663SOL     OW 5668   1.734   2.821   7.438
 1663SOL    HW1 5669   1.685   2.762   7.380
 1663SOL    HW2 5670   1.677   2.835   7.513
 1664SOL     OW 5671   0.327   1.924   6.220
 1664SOL    HW1 5672   0.307   2.013   6.248
 1664SOL    HW2 5673   0.331   1.874   6.302
 1665SOL     OW 5674   1.615   2.235   5.954
 1665SOL    HW1 5675   1.643   2.172   6.020
 1665SOL    HW2 5676   1.593   2.314   6.004
 1666SOL     OW 5677   1.027   2.621   6.547
 1666SOL    HW1 5678   1.025   2.639   6.641
 1666SOL    HW2 5679   1.001   2.530   6.539
 1667SOL     OW 5680   0.982   3.427   7.302
 1667SOL    HW1 5681   0.967   3.472   7.219
 1667SOL    HW2 5682   1.026   3.346   7.278
 1668SOL     OW 5683   1.855   3.370   7.191
 1668SOL    HW1 5684   1.873   3.395   7.101
 1668SOL    HW2 5685   1.936   3.388   7.238
 1669SOL     OW 5686   0.353   2.777   7.394
 1669SOL    HW1 5687   0.436   2.799   7.438
 1669SOL    HW2 5688   0.378   2.714   7.327
 1670SOL     OW 5689   1.529   2.136   5.714
 1670SOL    HW1 5690   1.465   2.070   5.740
 1670SOL    HW2 5691   1.562   2.171   5.796
 1671SOL     OW 5692   1.293   2.689   5.618
 1671SOL    HW1 5693   1.335   2.603   5.621
 1671SOL    HW2 5694   1.323   2.727   5.536
 1672SOL     OW 5695   1.066   3.197   6.439
 1672SOL    HW1 5696   1.069   3.125   6.377
 1672SOL    HW2 5697   1.127   3.261   6.405
 1673SOL     OW 5698   0.314   2.672   6.536
 1673SOL    HW1 5699   0.408   2.690   6.532
 1673SOL    HW2 5700   0.309   2.582   6.568
 1674SOL     OW 5701   0.335   2.387   6.600
 1674SOL    HW1 5702   0.300   2.299   6.586
 1674SOL    HW2 5703   0.410   2.393   6.541
 1675SOL     OW 5704   1.135   2.238   7.266
 1675SOL    HW1 5705   1.087   2.293   7.329
 1675SOL    HW2 5706   1.222   2.276   7.262
 1676SOL     OW 5707   1.161   2.065   7.055
 1676SOL    HW1 5708   1.150   2.128   7.127
 1676SOL    HW2 5709   1.199   2.116   6.984
 1677SOL     OW 5710   0.001   3.192   5.796
 1677SOL    HW1 5711   5.226   3.183   5.738
 1677SOL    HW2 5712   0.012   3.106   5.837
 1678SOL     OW 5713   0.092   3.644   6.536
 1678SOL    HW1 5714   0.059   3.573   6.481
 1678SOL    HW2 5715   0.179   3.662   6.501
 1679SOL     OW 5716   0.505   3.435   6.493
 1679SOL    HW1 5717   0.572   3.500   6.514
 1679SOL    HW2 5718   0.549   3.373   6.434
 1680SOL     OW 5719   0.985   2.655   6.813
 1680SOL    HW1 5720   1.040   2.631   6.888
 1680SOL    HW2 5721   0.899   2.618   6.834
 1681SOL     OW 5722   0.034   2.422   6.701
 1681SOL    HW1 5723   0.120   2.396   6.668
 1681SOL    HW2 5724   0.038   2.404   6.795
 1682SOL     OW 5725   0.176   2.375   7.302
 1682SOL    HW1 5726   0.240   2.337   7.242
 1682SOL    HW2 5727   0.145   2.454   7.259
 1683SOL     OW 5728   1.376   2.802   7.245
 1683SOL    HW1 5729   1.397   2.895   7.245
 1683SOL    HW2 5730   1.374   2.777   7.153
 1684SOL     OW 5731   0.816   2.431   5.945
 1684SOL    HW1 5732   0.820   2.356   5.885
 1684SOL    HW2 5733   0.742   2.483   5.913
 1685SOL     OW 5734   1.642   2.463   6.773
 1685SOL    HW1 5735   1.631   2.404   6.848
 1685SOL    HW2 5736   1.729   2.443   6.738
 1686SOL     OW 5737   0.256   3.418   7.322
 1686SOL    HW1 5738   0.232   3.479   7.392
 1686SOL    HW2 5739   0.249   3.332   7.362
 1687SOL     OW 5740   0.699   2.313   6.847
 1687SOL    HW1 5741   0.647   2.239   6.816
 1687SOL    HW2 5742   0.696   2.376   6.774
 1688SOL     OW 5743   0.929   3.541   7.053
 1688SOL    HW1 5744   0.902   3.508   6.967
 1688SOL    HW2 5745   0.925   3.636   7.044
 1689SOL     OW 5746   0.466   2.355   5.772
 1689SOL    HW1 5747   0.525   2.427   5.793
 1689SOL    HW2 5748   0.380   2.397   5.761
 1690SOL     OW 5749   0.149   2.999   7.057
 1690SOL    HW1 5750   0.147   2.950   7.139
 1690SOL    HW2 5751   0.161   2.933   6.989
 1691SOL     OW 5752   1.327   2.909   6.810
 1691SOL    HW1 5753   1.351   2.846   6.742
 1691SOL    HW2 5754   1.256   2.961   6.771
 1692SOL     OW 5755   1.310   2.718   5.893
 1692SOL    HW1 5756   1.234   2.689   5.942
 1692SOL    HW2 5757   1.286   2.705   5.801
 1693SOL     OW 5758   1.770   3.608   6.735
 1693SOL    HW1 5759   1.831   3.633   6.666
 1693SOL    HW2 5760   1.747   3.517   6.714
 1694SOL     OW 5761   1.241   3.595   6.700
 1694SOL    HW1 5762   1.323   3.615   6.655
 1694SOL    HW2 5763   1.246   3.501   6.718
 1695SOL     OW 5764   0.083   3.081   6.613
 1695SOL    HW1 5765   0.070   3.106   6.705
 1695SOL    HW2 5766   5.294   3.069   6.579
 1696SOL     OW 5767   0.677   3.526   7.312
 1696SOL    HW1 5768   0.624   3.606   7.310
 1696SOL    HW2 5769   0.742   3.538   7.243
 1697SOL     OW 5770   1.720   2.007   6.097
 1697SOL    HW1 5771   1.792   1.993   6.036
 1697SOL    HW2 5772   1.704   1.922   6.136
 1698SOL     OW 5773   1.390   3.430   6.070
 1698SOL    HW1 5774   1.451   3.462   6.003
 1698SOL    HW2 5775   1.342   3.507   6.098
 1699SOL     OW 5776   0.140   3.661   7.429
 1699SOL    HW1 5777   0.089   3.597   7.477
 1699SOL    HW2 5778   0.193   3.705   7.496
 1700SOL     OW 5779   1.277   2.787   6.257
 1700SOL    HW1 5780   1.351   2.726   6.263
 1700SOL    HW2 5781   1.311   2.860   6.205
 1701SOL     OW 5782   0.816   3.134   7.017
 1701SOL    HW1 5783   0.788   3.174   7.099
 1701SOL    HW2 5784   0.746   3.156   6.955
 1702SOL     OW 5785   0.672   3.480   5.741
 1702SOL    HW1 5786   0.682   3.493   5.646
 1702SOL    HW2 5787   0.618   3.402   5.750
 1703SOL     OW 5788   1.628   3.588   6.977
 1703SOL    HW1 5789   1.678   3.596   6.895
 1703SOL    HW2 5790   1.615   3.679   7.005
 1704SOL     OW 5791   1.840   2.035   6.553
 1704SOL    HW1 5792   1.869   1.948   6.525
 1704SOL    HW2 5793   1.754   2.046   6.513
 1705SOL     OW 5794   0.272   2.179   6.304
 1705SOL    HW1 5795   0.188   2.218   6.282
 1705SOL    HW2 5796   0.270   2.168   6.399
 1706SOL     OW 5797   1.207   3.469   5.617
 1706SOL    HW1 5798   1.197   3.377   5.644
 1706SOL    HW2 5799   1.142   3.480   5.548
 1707SOL     OW 5800   0.824   2.868   6.958
 1707SOL    HW1 5801   0.868   2.864   6.873
 1707SOL    HW2 5802   0.824   2.961   6.981
 1708SOL     OW 5803   0.915   2.772   5.876
 1708SOL    HW1 5804   0.976   2.804   5.809
 1708SOL    HW2 5805   0.963   2.703   5.921
 1709SOL     OW 5806   1.493   3.486   5.629
 1709SOL    HW1 5807   1.398   3.481   5.616
 1709SOL    HW2 5808   1.529   3.493   5.540
 1710SOL     OW 5809   0.368   3.166   7.079
 1710SOL    HW1 5810   0.359   3.240   7.020
 1710SOL    HW2 5811   0.292   3.111   7.060
 1711SOL     OW 5812   1.610   3.144   6.867
 1711SOL    HW1 5813   1.671   3.135   6.940
 1711SOL    HW2 5814   1.551   3.214   6.893
 1712SOL     OW 5815   1.050   2.968   6.291
 1712SOL    HW1 5816   0.980   2.917   6.332
 1712SOL    HW2 5817   1.113   2.903   6.260
 1713SOL     OW 5818   1.021   2.102   6.552
 1713SOL    HW1 5819   1.016   2.054   6.469
 1713SOL    HW2 5820   1.015   2.035   6.619
 1714SOL     OW 5821   0.601   3.349   6.067
 1714SOL    HW1 5822   0.645   3.301   5.997
 1714SOL    HW2 5823   0.535   3.402   6.022
 1715SOL     OW 5824   1.721   2.254   6.966
 1715SOL    HW1 5825   1.793   2.318   6.964
 1715SOL    HW2 5826   1.751   2.183   6.910
 1716SOL     OW 5827   0.260   3.210   5.878
 1716SOL    HW1 5828   0.167   3.212   5.855
 1716SOL    HW2 5829   0.264   3.247   5.966
 1717SOL     OW 5830   0.115   2.876   7.303
 1717SOL    HW1 5831   0.043   2.846   7.358
 1717SOL    HW2 5832   0.195   2.846   7.348
 1718SOL     OW 5833   0.673   2.058   7.085
 1718SOL    HW1 5834   0.757   2.039   7.043
 1718SOL    HW2 5835   0.696   2.088   7.173
 1719SOL     OW 5836   0.080   2.214   5.627
 1719SOL    HW1 5837   0.002   2.164   5.603
 1719SOL    HW2 5838   0.098   2.270   5.552
 1720SOL     OW 5839   1.430   2.720   6.987
 1720SOL    HW1 5840   1.382   2.781   6.931
 1720SOL    HW2 5841   1.520   2.723   6.954
 1721SOL     OW 5842   0.055   1.995   5.828
 1721SOL    HW1 5843   0.055   2.091   5.823
 1721SOL    HW2 5844   0.146   1.971   5.809
 1722SOL     OW 5845   1.179   3.202   5.703
 1722SOL    HW1 5846   1.088   3.172   5.706
 1722SOL    HW2 5847   1.207   3.202   5.794
 1723SOL     OW 5848   0.619   2.693   7.021
 1723SOL    HW1 5849   0.675   2.769   7.005
 1723SOL    HW2 5850   0.680   2.620   7.029
 1724SOL     OW 5851   1.484   3.637   6.563
 1724SOL    HW1 5852   1.509   3.696   6.492
 1724SOL    HW2 5853   1.566   3.620   6.609
 1725SOL     OW 5854   0.717   2.426   7.292
 1725SOL    HW1 5855   0.757   2.489   7.352
 1725SOL    HW2 5856   0.748   2.341   7.322
 1726SOL     OW 5857   1.470   3.063   7.218
 1726SOL    HW1 5858   1.458   3.076   7.312
 1726SOL    HW2 5859   1.564   3.077   7.204
 1727SOL     OW 5860   0.379   3.604   7.150
 1727SOL    HW1 5861   0.296   3.649   7.135
 1727SOL    HW2 5862   0.354   3.523   7.195
 1728SOL     OW 5863   1.671   2.743   6.841
 1728SOL    HW1 5864   1.663   2.658   6.798
 1728SOL    HW2 5865   1.661   2.807   6.770
 1729SOL     OW 5866   1.217   2.181   6.044
 1729SOL    HW1 5867   1.281   2.110   6.035
 1729SOL    HW2 5868   1.246   2.230   6.121
 1730SOL     OW 5869   0.591   2.600   6.254
 1730SOL    HW1 5870   0.630   2.686   6.239
 1730SOL    HW2 5871   0.521   2.593   6.189
 1731SOL     OW 5872   1.764   2.223   7.236
 1731SOL    HW1 5873   1.746   2.238   7.143
 1731SOL    HW2 5874   1.692   2.166   7.265
 1732SOL     OW 5875   1.743   2.795   7.099
 1732SOL    HW1 5876   1.744   2.890   7.112
 1732SOL    HW2 5877   1.729   2.785   7.005
 1733SOL     OW 5878   0.863   3.229   5.619
 1733SOL    HW1 5879   0.824   3.258   5.701
 1733SOL    HW2 5880   0.881   3.311   5.572
 1734SOL     OW 5881   0.662   3.656   6.531
 1734SOL    HW1 5882   0.641   3.747   6.508
 1734SOL    HW2 5883   0.758   3.652   6.524
 1735SOL     OW 5884   0.867   2.828   6.441
 1735SOL    HW1 5885   0.917   2.757   6.481
 1735SOL    HW2 5886   0.833   2.878   6.515
 1736SOL     OW 5887   1.079   2.849   5.674
 1736SOL    HW1 5888   1.057   2.900   5.596
 1736SOL    HW2 5889   1.154   2.796   5.649
 1737SOL     OW 5890   1.855   3.417   6.430
 1737SOL    HW1 5891   1.776   3.405   6.377
 1737SOL    HW2 5892   1.848   3.350   6.498
 1738SOL     OW 5893   0.224   3.167   7.445
 1738SOL    HW1 5894   0.155   3.106   7.419
 1738SOL    HW2 5895   0.212   3.179   7.539
 1739SOL     OW 5896   0.086   3.084   6.241
 1739SOL    HW1 5897   0.098   3.051   6.330
 1739SOL    HW2 5898   0.172   3.073   6.199
 1740SOL     OW 5899   0.680   3.263   7.213
 1740SOL    HW1 5900   0.599   3.221   7.243
 1740SOL    HW2 5901   0.676   3.352   7.249
 1741SOL     OW 5902   1.814   2.047   6.824
 1741SOL    HW1 5903   1.823   1.953   6.839
 1741SOL    HW2 5904   1.823   2.057   6.729
 1742SOL     OW 5905   0.434   2.298   6.110
 1742SOL    HW1 5906   0.462   2.225   6.054
 1742SOL    HW2 5907   0.387   2.256   6.182
 1743SOL     OW 5908   1.701   3.352   6.684
 1743SOL    HW1 5909   1.620   3.328   6.639
 1743SOL    HW2 5910   1.714   3.283   6.749
 1744SOL     OW 5911   0.335   2.420   6.877
 1744SOL    HW1 5912   0.388   2.361   6.930
 1744SOL    HW2 5913   0.350   2.391   6.787
 1745SOL     OW 5914   0.827   3.439   6.264
 1745SOL    HW1 5915   0.817   3.492   6.185
 1745SOL    HW2 5916   0.750   3.383   6.267
 1746SOL     OW 5917   1.432   2.087   6.704
 1746SOL    HW1 5918   1.458   2.007   6.751
 1746SOL    HW2 5919   1.380   2.136   6.768
 1747SOL     OW 5920   1.009   1.881   6.729
 1747SOL    HW1 5921   0.954   1.813   6.690
 1747SOL    HW2 5922   1.097   1.844   6.731
 1748SOL     OW 5923   0.771   3.194   5.899
 1748SOL    HW1 5924   0.740   3.104   5.906
 1748SOL    HW2 5925   0.854   3.195   5.948
 1749SOL     OW 5926   0.622   3.419   6.873
 1749SOL    HW1 5927   0.624   3.501   6.922
 1749SOL    HW2 5928   0.709   3.413   6.833
 1750SOL     OW 5929   1.352   1.916   5.751
 1750SOL    HW1 5930   1.380   1.854   5.683
 1750SOL    HW2 5931   1.265   1.885   5.777
 1751SOL     OW 5932   1.297   2.322   6.268
 1751SOL    HW1 5933   1.243   2.401   6.275
 1751SOL    HW2 5934   1.293   2.283   6.355
 1752SOL     OW 5935   1.587   2.065   6.464
 1752SOL    HW1 5936   1.525   2.085   6.534
 1752SOL    HW2 5937   1.586   2.144   6.408
 1753SOL     OW 5938   0.047   2.931   5.877
 1753SOL    HW1 5939   0.137   2.900   5.865
 1753SOL    HW2 5940   5.300   2.855   5.910
 1754SOL     OW 5941   0.884   3.513   5.929
 1754SOL    HW1 5942   0.811   3.497   5.868
 1754SOL    HW2 5943   0.856   3.588   5.980
 1755SOL     OW 5944   0.230   2.493   7.566
 1755SOL    HW1 5945   0.153   2.456   7.609
 1755SOL    HW2 5946   0.224   2.463   7.475
 1756SOL     OW 5947   1.767   2.461   7.680
 1756SOL    HW1 5948   1.748   2.456   7.586
 1756SOL    HW2 5949   1.725   2.383   7.717
 1757SOL     OW 5950   0.228   3.571   7.920
 1757SOL    HW1 5951   0.264   3.614   7.998
 1757SOL    HW2 5952   0.299   3.575   7.856
 1758SOL     OW 5953   0.218   3.298   7.990
 1758SOL    HW1 5954   0.208   3.393   7.985
 1758SOL    HW2 5955   0.154   3.271   8.057
 1759SOL     OW 5956   0.585   2.845   7.580
 1759SOL    HW1 5957   0.629   2.894   7.511
 1759SOL    HW2 5958   0.626   2.875   7.661
 1760SOL     OW 5959   1.836   3.622   7.798
 1760SOL    HW1 5960   1.906   3.591   7.855
 1760SOL    HW2 5961   1.864   3.710   7.772
 1761SOL     OW 5962   0.036   3.463   7.581
 1761SOL    HW1 5963   0.027   3.370   7.601
 1761SOL    HW2 5964   5.279   3.507   7.643
 1762SOL     OW 5965   1.682   2.731   8.038
 1762SOL    HW1 5966   1.765   2.741   0.004
 1762SOL    HW2 5967   1.671   2.813   7.990
 1763SOL     OW 5968   1.655   2.961   7.876
 1763SOL    HW1 5969   1.742   2.986   7.845
 1763SOL    HW2 5970   1.628   3.032   7.935
 1764SOL     OW 5971   0.800   1.856   7.938
 1764SOL    HW1 5972   0.849   1.937   7.923
 1764SOL    HW2 5973   0.709   1.885   7.949
 1765SOL     OW 5974   1.533   2.856   7.648
 1765SOL    HW1 5975   1.466   2.795   7.682
 1765SOL    HW2 5976   1.576   2.890   7.726
 1766SOL     OW 5977   0.589   2.586   7.708
 1766SOL    HW1 5978   0.598   2.667   7.657
 1766SOL    HW2 5979   0.532   2.609   7.781
 1767SOL     OW 5980   1.575   3.533   7.757
 1767SOL    HW1 5981   1.665   3.562   7.766
 1767SOL    HW2 5982   1.563   3.519   7.663
 1768SOL     OW 5983   0.058   2.685   0.205
 1768SOL    HW1 5984   0.124   2.626   0.168
 1768SOL    HW2 5985   0.031   2.739   0.131
 1769SOL     OW 5986   0.879   2.208   7.636
 1769SOL    HW1 5987   0.926   2.268   7.579
 1769SOL    HW2 5988   0.915   2.122   7.614
 1770SOL     OW 5989   0.319   2.810   7.694
 1770SOL    HW1 5990   0.400   2.838   7.650
 1770SOL    HW2 5991   0.295   2.728   7.652
 1771SOL     OW 5992   1.123   3.638   7.682
 1771SOL    HW1 5993   1.047   3.597   7.724
 1771SOL    HW2 5994   1.146   3.578   7.611
 1772SOL     OW 5995   1.628   3.242   7.533
 1772SOL    HW1 5996   1.587   3.327   7.520
 1772SOL    HW2 5997   1.559   3.178   7.515
 1773SOL     OW 5998   0.470   3.599   7.769
 1773SOL    HW1 5999   0.515   3.653   7.834
 1773SOL    HW2 6000   0.539   3.566   7.713
 1774SOL     OW 6001   1.415   1.992   7.864
 1774SOL    HW1 6002   1.402   1.958   7.776
 1774SOL    HW2 6003   1.509   1.990   7.878
 1775SOL     OW 6004   0.380   2.562   7.922
 1775SOL    HW1 6005   0.401   2.469   7.926
 1775SOL    HW2 6006   0.286   2.566   7.942
 1776SOL     OW 6007   0.626   1.981   7.560
 1776SOL    HW1 6008   0.704   1.928   7.568
 1776SOL    HW2 6009   0.584   1.951   7.479
 1777SOL     OW 6010   0.527   1.935   7.960
 1777SOL    HW1 6011   0.441   1.941   8.001
 1777SOL    HW2 6012   0.528   2.006   7.896
 1778SOL     OW 6013   1.428   3.059   7.489
 1778SOL    HW1 6014   1.459   2.986   7.541
 1778SOL    HW2 6015   1.344   3.083   7.528
 1779SOL     OW 6016   0.306   1.906   7.620
 1779SOL    HW1 6017   0.368   1.970   7.585
 1779SOL    HW2 6018   0.360   1.843   7.667
 1780SOL     OW 6019   0.944   2.087   7.911
 1780SOL    HW1 6020   0.899   2.153   7.857
 1780SOL    HW2 6021   1.035   2.117   7.914
 1781SOL     OW 6022   0.448   3.020   0.091
 1781SOL    HW1 6023   0.375   3.040   0.151
 1781SOL    HW2 6024   0.405   3.002   0.007
 1782SOL     OW 6025   1.290   3.672   8.014
 1782SOL    HW1 6026   1.325   3.742   7.958
 1782SOL    HW2 6027   1.208   3.708   8.049
 1783SOL     OW 6028   1.026   2.405   7.466
 1783SOL    HW1 6029   0.982   2.488   7.449
 1783SOL    HW2 6030   1.087   2.425   7.537
 1784SOL     OW 6031   1.866   2.681   7.802
 1784SOL    HW1 6032   1.876   2.646   7.890
 1784SOL    HW2 6033   1.828   2.609   7.751
 1785SOL     OW 6034   0.491   3.276   7.607
 1785SOL    HW1 6035   0.416   3.248   7.659
 1785SOL    HW2 6036   0.471   3.245   7.518
 1786SOL     OW 6037   1.394   2.433   7.519
 1786SOL    HW1 6038   1.333   2.414   7.590
 1786SOL    HW2 6039   1.478   2.401   7.549
 1787SOL     OW 6040   0.527   2.127   7.771
 1787SOL    HW1 6041   0.569   2.076   7.702
 1787SOL    HW2 6042   0.504   2.211   7.729
 1788SOL     OW 6043   0.709   2.922   7.814
 1788SOL    HW1 6044   0.693   2.913   7.908
 1788SOL    HW2 6045   0.788   2.870   7.798
 1789SOL     OW 6046   0.347   2.956   7.929
 1789SOL    HW1 6047   0.347   3.040   7.884
 1789SOL    HW2 6048   0.350   2.891   7.859
 1790SOL     OW 6049   1.225   3.218   7.821
 1790SOL    HW1 6050   1.288   3.285   7.847
 1790SOL    HW2 6051   1.181   3.193   7.903
 1791SOL     OW 6052   1.588   2.491   7.921
 1791SOL    HW1 6053   1.572   2.550   7.995
 1791SOL    HW2 6054   1.628   2.546   7.854
 1792SOL     OW 6055   1.204   2.388   7.716
 1792SOL    HW1 6056   1.207   2.305   7.763
 1792SOL    HW2 6057   1.182   2.454   7.782
 1793SOL     OW 6058   1.617   2.240   7.815
 1793SOL    HW1 6059   1.639   2.173   7.881
 1793SOL    HW2 6060   1.593   2.317   7.867
 1794SOL     OW 6061   1.530   2.136   7.575
 1794SOL    HW1 6062   1.465   2.071   7.601
 1794SOL    HW2 6063   1.563   2.172   7.658
 1795SOL     OW 6064   1.295   2.690   7.482
 1795SOL    HW1 6065   1.336   2.604   7.483
 1795SOL    HW2 6066   1.325   2.730   7.400
 1796SOL     OW 6067   0.003   3.195   7.656
 1796SOL    HW1 6068   5.220   3.193   7.608
 1796SOL    HW2 6069   0.013   3.107   7.691
 1797SOL     OW 6070   0.836   2.458   7.764
 1797SOL    HW1 6071   0.828   2.367   7.734
 1797SOL    HW2 6072   0.747   2.492   7.763
 1798SOL     OW 6073   0.463   2.355   7.639
 1798SOL    HW1 6074   0.524   2.427   7.654
 1798SOL    HW2 6075   0.378   2.397   7.625
 1799SOL     OW 6076   1.310   2.710   7.755
 1799SOL    HW1 6077   1.223   2.718   7.794
 1799SOL    HW2 6078   1.294   2.703   7.661
 1800SOL     OW 6079   1.712   2.007   7.949
 1800SOL    HW1 6080   1.790   1.999   7.894
 1800SOL    HW2 6081   1.713   1.929   8.004
 1801SOL     OW 6082   1.365   3.438   7.897
 1801SOL    HW1 6083   1.440   3.459   7.841
 1801SOL    HW2 6084   1.333   3.523   7.927
 1802SOL     OW 6085   0.668   3.480   7.604
 1802SOL    HW1 6086   0.680   3.492   7.509
 1802SOL    HW2 6087   0.617   3.400   7.612
 1803SOL     OW 6088   1.208   3.470   7.478
 1803SOL    HW1 6089   1.199   3.378   7.506
 1803SOL    HW2 6090   1.142   3.481   7.410
 1804SOL     OW 6091   0.925   2.773   7.754
 1804SOL    HW1 6092   0.979   2.798   7.679
 1804SOL    HW2 6093   0.924   2.677   7.752
 1805SOL     OW 6094   1.494   3.488   7.488
 1805SOL    HW1 6095   1.399   3.481   7.477
 1805SOL    HW2 6096   1.529   3.493   7.399
 1806SOL     OW 6097   0.604   3.367   7.936
 1806SOL    HW1 6098   0.648   3.307   7.876
 1806SOL    HW2 6099   0.534   3.406   7.884
 1807SOL     OW 6100   0.260   3.209   7.741
 1807SOL    HW1 6101   0.167   3.213   7.717
 1807SOL    HW2 6102   0.263   3.245   7.829
 1808SOL     OW 6103   0.079   2.205   7.488
 1808SOL    HW1 6104   5.297   2.164   7.462
 1808SOL    HW2 6105   0.099   2.267   7.418
 1809SOL     OW 6106   0.080   1.998   7.737
 1809SOL    HW1 6107   0.065   2.086   7.703
 1809SOL    HW2 6108   0.153   1.964   7.685
 1810SOL     OW 6109   1.177   3.201   7.556
 1810SOL    HW1 6110   1.085   3.176   7.558
 1810SOL    HW2 6111   1.202   3.207   7.649
 1811SOL     OW 6112   1.215   2.180   7.904
 1811SOL    HW1 6113   1.288   2.119   7.892
 1811SOL    HW2 6114   1.237   2.228   7.984
 1812SOL     OW 6115   0.621   2.599   8.052
 1812SOL    HW1 6116   0.629   2.680   0.023
 1812SOL    HW2 6117   0.531   2.598   8.021
 1813SOL     OW 6118   0.862   3.229   7.481
 1813SOL    HW1 6119   0.824   3.258   7.564
 1813SOL    HW2 6120   0.882   3.311   7.434
 1814SOL     OW 6121   1.073   2.841   7.537
 1814SOL    HW1 6122   1.054   2.898   7.463
 1814SOL    HW2 6123   1.152   2.793   7.511
 1815SOL     OW 6124   0.393   2.292   7.978
 1815SOL    HW1 6125   0.438   2.233   7.917
 1815SOL    HW2 6126   0.434   2.275   8.062
 1816SOL     OW 6127   0.766   3.197   7.759
 1816SOL    HW1 6128   0.735   3.106   7.761
 1816SOL    HW2 6129   0.847   3.195   7.810
 1817SOL     OW 6130   1.352   1.915   7.610
 1817SOL    HW1 6131   1.380   1.850   7.545
 1817SOL    HW2 6132   1.266   1.884   7.638
 1818SOL     OW 6133   0.048   2.932   7.722
 1818SOL    HW1 6134   0.137   2.899   7.723
 1818SOL    HW2 6135   5.299   2.871   7.778
 1819SOL     OW 6136   0.892   3.512   7.781
 1819SOL    HW1 6137   0.816   3.489   7.728
 1819SOL    HW2 6138   0.858   3.576   7.845
 1820SOL     OW 6139   0.227   4.349   0.112
 1820SOL    HW1 6140   0.155   4.312   0.164
 1820SOL    HW2 6141   0.232   4.294   0.034
 1821SOL     OW 6142   0.240   3.999   0.989
 1821SOL    HW1 6143   0.255   3.966   1.078
 1821SOL    HW2 6144   0.157   3.961   0.963
 1822SOL     OW 6145   5.297   4.120   0.649
 1822SOL    HW1 6146   5.206   4.147   0.659
 1822SOL    HW2 6147   5.291   4.027   0.627
 1823SOL     OW 6148   0.572   4.998   1.182
 1823SOL    HW1 6149   0.493   5.005   1.128
 1823SOL    HW2 6150   0.591   5.089   1.208
 1824SOL     OW 6151   1.555   5.232   0.688
 1824SOL    HW1 6152   1.531   5.229   0.781
 1824SOL    HW2 6153   1.478   5.268   0.644
 1825SOL     OW 6154   1.130   4.422   0.702
 1825SOL    HW1 6155   1.179   4.503   0.688
 1825SOL    HW2 6156   1.083   4.437   0.784
 1826SOL     OW 6157   1.769   4.325   0.233
 1826SOL    HW1 6158   1.732   4.324   0.145
 1826SOL    HW2 6159   1.729   4.249   0.276
 1827SOL     OW 6160   0.759   4.868   1.036
 1827SOL    HW1 6161   0.691   4.897   1.097
 1827SOL    HW2 6162   0.787   4.948   0.991
 1828SOL     OW 6163   0.865   4.501   1.822
 1828SOL    HW1 6164   0.854   4.573   1.884
 1828SOL    HW2 6165   0.888   4.544   1.739
 1829SOL     OW 6166   0.684   4.726   0.651
 1829SOL    HW1 6167   0.750   4.715   0.720
 1829SOL    HW2 6168   0.617   4.782   0.691
 1830SOL     OW 6169   0.708   4.873   1.811
 1830SOL    HW1 6170   0.756   4.952   1.835
 1830SOL    HW2 6171   0.624   4.905   1.776
 1831SOL     OW 6172   0.376   5.145   1.053
 1831SOL    HW1 6173   0.282   5.153   1.040
 1831SOL    HW2 6174   0.414   5.200   0.984
 1832SOL     OW 6175   1.455   5.220   1.347
 1832SOL    HW1 6176   1.509   5.293   1.379
 1832SOL    HW2 6177   1.389   5.207   1.415
 1833SOL     OW 6178   0.450   4.124   1.494
 1833SOL    HW1 6179   0.524   4.063   1.495
 1833SOL    HW2 6180   0.373   4.068   1.502
 1834SOL     OW 6181   1.613   4.172   0.740
 1834SOL    HW1 6182   1.537   4.196   0.687
 1834SOL    HW2 6183   1.629   4.250   0.794
 1835SOL     OW 6184   1.133   5.072   1.700
 1835SOL    HW1 6185   1.164   5.072   1.790
 1835SOL    HW2 6186   1.080   4.993   1.693
 1836SOL     OW 6187   0.211   5.150   0.529
 1836SOL    HW1 6188   0.250   5.230   0.562
 1836SOL    HW2 6189   0.132   5.138   0.582
 1837SOL     OW 6190   0.252   4.801   0.877
 1837SOL    HW1 6191   0.262   4.714   0.916
 1837SOL    HW2 6192   0.196   4.848   0.938
 1838SOL     OW 6193   0.624   4.685   0.134
 1838SOL    HW1 6194   0.580   4.765   0.105
 1838SOL    HW2 6195   0.676   4.712   0.210
 1839SOL     OW 6196   1.596   3.846   1.469
 1839SOL    HW1 6197   1.600   3.927   1.417
 1839SOL    HW2 6198   1.583   3.877   1.559
 1840SOL     OW 6199   0.132   4.355   0.581
 1840SOL    HW1 6200   0.086   4.275   0.608
 1840SOL    HW2 6201   0.100   4.423   0.641
 1841SOL     OW 6202   0.015   5.296   0.071
 1841SOL    HW1 6203   0.022   5.211   0.115
 1841SOL    HW2 6204   0.042   0.060   0.137
 1842SOL     OW 6205   1.687   4.642   0.642
 1842SOL    HW1 6206   1.771   4.601   0.621
 1842SOL    HW2 6207   1.666   4.694   0.564
 1843SOL     OW 6208   1.646   4.830   0.434
 1843SOL    HW1 6209   1.727   4.843   0.385
 1843SOL    HW2 6210   1.652   4.891   0.507
 1844SOL     OW 6211   0.130   4.471   1.587
 1844SOL    HW1 6212   0.224   4.486   1.590
 1844SOL    HW2 6213   0.091   4.558   1.598
 1845SOL     OW 6214   0.626   5.096   0.734
 1845SOL    HW1 6215   0.569   5.019   0.735
 1845SOL    HW2 6216   0.600   5.145   0.656
 1846SOL     OW 6217   1.289   4.955   1.426
 1846SOL    HW1 6218   1.324   4.890   1.365
 1846SOL    HW2 6219   1.348   4.952   1.501
 1847SOL     OW 6220   0.822   3.725   0.511
 1847SOL    HW1 6221   0.861   3.810   0.490
 1847SOL    HW2 6222   0.728   3.742   0.516
 1848SOL     OW 6223   0.178   4.669   1.281
 1848SOL    HW1 6224   0.268   4.639   1.267
 1848SOL    HW2 6225   0.134   4.654   1.197
 1849SOL     OW 6226   1.511   4.733   0.209
 1849SOL    HW1 6227   1.451   4.665   0.241
 1849SOL    HW2 6228   1.563   4.756   0.286
 1850SOL     OW 6229   0.334   3.977   1.814
 1850SOL    HW1 6230   0.382   4.059   1.827
 1850SOL    HW2 6231   0.247   3.994   1.850
 1851SOL     OW 6232   1.476   5.146   0.963
 1851SOL    HW1 6233   1.403   5.158   1.023
 1851SOL    HW2 6234   1.463   5.057   0.928
 1852SOL     OW 6235   0.596   4.438   0.279
 1852SOL    HW1 6236   0.618   4.517   0.229
 1852SOL    HW2 6237   0.535   4.468   0.346
 1853SOL     OW 6238   1.279   4.075   0.932
 1853SOL    HW1 6239   1.190   4.042   0.940
 1853SOL    HW2 6240   1.330   4.022   0.994
 1854SOL     OW 6241   0.793   4.341   1.452
 1854SOL    HW1 6242   0.765   4.318   1.541
 1854SOL    HW2 6243   0.751   4.275   1.396
 1855SOL     OW 6244   1.394   4.198   1.678
 1855SOL    HW1 6245   1.395   4.242   1.763
 1855SOL    HW2 6246   1.456   4.126   1.687
 1856SOL     OW 6247   0.956   4.612   1.582
 1856SOL    HW1 6248   1.010   4.541   1.547
 1856SOL    HW2 6249   0.908   4.646   1.506
 1857SOL     OW 6250   0.992   4.137   1.239
 1857SOL    HW1 6251   0.907   4.159   1.277
 1857SOL    HW2 6252   0.971   4.090   1.159
 1858SOL     OW 6253   1.052   4.423   0.427
 1858SOL    HW1 6254   1.066   4.416   0.522
 1858SOL    HW2 6255   0.969   4.376   0.413
 1859SOL     OW 6256   0.069   4.511   0.817
 1859SOL    HW1 6257   0.154   4.516   0.862
 1859SOL    HW2 6258   0.060   4.594   0.771
 1860SOL     OW 6259   0.884   4.081   0.201
 1860SOL    HW1 6260   0.929   4.129   0.132
 1860SOL    HW2 6261   0.884   3.990   0.170
 1861SOL     OW 6262   1.709   4.299   1.828
 1861SOL    HW1 6263   1.671   4.374   1.781
 1861SOL    HW2 6264   1.736   4.239   1.759
 1862SOL     OW 6265   1.376   4.864   0.540
 1862SOL    HW1 6266   1.456   4.850   0.490
 1862SOL    HW2 6267   1.325   4.926   0.488
 1863SOL     OW 6268   0.554   3.908   0.893
 1863SOL    HW1 6269   0.552   3.935   0.985
 1863SOL    HW2 6270   0.552   3.990   0.844
 1864SOL     OW 6271   1.020   5.165   0.469
 1864SOL    HW1 6272   0.945   5.224   0.465
 1864SOL    HW2 6273   1.039   5.158   0.563
 1865SOL     OW 6274   1.799   4.781   0.866
 1865SOL    HW1 6275   1.742   4.765   0.792
 1865SOL    HW2 6276   1.741   4.788   0.942
 1866SOL     OW 6277   1.250   5.240   1.523
 1866SOL    HW1 6278   1.213   5.173   1.582
 1866SOL    HW2 6279   1.180   5.257   1.461
 1867SOL     OW 6280   0.328   4.673   0.244
 1867SOL    HW1 6281   0.412   4.687   0.200
 1867SOL    HW2 6282   0.316   4.578   0.244
 1868SOL     OW 6283   1.477   4.464   0.727
 1868SOL    HW1 6284   1.468   4.421   0.812
 1868SOL    HW2 6285   1.554   4.521   0.737
 1869SOL     OW 6286   0.463   4.988   1.741
 1869SOL    HW1 6287   0.437   4.991   1.649
 1869SOL    HW2 6288   0.381   4.988   1.790
 1870SOL     OW 6289   1.156   0.161   0.237
 1870SOL    HW1 6290   1.071   0.175   0.280
 1870SOL    HW2 6291   1.134   0.143   0.146
 1871SOL     OW 6292   0.205   4.006   1.497
 1871SOL    HW1 6293   0.125   4.057   1.482
 1871SOL    HW2 6294   0.174   3.929   1.544
 1872SOL     OW 6295   1.630   5.095   0.076
 1872SOL    HW1 6296   1.592   5.181   0.092
 1872SOL    HW2 6297   1.555   5.037   0.062
 1873SOL     OW 6298   1.407   3.835   0.442
 1873SOL    HW1 6299   1.397   3.814   0.349
 1873SOL    HW2 6300   1.501   3.842   0.456
 1874SOL     OW 6301   0.382   4.423   0.476
 1874SOL    HW1 6302   0.414   4.333   0.485
 1874SOL    HW2 6303   0.290   4.419   0.501
 1875SOL     OW 6304   1.536   3.949   1.725
 1875SOL    HW1 6305   1.545   3.970   1.818
 1875SOL    HW2 6306   1.467   3.883   1.722
 1876SOL     OW 6307   0.628   3.835   0.135
 1876SOL    HW1 6308   0.723   3.823   0.141
 1876SOL    HW2 6309   0.607   3.816   0.044
 1877SOL     OW 6310   0.767   4.002   1.753
 1877SOL    HW1 6311   0.842   3.941   1.757
 1877SOL    HW2 6312   0.718   3.983   1.833
 1878SOL     OW 6313   1.341   4.312   1.432
 1878SOL    HW1 6314   1.372   4.281   1.517
 1878SOL    HW2 6315   1.377   4.401   1.424
 1879SOL     OW 6316   0.812   5.121   0.935
 1879SOL    HW1 6317   0.893   5.105   0.886
 1879SOL    HW2 6318   0.744   5.126   0.868
 1880SOL     OW 6319   0.928   4.233   0.903
 1880SOL    HW1 6320   0.904   4.225   0.810
 1880SOL    HW2 6321   0.959   4.146   0.928
 1881SOL     OW 6322   0.560   3.786   0.501
 1881SOL    HW1 6323   0.485   3.786   0.560
 1881SOL    HW2 6324   0.549   3.865   0.448
 1882SOL     OW 6325   1.426   4.925   0.036
 1882SOL    HW1 6326   1.456   4.851   0.089
 1882SOL    HW2 6327   1.340   4.946   0.071
 1883SOL     OW 6328   0.313   3.769   0.173
 1883SOL    HW1 6329   0.376   3.841   0.178
 1883SOL    HW2 6330   0.357   3.696   0.217
 1884SOL     OW 6331   0.940   3.970   0.460
 1884SOL    HW1 6332   0.911   4.012   0.378
 1884SOL    HW2 6333   1.034   3.986   0.463
 1885SOL     OW 6334   1.080   4.404   1.460
 1885SOL    HW1 6335   1.010   4.338   1.465
 1885SOL    HW2 6336   1.160   4.353   1.453
 1886SOL     OW 6337   1.263   5.266   0.781
 1886SOL    HW1 6338   1.225   0.047   0.747
 1886SOL    HW2 6339   1.306   5.292   0.862
 1887SOL     OW 6340   0.465   4.873   0.730
 1887SOL    HW1 6341   0.397   4.853   0.794
 1887SOL    HW2 6342   0.425   4.855   0.646
 1888SOL     OW 6343   1.033   4.255   0.029
 1888SOL    HW1 6344   0.989   4.335   0.001
 1888SOL    HW2 6345   1.094   4.283   0.097
 1889SOL     OW 6346   0.086   4.270   1.398
 1889SOL    HW1 6347   0.175   4.277   1.361
 1889SOL    HW2 6348   0.079   4.346   1.455
 1890SOL     OW 6349   0.560   3.951   1.165
 1890SOL    HW1 6350   0.598   3.871   1.202
 1890SOL    HW2 6351   0.469   3.950   1.193
 1891SOL     OW 6352   0.868   4.183   0.639
 1891SOL    HW1 6353   0.824   4.238   0.575
 1891SOL    HW2 6354   0.889   4.102   0.592
 1892SOL     OW 6355   1.016   3.776   0.751
 1892SOL    HW1 6356   0.956   3.769   0.677
 1892SOL    HW2 6357   0.994   3.701   0.806
 1893SOL     OW 6358   1.437   4.889   0.859
 1893SOL    HW1 6359   1.370   4.821   0.855
 1893SOL    HW2 6360   1.461   4.904   0.767
 1894SOL     OW 6361   1.467   4.328   0.978
 1894SOL    HW1 6362   1.417   4.246   0.982
 1894SOL    HW2 6363   1.527   4.323   1.053
 1895SOL     OW 6364   1.849   4.540   0.388
 1895SOL    HW1 6365   1.900   4.486   0.448
 1895SOL    HW2 6366   1.817   4.478   0.322
 1896SOL     OW 6367   0.474   5.158   0.159
 1896SOL    HW1 6368   0.421   5.107   0.220
 1896SOL    HW2 6369   0.499   5.097   0.091
 1897SOL     OW 6370   1.669   4.988   0.648
 1897SOL    HW1 6371   1.763   4.996   0.666
 1897SOL    HW2 6372   1.635   5.076   0.665
 1898SOL     OW 6373   1.398   4.304   0.087
 1898SOL    HW1 6374   1.336   4.284   0.157
 1898SOL    HW2 6375   1.456   4.228   0.083
 1899SOL     OW 6376   0.516   3.987   0.324
 1899SOL    HW1 6377   0.565   3.935   0.260
 1899SOL    HW2 6378   0.503   4.071   0.281
 1900SOL     OW 6379   1.752   4.959   1.577
 1900SOL    HW1 6380   1.838   4.918   1.576
 1900SOL    HW2 6381   1.770   5.052   1.591
 1901SOL     OW 6382   1.065   5.075   1.332
 1901SOL    HW1 6383   0.986   5.049   1.380
 1901SOL    HW2 6384   1.137   5.035   1.380
 1902SOL     OW 6385   1.125   4.926   1.108
 1902SOL    HW1 6386   1.074   4.967   1.177
 1902SOL    HW2 6387   1.082   4.952   1.027
 1903SOL     OW 6388   1.630   4.823   1.077
 1903SOL    HW1 6389   1.625   4.884   1.150
 1903SOL    HW2 6390   1.551   4.841   1.026
 1904SOL     OW 6391   0.919   3.821   1.398
 1904SOL    HW1 6392   0.940   3.803   1.307
 1904SOL    HW2 6393   0.998   3.861   1.434
 1905SOL     OW 6394   0.984   4.839   1.725
 1905SOL    HW1 6395   0.892   4.854   1.742
 1905SOL    HW2 6396   0.985   4.762   1.667
 1906SOL     OW 6397   0.707   4.780   0.381
 1906SOL    HW1 6398   0.694   4.766   0.475
 1906SOL    HW2 6399   0.788   4.732   0.361
 1907SOL     OW 6400   0.421   4.541   1.251
 1907SOL    HW1 6401   0.489   4.548   1.318
 1907SOL    HW2 6402   0.385   4.453   1.263
 1908SOL     OW 6403   1.266   4.101   1.274
 1908SOL    HW1 6404   1.298   4.179   1.320
 1908SOL    HW2 6405   1.176   4.124   1.251
 1909SOL     OW 6406   0.113   5.286   1.321
 1909SOL    HW1 6407   0.055   0.053   1.357
 1909SOL    HW2 6408   0.191   5.290   1.376
 1910SOL     OW 6409   0.347   4.828   0.488
 1910SOL    HW1 6410   0.344   4.907   0.434
 1910SOL    HW2 6411   0.360   4.757   0.426
 1911SOL     OW 6412   0.555   4.260   0.859
 1911SOL    HW1 6413   0.571   4.319   0.785
 1911SOL    HW2 6414   0.618   4.288   0.926
 1912SOL     OW 6415   1.258   5.072   0.386
 1912SOL    HW1 6416   1.312   5.146   0.412
 1912SOL    HW2 6417   1.169   5.096   0.413
 1913SOL     OW 6418   1.268   5.181   1.142
 1913SOL    HW1 6419   1.328   5.194   1.216
 1913SOL    HW2 6420   1.224   5.098   1.160
 1914SOL     OW 6421   1.583   4.348   0.480
 1914SOL    HW1 6422   1.535   4.400   0.545
 1914SOL    HW2 6423   1.620   4.414   0.421
 1915SOL     OW 6424   0.380   5.233   1.316
 1915SOL    HW1 6425   0.362   5.193   1.231
 1915SOL    HW2 6426   0.473   5.256   1.312
 1916SOL     OW 6427   0.413   4.467   1.602
 1916SOL    HW1 6428   0.473   4.513   1.544
 1916SOL    HW2 6429   0.453   4.381   1.615
 1917SOL     OW 6430   1.600   4.502   1.681
 1917SOL    HW1 6431   1.514   4.543   1.674
 1917SOL    HW2 6432   1.652   4.544   1.613
 1918SOL     OW 6433   0.996   3.845   1.756
 1918SOL    HW1 6434   1.050   3.918   1.726
 1918SOL    HW2 6435   1.045   3.767   1.730
 1919SOL     OW 6436   0.498   3.766   1.747
 1919SOL    HW1 6437   0.456   3.712   1.680
 1919SOL    HW2 6438   0.437   3.839   1.759
 1920SOL     OW 6439   0.586   4.597   1.032
 1920SOL    HW1 6440   0.613   4.688   1.029
 1920SOL    HW2 6441   0.529   4.591   1.109
 1921SOL     OW 6442   1.359   4.582   1.030
 1921SOL    HW1 6443   1.276   4.574   0.983
 1921SOL    HW2 6444   1.398   4.495   1.026
 1922SOL     OW 6445   1.204   4.252   0.271
 1922SOL    HW1 6446   1.212   4.173   0.325
 1922SOL    HW2 6447   1.162   4.316   0.328
 1923SOL     OW 6448   0.302   3.928   1.248
 1923SOL    HW1 6449   0.267   3.953   1.333
 1923SOL    HW2 6450   0.289   3.833   1.243
 1924SOL     OW 6451   0.044   5.022   1.277
 1924SOL    HW1 6452   0.075   4.972   1.352
 1924SOL    HW2 6453   0.045   5.113   1.307
 1925SOL     OW 6454   0.725   4.355   1.059
 1925SOL    HW1 6455   0.799   4.339   1.000
 1925SOL    HW2 6456   0.697   4.444   1.038
 1926SOL     OW 6457   1.734   4.684   1.851
 1926SOL    HW1 6458   1.687   4.623   1.793
 1926SOL    HW2 6459   1.674   4.696   1.925
 1927SOL     OW 6460   0.325   3.787   0.635
 1927SOL    HW1 6461   0.309   3.877   0.665
 1927SOL    HW2 6462   0.331   3.736   0.716
 1928SOL     OW 6463   1.619   4.098   0.370
 1928SOL    HW1 6464   1.644   4.034   0.436
 1928SOL    HW2 6465   1.594   4.175   0.420
 1929SOL     OW 6466   1.028   4.483   0.961
 1929SOL    HW1 6467   1.025   4.501   1.055
 1929SOL    HW2 6468   1.001   4.392   0.953
 1930SOL     OW 6469   1.855   5.214   1.586
 1930SOL    HW1 6470   1.851   5.288   1.525
 1930SOL    HW2 6471   1.924   5.237   1.648
 1931SOL     OW 6472   0.354   4.642   1.806
 1931SOL    HW1 6473   0.435   4.660   1.853
 1931SOL    HW2 6474   0.378   4.577   1.740
 1932SOL     OW 6475   1.520   4.022   0.126
 1932SOL    HW1 6476   1.470   3.942   0.142
 1932SOL    HW2 6477   1.559   4.044   0.211
 1933SOL     OW 6478   1.294   4.549   0.020
 1933SOL    HW1 6479   1.333   4.463   0.039
 1933SOL    HW2 6480   1.354   4.588   8.036
 1934SOL     OW 6481   1.059   5.076   0.830
 1934SOL    HW1 6482   1.064   4.992   0.784
 1934SOL    HW2 6483   1.144   5.117   0.814
 1935SOL     OW 6484   0.316   4.534   0.949
 1935SOL    HW1 6485   0.410   4.551   0.946
 1935SOL    HW2 6486   0.309   4.444   0.982
 1936SOL     OW 6487   0.336   4.249   1.015
 1936SOL    HW1 6488   0.300   4.161   1.000
 1936SOL    HW2 6489   0.410   4.254   0.955
 1937SOL     OW 6490   1.134   4.100   1.681
 1937SOL    HW1 6491   1.087   4.155   1.744
 1937SOL    HW2 6492   1.222   4.138   1.677
 1938SOL     OW 6493   1.161   3.927   1.470
 1938SOL    HW1 6494   1.150   3.990   1.541
 1938SOL    HW2 6495   1.199   3.978   1.399
 1939SOL     OW 6496   0.011   5.052   0.196
 1939SOL    HW1 6497   5.220   5.059   0.168
 1939SOL    HW2 6498   0.017   4.968   0.241
 1940SOL     OW 6499   0.985   4.516   1.227
 1940SOL    HW1 6500   1.039   4.493   1.302
 1940SOL    HW2 6501   0.899   4.480   1.248
 1941SOL     OW 6502   0.033   4.277   1.114
 1941SOL    HW1 6503   0.121   4.260   1.083
 1941SOL    HW2 6504   0.038   4.266   1.209
 1942SOL     OW 6505   0.175   4.237   1.712
 1942SOL    HW1 6506   0.241   4.202   1.652
 1942SOL    HW2 6507   0.145   4.317   1.670
 1943SOL     OW 6508   1.376   4.664   1.659
 1943SOL    HW1 6509   1.397   4.757   1.656
 1943SOL    HW2 6510   1.373   4.638   1.567
 1944SOL     OW 6511   0.818   4.294   0.364
 1944SOL    HW1 6512   0.827   4.222   0.302
 1944SOL    HW2 6513   0.741   4.342   0.334
 1945SOL     OW 6514   1.642   4.325   1.187
 1945SOL    HW1 6515   1.632   4.266   1.261
 1945SOL    HW2 6516   1.729   4.305   1.153
 1946SOL     OW 6517   0.211   5.280   1.732
 1946SOL    HW1 6518   0.179   0.023   1.812
 1946SOL    HW2 6519   0.213   5.187   1.755
 1947SOL     OW 6520   0.699   4.175   1.261
 1947SOL    HW1 6521   0.647   4.101   1.230
 1947SOL    HW2 6522   0.696   4.238   1.188
 1948SOL     OW 6523   0.467   4.214   0.181
 1948SOL    HW1 6524   0.532   4.281   0.201
 1948SOL    HW2 6525   0.383   4.259   0.185
 1949SOL     OW 6526   0.152   4.861   1.472
 1949SOL    HW1 6527   0.148   4.811   1.554
 1949SOL    HW2 6528   0.162   4.795   1.404
 1950SOL     OW 6529   1.328   4.770   1.223
 1950SOL    HW1 6530   1.351   4.708   1.154
 1950SOL    HW2 6531   1.256   4.822   1.186
 1951SOL     OW 6532   1.306   4.573   0.307
 1951SOL    HW1 6533   1.229   4.545   0.357
 1951SOL    HW2 6534   1.281   4.562   0.216
 1952SOL     OW 6535   0.076   4.922   1.030
 1952SOL    HW1 6536   0.064   4.961   1.116
 1952SOL    HW2 6537   5.290   4.926   0.989
 1953SOL     OW 6538   0.751   0.040   1.709
 1953SOL    HW1 6539   0.658   0.062   1.718
 1953SOL    HW2 6540   0.771   0.061   1.618
 1954SOL     OW 6541   0.905   3.815   0.133
 1954SOL    HW1 6542   0.926   3.800   0.041
 1954SOL    HW2 6543   0.968   3.762   0.182
 1955SOL     OW 6544   1.718   3.868   0.510
 1955SOL    HW1 6545   1.791   3.852   0.450
 1955SOL    HW2 6546   1.703   3.783   0.552
 1956SOL     OW 6547   1.277   4.649   0.671
 1956SOL    HW1 6548   1.351   4.587   0.677
 1956SOL    HW2 6549   1.311   4.721   0.619
 1957SOL     OW 6550   0.820   4.994   1.423
 1957SOL    HW1 6551   0.790   5.030   1.506
 1957SOL    HW2 6552   0.744   5.003   1.365
 1958SOL     OW 6553   1.840   3.897   0.967
 1958SOL    HW1 6554   1.869   3.810   0.939
 1958SOL    HW2 6555   1.754   3.907   0.927
 1959SOL     OW 6556   0.270   4.040   0.717
 1959SOL    HW1 6557   0.188   4.085   0.697
 1959SOL    HW2 6558   0.269   4.030   0.812
 1960SOL     OW 6559   1.141   0.020   0.006
 1960SOL    HW1 6560   1.156   5.230   0.035
 1960SOL    HW2 6561   1.143   0.014   7.990
 1961SOL     OW 6562   0.825   4.728   1.371
 1961SOL    HW1 6563   0.869   4.722   1.286
 1961SOL    HW2 6564   0.828   4.821   1.394
 1962SOL     OW 6565   0.917   4.638   0.297
 1962SOL    HW1 6566   0.973   4.665   0.224
 1962SOL    HW2 6567   0.965   4.566   0.338
 1963SOL     OW 6568   0.366   5.028   1.499
 1963SOL    HW1 6569   0.364   5.099   1.435
 1963SOL    HW2 6570   0.291   4.973   1.476
 1964SOL     OW 6571   1.613   5.004   1.282
 1964SOL    HW1 6572   1.669   4.998   1.359
 1964SOL    HW2 6573   1.550   5.074   1.304
 1965SOL     OW 6574   1.053   4.833   0.711
 1965SOL    HW1 6575   0.981   4.781   0.748
 1965SOL    HW2 6576   1.113   4.767   0.676
 1966SOL     OW 6577   1.021   3.964   0.966
 1966SOL    HW1 6578   1.016   3.916   0.883
 1966SOL    HW2 6579   1.015   3.897   1.033
 1967SOL     OW 6580   1.721   4.116   1.380
 1967SOL    HW1 6581   1.793   4.179   1.379
 1967SOL    HW2 6582   1.751   4.045   1.324
 1968SOL     OW 6583   0.269   5.036   0.294
 1968SOL    HW1 6584   0.187   5.051   0.248
 1968SOL    HW2 6585   0.258   5.083   0.377
 1969SOL     OW 6586   0.115   4.742   1.720
 1969SOL    HW1 6587   0.044   4.704   1.771
 1969SOL    HW2 6588   0.195   4.709   1.762
 1970SOL     OW 6589   0.674   3.920   1.499
 1970SOL    HW1 6590   0.758   3.901   1.457
 1970SOL    HW2 6591   0.697   3.951   1.586
 1971SOL     OW 6592   0.041   4.117   0.028
 1971SOL    HW1 6593   0.019   4.029   0.057
 1971SOL    HW2 6594   0.121   4.106   8.056
 1972SOL     OW 6595   1.431   4.582   1.401
 1972SOL    HW1 6596   1.382   4.642   1.345
 1972SOL    HW2 6597   1.520   4.585   1.367
 1973SOL     OW 6598   0.051   3.859   0.219
 1973SOL    HW1 6599   0.052   3.947   0.256
 1973SOL    HW2 6600   0.144   3.836   0.210
 1974SOL     OW 6601   1.182   5.064   0.113
 1974SOL    HW1 6602   1.087   5.048   0.112
 1974SOL    HW2 6603   1.206   5.060   0.206
 1975SOL     OW 6604   0.619   4.555   1.435
 1975SOL    HW1 6605   0.675   4.631   1.419
 1975SOL    HW2 6606   0.680   4.481   1.443
 1976SOL     OW 6607   0.717   4.289   1.705
 1976SOL    HW1 6608   0.757   4.352   1.765
 1976SOL    HW2 6609   0.748   4.203   1.736
 1977SOL     OW 6610   1.472   4.924   1.632
 1977SOL    HW1 6611   1.459   4.936   1.726
 1977SOL    HW2 6612   1.566   4.937   1.619
 1978SOL     OW 6613   1.671   4.606   1.255
 1978SOL    HW1 6614   1.663   4.520   1.212
 1978SOL    HW2 6615   1.660   4.669   1.184
 1979SOL     OW 6616   1.218   4.042   0.459
 1979SOL    HW1 6617   1.283   3.972   0.452
 1979SOL    HW2 6618   1.245   4.093   0.536
 1980SOL     OW 6619   0.590   4.461   0.668
 1980SOL    HW1 6620   0.629   4.548   0.654
 1980SOL    HW2 6621   0.519   4.457   0.604
 1981SOL     OW 6622   1.763   4.085   1.650
 1981SOL    HW1 6623   1.746   4.100   1.557
 1981SOL    HW2 6624   1.692   4.028   1.679
 1982SOL     OW 6625   1.744   4.657   1.512
 1982SOL    HW1 6626   1.742   4.752   1.525
 1982SOL    HW2 6627   1.729   4.646   1.418
 1983SOL     OW 6628   0.906   5.096   0.034
 1983SOL    HW1 6629   0.848   5.079   0.108
 1983SOL    HW2 6630   0.861   5.161   8.061
 1984SOL     OW 6631   0.867   4.690   0.855
 1984SOL    HW1 6632   0.917   4.619   0.896
 1984SOL    HW2 6633   0.833   4.741   0.929
 1985SOL     OW 6634   1.079   4.703   0.088
 1985SOL    HW1 6635   1.061   4.759   0.012
 1985SOL    HW2 6636   1.156   4.652   0.062
 1986SOL     OW 6637   0.220   5.026   1.854
 1986SOL    HW1 6638   0.155   4.959   1.834
 1986SOL    HW2 6639   0.216   5.036   1.949
 1987SOL     OW 6640   0.081   4.931   0.657
 1987SOL    HW1 6641   0.102   4.906   0.746
 1987SOL    HW2 6642   0.165   4.941   0.613
 1988SOL     OW 6643   0.670   5.108   1.609
 1988SOL    HW1 6644   0.594   5.073   1.656
 1988SOL    HW2 6645   0.701   5.181   1.664
 1989SOL     OW 6646   1.813   3.909   1.238
 1989SOL    HW1 6647   1.824   3.815   1.253
 1989SOL    HW2 6648   1.822   3.919   1.143
 1990SOL     OW 6649   0.432   4.162   0.523
 1990SOL    HW1 6650   0.461   4.089   0.469
 1990SOL    HW2 6651   0.386   4.121   0.596
 1991SOL     OW 6652   1.707   5.223   1.119
 1991SOL    HW1 6653   1.633   5.206   1.060
 1991SOL    HW2 6654   1.714   5.143   1.172
 1992SOL     OW 6655   0.335   4.282   1.291
 1992SOL    HW1 6656   0.388   4.223   1.345
 1992SOL    HW2 6657   0.350   4.253   1.201
 1993SOL     OW 6658   1.432   3.949   1.118
 1993SOL    HW1 6659   1.459   3.870   1.165
 1993SOL    HW2 6660   1.380   3.998   1.181
 1994SOL     OW 6661   1.009   3.743   1.143
 1994SOL    HW1 6662   0.954   3.675   1.104
 1994SOL    HW2 6663   1.097   3.706   1.145
 1995SOL     OW 6664   0.796   5.039   0.282
 1995SOL    HW1 6665   0.737   4.969   0.308
 1995SOL    HW2 6666   0.852   5.054   0.359
 1996SOL     OW 6667   0.638   0.002   1.286
 1996SOL    HW1 6668   0.643   0.057   1.364
 1996SOL    HW2 6669   0.729   5.285   1.263
 1997SOL     OW 6670   1.356   3.779   0.183
 1997SOL    HW1 6671   1.379   3.730   0.104
 1997SOL    HW2 6672   1.271   3.744   0.209
 1998SOL     OW 6673   1.297   4.185   0.682
 1998SOL    HW1 6674   1.243   4.264   0.689
 1998SOL    HW2 6675   1.293   4.145   0.769
 1999SOL     OW 6676   1.587   3.927   0.877
 1999SOL    HW1 6677   1.525   3.947   0.948
 1999SOL    HW2 6678   1.586   4.005   0.823
 2000SOL     OW 6679   0.041   4.801   0.304
 2000SOL    HW1 6680   0.133   4.777   0.293
 2000SOL    HW2 6681   5.297   4.718   0.323
 2001SOL     OW 6682   0.234   4.357   1.977
 2001SOL    HW1 6683   0.159   4.326   2.028
 2001SOL    HW2 6684   0.220   4.321   1.890
 2002SOL     OW 6685   0.241   3.999   2.852
 2002SOL    HW1 6686   0.255   3.965   2.940
 2002SOL    HW2 6687   0.157   3.962   2.825
 2003SOL     OW 6688   5.299   4.121   2.515
 2003SOL    HW1 6689   5.206   4.143   2.522
 2003SOL    HW2 6690   5.299   4.030   2.484
 2004SOL     OW 6691   0.572   4.999   3.044
 2004SOL    HW1 6692   0.493   5.005   2.990
 2004SOL    HW2 6693   0.590   5.088   3.071
 2005SOL     OW 6694   1.555   5.232   2.551
 2005SOL    HW1 6695   1.533   5.228   2.644
 2005SOL    HW2 6696   1.476   5.267   2.509
 2006SOL     OW 6697   1.129   4.422   2.564
 2006SOL    HW1 6698   1.179   4.503   2.550
 2006SOL    HW2 6699   1.083   4.437   2.646
 2007SOL     OW 6700   1.766   4.330   2.091
 2007SOL    HW1 6701   1.746   4.322   1.998
 2007SOL    HW2 6702   1.731   4.250   2.131
 2008SOL     OW 6703   0.759   4.868   2.898
 2008SOL    HW1 6704   0.691   4.897   2.959
 2008SOL    HW2 6705   0.787   4.948   2.853
 2009SOL     OW 6706   0.865   4.501   3.684
 2009SOL    HW1 6707   0.854   4.573   3.746
 2009SOL    HW2 6708   0.888   4.544   3.601
 2010SOL     OW 6709   0.686   4.728   2.511
 2010SOL    HW1 6710   0.751   4.715   2.580
 2010SOL    HW2 6711   0.618   4.782   2.551
 2011SOL     OW 6712   0.708   4.873   3.673
 2011SOL    HW1 6713   0.756   4.952   3.697
 2011SOL    HW2 6714   0.624   4.905   3.638
 2012SOL     OW 6715   0.376   5.145   2.915
 2012SOL    HW1 6716   0.282   5.153   2.902
 2012SOL    HW2 6717   0.414   5.200   2.847
 2013SOL     OW 6718   1.455   5.220   3.209
 2013SOL    HW1 6719   1.508   5.293   3.241
 2013SOL    HW2 6720   1.389   5.207   3.277
 2014SOL     OW 6721   0.450   4.124   3.356
 2014SOL    HW1 6722   0.524   4.063   3.357
 2014SOL    HW2 6723   0.373   4.069   3.364
 2015SOL     OW 6724   1.612   4.172   2.602
 2015SOL    HW1 6725   1.537   4.196   2.548
 2015SOL    HW2 6726   1.630   4.250   2.655
 2016SOL     OW 6727   1.133   5.072   3.562
 2016SOL    HW1 6728   1.164   5.072   3.652
 2016SOL    HW2 6729   1.080   4.993   3.555
 2017SOL     OW 6730   0.212   5.151   2.393
 2017SOL    HW1 6731   0.249   5.232   2.428
 2017SOL    HW2 6732   0.134   5.135   2.446
 2018SOL     OW 6733   0.251   4.800   2.738
 2018SOL    HW1 6734   0.263   4.714   2.778
 2018SOL    HW2 6735   0.196   4.848   2.799
 2019SOL     OW 6736   0.584   4.706   1.996
 2019SOL    HW1 6737   0.631   4.754   1.927
 2019SOL    HW2 6738   0.625   4.735   2.078
 2020SOL     OW 6739   1.596   3.846   3.331
 2020SOL    HW1 6740   1.601   3.926   3.278
 2020SOL    HW2 6741   1.583   3.878   3.421
 2021SOL     OW 6742   0.126   4.357   2.440
 2021SOL    HW1 6743   0.088   4.274   2.470
 2021SOL    HW2 6744   0.099   4.421   2.505
 2022SOL     OW 6745   5.300   0.000   1.945
 2022SOL    HW1 6746   0.016   5.212   1.979
 2022SOL    HW2 6747   0.025   0.059   2.016
 2023SOL     OW 6748   1.689   4.642   2.501
 2023SOL    HW1 6749   1.773   4.601   2.482
 2023SOL    HW2 6750   1.668   4.692   2.423
 2024SOL     OW 6751   1.645   4.831   2.291
 2024SOL    HW1 6752   1.730   4.837   2.248
 2024SOL    HW2 6753   1.651   4.892   2.365
 2025SOL     OW 6754   0.130   4.471   3.449
 2025SOL    HW1 6755   0.224   4.486   3.452
 2025SOL    HW2 6756   0.091   4.558   3.460
 2026SOL     OW 6757   0.626   5.095   2.596
 2026SOL    HW1 6758   0.569   5.019   2.597
 2026SOL    HW2 6759   0.600   5.143   2.517
 2027SOL     OW 6760   1.289   4.955   3.288
 2027SOL    HW1 6761   1.324   4.890   3.227
 2027SOL    HW2 6762   1.348   4.952   3.363
 2028SOL     OW 6763   0.821   3.722   2.371
 2028SOL    HW1 6764   0.861   3.807   2.352
 2028SOL    HW2 6765   0.728   3.741   2.377
 2029SOL     OW 6766   0.178   4.669   3.143
 2029SOL    HW1 6767   0.268   4.639   3.129
 2029SOL    HW2 6768   0.134   4.652   3.060
 2030SOL     OW 6769   1.531   4.718   2.059
 2030SOL    HW1 6770   1.461   4.660   2.090
 2030SOL    HW2 6771   1.572   4.752   2.138
 2031SOL     OW 6772   0.334   3.977   3.677
 2031SOL    HW1 6773   0.382   4.059   3.689
 2031SOL    HW2 6774   0.247   3.994   3.713
 2032SOL     OW 6775   1.475   5.146   2.824
 2032SOL    HW1 6776   1.403   5.158   2.885
 2032SOL    HW2 6777   1.463   5.058   2.790
 2033SOL     OW 6778   0.596   4.446   2.127
 2033SOL    HW1 6779   0.604   4.526   2.076
 2033SOL    HW2 6780   0.531   4.466   2.195
 2034SOL     OW 6781   1.279   4.075   2.794
 2034SOL    HW1 6782   1.190   4.042   2.803
 2034SOL    HW2 6783   1.330   4.022   2.856
 2035SOL     OW 6784   0.792   4.341   3.314
 2035SOL    HW1 6785   0.765   4.318   3.403
 2035SOL    HW2 6786   0.751   4.275   3.258
 2036SOL     OW 6787   1.394   4.198   3.540
 2036SOL    HW1 6788   1.396   4.242   3.625
 2036SOL    HW2 6789   1.456   4.126   3.549
 2037SOL     OW 6790   0.956   4.612   3.444
 2037SOL    HW1 6791   1.010   4.541   3.409
 2037SOL    HW2 6792   0.908   4.645   3.368
 2038SOL     OW 6793   0.992   4.137   3.101
 2038SOL    HW1 6794   0.907   4.159   3.139
 2038SOL    HW2 6795   0.971   4.090   3.020
 2039SOL     OW 6796   1.050   4.423   2.288
 2039SOL    HW1 6797   1.066   4.416   2.383
 2039SOL    HW2 6798   0.968   4.376   2.274
 2040SOL     OW 6799   0.073   4.510   2.673
 2040SOL    HW1 6800   0.155   4.515   2.722
 2040SOL    HW2 6801   0.059   4.598   2.639
 2041SOL     OW 6802   0.891   4.072   2.056
 2041SOL    HW1 6803   0.932   4.133   1.995
 2041SOL    HW2 6804   0.908   3.986   2.018
 2042SOL     OW 6805   1.709   4.300   3.690
 2042SOL    HW1 6806   1.671   4.374   3.643
 2042SOL    HW2 6807   1.736   4.239   3.621
 2043SOL     OW 6808   1.376   4.864   2.402
 2043SOL    HW1 6809   1.457   4.850   2.353
 2043SOL    HW2 6810   1.326   4.925   2.348
 2044SOL     OW 6811   0.555   3.908   2.755
 2044SOL    HW1 6812   0.552   3.935   2.847
 2044SOL    HW2 6813   0.551   3.989   2.705
 2045SOL     OW 6814   1.024   5.170   2.332
 2045SOL    HW1 6815   0.945   5.225   2.325
 2045SOL    HW2 6816   1.038   5.160   2.426
 2046SOL     OW 6817   1.800   4.782   2.728
 2046SOL    HW1 6818   1.743   4.765   2.653
 2046SOL    HW2 6819   1.740   4.788   2.803
 2047SOL     OW 6820   1.250   5.240   3.385
 2047SOL    HW1 6821   1.213   5.173   3.444
 2047SOL    HW2 6822   1.179   5.257   3.322
 2048SOL     OW 6823   0.317   4.676   2.109
 2048SOL    HW1 6824   0.399   4.699   2.065
 2048SOL    HW2 6825   0.293   4.591   2.072
 2049SOL     OW 6826   1.477   4.465   2.590
 2049SOL    HW1 6827   1.468   4.421   2.674
 2049SOL    HW2 6828   1.555   4.520   2.600
 2050SOL     OW 6829   0.463   4.988   3.603
 2050SOL    HW1 6830   0.437   4.991   3.511
 2050SOL    HW2 6831   0.381   4.988   3.652
 2051SOL     OW 6832   1.072   0.182   2.070
 2051SOL    HW1 6833   1.078   0.107   2.130
 2051SOL    HW2 6834   1.109   0.149   1.988
 2052SOL     OW 6835   0.205   4.006   3.359
 2052SOL    HW1 6836   0.125   4.057   3.343
 2052SOL    HW2 6837   0.174   3.928   3.406
 2053SOL     OW 6838   1.623   5.100   1.968
 2053SOL    HW1 6839   1.618   5.178   1.913
 2053SOL    HW2 6840   1.555   5.042   1.935
 2054SOL     OW 6841   1.401   3.832   2.294
 2054SOL    HW1 6842   1.391   3.807   2.202
 2054SOL    HW2 6843   1.496   3.838   2.307
 2055SOL     OW 6844   0.386   4.420   2.341
 2055SOL    HW1 6845   0.415   4.329   2.350
 2055SOL    HW2 6846   0.293   4.417   2.361
 2056SOL     OW 6847   1.536   3.950   3.587
 2056SOL    HW1 6848   1.545   3.971   3.680
 2056SOL    HW2 6849   1.467   3.883   3.584
 2057SOL     OW 6850   0.631   3.847   1.968
 2057SOL    HW1 6851   0.704   3.786   1.979
 2057SOL    HW2 6852   0.584   3.815   1.891
 2058SOL     OW 6853   0.768   4.002   3.615
 2058SOL    HW1 6854   0.842   3.941   3.619
 2058SOL    HW2 6855   0.718   3.982   3.695
 2059SOL     OW 6856   1.341   4.313   3.294
 2059SOL    HW1 6857   1.372   4.281   3.379
 2059SOL    HW2 6858   1.377   4.401   3.286
 2060SOL     OW 6859   0.813   5.121   2.797
 2060SOL    HW1 6860   0.893   5.105   2.748
 2060SOL    HW2 6861   0.744   5.126   2.730
 2061SOL     OW 6862   0.928   4.234   2.765
 2061SOL    HW1 6863   0.904   4.225   2.673
 2061SOL    HW2 6864   0.959   4.147   2.790
 2062SOL     OW 6865   0.559   3.785   2.359
 2062SOL    HW1 6866   0.485   3.786   2.419
 2062SOL    HW2 6867   0.549   3.865   2.307
 2063SOL     OW 6868   1.428   4.924   1.901
 2063SOL    HW1 6869   1.459   4.848   1.951
 2063SOL    HW2 6870   1.340   4.940   1.935
 2064SOL     OW 6871   0.305   3.771   2.042
 2064SOL    HW1 6872   0.367   3.835   2.006
 2064SOL    HW2 6873   0.360   3.706   2.086
 2065SOL     OW 6874   0.939   3.970   2.323
 2065SOL    HW1 6875   0.911   4.012   2.242
 2065SOL    HW2 6876   1.033   3.984   2.326
 2066SOL     OW 6877   1.080   4.404   3.322
 2066SOL    HW1 6878   1.010   4.338   3.326
 2066SOL    HW2 6879   1.160   4.354   3.315
 2067SOL     OW 6880   1.264   5.267   2.641
 2067SOL    HW1 6881   1.223   0.049   2.612
 2067SOL    HW2 6882   1.307   5.290   2.723
 2068SOL     OW 6883   0.465   4.873   2.592
 2068SOL    HW1 6884   0.397   4.853   2.656
 2068SOL    HW2 6885   0.425   4.853   2.507
 2069SOL     OW 6886   1.024   4.267   1.884
 2069SOL    HW1 6887   0.982   4.351   1.863
 2069SOL    HW2 6888   1.089   4.288   1.950
 2070SOL     OW 6889   0.087   4.270   3.260
 2070SOL    HW1 6890   0.174   4.277   3.223
 2070SOL    HW2 6891   0.079   4.346   3.317
 2071SOL     OW 6892   0.560   3.951   3.028
 2071SOL    HW1 6893   0.598   3.871   3.064
 2071SOL    HW2 6894   0.469   3.950   3.055
 2072SOL     OW 6895   0.868   4.183   2.502
 2072SOL    HW1 6896   0.822   4.237   2.438
 2072SOL    HW2 6897   0.889   4.102   2.455
 2073SOL     OW 6898   1.015   3.777   2.614
 2073SOL    HW1 6899   0.956   3.769   2.539
 2073SOL    HW2 6900   0.994   3.701   2.669
 2074SOL     OW 6901   1.436   4.890   2.721
 2074SOL    HW1 6902   1.371   4.820   2.717
 2074SOL    HW2 6903   1.462   4.903   2.629
 2075SOL     OW 6904   1.467   4.328   2.840
 2075SOL    HW1 6905   1.417   4.246   2.844
 2075SOL    HW2 6906   1.527   4.323   2.915
 2076SOL     OW 6907   1.846   4.541   2.244
 2076SOL    HW1 6908   1.902   4.489   2.302
 2076SOL    HW2 6909   1.817   4.478   2.177
 2077SOL     OW 6910   0.484   5.142   2.017
 2077SOL    HW1 6911   0.420   5.093   2.068
 2077SOL    HW2 6912   0.479   5.105   1.930
 2078SOL     OW 6913   1.669   4.987   2.509
 2078SOL    HW1 6914   1.763   4.994   2.526
 2078SOL    HW2 6915   1.635   5.075   2.526
 2079SOL     OW 6916   1.394   4.296   1.933
 2079SOL    HW1 6917   1.333   4.276   2.005
 2079SOL    HW2 6918   1.478   4.263   1.964
 2080SOL     OW 6919   0.524   3.987   2.180
 2080SOL    HW1 6920   0.568   3.939   2.110
 2080SOL    HW2 6921   0.503   4.072   2.142
 2081SOL     OW 6922   1.752   4.960   3.439
 2081SOL    HW1 6923   1.838   4.918   3.439
 2081SOL    HW2 6924   1.770   5.052   3.453
 2082SOL     OW 6925   1.065   5.076   3.194
 2082SOL    HW1 6926   0.986   5.049   3.243
 2082SOL    HW2 6927   1.137   5.035   3.242
 2083SOL     OW 6928   1.126   4.926   2.970
 2083SOL    HW1 6929   1.074   4.966   3.039
 2083SOL    HW2 6930   1.081   4.951   2.889
 2084SOL     OW 6931   1.630   4.823   2.939
 2084SOL    HW1 6932   1.625   4.884   3.012
 2084SOL    HW2 6933   1.551   4.841   2.888
 2085SOL     OW 6934   0.919   3.821   3.260
 2085SOL    HW1 6935   0.940   3.802   3.169
 2085SOL    HW2 6936   0.998   3.861   3.296
 2086SOL     OW 6937   0.984   4.839   3.587
 2086SOL    HW1 6938   0.892   4.854   3.604
 2086SOL    HW2 6939   0.985   4.762   3.529
 2087SOL     OW 6940   0.703   4.780   2.235
 2087SOL    HW1 6941   0.694   4.766   2.329
 2087SOL    HW2 6942   0.782   4.731   2.211
 2088SOL     OW 6943   0.421   4.542   3.113
 2088SOL    HW1 6944   0.489   4.548   3.180
 2088SOL    HW2 6945   0.385   4.453   3.124
 2089SOL     OW 6946   1.266   4.101   3.137
 2089SOL    HW1 6947   1.298   4.179   3.182
 2089SOL    HW2 6948   1.176   4.124   3.113
 2090SOL     OW 6949   0.113   5.289   3.180
 2090SOL    HW1 6950   0.053   0.051   3.222
 2090SOL    HW2 6951   0.190   5.290   3.238
 2091SOL     OW 6952   0.345   4.827   2.350
 2091SOL    HW1 6953   0.352   4.906   2.296
 2091SOL    HW2 6954   0.354   4.755   2.288
 2092SOL     OW 6955   0.555   4.260   2.721
 2092SOL    HW1 6956   0.571   4.319   2.647
 2092SOL    HW2 6957   0.619   4.288   2.787
 2093SOL     OW 6958   1.260   5.076   2.247
 2093SOL    HW1 6959   1.316   5.143   2.286
 2093SOL    HW2 6960   1.172   5.098   2.277
 2094SOL     OW 6961   1.268   5.181   3.003
 2094SOL    HW1 6962   1.327   5.194   3.078
 2094SOL    HW2 6963   1.224   5.098   3.022
 2095SOL     OW 6964   1.582   4.348   2.340
 2095SOL    HW1 6965   1.536   4.403   2.404
 2095SOL    HW2 6966   1.628   4.410   2.283
 2096SOL     OW 6967   0.381   5.232   3.178
 2096SOL    HW1 6968   0.362   5.192   3.093
 2096SOL    HW2 6969   0.473   5.256   3.174
 2097SOL     OW 6970   0.413   4.467   3.464
 2097SOL    HW1 6971   0.473   4.513   3.406
 2097SOL    HW2 6972   0.453   4.381   3.477
 2098SOL     OW 6973   1.600   4.503   3.543
 2098SOL    HW1 6974   1.514   4.543   3.536
 2098SOL    HW2 6975   1.652   4.544   3.475
 2099SOL     OW 6976   0.996   3.845   3.618
 2099SOL    HW1 6977   1.050   3.918   3.588
 2099SOL    HW2 6978   1.045   3.767   3.592
 2100SOL     OW 6979   0.497   3.766   3.609
 2100SOL    HW1 6980   0.456   3.712   3.542
 2100SOL    HW2 6981   0.437   3.839   3.621
 2101SOL     OW 6982   0.585   4.597   2.894
 2101SOL    HW1 6983   0.614   4.688   2.892
 2101SOL    HW2 6984   0.529   4.591   2.971
 2102SOL     OW 6985   1.359   4.582   2.892
 2102SOL    HW1 6986   1.276   4.573   2.845
 2102SOL    HW2 6987   1.398   4.495   2.888
 2103SOL     OW 6988   1.206   4.253   2.130
 2103SOL    HW1 6989   1.214   4.174   2.184
 2103SOL    HW2 6990   1.163   4.317   2.186
 2104SOL     OW 6991   0.302   3.927   3.110
 2104SOL    HW1 6992   0.267   3.953   3.196
 2104SOL    HW2 6993   0.289   3.833   3.106
 2105SOL     OW 6994   0.045   5.022   3.139
 2105SOL    HW1 6995   0.075   4.972   3.214
 2105SOL    HW2 6996   0.045   5.113   3.168
 2106SOL     OW 6997   0.725   4.356   2.921
 2106SOL    HW1 6998   0.799   4.339   2.862
 2106SOL    HW2 6999   0.697   4.444   2.899
 2107SOL     OW 7000   1.734   4.684   3.713
 2107SOL    HW1 7001   1.688   4.623   3.655
 2107SOL    HW2 7002   1.674   4.696   3.787
 2108SOL     OW 7003   0.327   3.786   2.496
 2108SOL    HW1 7004   0.307   3.875   2.524
 2108SOL    HW2 7005   0.330   3.736   2.578
 2109SOL     OW 7006   1.615   4.097   2.230
 2109SOL    HW1 7007   1.643   4.034   2.295
 2109SOL    HW2 7008   1.593   4.176   2.280
 2110SOL     OW 7009   1.027   4.483   2.823
 2110SOL    HW1 7010   1.025   4.501   2.917
 2110SOL    HW2 7011   1.001   4.392   2.815
 2111SOL     OW 7012   1.855   5.214   3.448
 2111SOL    HW1 7013   1.852   5.288   3.387
 2111SOL    HW2 7014   1.924   5.238   3.511
 2112SOL     OW 7015   0.354   4.642   3.668
 2112SOL    HW1 7016   0.435   4.660   3.715
 2112SOL    HW2 7017   0.378   4.577   3.602
 2113SOL     OW 7018   1.530   3.997   1.989
 2113SOL    HW1 7019   1.465   3.932   2.016
 2113SOL    HW2 7020   1.563   4.033   2.072
 2114SOL     OW 7021   1.293   4.551   1.894
 2114SOL    HW1 7022   1.335   4.465   1.897
 2114SOL    HW2 7023   1.324   4.589   1.812
 2115SOL     OW 7024   1.059   5.077   2.690
 2115SOL    HW1 7025   1.063   4.992   2.646
 2115SOL    HW2 7026   1.145   5.116   2.676
 2116SOL     OW 7027   0.315   4.534   2.811
 2116SOL    HW1 7028   0.409   4.551   2.808
 2116SOL    HW2 7029   0.309   4.444   2.844
 2117SOL     OW 7030   0.336   4.249   2.876
 2117SOL    HW1 7031   0.300   4.161   2.862
 2117SOL    HW2 7032   0.410   4.255   2.817
 2118SOL     OW 7033   1.134   4.100   3.543
 2118SOL    HW1 7034   1.087   4.156   3.606
 2118SOL    HW2 7035   1.222   4.138   3.539
 2119SOL     OW 7036   1.161   3.927   3.332
 2119SOL    HW1 7037   1.150   3.990   3.403
 2119SOL    HW2 7038   1.200   3.978   3.261
 2120SOL     OW 7039   0.003   5.049   2.070
 2120SOL    HW1 7040   5.225   5.040   2.015
 2120SOL    HW2 7041   0.013   4.964   2.111
 2121SOL     OW 7042   0.984   4.517   3.089
 2121SOL    HW1 7043   1.039   4.493   3.164
 2121SOL    HW2 7044   0.899   4.479   3.110
 2122SOL     OW 7045   0.033   4.282   2.977
 2122SOL    HW1 7046   0.120   4.258   2.944
 2122SOL    HW2 7047   0.038   4.266   3.071
 2123SOL     OW 7048   0.175   4.237   3.574
 2123SOL    HW1 7049   0.241   4.202   3.514
 2123SOL    HW2 7050   0.145   4.317   3.532
 2124SOL     OW 7051   1.376   4.664   3.521
 2124SOL    HW1 7052   1.397   4.757   3.518
 2124SOL    HW2 7053   1.373   4.638   3.429
 2125SOL     OW 7054   0.816   4.293   2.220
 2125SOL    HW1 7055   0.820   4.218   2.161
 2125SOL    HW2 7056   0.742   4.345   2.189
 2126SOL     OW 7057   1.642   4.326   3.049
 2126SOL    HW1 7058   1.632   4.266   3.123
 2126SOL    HW2 7059   1.729   4.306   3.015
 2127SOL     OW 7060   0.210   5.280   3.594
 2127SOL    HW1 7061   0.179   0.024   3.673
 2127SOL    HW2 7062   0.213   5.187   3.617
 2128SOL     OW 7063   0.699   4.175   3.123
 2128SOL    HW1 7064   0.647   4.101   3.093
 2128SOL    HW2 7065   0.696   4.238   3.051
 2129SOL     OW 7066   0.466   4.217   2.048
 2129SOL    HW1 7067   0.525   4.289   2.069
 2129SOL    HW2 7068   0.380   4.259   2.037
 2130SOL     OW 7069   0.151   4.861   3.334
 2130SOL    HW1 7070   0.148   4.811   3.415
 2130SOL    HW2 7071   0.162   4.795   3.266
 2131SOL     OW 7072   1.328   4.770   3.085
 2131SOL    HW1 7073   1.351   4.708   3.016
 2131SOL    HW2 7074   1.256   4.822   3.048
 2132SOL     OW 7075   1.309   4.582   2.169
 2132SOL    HW1 7076   1.234   4.550   2.218
 2132SOL    HW2 7077   1.286   4.567   2.077
 2133SOL     OW 7078   0.077   4.922   2.892
 2133SOL    HW1 7079   0.065   4.961   2.978
 2133SOL    HW2 7080   5.290   4.926   2.852
 2134SOL     OW 7081   0.751   0.040   3.571
 2134SOL    HW1 7082   0.658   0.062   3.580
 2134SOL    HW2 7083   0.771   0.061   3.480
 2135SOL     OW 7084   1.718   3.869   2.372
 2135SOL    HW1 7085   1.792   3.855   2.313
 2135SOL    HW2 7086   1.703   3.784   2.412
 2136SOL     OW 7087   1.277   4.649   2.533
 2136SOL    HW1 7088   1.350   4.588   2.540
 2136SOL    HW2 7089   1.311   4.721   2.481
 2137SOL     OW 7090   0.820   4.994   3.285
 2137SOL    HW1 7091   0.791   5.030   3.368
 2137SOL    HW2 7092   0.744   5.002   3.227
 2138SOL     OW 7093   1.840   3.897   2.829
 2138SOL    HW1 7094   1.870   3.810   2.802
 2138SOL    HW2 7095   1.754   3.907   2.789
 2139SOL     OW 7096   0.272   4.041   2.580
 2139SOL    HW1 7097   0.188   4.080   2.558
 2139SOL    HW2 7098   0.270   4.030   2.675
 2140SOL     OW 7099   0.824   4.728   3.233
 2140SOL    HW1 7100   0.869   4.722   3.149
 2140SOL    HW2 7101   0.828   4.821   3.255
 2141SOL     OW 7102   0.915   4.635   2.152
 2141SOL    HW1 7103   0.977   4.668   2.086
 2141SOL    HW2 7104   0.963   4.565   2.197
 2142SOL     OW 7105   0.366   5.028   3.361
 2142SOL    HW1 7106   0.365   5.099   3.297
 2142SOL    HW2 7107   0.291   4.973   3.338
 2143SOL     OW 7108   1.612   5.004   3.144
 2143SOL    HW1 7109   1.669   4.998   3.221
 2143SOL    HW2 7110   1.550   5.074   3.166
 2144SOL     OW 7111   1.053   4.833   2.572
 2144SOL    HW1 7112   0.981   4.781   2.609
 2144SOL    HW2 7113   1.114   4.767   2.539
 2145SOL     OW 7114   1.021   3.964   2.828
 2145SOL    HW1 7115   1.016   3.916   2.745
 2145SOL    HW2 7116   1.015   3.897   2.895
 2146SOL     OW 7117   1.721   4.116   3.242
 2146SOL    HW1 7118   1.793   4.179   3.241
 2146SOL    HW2 7119   1.751   4.044   3.186
 2147SOL     OW 7120   0.259   5.060   2.147
 2147SOL    HW1 7121   0.166   5.064   2.124
 2147SOL    HW2 7122   0.262   5.097   2.236
 2148SOL     OW 7123   0.115   4.742   3.582
 2148SOL    HW1 7124   0.044   4.704   3.633
 2148SOL    HW2 7125   0.195   4.709   3.624
 2149SOL     OW 7126   0.674   3.920   3.361
 2149SOL    HW1 7127   0.757   3.901   3.319
 2149SOL    HW2 7128   0.697   3.951   3.448
 2150SOL     OW 7129   0.081   4.075   1.903
 2150SOL    HW1 7130   0.002   4.027   1.879
 2150SOL    HW2 7131   0.098   4.132   1.828
 2151SOL     OW 7132   1.431   4.582   3.263
 2151SOL    HW1 7133   1.382   4.642   3.207
 2151SOL    HW2 7134   1.520   4.584   3.229
 2152SOL     OW 7135   0.055   3.857   2.104
 2152SOL    HW1 7136   0.054   3.953   2.099
 2152SOL    HW2 7137   0.146   3.833   2.085
 2153SOL     OW 7138   1.182   5.065   1.982
 2153SOL    HW1 7139   1.091   5.036   1.982
 2153SOL    HW2 7140   1.210   5.057   2.073
 2154SOL     OW 7141   0.619   4.555   3.297
 2154SOL    HW1 7142   0.675   4.631   3.281
 2154SOL    HW2 7143   0.679   4.481   3.305
 2155SOL     OW 7144   0.717   4.289   3.567
 2155SOL    HW1 7145   0.757   4.351   3.627
 2155SOL    HW2 7146   0.748   4.203   3.598
 2156SOL     OW 7147   1.472   4.924   3.494
 2156SOL    HW1 7148   1.459   4.936   3.588
 2156SOL    HW2 7149   1.566   4.937   3.481
 2157SOL     OW 7150   1.670   4.606   3.117
 2157SOL    HW1 7151   1.663   4.520   3.075
 2157SOL    HW2 7152   1.661   4.669   3.046
 2158SOL     OW 7153   1.217   4.043   2.320
 2158SOL    HW1 7154   1.281   3.972   2.311
 2158SOL    HW2 7155   1.246   4.092   2.397
 2159SOL     OW 7156   0.591   4.462   2.530
 2159SOL    HW1 7157   0.629   4.549   2.515
 2159SOL    HW2 7158   0.521   4.455   2.465
 2160SOL     OW 7159   1.764   4.085   3.512
 2160SOL    HW1 7160   1.746   4.100   3.419
 2160SOL    HW2 7161   1.692   4.029   3.541
 2161SOL     OW 7162   1.744   4.658   3.374
 2161SOL    HW1 7163   1.742   4.752   3.387
 2161SOL    HW2 7164   1.729   4.646   3.280
 2162SOL     OW 7165   0.849   5.095   1.881
 2162SOL    HW1 7166   0.830   5.096   1.975
 2162SOL    HW2 7167   0.869   5.186   1.859
 2163SOL     OW 7168   0.868   4.691   2.717
 2163SOL    HW1 7169   0.917   4.619   2.758
 2163SOL    HW2 7170   0.833   4.741   2.791
 2164SOL     OW 7171   1.080   4.713   1.951
 2164SOL    HW1 7172   1.057   4.763   1.873
 2164SOL    HW2 7173   1.155   4.659   1.925
 2165SOL     OW 7174   0.220   5.026   3.716
 2165SOL    HW1 7175   0.155   4.959   3.697
 2165SOL    HW2 7176   0.216   5.036   3.811
 2166SOL     OW 7177   0.081   4.931   2.518
 2166SOL    HW1 7178   0.100   4.909   2.609
 2166SOL    HW2 7179   0.168   4.937   2.477
 2167SOL     OW 7180   0.670   5.108   3.471
 2167SOL    HW1 7181   0.594   5.073   3.518
 2167SOL    HW2 7182   0.701   5.181   3.525
 2168SOL     OW 7183   1.812   3.908   3.100
 2168SOL    HW1 7184   1.824   3.815   3.115
 2168SOL    HW2 7185   1.822   3.919   3.005
 2169SOL     OW 7186   0.434   4.160   2.386
 2169SOL    HW1 7187   0.461   4.087   2.330
 2169SOL    HW2 7188   0.387   4.118   2.458
 2170SOL     OW 7189   1.707   5.223   2.981
 2170SOL    HW1 7190   1.633   5.206   2.922
 2170SOL    HW2 7191   1.714   5.144   3.034
 2171SOL     OW 7192   0.335   4.282   3.153
 2171SOL    HW1 7193   0.388   4.223   3.206
 2171SOL    HW2 7194   0.350   4.253   3.063
 2172SOL     OW 7195   1.432   3.949   2.980
 2172SOL    HW1 7196   1.460   3.870   3.026
 2172SOL    HW2 7197   1.380   3.997   3.044
 2173SOL     OW 7198   1.009   3.743   3.005
 2173SOL    HW1 7199   0.954   3.675   2.966
 2173SOL    HW2 7200   1.097   3.706   3.007
 2174SOL     OW 7201   0.803   5.047   2.146
 2174SOL    HW1 7202   0.740   4.977   2.165
 2174SOL    HW2 7203   0.856   5.053   2.225
 2175SOL     OW 7204   0.638   0.002   3.148
 2175SOL    HW1 7205   0.643   0.057   3.226
 2175SOL    HW2 7206   0.730   5.285   3.126
 2176SOL     OW 7207   1.352   3.778   2.027
 2176SOL    HW1 7208   1.379   3.715   1.959
 2176SOL    HW2 7209   1.265   3.748   2.053
 2177SOL     OW 7210   1.297   4.184   2.544
 2177SOL    HW1 7211   1.243   4.263   2.551
 2177SOL    HW2 7212   1.293   4.145   2.630
 2178SOL     OW 7213   1.587   3.927   2.739
 2178SOL    HW1 7214   1.525   3.947   2.810
 2178SOL    HW2 7215   1.586   4.005   2.684
 2179SOL     OW 7216   0.047   4.791   2.152
 2179SOL    HW1 7217   0.137   4.761   2.143
 2179SOL    HW2 7218   0.000   4.716   2.189
 2180SOL     OW 7219   0.233   4.357   3.839
 2180SOL    HW1 7220   0.159   4.326   3.890
 2180SOL    HW2 7221   0.220   4.321   3.752
 2181SOL     OW 7222   0.241   3.999   4.714
 2181SOL    HW1 7223   0.255   3.965   4.802
 2181SOL    HW2 7224   0.157   3.962   4.687
 2182SOL     OW 7225   5.299   4.121   4.377
 2182SOL    HW1 7226   5.206   4.143   4.384
 2182SOL    HW2 7227   5.299   4.030   4.346
 2183SOL     OW 7228   0.572   4.998   4.906
 2183SOL    HW1 7229   0.493   5.005   4.852
 2183SOL    HW2 7230   0.590   5.088   4.933
 2184SOL     OW 7231   1.555   5.232   4.413
 2184SOL    HW1 7232   1.533   5.229   4.506
 2184SOL    HW2 7233   1.476   5.267   4.371
 2185SOL     OW 7234   1.130   4.422   4.426
 2185SOL    HW1 7235   1.179   4.503   4.412
 2185SOL    HW2 7236   1.083   4.437   4.508
 2186SOL     OW 7237   1.765   4.330   3.954
 2186SOL    HW1 7238   1.745   4.322   3.860
 2186SOL    HW2 7239   1.731   4.250   3.992
 2187SOL     OW 7240   0.759   4.868   4.760
 2187SOL    HW1 7241   0.691   4.897   4.821
 2187SOL    HW2 7242   0.787   4.948   4.715
 2188SOL     OW 7243   0.865   4.501   5.546
 2188SOL    HW1 7244   0.854   4.573   5.608
 2188SOL    HW2 7245   0.888   4.544   5.463
 2189SOL     OW 7246   0.686   4.728   4.373
 2189SOL    HW1 7247   0.751   4.715   4.442
 2189SOL    HW2 7248   0.618   4.782   4.413
 2190SOL     OW 7249   0.708   4.873   5.535
 2190SOL    HW1 7250   0.756   4.952   5.559
 2190SOL    HW2 7251   0.624   4.905   5.500
 2191SOL     OW 7252   0.376   5.145   4.777
 2191SOL    HW1 7253   0.282   5.153   4.764
 2191SOL    HW2 7254   0.414   5.200   4.709
 2192SOL     OW 7255   1.455   5.220   5.071
 2192SOL    HW1 7256   1.508   5.293   5.103
 2192SOL    HW2 7257   1.389   5.207   5.139
 2193SOL     OW 7258   0.450   4.124   5.218
 2193SOL    HW1 7259   0.524   4.063   5.219
 2193SOL    HW2 7260   0.373   4.069   5.226
 2194SOL     OW 7261   1.612   4.173   4.463
 2194SOL    HW1 7262   1.537   4.196   4.409
 2194SOL    HW2 7263   1.629   4.251   4.516
 2195SOL     OW 7264   1.133   5.072   5.424
 2195SOL    HW1 7265   1.164   5.072   5.514
 2195SOL    HW2 7266   1.080   4.993   5.417
 2196SOL     OW 7267   0.212   5.151   4.255
 2196SOL    HW1 7268   0.249   5.232   4.290
 2196SOL    HW2 7269   0.134   5.135   4.308
 2197SOL     OW 7270   0.251   4.800   4.600
 2197SOL    HW1 7271   0.263   4.714   4.640
 2197SOL    HW2 7272   0.196   4.848   4.661
 2198SOL     OW 7273   0.584   4.706   3.858
 2198SOL    HW1 7274   0.631   4.754   3.789
 2198SOL    HW2 7275   0.625   4.735   3.939
 2199SOL     OW 7276   1.597   3.847   5.193
 2199SOL    HW1 7277   1.599   3.926   5.141
 2199SOL    HW2 7278   1.583   3.877   5.283
 2200SOL     OW 7279   0.126   4.357   4.302
 2200SOL    HW1 7280   0.088   4.274   4.332
 2200SOL    HW2 7281   0.099   4.421   4.367
 2201SOL     OW 7282   5.299   0.000   3.807
 2201SOL    HW1 7283   0.016   5.212   3.841
 2201SOL    HW2 7284   0.025   0.059   3.878
 2202SOL     OW 7285   1.689   4.642   4.363
 2202SOL    HW1 7286   1.773   4.600   4.343
 2202SOL    HW2 7287   1.668   4.693   4.285
 2203SOL     OW 7288   1.645   4.831   4.154
 2203SOL    HW1 7289   1.730   4.837   4.110
 2203SOL    HW2 7290   1.651   4.892   4.227
 2204SOL     OW 7291   0.130   4.471   5.311
 2204SOL    HW1 7292   0.224   4.486   5.314
 2204SOL    HW2 7293   0.091   4.558   5.322
 2205SOL     OW 7294   0.626   5.095   4.458
 2205SOL    HW1 7295   0.569   5.019   4.459
 2205SOL    HW2 7296   0.600   5.143   4.379
 2206SOL     OW 7297   1.289   4.955   5.150
 2206SOL    HW1 7298   1.324   4.890   5.089
 2206SOL    HW2 7299   1.348   4.952   5.225
 2207SOL     OW 7300   0.821   3.722   4.233
 2207SOL    HW1 7301   0.861   3.807   4.214
 2207SOL    HW2 7302   0.728   3.741   4.239
 2208SOL     OW 7303   0.178   4.669   5.005
 2208SOL    HW1 7304   0.268   4.639   4.991
 2208SOL    HW2 7305   0.134   4.652   4.922
 2209SOL     OW 7306   1.531   4.718   3.921
 2209SOL    HW1 7307   1.462   4.660   3.952
 2209SOL    HW2 7308   1.572   4.752   4.000
 2210SOL     OW 7309   0.334   3.977   5.539
 2210SOL    HW1 7310   0.382   4.059   5.551
 2210SOL    HW2 7311   0.247   3.994   5.575
 2211SOL     OW 7312   1.476   5.146   4.686
 2211SOL    HW1 7313   1.403   5.158   4.747
 2211SOL    HW2 7314   1.463   5.058   4.652
 2212SOL     OW 7315   0.596   4.446   3.989
 2212SOL    HW1 7316   0.604   4.526   3.938
 2212SOL    HW2 7317   0.531   4.466   4.057
 2213SOL     OW 7318   1.279   4.075   4.656
 2213SOL    HW1 7319   1.190   4.042   4.664
 2213SOL    HW2 7320   1.330   4.022   4.718
 2214SOL     OW 7321   0.792   4.341   5.176
 2214SOL    HW1 7322   0.765   4.318   5.265
 2214SOL    HW2 7323   0.751   4.275   5.120
 2215SOL     OW 7324   1.394   4.198   5.402
 2215SOL    HW1 7325   1.395   4.242   5.487
 2215SOL    HW2 7326   1.456   4.126   5.411
 2216SOL     OW 7327   0.956   4.612   5.306
 2216SOL    HW1 7328   1.010   4.541   5.271
 2216SOL    HW2 7329   0.908   4.645   5.230
 2217SOL     OW 7330   0.992   4.137   4.963
 2217SOL    HW1 7331   0.907   4.159   5.001
 2217SOL    HW2 7332   0.971   4.090   4.882
 2218SOL     OW 7333   1.050   4.423   4.150
 2218SOL    HW1 7334   1.066   4.416   4.245
 2218SOL    HW2 7335   0.968   4.376   4.136
 2219SOL     OW 7336   0.073   4.510   4.535
 2219SOL    HW1 7337   0.155   4.515   4.584
 2219SOL    HW2 7338   0.059   4.598   4.501
 2220SOL     OW 7339   0.891   4.072   3.918
 2220SOL    HW1 7340   0.932   4.133   3.857
 2220SOL    HW2 7341   0.908   3.986   3.880
 2221SOL     OW 7342   1.709   4.299   5.552
 2221SOL    HW1 7343   1.672   4.374   5.505
 2221SOL    HW2 7344   1.736   4.239   5.483
 2222SOL     OW 7345   1.376   4.864   4.264
 2222SOL    HW1 7346   1.457   4.850   4.215
 2222SOL    HW2 7347   1.326   4.925   4.210
 2223SOL     OW 7348   0.555   3.908   4.617
 2223SOL    HW1 7349   0.552   3.935   4.709
 2223SOL    HW2 7350   0.551   3.989   4.567
 2224SOL     OW 7351   1.024   5.170   4.194
 2224SOL    HW1 7352   0.945   5.225   4.187
 2224SOL    HW2 7353   1.038   5.160   4.288
 2225SOL     OW 7354   1.800   4.782   4.590
 2225SOL    HW1 7355   1.743   4.765   4.515
 2225SOL    HW2 7356   1.740   4.788   4.665
 2226SOL     OW 7357   1.250   5.239   5.247
 2226SOL    HW1 7358   1.213   5.173   5.306
 2226SOL    HW2 7359   1.179   5.258   5.185
 2227SOL     OW 7360   0.317   4.676   3.970
 2227SOL    HW1 7361   0.399   4.699   3.927
 2227SOL    HW2 7362   0.293   4.591   3.934
 2228SOL     OW 7363   1.477   4.466   4.452
 2228SOL    HW1 7364   1.468   4.421   4.536
 2228SOL    HW2 7365   1.555   4.520   4.462
 2229SOL     OW 7366   0.463   4.988   5.466
 2229SOL    HW1 7367   0.437   4.991   5.373
 2229SOL    HW2 7368   0.381   4.988   5.514
 2230SOL     OW 7369   1.071   0.182   3.932
 2230SOL    HW1 7370   1.078   0.108   3.993
 2230SOL    HW2 7371   1.109   0.149   3.851
 2231SOL     OW 7372   0.205   4.006   5.221
 2231SOL    HW1 7373   0.125   4.057   5.205
 2231SOL    HW2 7374   0.174   3.928   5.268
 2232SOL     OW 7375   1.623   5.100   3.830
 2232SOL    HW1 7376   1.618   5.178   3.775
 2232SOL    HW2 7377   1.555   5.042   3.797
 2233SOL     OW 7378   1.401   3.832   4.156
 2233SOL    HW1 7379   1.390   3.807   4.064
 2233SOL    HW2 7380   1.496   3.838   4.168
 2234SOL     OW 7381   0.386   4.420   4.203
 2234SOL    HW1 7382   0.415   4.329   4.212
 2234SOL    HW2 7383   0.293   4.417   4.224
 2235SOL     OW 7384   1.536   3.949   5.449
 2235SOL    HW1 7385   1.545   3.970   5.542
 2235SOL    HW2 7386   1.467   3.884   5.446
 2236SOL     OW 7387   0.631   3.847   3.830
 2236SOL    HW1 7388   0.704   3.786   3.841
 2236SOL    HW2 7389   0.584   3.815   3.753
 2237SOL     OW 7390   0.768   4.002   5.478
 2237SOL    HW1 7391   0.842   3.941   5.481
 2237SOL    HW2 7392   0.717   3.982   5.557
 2238SOL     OW 7393   1.341   4.312   5.156
 2238SOL    HW1 7394   1.372   4.281   5.241
 2238SOL    HW2 7395   1.377   4.401   5.148
 2239SOL     OW 7396   0.813   5.121   4.659
 2239SOL    HW1 7397   0.893   5.105   4.610
 2239SOL    HW2 7398   0.744   5.126   4.592
 2240SOL     OW 7399   0.928   4.233   4.627
 2240SOL    HW1 7400   0.904   4.225   4.535
 2240SOL    HW2 7401   0.959   4.146   4.652
 2241SOL     OW 7402   0.560   3.785   4.221
 2241SOL    HW1 7403   0.485   3.786   4.280
 2241SOL    HW2 7404   0.549   3.865   4.169
 2242SOL     OW 7405   1.428   4.924   3.763
 2242SOL    HW1 7406   1.459   4.848   3.813
 2242SOL    HW2 7407   1.340   4.940   3.797
 2243SOL     OW 7408   0.305   3.771   3.904
 2243SOL    HW1 7409   0.367   3.834   3.868
 2243SOL    HW2 7410   0.360   3.706   3.948
 2244SOL     OW 7411   0.939   3.970   4.185
 2244SOL    HW1 7412   0.911   4.012   4.104
 2244SOL    HW2 7413   1.033   3.984   4.188
 2245SOL     OW 7414   1.080   4.404   5.184
 2245SOL    HW1 7415   1.010   4.338   5.188
 2245SOL    HW2 7416   1.160   4.353   5.176
 2246SOL     OW 7417   1.264   5.267   4.503
 2246SOL    HW1 7418   1.223   0.049   4.474
 2246SOL    HW2 7419   1.307   5.290   4.586
 2247SOL     OW 7420   0.465   4.873   4.454
 2247SOL    HW1 7421   0.397   4.853   4.518
 2247SOL    HW2 7422   0.425   4.853   4.369
 2248SOL     OW 7423   1.024   4.267   3.746
 2248SOL    HW1 7424   0.982   4.351   3.725
 2248SOL    HW2 7425   1.089   4.288   3.812
 2249SOL     OW 7426   0.087   4.270   5.122
 2249SOL    HW1 7427   0.174   4.277   5.085
 2249SOL    HW2 7428   0.079   4.346   5.179
 2250SOL     OW 7429   0.561   3.951   4.890
 2250SOL    HW1 7430   0.598   3.871   4.925
 2250SOL    HW2 7431   0.469   3.950   4.917
 2251SOL     OW 7432   0.868   4.183   4.364
 2251SOL    HW1 7433   0.822   4.237   4.300
 2251SOL    HW2 7434   0.889   4.102   4.317
 2252SOL     OW 7435   1.014   3.777   4.476
 2252SOL    HW1 7436   0.956   3.769   4.401
 2252SOL    HW2 7437   0.993   3.701   4.531
 2253SOL     OW 7438   1.436   4.890   4.583
 2253SOL    HW1 7439   1.370   4.820   4.579
 2253SOL    HW2 7440   1.462   4.903   4.492
 2254SOL     OW 7441   1.467   4.328   4.702
 2254SOL    HW1 7442   1.417   4.246   4.706
 2254SOL    HW2 7443   1.527   4.323   4.777
 2255SOL     OW 7444   1.846   4.541   4.106
 2255SOL    HW1 7445   1.902   4.489   4.164
 2255SOL    HW2 7446   1.817   4.479   4.039
 2256SOL     OW 7447   0.484   5.142   3.879
 2256SOL    HW1 7448   0.420   5.093   3.930
 2256SOL    HW2 7449   0.480   5.105   3.792
 2257SOL     OW 7450   1.669   4.987   4.372
 2257SOL    HW1 7451   1.763   4.994   4.388
 2257SOL    HW2 7452   1.635   5.075   4.388
 2258SOL     OW 7453   1.394   4.296   3.795
 2258SOL    HW1 7454   1.334   4.276   3.867
 2258SOL    HW2 7455   1.479   4.263   3.825
 2259SOL     OW 7456   0.524   3.987   4.042
 2259SOL    HW1 7457   0.568   3.939   3.972
 2259SOL    HW2 7458   0.503   4.072   4.004
 2260SOL     OW 7459   1.752   4.959   5.301
 2260SOL    HW1 7460   1.838   4.918   5.300
 2260SOL    HW2 7461   1.770   5.052   5.315
 2261SOL     OW 7462   1.065   5.075   5.056
 2261SOL    HW1 7463   0.986   5.049   5.104
 2261SOL    HW2 7464   1.137   5.035   5.104
 2262SOL     OW 7465   1.126   4.926   4.832
 2262SOL    HW1 7466   1.074   4.966   4.901
 2262SOL    HW2 7467   1.081   4.951   4.751
 2263SOL     OW 7468   1.630   4.823   4.801
 2263SOL    HW1 7469   1.625   4.884   4.874
 2263SOL    HW2 7470   1.551   4.841   4.750
 2264SOL     OW 7471   0.919   3.821   5.122
 2264SOL    HW1 7472   0.940   3.802   5.031
 2264SOL    HW2 7473   0.998   3.861   5.158
 2265SOL     OW 7474   0.984   4.839   5.449
 2265SOL    HW1 7475   0.892   4.854   5.467
 2265SOL    HW2 7476   0.985   4.762   5.391
 2266SOL     OW 7477   0.703   4.780   4.097
 2266SOL    HW1 7478   0.694   4.766   4.191
 2266SOL    HW2 7479   0.782   4.731   4.073
 2267SOL     OW 7480   0.421   4.542   4.975
 2267SOL    HW1 7481   0.489   4.548   5.042
 2267SOL    HW2 7482   0.385   4.453   4.986
 2268SOL     OW 7483   1.266   4.101   4.999
 2268SOL    HW1 7484   1.298   4.179   5.044
 2268SOL    HW2 7485   1.176   4.123   4.975
 2269SOL     OW 7486   0.113   5.290   5.042
 2269SOL    HW1 7487   0.053   0.051   5.084
 2269SOL    HW2 7488   0.190   5.290   5.100
 2270SOL     OW 7489   0.345   4.827   4.212
 2270SOL    HW1 7490   0.352   4.906   4.158
 2270SOL    HW2 7491   0.354   4.755   4.150
 2271SOL     OW 7492   0.555   4.261   4.583
 2271SOL    HW1 7493   0.571   4.319   4.509
 2271SOL    HW2 7494   0.619   4.288   4.649
 2272SOL     OW 7495   1.260   5.076   4.109
 2272SOL    HW1 7496   1.316   5.143   4.148
 2272SOL    HW2 7497   1.172   5.098   4.139
 2273SOL     OW 7498   1.268   5.181   4.865
 2273SOL    HW1 7499   1.327   5.194   4.940
 2273SOL    HW2 7500   1.224   5.098   4.884
 2274SOL     OW 7501   1.582   4.347   4.203
 2274SOL    HW1 7502   1.536   4.403   4.265
 2274SOL    HW2 7503   1.627   4.408   4.145
 2275SOL     OW 7504   0.381   5.232   5.040
 2275SOL    HW1 7505   0.362   5.192   4.955
 2275SOL    HW2 7506   0.473   5.256   5.036
 2276SOL     OW 7507   0.413   4.467   5.326
 2276SOL    HW1 7508   0.473   4.513   5.268
 2276SOL    HW2 7509   0.453   4.381   5.339
 2277SOL     OW 7510   1.600   4.502   5.405
 2277SOL    HW1 7511   1.514   4.543   5.398
 2277SOL    HW2 7512   1.652   4.544   5.337
 2278SOL     OW 7513   0.996   3.845   5.480
 2278SOL    HW1 7514   1.050   3.918   5.450
 2278SOL    HW2 7515   1.045   3.767   5.454
 2279SOL     OW 7516   0.498   3.766   5.471
 2279SOL    HW1 7517   0.456   3.712   5.404
 2279SOL    HW2 7518   0.437   3.839   5.483
 2280SOL     OW 7519   0.586   4.597   4.756
 2280SOL    HW1 7520   0.613   4.688   4.753
 2280SOL    HW2 7521   0.529   4.591   4.833
 2281SOL     OW 7522   1.359   4.582   4.754
 2281SOL    HW1 7523   1.276   4.573   4.707
 2281SOL    HW2 7524   1.398   4.495   4.750
 2282SOL     OW 7525   1.206   4.253   3.992
 2282SOL    HW1 7526   1.214   4.174   4.046
 2282SOL    HW2 7527   1.163   4.317   4.048
 2283SOL     OW 7528   0.302   3.927   4.972
 2283SOL    HW1 7529   0.267   3.953   5.058
 2283SOL    HW2 7530   0.289   3.833   4.968
 2284SOL     OW 7531   0.045   5.022   5.001
 2284SOL    HW1 7532   0.075   4.972   5.076
 2284SOL    HW2 7533   0.045   5.113   5.030
 2285SOL     OW 7534   0.725   4.356   4.783
 2285SOL    HW1 7535   0.799   4.339   4.724
 2285SOL    HW2 7536   0.697   4.444   4.761
 2286SOL     OW 7537   1.734   4.683   5.575
 2286SOL    HW1 7538   1.687   4.623   5.517
 2286SOL    HW2 7539   1.674   4.696   5.649
 2287SOL     OW 7540   0.328   3.786   4.358
 2287SOL    HW1 7541   0.307   3.875   4.386
 2287SOL    HW2 7542   0.330   3.736   4.440
 2288SOL     OW 7543   1.615   4.097   4.092
 2288SOL    HW1 7544   1.643   4.033   4.158
 2288SOL    HW2 7545   1.593   4.175   4.142
 2289SOL     OW 7546   1.027   4.483   4.685
 2289SOL    HW1 7547   1.025   4.501   4.779
 2289SOL    HW2 7548   1.001   4.392   4.677
 2290SOL     OW 7549   1.855   5.214   5.310
 2290SOL    HW1 7550   1.851   5.288   5.249
 2290SOL    HW2 7551   1.924   5.237   5.372
 2291SOL     OW 7552   0.354   4.642   5.530
 2291SOL    HW1 7553   0.435   4.660   5.577
 2291SOL    HW2 7554   0.378   4.577   5.464
 2292SOL     OW 7555   1.529   3.998   3.851
 2292SOL    HW1 7556   1.465   3.932   3.878
 2292SOL    HW2 7557   1.563   4.033   3.934
 2293SOL     OW 7558   1.293   4.551   3.756
 2293SOL    HW1 7559   1.335   4.465   3.759
 2293SOL    HW2 7560   1.324   4.590   3.674
 2294SOL     OW 7561   1.059   5.077   4.552
 2294SOL    HW1 7562   1.064   4.992   4.508
 2294SOL    HW2 7563   1.145   5.116   4.538
 2295SOL     OW 7564   0.315   4.534   4.673
 2295SOL    HW1 7565   0.409   4.551   4.669
 2295SOL    HW2 7566   0.309   4.444   4.706
 2296SOL     OW 7567   0.336   4.249   4.739
 2296SOL    HW1 7568   0.300   4.161   4.724
 2296SOL    HW2 7569   0.410   4.255   4.679
 2297SOL     OW 7570   1.134   4.100   5.405
 2297SOL    HW1 7571   1.087   4.155   5.468
 2297SOL    HW2 7572   1.222   4.139   5.401
 2298SOL     OW 7573   1.161   3.927   5.194
 2298SOL    HW1 7574   1.150   3.990   5.266
 2298SOL    HW2 7575   1.199   3.978   5.123
 2299SOL     OW 7576   0.002   5.049   3.932
 2299SOL    HW1 7577   5.225   5.040   3.877
 2299SOL    HW2 7578   0.013   4.964   3.973
 2300SOL     OW 7579   0.984   4.517   4.951
 2300SOL    HW1 7580   1.039   4.493   5.026
 2300SOL    HW2 7581   0.899   4.479   4.971
 2301SOL     OW 7582   0.033   4.282   4.839
 2301SOL    HW1 7583   0.120   4.258   4.806
 2301SOL    HW2 7584   0.038   4.266   4.933
 2302SOL     OW 7585   0.175   4.237   5.436
 2302SOL    HW1 7586   0.241   4.201   5.376
 2302SOL    HW2 7587   0.145   4.317   5.394
 2303SOL     OW 7588   1.376   4.664   5.383
 2303SOL    HW1 7589   1.397   4.757   5.380
 2303SOL    HW2 7590   1.373   4.638   5.291
 2304SOL     OW 7591   0.816   4.293   4.082
 2304SOL    HW1 7592   0.820   4.218   4.023
 2304SOL    HW2 7593   0.742   4.345   4.051
 2305SOL     OW 7594   1.642   4.325   4.911
 2305SOL    HW1 7595   1.631   4.266   4.985
 2305SOL    HW2 7596   1.729   4.305   4.876
 2306SOL     OW 7597   0.210   5.280   5.456
 2306SOL    HW1 7598   0.179   0.024   5.535
 2306SOL    HW2 7599   0.213   5.187   5.479
 2307SOL     OW 7600   0.699   4.175   4.985
 2307SOL    HW1 7601   0.647   4.101   4.955
 2307SOL    HW2 7602   0.696   4.238   4.913
 2308SOL     OW 7603   0.466   4.217   3.910
 2308SOL    HW1 7604   0.525   4.289   3.931
 2308SOL    HW2 7605   0.380   4.259   3.899
 2309SOL     OW 7606   0.151   4.861   5.196
 2309SOL    HW1 7607   0.148   4.811   5.277
 2309SOL    HW2 7608   0.162   4.795   5.128
 2310SOL     OW 7609   1.328   4.770   4.947
 2310SOL    HW1 7610   1.351   4.708   4.878
 2310SOL    HW2 7611   1.256   4.822   4.910
 2311SOL     OW 7612   1.309   4.582   4.031
 2311SOL    HW1 7613   1.234   4.549   4.080
 2311SOL    HW2 7614   1.286   4.567   3.939
 2312SOL     OW 7615   0.077   4.921   4.754
 2312SOL    HW1 7616   0.065   4.961   4.840
 2312SOL    HW2 7617   5.290   4.926   4.714
 2313SOL     OW 7618   0.750   0.040   5.433
 2313SOL    HW1 7619   0.658   0.062   5.442
 2313SOL    HW2 7620   0.771   0.061   5.342
 2314SOL     OW 7621   1.719   3.869   4.235
 2314SOL    HW1 7622   1.792   3.854   4.174
 2314SOL    HW2 7623   1.704   3.783   4.275
 2315SOL     OW 7624   1.277   4.649   4.396
 2315SOL    HW1 7625   1.350   4.588   4.402
 2315SOL    HW2 7626   1.311   4.721   4.343
 2316SOL     OW 7627   0.820   4.994   5.147
 2316SOL    HW1 7628   0.791   5.030   5.230
 2316SOL    HW2 7629   0.744   5.002   5.089
 2317SOL     OW 7630   1.841   3.894   4.692
 2317SOL    HW1 7631   1.867   3.807   4.660
 2317SOL    HW2 7632   1.755   3.909   4.653
 2318SOL     OW 7633   0.272   4.041   4.442
 2318SOL    HW1 7634   0.188   4.080   4.420
 2318SOL    HW2 7635   0.270   4.030   4.537
 2319SOL     OW 7636   0.825   4.728   5.095
 2319SOL    HW1 7637   0.869   4.722   5.010
 2319SOL    HW2 7638   0.828   4.821   5.117
 2320SOL     OW 7639   0.915   4.636   4.014
 2320SOL    HW1 7640   0.977   4.668   3.948
 2320SOL    HW2 7641   0.963   4.565   4.058
 2321SOL     OW 7642   0.366   5.028   5.223
 2321SOL    HW1 7643   0.365   5.099   5.159
 2321SOL    HW2 7644   0.291   4.973   5.200
 2322SOL     OW 7645   1.612   5.004   5.006
 2322SOL    HW1 7646   1.670   4.999   5.083
 2322SOL    HW2 7647   1.550   5.074   5.028
 2323SOL     OW 7648   1.053   4.833   4.434
 2323SOL    HW1 7649   0.981   4.781   4.471
 2323SOL    HW2 7650   1.114   4.767   4.400
 2324SOL     OW 7651   1.021   3.964   4.690
 2324SOL    HW1 7652   1.016   3.917   4.607
 2324SOL    HW2 7653   1.015   3.896   4.757
 2325SOL     OW 7654   1.721   4.116   5.104
 2325SOL    HW1 7655   1.793   4.180   5.103
 2325SOL    HW2 7656   1.751   4.045   5.048
 2326SOL     OW 7657   0.259   5.060   4.009
 2326SOL    HW1 7658   0.166   5.064   3.985
 2326SOL    HW2 7659   0.262   5.097   4.098
 2327SOL     OW 7660   0.115   4.741   5.444
 2327SOL    HW1 7661   0.044   4.704   5.495
 2327SOL    HW2 7662   0.195   4.709   5.486
 2328SOL     OW 7663   0.674   3.920   5.223
 2328SOL    HW1 7664   0.757   3.901   5.181
 2328SOL    HW2 7665   0.697   3.951   5.310
 2329SOL     OW 7666   0.081   4.075   3.765
 2329SOL    HW1 7667   0.002   4.026   3.741
 2329SOL    HW2 7668   0.098   4.132   3.690
 2330SOL     OW 7669   1.431   4.582   5.125
 2330SOL    HW1 7670   1.382   4.642   5.069
 2330SOL    HW2 7671   1.520   4.585   5.091
 2331SOL     OW 7672   0.055   3.857   3.967
 2331SOL    HW1 7673   0.054   3.953   3.961
 2331SOL    HW2 7674   0.146   3.833   3.947
 2332SOL     OW 7675   1.182   5.065   3.844
 2332SOL    HW1 7676   1.091   5.036   3.844
 2332SOL    HW2 7677   1.210   5.057   3.935
 2333SOL     OW 7678   0.619   4.555   5.159
 2333SOL    HW1 7679   0.675   4.631   5.143
 2333SOL    HW2 7680   0.679   4.481   5.167
 2334SOL     OW 7681   0.717   4.289   5.429
 2334SOL    HW1 7682   0.757   4.351   5.489
 2334SOL    HW2 7683   0.748   4.203   5.460
 2335SOL     OW 7684   1.472   4.924   5.356
 2335SOL    HW1 7685   1.459   4.936   5.450
 2335SOL    HW2 7686   1.566   4.937   5.343
 2336SOL     OW 7687   1.671   4.606   4.979
 2336SOL    HW1 7688   1.663   4.520   4.936
 2336SOL    HW2 7689   1.660   4.669   4.908
 2337SOL     OW 7690   1.217   4.043   4.182
 2337SOL    HW1 7691   1.281   3.972   4.173
 2337SOL    HW2 7692   1.246   4.092   4.259
 2338SOL     OW 7693   0.591   4.462   4.392
 2338SOL    HW1 7694   0.629   4.549   4.377
 2338SOL    HW2 7695   0.521   4.455   4.327
 2339SOL     OW 7696   1.764   4.084   5.374
 2339SOL    HW1 7697   1.746   4.099   5.281
 2339SOL    HW2 7698   1.692   4.028   5.403
 2340SOL     OW 7699   1.745   4.657   5.236
 2340SOL    HW1 7700   1.742   4.752   5.249
 2340SOL    HW2 7701   1.729   4.646   5.142
 2341SOL     OW 7702   0.849   5.095   3.743
 2341SOL    HW1 7703   0.830   5.096   3.837
 2341SOL    HW2 7704   0.869   5.186   3.721
 2342SOL     OW 7705   0.868   4.691   4.579
 2342SOL    HW1 7706   0.917   4.619   4.620
 2342SOL    HW2 7707   0.833   4.741   4.653
 2343SOL     OW 7708   1.080   4.713   3.813
 2343SOL    HW1 7709   1.057   4.762   3.734
 2343SOL    HW2 7710   1.155   4.659   3.787
 2344SOL     OW 7711   0.220   5.026   5.578
 2344SOL    HW1 7712   0.155   4.959   5.559
 2344SOL    HW2 7713   0.216   5.037   5.673
 2345SOL     OW 7714   0.082   4.932   4.380
 2345SOL    HW1 7715   0.100   4.909   4.471
 2345SOL    HW2 7716   0.168   4.936   4.339
 2346SOL     OW 7717   0.670   5.108   5.333
 2346SOL    HW1 7718   0.594   5.073   5.380
 2346SOL    HW2 7719   0.701   5.181   5.387
 2347SOL     OW 7720   1.814   3.908   4.962
 2347SOL    HW1 7721   1.820   3.814   4.977
 2347SOL    HW2 7722   1.823   3.919   4.868
 2348SOL     OW 7723   0.434   4.160   4.248
 2348SOL    HW1 7724   0.461   4.087   4.192
 2348SOL    HW2 7725   0.387   4.118   4.320
 2349SOL     OW 7726   1.707   5.223   4.843
 2349SOL    HW1 7727   1.633   5.206   4.784
 2349SOL    HW2 7728   1.714   5.143   4.896
 2350SOL     OW 7729   0.335   4.282   5.015
 2350SOL    HW1 7730   0.388   4.223   5.068
 2350SOL    HW2 7731   0.350   4.253   4.925
 2351SOL     OW 7732   1.432   3.949   4.842
 2351SOL    HW1 7733   1.456   3.868   4.887
 2351SOL    HW2 7734   1.380   3.998   4.906
 2352SOL     OW 7735   1.009   3.743   4.868
 2352SOL    HW1 7736   0.954   3.675   4.827
 2352SOL    HW2 7737   1.096   3.705   4.870
 2353SOL     OW 7738   0.803   5.047   4.008
 2353SOL    HW1 7739   0.740   4.977   4.027
 2353SOL    HW2 7740   0.856   5.053   4.087
 2354SOL     OW 7741   0.638   0.002   5.010
 2354SOL    HW1 7742   0.643   0.057   5.088
 2354SOL    HW2 7743   0.730   5.285   4.988
 2355SOL     OW 7744   1.352   3.778   3.889
 2355SOL    HW1 7745   1.379   3.716   3.822
 2355SOL    HW2 7746   1.265   3.748   3.915
 2356SOL     OW 7747   1.297   4.184   4.406
 2356SOL    HW1 7748   1.243   4.263   4.413
 2356SOL    HW2 7749   1.293   4.145   4.493
 2357SOL     OW 7750   1.590   3.929   4.603
 2357SOL    HW1 7751   1.525   3.947   4.671
 2357SOL    HW2 7752   1.587   4.007   4.547
 2358SOL     OW 7753   0.047   4.791   4.014
 2358SOL    HW1 7754   0.137   4.761   4.005
 2358SOL    HW2 7755   0.000   4.716   4.050
 2359SOL     OW 7756   0.234   4.357   5.701
 2359SOL    HW1 7757   0.159   4.326   5.752
 2359SOL    HW2 7758   0.220   4.321   5.614
 2360SOL     OW 7759   0.241   3.999   6.576
 2360SOL    HW1 7760   0.255   3.965   6.664
 2360SOL    HW2 7761   0.157   3.962   6.549
 2361SOL     OW 7762   5.299   4.121   6.239
 2361SOL    HW1 7763   5.206   4.143   6.246
 2361SOL    HW2 7764   5.299   4.030   6.208
 2362SOL     OW 7765   0.572   4.999   6.768
 2362SOL    HW1 7766   0.493   5.005   6.714
 2362SOL    HW2 7767   0.591   5.089   6.795
 2363SOL     OW 7768   1.555   5.232   6.275
 2363SOL    HW1 7769   1.533   5.229   6.368
 2363SOL    HW2 7770   1.476   5.267   6.233
 2364SOL     OW 7771   1.130   4.422   6.288
 2364SOL    HW1 7772   1.179   4.503   6.274
 2364SOL    HW2 7773   1.083   4.437   6.370
 2365SOL     OW 7774   1.766   4.330   5.815
 2365SOL    HW1 7775   1.746   4.322   5.722
 2365SOL    HW2 7776   1.731   4.250   5.855
 2366SOL     OW 7777   0.759   4.868   6.622
 2366SOL    HW1 7778   0.691   4.897   6.683
 2366SOL    HW2 7779   0.786   4.948   6.577
 2367SOL     OW 7780   0.864   4.503   7.406
 2367SOL    HW1 7781   0.851   4.578   7.464
 2367SOL    HW2 7782   0.890   4.541   7.322
 2368SOL     OW 7783   0.686   4.728   6.235
 2368SOL    HW1 7784   0.751   4.715   6.304
 2368SOL    HW2 7785   0.618   4.782   6.275
 2369SOL     OW 7786   0.707   4.873   7.397
 2369SOL    HW1 7787   0.756   4.952   7.420
 2369SOL    HW2 7788   0.624   4.905   7.362
 2370SOL     OW 7789   0.376   5.145   6.639
 2370SOL    HW1 7790   0.282   5.153   6.626
 2370SOL    HW2 7791   0.414   5.200   6.571
 2371SOL     OW 7792   1.455   5.220   6.933
 2371SOL    HW1 7793   1.508   5.293   6.964
 2371SOL    HW2 7794   1.389   5.207   7.001
 2372SOL     OW 7795   0.450   4.125   7.081
 2372SOL    HW1 7796   0.524   4.064   7.081
 2372SOL    HW2 7797   0.373   4.068   7.089
 2373SOL     OW 7798   1.612   4.172   6.326
 2373SOL    HW1 7799   1.537   4.196   6.272
 2373SOL    HW2 7800   1.629   4.250   6.379
 2374SOL     OW 7801   1.133   5.071   7.285
 2374SOL    HW1 7802   1.166   5.070   7.374
 2374SOL    HW2 7803   1.079   4.992   7.278
 2375SOL     OW 7804   0.212   5.151   6.117
 2375SOL    HW1 7805   0.249   5.232   6.152
 2375SOL    HW2 7806   0.134   5.135   6.170
 2376SOL     OW 7807   0.251   4.800   6.462
 2376SOL    HW1 7808   0.263   4.714   6.502
 2376SOL    HW2 7809   0.196   4.848   6.523
 2377SOL     OW 7810   0.584   4.706   5.720
 2377SOL    HW1 7811   0.631   4.754   5.651
 2377SOL    HW2 7812   0.625   4.735   5.801
 2378SOL     OW 7813   1.596   3.846   7.055
 2378SOL    HW1 7814   1.600   3.927   7.003
 2378SOL    HW2 7815   1.583   3.876   7.145
 2379SOL     OW 7816   0.126   4.357   6.164
 2379SOL    HW1 7817   0.088   4.274   6.194
 2379SOL    HW2 7818   0.099   4.421   6.229
 2380SOL     OW 7819   5.299   0.000   5.669
 2380SOL    HW1 7820   0.016   5.212   5.703
 2380SOL    HW2 7821   0.025   0.059   5.740
 2381SOL     OW 7822   1.689   4.642   6.225
 2381SOL    HW1 7823   1.773   4.601   6.206
 2381SOL    HW2 7824   1.668   4.693   6.147
 2382SOL     OW 7825   1.645   4.831   6.016
 2382SOL    HW1 7826   1.730   4.837   5.972
 2382SOL    HW2 7827   1.651   4.892   6.089
 2383SOL     OW 7828   0.130   4.470   7.175
 2383SOL    HW1 7829   0.224   4.485   7.176
 2383SOL    HW2 7830   0.091   4.557   7.184
 2384SOL     OW 7831   0.626   5.095   6.320
 2384SOL    HW1 7832   0.569   5.019   6.321
 2384SOL    HW2 7833   0.600   5.143   6.241
 2385SOL     OW 7834   1.289   4.955   7.012
 2385SOL    HW1 7835   1.324   4.890   6.951
 2385SOL    HW2 7836   1.348   4.952   7.087
 2386SOL     OW 7837   0.821   3.722   6.095
 2386SOL    HW1 7838   0.861   3.807   6.076
 2386SOL    HW2 7839   0.728   3.741   6.101
 2387SOL     OW 7840   0.178   4.669   6.867
 2387SOL    HW1 7841   0.268   4.639   6.853
 2387SOL    HW2 7842   0.134   4.652   6.783
 2388SOL     OW 7843   1.531   4.718   5.783
 2388SOL    HW1 7844   1.461   4.660   5.814
 2388SOL    HW2 7845   1.572   4.752   5.862
 2389SOL     OW 7846   0.335   3.976   7.400
 2389SOL    HW1 7847   0.383   4.058   7.412
 2389SOL    HW2 7848   0.248   3.994   7.436
 2390SOL     OW 7849   1.475   5.146   6.548
 2390SOL    HW1 7850   1.403   5.158   6.609
 2390SOL    HW2 7851   1.463   5.058   6.514
 2391SOL     OW 7852   0.596   4.446   5.851
 2391SOL    HW1 7853   0.604   4.526   5.800
 2391SOL    HW2 7854   0.531   4.466   5.919
 2392SOL     OW 7855   1.279   4.075   6.518
 2392SOL    HW1 7856   1.190   4.042   6.527
 2392SOL    HW2 7857   1.330   4.022   6.580
 2393SOL     OW 7858   0.792   4.341   7.038
 2393SOL    HW1 7859   0.765   4.318   7.127
 2393SOL    HW2 7860   0.751   4.275   6.982
 2394SOL     OW 7861   1.394   4.198   7.263
 2394SOL    HW1 7862   1.396   4.242   7.348
 2394SOL    HW2 7863   1.455   4.125   7.273
 2395SOL     OW 7864   0.956   4.612   7.168
 2395SOL    HW1 7865   1.010   4.541   7.133
 2395SOL    HW2 7866   0.908   4.645   7.092
 2396SOL     OW 7867   0.992   4.137   6.825
 2396SOL    HW1 7868   0.907   4.158   6.863
 2396SOL    HW2 7869   0.971   4.090   6.745
 2397SOL     OW 7870   1.050   4.423   6.012
 2397SOL    HW1 7871   1.066   4.416   6.107
 2397SOL    HW2 7872   0.968   4.376   5.998
 2398SOL     OW 7873   0.073   4.510   6.397
 2398SOL    HW1 7874   0.155   4.515   6.446
 2398SOL    HW2 7875   0.059   4.598   6.363
 2399SOL     OW 7876   0.891   4.072   5.780
 2399SOL    HW1 7877   0.932   4.133   5.719
 2399SOL    HW2 7878   0.907   3.986   5.742
 2400SOL     OW 7879   1.710   4.301   7.415
 2400SOL    HW1 7880   1.672   4.375   7.368
 2400SOL    HW2 7881   1.736   4.239   7.347
 2401SOL     OW 7882   1.376   4.864   6.126
 2401SOL    HW1 7883   1.457   4.850   6.077
 2401SOL    HW2 7884   1.326   4.925   6.072
 2402SOL     OW 7885   0.555   3.908   6.479
 2402SOL    HW1 7886   0.552   3.935   6.571
 2402SOL    HW2 7887   0.551   3.989   6.429
 2403SOL     OW 7888   1.024   5.170   6.056
 2403SOL    HW1 7889   0.945   5.225   6.049
 2403SOL    HW2 7890   1.038   5.160   6.150
 2404SOL     OW 7891   1.800   4.782   6.452
 2404SOL    HW1 7892   1.742   4.765   6.377
 2404SOL    HW2 7893   1.740   4.788   6.527
 2405SOL     OW 7894   1.250   5.240   7.109
 2405SOL    HW1 7895   1.213   5.173   7.168
 2405SOL    HW2 7896   1.180   5.258   7.047
 2406SOL     OW 7897   0.317   4.676   5.833
 2406SOL    HW1 7898   0.399   4.699   5.789
 2406SOL    HW2 7899   0.293   4.591   5.796
 2407SOL     OW 7900   1.477   4.465   6.314
 2407SOL    HW1 7901   1.468   4.421   6.398
 2407SOL    HW2 7902   1.555   4.520   6.324
 2408SOL     OW 7903   0.462   4.988   7.328
 2408SOL    HW1 7904   0.437   4.991   7.236
 2408SOL    HW2 7905   0.380   4.988   7.377
 2409SOL     OW 7906   1.071   0.181   5.794
 2409SOL    HW1 7907   1.078   0.108   5.855
 2409SOL    HW2 7908   1.109   0.150   5.713
 2410SOL     OW 7909   0.204   4.006   7.084
 2410SOL    HW1 7910   0.125   4.056   7.067
 2410SOL    HW2 7911   0.174   3.927   7.129
 2411SOL     OW 7912   1.623   5.100   5.692
 2411SOL    HW1 7913   1.618   5.178   5.637
 2411SOL    HW2 7914   1.555   5.042   5.659
 2412SOL     OW 7915   1.401   3.832   6.018
 2412SOL    HW1 7916   1.391   3.807   5.926
 2412SOL    HW2 7917   1.496   3.838   6.030
 2413SOL     OW 7918   0.386   4.420   6.065
 2413SOL    HW1 7919   0.415   4.329   6.074
 2413SOL    HW2 7920   0.293   4.417   6.086
 2414SOL     OW 7921   1.536   3.949   7.312
 2414SOL    HW1 7922   1.545   3.971   7.405
 2414SOL    HW2 7923   1.468   3.882   7.309
 2415SOL     OW 7924   0.632   3.847   5.692
 2415SOL    HW1 7925   0.704   3.785   5.703
 2415SOL    HW2 7926   0.584   3.815   5.615
 2416SOL     OW 7927   0.766   4.000   7.339
 2416SOL    HW1 7928   0.842   3.941   7.342
 2416SOL    HW2 7929   0.722   3.988   7.422
 2417SOL     OW 7930   1.341   4.313   7.018
 2417SOL    HW1 7931   1.372   4.281   7.103
 2417SOL    HW2 7932   1.377   4.401   7.010
 2418SOL     OW 7933   0.812   5.121   6.521
 2418SOL    HW1 7934   0.893   5.105   6.472
 2418SOL    HW2 7935   0.744   5.126   6.454
 2419SOL     OW 7936   0.928   4.234   6.489
 2419SOL    HW1 7937   0.904   4.225   6.397
 2419SOL    HW2 7938   0.959   4.147   6.514
 2420SOL     OW 7939   0.559   3.785   6.083
 2420SOL    HW1 7940   0.485   3.785   6.143
 2420SOL    HW2 7941   0.549   3.865   6.031
 2421SOL     OW 7942   1.428   4.923   5.625
 2421SOL    HW1 7943   1.459   4.848   5.675
 2421SOL    HW2 7944   1.340   4.940   5.659
 2422SOL     OW 7945   0.305   3.771   5.766
 2422SOL    HW1 7946   0.367   3.835   5.730
 2422SOL    HW2 7947   0.360   3.706   5.810
 2423SOL     OW 7948   0.938   3.970   6.047
 2423SOL    HW1 7949   0.911   4.012   5.966
 2423SOL    HW2 7950   1.033   3.984   6.050
 2424SOL     OW 7951   1.080   4.404   7.046
 2424SOL    HW1 7952   1.010   4.338   7.051
 2424SOL    HW2 7953   1.161   4.354   7.039
 2425SOL     OW 7954   1.264   5.267   6.365
 2425SOL    HW1 7955   1.224   0.049   6.336
 2425SOL    HW2 7956   1.307   5.290   6.447
 2426SOL     OW 7957   0.465   4.873   6.316
 2426SOL    HW1 7958   0.397   4.853   6.380
 2426SOL    HW2 7959   0.425   4.853   6.231
 2427SOL     OW 7960   1.024   4.267   5.608
 2427SOL    HW1 7961   0.982   4.351   5.587
 2427SOL    HW2 7962   1.089   4.289   5.674
 2428SOL     OW 7963   0.087   4.269   6.984
 2428SOL    HW1 7964   0.174   4.277   6.947
 2428SOL    HW2 7965   0.079   4.345   7.042
 2429SOL     OW 7966   0.561   3.951   6.751
 2429SOL    HW1 7967   0.598   3.871   6.788
 2429SOL    HW2 7968   0.469   3.950   6.780
 2430SOL     OW 7969   0.869   4.183   6.226
 2430SOL    HW1 7970   0.822   4.237   6.162
 2430SOL    HW2 7971   0.889   4.102   6.179
 2431SOL     OW 7972   1.015   3.777   6.338
 2431SOL    HW1 7973   0.956   3.769   6.263
 2431SOL    HW2 7974   0.994   3.701   6.393
 2432SOL     OW 7975   1.436   4.890   6.445
 2432SOL    HW1 7976   1.371   4.820   6.441
 2432SOL    HW2 7977   1.462   4.903   6.354
 2433SOL     OW 7978   1.467   4.328   6.564
 2433SOL    HW1 7979   1.417   4.246   6.568
 2433SOL    HW2 7980   1.527   4.323   6.639
 2434SOL     OW 7981   1.846   4.541   5.968
 2434SOL    HW1 7982   1.902   4.489   6.026
 2434SOL    HW2 7983   1.817   4.478   5.901
 2435SOL     OW 7984   0.484   5.142   5.742
 2435SOL    HW1 7985   0.420   5.093   5.792
 2435SOL    HW2 7986   0.479   5.105   5.654
 2436SOL     OW 7987   1.669   4.987   6.233
 2436SOL    HW1 7988   1.763   4.994   6.250
 2436SOL    HW2 7989   1.635   5.075   6.250
 2437SOL     OW 7990   1.394   4.296   5.657
 2437SOL    HW1 7991   1.333   4.277   5.729
 2437SOL    HW2 7992   1.478   4.263   5.688
 2438SOL     OW 7993   0.524   3.987   5.904
 2438SOL    HW1 7994   0.568   3.939   5.834
 2438SOL    HW2 7995   0.503   4.072   5.866
 2439SOL     OW 7996   1.751   4.959   7.163
 2439SOL    HW1 7997   1.838   4.918   7.162
 2439SOL    HW2 7998   1.769   5.052   7.177
 2440SOL     OW 7999   1.065   5.075   6.918
 2440SOL    HW1 8000   0.987   5.049   6.966
 2440SOL    HW2 8001   1.137   5.035   6.966
 2441SOL     OW 8002   1.125   4.926   6.694
 2441SOL    HW1 8003   1.074   4.966   6.763
 2441SOL    HW2 8004   1.081   4.951   6.613
 2442SOL     OW 8005   1.630   4.823   6.663
 2442SOL    HW1 8006   1.625   4.884   6.736
 2442SOL    HW2 8007   1.551   4.841   6.612
 2443SOL     OW 8008   0.918   3.821   6.984
 2443SOL    HW1 8009   0.940   3.803   6.892
 2443SOL    HW2 8010   0.997   3.861   7.020
 2444SOL     OW 8011   0.984   4.838   7.312
 2444SOL    HW1 8012   0.892   4.854   7.328
 2444SOL    HW2 8013   0.986   4.762   7.254
 2445SOL     OW 8014   0.703   4.780   5.959
 2445SOL    HW1 8015   0.694   4.766   6.053
 2445SOL    HW2 8016   0.782   4.731   5.935
 2446SOL     OW 8017   0.421   4.542   6.837
 2446SOL    HW1 8018   0.489   4.548   6.904
 2446SOL    HW2 8019   0.385   4.453   6.848
 2447SOL     OW 8020   1.266   4.102   6.860
 2447SOL    HW1 8021   1.298   4.179   6.906
 2447SOL    HW2 8022   1.176   4.124   6.837
 2448SOL     OW 8023   0.114   5.289   6.904
 2448SOL    HW1 8024   0.053   0.051   6.945
 2448SOL    HW2 8025   0.190   5.290   6.962
 2449SOL     OW 8026   0.345   4.827   6.074
 2449SOL    HW1 8027   0.352   4.906   6.020
 2449SOL    HW2 8028   0.354   4.755   6.012
 2450SOL     OW 8029   0.555   4.261   6.445
 2450SOL    HW1 8030   0.571   4.319   6.371
 2450SOL    HW2 8031   0.619   4.288   6.511
 2451SOL     OW 8032   1.260   5.076   5.971
 2451SOL    HW1 8033   1.316   5.143   6.010
 2451SOL    HW2 8034   1.172   5.098   6.001
 2452SOL     OW 8035   1.268   5.181   6.727
 2452SOL    HW1 8036   1.328   5.194   6.802
 2452SOL    HW2 8037   1.224   5.098   6.746
 2453SOL     OW 8038   1.582   4.348   6.064
 2453SOL    HW1 8039   1.536   4.402   6.128
 2453SOL    HW2 8040   1.628   4.410   6.007
 2454SOL     OW 8041   0.381   5.231   6.902
 2454SOL    HW1 8042   0.362   5.192   6.817
 2454SOL    HW2 8043   0.473   5.256   6.898
 2455SOL     OW 8044   0.413   4.467   7.188
 2455SOL    HW1 8045   0.473   4.513   7.130
 2455SOL    HW2 8046   0.453   4.381   7.200
 2456SOL     OW 8047   1.600   4.503   7.268
 2456SOL    HW1 8048   1.514   4.543   7.259
 2456SOL    HW2 8049   1.652   4.544   7.199
 2457SOL     OW 8050   0.996   3.846   7.341
 2457SOL    HW1 8051   1.051   3.918   7.311
 2457SOL    HW2 8052   1.045   3.767   7.316
 2458SOL     OW 8053   0.498   3.766   7.333
 2458SOL    HW1 8054   0.457   3.711   7.266
 2458SOL    HW2 8055   0.438   3.839   7.345
 2459SOL     OW 8056   0.585   4.597   6.618
 2459SOL    HW1 8057   0.614   4.688   6.615
 2459SOL    HW2 8058   0.529   4.591   6.695
 2460SOL     OW 8059   1.359   4.582   6.616
 2460SOL    HW1 8060   1.276   4.573   6.569
 2460SOL    HW2 8061   1.398   4.495   6.612
 2461SOL     OW 8062   1.206   4.253   5.854
 2461SOL    HW1 8063   1.214   4.174   5.908
 2461SOL    HW2 8064   1.163   4.317   5.910
 2462SOL     OW 8065   0.302   3.928   6.834
 2462SOL    HW1 8066   0.267   3.952   6.920
 2462SOL    HW2 8067   0.289   3.833   6.830
 2463SOL     OW 8068   0.045   5.022   6.863
 2463SOL    HW1 8069   0.075   4.972   6.939
 2463SOL    HW2 8070   0.044   5.113   6.892
 2464SOL     OW 8071   0.725   4.356   6.645
 2464SOL    HW1 8072   0.799   4.339   6.586
 2464SOL    HW2 8073   0.697   4.444   6.623
 2465SOL     OW 8074   1.734   4.684   7.437
 2465SOL    HW1 8075   1.687   4.624   7.380
 2465SOL    HW2 8076   1.677   4.697   7.512
 2466SOL     OW 8077   0.328   3.786   6.220
 2466SOL    HW1 8078   0.307   3.875   6.248
 2466SOL    HW2 8079   0.331   3.736   6.302
 2467SOL     OW 8080   1.615   4.097   5.954
 2467SOL    HW1 8081   1.643   4.034   6.020
 2467SOL    HW2 8082   1.593   4.176   6.004
 2468SOL     OW 8083   1.027   4.483   6.547
 2468SOL    HW1 8084   1.025   4.501   6.641
 2468SOL    HW2 8085   1.001   4.392   6.539
 2469SOL     OW 8086   1.854   5.214   7.171
 2469SOL    HW1 8087   1.851   5.288   7.110
 2469SOL    HW2 8088   1.924   5.237   7.233
 2470SOL     OW 8089   0.354   4.641   7.393
 2470SOL    HW1 8090   0.436   4.660   7.439
 2470SOL    HW2 8091   0.378   4.577   7.326
 2471SOL     OW 8092   1.530   3.997   5.713
 2471SOL    HW1 8093   1.465   3.932   5.740
 2471SOL    HW2 8094   1.563   4.033   5.796
 2472SOL     OW 8095   1.293   4.551   5.618
 2472SOL    HW1 8096   1.335   4.465   5.621
 2472SOL    HW2 8097   1.324   4.590   5.536
 2473SOL     OW 8098   1.059   5.077   6.414
 2473SOL    HW1 8099   1.064   4.992   6.370
 2473SOL    HW2 8100   1.145   5.116   6.400
 2474SOL     OW 8101   0.315   4.534   6.535
 2474SOL    HW1 8102   0.409   4.551   6.531
 2474SOL    HW2 8103   0.308   4.444   6.568
 2475SOL     OW 8104   0.336   4.249   6.601
 2475SOL    HW1 8105   0.300   4.161   6.586
 2475SOL    HW2 8106   0.410   4.255   6.541
 2476SOL     OW 8107   1.135   4.101   7.266
 2476SOL    HW1 8108   1.088   4.155   7.329
 2476SOL    HW2 8109   1.222   4.138   7.262
 2477SOL     OW 8110   1.161   3.927   7.055
 2477SOL    HW1 8111   1.150   3.990   7.127
 2477SOL    HW2 8112   1.200   3.978   6.984
 2478SOL     OW 8113   0.002   5.049   5.794
 2478SOL    HW1 8114   5.225   5.040   5.739
 2478SOL    HW2 8115   0.013   4.964   5.835
 2479SOL     OW 8116   0.984   4.517   6.813
 2479SOL    HW1 8117   1.039   4.493   6.888
 2479SOL    HW2 8118   0.899   4.479   6.833
 2480SOL     OW 8119   0.033   4.283   6.701
 2480SOL    HW1 8120   0.120   4.258   6.668
 2480SOL    HW2 8121   0.038   4.266   6.795
 2481SOL     OW 8122   0.176   4.236   7.302
 2481SOL    HW1 8123   0.239   4.199   7.241
 2481SOL    HW2 8124   0.145   4.316   7.259
 2482SOL     OW 8125   1.376   4.664   7.245
 2482SOL    HW1 8126   1.397   4.757   7.243
 2482SOL    HW2 8127   1.373   4.638   7.153
 2483SOL     OW 8128   0.816   4.293   5.944
 2483SOL    HW1 8129   0.820   4.218   5.885
 2483SOL    HW2 8130   0.742   4.345   5.913
 2484SOL     OW 8131   1.642   4.325   6.773
 2484SOL    HW1 8132   1.632   4.266   6.847
 2484SOL    HW2 8133   1.729   4.305   6.739
 2485SOL     OW 8134   0.210   5.279   7.319
 2485SOL    HW1 8135   0.167   0.020   7.394
 2485SOL    HW2 8136   0.215   5.186   7.341
 2486SOL     OW 8137   0.699   4.175   6.847
 2486SOL    HW1 8138   0.647   4.101   6.817
 2486SOL    HW2 8139   0.696   4.238   6.774
 2487SOL     OW 8140   0.466   4.217   5.772
 2487SOL    HW1 8141   0.525   4.289   5.793
 2487SOL    HW2 8142   0.380   4.259   5.761
 2488SOL     OW 8143   0.152   4.861   7.058
 2488SOL    HW1 8144   0.148   4.811   7.139
 2488SOL    HW2 8145   0.162   4.795   6.989
 2489SOL     OW 8146   1.328   4.770   6.809
 2489SOL    HW1 8147   1.351   4.708   6.740
 2489SOL    HW2 8148   1.256   4.822   6.772
 2490SOL     OW 8149   1.310   4.581   5.893
 2490SOL    HW1 8150   1.234   4.550   5.942
 2490SOL    HW2 8151   1.286   4.567   5.801
 2491SOL     OW 8152   0.076   4.921   6.616
 2491SOL    HW1 8153   0.065   4.961   6.702
 2491SOL    HW2 8154   5.290   4.926   6.576
 2492SOL     OW 8155   0.750   0.038   7.296
 2492SOL    HW1 8156   0.658   0.062   7.304
 2492SOL    HW2 8157   0.773   0.062   7.206
 2493SOL     OW 8158   1.719   3.869   6.096
 2493SOL    HW1 8159   1.792   3.855   6.036
 2493SOL    HW2 8160   1.703   3.784   6.137
 2494SOL     OW 8161   1.277   4.649   6.257
 2494SOL    HW1 8162   1.350   4.588   6.264
 2494SOL    HW2 8163   1.311   4.721   6.205
 2495SOL     OW 8164   0.820   4.994   7.009
 2495SOL    HW1 8165   0.790   5.030   7.092
 2495SOL    HW2 8166   0.744   5.002   6.951
 2496SOL     OW 8167   1.840   3.897   6.553
 2496SOL    HW1 8168   1.869   3.810   6.526
 2496SOL    HW2 8169   1.754   3.907   6.513
 2497SOL     OW 8170   0.272   4.041   6.304
 2497SOL    HW1 8171   0.188   4.080   6.282
 2497SOL    HW2 8172   0.270   4.030   6.399
 2498SOL     OW 8173   0.824   4.728   6.957
 2498SOL    HW1 8174   0.869   4.721   6.873
 2498SOL    HW2 8175   0.828   4.821   6.979
 2499SOL     OW 8176   0.915   4.635   5.876
 2499SOL    HW1 8177   0.977   4.668   5.810
 2499SOL    HW2 8178   0.963   4.565   5.921
 2500SOL     OW 8179   0.365   5.028   7.086
 2500SOL    HW1 8180   0.365   5.099   7.021
 2500SOL    HW2 8181   0.291   4.973   7.062
 2501SOL     OW 8182   1.612   5.004   6.868
 2501SOL    HW1 8183   1.669   4.998   6.945
 2501SOL    HW2 8184   1.550   5.074   6.890
 2502SOL     OW 8185   1.053   4.833   6.296
 2502SOL    HW1 8186   0.981   4.781   6.333
 2502SOL    HW2 8187   1.114   4.767   6.262
 2503SOL     OW 8188   1.021   3.964   6.552
 2503SOL    HW1 8189   1.016   3.916   6.469
 2503SOL    HW2 8190   1.015   3.897   6.619
 2504SOL     OW 8191   1.721   4.116   6.967
 2504SOL    HW1 8192   1.793   4.179   6.965
 2504SOL    HW2 8193   1.751   4.044   6.911
 2505SOL     OW 8194   0.259   5.060   5.871
 2505SOL    HW1 8195   0.166   5.064   5.848
 2505SOL    HW2 8196   0.262   5.097   5.960
 2506SOL     OW 8197   0.116   4.742   7.305
 2506SOL    HW1 8198   0.043   4.705   7.357
 2506SOL    HW2 8199   0.195   4.708   7.348
 2507SOL     OW 8200   0.673   3.920   7.085
 2507SOL    HW1 8201   0.757   3.901   7.043
 2507SOL    HW2 8202   0.696   3.950   7.173
 2508SOL     OW 8203   0.081   4.076   5.627
 2508SOL    HW1 8204   0.002   4.026   5.603
 2508SOL    HW2 8205   0.098   4.132   5.552
 2509SOL     OW 8206   1.431   4.582   6.987
 2509SOL    HW1 8207   1.382   4.643   6.931
 2509SOL    HW2 8208   1.520   4.585   6.953
 2510SOL     OW 8209   0.055   3.857   5.828
 2510SOL    HW1 8210   0.054   3.953   5.823
 2510SOL    HW2 8211   0.146   3.833   5.809
 2511SOL     OW 8212   1.182   5.065   5.706
 2511SOL    HW1 8213   1.091   5.036   5.706
 2511SOL    HW2 8214   1.210   5.056   5.797
 2512SOL     OW 8215   0.619   4.555   7.021
 2512SOL    HW1 8216   0.675   4.631   7.004
 2512SOL    HW2 8217   0.679   4.481   7.029
 2513SOL     OW 8218   0.717   4.288   7.292
 2513SOL    HW1 8219   0.757   4.350   7.353
 2513SOL    HW2 8220   0.747   4.202   7.322
 2514SOL     OW 8221   1.472   4.924   7.218
 2514SOL    HW1 8222   1.459   4.936   7.312
 2514SOL    HW2 8223   1.566   4.937   7.205
 2515SOL     OW 8224   1.670   4.606   6.841
 2515SOL    HW1 8225   1.663   4.520   6.799
 2515SOL    HW2 8226   1.661   4.669   6.770
 2516SOL     OW 8227   1.217   4.043   6.044
 2516SOL    HW1 8228   1.281   3.972   6.035
 2516SOL    HW2 8229   1.246   4.092   6.121
 2517SOL     OW 8230   0.591   4.462   6.254
 2517SOL    HW1 8231   0.629   4.549   6.239
 2517SOL    HW2 8232   0.521   4.455   6.189
 2518SOL     OW 8233   1.763   4.085   7.237
 2518SOL    HW1 8234   1.746   4.100   7.144
 2518SOL    HW2 8235   1.692   4.028   7.265
 2519SOL     OW 8236   1.745   4.657   7.098
 2519SOL    HW1 8237   1.742   4.752   7.111
 2519SOL    HW2 8238   1.729   4.646   7.004
 2520SOL     OW 8239   0.849   5.095   5.605
 2520SOL    HW1 8240   0.830   5.096   5.698
 2520SOL    HW2 8241   0.868   5.186   5.583
 2521SOL     OW 8242   0.868   4.691   6.441
 2521SOL    HW1 8243   0.917   4.619   6.482
 2521SOL    HW2 8244   0.833   4.741   6.515
 2522SOL     OW 8245   1.080   4.713   5.675
 2522SOL    HW1 8246   1.057   4.763   5.597
 2522SOL    HW2 8247   1.155   4.659   5.649
 2523SOL     OW 8248   0.220   5.026   7.442
 2523SOL    HW1 8249   0.155   4.959   7.419
 2523SOL    HW2 8250   0.210   5.037   7.537
 2524SOL     OW 8251   0.081   4.931   6.242
 2524SOL    HW1 8252   0.100   4.909   6.333
 2524SOL    HW2 8253   0.168   4.937   6.201
 2525SOL     OW 8254   0.670   5.107   7.195
 2525SOL    HW1 8255   0.593   5.073   7.242
 2525SOL    HW2 8256   0.700   5.180   7.248
 2526SOL     OW 8257   1.813   3.909   6.824
 2526SOL    HW1 8258   1.823   3.815   6.839
 2526SOL    HW2 8259   1.822   3.919   6.729
 2527SOL     OW 8260   0.434   4.160   6.110
 2527SOL    HW1 8261   0.461   4.087   6.054
 2527SOL    HW2 8262   0.387   4.118   6.182
 2528SOL     OW 8263   1.707   5.223   6.705
 2528SOL    HW1 8264   1.633   5.207   6.646
 2528SOL    HW2 8265   1.714   5.143   6.758
 2529SOL     OW 8266   0.335   4.282   6.877
 2529SOL    HW1 8267   0.388   4.223   6.930
 2529SOL    HW2 8268   0.349   4.253   6.787
 2530SOL     OW 8269   1.432   3.949   6.704
 2530SOL    HW1 8270   1.458   3.869   6.751
 2530SOL    HW2 8271   1.380   3.998   6.768
 2531SOL     OW 8272   1.009   3.743   6.729
 2531SOL    HW1 8273   0.954   3.675   6.690
 2531SOL    HW2 8274   1.097   3.706   6.731
 2532SOL     OW 8275   0.803   5.047   5.870
 2532SOL    HW1 8276   0.740   4.977   5.889
 2532SOL    HW2 8277   0.856   5.053   5.949
 2533SOL     OW 8278   0.638   0.002   6.872
 2533SOL    HW1 8279   0.643   0.057   6.951
 2533SOL    HW2 8280   0.730   5.285   6.850
 2534SOL     OW 8281   1.352   3.778   5.751
 2534SOL    HW1 8282   1.379   3.716   5.683
 2534SOL    HW2 8283   1.265   3.748   5.778
 2535SOL     OW 8284   1.297   4.184   6.268
 2535SOL    HW1 8285   1.243   4.263   6.275
 2535SOL    HW2 8286   1.293   4.144   6.355
 2536SOL     OW 8287   1.587   3.927   6.463
 2536SOL    HW1 8288   1.525   3.947   6.534
 2536SOL    HW2 8289   1.586   4.005   6.408
 2537SOL     OW 8290   0.047   4.791   5.876
 2537SOL    HW1 8291   0.137   4.761   5.867
 2537SOL    HW2 8292   0.000   4.716   5.912
 2538SOL     OW 8293   0.230   4.356   7.566
 2538SOL    HW1 8294   0.154   4.317   7.610
 2538SOL    HW2 8295   0.223   4.324   7.475
 2539SOL     OW 8296   1.766   4.323   7.680
 2539SOL    HW1 8297   1.747   4.318   7.586
 2539SOL    HW2 8298   1.726   4.245   7.717
 2540SOL     OW 8299   0.279   0.133   7.957
 2540SOL    HW1 8300   0.244   0.212   7.998
 2540SOL    HW2 8301   0.287   0.156   7.864
 2541SOL     OW 8302   0.225   5.157   7.990
 2541SOL    HW1 8303   0.231   5.252   7.995
 2541SOL    HW2 8304   0.157   5.134   8.053
 2542SOL     OW 8305   0.584   4.707   7.580
 2542SOL    HW1 8306   0.630   4.755   7.511
 2542SOL    HW2 8307   0.625   4.736   7.661
 2543SOL     OW 8308   0.003   5.298   7.524
 2543SOL    HW1 8309   0.018   5.211   7.562
 2543SOL    HW2 8310   0.019   0.058   7.597
 2544SOL     OW 8311   1.683   4.593   8.036
 2544SOL    HW1 8312   1.764   4.603   0.005
 2544SOL    HW2 8313   1.672   4.676   7.990
 2545SOL     OW 8314   1.655   4.826   7.875
 2545SOL    HW1 8315   1.743   4.845   7.843
 2545SOL    HW2 8316   1.637   4.895   7.938
 2546SOL     OW 8317   0.800   3.718   7.938
 2546SOL    HW1 8318   0.849   3.799   7.923
 2546SOL    HW2 8319   0.709   3.747   7.949
 2547SOL     OW 8320   1.532   4.720   7.647
 2547SOL    HW1 8321   1.466   4.659   7.680
 2547SOL    HW2 8322   1.575   4.754   7.725
 2548SOL     OW 8323   0.589   4.448   7.708
 2548SOL    HW1 8324   0.597   4.529   7.658
 2548SOL    HW2 8325   0.534   4.471   7.782
 2549SOL     OW 8326   0.054   4.540   0.204
 2549SOL    HW1 8327   0.126   4.490   0.166
 2549SOL    HW2 8328   0.031   4.605   0.137
 2550SOL     OW 8329   0.880   4.070   7.637
 2550SOL    HW1 8330   0.926   4.130   7.579
 2550SOL    HW2 8331   0.914   3.983   7.614
 2551SOL     OW 8332   0.319   4.673   7.693
 2551SOL    HW1 8333   0.400   4.698   7.650
 2551SOL    HW2 8334   0.295   4.589   7.653
 2552SOL     OW 8335   1.085   0.193   7.648
 2552SOL    HW1 8336   1.066   0.126   7.715
 2552SOL    HW2 8337   1.101   0.143   7.568
 2553SOL     OW 8338   1.626   5.100   7.550
 2553SOL    HW1 8339   1.611   5.180   7.501
 2553SOL    HW2 8340   1.557   5.041   7.521
 2554SOL     OW 8341   1.415   3.854   7.864
 2554SOL    HW1 8342   1.402   3.820   7.776
 2554SOL    HW2 8343   1.509   3.851   7.878
 2555SOL     OW 8344   0.380   4.424   7.922
 2555SOL    HW1 8345   0.401   4.330   7.926
 2555SOL    HW2 8346   0.287   4.428   7.944
 2556SOL     OW 8347   0.626   3.844   7.559
 2556SOL    HW1 8348   0.704   3.789   7.568
 2556SOL    HW2 8349   0.584   3.813   7.479
 2557SOL     OW 8350   0.527   3.797   7.960
 2557SOL    HW1 8351   0.441   3.803   8.001
 2557SOL    HW2 8352   0.528   3.868   7.896
 2558SOL     OW 8353   1.428   4.924   7.488
 2558SOL    HW1 8354   1.459   4.849   7.539
 2558SOL    HW2 8355   1.340   4.942   7.521
 2559SOL     OW 8356   0.306   3.768   7.620
 2559SOL    HW1 8357   0.368   3.832   7.586
 2559SOL    HW2 8358   0.360   3.705   7.667
 2560SOL     OW 8359   0.944   3.949   7.911
 2560SOL    HW1 8360   0.899   4.014   7.857
 2560SOL    HW2 8361   1.035   3.979   7.914
 2561SOL     OW 8362   0.448   4.883   0.091
 2561SOL    HW1 8363   0.375   4.900   0.151
 2561SOL    HW2 8364   0.405   4.863   0.007
 2562SOL     OW 8365   1.026   4.267   7.466
 2562SOL    HW1 8366   0.981   4.350   7.449
 2562SOL    HW2 8367   1.087   4.287   7.537
 2563SOL     OW 8368   1.868   4.542   7.802
 2563SOL    HW1 8369   1.872   4.509   7.892
 2563SOL    HW2 8370   1.829   4.471   7.752
 2564SOL     OW 8371   0.479   5.146   7.603
 2564SOL    HW1 8372   0.417   5.095   7.657
 2564SOL    HW2 8373   0.478   5.102   7.518
 2565SOL     OW 8374   1.394   4.296   7.519
 2565SOL    HW1 8375   1.333   4.276   7.591
 2565SOL    HW2 8376   1.478   4.262   7.549
 2566SOL     OW 8377   0.527   3.989   7.771
 2566SOL    HW1 8378   0.569   3.939   7.702
 2566SOL    HW2 8379   0.504   4.072   7.729
 2567SOL     OW 8380   0.705   4.780   7.815
 2567SOL    HW1 8381   0.691   4.771   7.910
 2567SOL    HW2 8382   0.786   4.732   7.799
 2568SOL     OW 8383   0.348   4.818   7.929
 2568SOL    HW1 8384   0.345   4.902   7.883
 2568SOL    HW2 8385   0.350   4.752   7.859
 2569SOL     OW 8386   1.226   5.114   7.831
 2569SOL    HW1 8387   1.311   5.125   7.874
 2569SOL    HW2 8388   1.175   5.061   7.892
 2570SOL     OW 8389   1.587   4.353   7.921
 2570SOL    HW1 8390   1.572   4.412   7.995
 2570SOL    HW2 8391   1.628   4.408   7.855
 2571SOL     OW 8392   1.204   4.251   7.716
 2571SOL    HW1 8393   1.208   4.167   7.762
 2571SOL    HW2 8394   1.177   4.314   7.783
 2572SOL     OW 8395   1.618   4.102   7.815
 2572SOL    HW1 8396   1.639   4.035   7.880
 2572SOL    HW2 8397   1.592   4.178   7.867
 2573SOL     OW 8398   1.530   3.999   7.575
 2573SOL    HW1 8399   1.465   3.933   7.601
 2573SOL    HW2 8400   1.563   4.034   7.658
 2574SOL     OW 8401   1.295   4.552   7.482
 2574SOL    HW1 8402   1.336   4.465   7.483
 2574SOL    HW2 8403   1.325   4.591   7.399
 2575SOL     OW 8404   0.004   5.052   7.655
 2575SOL    HW1 8405   5.223   5.046   7.604
 2575SOL    HW2 8406   0.016   4.965   7.692
 2576SOL     OW 8407   0.837   4.321   7.763
 2576SOL    HW1 8408   0.829   4.230   7.734
 2576SOL    HW2 8409   0.747   4.354   7.763
 2577SOL     OW 8410   0.463   4.217   7.639
 2577SOL    HW1 8411   0.523   4.289   7.654
 2577SOL    HW2 8412   0.378   4.258   7.626
 2578SOL     OW 8413   1.309   4.578   7.755
 2578SOL    HW1 8414   1.222   4.574   7.795
 2578SOL    HW2 8415   1.294   4.566   7.661
 2579SOL     OW 8416   1.712   3.869   7.948
 2579SOL    HW1 8417   1.789   3.861   7.893
 2579SOL    HW2 8418   1.713   3.791   8.004
 2580SOL     OW 8419   0.927   4.636   7.756
 2580SOL    HW1 8420   0.980   4.661   7.680
 2580SOL    HW2 8421   0.923   4.540   7.752
 2581SOL     OW 8422   0.259   5.062   7.744
 2581SOL    HW1 8423   0.166   5.068   7.720
 2581SOL    HW2 8424   0.264   5.100   7.831
 2582SOL     OW 8425   0.079   4.068   7.489
 2582SOL    HW1 8426   5.297   4.026   7.462
 2582SOL    HW2 8427   0.099   4.129   7.418
 2583SOL     OW 8428   0.080   3.860   7.736
 2583SOL    HW1 8429   0.065   3.948   7.703
 2583SOL    HW2 8430   0.153   3.826   7.685
 2584SOL     OW 8431   1.182   5.059   7.564
 2584SOL    HW1 8432   1.089   5.034   7.562
 2584SOL    HW2 8433   1.201   5.073   7.657
 2585SOL     OW 8434   1.215   4.042   7.903
 2585SOL    HW1 8435   1.288   3.981   7.892
 2585SOL    HW2 8436   1.237   4.090   7.984
 2586SOL     OW 8437   0.623   4.463   8.049
 2586SOL    HW1 8438   0.629   4.542   0.023
 2586SOL    HW2 8439   0.531   4.460   8.021
 2587SOL     OW 8440   0.851   5.094   7.465
 2587SOL    HW1 8441   0.832   5.095   7.559
 2587SOL    HW2 8442   0.867   5.186   7.444
 2588SOL     OW 8443   1.075   4.704   7.538
 2588SOL    HW1 8444   1.054   4.759   7.462
 2588SOL    HW2 8445   1.152   4.655   7.511
 2589SOL     OW 8446   0.393   4.154   7.978
 2589SOL    HW1 8447   0.439   4.095   7.917
 2589SOL    HW2 8448   0.434   4.137   8.063
 2590SOL     OW 8449   0.805   5.047   7.730
 2590SOL    HW1 8450   0.745   4.975   7.749
 2590SOL    HW2 8451   0.828   5.082   7.816
 2591SOL     OW 8452   1.352   3.777   7.610
 2591SOL    HW1 8453   1.380   3.712   7.546
 2591SOL    HW2 8454   1.266   3.746   7.638
 2592SOL     OW 8455   0.048   4.793   7.725
 2592SOL    HW1 8456   0.138   4.760   7.724
 2592SOL    HW2 8457   0.000   4.730   7.779
 2593SOL     OW 8458   2.081   0.625   0.119
 2593SOL    HW1 8459   2.002   0.591   0.161
 2593SOL    HW2 8460   2.106   0.558   0.056
 2594SOL     OW 8461   2.080   0.283   0.993
 2594SOL    HW1 8462   2.110   0.249   1.077
 2594SOL    HW2 8463   1.995   0.242   0.978
 2595SOL     OW 8464   1.867   0.385   0.638
 2595SOL    HW1 8465   1.782   0.407   0.678
 2595SOL    HW2 8466   1.849   0.307   0.586
 2596SOL     OW 8467   2.429   1.286   1.174
 2596SOL    HW1 8468   2.341   1.289   1.136
 2596SOL    HW2 8469   2.443   1.374   1.207
 2597SOL     OW 8470   3.422   1.512   0.707
 2597SOL    HW1 8471   3.379   1.492   0.790
 2597SOL    HW2 8472   3.350   1.515   0.643
 2598SOL     OW 8473   2.993   0.698   0.703
 2598SOL    HW1 8474   3.042   0.779   0.688
 2598SOL    HW2 8475   2.945   0.713   0.785
 2599SOL     OW 8476   3.633   0.600   0.231
 2599SOL    HW1 8477   3.590   0.603   0.146
 2599SOL    HW2 8478   3.591   0.526   0.276
 2600SOL     OW 8479   2.619   1.143   1.039
 2600SOL    HW1 8480   2.550   1.177   1.096
 2600SOL    HW2 8481   2.654   1.220   0.995
 2601SOL     OW 8482   2.726   0.779   1.822
 2601SOL    HW1 8483   2.715   0.851   1.884
 2601SOL    HW2 8484   2.751   0.822   1.740
 2602SOL     OW 8485   2.547   1.004   0.650
 2602SOL    HW1 8486   2.612   0.991   0.718
 2602SOL    HW2 8487   2.478   1.055   0.691
 2603SOL     OW 8488   2.571   1.151   1.811
 2603SOL    HW1 8489   2.619   1.230   1.837
 2603SOL    HW2 8490   2.488   1.184   1.777
 2604SOL     OW 8491   2.192   1.427   1.068
 2604SOL    HW1 8492   2.120   1.389   1.017
 2604SOL    HW2 8493   2.243   1.477   1.004
 2605SOL     OW 8494   3.323   1.499   1.353
 2605SOL    HW1 8495   3.372   1.581   1.362
 2605SOL    HW2 8496   3.264   1.497   1.428
 2606SOL     OW 8497   2.305   0.398   1.488
 2606SOL    HW1 8498   2.380   0.339   1.485
 2606SOL    HW2 8499   2.230   0.341   1.502
 2607SOL     OW 8500   3.473   0.452   0.738
 2607SOL    HW1 8501   3.395   0.474   0.687
 2607SOL    HW2 8502   3.492   0.530   0.790
 2608SOL     OW 8503   2.082   1.715   0.472
 2608SOL    HW1 8504   2.104   1.791   0.526
 2608SOL    HW2 8505   2.155   1.705   0.412
 2609SOL     OW 8506   2.998   1.341   1.692
 2609SOL    HW1 8507   3.039   1.337   1.779
 2609SOL    HW2 8508   2.946   1.262   1.686
 2610SOL     OW 8509   2.089   1.441   0.531
 2610SOL    HW1 8510   2.074   1.535   0.536
 2610SOL    HW2 8511   2.030   1.404   0.596
 2611SOL     OW 8512   2.118   1.090   0.891
 2611SOL    HW1 8513   2.115   1.004   0.932
 2611SOL    HW2 8514   2.060   1.144   0.944
 2612SOL     OW 8515   2.474   1.791   1.428
 2612SOL    HW1 8516   2.393   1.773   1.476
 2612SOL    HW2 8517   2.497   1.880   1.454
 2613SOL     OW 8518   2.491   0.961   0.132
 2613SOL    HW1 8519   2.442   1.039   0.106
 2613SOL    HW2 8520   2.541   0.989   0.209
 2614SOL     OW 8521   3.448   0.134   1.457
 2614SOL    HW1 8522   3.468   0.219   1.418
 2614SOL    HW2 8523   3.447   0.151   1.551
 2615SOL     OW 8524   1.976   0.651   0.561
 2615SOL    HW1 8525   1.948   0.562   0.582
 2615SOL    HW2 8526   1.968   0.698   0.644
 2616SOL     OW 8527   3.706   1.759   0.333
 2616SOL    HW1 8528   3.770   1.729   0.398
 2616SOL    HW2 8529   3.732   1.849   0.315
 2617SOL     OW 8530   1.890   1.596   0.111
 2617SOL    HW1 8531   1.877   1.508   0.145
 2617SOL    HW2 8532   1.874   1.653   0.187
 2618SOL     OW 8533   3.551   0.919   0.643
 2618SOL    HW1 8534   3.633   0.876   0.621
 2618SOL    HW2 8535   3.528   0.970   0.565
 2619SOL     OW 8536   3.508   1.105   0.434
 2619SOL    HW1 8537   3.588   1.120   0.384
 2619SOL    HW2 8538   3.513   1.167   0.507
 2620SOL     OW 8539   1.984   0.743   1.585
 2620SOL    HW1 8540   2.076   0.767   1.595
 2620SOL    HW2 8541   1.937   0.826   1.593
 2621SOL     OW 8542   2.475   1.385   0.735
 2621SOL    HW1 8543   2.429   1.301   0.744
 2621SOL    HW2 8544   2.459   1.411   0.644
 2622SOL     OW 8545   3.151   1.239   1.424
 2622SOL    HW1 8546   3.184   1.171   1.364
 2622SOL    HW2 8547   3.208   1.232   1.500
 2623SOL     OW 8548   2.672   0.025   0.528
 2623SOL    HW1 8549   2.701   0.112   0.499
 2623SOL    HW2 8550   2.577   0.030   0.522
 2624SOL     OW 8551   2.053   0.968   1.270
 2624SOL    HW1 8552   2.137   0.925   1.255
 2624SOL    HW2 8553   1.989   0.911   1.225
 2625SOL     OW 8554   3.374   1.005   0.211
 2625SOL    HW1 8555   3.312   0.940   0.243
 2625SOL    HW2 8556   3.425   1.030   0.288
 2626SOL     OW 8557   3.047   1.805   1.621
 2626SOL    HW1 8558   3.060   1.864   1.546
 2626SOL    HW2 8559   3.063   1.718   1.586
 2627SOL     OW 8560   2.188   0.265   1.810
 2627SOL    HW1 8561   2.240   0.341   1.836
 2627SOL    HW2 8562   2.102   0.280   1.849
 2628SOL     OW 8563   3.328   1.420   0.952
 2628SOL    HW1 8564   3.260   1.434   1.017
 2628SOL    HW2 8565   3.316   1.328   0.925
 2629SOL     OW 8566   3.521   1.738   0.581
 2629SOL    HW1 8567   3.501   1.710   0.492
 2629SOL    HW2 8568   3.496   1.664   0.636
 2630SOL     OW 8569   2.460   0.715   0.282
 2630SOL    HW1 8570   2.478   0.791   0.227
 2630SOL    HW2 8571   2.394   0.746   0.345
 2631SOL     OW 8572   3.140   0.345   0.931
 2631SOL    HW1 8573   3.049   0.317   0.943
 2631SOL    HW2 8574   3.190   0.296   0.996
 2632SOL     OW 8575   3.448   1.671   0.319
 2632SOL    HW1 8576   3.539   1.701   0.312
 2632SOL    HW2 8577   3.422   1.653   0.228
 2633SOL     OW 8578   2.656   0.618   1.451
 2633SOL    HW1 8579   2.629   0.597   1.540
 2633SOL    HW2 8580   2.613   0.552   1.396
 2634SOL     OW 8581   3.257   0.475   1.678
 2634SOL    HW1 8582   3.258   0.519   1.763
 2634SOL    HW2 8583   3.320   0.404   1.687
 2635SOL     OW 8584   2.818   0.888   1.582
 2635SOL    HW1 8585   2.872   0.817   1.547
 2635SOL    HW2 8586   2.770   0.921   1.506
 2636SOL     OW 8587   2.856   0.417   1.236
 2636SOL    HW1 8588   2.771   0.438   1.276
 2636SOL    HW2 8589   2.833   0.367   1.157
 2637SOL     OW 8590   2.914   0.698   0.427
 2637SOL    HW1 8591   2.928   0.691   0.522
 2637SOL    HW2 8592   2.831   0.652   0.412
 2638SOL     OW 8593   1.951   0.821   0.776
 2638SOL    HW1 8594   2.032   0.814   0.826
 2638SOL    HW2 8595   1.908   0.899   0.811
 2639SOL     OW 8596   1.989   1.846   1.577
 2639SOL    HW1 8597   1.989   1.826   1.671
 2639SOL    HW2 8598   1.897   1.840   1.551
 2640SOL     OW 8599   2.748   0.359   0.202
 2640SOL    HW1 8600   2.791   0.406   0.131
 2640SOL    HW2 8601   2.730   0.272   0.166
 2641SOL     OW 8602   3.571   0.576   1.828
 2641SOL    HW1 8603   3.533   0.650   1.780
 2641SOL    HW2 8604   3.599   0.515   1.760
 2642SOL     OW 8605   3.238   1.142   0.542
 2642SOL    HW1 8606   3.316   1.128   0.488
 2642SOL    HW2 8607   3.185   1.204   0.492
 2643SOL     OW 8608   2.389   0.201   0.884
 2643SOL    HW1 8609   2.411   0.216   0.975
 2643SOL    HW2 8610   2.411   0.282   0.839
 2644SOL     OW 8611   2.869   1.446   0.473
 2644SOL    HW1 8612   2.829   1.517   0.424
 2644SOL    HW2 8613   2.851   1.467   0.565
 2645SOL     OW 8614   2.217   1.808   0.860
 2645SOL    HW1 8615   2.260   1.723   0.868
 2645SOL    HW2 8616   2.286   1.871   0.877
 2646SOL     OW 8617   3.661   1.058   0.868
 2646SOL    HW1 8618   3.606   1.040   0.792
 2646SOL    HW2 8619   3.600   1.063   0.941
 2647SOL     OW 8620   3.090   1.539   1.513
 2647SOL    HW1 8621   3.076   1.466   1.573
 2647SOL    HW2 8622   3.028   1.523   1.442
 2648SOL     OW 8623   2.190   0.943   0.253
 2648SOL    HW1 8624   2.262   0.981   0.203
 2648SOL    HW2 8625   2.186   0.852   0.223
 2649SOL     OW 8626   3.339   0.742   0.727
 2649SOL    HW1 8627   3.330   0.697   0.811
 2649SOL    HW2 8628   3.417   0.797   0.738
 2650SOL     OW 8629   2.327   1.264   1.738
 2650SOL    HW1 8630   2.300   1.269   1.646
 2650SOL    HW2 8631   2.246   1.262   1.787
 2651SOL     OW 8632   2.969   1.781   0.225
 2651SOL    HW1 8633   2.914   1.739   0.291
 2651SOL    HW2 8634   2.990   1.710   0.164
 2652SOL     OW 8635   2.059   0.278   1.502
 2652SOL    HW1 8636   1.980   0.332   1.497
 2652SOL    HW2 8637   2.050   0.230   1.584
 2653SOL     OW 8638   3.495   1.373   0.082
 2653SOL    HW1 8639   3.454   1.460   0.081
 2653SOL    HW2 8640   3.424   1.313   0.064
 2654SOL     OW 8641   2.327   1.739   0.323
 2654SOL    HW1 8642   2.369   1.796   0.386
 2654SOL    HW2 8643   2.397   1.711   0.264
 2655SOL     OW 8644   3.276   0.099   0.445
 2655SOL    HW1 8645   3.266   0.079   0.352
 2655SOL    HW2 8646   3.367   0.127   0.454
 2656SOL     OW 8647   2.118   1.792   1.232
 2656SOL    HW1 8648   2.169   1.727   1.280
 2656SOL    HW2 8649   2.107   1.755   1.144
 2657SOL     OW 8650   2.799   1.698   0.900
 2657SOL    HW1 8651   2.877   1.646   0.920
 2657SOL    HW2 8652   2.755   1.649   0.831
 2658SOL     OW 8653   2.247   0.698   0.477
 2658SOL    HW1 8654   2.273   0.606   0.486
 2658SOL    HW2 8655   2.155   0.699   0.500
 2659SOL     OW 8656   3.402   0.228   1.724
 2659SOL    HW1 8657   3.409   0.246   1.818
 2659SOL    HW2 8658   3.327   0.169   1.716
 2660SOL     OW 8659   2.487   0.136   0.124
 2660SOL    HW1 8660   2.578   0.108   0.134
 2660SOL    HW2 8661   2.459   0.098   0.041
 2661SOL     OW 8662   2.645   0.313   1.767
 2661SOL    HW1 8663   2.701   0.236   1.768
 2661SOL    HW2 8664   2.594   0.307   1.848
 2662SOL     OW 8665   2.738   1.521   1.194
 2662SOL    HW1 8666   2.723   1.485   1.106
 2662SOL    HW2 8667   2.808   1.467   1.230
 2663SOL     OW 8668   3.203   0.589   1.432
 2663SOL    HW1 8669   3.234   0.557   1.517
 2663SOL    HW2 8670   3.239   0.677   1.425
 2664SOL     OW 8671   2.676   1.396   0.938
 2664SOL    HW1 8672   2.760   1.385   0.894
 2664SOL    HW2 8673   2.612   1.396   0.867
 2665SOL     OW 8674   2.789   0.510   0.903
 2665SOL    HW1 8675   2.765   0.502   0.810
 2665SOL    HW2 8676   2.821   0.423   0.927
 2666SOL     OW 8677   2.403   0.062   0.512
 2666SOL    HW1 8678   2.317   0.061   0.552
 2666SOL    HW2 8679   2.398   0.131   0.446
 2667SOL     OW 8680   3.296   1.199   0.037
 2667SOL    HW1 8681   3.320   1.125   0.092
 2667SOL    HW2 8682   3.207   1.222   0.065
 2668SOL     OW 8683   2.162   0.068   0.204
 2668SOL    HW1 8684   2.218   0.137   0.171
 2668SOL    HW2 8685   2.215   5.288   0.198
 2669SOL     OW 8686   2.805   0.255   0.455
 2669SOL    HW1 8687   2.778   0.302   0.376
 2669SOL    HW2 8688   2.898   0.277   0.465
 2670SOL     OW 8689   2.942   0.681   1.460
 2670SOL    HW1 8690   2.873   0.615   1.465
 2670SOL    HW2 8691   3.023   0.630   1.453
 2671SOL     OW 8692   3.085   1.570   0.794
 2671SOL    HW1 8693   3.103   1.637   0.728
 2671SOL    HW2 8694   3.154   1.582   0.860
 2672SOL     OW 8695   2.329   1.150   0.735
 2672SOL    HW1 8696   2.260   1.130   0.798
 2672SOL    HW2 8697   2.289   1.133   0.650
 2673SOL     OW 8698   3.131   1.794   0.606
 2673SOL    HW1 8699   3.180   1.857   0.553
 2673SOL    HW2 8700   3.066   1.847   0.652
 2674SOL     OW 8701   2.892   0.530   0.030
 2674SOL    HW1 8702   2.851   0.612   0.000
 2674SOL    HW2 8703   2.955   0.558   0.097
 2675SOL     OW 8704   1.940   0.554   1.393
 2675SOL    HW1 8705   2.031   0.553   1.364
 2675SOL    HW2 8706   1.935   0.624   1.457
 2676SOL     OW 8707   2.418   0.238   1.158
 2676SOL    HW1 8708   2.449   0.151   1.186
 2676SOL    HW2 8709   2.326   0.240   1.184
 2677SOL     OW 8710   2.729   0.460   0.639
 2677SOL    HW1 8711   2.686   0.514   0.573
 2677SOL    HW2 8712   2.751   0.379   0.594
 2678SOL     OW 8713   2.839   0.061   0.762
 2678SOL    HW1 8714   2.775   0.054   0.691
 2678SOL    HW2 8715   2.850   5.271   0.793
 2679SOL     OW 8716   3.298   1.163   0.857
 2679SOL    HW1 8717   3.230   1.096   0.856
 2679SOL    HW2 8718   3.322   1.175   0.765
 2680SOL     OW 8719   3.329   0.605   0.979
 2680SOL    HW1 8720   3.280   0.522   0.983
 2680SOL    HW2 8721   3.389   0.600   1.053
 2681SOL     OW 8722   3.710   0.816   0.387
 2681SOL    HW1 8723   3.762   0.763   0.448
 2681SOL    HW2 8724   3.679   0.754   0.321
 2682SOL     OW 8725   2.344   1.439   0.172
 2682SOL    HW1 8726   2.272   1.396   0.219
 2682SOL    HW2 8727   2.350   1.391   0.090
 2683SOL     OW 8728   3.532   1.265   0.648
 2683SOL    HW1 8729   3.627   1.269   0.661
 2683SOL    HW2 8730   3.501   1.354   0.669
 2684SOL     OW 8731   3.261   0.580   0.087
 2684SOL    HW1 8732   3.198   0.560   0.156
 2684SOL    HW2 8733   3.317   0.502   0.083
 2685SOL     OW 8734   2.385   0.268   0.329
 2685SOL    HW1 8735   2.426   0.212   0.262
 2685SOL    HW2 8736   2.370   0.351   0.284
 2686SOL     OW 8737   3.615   1.238   1.574
 2686SOL    HW1 8738   3.702   1.199   1.571
 2686SOL    HW2 8739   3.630   1.328   1.603
 2687SOL     OW 8740   2.921   1.354   1.334
 2687SOL    HW1 8741   2.847   1.323   1.385
 2687SOL    HW2 8742   2.997   1.312   1.375
 2688SOL     OW 8743   3.469   1.625   1.653
 2688SOL    HW1 8744   3.464   1.659   1.564
 2688SOL    HW2 8745   3.552   1.578   1.656
 2689SOL     OW 8746   2.990   1.203   1.106
 2689SOL    HW1 8747   2.931   1.241   1.171
 2689SOL    HW2 8748   2.956   1.234   1.022
 2690SOL     OW 8749   3.491   1.099   1.078
 2690SOL    HW1 8750   3.487   1.161   1.151
 2690SOL    HW2 8751   3.411   1.115   1.027
 2691SOL     OW 8752   2.767   0.106   1.391
 2691SOL    HW1 8753   2.797   0.072   1.307
 2691SOL    HW2 8754   2.844   0.148   1.429
 2692SOL     OW 8755   2.846   1.115   1.722
 2692SOL    HW1 8756   2.754   1.130   1.743
 2692SOL    HW2 8757   2.845   1.037   1.666
 2693SOL     OW 8758   2.575   1.062   0.380
 2693SOL    HW1 8759   2.559   1.045   0.472
 2693SOL    HW2 8760   2.653   1.010   0.359
 2694SOL     OW 8761   2.280   0.815   1.252
 2694SOL    HW1 8762   2.349   0.824   1.317
 2694SOL    HW2 8763   2.245   0.727   1.266
 2695SOL     OW 8764   3.129   0.379   1.272
 2695SOL    HW1 8765   3.162   0.456   1.319
 2695SOL    HW2 8766   3.039   0.401   1.249
 2696SOL     OW 8767   1.932   1.573   1.352
 2696SOL    HW1 8768   1.902   1.646   1.298
 2696SOL    HW2 8769   2.027   1.577   1.347
 2697SOL     OW 8770   2.208   1.109   0.492
 2697SOL    HW1 8771   2.215   1.182   0.430
 2697SOL    HW2 8772   2.217   1.031   0.438
 2698SOL     OW 8773   2.416   0.538   0.861
 2698SOL    HW1 8774   2.432   0.596   0.786
 2698SOL    HW2 8775   2.481   0.565   0.926
 2699SOL     OW 8776   3.109   1.347   0.393
 2699SOL    HW1 8777   3.165   1.419   0.422
 2699SOL    HW2 8778   3.022   1.370   0.425
 2700SOL     OW 8779   3.142   1.457   1.146
 2700SOL    HW1 8780   3.197   1.459   1.224
 2700SOL    HW2 8781   3.087   1.379   1.159
 2701SOL     OW 8782   3.445   0.626   0.480
 2701SOL    HW1 8783   3.396   0.676   0.545
 2701SOL    HW2 8784   3.481   0.692   0.420
 2702SOL     OW 8785   2.208   1.527   1.316
 2702SOL    HW1 8786   2.196   1.484   1.231
 2702SOL    HW2 8787   2.303   1.539   1.323
 2703SOL     OW 8788   2.275   0.744   1.602
 2703SOL    HW1 8789   2.337   0.790   1.544
 2703SOL    HW2 8790   2.317   0.660   1.620
 2704SOL     OW 8791   3.462   0.778   1.681
 2704SOL    HW1 8792   3.376   0.819   1.674
 2704SOL    HW2 8793   3.514   0.820   1.613
 2705SOL     OW 8794   2.904   0.115   1.783
 2705SOL    HW1 8795   2.928   0.195   1.736
 2705SOL    HW2 8796   2.911   0.045   1.718
 2706SOL     OW 8797   2.344   0.056   1.739
 2706SOL    HW1 8798   2.288   5.292   1.696
 2706SOL    HW2 8799   2.286   0.129   1.760
 2707SOL     OW 8800   2.445   0.872   1.031
 2707SOL    HW1 8801   2.476   0.963   1.030
 2707SOL    HW2 8802   2.388   0.867   1.108
 2708SOL     OW 8803   3.221   0.859   1.031
 2708SOL    HW1 8804   3.139   0.851   0.983
 2708SOL    HW2 8805   3.260   0.772   1.026
 2709SOL     OW 8806   3.066   0.527   0.270
 2709SOL    HW1 8807   3.073   0.447   0.322
 2709SOL    HW2 8808   3.024   0.590   0.329
 2710SOL     OW 8809   2.159   0.204   1.247
 2710SOL    HW1 8810   2.120   0.243   1.325
 2710SOL    HW2 8811   2.157   0.110   1.263
 2711SOL     OW 8812   1.908   1.311   1.276
 2711SOL    HW1 8813   1.941   1.256   1.348
 2711SOL    HW2 8814   1.915   1.400   1.309
 2712SOL     OW 8815   2.588   0.632   1.060
 2712SOL    HW1 8816   2.661   0.614   1.001
 2712SOL    HW2 8817   2.559   0.721   1.037
 2713SOL     OW 8818   3.596   0.960   1.852
 2713SOL    HW1 8819   3.549   0.899   1.793
 2713SOL    HW2 8820   3.536   0.972   1.925
 2714SOL     OW 8821   2.162   0.072   0.649
 2714SOL    HW1 8822   2.147   0.166   0.658
 2714SOL    HW2 8823   2.204   0.046   0.730
 2715SOL     OW 8824   3.481   0.377   0.368
 2715SOL    HW1 8825   3.509   0.311   0.432
 2715SOL    HW2 8826   3.456   0.453   0.421
 2716SOL     OW 8827   2.889   0.760   0.961
 2716SOL    HW1 8828   2.887   0.777   1.055
 2716SOL    HW2 8829   2.863   0.668   0.953
 2717SOL     OW 8830   2.844   1.566   1.716
 2717SOL    HW1 8831   2.829   1.610   1.633
 2717SOL    HW2 8832   2.887   1.484   1.692
 2718SOL     OW 8833   3.717   1.507   1.605
 2718SOL    HW1 8834   3.735   1.533   1.515
 2718SOL    HW2 8835   3.798   1.526   1.652
 2719SOL     OW 8836   2.215   0.916   1.808
 2719SOL    HW1 8837   2.297   0.935   1.854
 2719SOL    HW2 8838   2.239   0.854   1.740
 2720SOL     OW 8839   3.385   0.299   0.126
 2720SOL    HW1 8840   3.346   0.213   0.142
 2720SOL    HW2 8841   3.424   0.324   0.210
 2721SOL     OW 8842   3.156   0.825   0.022
 2721SOL    HW1 8843   3.195   0.739   0.040
 2721SOL    HW2 8844   3.215   0.865   8.037
 2722SOL     OW 8845   2.927   1.336   0.853
 2722SOL    HW1 8846   2.930   1.263   0.792
 2722SOL    HW2 8847   2.989   1.399   0.819
 2723SOL     OW 8848   2.171   0.809   0.947
 2723SOL    HW1 8849   2.264   0.831   0.941
 2723SOL    HW2 8850   2.170   0.719   0.980
 2724SOL     OW 8851   2.194   0.525   1.012
 2724SOL    HW1 8852   2.158   0.438   0.996
 2724SOL    HW2 8853   2.271   0.530   0.955
 2725SOL     OW 8854   2.998   0.378   1.687
 2725SOL    HW1 8855   2.950   0.433   1.750
 2725SOL    HW2 8856   3.085   0.417   1.683
 2726SOL     OW 8857   2.996   0.223   1.465
 2726SOL    HW1 8858   3.001   0.281   1.541
 2726SOL    HW2 8859   3.051   0.264   1.399
 2727SOL     OW 8860   1.872   1.325   0.191
 2727SOL    HW1 8861   1.785   1.338   0.153
 2727SOL    HW2 8862   1.871   1.234   0.222
 2728SOL     OW 8863   1.952   1.788   0.937
 2728SOL    HW1 8864   1.922   1.708   0.894
 2728SOL    HW2 8865   2.042   1.799   0.906
 2729SOL     OW 8866   2.359   1.574   0.905
 2729SOL    HW1 8867   2.428   1.635   0.930
 2729SOL    HW2 8868   2.403   1.509   0.850
 2730SOL     OW 8869   2.847   0.793   1.227
 2730SOL    HW1 8870   2.902   0.769   1.302
 2730SOL    HW2 8871   2.761   0.756   1.248
 2731SOL     OW 8872   1.897   0.544   1.117
 2731SOL    HW1 8873   1.978   0.528   1.067
 2731SOL    HW2 8874   1.927   0.548   1.208
 2732SOL     OW 8875   2.049   0.521   1.726
 2732SOL    HW1 8876   2.112   0.486   1.663
 2732SOL    HW2 8877   2.008   0.594   1.681
 2733SOL     OW 8878   3.238   0.940   1.659
 2733SOL    HW1 8879   3.260   1.033   1.657
 2733SOL    HW2 8880   3.236   0.914   1.567
 2734SOL     OW 8881   2.680   0.570   0.366
 2734SOL    HW1 8882   2.689   0.499   0.303
 2734SOL    HW2 8883   2.603   0.620   0.336
 2735SOL     OW 8884   3.505   0.602   1.187
 2735SOL    HW1 8885   3.493   0.542   1.261
 2735SOL    HW2 8886   3.592   0.581   1.153
 2736SOL     OW 8887   2.106   1.552   1.728
 2736SOL    HW1 8888   2.083   1.615   1.796
 2736SOL    HW2 8889   2.107   1.468   1.774
 2737SOL     OW 8890   2.559   0.453   1.261
 2737SOL    HW1 8891   2.509   0.379   1.227
 2737SOL    HW2 8892   2.559   0.516   1.190
 2738SOL     OW 8893   2.790   1.679   1.467
 2738SOL    HW1 8894   2.765   1.646   1.381
 2738SOL    HW2 8895   2.787   1.774   1.458
 2739SOL     OW 8896   2.330   0.492   0.177
 2739SOL    HW1 8897   2.397   0.557   0.197
 2739SOL    HW2 8898   2.247   0.538   0.193
 2740SOL     OW 8899   2.009   1.140   1.472
 2740SOL    HW1 8900   2.012   1.088   1.552
 2740SOL    HW2 8901   2.026   1.077   1.402
 2741SOL     OW 8902   3.189   1.048   1.224
 2741SOL    HW1 8903   3.212   0.984   1.156
 2741SOL    HW2 8904   3.118   1.099   1.185
 2742SOL     OW 8905   3.168   0.849   0.308
 2742SOL    HW1 8906   3.090   0.820   0.356
 2742SOL    HW2 8907   3.144   0.838   0.216
 2743SOL     OW 8908   3.632   1.745   1.149
 2743SOL    HW1 8909   3.693   1.771   1.080
 2743SOL    HW2 8910   3.609   1.655   1.128
 2744SOL     OW 8911   3.103   1.733   1.114
 2744SOL    HW1 8912   3.185   1.753   1.069
 2744SOL    HW2 8913   3.108   1.639   1.132
 2745SOL     OW 8914   1.945   1.267   1.012
 2745SOL    HW1 8915   1.932   1.279   1.106
 2745SOL    HW2 8916   1.872   1.212   0.984
 2746SOL     OW 8917   2.538   1.665   1.727
 2746SOL    HW1 8918   2.488   1.746   1.726
 2746SOL    HW2 8919   2.604   1.677   1.658
 2747SOL     OW 8920   2.756   0.086   0.139
 2747SOL    HW1 8921   2.803   0.079   0.056
 2747SOL    HW2 8922   2.777   0.005   0.185
 2748SOL     OW 8923   3.575   0.148   0.505
 2748SOL    HW1 8924   3.650   0.126   0.449
 2748SOL    HW2 8925   3.567   0.072   0.563
 2749SOL     OW 8926   3.251   1.568   0.485
 2749SOL    HW1 8927   3.315   1.600   0.421
 2749SOL    HW2 8928   3.204   1.646   0.513
 2750SOL     OW 8929   1.997   1.798   1.843
 2750SOL    HW1 8930   1.947   1.732   1.892
 2750SOL    HW2 8931   2.046   1.845   1.911
 2751SOL     OW 8932   3.139   0.925   0.672
 2751SOL    HW1 8933   3.213   0.864   0.677
 2751SOL    HW2 8934   3.172   0.998   0.619
 2752SOL     OW 8935   2.678   1.273   1.430
 2752SOL    HW1 8936   2.650   1.312   1.513
 2752SOL    HW2 8937   2.608   1.295   1.369
 2753SOL     OW 8938   2.538   1.620   0.156
 2753SOL    HW1 8939   2.543   1.626   0.060
 2753SOL    HW2 8940   2.478   1.547   0.172
 2754SOL     OW 8941   3.490   1.726   1.391
 2754SOL    HW1 8942   3.539   1.734   1.310
 2754SOL    HW2 8943   3.476   1.817   1.419
 2755SOL     OW 8944   3.707   0.158   0.958
 2755SOL    HW1 8945   3.709   0.064   0.941
 2755SOL    HW2 8946   3.620   0.186   0.930
 2756SOL     OW 8947   2.125   0.329   0.720
 2756SOL    HW1 8948   2.037   0.360   0.698
 2756SOL    HW2 8949   2.122   0.316   0.815
 2757SOL     OW 8950   3.019   1.582   0.052
 2757SOL    HW1 8951   3.035   1.490   0.071
 2757SOL    HW2 8952   3.028   1.589   8.037
 2758SOL     OW 8953   2.686   1.006   1.372
 2758SOL    HW1 8954   2.730   1.001   1.287
 2758SOL    HW2 8955   2.686   1.099   1.395
 2759SOL     OW 8956   2.781   0.915   0.298
 2759SOL    HW1 8957   2.835   0.939   0.223
 2759SOL    HW2 8958   2.827   0.841   0.338
 2760SOL     OW 8959   3.372   1.625   0.060
 2760SOL    HW1 8960   3.277   1.625   0.050
 2760SOL    HW2 8961   3.406   1.624   8.051
 2761SOL     OW 8962   2.231   1.302   1.492
 2761SOL    HW1 8963   2.217   1.380   1.437
 2761SOL    HW2 8964   2.154   1.247   1.475
 2762SOL     OW 8965   3.473   1.283   1.281
 2762SOL    HW1 8966   3.533   1.273   1.355
 2762SOL    HW2 8967   3.413   1.352   1.307
 2763SOL     OW 8968   2.912   1.107   0.707
 2763SOL    HW1 8969   2.842   1.055   0.745
 2763SOL    HW2 8970   2.974   1.042   0.673
 2764SOL     OW 8971   2.881   0.243   0.968
 2764SOL    HW1 8972   2.862   0.197   0.886
 2764SOL    HW2 8973   2.874   0.175   1.035
 2765SOL     OW 8974   2.465   1.488   0.480
 2765SOL    HW1 8975   2.508   1.437   0.412
 2765SOL    HW2 8976   2.395   1.536   0.435
 2766SOL     OW 8977   3.585   0.387   1.378
 2766SOL    HW1 8978   3.655   0.452   1.378
 2766SOL    HW2 8979   3.617   0.317   1.321
 2767SOL     OW 8980   2.128   1.321   0.294
 2767SOL    HW1 8981   2.042   1.333   0.254
 2767SOL    HW2 8982   2.122   1.367   0.378
 2768SOL     OW 8983   1.974   1.021   1.719
 2768SOL    HW1 8984   1.898   0.998   1.772
 2768SOL    HW2 8985   2.049   0.984   1.766
 2769SOL     OW 8986   2.534   0.210   1.487
 2769SOL    HW1 8987   2.618   0.193   1.444
 2769SOL    HW2 8988   2.557   0.259   1.566
 2770SOL     OW 8989   1.930   0.362   0.035
 2770SOL    HW1 8990   1.858   0.300   0.022
 2770SOL    HW2 8991   1.946   0.398   8.028
 2771SOL     OW 8992   3.293   0.858   1.401
 2771SOL    HW1 8993   3.244   0.919   1.345
 2771SOL    HW2 8994   3.382   0.861   1.367
 2772SOL     OW 8995   1.931   0.165   0.314
 2772SOL    HW1 8996   1.936   0.252   0.275
 2772SOL    HW2 8997   2.016   0.125   0.296
 2773SOL     OW 8998   3.047   1.320   0.121
 2773SOL    HW1 8999   2.952   1.308   0.121
 2773SOL    HW2 9000   3.070   1.321   0.214
 2774SOL     OW 9001   2.481   0.831   1.433
 2774SOL    HW1 9002   2.536   0.907   1.418
 2774SOL    HW2 9003   2.542   0.758   1.442
 2775SOL     OW 9004   3.346   1.775   0.977
 2775SOL    HW1 9005   3.371   1.835   0.906
 2775SOL    HW2 9006   3.428   1.758   1.024
 2776SOL     OW 9007   2.578   0.572   1.703
 2776SOL    HW1 9008   2.617   0.635   1.763
 2776SOL    HW2 9009   2.610   0.487   1.734
 2777SOL     OW 9010   3.332   1.201   1.632
 2777SOL    HW1 9011   3.320   1.215   1.726
 2777SOL    HW2 9012   3.426   1.215   1.618
 2778SOL     OW 9013   2.241   1.739   1.562
 2778SOL    HW1 9014   2.156   1.780   1.550
 2778SOL    HW2 9015   2.223   1.655   1.605
 2779SOL     OW 9016   3.532   0.882   1.255
 2779SOL    HW1 9017   3.525   0.796   1.213
 2779SOL    HW2 9018   3.523   0.945   1.184
 2780SOL     OW 9019   3.078   0.328   0.474
 2780SOL    HW1 9020   3.136   0.254   0.457
 2780SOL    HW2 9021   3.117   0.374   0.547
 2781SOL     OW 9022   2.450   0.739   0.669
 2781SOL    HW1 9023   2.491   0.824   0.653
 2781SOL    HW2 9024   2.382   0.732   0.603
 2782SOL     OW 9025   3.629   0.361   1.648
 2782SOL    HW1 9026   3.609   0.375   1.556
 2782SOL    HW2 9027   3.558   0.305   1.680
 2783SOL     OW 9028   3.606   0.934   1.512
 2783SOL    HW1 9029   3.605   1.028   1.525
 2783SOL    HW2 9030   3.591   0.922   1.419
 2784SOL     OW 9031   2.756   1.373   0.034
 2784SOL    HW1 9032   2.691   1.365   0.104
 2784SOL    HW2 9033   2.740   1.460   8.078
 2785SOL     OW 9034   2.522   1.792   0.947
 2785SOL    HW1 9035   2.503   1.882   0.921
 2785SOL    HW2 9036   2.617   1.784   0.939
 2786SOL     OW 9037   2.728   0.966   0.856
 2786SOL    HW1 9038   2.779   0.895   0.895
 2786SOL    HW2 9039   2.695   1.016   0.930
 2787SOL     OW 9040   2.939   0.978   0.086
 2787SOL    HW1 9041   2.927   1.039   0.013
 2787SOL    HW2 9042   3.017   0.927   0.063
 2788SOL     OW 9043   3.717   1.555   0.845
 2788SOL    HW1 9044   3.639   1.544   0.790
 2788SOL    HW2 9045   3.709   1.488   0.913
 2789SOL     OW 9046   2.086   1.304   1.856
 2789SOL    HW1 9047   2.019   1.242   1.827
 2789SOL    HW2 9048   2.070   1.316   1.949
 2790SOL     OW 9049   1.947   1.233   0.664
 2790SOL    HW1 9050   1.949   1.184   0.746
 2790SOL    HW2 9051   2.018   1.197   0.612
 2791SOL     OW 9052   2.542   1.402   1.626
 2791SOL    HW1 9053   2.463   1.359   1.658
 2791SOL    HW2 9054   2.538   1.490   1.664
 2792SOL     OW 9055   3.677   0.178   1.233
 2792SOL    HW1 9056   3.646   0.088   1.241
 2792SOL    HW2 9057   3.694   0.190   1.140
 2793SOL     OW 9058   2.287   0.438   0.522
 2793SOL    HW1 9059   2.324   0.366   0.471
 2793SOL    HW2 9060   2.245   0.395   0.596
 2794SOL     OW 9061   3.563   1.490   1.097
 2794SOL    HW1 9062   3.482   1.465   1.053
 2794SOL    HW2 9063   3.576   1.421   1.163
 2795SOL     OW 9064   2.190   0.555   1.290
 2795SOL    HW1 9065   2.246   0.500   1.345
 2795SOL    HW2 9066   2.210   0.528   1.201
 2796SOL     OW 9067   2.688   1.578   0.678
 2796SOL    HW1 9068   2.678   1.627   0.596
 2796SOL    HW2 9069   2.611   1.521   0.682
 2797SOL     OW 9070   3.290   0.218   1.117
 2797SOL    HW1 9071   3.327   0.144   1.164
 2797SOL    HW2 9072   3.242   0.267   1.183
 2798SOL     OW 9073   2.864   0.022   1.142
 2798SOL    HW1 9074   2.814   5.252   1.100
 2798SOL    HW2 9075   2.951   5.284   1.154
 2799SOL     OW 9076   2.631   1.328   0.309
 2799SOL    HW1 9077   2.599   1.238   0.322
 2799SOL    HW2 9078   2.714   1.331   0.356
 2800SOL     OW 9079   2.481   1.557   1.284
 2800SOL    HW1 9080   2.484   1.639   1.334
 2800SOL    HW2 9081   2.569   1.549   1.247
 2801SOL     OW 9082   3.254   0.042   0.170
 2801SOL    HW1 9083   3.248   0.027   0.076
 2801SOL    HW2 9084   3.166   0.067   0.196
 2802SOL     OW 9085   3.170   0.467   0.690
 2802SOL    HW1 9086   3.111   0.542   0.693
 2802SOL    HW2 9087   3.159   0.424   0.775
 2803SOL     OW 9088   3.456   0.216   0.882
 2803SOL    HW1 9089   3.389   0.227   0.949
 2803SOL    HW2 9090   3.449   0.294   0.827
 2804SOL     OW 9091   1.905   1.068   0.303
 2804SOL    HW1 9092   2.000   1.067   0.305
 2804SOL    HW2 9093   1.878   0.985   0.344
 2805SOL     OW 9094   2.743   1.653   0.348
 2805SOL    HW1 9095   2.676   1.635   0.283
 2805SOL    HW2 9096   2.711   1.729   0.396
 2806SOL     OW 9097   2.091   0.625   1.984
 2806SOL    HW1 9098   2.002   0.622   2.019
 2806SOL    HW2 9099   2.082   0.598   1.893
 2807SOL     OW 9100   2.081   0.283   2.854
 2807SOL    HW1 9101   2.110   0.249   2.939
 2807SOL    HW2 9102   1.995   0.243   2.840
 2808SOL     OW 9103   1.867   0.385   2.500
 2808SOL    HW1 9104   1.782   0.406   2.540
 2808SOL    HW2 9105   1.849   0.307   2.447
 2809SOL     OW 9106   2.429   1.285   3.036
 2809SOL    HW1 9107   2.341   1.286   2.998
 2809SOL    HW2 9108   2.442   1.374   3.069
 2810SOL     OW 9109   3.422   1.511   2.568
 2810SOL    HW1 9110   3.379   1.493   2.651
 2810SOL    HW2 9111   3.351   1.516   2.504
 2811SOL     OW 9112   2.993   0.698   2.565
 2811SOL    HW1 9113   3.042   0.779   2.550
 2811SOL    HW2 9114   2.945   0.713   2.646
 2812SOL     OW 9115   3.627   0.607   2.091
 2812SOL    HW1 9116   3.608   0.599   1.998
 2812SOL    HW2 9117   3.593   0.526   2.130
 2813SOL     OW 9118   2.620   1.144   2.902
 2813SOL    HW1 9119   2.550   1.177   2.958
 2813SOL    HW2 9120   2.654   1.221   2.857
 2814SOL     OW 9121   2.727   0.779   3.684
 2814SOL    HW1 9122   2.715   0.851   3.746
 2814SOL    HW2 9123   2.751   0.822   3.602
 2815SOL     OW 9124   2.549   1.004   2.509
 2815SOL    HW1 9125   2.613   0.991   2.579
 2815SOL    HW2 9126   2.478   1.055   2.550
 2816SOL     OW 9127   2.571   1.151   3.673
 2816SOL    HW1 9128   2.619   1.230   3.698
 2816SOL    HW2 9129   2.488   1.183   3.638
 2817SOL     OW 9130   2.194   1.425   2.929
 2817SOL    HW1 9131   2.120   1.389   2.880
 2817SOL    HW2 9132   2.243   1.476   2.864
 2818SOL     OW 9133   3.324   1.498   3.216
 2818SOL    HW1 9134   3.368   1.583   3.224
 2818SOL    HW2 9135   3.260   1.498   3.288
 2819SOL     OW 9136   2.306   0.399   3.350
 2819SOL    HW1 9137   2.380   0.339   3.347
 2819SOL    HW2 9138   2.230   0.341   3.364
 2820SOL     OW 9139   3.473   0.451   2.600
 2820SOL    HW1 9140   3.397   0.476   2.547
 2820SOL    HW2 9141   3.493   0.530   2.651
 2821SOL     OW 9142   2.081   1.714   2.334
 2821SOL    HW1 9143   2.104   1.791   2.387
 2821SOL    HW2 9144   2.154   1.705   2.272
 2822SOL     OW 9145   2.995   1.343   3.555
 2822SOL    HW1 9146   3.039   1.337   3.639
 2822SOL    HW2 9147   2.944   1.263   3.548
 2823SOL     OW 9148   2.092   1.441   2.397
 2823SOL    HW1 9149   2.074   1.535   2.401
 2823SOL    HW2 9150   2.031   1.402   2.460
 2824SOL     OW 9151   2.118   1.090   2.753
 2824SOL    HW1 9152   2.115   1.004   2.794
 2824SOL    HW2 9153   2.061   1.144   2.806
 2825SOL     OW 9154   2.449   0.981   1.995
 2825SOL    HW1 9155   2.493   1.031   1.927
 2825SOL    HW2 9156   2.489   1.011   2.077
 2826SOL     OW 9157   3.448   0.134   3.319
 2826SOL    HW1 9158   3.468   0.219   3.280
 2826SOL    HW2 9159   3.447   0.151   3.413
 2827SOL     OW 9160   1.976   0.653   2.421
 2827SOL    HW1 9161   1.949   0.564   2.442
 2827SOL    HW2 9162   1.968   0.701   2.504
 2828SOL     OW 9163   3.704   1.760   2.198
 2828SOL    HW1 9164   3.767   1.731   2.264
 2828SOL    HW2 9165   3.729   1.850   2.179
 2829SOL     OW 9166   1.893   1.596   1.986
 2829SOL    HW1 9167   1.876   1.504   2.005
 2829SOL    HW2 9168   1.869   1.642   2.066
 2830SOL     OW 9169   3.552   0.919   2.502
 2830SOL    HW1 9170   3.635   0.877   2.481
 2830SOL    HW2 9171   3.530   0.969   2.423
 2831SOL     OW 9172   3.507   1.107   2.292
 2831SOL    HW1 9173   3.593   1.114   2.249
 2831SOL    HW2 9174   3.512   1.168   2.365
 2832SOL     OW 9175   1.984   0.743   3.447
 2832SOL    HW1 9176   2.076   0.768   3.457
 2832SOL    HW2 9177   1.936   0.826   3.454
 2833SOL     OW 9178   2.474   1.384   2.597
 2833SOL    HW1 9179   2.429   1.301   2.607
 2833SOL    HW2 9180   2.458   1.411   2.507
 2834SOL     OW 9181   3.150   1.237   3.286
 2834SOL    HW1 9182   3.183   1.170   3.225
 2834SOL    HW2 9183   3.208   1.232   3.362
 2835SOL     OW 9184   2.671   0.025   2.388
 2835SOL    HW1 9185   2.700   0.113   2.364
 2835SOL    HW2 9186   2.576   0.029   2.382
 2836SOL     OW 9187   2.053   0.967   3.133
 2836SOL    HW1 9188   2.137   0.924   3.117
 2836SOL    HW2 9189   1.989   0.912   3.086
 2837SOL     OW 9190   3.394   0.993   2.060
 2837SOL    HW1 9191   3.324   0.935   2.091
 2837SOL    HW2 9192   3.434   1.027   2.140
 2838SOL     OW 9193   2.188   0.265   3.672
 2838SOL    HW1 9194   2.240   0.341   3.698
 2838SOL    HW2 9195   2.102   0.280   3.711
 2839SOL     OW 9196   3.328   1.419   2.813
 2839SOL    HW1 9197   3.260   1.433   2.880
 2839SOL    HW2 9198   3.317   1.328   2.786
 2840SOL     OW 9199   3.521   1.737   2.440
 2840SOL    HW1 9200   3.501   1.708   2.351
 2840SOL    HW2 9201   3.496   1.664   2.496
 2841SOL     OW 9202   2.457   0.722   2.127
 2841SOL    HW1 9203   2.464   0.803   2.076
 2841SOL    HW2 9204   2.392   0.741   2.195
 2842SOL     OW 9205   3.140   0.345   2.793
 2842SOL    HW1 9206   3.050   0.317   2.805
 2842SOL    HW2 9207   3.190   0.296   2.858
 2843SOL     OW 9208   3.443   1.669   2.171
 2843SOL    HW1 9209   3.533   1.702   2.165
 2843SOL    HW2 9210   3.417   1.652   2.081
 2844SOL     OW 9211   2.656   0.618   3.313
 2844SOL    HW1 9212   2.629   0.597   3.402
 2844SOL    HW2 9213   2.613   0.552   3.258
 2845SOL     OW 9214   3.257   0.475   3.540
 2845SOL    HW1 9215   3.259   0.519   3.625
 2845SOL    HW2 9216   3.320   0.404   3.549
 2846SOL     OW 9217   2.818   0.888   3.444
 2846SOL    HW1 9218   2.872   0.817   3.409
 2846SOL    HW2 9219   2.770   0.921   3.368
 2847SOL     OW 9220   2.856   0.417   3.098
 2847SOL    HW1 9221   2.771   0.438   3.138
 2847SOL    HW2 9222   2.833   0.368   3.019
 2848SOL     OW 9223   2.912   0.698   2.289
 2848SOL    HW1 9224   2.927   0.691   2.383
 2848SOL    HW2 9225   2.830   0.652   2.274
 2849SOL     OW 9226   1.950   0.820   2.639
 2849SOL    HW1 9227   2.032   0.813   2.689
 2849SOL    HW2 9228   1.908   0.899   2.673
 2850SOL     OW 9229   1.997   1.836   3.436
 2850SOL    HW1 9230   1.993   1.820   3.530
 2850SOL    HW2 9231   1.906   1.850   3.410
 2851SOL     OW 9232   2.734   0.362   2.051
 2851SOL    HW1 9233   2.778   0.422   1.991
 2851SOL    HW2 9234   2.784   0.281   2.046
 2852SOL     OW 9235   3.571   0.575   3.690
 2852SOL    HW1 9236   3.533   0.650   3.642
 2852SOL    HW2 9237   3.599   0.515   3.622
 2853SOL     OW 9238   3.238   1.142   2.404
 2853SOL    HW1 9239   3.317   1.129   2.351
 2853SOL    HW2 9240   3.186   1.204   2.353
 2854SOL     OW 9241   2.390   0.201   2.745
 2854SOL    HW1 9242   2.412   0.216   2.837
 2854SOL    HW2 9243   2.411   0.284   2.702
 2855SOL     OW 9244   2.869   1.445   2.335
 2855SOL    HW1 9245   2.830   1.517   2.285
 2855SOL    HW2 9246   2.852   1.467   2.426
 2856SOL     OW 9247   2.217   1.808   2.722
 2856SOL    HW1 9248   2.257   1.721   2.730
 2856SOL    HW2 9249   2.289   1.869   2.741
 2857SOL     OW 9250   3.661   1.058   2.730
 2857SOL    HW1 9251   3.606   1.041   2.653
 2857SOL    HW2 9252   3.599   1.063   2.803
 2858SOL     OW 9253   3.093   1.530   3.368
 2858SOL    HW1 9254   3.076   1.464   3.435
 2858SOL    HW2 9255   3.032   1.509   3.297
 2859SOL     OW 9256   2.183   0.957   2.111
 2859SOL    HW1 9257   2.265   0.976   2.066
 2859SOL    HW2 9258   2.152   0.875   2.073
 2860SOL     OW 9259   3.339   0.742   2.590
 2860SOL    HW1 9260   3.330   0.698   2.674
 2860SOL    HW2 9261   3.417   0.797   2.599
 2861SOL     OW 9262   2.327   1.264   3.600
 2861SOL    HW1 9263   2.300   1.269   3.509
 2861SOL    HW2 9264   2.245   1.262   3.650
 2862SOL     OW 9265   2.983   1.778   2.093
 2862SOL    HW1 9266   2.911   1.736   2.139
 2862SOL    HW2 9267   3.006   1.717   2.023
 2863SOL     OW 9268   2.059   0.278   3.364
 2863SOL    HW1 9269   1.980   0.332   3.359
 2863SOL    HW2 9270   2.050   0.230   3.446
 2864SOL     OW 9271   3.491   1.379   1.949
 2864SOL    HW1 9272   3.450   1.465   1.934
 2864SOL    HW2 9273   3.422   1.316   1.930
 2865SOL     OW 9274   2.329   1.736   2.185
 2865SOL    HW1 9275   2.371   1.795   2.247
 2865SOL    HW2 9276   2.399   1.709   2.126
 2866SOL     OW 9277   3.269   0.100   2.293
 2866SOL    HW1 9278   3.260   0.082   2.199
 2866SOL    HW2 9279   3.361   0.122   2.305
 2867SOL     OW 9280   2.099   1.781   3.098
 2867SOL    HW1 9281   2.164   1.730   3.146
 2867SOL    HW2 9282   2.112   1.755   3.006
 2868SOL     OW 9283   2.799   1.694   2.760
 2868SOL    HW1 9284   2.879   1.644   2.774
 2868SOL    HW2 9285   2.754   1.647   2.690
 2869SOL     OW 9286   2.254   0.696   2.339
 2869SOL    HW1 9287   2.276   0.603   2.349
 2869SOL    HW2 9288   2.160   0.701   2.357
 2870SOL     OW 9289   3.402   0.228   3.586
 2870SOL    HW1 9290   3.409   0.246   3.680
 2870SOL    HW2 9291   3.327   0.168   3.578
 2871SOL     OW 9292   2.486   0.133   1.969
 2871SOL    HW1 9293   2.552   0.067   1.992
 2871SOL    HW2 9294   2.435   0.092   1.899
 2872SOL     OW 9295   2.645   0.313   3.629
 2872SOL    HW1 9296   2.701   0.236   3.630
 2872SOL    HW2 9297   2.594   0.306   3.710
 2873SOL     OW 9298   2.738   1.523   3.059
 2873SOL    HW1 9299   2.723   1.490   2.970
 2873SOL    HW2 9300   2.808   1.467   3.093
 2874SOL     OW 9301   3.203   0.589   3.294
 2874SOL    HW1 9302   3.234   0.557   3.379
 2874SOL    HW2 9303   3.239   0.677   3.287
 2875SOL     OW 9304   2.676   1.397   2.801
 2875SOL    HW1 9305   2.760   1.385   2.757
 2875SOL    HW2 9306   2.611   1.396   2.730
 2876SOL     OW 9307   2.789   0.510   2.765
 2876SOL    HW1 9308   2.766   0.502   2.673
 2876SOL    HW2 9309   2.821   0.423   2.790
 2877SOL     OW 9310   2.404   0.063   2.371
 2877SOL    HW1 9311   2.318   0.062   2.414
 2877SOL    HW2 9312   2.397   0.133   2.306
 2878SOL     OW 9313   3.290   1.198   1.903
 2878SOL    HW1 9314   3.321   1.122   1.953
 2878SOL    HW2 9315   3.204   1.218   1.940
 2879SOL     OW 9316   2.163   0.061   2.052
 2879SOL    HW1 9317   2.222   0.130   2.022
 2879SOL    HW2 9318   2.219   5.285   2.065
 2880SOL     OW 9319   2.801   0.259   2.324
 2880SOL    HW1 9320   2.772   0.299   2.241
 2880SOL    HW2 9321   2.896   0.271   2.325
 2881SOL     OW 9322   2.942   0.681   3.322
 2881SOL    HW1 9323   2.873   0.615   3.327
 2881SOL    HW2 9324   3.023   0.630   3.315
 2882SOL     OW 9325   3.084   1.572   2.657
 2882SOL    HW1 9326   3.102   1.637   2.590
 2882SOL    HW2 9327   3.155   1.583   2.720
 2883SOL     OW 9328   2.330   1.149   2.597
 2883SOL    HW1 9329   2.260   1.130   2.659
 2883SOL    HW2 9330   2.291   1.132   2.511
 2884SOL     OW 9331   3.131   1.794   2.469
 2884SOL    HW1 9332   3.177   1.855   2.411
 2884SOL    HW2 9333   3.066   1.848   2.514
 2885SOL     OW 9334   2.889   0.547   1.883
 2885SOL    HW1 9335   2.845   0.631   1.865
 2885SOL    HW2 9336   2.952   0.567   1.952
 2886SOL     OW 9337   1.940   0.553   3.255
 2886SOL    HW1 9338   2.031   0.553   3.227
 2886SOL    HW2 9339   1.935   0.624   3.319
 2887SOL     OW 9340   2.418   0.238   3.020
 2887SOL    HW1 9341   2.449   0.151   3.048
 2887SOL    HW2 9342   2.326   0.240   3.046
 2888SOL     OW 9343   2.730   0.462   2.503
 2888SOL    HW1 9344   2.683   0.515   2.438
 2888SOL    HW2 9345   2.752   0.381   2.456
 2889SOL     OW 9346   2.840   0.061   2.624
 2889SOL    HW1 9347   2.775   0.054   2.554
 2889SOL    HW2 9348   2.850   5.271   2.656
 2890SOL     OW 9349   3.298   1.163   2.719
 2890SOL    HW1 9350   3.230   1.096   2.717
 2890SOL    HW2 9351   3.323   1.175   2.628
 2891SOL     OW 9352   3.329   0.605   2.841
 2891SOL    HW1 9353   3.280   0.522   2.845
 2891SOL    HW2 9354   3.389   0.600   2.915
 2892SOL     OW 9355   3.708   0.817   2.244
 2892SOL    HW1 9356   3.764   0.766   2.302
 2892SOL    HW2 9357   3.679   0.755   2.177
 2893SOL     OW 9358   2.353   1.417   2.020
 2893SOL    HW1 9359   2.278   1.388   2.072
 2893SOL    HW2 9360   2.337   1.381   1.933
 2894SOL     OW 9361   3.531   1.264   2.510
 2894SOL    HW1 9362   3.626   1.268   2.522
 2894SOL    HW2 9363   3.501   1.352   2.530
 2895SOL     OW 9364   3.256   0.572   1.933
 2895SOL    HW1 9365   3.195   0.553   2.005
 2895SOL    HW2 9366   3.341   0.540   1.965
 2896SOL     OW 9367   2.386   0.264   2.183
 2896SOL    HW1 9368   2.430   0.215   2.114
 2896SOL    HW2 9369   2.366   0.349   2.144
 2897SOL     OW 9370   3.615   1.238   3.437
 2897SOL    HW1 9371   3.702   1.199   3.433
 2897SOL    HW2 9372   3.630   1.328   3.465
 2898SOL     OW 9373   2.921   1.357   3.200
 2898SOL    HW1 9374   2.846   1.322   3.249
 2898SOL    HW2 9375   2.997   1.312   3.238
 2899SOL     OW 9376   3.470   1.626   3.515
 2899SOL    HW1 9377   3.465   1.658   3.425
 2899SOL    HW2 9378   3.553   1.579   3.519
 2900SOL     OW 9379   2.990   1.205   2.969
 2900SOL    HW1 9380   2.927   1.240   3.032
 2900SOL    HW2 9381   2.958   1.234   2.884
 2901SOL     OW 9382   3.491   1.099   2.940
 2901SOL    HW1 9383   3.486   1.160   3.013
 2901SOL    HW2 9384   3.411   1.115   2.889
 2902SOL     OW 9385   2.767   0.106   3.253
 2902SOL    HW1 9386   2.797   0.072   3.169
 2902SOL    HW2 9387   2.844   0.148   3.291
 2903SOL     OW 9388   2.846   1.115   3.584
 2903SOL    HW1 9389   2.753   1.129   3.605
 2903SOL    HW2 9390   2.846   1.037   3.528
 2904SOL     OW 9391   2.571   1.061   2.233
 2904SOL    HW1 9392   2.557   1.045   2.327
 2904SOL    HW2 9393   2.646   1.007   2.211
 2905SOL     OW 9394   2.280   0.815   3.113
 2905SOL    HW1 9395   2.349   0.824   3.179
 2905SOL    HW2 9396   2.245   0.727   3.127
 2906SOL     OW 9397   3.129   0.379   3.134
 2906SOL    HW1 9398   3.162   0.456   3.181
 2906SOL    HW2 9399   3.039   0.402   3.111
 2907SOL     OW 9400   1.929   1.571   3.212
 2907SOL    HW1 9401   1.899   1.647   3.162
 2907SOL    HW2 9402   2.024   1.579   3.212
 2908SOL     OW 9403   2.213   1.108   2.353
 2908SOL    HW1 9404   2.217   1.181   2.292
 2908SOL    HW2 9405   2.211   1.030   2.298
 2909SOL     OW 9406   2.416   0.538   2.723
 2909SOL    HW1 9407   2.432   0.596   2.648
 2909SOL    HW2 9408   2.481   0.565   2.788
 2910SOL     OW 9409   3.110   1.348   2.251
 2910SOL    HW1 9410   3.166   1.420   2.282
 2910SOL    HW2 9411   3.023   1.369   2.285
 2911SOL     OW 9412   3.144   1.451   3.009
 2911SOL    HW1 9413   3.197   1.453   3.088
 2911SOL    HW2 9414   3.089   1.373   3.019
 2912SOL     OW 9415   3.445   0.623   2.340
 2912SOL    HW1 9416   3.398   0.679   2.403
 2912SOL    HW2 9417   3.489   0.685   2.282
 2913SOL     OW 9418   2.209   1.518   3.180
 2913SOL    HW1 9419   2.195   1.480   3.093
 2913SOL    HW2 9420   2.303   1.535   3.184
 2914SOL     OW 9421   2.275   0.745   3.464
 2914SOL    HW1 9422   2.337   0.790   3.406
 2914SOL    HW2 9423   2.317   0.660   3.481
 2915SOL     OW 9424   3.462   0.778   3.543
 2915SOL    HW1 9425   3.376   0.819   3.536
 2915SOL    HW2 9426   3.514   0.821   3.475
 2916SOL     OW 9427   2.904   0.115   3.645
 2916SOL    HW1 9428   2.928   0.195   3.597
 2916SOL    HW2 9429   2.911   0.045   3.580
 2917SOL     OW 9430   2.345   0.056   3.601
 2917SOL    HW1 9431   2.288   5.292   3.558
 2917SOL    HW2 9432   2.286   0.129   3.622
 2918SOL     OW 9433   2.446   0.872   2.894
 2918SOL    HW1 9434   2.475   0.963   2.891
 2918SOL    HW2 9435   2.388   0.867   2.970
 2919SOL     OW 9436   3.221   0.859   2.893
 2919SOL    HW1 9437   3.139   0.850   2.844
 2919SOL    HW2 9438   3.260   0.772   2.889
 2920SOL     OW 9439   3.069   0.529   2.130
 2920SOL    HW1 9440   3.073   0.448   2.181
 2920SOL    HW2 9441   3.026   0.592   2.188
 2921SOL     OW 9442   2.159   0.205   3.109
 2921SOL    HW1 9443   2.120   0.243   3.187
 2921SOL    HW2 9444   2.157   0.110   3.125
 2922SOL     OW 9445   1.906   1.310   3.139
 2922SOL    HW1 9446   1.942   1.257   3.211
 2922SOL    HW2 9447   1.915   1.400   3.169
 2923SOL     OW 9448   2.588   0.632   2.923
 2923SOL    HW1 9449   2.661   0.615   2.863
 2923SOL    HW2 9450   2.559   0.720   2.900
 2924SOL     OW 9451   3.596   0.960   3.714
 2924SOL    HW1 9452   3.550   0.899   3.655
 2924SOL    HW2 9453   3.536   0.972   3.787
 2925SOL     OW 9454   2.163   0.073   2.510
 2925SOL    HW1 9455   2.148   0.167   2.520
 2925SOL    HW2 9456   2.203   0.046   2.593
 2926SOL     OW 9457   3.473   0.374   2.228
 2926SOL    HW1 9458   3.507   0.311   2.292
 2926SOL    HW2 9459   3.453   0.452   2.280
 2927SOL     OW 9460   2.889   0.760   2.823
 2927SOL    HW1 9461   2.887   0.777   2.917
 2927SOL    HW2 9462   2.863   0.668   2.815
 2928SOL     OW 9463   2.845   1.569   3.578
 2928SOL    HW1 9464   2.821   1.608   3.493
 2928SOL    HW2 9465   2.889   1.487   3.555
 2929SOL     OW 9466   3.717   1.507   3.467
 2929SOL    HW1 9467   3.736   1.533   3.377
 2929SOL    HW2 9468   3.798   1.527   3.515
 2930SOL     OW 9469   2.216   0.916   3.670
 2930SOL    HW1 9470   2.298   0.934   3.716
 2930SOL    HW2 9471   2.239   0.854   3.602
 2931SOL     OW 9472   3.389   0.273   1.988
 2931SOL    HW1 9473   3.326   0.208   2.019
 2931SOL    HW2 9474   3.425   0.311   2.069
 2932SOL     OW 9475   3.155   0.827   1.894
 2932SOL    HW1 9476   3.197   0.741   1.897
 2932SOL    HW2 9477   3.186   0.866   1.812
 2933SOL     OW 9478   2.927   1.335   2.716
 2933SOL    HW1 9479   2.930   1.263   2.654
 2933SOL    HW2 9480   2.989   1.399   2.681
 2934SOL     OW 9481   2.171   0.809   2.810
 2934SOL    HW1 9482   2.264   0.830   2.802
 2934SOL    HW2 9483   2.170   0.719   2.842
 2935SOL     OW 9484   2.195   0.525   2.874
 2935SOL    HW1 9485   2.158   0.438   2.858
 2935SOL    HW2 9486   2.271   0.530   2.817
 2936SOL     OW 9487   2.998   0.378   3.549
 2936SOL    HW1 9488   2.950   0.433   3.612
 2936SOL    HW2 9489   3.085   0.417   3.545
 2937SOL     OW 9490   2.996   0.223   3.327
 2937SOL    HW1 9491   3.001   0.281   3.403
 2937SOL    HW2 9492   3.051   0.264   3.261
 2938SOL     OW 9493   1.867   1.322   2.057
 2938SOL    HW1 9494   1.780   1.336   2.019
 2938SOL    HW2 9495   1.864   1.232   2.090
 2939SOL     OW 9496   1.950   1.791   2.796
 2939SOL    HW1 9497   1.919   1.711   2.755
 2939SOL    HW2 9498   2.041   1.800   2.768
 2940SOL     OW 9499   2.359   1.574   2.766
 2940SOL    HW1 9500   2.429   1.635   2.791
 2940SOL    HW2 9501   2.403   1.509   2.711
 2941SOL     OW 9502   2.846   0.794   3.090
 2941SOL    HW1 9503   2.901   0.769   3.164
 2941SOL    HW2 9504   2.761   0.755   3.109
 2942SOL     OW 9505   1.897   0.543   2.979
 2942SOL    HW1 9506   1.977   0.528   2.928
 2942SOL    HW2 9507   1.927   0.548   3.070
 2943SOL     OW 9508   2.049   0.521   3.588
 2943SOL    HW1 9509   2.112   0.486   3.525
 2943SOL    HW2 9510   2.008   0.594   3.543
 2944SOL     OW 9511   3.238   0.940   3.521
 2944SOL    HW1 9512   3.260   1.033   3.519
 2944SOL    HW2 9513   3.236   0.914   3.429
 2945SOL     OW 9514   2.676   0.572   2.223
 2945SOL    HW1 9515   2.679   0.497   2.163
 2945SOL    HW2 9516   2.602   0.624   2.192
 2946SOL     OW 9517   3.505   0.601   3.049
 2946SOL    HW1 9518   3.493   0.542   3.123
 2946SOL    HW2 9519   3.592   0.581   3.015
 2947SOL     OW 9520   2.110   1.550   3.590
 2947SOL    HW1 9521   2.083   1.615   3.655
 2947SOL    HW2 9522   2.108   1.466   3.636
 2948SOL     OW 9523   2.559   0.453   3.123
 2948SOL    HW1 9524   2.509   0.379   3.089
 2948SOL    HW2 9525   2.559   0.516   3.052
 2949SOL     OW 9526   2.761   1.684   3.336
 2949SOL    HW1 9527   2.767   1.649   3.247
 2949SOL    HW2 9528   2.821   1.758   3.337
 2950SOL     OW 9529   2.326   0.493   2.046
 2950SOL    HW1 9530   2.386   0.564   2.069
 2950SOL    HW2 9531   2.241   0.535   2.037
 2951SOL     OW 9532   2.009   1.140   3.334
 2951SOL    HW1 9533   2.011   1.088   3.414
 2951SOL    HW2 9534   2.025   1.078   3.264
 2952SOL     OW 9535   3.189   1.048   3.086
 2952SOL    HW1 9536   3.213   0.984   3.018
 2952SOL    HW2 9537   3.118   1.099   3.047
 2953SOL     OW 9538   3.172   0.857   2.169
 2953SOL    HW1 9539   3.096   0.825   2.218
 2953SOL    HW2 9540   3.149   0.843   2.077
 2954SOL     OW 9541   3.633   1.744   3.012
 2954SOL    HW1 9542   3.693   1.770   2.942
 2954SOL    HW2 9543   3.609   1.654   2.991
 2955SOL     OW 9544   3.122   1.723   2.983
 2955SOL    HW1 9545   3.200   1.743   2.932
 2955SOL    HW2 9546   3.125   1.628   2.995
 2956SOL     OW 9547   1.947   1.266   2.875
 2956SOL    HW1 9548   1.932   1.279   2.969
 2956SOL    HW2 9549   1.872   1.213   2.846
 2957SOL     OW 9550   2.541   1.665   3.586
 2957SOL    HW1 9551   2.485   1.740   3.568
 2957SOL    HW2 9552   2.612   1.672   3.523
 2958SOL     OW 9553   3.575   0.147   2.366
 2958SOL    HW1 9554   3.650   0.127   2.311
 2958SOL    HW2 9555   3.567   0.072   2.425
 2959SOL     OW 9556   3.252   1.568   2.346
 2959SOL    HW1 9557   3.313   1.599   2.279
 2959SOL    HW2 9558   3.204   1.646   2.374
 2960SOL     OW 9559   2.001   1.793   3.705
 2960SOL    HW1 9560   1.951   1.728   3.754
 2960SOL    HW2 9561   2.042   1.847   3.773
 2961SOL     OW 9562   3.139   0.925   2.533
 2961SOL    HW1 9563   3.213   0.864   2.539
 2961SOL    HW2 9564   3.173   0.998   2.481
 2962SOL     OW 9565   2.678   1.273   3.292
 2962SOL    HW1 9566   2.649   1.312   3.375
 2962SOL    HW2 9567   2.606   1.292   3.231
 2963SOL     OW 9568   2.535   1.617   2.018
 2963SOL    HW1 9569   2.543   1.631   1.924
 2963SOL    HW2 9570   2.479   1.540   2.026
 2964SOL     OW 9571   3.490   1.734   3.254
 2964SOL    HW1 9572   3.541   1.731   3.173
 2964SOL    HW2 9573   3.480   1.828   3.272
 2965SOL     OW 9574   3.707   0.158   2.820
 2965SOL    HW1 9575   3.709   0.064   2.803
 2965SOL    HW2 9576   3.620   0.186   2.792
 2966SOL     OW 9577   2.125   0.329   2.582
 2966SOL    HW1 9578   2.037   0.360   2.559
 2966SOL    HW2 9579   2.122   0.317   2.677
 2967SOL     OW 9580   3.069   1.607   1.893
 2967SOL    HW1 9581   3.059   1.515   1.920
 2967SOL    HW2 9582   3.004   1.618   1.824
 2968SOL     OW 9583   2.686   1.005   3.234
 2968SOL    HW1 9584   2.730   1.000   3.149
 2968SOL    HW2 9585   2.687   1.099   3.256
 2969SOL     OW 9586   2.778   0.911   2.152
 2969SOL    HW1 9587   2.839   0.942   2.086
 2969SOL    HW2 9588   2.825   0.840   2.197
 2970SOL     OW 9589   3.355   1.625   1.904
 2970SOL    HW1 9590   3.260   1.619   1.891
 2970SOL    HW2 9591   3.391   1.631   1.816
 2971SOL     OW 9592   2.232   1.300   3.354
 2971SOL    HW1 9593   2.219   1.378   3.300
 2971SOL    HW2 9594   2.155   1.246   3.338
 2972SOL     OW 9595   3.473   1.282   3.143
 2972SOL    HW1 9596   3.534   1.273   3.216
 2972SOL    HW2 9597   3.413   1.352   3.170
 2973SOL     OW 9598   2.913   1.107   2.569
 2973SOL    HW1 9599   2.842   1.055   2.607
 2973SOL    HW2 9600   2.974   1.042   2.535
 2974SOL     OW 9601   2.882   0.243   2.830
 2974SOL    HW1 9602   2.862   0.197   2.748
 2974SOL    HW2 9603   2.874   0.175   2.897
 2975SOL     OW 9604   2.464   1.488   2.344
 2975SOL    HW1 9605   2.508   1.438   2.275
 2975SOL    HW2 9606   2.397   1.538   2.298
 2976SOL     OW 9607   3.585   0.387   3.240
 2976SOL    HW1 9608   3.655   0.452   3.240
 2976SOL    HW2 9609   3.617   0.317   3.183
 2977SOL     OW 9610   2.121   1.346   2.150
 2977SOL    HW1 9611   2.028   1.344   2.127
 2977SOL    HW2 9612   2.123   1.382   2.238
 2978SOL     OW 9613   1.975   1.021   3.582
 2978SOL    HW1 9614   1.898   0.998   3.635
 2978SOL    HW2 9615   2.049   0.983   3.629
 2979SOL     OW 9616   2.534   0.210   3.349
 2979SOL    HW1 9617   2.617   0.193   3.306
 2979SOL    HW2 9618   2.557   0.259   3.428
 2980SOL     OW 9619   1.939   0.340   1.903
 2980SOL    HW1 9620   1.856   0.307   1.869
 2980SOL    HW2 9621   1.961   0.413   1.845
 2981SOL     OW 9622   3.293   0.859   3.263
 2981SOL    HW1 9623   3.244   0.919   3.207
 2981SOL    HW2 9624   3.382   0.861   3.229
 2982SOL     OW 9625   1.934   0.167   2.178
 2982SOL    HW1 9626   1.934   0.250   2.130
 2982SOL    HW2 9627   2.019   0.127   2.158
 2983SOL     OW 9628   3.041   1.340   1.979
 2983SOL    HW1 9629   2.951   1.310   1.982
 2983SOL    HW2 9630   3.070   1.340   2.070
 2984SOL     OW 9631   2.481   0.831   3.295
 2984SOL    HW1 9632   2.536   0.907   3.280
 2984SOL    HW2 9633   2.542   0.758   3.304
 2985SOL     OW 9634   3.349   1.771   2.835
 2985SOL    HW1 9635   3.369   1.835   2.767
 2985SOL    HW2 9636   3.432   1.760   2.882
 2986SOL     OW 9637   2.578   0.572   3.565
 2986SOL    HW1 9638   2.617   0.635   3.625
 2986SOL    HW2 9639   2.610   0.487   3.596
 2987SOL     OW 9640   3.332   1.201   3.494
 2987SOL    HW1 9641   3.321   1.215   3.588
 2987SOL    HW2 9642   3.426   1.215   3.479
 2988SOL     OW 9643   2.256   1.738   3.421
 2988SOL    HW1 9644   2.172   1.783   3.409
 2988SOL    HW2 9645   2.233   1.656   3.466
 2989SOL     OW 9646   3.532   0.881   3.117
 2989SOL    HW1 9647   3.525   0.796   3.075
 2989SOL    HW2 9648   3.523   0.945   3.046
 2990SOL     OW 9649   3.082   0.320   2.328
 2990SOL    HW1 9650   3.145   0.248   2.320
 2990SOL    HW2 9651   3.114   0.371   2.403
 2991SOL     OW 9652   2.452   0.739   2.531
 2991SOL    HW1 9653   2.491   0.825   2.514
 2991SOL    HW2 9654   2.384   0.731   2.465
 2992SOL     OW 9655   3.629   0.361   3.511
 2992SOL    HW1 9656   3.609   0.375   3.418
 2992SOL    HW2 9657   3.558   0.305   3.542
 2993SOL     OW 9658   3.606   0.934   3.374
 2993SOL    HW1 9659   3.606   1.028   3.387
 2993SOL    HW2 9660   3.591   0.922   3.281
 2994SOL     OW 9661   2.723   1.368   1.894
 2994SOL    HW1 9662   2.685   1.396   1.978
 2994SOL    HW2 9663   2.743   1.449   1.848
 2995SOL     OW 9664   2.524   1.791   2.809
 2995SOL    HW1 9665   2.505   1.882   2.786
 2995SOL    HW2 9666   2.619   1.782   2.801
 2996SOL     OW 9667   2.728   0.966   2.718
 2996SOL    HW1 9668   2.779   0.895   2.757
 2996SOL    HW2 9669   2.695   1.016   2.792
 2997SOL     OW 9670   2.941   0.988   1.950
 2997SOL    HW1 9671   2.920   1.038   1.872
 2997SOL    HW2 9672   3.016   0.935   1.925
 2998SOL     OW 9673   3.717   1.555   2.707
 2998SOL    HW1 9674   3.639   1.544   2.652
 2998SOL    HW2 9675   3.709   1.487   2.773
 2999SOL     OW 9676   2.086   1.303   3.718
 2999SOL    HW1 9677   2.020   1.241   3.686
 2999SOL    HW2 9678   2.066   1.314   3.811
 3000SOL     OW 9679   1.946   1.234   2.526
 3000SOL    HW1 9680   1.950   1.185   2.608
 3000SOL    HW2 9681   2.014   1.195   2.472
 3001SOL     OW 9682   2.542   1.403   3.488
 3001SOL    HW1 9683   2.463   1.358   3.517
 3001SOL    HW2 9684   2.535   1.491   3.526
 3002SOL     OW 9685   3.677   0.178   3.095
 3002SOL    HW1 9686   3.646   0.088   3.103
 3002SOL    HW2 9687   3.694   0.190   3.002
 3003SOL     OW 9688   2.291   0.435   2.386
 3003SOL    HW1 9689   2.323   0.362   2.332
 3003SOL    HW2 9690   2.246   0.393   2.458
 3004SOL     OW 9691   3.562   1.490   2.961
 3004SOL    HW1 9692   3.481   1.466   2.915
 3004SOL    HW2 9693   3.575   1.420   3.025
 3005SOL     OW 9694   2.190   0.555   3.152
 3005SOL    HW1 9695   2.246   0.500   3.207
 3005SOL    HW2 9696   2.210   0.528   3.063
 3006SOL     OW 9697   2.688   1.577   2.539
 3006SOL    HW1 9698   2.678   1.629   2.459
 3006SOL    HW2 9699   2.611   1.521   2.541
 3007SOL     OW 9700   3.290   0.218   2.978
 3007SOL    HW1 9701   3.327   0.144   3.026
 3007SOL    HW2 9702   3.242   0.267   3.045
 3008SOL     OW 9703   2.865   0.022   3.003
 3008SOL    HW1 9704   2.814   5.252   2.962
 3008SOL    HW2 9705   2.951   5.284   3.016
 3009SOL     OW 9706   2.633   1.332   2.176
 3009SOL    HW1 9707   2.601   1.242   2.182
 3009SOL    HW2 9708   2.716   1.332   2.224
 3010SOL     OW 9709   2.480   1.559   3.147
 3010SOL    HW1 9710   2.486   1.634   3.206
 3010SOL    HW2 9711   2.568   1.551   3.110
 3011SOL     OW 9712   3.218   0.040   2.023
 3011SOL    HW1 9713   3.248   5.296   1.944
 3011SOL    HW2 9714   3.138   5.294   2.047
 3012SOL     OW 9715   3.163   0.464   2.547
 3012SOL    HW1 9716   3.108   0.541   2.553
 3012SOL    HW2 9717   3.157   0.423   2.634
 3013SOL     OW 9718   3.456   0.216   2.744
 3013SOL    HW1 9719   3.389   0.227   2.811
 3013SOL    HW2 9720   3.449   0.294   2.689
 3014SOL     OW 9721   1.906   1.072   2.167
 3014SOL    HW1 9722   1.999   1.063   2.150
 3014SOL    HW2 9723   1.877   0.983   2.190
 3015SOL     OW 9724   2.745   1.651   2.205
 3015SOL    HW1 9725   2.673   1.634   2.144
 3015SOL    HW2 9726   2.716   1.726   2.256
 3016SOL     OW 9727   2.091   0.626   3.846
 3016SOL    HW1 9728   2.002   0.622   3.881
 3016SOL    HW2 9729   2.082   0.598   3.755
 3017SOL     OW 9730   2.081   0.283   4.716
 3017SOL    HW1 9731   2.110   0.249   4.801
 3017SOL    HW2 9732   1.995   0.243   4.702
 3018SOL     OW 9733   1.867   0.385   4.362
 3018SOL    HW1 9734   1.782   0.406   4.402
 3018SOL    HW2 9735   1.849   0.308   4.309
 3019SOL     OW 9736   2.428   1.286   4.897
 3019SOL    HW1 9737   2.340   1.291   4.860
 3019SOL    HW2 9738   2.445   1.374   4.932
 3020SOL     OW 9739   3.419   1.512   4.429
 3020SOL    HW1 9740   3.377   1.488   4.512
 3020SOL    HW2 9741   3.348   1.517   4.366
 3021SOL     OW 9742   2.993   0.698   4.426
 3021SOL    HW1 9743   3.042   0.779   4.412
 3021SOL    HW2 9744   2.945   0.713   4.508
 3022SOL     OW 9745   3.627   0.607   3.953
 3022SOL    HW1 9746   3.608   0.599   3.860
 3022SOL    HW2 9747   3.593   0.526   3.992
 3023SOL     OW 9748   2.618   1.143   4.764
 3023SOL    HW1 9749   2.549   1.176   4.820
 3023SOL    HW2 9750   2.653   1.220   4.720
 3024SOL     OW 9751   2.726   0.779   5.546
 3024SOL    HW1 9752   2.715   0.850   5.608
 3024SOL    HW2 9753   2.751   0.822   5.464
 3025SOL     OW 9754   2.548   1.005   4.371
 3025SOL    HW1 9755   2.613   0.992   4.441
 3025SOL    HW2 9756   2.478   1.056   4.413
 3026SOL     OW 9757   2.572   1.151   5.535
 3026SOL    HW1 9758   2.619   1.230   5.561
 3026SOL    HW2 9759   2.488   1.184   5.501
 3027SOL     OW 9760   2.192   1.424   4.793
 3027SOL    HW1 9761   2.119   1.389   4.743
 3027SOL    HW2 9762   2.242   1.476   4.730
 3028SOL     OW 9763   3.323   1.500   5.076
 3028SOL    HW1 9764   3.374   1.581   5.089
 3028SOL    HW2 9765   3.263   1.498   5.151
 3029SOL     OW 9766   2.305   0.398   5.212
 3029SOL    HW1 9767   2.380   0.339   5.209
 3029SOL    HW2 9768   2.230   0.341   5.226
 3030SOL     OW 9769   3.473   0.451   4.462
 3030SOL    HW1 9770   3.397   0.476   4.409
 3030SOL    HW2 9771   3.493   0.530   4.514
 3031SOL     OW 9772   2.082   1.736   4.196
 3031SOL    HW1 9773   2.126   1.769   4.274
 3031SOL    HW2 9774   2.154   1.708   4.139
 3032SOL     OW 9775   2.998   1.341   5.416
 3032SOL    HW1 9776   3.038   1.337   5.502
 3032SOL    HW2 9777   2.946   1.262   5.410
 3033SOL     OW 9778   2.086   1.446   4.258
 3033SOL    HW1 9779   2.059   1.536   4.276
 3033SOL    HW2 9780   2.034   1.393   4.318
 3034SOL     OW 9781   2.118   1.090   4.614
 3034SOL    HW1 9782   2.115   1.004   4.656
 3034SOL    HW2 9783   2.061   1.145   4.668
 3035SOL     OW 9784   2.480   1.786   5.163
 3035SOL    HW1 9785   2.395   1.772   5.204
 3035SOL    HW2 9786   2.498   1.879   5.177
 3036SOL     OW 9787   2.448   0.981   3.858
 3036SOL    HW1 9788   2.493   1.030   3.789
 3036SOL    HW2 9789   2.489   1.011   3.939
 3037SOL     OW 9790   3.448   0.134   5.181
 3037SOL    HW1 9791   3.468   0.219   5.142
 3037SOL    HW2 9792   3.447   0.151   5.275
 3038SOL     OW 9793   1.976   0.653   4.283
 3038SOL    HW1 9794   1.949   0.564   4.304
 3038SOL    HW2 9795   1.969   0.701   4.366
 3039SOL     OW 9796   3.704   1.760   4.061
 3039SOL    HW1 9797   3.768   1.732   4.126
 3039SOL    HW2 9798   3.728   1.850   4.040
 3040SOL     OW 9799   1.898   1.595   3.851
 3040SOL    HW1 9800   1.879   1.502   3.863
 3040SOL    HW2 9801   1.863   1.637   3.930
 3041SOL     OW 9802   3.552   0.919   4.364
 3041SOL    HW1 9803   3.635   0.877   4.344
 3041SOL    HW2 9804   3.530   0.968   4.285
 3042SOL     OW 9805   3.507   1.107   4.153
 3042SOL    HW1 9806   3.593   1.113   4.111
 3042SOL    HW2 9807   3.513   1.168   4.227
 3043SOL     OW 9808   1.984   0.743   5.309
 3043SOL    HW1 9809   2.076   0.768   5.319
 3043SOL    HW2 9810   1.937   0.826   5.318
 3044SOL     OW 9811   2.480   1.384   4.457
 3044SOL    HW1 9812   2.433   1.302   4.468
 3044SOL    HW2 9813   2.462   1.411   4.367
 3045SOL     OW 9814   3.153   1.239   5.147
 3045SOL    HW1 9815   3.185   1.171   5.088
 3045SOL    HW2 9816   3.209   1.232   5.224
 3046SOL     OW 9817   2.671   0.025   4.250
 3046SOL    HW1 9818   2.700   0.113   4.226
 3046SOL    HW2 9819   2.576   0.029   4.245
 3047SOL     OW 9820   2.053   0.967   4.994
 3047SOL    HW1 9821   2.137   0.925   4.979
 3047SOL    HW2 9822   1.990   0.911   4.949
 3048SOL     OW 9823   3.393   0.993   3.921
 3048SOL    HW1 9824   3.324   0.936   3.953
 3048SOL    HW2 9825   3.434   1.027   4.001
 3049SOL     OW 9826   3.049   1.803   5.349
 3049SOL    HW1 9827   3.056   1.863   5.275
 3049SOL    HW2 9828   3.064   1.716   5.311
 3050SOL     OW 9829   2.188   0.265   5.534
 3050SOL    HW1 9830   2.240   0.341   5.560
 3050SOL    HW2 9831   2.102   0.280   5.573
 3051SOL     OW 9832   3.320   1.423   4.672
 3051SOL    HW1 9833   3.257   1.433   4.743
 3051SOL    HW2 9834   3.314   1.331   4.646
 3052SOL     OW 9835   3.522   1.738   4.303
 3052SOL    HW1 9836   3.501   1.712   4.214
 3052SOL    HW2 9837   3.497   1.663   4.357
 3053SOL     OW 9838   2.457   0.722   3.989
 3053SOL    HW1 9839   2.463   0.802   3.938
 3053SOL    HW2 9840   2.391   0.741   4.057
 3054SOL     OW 9841   3.140   0.345   4.654
 3054SOL    HW1 9842   3.050   0.317   4.667
 3054SOL    HW2 9843   3.190   0.296   4.720
 3055SOL     OW 9844   3.448   1.660   4.032
 3055SOL    HW1 9845   3.535   1.699   4.026
 3055SOL    HW2 9846   3.420   1.649   3.941
 3056SOL     OW 9847   2.657   0.617   5.175
 3056SOL    HW1 9848   2.629   0.597   5.264
 3056SOL    HW2 9849   2.613   0.552   5.120
 3057SOL     OW 9850   3.257   0.475   5.402
 3057SOL    HW1 9851   3.258   0.519   5.487
 3057SOL    HW2 9852   3.321   0.404   5.411
 3058SOL     OW 9853   2.818   0.888   5.306
 3058SOL    HW1 9854   2.872   0.817   5.271
 3058SOL    HW2 9855   2.770   0.922   5.230
 3059SOL     OW 9856   2.856   0.416   4.960
 3059SOL    HW1 9857   2.772   0.439   5.000
 3059SOL    HW2 9858   2.832   0.368   4.881
 3060SOL     OW 9859   2.912   0.698   4.151
 3060SOL    HW1 9860   2.927   0.691   4.245
 3060SOL    HW2 9861   2.830   0.652   4.136
 3061SOL     OW 9862   1.951   0.821   4.500
 3061SOL    HW1 9863   2.032   0.814   4.550
 3061SOL    HW2 9864   1.908   0.899   4.535
 3062SOL     OW 9865   1.989   1.849   5.303
 3062SOL    HW1 9866   1.988   1.826   5.396
 3062SOL    HW2 9867   1.898   1.838   5.274
 3063SOL     OW 9868   2.734   0.362   3.913
 3063SOL    HW1 9869   2.778   0.422   3.853
 3063SOL    HW2 9870   2.783   0.281   3.908
 3064SOL     OW 9871   3.571   0.575   5.552
 3064SOL    HW1 9872   3.533   0.650   5.504
 3064SOL    HW2 9873   3.599   0.515   5.483
 3065SOL     OW 9874   3.239   1.142   4.266
 3065SOL    HW1 9875   3.318   1.128   4.213
 3065SOL    HW2 9876   3.187   1.204   4.214
 3066SOL     OW 9877   2.390   0.201   4.607
 3066SOL    HW1 9878   2.412   0.216   4.699
 3066SOL    HW2 9879   2.411   0.284   4.564
 3067SOL     OW 9880   2.873   1.442   4.200
 3067SOL    HW1 9881   2.830   1.513   4.152
 3067SOL    HW2 9882   2.859   1.465   4.293
 3068SOL     OW 9883   3.661   1.058   4.592
 3068SOL    HW1 9884   3.606   1.040   4.516
 3068SOL    HW2 9885   3.599   1.063   4.665
 3069SOL     OW 9886   3.090   1.538   5.235
 3069SOL    HW1 9887   3.076   1.466   5.297
 3069SOL    HW2 9888   3.023   1.526   5.168
 3070SOL     OW 9889   2.182   0.957   3.973
 3070SOL    HW1 9890   2.265   0.975   3.927
 3070SOL    HW2 9891   2.151   0.875   3.935
 3071SOL     OW 9892   3.339   0.742   4.452
 3071SOL    HW1 9893   3.330   0.697   4.536
 3071SOL    HW2 9894   3.417   0.797   4.462
 3072SOL     OW 9895   2.327   1.263   5.462
 3072SOL    HW1 9896   2.300   1.268   5.371
 3072SOL    HW2 9897   2.245   1.263   5.512
 3073SOL     OW 9898   2.978   1.772   3.954
 3073SOL    HW1 9899   2.909   1.721   3.996
 3073SOL    HW2 9900   3.007   1.716   3.881
 3074SOL     OW 9901   2.059   0.278   5.226
 3074SOL    HW1 9902   1.980   0.332   5.221
 3074SOL    HW2 9903   2.050   0.230   5.308
 3075SOL     OW 9904   3.491   1.379   3.812
 3075SOL    HW1 9905   3.450   1.464   3.796
 3075SOL    HW2 9906   3.422   1.316   3.792
 3076SOL     OW 9907   2.336   1.720   4.074
 3076SOL    HW1 9908   2.387   1.791   4.114
 3076SOL    HW2 9909   2.386   1.696   3.995
 3077SOL     OW 9910   3.268   0.100   4.155
 3077SOL    HW1 9911   3.260   0.082   4.061
 3077SOL    HW2 9912   3.361   0.122   4.167
 3078SOL     OW 9913   2.088   1.769   4.965
 3078SOL    HW1 9914   2.164   1.728   5.006
 3078SOL    HW2 9915   2.114   1.781   4.874
 3079SOL     OW 9916   2.792   1.700   4.633
 3079SOL    HW1 9917   2.878   1.660   4.642
 3079SOL    HW2 9918   2.757   1.664   4.552
 3080SOL     OW 9919   2.254   0.696   4.201
 3080SOL    HW1 9920   2.276   0.604   4.211
 3080SOL    HW2 9921   2.160   0.701   4.219
 3081SOL     OW 9922   3.402   0.228   5.448
 3081SOL    HW1 9923   3.409   0.246   5.542
 3081SOL    HW2 9924   3.327   0.169   5.440
 3082SOL     OW 9925   2.486   0.133   3.831
 3082SOL    HW1 9926   2.552   0.067   3.854
 3082SOL    HW2 9927   2.435   0.092   3.761
 3083SOL     OW 9928   2.645   0.313   5.490
 3083SOL    HW1 9929   2.701   0.235   5.492
 3083SOL    HW2 9930   2.595   0.307   5.572
 3084SOL     OW 9931   2.737   1.519   4.919
 3084SOL    HW1 9932   2.723   1.487   4.830
 3084SOL    HW2 9933   2.808   1.464   4.953
 3085SOL     OW 9934   3.204   0.588   5.156
 3085SOL    HW1 9935   3.234   0.557   5.241
 3085SOL    HW2 9936   3.239   0.677   5.149
 3086SOL     OW 9937   2.676   1.394   4.662
 3086SOL    HW1 9938   2.761   1.385   4.618
 3086SOL    HW2 9939   2.612   1.393   4.592
 3087SOL     OW 9940   2.789   0.510   4.627
 3087SOL    HW1 9941   2.766   0.502   4.535
 3087SOL    HW2 9942   2.821   0.423   4.652
 3088SOL     OW 9943   2.404   0.063   4.233
 3088SOL    HW1 9944   2.318   0.062   4.276
 3088SOL    HW2 9945   2.397   0.133   4.168
 3089SOL     OW 9946   3.290   1.198   3.765
 3089SOL    HW1 9947   3.322   1.122   3.814
 3089SOL    HW2 9948   3.204   1.217   3.803
 3090SOL     OW 9949   2.163   0.061   3.914
 3090SOL    HW1 9950   2.222   0.130   3.883
 3090SOL    HW2 9951   2.219   5.285   3.927
 3091SOL     OW 9952   2.801   0.259   4.186
 3091SOL    HW1 9953   2.772   0.299   4.103
 3091SOL    HW2 9954   2.896   0.271   4.187
 3092SOL     OW 9955   2.943   0.681   5.183
 3092SOL    HW1 9956   2.873   0.615   5.189
 3092SOL    HW2 9957   3.023   0.629   5.177
 3093SOL     OW 9958   3.083   1.561   4.518
 3093SOL    HW1 9959   3.097   1.643   4.470
 3093SOL    HW2 9960   3.149   1.561   4.586
 3094SOL     OW 9961   2.330   1.150   4.458
 3094SOL    HW1 9962   2.261   1.131   4.522
 3094SOL    HW2 9963   2.290   1.133   4.373
 3095SOL     OW 9964   2.889   0.547   3.745
 3095SOL    HW1 9965   2.846   0.631   3.727
 3095SOL    HW2 9966   2.952   0.567   3.814
 3096SOL     OW 9967   1.940   0.554   5.117
 3096SOL    HW1 9968   2.031   0.553   5.089
 3096SOL    HW2 9969   1.935   0.624   5.181
 3097SOL     OW 9970   2.418   0.237   4.882
 3097SOL    HW1 9971   2.449   0.151   4.910
 3097SOL    HW2 9972   2.326   0.240   4.908
 3098SOL     OW 9973   2.730   0.462   4.365
 3098SOL    HW1 9974   2.683   0.515   4.300
 3098SOL    HW2 9975   2.752   0.381   4.318
 3099SOL     OW 9976   2.840   0.061   4.486
 3099SOL    HW1 9977   2.775   0.054   4.416
 3099SOL    HW2 9978   2.850   5.271   4.518
 3100SOL     OW 9979   3.299   1.165   4.581
 3100SOL    HW1 9980   3.231   1.097   4.582
 3100SOL    HW2 9981   3.323   1.174   4.489
 3101SOL     OW 9982   3.329   0.605   4.703
 3101SOL    HW1 9983   3.280   0.522   4.707
 3101SOL    HW2 9984   3.390   0.600   4.777
 3102SOL     OW 9985   3.708   0.817   4.106
 3102SOL    HW1 9986   3.764   0.766   4.164
 3102SOL    HW2 9987   3.679   0.755   4.039
 3103SOL     OW 9988   2.351   1.419   3.881
 3103SOL    HW1 9989   2.277   1.388   3.933
 3103SOL    HW2 9990   2.338   1.380   3.795
 3104SOL     OW 9991   3.531   1.265   4.371
 3104SOL    HW1 9992   3.626   1.267   4.384
 3104SOL    HW2 9993   3.502   1.354   4.391
 3105SOL     OW 9994   3.256   0.572   3.795
 3105SOL    HW1 9995   3.195   0.552   3.867
 3105SOL    HW2 9996   3.341   0.540   3.827
 3106SOL     OW 9997   2.386   0.264   4.045
 3106SOL    HW1 9998   2.430   0.215   3.976
 3106SOL    HW2 9999   2.366   0.349   4.006
 3107SOL     OW10000   3.615   1.238   5.298
 3107SOL    HW110001   3.702   1.199   5.295
 3107SOL    HW210002   3.630   1.328   5.327
 3108SOL     OW10003   2.922   1.352   5.057
 3108SOL    HW110004   2.847   1.322   5.109
 3108SOL    HW210005   2.997   1.312   5.100
 3109SOL     OW10006   3.469   1.625   5.377
 3109SOL    HW110007   3.464   1.660   5.288
 3109SOL    HW210008   3.552   1.578   5.380
 3110SOL     OW10009   2.990   1.203   4.829
 3110SOL    HW110010   2.932   1.240   4.896
 3110SOL    HW210011   2.954   1.234   4.746
 3111SOL     OW10012   3.491   1.099   4.802
 3111SOL    HW110013   3.487   1.160   4.875
 3111SOL    HW210014   3.411   1.115   4.753
 3112SOL     OW10015   2.767   0.106   5.115
 3112SOL    HW110016   2.797   0.072   5.030
 3112SOL    HW210017   2.844   0.148   5.153
 3113SOL     OW10018   2.846   1.115   5.446
 3113SOL    HW110019   2.754   1.131   5.467
 3113SOL    HW210020   2.845   1.037   5.391
 3114SOL     OW10021   2.571   1.062   4.095
 3114SOL    HW110022   2.557   1.045   4.189
 3114SOL    HW210023   2.646   1.008   4.073
 3115SOL     OW10024   2.280   0.814   4.975
 3115SOL    HW110025   2.349   0.824   5.041
 3115SOL    HW210026   2.245   0.727   4.990
 3116SOL     OW10027   3.129   0.379   4.996
 3116SOL    HW110028   3.162   0.456   5.043
 3116SOL    HW210029   3.039   0.401   4.973
 3117SOL     OW10030   1.928   1.568   5.076
 3117SOL    HW110031   1.898   1.644   5.026
 3117SOL    HW210032   2.024   1.575   5.073
 3118SOL     OW10033   2.212   1.109   4.215
 3118SOL    HW110034   2.216   1.180   4.151
 3118SOL    HW210035   2.210   1.029   4.162
 3119SOL     OW10036   2.416   0.538   4.585
 3119SOL    HW110037   2.432   0.596   4.510
 3119SOL    HW210038   2.481   0.565   4.650
 3120SOL     OW10039   3.113   1.350   4.113
 3120SOL    HW110040   3.167   1.423   4.144
 3120SOL    HW210041   3.025   1.368   4.148
 3121SOL     OW10042   3.141   1.456   4.872
 3121SOL    HW110043   3.196   1.458   4.951
 3121SOL    HW210044   3.084   1.380   4.884
 3122SOL     OW10045   3.444   0.623   4.202
 3122SOL    HW110046   3.398   0.679   4.265
 3122SOL    HW210047   3.490   0.685   4.145
 3123SOL     OW10048   2.213   1.516   5.045
 3123SOL    HW110049   2.197   1.480   4.957
 3123SOL    HW210050   2.307   1.533   5.047
 3124SOL     OW10051   2.276   0.744   5.326
 3124SOL    HW110052   2.336   0.790   5.268
 3124SOL    HW210053   2.318   0.660   5.344
 3125SOL     OW10054   3.462   0.778   5.405
 3125SOL    HW110055   3.376   0.819   5.398
 3125SOL    HW210056   3.514   0.820   5.337
 3126SOL     OW10057   2.904   0.115   5.507
 3126SOL    HW110058   2.928   0.195   5.460
 3126SOL    HW210059   2.911   0.046   5.442
 3127SOL     OW10060   2.344   0.056   5.463
 3127SOL    HW110061   2.288   5.292   5.420
 3127SOL    HW210062   2.286   0.129   5.484
 3128SOL     OW10063   2.445   0.873   4.755
 3128SOL    HW110064   2.475   0.964   4.754
 3128SOL    HW210065   2.388   0.867   4.832
 3129SOL     OW10066   3.221   0.859   4.754
 3129SOL    HW110067   3.138   0.850   4.707
 3129SOL    HW210068   3.260   0.772   4.750
 3130SOL     OW10069   3.069   0.529   3.992
 3130SOL    HW110070   3.073   0.448   4.043
 3130SOL    HW210071   3.026   0.591   4.051
 3131SOL     OW10072   2.159   0.204   4.971
 3131SOL    HW110073   2.120   0.244   5.049
 3131SOL    HW210074   2.157   0.110   4.987
 3132SOL     OW10075   1.905   1.309   5.000
 3132SOL    HW110076   1.941   1.256   5.072
 3132SOL    HW210077   1.915   1.400   5.030
 3133SOL     OW10078   2.588   0.632   4.784
 3133SOL    HW110079   2.661   0.615   4.725
 3133SOL    HW210080   2.559   0.721   4.762
 3134SOL     OW10081   3.596   0.959   5.576
 3134SOL    HW110082   3.549   0.899   5.517
 3134SOL    HW210083   3.536   0.972   5.650
 3135SOL     OW10084   2.163   0.073   4.372
 3135SOL    HW110085   2.148   0.167   4.382
 3135SOL    HW210086   2.203   0.046   4.455
 3136SOL     OW10087   3.473   0.374   4.090
 3136SOL    HW110088   3.507   0.311   4.154
 3136SOL    HW210089   3.453   0.452   4.142
 3137SOL     OW10090   2.890   0.759   4.685
 3137SOL    HW110091   2.887   0.777   4.779
 3137SOL    HW210092   2.863   0.668   4.677
 3138SOL     OW10093   2.845   1.566   5.439
 3138SOL    HW110094   2.829   1.611   5.356
 3138SOL    HW210095   2.887   1.484   5.415
 3139SOL     OW10096   3.717   1.507   5.329
 3139SOL    HW110097   3.735   1.533   5.239
 3139SOL    HW210098   3.798   1.526   5.376
 3140SOL     OW10099   2.215   0.915   5.533
 3140SOL    HW110100   2.297   0.935   5.578
 3140SOL    HW210101   2.239   0.853   5.464
 3141SOL     OW10102   3.389   0.273   3.850
 3141SOL    HW110103   3.326   0.208   3.881
 3141SOL    HW210104   3.425   0.311   3.931
 3142SOL     OW10105   3.155   0.827   3.756
 3142SOL    HW110106   3.197   0.741   3.759
 3142SOL    HW210107   3.186   0.866   3.674
 3143SOL     OW10108   2.926   1.333   4.576
 3143SOL    HW110109   2.930   1.260   4.514
 3143SOL    HW210110   2.988   1.398   4.541
 3144SOL     OW10111   2.171   0.809   4.672
 3144SOL    HW110112   2.264   0.831   4.665
 3144SOL    HW210113   2.170   0.719   4.705
 3145SOL     OW10114   2.195   0.525   4.736
 3145SOL    HW110115   2.158   0.438   4.720
 3145SOL    HW210116   2.271   0.530   4.679
 3146SOL     OW10117   2.997   0.378   5.411
 3146SOL    HW110118   2.950   0.433   5.474
 3146SOL    HW210119   3.085   0.417   5.407
 3147SOL     OW10120   2.996   0.222   5.189
 3147SOL    HW110121   3.001   0.281   5.265
 3147SOL    HW210122   3.051   0.265   5.123
 3148SOL     OW10123   1.867   1.321   3.919
 3148SOL    HW110124   1.780   1.335   3.881
 3148SOL    HW210125   1.865   1.232   3.952
 3149SOL     OW10126   1.937   1.792   4.649
 3149SOL    HW110127   1.918   1.706   4.612
 3149SOL    HW210128   2.031   1.804   4.636
 3150SOL     OW10129   2.351   1.566   4.628
 3150SOL    HW110130   2.414   1.631   4.661
 3150SOL    HW210131   2.404   1.506   4.575
 3151SOL     OW10132   2.847   0.793   4.951
 3151SOL    HW110133   2.902   0.769   5.026
 3151SOL    HW210134   2.761   0.757   4.972
 3152SOL     OW10135   1.897   0.543   4.841
 3152SOL    HW110136   1.978   0.529   4.791
 3152SOL    HW210137   1.927   0.548   4.932
 3153SOL     OW10138   2.049   0.521   5.450
 3153SOL    HW110139   2.112   0.487   5.387
 3153SOL    HW210140   2.007   0.595   5.405
 3154SOL     OW10141   3.239   0.940   5.383
 3154SOL    HW110142   3.260   1.033   5.382
 3154SOL    HW210143   3.236   0.914   5.291
 3155SOL     OW10144   2.676   0.572   4.084
 3155SOL    HW110145   2.680   0.497   4.025
 3155SOL    HW210146   2.602   0.624   4.054
 3156SOL     OW10147   3.505   0.602   4.911
 3156SOL    HW110148   3.493   0.542   4.985
 3156SOL    HW210149   3.592   0.581   4.877
 3157SOL     OW10150   2.106   1.552   5.453
 3157SOL    HW110151   2.084   1.616   5.520
 3157SOL    HW210152   2.107   1.468   5.499
 3158SOL     OW10153   2.559   0.452   4.985
 3158SOL    HW110154   2.509   0.379   4.951
 3158SOL    HW210155   2.559   0.516   4.914
 3159SOL     OW10156   2.795   1.678   5.188
 3159SOL    HW110157   2.764   1.645   5.103
 3159SOL    HW210158   2.785   1.773   5.181
 3160SOL     OW10159   2.326   0.493   3.908
 3160SOL    HW110160   2.386   0.564   3.931
 3160SOL    HW210161   2.241   0.535   3.899
 3161SOL     OW10162   2.007   1.140   5.196
 3161SOL    HW110163   2.011   1.088   5.276
 3161SOL    HW210164   2.025   1.077   5.126
 3162SOL     OW10165   3.189   1.048   4.947
 3162SOL    HW110166   3.212   0.984   4.880
 3162SOL    HW210167   3.118   1.099   4.909
 3163SOL     OW10168   3.171   0.858   4.031
 3163SOL    HW110169   3.096   0.825   4.080
 3163SOL    HW210170   3.148   0.843   3.939
 3164SOL     OW10171   3.645   1.743   4.883
 3164SOL    HW110172   3.697   1.773   4.809
 3164SOL    HW210173   3.610   1.658   4.856
 3165SOL     OW10174   3.104   1.729   4.833
 3165SOL    HW110175   3.197   1.745   4.819
 3165SOL    HW210176   3.098   1.637   4.857
 3166SOL     OW10177   1.946   1.266   4.736
 3166SOL    HW110178   1.933   1.279   4.830
 3166SOL    HW210179   1.872   1.212   4.709
 3167SOL     OW10180   2.539   1.665   5.451
 3167SOL    HW110181   2.485   1.744   5.450
 3167SOL    HW210182   2.600   1.677   5.379
 3168SOL     OW10183   3.575   0.147   4.228
 3168SOL    HW110184   3.650   0.127   4.173
 3168SOL    HW210185   3.567   0.072   4.287
 3169SOL     OW10186   3.251   1.580   4.204
 3169SOL    HW110187   3.321   1.592   4.139
 3169SOL    HW210188   3.210   1.666   4.211
 3170SOL     OW10189   1.996   1.797   5.568
 3170SOL    HW110190   1.946   1.731   5.617
 3170SOL    HW210191   2.045   1.845   5.635
 3171SOL     OW10192   3.139   0.925   4.395
 3171SOL    HW110193   3.212   0.864   4.402
 3171SOL    HW210194   3.173   0.998   4.343
 3172SOL     OW10195   2.678   1.273   5.155
 3172SOL    HW110196   2.650   1.311   5.238
 3172SOL    HW210197   2.610   1.298   5.093
 3173SOL     OW10198   2.534   1.616   3.881
 3173SOL    HW110199   2.543   1.635   3.787
 3173SOL    HW210200   2.478   1.539   3.885
 3174SOL     OW10201   3.487   1.727   5.115
 3174SOL    HW110202   3.543   1.733   5.038
 3174SOL    HW210203   3.473   1.818   5.142
 3175SOL     OW10204   3.707   0.158   4.682
 3175SOL    HW110205   3.709   0.064   4.665
 3175SOL    HW210206   3.620   0.186   4.654
 3176SOL     OW10207   2.125   0.329   4.444
 3176SOL    HW110208   2.037   0.360   4.421
 3176SOL    HW210209   2.122   0.317   4.539
 3177SOL     OW10210   3.066   1.608   3.753
 3177SOL    HW110211   3.063   1.517   3.782
 3177SOL    HW210212   3.001   1.614   3.683
 3178SOL     OW10213   2.686   1.006   5.096
 3178SOL    HW110214   2.729   1.003   5.011
 3178SOL    HW210215   2.685   1.099   5.119
 3179SOL     OW10216   2.778   0.911   4.014
 3179SOL    HW110217   2.840   0.942   3.947
 3179SOL    HW210218   2.824   0.841   4.058
 3180SOL     OW10219   3.355   1.623   3.766
 3180SOL    HW110220   3.260   1.620   3.751
 3180SOL    HW210221   3.393   1.631   3.678
 3181SOL     OW10222   2.231   1.299   5.217
 3181SOL    HW110223   2.222   1.377   5.162
 3181SOL    HW210224   2.153   1.247   5.200
 3182SOL     OW10225   3.472   1.283   5.004
 3182SOL    HW110226   3.533   1.273   5.078
 3182SOL    HW210227   3.412   1.353   5.032
 3183SOL     OW10228   2.913   1.106   4.428
 3183SOL    HW110229   2.842   1.055   4.469
 3183SOL    HW210230   2.975   1.040   4.398
 3184SOL     OW10231   2.882   0.243   4.691
 3184SOL    HW110232   2.862   0.197   4.610
 3184SOL    HW210233   2.874   0.176   4.759
 3185SOL     OW10234   2.467   1.492   4.203
 3185SOL    HW110235   2.507   1.437   4.135
 3185SOL    HW210236   2.397   1.539   4.157
 3186SOL     OW10237   3.585   0.387   5.102
 3186SOL    HW110238   3.655   0.452   5.102
 3186SOL    HW210239   3.617   0.317   5.045
 3187SOL     OW10240   2.121   1.346   4.013
 3187SOL    HW110241   2.028   1.342   3.990
 3187SOL    HW210242   2.122   1.384   4.101
 3188SOL     OW10243   1.974   1.019   5.443
 3188SOL    HW110244   1.898   0.997   5.497
 3188SOL    HW210245   2.049   0.983   5.491
 3189SOL     OW10246   2.534   0.210   5.211
 3189SOL    HW110247   2.618   0.193   5.168
 3189SOL    HW210248   2.557   0.260   5.290
 3190SOL     OW10249   1.939   0.340   3.765
 3190SOL    HW110250   1.856   0.307   3.732
 3190SOL    HW210251   1.961   0.413   3.707
 3191SOL     OW10252   3.292   0.858   5.125
 3191SOL    HW110253   3.244   0.919   5.069
 3191SOL    HW210254   3.382   0.861   5.091
 3192SOL     OW10255   1.934   0.167   4.040
 3192SOL    HW110256   1.934   0.250   3.992
 3192SOL    HW210257   2.019   0.127   4.020
 3193SOL     OW10258   3.042   1.343   3.841
 3193SOL    HW110259   2.953   1.308   3.844
 3193SOL    HW210260   3.071   1.341   3.933
 3194SOL     OW10261   2.481   0.830   5.157
 3194SOL    HW110262   2.536   0.907   5.142
 3194SOL    HW210263   2.543   0.758   5.166
 3195SOL     OW10264   2.578   0.572   5.427
 3195SOL    HW110265   2.617   0.636   5.487
 3195SOL    HW210266   2.610   0.487   5.458
 3196SOL     OW10267   3.333   1.201   5.356
 3196SOL    HW110268   3.320   1.215   5.450
 3196SOL    HW210269   3.426   1.215   5.342
 3197SOL     OW10270   2.242   1.739   5.286
 3197SOL    HW110271   2.157   1.781   5.272
 3197SOL    HW210272   2.221   1.656   5.328
 3198SOL     OW10273   3.532   0.881   4.979
 3198SOL    HW110274   3.525   0.796   4.937
 3198SOL    HW210275   3.523   0.945   4.908
 3199SOL     OW10276   3.082   0.320   4.190
 3199SOL    HW110277   3.145   0.248   4.182
 3199SOL    HW210278   3.114   0.371   4.265
 3200SOL     OW10279   2.452   0.739   4.393
 3200SOL    HW110280   2.491   0.825   4.377
 3200SOL    HW210281   2.384   0.731   4.327
 3201SOL     OW10282   3.629   0.361   5.372
 3201SOL    HW110283   3.609   0.375   5.280
 3201SOL    HW210284   3.558   0.305   5.404
 3202SOL     OW10285   3.606   0.934   5.236
 3202SOL    HW110286   3.605   1.028   5.250
 3202SOL    HW210287   3.591   0.922   5.143
 3203SOL     OW10288   2.723   1.368   3.756
 3203SOL    HW110289   2.684   1.395   3.839
 3203SOL    HW210290   2.743   1.450   3.711
 3204SOL     OW10291   2.528   1.755   4.704
 3204SOL    HW110292   2.512   1.846   4.679
 3204SOL    HW210293   2.623   1.743   4.692
 3205SOL     OW10294   2.729   0.967   4.579
 3205SOL    HW110295   2.779   0.895   4.619
 3205SOL    HW210296   2.695   1.016   4.654
 3206SOL     OW10297   2.942   0.990   3.812
 3206SOL    HW110298   2.920   1.038   3.733
 3206SOL    HW210299   3.016   0.935   3.788
 3207SOL     OW10300   3.719   1.556   4.569
 3207SOL    HW110301   3.641   1.544   4.515
 3207SOL    HW210302   3.709   1.490   4.639
 3208SOL     OW10303   2.087   1.304   5.580
 3208SOL    HW110304   2.019   1.243   5.551
 3208SOL    HW210305   2.070   1.316   5.674
 3209SOL     OW10306   1.950   1.235   4.386
 3209SOL    HW110307   1.950   1.189   4.470
 3209SOL    HW210308   2.016   1.188   4.334
 3210SOL     OW10309   2.543   1.401   5.352
 3210SOL    HW110310   2.463   1.359   5.382
 3210SOL    HW210311   2.538   1.490   5.388
 3211SOL     OW10312   3.678   0.178   4.957
 3211SOL    HW110313   3.646   0.088   4.965
 3211SOL    HW210314   3.694   0.190   4.864
 3212SOL     OW10315   2.291   0.435   4.247
 3212SOL    HW110316   2.323   0.363   4.194
 3212SOL    HW210317   2.246   0.393   4.320
 3213SOL     OW10318   3.562   1.491   4.821
 3213SOL    HW110319   3.481   1.464   4.779
 3213SOL    HW210320   3.578   1.423   4.887
 3214SOL     OW10321   2.189   0.555   5.014
 3214SOL    HW110322   2.246   0.500   5.069
 3214SOL    HW210323   2.210   0.528   4.925
 3215SOL     OW10324   2.684   1.584   4.397
 3215SOL    HW110325   2.673   1.591   4.302
 3215SOL    HW210326   2.612   1.527   4.425
 3216SOL     OW10327   3.290   0.218   4.840
 3216SOL    HW110328   3.327   0.144   4.889
 3216SOL    HW210329   3.242   0.268   4.906
 3217SOL     OW10330   2.865   0.022   4.865
 3217SOL    HW110331   2.814   5.252   4.824
 3217SOL    HW210332   2.952   5.284   4.878
 3218SOL     OW10333   2.634   1.332   4.038
 3218SOL    HW110334   2.599   1.243   4.042
 3218SOL    HW210335   2.717   1.328   4.085
 3219SOL     OW10336   2.482   1.557   5.010
 3219SOL    HW110337   2.485   1.638   5.061
 3219SOL    HW210338   2.568   1.552   4.968
 3220SOL     OW10339   3.218   0.040   3.885
 3220SOL    HW110340   3.249   5.296   3.806
 3220SOL    HW210341   3.137   5.293   3.909
 3221SOL     OW10342   3.164   0.464   4.410
 3221SOL    HW110343   3.108   0.541   4.415
 3221SOL    HW210344   3.157   0.423   4.496
 3222SOL     OW10345   3.456   0.216   4.605
 3222SOL    HW110346   3.389   0.227   4.673
 3222SOL    HW210347   3.449   0.294   4.551
 3223SOL     OW10348   1.907   1.072   4.030
 3223SOL    HW110349   2.000   1.062   4.012
 3223SOL    HW210350   1.877   0.984   4.052
 3224SOL     OW10351   2.740   1.639   4.071
 3224SOL    HW110352   2.676   1.613   4.004
 3224SOL    HW210353   2.710   1.725   4.101
 3225SOL     OW10354   2.091   0.624   5.708
 3225SOL    HW110355   2.002   0.623   5.743
 3225SOL    HW210356   2.082   0.598   5.617
 3226SOL     OW10357   2.081   0.283   6.578
 3226SOL    HW110358   2.110   0.249   6.663
 3226SOL    HW210359   1.995   0.243   6.564
 3227SOL     OW10360   1.867   0.385   6.225
 3227SOL    HW110361   1.782   0.406   6.265
 3227SOL    HW210362   1.849   0.308   6.171
 3228SOL     OW10363   2.429   1.286   6.760
 3228SOL    HW110364   2.341   1.289   6.721
 3228SOL    HW210365   2.444   1.374   6.793
 3229SOL     OW10366   3.422   1.511   6.292
 3229SOL    HW110367   3.378   1.492   6.375
 3229SOL    HW210368   3.351   1.516   6.229
 3230SOL     OW10369   2.993   0.698   6.289
 3230SOL    HW110370   3.042   0.779   6.274
 3230SOL    HW210371   2.945   0.713   6.370
 3231SOL     OW10372   3.628   0.607   5.815
 3231SOL    HW110373   3.608   0.598   5.722
 3231SOL    HW210374   3.593   0.526   5.854
 3232SOL     OW10375   2.619   1.143   6.626
 3232SOL    HW110376   2.549   1.177   6.682
 3232SOL    HW210377   2.653   1.220   6.581
 3233SOL     OW10378   2.725   0.780   7.407
 3233SOL    HW110379   2.713   0.855   7.465
 3233SOL    HW210380   2.752   0.819   7.323
 3234SOL     OW10381   2.548   1.004   6.233
 3234SOL    HW110382   2.613   0.991   6.303
 3234SOL    HW210383   2.479   1.055   6.274
 3235SOL     OW10384   2.571   1.151   7.397
 3235SOL    HW110385   2.619   1.230   7.423
 3235SOL    HW210386   2.488   1.184   7.362
 3236SOL     OW10387   2.192   1.427   6.654
 3236SOL    HW110388   2.121   1.389   6.603
 3236SOL    HW210389   2.243   1.477   6.590
 3237SOL     OW10390   3.323   1.499   6.939
 3237SOL    HW110391   3.372   1.581   6.948
 3237SOL    HW210392   3.263   1.497   7.014
 3238SOL     OW10393   2.305   0.399   7.075
 3238SOL    HW110394   2.381   0.339   7.072
 3238SOL    HW210395   2.230   0.341   7.088
 3239SOL     OW10396   3.473   0.452   6.324
 3239SOL    HW110397   3.397   0.476   6.271
 3239SOL    HW210398   3.493   0.530   6.375
 3240SOL     OW10399   2.081   1.714   6.059
 3240SOL    HW110400   2.104   1.791   6.112
 3240SOL    HW210401   2.153   1.706   5.996
 3241SOL     OW10402   2.998   1.341   7.276
 3241SOL    HW110403   3.038   1.338   7.363
 3241SOL    HW210404   2.946   1.261   7.271
 3242SOL     OW10405   2.092   1.441   6.121
 3242SOL    HW110406   2.075   1.535   6.125
 3242SOL    HW210407   2.031   1.403   6.184
 3243SOL     OW10408   2.118   1.090   6.477
 3243SOL    HW110409   2.115   1.004   6.518
 3243SOL    HW210410   2.060   1.144   6.530
 3244SOL     OW10411   2.474   1.791   7.014
 3244SOL    HW110412   2.393   1.773   7.062
 3244SOL    HW210413   2.498   1.880   7.040
 3245SOL     OW10414   2.449   0.981   5.719
 3245SOL    HW110415   2.493   1.031   5.651
 3245SOL    HW210416   2.489   1.011   5.801
 3246SOL     OW10417   3.448   0.134   7.043
 3246SOL    HW110418   3.468   0.219   7.004
 3246SOL    HW210419   3.447   0.151   7.138
 3247SOL     OW10420   1.976   0.653   6.145
 3247SOL    HW110421   1.949   0.564   6.167
 3247SOL    HW210422   1.969   0.701   6.228
 3248SOL     OW10423   3.704   1.760   5.922
 3248SOL    HW110424   3.767   1.731   5.988
 3248SOL    HW210425   3.729   1.850   5.903
 3249SOL     OW10426   1.893   1.595   5.711
 3249SOL    HW110427   1.876   1.503   5.731
 3249SOL    HW210428   1.869   1.642   5.791
 3250SOL     OW10429   3.551   0.919   6.226
 3250SOL    HW110430   3.635   0.877   6.205
 3250SOL    HW210431   3.529   0.969   6.147
 3251SOL     OW10432   3.507   1.107   6.016
 3251SOL    HW110433   3.593   1.114   5.973
 3251SOL    HW210434   3.512   1.168   6.089
 3252SOL     OW10435   1.984   0.743   7.172
 3252SOL    HW110436   2.076   0.767   7.181
 3252SOL    HW210437   1.936   0.825   7.180
 3253SOL     OW10438   2.474   1.385   6.321
 3253SOL    HW110439   2.429   1.301   6.330
 3253SOL    HW210440   2.459   1.411   6.231
 3254SOL     OW10441   3.151   1.238   7.010
 3254SOL    HW110442   3.184   1.171   6.950
 3254SOL    HW210443   3.208   1.232   7.086
 3255SOL     OW10444   2.671   0.025   6.112
 3255SOL    HW110445   2.700   0.113   6.088
 3255SOL    HW210446   2.576   0.029   6.106
 3256SOL     OW10447   2.052   0.967   6.856
 3256SOL    HW110448   2.137   0.925   6.841
 3256SOL    HW210449   1.989   0.912   6.810
 3257SOL     OW10450   3.394   0.993   5.784
 3257SOL    HW110451   3.324   0.935   5.815
 3257SOL    HW210452   3.434   1.027   5.864
 3258SOL     OW10453   3.047   1.805   7.207
 3258SOL    HW110454   3.059   1.864   7.132
 3258SOL    HW210455   3.063   1.718   7.172
 3259SOL     OW10456   2.187   0.262   7.401
 3259SOL    HW110457   2.239   0.340   7.421
 3259SOL    HW210458   2.100   0.281   7.436
 3260SOL     OW10459   3.328   1.419   6.538
 3260SOL    HW110460   3.260   1.434   6.604
 3260SOL    HW210461   3.316   1.328   6.511
 3261SOL     OW10462   3.521   1.737   6.164
 3261SOL    HW110463   3.501   1.708   6.075
 3261SOL    HW210464   3.496   1.664   6.220
 3262SOL     OW10465   2.457   0.722   5.851
 3262SOL    HW110466   2.464   0.803   5.800
 3262SOL    HW210467   2.392   0.741   5.918
 3263SOL     OW10468   3.141   0.345   6.516
 3263SOL    HW110469   3.050   0.317   6.529
 3263SOL    HW210470   3.190   0.296   6.582
 3264SOL     OW10471   3.443   1.670   5.895
 3264SOL    HW110472   3.533   1.702   5.888
 3264SOL    HW210473   3.417   1.652   5.805
 3265SOL     OW10474   2.656   0.617   7.037
 3265SOL    HW110475   2.629   0.597   7.126
 3265SOL    HW210476   2.613   0.552   6.983
 3266SOL     OW10477   3.257   0.475   7.264
 3266SOL    HW110478   3.258   0.519   7.348
 3266SOL    HW210479   3.320   0.404   7.273
 3267SOL     OW10480   2.818   0.888   7.168
 3267SOL    HW110481   2.872   0.818   7.132
 3267SOL    HW210482   2.770   0.922   7.092
 3268SOL     OW10483   2.856   0.416   6.822
 3268SOL    HW110484   2.772   0.439   6.862
 3268SOL    HW210485   2.832   0.368   6.743
 3269SOL     OW10486   2.912   0.698   6.013
 3269SOL    HW110487   2.927   0.691   6.107
 3269SOL    HW210488   2.830   0.652   5.998
 3270SOL     OW10489   1.950   0.820   6.363
 3270SOL    HW110490   2.032   0.813   6.412
 3270SOL    HW210491   1.908   0.899   6.397
 3271SOL     OW10492   1.989   1.846   7.164
 3271SOL    HW110493   1.989   1.825   7.257
 3271SOL    HW210494   1.897   1.840   7.137
 3272SOL     OW10495   2.734   0.362   5.775
 3272SOL    HW110496   2.778   0.422   5.715
 3272SOL    HW210497   2.785   0.281   5.770
 3273SOL     OW10498   3.572   0.576   7.415
 3273SOL    HW110499   3.534   0.651   7.368
 3273SOL    HW210500   3.599   0.516   7.346
 3274SOL     OW10501   3.238   1.142   6.128
 3274SOL    HW110502   3.317   1.129   6.075
 3274SOL    HW210503   3.185   1.204   6.077
 3275SOL     OW10504   2.390   0.201   6.469
 3275SOL    HW110505   2.412   0.216   6.561
 3275SOL    HW210506   2.411   0.284   6.425
 3276SOL     OW10507   2.869   1.445   6.059
 3276SOL    HW110508   2.830   1.517   6.009
 3276SOL    HW210509   2.852   1.467   6.150
 3277SOL     OW10510   2.217   1.808   6.447
 3277SOL    HW110511   2.260   1.723   6.455
 3277SOL    HW210512   2.286   1.872   6.463
 3278SOL     OW10513   3.661   1.058   6.454
 3278SOL    HW110514   3.606   1.041   6.377
 3278SOL    HW210515   3.599   1.063   6.527
 3279SOL     OW10516   3.090   1.539   7.099
 3279SOL    HW110517   3.076   1.466   7.159
 3279SOL    HW210518   3.027   1.524   7.028
 3280SOL     OW10519   2.183   0.957   5.836
 3280SOL    HW110520   2.265   0.976   5.790
 3280SOL    HW210521   2.152   0.875   5.796
 3281SOL     OW10522   3.340   0.741   6.313
 3281SOL    HW110523   3.330   0.698   6.398
 3281SOL    HW210524   3.417   0.797   6.323
 3282SOL     OW10525   2.327   1.263   7.323
 3282SOL    HW110526   2.300   1.269   7.232
 3282SOL    HW210527   2.245   1.262   7.373
 3283SOL     OW10528   2.984   1.777   5.818
 3283SOL    HW110529   2.910   1.736   5.863
 3283SOL    HW210530   3.006   1.717   5.747
 3284SOL     OW10531   2.059   0.278   7.087
 3284SOL    HW110532   1.981   0.332   7.081
 3284SOL    HW210533   2.048   0.229   7.169
 3285SOL     OW10534   3.491   1.379   5.673
 3285SOL    HW110535   3.450   1.465   5.658
 3285SOL    HW210536   3.422   1.316   5.654
 3286SOL     OW10537   2.329   1.735   5.909
 3286SOL    HW110538   2.370   1.795   5.971
 3286SOL    HW210539   2.400   1.709   5.850
 3287SOL     OW10540   3.269   0.099   6.017
 3287SOL    HW110541   3.260   0.082   5.923
 3287SOL    HW210542   3.361   0.122   6.029
 3288SOL     OW10543   2.117   1.792   6.818
 3288SOL    HW110544   2.169   1.727   6.865
 3288SOL    HW210545   2.108   1.756   6.730
 3289SOL     OW10546   2.799   1.698   6.486
 3289SOL    HW110547   2.877   1.647   6.506
 3289SOL    HW210548   2.755   1.649   6.416
 3290SOL     OW10549   2.254   0.696   6.063
 3290SOL    HW110550   2.275   0.603   6.073
 3290SOL    HW210551   2.160   0.701   6.081
 3291SOL     OW10552   3.402   0.228   7.311
 3291SOL    HW110553   3.408   0.246   7.404
 3291SOL    HW210554   3.327   0.169   7.303
 3292SOL     OW10555   2.486   0.133   5.693
 3292SOL    HW110556   2.552   0.068   5.716
 3292SOL    HW210557   2.435   0.092   5.623
 3293SOL     OW10558   2.643   0.312   7.349
 3293SOL    HW110559   2.703   0.237   7.352
 3293SOL    HW210560   2.599   0.312   7.435
 3294SOL     OW10561   2.738   1.521   6.780
 3294SOL    HW110562   2.723   1.485   6.692
 3294SOL    HW210563   2.808   1.467   6.816
 3295SOL     OW10564   3.204   0.589   7.018
 3295SOL    HW110565   3.234   0.558   7.103
 3295SOL    HW210566   3.239   0.677   7.011
 3296SOL     OW10567   2.676   1.396   6.524
 3296SOL    HW110568   2.760   1.385   6.480
 3296SOL    HW210569   2.612   1.396   6.453
 3297SOL     OW10570   2.789   0.510   6.490
 3297SOL    HW110571   2.765   0.502   6.397
 3297SOL    HW210572   2.821   0.423   6.514
 3298SOL     OW10573   2.404   0.063   6.095
 3298SOL    HW110574   2.318   0.062   6.138
 3298SOL    HW210575   2.397   0.133   6.030
 3299SOL     OW10576   3.290   1.198   5.627
 3299SOL    HW110577   3.320   1.122   5.677
 3299SOL    HW210578   3.204   1.219   5.664
 3300SOL     OW10579   2.163   0.061   5.776
 3300SOL    HW110580   2.222   0.130   5.746
 3300SOL    HW210581   2.220   5.285   5.789
 3301SOL     OW10582   2.801   0.259   6.048
 3301SOL    HW110583   2.772   0.299   5.966
 3301SOL    HW210584   2.896   0.271   6.049
 3302SOL     OW10585   2.943   0.681   7.045
 3302SOL    HW110586   2.873   0.615   7.052
 3302SOL    HW210587   3.023   0.630   7.039
 3303SOL     OW10588   3.086   1.570   6.380
 3303SOL    HW110589   3.103   1.637   6.314
 3303SOL    HW210590   3.154   1.583   6.446
 3304SOL     OW10591   2.330   1.149   6.321
 3304SOL    HW110592   2.260   1.130   6.383
 3304SOL    HW210593   2.291   1.132   6.235
 3305SOL     OW10594   3.132   1.794   6.194
 3305SOL    HW110595   3.177   1.855   6.135
 3305SOL    HW210596   3.066   1.848   6.238
 3306SOL     OW10597   2.889   0.547   5.607
 3306SOL    HW110598   2.845   0.631   5.589
 3306SOL    HW210599   2.952   0.568   5.676
 3307SOL     OW10600   1.940   0.553   6.979
 3307SOL    HW110601   2.031   0.553   6.951
 3307SOL    HW210602   1.935   0.624   7.043
 3308SOL     OW10603   2.418   0.237   6.744
 3308SOL    HW110604   2.449   0.151   6.772
 3308SOL    HW210605   2.326   0.239   6.770
 3309SOL     OW10606   2.729   0.462   6.227
 3309SOL    HW110607   2.684   0.515   6.162
 3309SOL    HW210608   2.752   0.381   6.180
 3310SOL     OW10609   2.840   0.061   6.348
 3310SOL    HW110610   2.775   0.054   6.278
 3310SOL    HW210611   2.850   5.271   6.380
 3311SOL     OW10612   3.299   1.163   6.443
 3311SOL    HW110613   3.230   1.097   6.442
 3311SOL    HW210614   3.323   1.175   6.352
 3312SOL     OW10615   3.329   0.605   6.565
 3312SOL    HW110616   3.280   0.522   6.569
 3312SOL    HW210617   3.389   0.600   6.639
 3313SOL     OW10618   3.708   0.817   5.968
 3313SOL    HW110619   3.764   0.766   6.026
 3313SOL    HW210620   3.679   0.755   5.901
 3314SOL     OW10621   2.353   1.417   5.744
 3314SOL    HW110622   2.278   1.387   5.796
 3314SOL    HW210623   2.337   1.382   5.656
 3315SOL     OW10624   3.531   1.264   6.233
 3315SOL    HW110625   3.626   1.268   6.246
 3315SOL    HW210626   3.500   1.352   6.254
 3316SOL     OW10627   3.256   0.572   5.657
 3316SOL    HW110628   3.195   0.553   5.728
 3316SOL    HW210629   3.341   0.541   5.689
 3317SOL     OW10630   2.386   0.264   5.907
 3317SOL    HW110631   2.430   0.215   5.838
 3317SOL    HW210632   2.366   0.349   5.868
 3318SOL     OW10633   3.615   1.238   7.160
 3318SOL    HW110634   3.703   1.199   7.156
 3318SOL    HW210635   3.629   1.328   7.190
 3319SOL     OW10636   2.921   1.353   6.920
 3319SOL    HW110637   2.847   1.322   6.971
 3319SOL    HW210638   2.997   1.312   6.961
 3320SOL     OW10639   3.469   1.625   7.238
 3320SOL    HW110640   3.465   1.659   7.148
 3320SOL    HW210641   3.552   1.578   7.241
 3321SOL     OW10642   2.989   1.202   6.692
 3321SOL    HW110643   2.931   1.241   6.757
 3321SOL    HW210644   2.956   1.234   6.608
 3322SOL     OW10645   3.491   1.099   6.664
 3322SOL    HW110646   3.487   1.161   6.737
 3322SOL    HW210647   3.412   1.115   6.613
 3323SOL     OW10648   2.767   0.106   6.977
 3323SOL    HW110649   2.797   0.072   6.892
 3323SOL    HW210650   2.844   0.148   7.015
 3324SOL     OW10651   2.846   1.114   7.310
 3324SOL    HW110652   2.754   1.131   7.328
 3324SOL    HW210653   2.846   1.037   7.254
 3325SOL     OW10654   2.570   1.061   5.957
 3325SOL    HW110655   2.557   1.045   6.051
 3325SOL    HW210656   2.646   1.007   5.935
 3326SOL     OW10657   2.280   0.815   6.838
 3326SOL    HW110658   2.349   0.824   6.903
 3326SOL    HW210659   2.245   0.727   6.852
 3327SOL     OW10660   3.130   0.379   6.858
 3327SOL    HW110661   3.162   0.456   6.905
 3327SOL    HW210662   3.039   0.401   6.835
 3328SOL     OW10663   1.932   1.573   6.938
 3328SOL    HW110664   1.902   1.646   6.884
 3328SOL    HW210665   2.027   1.577   6.933
 3329SOL     OW10666   2.212   1.108   6.077
 3329SOL    HW110667   2.218   1.182   6.016
 3329SOL    HW210668   2.211   1.030   6.021
 3330SOL     OW10669   2.416   0.538   6.447
 3330SOL    HW110670   2.432   0.596   6.372
 3330SOL    HW210671   2.481   0.565   6.512
 3331SOL     OW10672   3.110   1.348   5.975
 3331SOL    HW110673   3.166   1.420   6.006
 3331SOL    HW210674   3.023   1.369   6.009
 3332SOL     OW10675   3.142   1.457   6.733
 3332SOL    HW110676   3.197   1.460   6.811
 3332SOL    HW210677   3.086   1.380   6.745
 3333SOL     OW10678   3.445   0.623   6.064
 3333SOL    HW110679   3.398   0.678   6.127
 3333SOL    HW210680   3.489   0.685   6.006
 3334SOL     OW10681   2.209   1.526   6.902
 3334SOL    HW110682   2.196   1.484   6.817
 3334SOL    HW210683   2.303   1.539   6.909
 3335SOL     OW10684   2.276   0.745   7.188
 3335SOL    HW110685   2.336   0.790   7.130
 3335SOL    HW210686   2.318   0.660   7.205
 3336SOL     OW10687   3.462   0.778   7.267
 3336SOL    HW110688   3.376   0.819   7.260
 3336SOL    HW210689   3.514   0.820   7.199
 3337SOL     OW10690   2.902   0.115   7.370
 3337SOL    HW110691   2.929   0.195   7.324
 3337SOL    HW210692   2.911   0.046   7.305
 3338SOL     OW10693   2.345   0.056   7.325
 3338SOL    HW110694   2.288   5.292   7.282
 3338SOL    HW210695   2.286   0.129   7.347
 3339SOL     OW10696   2.446   0.872   6.618
 3339SOL    HW110697   2.476   0.963   6.615
 3339SOL    HW210698   2.388   0.868   6.694
 3340SOL     OW10699   3.221   0.859   6.617
 3340SOL    HW110700   3.139   0.851   6.569
 3340SOL    HW210701   3.260   0.772   6.612
 3341SOL     OW10702   3.069   0.529   5.854
 3341SOL    HW110703   3.072   0.448   5.905
 3341SOL    HW210704   3.026   0.592   5.912
 3342SOL     OW10705   2.159   0.204   6.833
 3342SOL    HW110706   2.120   0.243   6.911
 3342SOL    HW210707   2.157   0.110   6.849
 3343SOL     OW10708   1.907   1.311   6.863
 3343SOL    HW110709   1.941   1.257   6.934
 3343SOL    HW210710   1.915   1.400   6.895
 3344SOL     OW10711   2.588   0.632   6.646
 3344SOL    HW110712   2.661   0.615   6.587
 3344SOL    HW210713   2.559   0.720   6.624
 3345SOL     OW10714   3.597   0.959   7.437
 3345SOL    HW110715   3.548   0.900   7.380
 3345SOL    HW210716   3.539   0.973   7.513
 3346SOL     OW10717   2.163   0.073   6.234
 3346SOL    HW110718   2.148   0.167   6.244
 3346SOL    HW210719   2.203   0.046   6.317
 3347SOL     OW10720   3.473   0.374   5.952
 3347SOL    HW110721   3.507   0.311   6.016
 3347SOL    HW210722   3.453   0.452   6.004
 3348SOL     OW10723   2.890   0.759   6.547
 3348SOL    HW110724   2.887   0.777   6.641
 3348SOL    HW210725   2.863   0.668   6.539
 3349SOL     OW10726   2.843   1.565   7.302
 3349SOL    HW110727   2.829   1.610   7.218
 3349SOL    HW210728   2.888   1.484   7.278
 3350SOL     OW10729   3.717   1.507   7.191
 3350SOL    HW110730   3.735   1.533   7.101
 3350SOL    HW210731   3.799   1.526   7.238
 3351SOL     OW10732   2.215   0.914   7.396
 3351SOL    HW110733   2.298   0.935   7.439
 3351SOL    HW210734   2.239   0.853   7.326
 3352SOL     OW10735   3.389   0.273   5.712
 3352SOL    HW110736   3.326   0.208   5.743
 3352SOL    HW210737   3.425   0.311   5.793
 3353SOL     OW10738   3.155   0.827   5.618
 3353SOL    HW110739   3.197   0.741   5.621
 3353SOL    HW210740   3.186   0.866   5.536
 3354SOL     OW10741   2.927   1.335   6.440
 3354SOL    HW110742   2.930   1.263   6.377
 3354SOL    HW210743   2.989   1.400   6.405
 3355SOL     OW10744   2.171   0.809   6.534
 3355SOL    HW110745   2.264   0.831   6.526
 3355SOL    HW210746   2.170   0.719   6.566
 3356SOL     OW10747   2.195   0.525   6.599
 3356SOL    HW110748   2.158   0.438   6.582
 3356SOL    HW210749   2.271   0.530   6.541
 3357SOL     OW10750   2.998   0.377   7.273
 3357SOL    HW110751   2.950   0.432   7.335
 3357SOL    HW210752   3.085   0.416   7.268
 3358SOL     OW10753   2.996   0.222   7.051
 3358SOL    HW110754   3.001   0.281   7.127
 3358SOL    HW210755   3.051   0.264   6.985
 3359SOL     OW10756   1.867   1.322   5.782
 3359SOL    HW110757   1.780   1.336   5.744
 3359SOL    HW210758   1.864   1.232   5.814
 3360SOL     OW10759   1.952   1.788   6.523
 3360SOL    HW110760   1.922   1.708   6.480
 3360SOL    HW210761   2.042   1.800   6.493
 3361SOL     OW10762   2.359   1.573   6.492
 3361SOL    HW110763   2.428   1.635   6.516
 3361SOL    HW210764   2.403   1.509   6.436
 3362SOL     OW10765   2.847   0.793   6.813
 3362SOL    HW110766   2.902   0.769   6.888
 3362SOL    HW210767   2.761   0.757   6.834
 3363SOL     OW10768   1.897   0.542   6.703
 3363SOL    HW110769   1.977   0.529   6.652
 3363SOL    HW210770   1.927   0.548   6.794
 3364SOL     OW10771   2.050   0.520   7.312
 3364SOL    HW110772   2.113   0.487   7.248
 3364SOL    HW210773   2.008   0.593   7.268
 3365SOL     OW10774   3.238   0.939   7.245
 3365SOL    HW110775   3.259   1.033   7.245
 3365SOL    HW210776   3.236   0.915   7.153
 3366SOL     OW10777   2.676   0.572   5.947
 3366SOL    HW110778   2.679   0.497   5.886
 3366SOL    HW210779   2.602   0.624   5.916
 3367SOL     OW10780   3.504   0.601   6.773
 3367SOL    HW110781   3.493   0.542   6.847
 3367SOL    HW210782   3.591   0.581   6.739
 3368SOL     OW10783   2.105   1.552   7.314
 3368SOL    HW110784   2.084   1.616   7.382
 3368SOL    HW210785   2.107   1.468   7.360
 3369SOL     OW10786   2.558   0.453   6.848
 3369SOL    HW110787   2.508   0.379   6.813
 3369SOL    HW210788   2.559   0.517   6.776
 3370SOL     OW10789   2.790   1.679   7.053
 3370SOL    HW110790   2.764   1.646   6.967
 3370SOL    HW210791   2.788   1.774   7.044
 3371SOL     OW10792   2.326   0.493   5.770
 3371SOL    HW110793   2.386   0.564   5.793
 3371SOL    HW210794   2.241   0.535   5.761
 3372SOL     OW10795   2.008   1.140   7.058
 3372SOL    HW110796   2.011   1.088   7.138
 3372SOL    HW210797   2.025   1.077   6.988
 3373SOL     OW10798   3.189   1.048   6.810
 3373SOL    HW110799   3.213   0.984   6.742
 3373SOL    HW210800   3.118   1.099   6.771
 3374SOL     OW10801   3.172   0.856   5.893
 3374SOL    HW110802   3.096   0.826   5.942
 3374SOL    HW210803   3.148   0.843   5.801
 3375SOL     OW10804   3.632   1.745   6.735
 3375SOL    HW110805   3.693   1.771   6.666
 3375SOL    HW210806   3.609   1.655   6.714
 3376SOL     OW10807   3.103   1.733   6.700
 3376SOL    HW110808   3.185   1.753   6.655
 3376SOL    HW210809   3.108   1.639   6.718
 3377SOL     OW10810   1.945   1.267   6.598
 3377SOL    HW110811   1.931   1.279   6.692
 3377SOL    HW210812   1.872   1.212   6.570
 3378SOL     OW10813   2.538   1.664   7.312
 3378SOL    HW110814   2.489   1.746   7.312
 3378SOL    HW210815   2.605   1.676   7.244
 3379SOL     OW10816   3.575   0.147   6.090
 3379SOL    HW110817   3.650   0.127   6.035
 3379SOL    HW210818   3.567   0.072   6.149
 3380SOL     OW10819   3.252   1.568   6.070
 3380SOL    HW110820   3.313   1.600   6.003
 3380SOL    HW210821   3.204   1.645   6.098
 3381SOL     OW10822   1.997   1.797   7.430
 3381SOL    HW110823   1.947   1.732   7.480
 3381SOL    HW210824   2.046   1.845   7.497
 3382SOL     OW10825   3.139   0.925   6.257
 3382SOL    HW110826   3.213   0.864   6.263
 3382SOL    HW210827   3.173   0.998   6.205
 3383SOL     OW10828   2.678   1.272   7.017
 3383SOL    HW110829   2.650   1.312   7.099
 3383SOL    HW210830   2.608   1.295   6.955
 3384SOL     OW10831   2.535   1.617   5.742
 3384SOL    HW110832   2.543   1.632   5.648
 3384SOL    HW210833   2.479   1.540   5.749
 3385SOL     OW10834   3.490   1.727   6.977
 3385SOL    HW110835   3.539   1.734   6.895
 3385SOL    HW210836   3.477   1.817   7.005
 3386SOL     OW10837   3.707   0.158   6.544
 3386SOL    HW110838   3.708   0.064   6.527
 3386SOL    HW210839   3.620   0.186   6.516
 3387SOL     OW10840   2.125   0.329   6.306
 3387SOL    HW110841   2.037   0.360   6.283
 3387SOL    HW210842   2.122   0.317   6.401
 3388SOL     OW10843   3.069   1.607   5.617
 3388SOL    HW110844   3.059   1.515   5.644
 3388SOL    HW210845   3.004   1.618   5.548
 3389SOL     OW10846   2.686   1.006   6.958
 3389SOL    HW110847   2.730   1.002   6.873
 3389SOL    HW210848   2.686   1.099   6.981
 3390SOL     OW10849   2.778   0.910   5.876
 3390SOL    HW110850   2.839   0.942   5.810
 3390SOL    HW210851   2.825   0.840   5.921
 3391SOL     OW10852   3.355   1.625   5.628
 3391SOL    HW110853   3.260   1.619   5.615
 3391SOL    HW210854   3.391   1.631   5.540
 3392SOL     OW10855   2.231   1.302   7.078
 3392SOL    HW110856   2.218   1.379   7.023
 3392SOL    HW210857   2.154   1.248   7.061
 3393SOL     OW10858   3.473   1.283   6.867
 3393SOL    HW110859   3.532   1.273   6.941
 3393SOL    HW210860   3.413   1.352   6.893
 3394SOL     OW10861   2.913   1.106   6.292
 3394SOL    HW110862   2.842   1.055   6.331
 3394SOL    HW210863   2.974   1.041   6.259
 3395SOL     OW10864   2.882   0.243   6.553
 3395SOL    HW110865   2.862   0.197   6.472
 3395SOL    HW210866   2.874   0.176   6.621
 3396SOL     OW10867   2.464   1.488   6.068
 3396SOL    HW110868   2.508   1.438   5.999
 3396SOL    HW210869   2.397   1.539   6.022
 3397SOL     OW10870   3.585   0.387   6.965
 3397SOL    HW110871   3.655   0.452   6.964
 3397SOL    HW210872   3.617   0.317   6.907
 3398SOL     OW10873   2.121   1.345   5.874
 3398SOL    HW110874   2.028   1.344   5.852
 3398SOL    HW210875   2.124   1.382   5.962
 3399SOL     OW10876   1.975   1.019   7.305
 3399SOL    HW110877   1.898   0.998   7.358
 3399SOL    HW210878   2.049   0.983   7.353
 3400SOL     OW10879   2.534   0.210   7.074
 3400SOL    HW110880   2.618   0.193   7.031
 3400SOL    HW210881   2.558   0.260   7.153
 3401SOL     OW10882   1.939   0.339   5.627
 3401SOL    HW110883   1.855   0.307   5.593
 3401SOL    HW210884   1.961   0.413   5.569
 3402SOL     OW10885   3.292   0.858   6.987
 3402SOL    HW110886   3.244   0.919   6.931
 3402SOL    HW210887   3.382   0.861   6.953
 3403SOL     OW10888   1.934   0.167   5.902
 3403SOL    HW110889   1.934   0.250   5.854
 3403SOL    HW210890   2.019   0.127   5.882
 3404SOL     OW10891   3.041   1.340   5.703
 3404SOL    HW110892   2.950   1.311   5.705
 3404SOL    HW210893   3.069   1.340   5.794
 3405SOL     OW10894   2.481   0.831   7.019
 3405SOL    HW110895   2.536   0.907   7.004
 3405SOL    HW210896   2.543   0.758   7.028
 3406SOL     OW10897   3.346   1.775   6.563
 3406SOL    HW110898   3.370   1.834   6.492
 3406SOL    HW210899   3.428   1.759   6.609
 3407SOL     OW10900   2.577   0.573   7.290
 3407SOL    HW110901   2.617   0.635   7.350
 3407SOL    HW210902   2.609   0.487   7.319
 3408SOL     OW10903   3.332   1.201   7.218
 3408SOL    HW110904   3.320   1.214   7.312
 3408SOL    HW210905   3.426   1.215   7.204
 3409SOL     OW10906   2.242   1.739   7.149
 3409SOL    HW110907   2.156   1.780   7.136
 3409SOL    HW210908   2.223   1.655   7.191
 3410SOL     OW10909   3.532   0.882   6.841
 3410SOL    HW110910   3.525   0.796   6.798
 3410SOL    HW210911   3.523   0.945   6.770
 3411SOL     OW10912   3.082   0.319   6.052
 3411SOL    HW110913   3.145   0.248   6.044
 3411SOL    HW210914   3.113   0.371   6.127
 3412SOL     OW10915   2.452   0.739   6.255
 3412SOL    HW110916   2.491   0.825   6.239
 3412SOL    HW210917   2.384   0.731   6.189
 3413SOL     OW10918   3.629   0.360   7.235
 3413SOL    HW110919   3.610   0.375   7.143
 3413SOL    HW210920   3.557   0.305   7.266
 3414SOL     OW10921   3.606   0.933   7.098
 3414SOL    HW110922   3.605   1.028   7.112
 3414SOL    HW210923   3.591   0.922   7.005
 3415SOL     OW10924   2.726   1.368   5.619
 3415SOL    HW110925   2.685   1.395   5.701
 3415SOL    HW210926   2.743   1.449   5.572
 3416SOL     OW10927   2.522   1.791   6.533
 3416SOL    HW110928   2.502   1.881   6.507
 3416SOL    HW210929   2.617   1.785   6.525
 3417SOL     OW10930   2.729   0.966   6.442
 3417SOL    HW110931   2.779   0.895   6.481
 3417SOL    HW210932   2.695   1.016   6.516
 3418SOL     OW10933   2.941   0.988   5.674
 3418SOL    HW110934   2.920   1.039   5.596
 3418SOL    HW210935   3.016   0.935   5.649
 3419SOL     OW10936   3.717   1.555   6.431
 3419SOL    HW110937   3.639   1.544   6.376
 3419SOL    HW210938   3.708   1.488   6.499
 3420SOL     OW10939   2.087   1.304   7.443
 3420SOL    HW110940   2.019   1.243   7.413
 3420SOL    HW210941   2.068   1.317   7.536
 3421SOL     OW10942   1.945   1.234   6.250
 3421SOL    HW110943   1.951   1.185   6.332
 3421SOL    HW210944   2.014   1.196   6.195
 3422SOL     OW10945   2.542   1.402   7.212
 3422SOL    HW110946   2.462   1.359   7.244
 3422SOL    HW210947   2.538   1.490   7.249
 3423SOL     OW10948   3.678   0.178   6.819
 3423SOL    HW110949   3.646   0.088   6.827
 3423SOL    HW210950   3.694   0.190   6.726
 3424SOL     OW10951   2.291   0.435   6.109
 3424SOL    HW110952   2.323   0.362   6.056
 3424SOL    HW210953   2.246   0.393   6.182
 3425SOL     OW10954   3.563   1.490   6.683
 3425SOL    HW110955   3.482   1.466   6.639
 3425SOL    HW210956   3.575   1.421   6.749
 3426SOL     OW10957   2.189   0.554   6.876
 3426SOL    HW110958   2.246   0.500   6.931
 3426SOL    HW210959   2.210   0.528   6.787
 3427SOL     OW10960   2.689   1.578   6.264
 3427SOL    HW110961   2.679   1.630   6.185
 3427SOL    HW210962   2.611   1.522   6.266
 3428SOL     OW10963   3.290   0.218   6.703
 3428SOL    HW110964   3.327   0.144   6.751
 3428SOL    HW210965   3.242   0.268   6.768
 3429SOL     OW10966   2.864   0.022   6.727
 3429SOL    HW110967   2.814   5.252   6.686
 3429SOL    HW210968   2.951   5.284   6.740
 3430SOL     OW10969   2.633   1.332   5.900
 3430SOL    HW110970   2.601   1.242   5.906
 3430SOL    HW210971   2.716   1.332   5.948
 3431SOL     OW10972   2.481   1.557   6.870
 3431SOL    HW110973   2.484   1.639   6.920
 3431SOL    HW210974   2.569   1.549   6.833
 3432SOL     OW10975   3.218   0.040   5.748
 3432SOL    HW110976   3.248   5.296   5.668
 3432SOL    HW210977   3.137   5.294   5.771
 3433SOL     OW10978   3.163   0.463   6.271
 3433SOL    HW110979   3.108   0.541   6.277
 3433SOL    HW210980   3.157   0.423   6.358
 3434SOL     OW10981   3.456   0.216   6.467
 3434SOL    HW110982   3.389   0.227   6.535
 3434SOL    HW210983   3.449   0.294   6.413
 3435SOL     OW10984   1.905   1.072   5.892
 3435SOL    HW110985   1.999   1.064   5.874
 3435SOL    HW210986   1.877   0.983   5.914
 3436SOL     OW10987   2.745   1.651   5.929
 3436SOL    HW110988   2.674   1.634   5.868
 3436SOL    HW210989   2.715   1.726   5.980
 3437SOL     OW10990   2.090   0.620   7.571
 3437SOL    HW110991   1.999   0.628   7.602
 3437SOL    HW210992   2.081   0.597   7.479
 3438SOL     OW10993   3.630   0.599   7.680
 3438SOL    HW110994   3.609   0.594   7.586
 3438SOL    HW210995   3.587   0.522   7.717
 3439SOL     OW10996   2.082   1.718   7.918
 3439SOL    HW110997   2.112   1.760   7.999
 3439SOL    HW210998   2.160   1.715   7.863
 3440SOL     OW10999   2.080   1.438   7.990
 3440SOL    HW111000   2.064   1.532   7.991
 3440SOL    HW211001   2.021   1.403   8.056
 3441SOL     OW11002   2.449   0.981   7.579
 3441SOL    HW111003   2.493   1.032   7.510
 3441SOL    HW211004   2.488   1.013   7.660
 3442SOL     OW11005   3.699   1.760   7.798
 3442SOL    HW111006   3.769   1.729   7.855
 3442SOL    HW211007   3.726   1.848   7.772
 3443SOL     OW11008   1.891   1.599   7.577
 3443SOL    HW111009   1.876   1.506   7.592
 3443SOL    HW211010   1.864   1.642   7.659
 3444SOL     OW11011   3.546   0.868   8.035
 3444SOL    HW111012   3.627   0.880   0.005
 3444SOL    HW211013   3.533   0.952   7.990
 3445SOL     OW11014   3.516   1.099   7.876
 3445SOL    HW111015   3.603   1.125   7.846
 3445SOL    HW211016   3.489   1.170   7.935
 3446SOL     OW11017   2.672   5.291   7.945
 3446SOL    HW111018   2.713   0.076   7.930
 3446SOL    HW211019   2.578   0.009   7.942
 3447SOL     OW11020   3.395   0.994   7.648
 3447SOL    HW111021   3.328   0.935   7.681
 3447SOL    HW211022   3.437   1.028   7.727
 3448SOL     OW11023   2.453   0.725   7.708
 3448SOL    HW111024   2.458   0.806   7.658
 3448SOL    HW211025   2.392   0.745   7.779
 3449SOL     OW11026   3.437   1.670   7.757
 3449SOL    HW111027   3.528   1.700   7.765
 3449SOL    HW211028   3.425   1.657   7.663
 3450SOL     OW11029   1.924   0.862   0.091
 3450SOL    HW111030   1.988   0.798   0.120
 3450SOL    HW211031   1.916   0.923   0.165
 3451SOL     OW11032   2.729   0.355   7.631
 3451SOL    HW111033   2.777   0.419   7.578
 3451SOL    HW211034   2.788   0.280   7.638
 3452SOL     OW11035   2.185   0.956   7.697
 3452SOL    HW111036   2.266   0.974   7.648
 3452SOL    HW211037   2.150   0.877   7.657
 3453SOL     OW11038   2.985   1.775   7.682
 3453SOL    HW111039   2.909   1.735   7.724
 3453SOL    HW211040   3.008   1.716   7.611
 3454SOL     OW11041   3.491   1.380   7.533
 3454SOL    HW111042   3.449   1.465   7.520
 3454SOL    HW211043   3.422   1.316   7.516
 3455SOL     OW11044   2.329   1.737   7.770
 3455SOL    HW111045   2.377   1.791   7.833
 3455SOL    HW211046   2.396   1.703   7.710
 3456SOL     OW11047   3.270   0.106   7.882
 3456SOL    HW111048   3.264   0.083   7.789
 3456SOL    HW211049   3.364   0.112   7.899
 3457SOL     OW11050   2.251   0.696   7.918
 3457SOL    HW111051   2.261   0.601   7.926
 3457SOL    HW211052   2.161   0.714   7.943
 3458SOL     OW11053   2.481   0.132   7.559
 3458SOL    HW111054   2.554   0.073   7.578
 3458SOL    HW211055   2.434   0.089   7.487
 3459SOL     OW11056   2.408   0.064   7.953
 3459SOL    HW111057   2.316   0.048   7.975
 3459SOL    HW211058   2.406   0.137   7.890
 3460SOL     OW11059   3.290   1.198   7.489
 3460SOL    HW111060   3.321   1.123   7.541
 3460SOL    HW211061   3.206   1.221   7.528
 3461SOL     OW11062   2.166   0.071   7.658
 3461SOL    HW111063   2.218   0.128   7.601
 3461SOL    HW211064   2.215   5.289   7.660
 3462SOL     OW11065   2.812   0.228   7.907
 3462SOL    HW111066   2.761   0.298   7.867
 3462SOL    HW211067   2.900   0.264   7.917
 3463SOL     OW11068   2.305   1.151   0.099
 3463SOL    HW111069   2.228   1.182   0.147
 3463SOL    HW211070   2.273   1.136   0.010
 3464SOL     OW11071   3.152   1.811   8.014
 3464SOL    HW111072   3.187   1.880   7.958
 3464SOL    HW211073   3.069   1.846   8.047
 3465SOL     OW11074   2.890   0.547   7.466
 3465SOL    HW111075   2.845   0.631   7.451
 3465SOL    HW211076   2.949   0.565   7.539
 3466SOL     OW11077   3.733   0.817   7.802
 3466SOL    HW111078   3.731   0.787   7.893
 3466SOL    HW211079   3.692   0.747   7.752
 3467SOL     OW11080   2.351   1.415   7.606
 3467SOL    HW111081   2.277   1.386   7.659
 3467SOL    HW211082   2.334   1.380   7.519
 3468SOL     OW11083   3.255   0.572   7.519
 3468SOL    HW111084   3.194   0.552   7.590
 3468SOL    HW211085   3.339   0.539   7.551
 3469SOL     OW11086   2.387   0.270   7.773
 3469SOL    HW111087   2.427   0.217   7.705
 3469SOL    HW211088   2.366   0.353   7.730
 3470SOL     OW11089   2.573   1.062   7.812
 3470SOL    HW111090   2.549   1.049   7.904
 3470SOL    HW211091   2.652   1.009   7.799
 3471SOL     OW11092   2.228   1.100   7.928
 3471SOL    HW111093   2.210   1.180   7.878
 3471SOL    HW211094   2.214   1.029   7.866
 3472SOL     OW11095   3.087   1.356   7.821
 3472SOL    HW111096   3.150   1.423   7.847
 3472SOL    HW211097   3.044   1.330   7.902
 3473SOL     OW11098   3.451   0.627   7.922
 3473SOL    HW111099   3.433   0.685   7.996
 3473SOL    HW211100   3.489   0.685   7.855
 3474SOL     OW11101   3.066   0.526   7.716
 3474SOL    HW111102   3.068   0.439   7.756
 3474SOL    HW211103   3.042   0.585   7.788
 3475SOL     OW11104   3.478   0.376   7.815
 3475SOL    HW111105   3.498   0.308   7.879
 3475SOL    HW211106   3.454   0.452   7.867
 3476SOL     OW11107   3.391   0.273   7.575
 3476SOL    HW111108   3.328   0.208   7.605
 3476SOL    HW211109   3.426   0.310   7.656
 3477SOL     OW11110   3.157   0.828   7.482
 3477SOL    HW111111   3.197   0.741   7.483
 3477SOL    HW211112   3.187   0.867   7.400
 3478SOL     OW11113   1.867   1.324   7.640
 3478SOL    HW111114   1.780   1.337   7.603
 3478SOL    HW211115   1.867   1.235   7.674
 3479SOL     OW11116   2.697   0.598   7.766
 3479SOL    HW111117   2.687   0.508   7.734
 3479SOL    HW211118   2.608   0.634   7.764
 3480SOL     OW11119   2.323   0.494   7.638
 3480SOL    HW111120   2.383   0.567   7.654
 3480SOL    HW211121   2.239   0.536   7.622
 3481SOL     OW11122   3.173   0.851   7.755
 3481SOL    HW111123   3.086   0.852   7.795
 3481SOL    HW211124   3.156   0.841   7.662
 3482SOL     OW11125   3.571   0.130   7.946
 3482SOL    HW111126   3.646   0.130   7.887
 3482SOL    HW211127   3.601   0.083   8.023
 3483SOL     OW11128   3.227   1.576   7.897
 3483SOL    HW111129   3.302   1.597   7.841
 3483SOL    HW211130   3.195   1.661   7.927
 3484SOL     OW11131   2.529   1.618   7.604
 3484SOL    HW111132   2.541   1.630   7.510
 3484SOL    HW211133   2.478   1.538   7.612
 3485SOL     OW11134   3.070   1.608   7.478
 3485SOL    HW111135   3.060   1.517   7.506
 3485SOL    HW211136   3.004   1.620   7.410
 3486SOL     OW11137   2.789   0.911   7.756
 3486SOL    HW111138   2.842   0.935   7.680
 3486SOL    HW211139   2.786   0.815   7.753
 3487SOL     OW11140   3.356   1.625   7.489
 3487SOL    HW111141   3.261   1.619   7.477
 3487SOL    HW211142   3.391   1.631   7.399
 3488SOL     OW11143   2.468   1.507   7.936
 3488SOL    HW111144   2.511   1.445   7.878
 3488SOL    HW211145   2.395   1.542   7.884
 3489SOL     OW11146   2.120   1.347   7.740
 3489SOL    HW111147   2.027   1.345   7.715
 3489SOL    HW211148   2.120   1.383   7.829
 3490SOL     OW11149   1.937   0.339   7.489
 3490SOL    HW111150   1.854   0.308   7.452
 3490SOL    HW211151   1.961   0.414   7.435
 3491SOL     OW11152   1.925   0.182   7.746
 3491SOL    HW111153   1.923   0.258   7.688
 3491SOL    HW211154   2.006   0.135   7.723
 3492SOL     OW11155   3.039   1.339   7.556
 3492SOL    HW111156   2.947   1.313   7.558
 3492SOL    HW211157   3.064   1.345   7.649
 3493SOL     OW11158   3.085   0.320   7.916
 3493SOL    HW111159   3.150   0.250   7.909
 3493SOL    HW211160   3.109   0.367   7.996
 3494SOL     OW11161   2.484   0.734   8.058
 3494SOL    HW111162   2.492   0.818   0.024
 3494SOL    HW211163   2.397   0.736   8.018
 3495SOL     OW11164   2.723   1.368   7.480
 3495SOL    HW111165   2.686   1.395   7.564
 3495SOL    HW211166   2.744   1.449   7.435
 3496SOL     OW11167   2.935   0.979   7.537
 3496SOL    HW111168   2.916   1.036   7.462
 3496SOL    HW211169   3.014   0.931   7.512
 3497SOL     OW11170   2.250   0.420   7.984
 3497SOL    HW111171   2.303   0.369   7.922
 3497SOL    HW211172   2.299   0.417   8.066
 3498SOL     OW11173   2.628   1.335   7.759
 3498SOL    HW111174   2.596   1.244   7.761
 3498SOL    HW211175   2.710   1.332   7.809
 3499SOL     OW11176   3.227   0.038   7.610
 3499SOL    HW111177   3.239   5.291   7.527
 3499SOL    HW211178   3.143   0.006   7.644
 3500SOL     OW11179   1.912   1.079   7.750
 3500SOL    HW111180   2.006   1.068   7.736
 3500SOL    HW211181   1.880   0.990   7.766
 3501SOL     OW11182   2.754   1.651   7.782
 3501SOL    HW111183   2.678   1.627   7.729
 3501SOL    HW211184   2.720   1.714   7.845
 3502SOL     OW11185   2.088   2.482   0.124
 3502SOL    HW111186   2.003   2.456   0.161
 3502SOL    HW211187   2.098   2.426   0.047
 3503SOL     OW11188   2.086   2.140   0.991
 3503SOL    HW111189   2.114   2.106   1.076
 3503SOL    HW211190   1.996   2.109   0.981
 3504SOL     OW11191   1.866   2.243   0.638
 3504SOL    HW111192   1.784   2.270   0.680
 3504SOL    HW211193   1.845   2.164   0.590
 3505SOL     OW11194   2.428   3.148   1.175
 3505SOL    HW111195   2.341   3.153   1.135
 3505SOL    HW211196   2.443   3.236   1.210
 3506SOL     OW11197   3.421   3.373   0.706
 3506SOL    HW111198   3.378   3.355   0.790
 3506SOL    HW211199   3.349   3.378   0.643
 3507SOL     OW11200   3.025   2.541   0.736
 3507SOL    HW111201   3.045   2.629   0.705
 3507SOL    HW211202   2.940   2.550   0.780
 3508SOL     OW11203   3.629   2.463   0.234
 3508SOL    HW111204   3.594   2.463   0.144
 3508SOL    HW211205   3.591   2.386   0.274
 3509SOL     OW11206   2.633   3.021   1.038
 3509SOL    HW111207   2.555   3.039   1.091
 3509SOL    HW211208   2.653   3.105   0.996
 3510SOL     OW11209   2.568   3.023   1.821
 3510SOL    HW111210   2.621   3.102   1.835
 3510SOL    HW211211   2.491   3.054   1.775
 3511SOL     OW11212   2.191   3.291   1.068
 3511SOL    HW111213   2.120   3.252   1.016
 3511SOL    HW211214   2.243   3.340   1.004
 3512SOL     OW11215   3.323   3.361   1.353
 3512SOL    HW111216   3.371   3.443   1.363
 3512SOL    HW211217   3.262   3.360   1.427
 3513SOL     OW11218   2.311   2.264   1.501
 3513SOL    HW111219   2.387   2.206   1.496
 3513SOL    HW211220   2.236   2.206   1.508
 3514SOL     OW11221   3.475   2.311   0.740
 3514SOL    HW111222   3.398   2.334   0.687
 3514SOL    HW211223   3.490   2.387   0.796
 3515SOL     OW11224   2.082   3.576   0.472
 3515SOL    HW111225   2.104   3.652   0.526
 3515SOL    HW211226   2.156   3.568   0.411
 3516SOL     OW11227   3.000   3.204   1.694
 3516SOL    HW111228   3.039   3.199   1.781
 3516SOL    HW211229   2.948   3.125   1.686
 3517SOL     OW11230   2.087   3.304   0.534
 3517SOL    HW111231   2.074   3.399   0.537
 3517SOL    HW211232   2.028   3.269   0.600
 3518SOL     OW11233   2.114   2.952   0.887
 3518SOL    HW111234   2.112   2.868   0.932
 3518SOL    HW211235   2.060   3.009   0.942
 3519SOL     OW11236   2.475   3.654   1.430
 3519SOL    HW111237   2.393   3.636   1.476
 3519SOL    HW211238   2.497   3.743   1.455
 3520SOL     OW11239   2.469   2.854   0.104
 3520SOL    HW111240   2.422   2.937   0.093
 3520SOL    HW211241   2.506   2.860   0.192
 3521SOL     OW11242   3.458   1.985   1.468
 3521SOL    HW111243   3.463   2.065   1.417
 3521SOL    HW211244   3.445   2.015   1.558
 3522SOL     OW11245   1.978   2.510   0.563
 3522SOL    HW111246   1.943   2.423   0.585
 3522SOL    HW211247   1.968   2.560   0.644
 3523SOL     OW11248   3.707   3.621   0.333
 3523SOL    HW111249   3.770   3.591   0.398
 3523SOL    HW211250   3.732   3.711   0.315
 3524SOL     OW11251   1.889   3.459   0.111
 3524SOL    HW111252   1.877   3.370   0.145
 3524SOL    HW211253   1.874   3.515   0.187
 3525SOL     OW11254   3.550   2.780   0.642
 3525SOL    HW111255   3.634   2.739   0.622
 3525SOL    HW211256   3.529   2.832   0.564
 3526SOL     OW11257   3.508   2.967   0.435
 3526SOL    HW111258   3.587   2.982   0.384
 3526SOL    HW211259   3.514   3.029   0.508
 3527SOL     OW11260   1.981   2.604   1.586
 3527SOL    HW111261   2.072   2.629   1.602
 3527SOL    HW211262   1.932   2.686   1.593
 3528SOL     OW11263   2.478   3.246   0.735
 3528SOL    HW111264   2.433   3.162   0.745
 3528SOL    HW211265   2.458   3.272   0.645
 3529SOL     OW11266   3.151   3.099   1.426
 3529SOL    HW111267   3.184   3.033   1.365
 3529SOL    HW211268   3.210   3.093   1.501
 3530SOL     OW11269   2.677   1.865   0.510
 3530SOL    HW111270   2.715   1.950   0.489
 3530SOL    HW211271   2.583   1.882   0.518
 3531SOL     OW11272   2.046   2.833   1.269
 3531SOL    HW111273   2.130   2.789   1.256
 3531SOL    HW211274   1.983   2.776   1.226
 3532SOL     OW11275   3.370   2.869   0.212
 3532SOL    HW111276   3.321   2.792   0.242
 3532SOL    HW211277   3.424   2.893   0.288
 3533SOL     OW11278   3.048   3.667   1.622
 3533SOL    HW111279   3.059   3.726   1.547
 3533SOL    HW211280   3.063   3.579   1.586
 3534SOL     OW11281   2.191   2.111   1.808
 3534SOL    HW111282   2.238   2.193   1.822
 3534SOL    HW211283   2.103   2.126   1.842
 3535SOL     OW11284   3.329   3.282   0.953
 3535SOL    HW111285   3.260   3.297   1.018
 3535SOL    HW211286   3.317   3.191   0.926
 3536SOL     OW11287   3.522   3.600   0.581
 3536SOL    HW111288   3.501   3.572   0.492
 3536SOL    HW211289   3.496   3.526   0.636
 3537SOL     OW11290   3.143   2.210   0.932
 3537SOL    HW111291   3.054   2.178   0.941
 3537SOL    HW211292   3.194   2.158   0.995
 3538SOL     OW11293   3.449   3.532   0.319
 3538SOL    HW111294   3.539   3.563   0.312
 3538SOL    HW211295   3.422   3.515   0.228
 3539SOL     OW11296   3.256   2.336   1.677
 3539SOL    HW111297   3.257   2.380   1.762
 3539SOL    HW211298   3.318   2.264   1.688
 3540SOL     OW11299   2.851   2.272   1.247
 3540SOL    HW111300   2.763   2.285   1.283
 3540SOL    HW211301   2.836   2.238   1.159
 3541SOL     OW11302   1.951   2.682   0.776
 3541SOL    HW111303   2.032   2.677   0.826
 3541SOL    HW211304   1.907   2.760   0.810
 3542SOL     OW11305   1.989   3.706   1.577
 3542SOL    HW111306   1.989   3.686   1.670
 3542SOL    HW211307   1.897   3.704   1.551
 3543SOL     OW11308   2.748   2.220   0.208
 3543SOL    HW111309   2.796   2.268   0.141
 3543SOL    HW211310   2.746   2.129   0.176
 3544SOL     OW11311   3.570   2.437   1.828
 3544SOL    HW111312   3.533   2.512   1.781
 3544SOL    HW211313   3.598   2.377   1.759
 3545SOL     OW11314   3.235   3.000   0.538
 3545SOL    HW111315   3.317   2.991   0.489
 3545SOL    HW211316   3.186   3.067   0.491
 3546SOL     OW11317   2.410   2.041   0.889
 3546SOL    HW111318   2.411   2.065   0.981
 3546SOL    HW211319   2.409   2.125   0.842
 3547SOL     OW11320   2.867   3.307   0.474
 3547SOL    HW111321   2.829   3.379   0.423
 3547SOL    HW211322   2.850   3.330   0.565
 3548SOL     OW11323   2.217   3.670   0.860
 3548SOL    HW111324   2.260   3.585   0.869
 3548SOL    HW211325   2.285   3.734   0.878
 3549SOL     OW11326   3.661   2.919   0.868
 3549SOL    HW111327   3.605   2.902   0.792
 3549SOL    HW211328   3.600   2.925   0.942
 3550SOL     OW11329   3.089   3.400   1.512
 3550SOL    HW111330   3.076   3.328   1.574
 3550SOL    HW211331   3.027   3.384   1.442
 3551SOL     OW11332   2.195   2.810   0.244
 3551SOL    HW111333   2.274   2.831   0.194
 3551SOL    HW211334   2.190   2.714   0.241
 3552SOL     OW11335   3.337   2.607   0.727
 3552SOL    HW111336   3.328   2.561   0.810
 3552SOL    HW211337   3.416   2.660   0.737
 3553SOL     OW11338   2.326   3.127   1.737
 3553SOL    HW111339   2.298   3.132   1.646
 3553SOL    HW211340   2.244   3.125   1.787
 3554SOL     OW11341   2.970   3.643   0.225
 3554SOL    HW111342   2.913   3.602   0.291
 3554SOL    HW211343   2.991   3.572   0.164
 3555SOL     OW11344   2.063   2.146   1.501
 3555SOL    HW111345   1.979   2.191   1.495
 3555SOL    HW211346   2.047   2.076   1.565
 3556SOL     OW11347   3.495   3.235   0.083
 3556SOL    HW111348   3.455   3.322   0.081
 3556SOL    HW211349   3.423   3.175   0.064
 3557SOL     OW11350   2.326   3.601   0.323
 3557SOL    HW111351   2.368   3.659   0.387
 3557SOL    HW211352   2.397   3.575   0.264
 3558SOL     OW11353   3.268   1.973   0.442
 3558SOL    HW111354   3.259   1.952   0.349
 3558SOL    HW211355   3.363   1.980   0.456
 3559SOL     OW11356   2.116   3.653   1.232
 3559SOL    HW111357   2.169   3.589   1.279
 3559SOL    HW211358   2.108   3.617   1.144
 3560SOL     OW11359   2.799   3.562   0.899
 3560SOL    HW111360   2.873   3.508   0.925
 3560SOL    HW211361   2.755   3.511   0.831
 3561SOL     OW11362   2.243   2.552   0.466
 3561SOL    HW111363   2.275   2.465   0.488
 3561SOL    HW211364   2.153   2.554   0.498
 3562SOL     OW11365   3.399   2.087   1.726
 3562SOL    HW111366   3.407   2.109   1.818
 3562SOL    HW211367   3.330   2.021   1.722
 3563SOL     OW11368   2.491   1.977   0.134
 3563SOL    HW111369   2.585   1.963   0.142
 3563SOL    HW211370   2.470   1.954   0.044
 3564SOL     OW11371   2.619   2.115   1.746
 3564SOL    HW111372   2.702   2.068   1.753
 3564SOL    HW211373   2.601   2.147   1.834
 3565SOL     OW11374   2.739   3.386   1.194
 3565SOL    HW111375   2.722   3.349   1.107
 3565SOL    HW211376   2.805   3.328   1.232
 3566SOL     OW11377   3.211   2.450   1.428
 3566SOL    HW111378   3.237   2.419   1.515
 3566SOL    HW211379   3.246   2.539   1.423
 3567SOL     OW11380   2.677   3.270   0.935
 3567SOL    HW111381   2.761   3.253   0.892
 3567SOL    HW211382   2.612   3.263   0.865
 3568SOL     OW11383   2.780   2.352   0.899
 3568SOL    HW111384   2.765   2.338   0.806
 3568SOL    HW211385   2.828   2.274   0.927
 3569SOL     OW11386   2.411   1.925   0.506
 3569SOL    HW111387   2.331   1.924   0.557
 3569SOL    HW211388   2.404   2.004   0.452
 3570SOL     OW11389   3.295   3.061   0.036
 3570SOL    HW111390   3.319   2.987   0.092
 3570SOL    HW211391   3.207   3.086   0.064
 3571SOL     OW11392   2.172   1.916   0.168
 3571SOL    HW111393   2.236   1.985   0.184
 3571SOL    HW211394   2.208   1.838   0.211
 3572SOL     OW11395   2.800   2.111   0.459
 3572SOL    HW111396   2.774   2.150   0.376
 3572SOL    HW211397   2.895   2.121   0.462
 3573SOL     OW11398   2.944   2.524   1.460
 3573SOL    HW111399   2.896   2.443   1.441
 3573SOL    HW211400   3.036   2.503   1.441
 3574SOL     OW11401   3.088   3.428   0.792
 3574SOL    HW111402   3.103   3.498   0.728
 3574SOL    HW211403   3.153   3.445   0.860
 3575SOL     OW11404   2.329   3.017   0.733
 3575SOL    HW111405   2.261   2.993   0.796
 3575SOL    HW211406   2.293   2.992   0.648
 3576SOL     OW11407   3.131   3.656   0.606
 3576SOL    HW111408   3.179   3.719   0.553
 3576SOL    HW211409   3.065   3.709   0.652
 3577SOL     OW11410   2.918   2.374   0.024
 3577SOL    HW111411   2.869   2.453   0.003
 3577SOL    HW211412   2.976   2.399   0.096
 3578SOL     OW11413   1.941   2.417   1.390
 3578SOL    HW111414   2.033   2.415   1.366
 3578SOL    HW211415   1.935   2.488   1.455
 3579SOL     OW11416   2.418   2.076   1.160
 3579SOL    HW111417   2.460   2.001   1.201
 3579SOL    HW211418   2.328   2.076   1.192
 3580SOL     OW11419   2.719   2.307   0.641
 3580SOL    HW111420   2.723   2.381   0.580
 3580SOL    HW211421   2.745   2.232   0.589
 3581SOL     OW11422   2.876   1.914   0.751
 3581SOL    HW111423   2.817   1.905   0.676
 3581SOL    HW211424   2.855   1.838   0.806
 3582SOL     OW11425   3.300   3.026   0.858
 3582SOL    HW111426   3.233   2.958   0.856
 3582SOL    HW211427   3.325   3.038   0.766
 3583SOL     OW11428   3.331   2.466   0.977
 3583SOL    HW111429   3.278   2.386   0.981
 3583SOL    HW211430   3.390   2.460   1.052
 3584SOL     OW11431   3.709   2.678   0.388
 3584SOL    HW111432   3.762   2.625   0.448
 3584SOL    HW211433   3.679   2.616   0.322
 3585SOL     OW11434   2.341   3.306   0.175
 3585SOL    HW111435   2.272   3.262   0.224
 3585SOL    HW211436   2.351   3.253   0.095
 3586SOL     OW11437   3.531   3.127   0.649
 3586SOL    HW111438   3.626   3.131   0.661
 3586SOL    HW211439   3.500   3.215   0.669
 3587SOL     OW11440   3.260   2.441   0.087
 3587SOL    HW111441   3.198   2.418   0.156
 3587SOL    HW211442   3.318   2.366   0.081
 3588SOL     OW11443   2.378   2.127   0.324
 3588SOL    HW111444   2.427   2.074   0.262
 3588SOL    HW211445   2.368   2.212   0.281
 3589SOL     OW11446   3.615   3.100   1.575
 3589SOL    HW111447   3.703   3.061   1.571
 3589SOL    HW211448   3.630   3.190   1.603
 3590SOL     OW11449   2.924   3.219   1.335
 3590SOL    HW111450   2.847   3.187   1.382
 3590SOL    HW211451   2.998   3.175   1.376
 3591SOL     OW11452   3.469   3.487   1.653
 3591SOL    HW111453   3.464   3.521   1.564
 3591SOL    HW211454   3.552   3.440   1.656
 3592SOL     OW11455   2.990   3.063   1.104
 3592SOL    HW111456   2.927   3.091   1.172
 3592SOL    HW211457   2.952   3.095   1.022
 3593SOL     OW11458   3.492   2.961   1.078
 3593SOL    HW111459   3.488   3.023   1.151
 3593SOL    HW211460   3.412   2.978   1.028
 3594SOL     OW11461   2.780   1.959   1.397
 3594SOL    HW111462   2.803   1.940   1.306
 3594SOL    HW211463   2.859   1.999   1.434
 3595SOL     OW11464   2.851   2.973   1.717
 3595SOL    HW111465   2.759   2.986   1.739
 3595SOL    HW211466   2.849   2.919   1.638
 3596SOL     OW11467   2.568   2.946   0.363
 3596SOL    HW111468   2.524   2.934   0.447
 3596SOL    HW211469   2.613   2.862   0.348
 3597SOL     OW11470   2.266   2.674   1.255
 3597SOL    HW111471   2.356   2.683   1.288
 3597SOL    HW211472   2.242   2.584   1.276
 3598SOL     OW11473   3.129   2.239   1.274
 3598SOL    HW111474   3.163   2.316   1.319
 3598SOL    HW211475   3.039   2.263   1.252
 3599SOL     OW11476   1.932   3.435   1.351
 3599SOL    HW111477   1.902   3.509   1.298
 3599SOL    HW211478   2.027   3.439   1.347
 3600SOL     OW11479   2.219   2.967   0.485
 3600SOL    HW111480   2.212   3.043   0.427
 3600SOL    HW211481   2.217   2.892   0.427
 3601SOL     OW11482   2.410   2.378   0.869
 3601SOL    HW111483   2.412   2.406   0.778
 3601SOL    HW211484   2.499   2.392   0.900
 3602SOL     OW11485   3.109   3.208   0.396
 3602SOL    HW111486   3.164   3.282   0.422
 3602SOL    HW211487   3.021   3.233   0.426
 3603SOL     OW11488   3.141   3.318   1.146
 3603SOL    HW111489   3.195   3.320   1.225
 3603SOL    HW211490   3.082   3.245   1.159
 3604SOL     OW11491   3.443   2.487   0.480
 3604SOL    HW111492   3.397   2.541   0.544
 3604SOL    HW211493   3.484   2.549   0.421
 3605SOL     OW11494   2.209   3.388   1.316
 3605SOL    HW111495   2.196   3.346   1.231
 3605SOL    HW211496   2.304   3.400   1.323
 3606SOL     OW11497   2.266   2.604   1.610
 3606SOL    HW111498   2.320   2.655   1.550
 3606SOL    HW211499   2.298   2.514   1.600
 3607SOL     OW11500   3.462   2.641   1.681
 3607SOL    HW111501   3.375   2.681   1.673
 3607SOL    HW211502   3.514   2.682   1.613
 3608SOL     OW11503   2.862   1.985   1.759
 3608SOL    HW111504   2.915   2.057   1.725
 3608SOL    HW211505   2.909   1.906   1.732
 3609SOL     OW11506   2.359   1.902   1.746
 3609SOL    HW111507   2.316   1.848   1.679
 3609SOL    HW211508   2.300   1.976   1.758
 3610SOL     OW11509   3.225   2.721   1.031
 3610SOL    HW111510   3.145   2.710   0.980
 3610SOL    HW211511   3.266   2.635   1.030
 3611SOL     OW11512   3.060   2.390   0.272
 3611SOL    HW111513   3.065   2.308   0.322
 3611SOL    HW211514   3.072   2.459   0.338
 3612SOL     OW11515   2.161   2.061   1.247
 3612SOL    HW111516   2.124   2.094   1.329
 3612SOL    HW211517   2.142   1.968   1.247
 3613SOL     OW11518   1.907   3.173   1.276
 3613SOL    HW111519   1.941   3.119   1.348
 3613SOL    HW211520   1.915   3.263   1.308
 3614SOL     OW11521   3.596   2.821   1.852
 3614SOL    HW111522   3.549   2.762   1.793
 3614SOL    HW211523   3.537   2.834   1.925
 3615SOL     OW11524   2.164   1.928   0.623
 3615SOL    HW111525   2.145   2.019   0.648
 3615SOL    HW211526   2.171   1.881   0.706
 3616SOL     OW11527   3.481   2.236   0.371
 3616SOL    HW111528   3.506   2.171   0.436
 3616SOL    HW211529   3.456   2.313   0.421
 3617SOL     OW11530   2.843   3.428   1.715
 3617SOL    HW111531   2.828   3.473   1.632
 3617SOL    HW211532   2.887   3.346   1.691
 3618SOL     OW11533   3.717   3.369   1.605
 3618SOL    HW111534   3.735   3.395   1.515
 3618SOL    HW211535   3.798   3.388   1.652
 3619SOL     OW11536   2.210   2.780   1.813
 3619SOL    HW111537   2.290   2.808   1.856
 3619SOL    HW211538   2.238   2.715   1.749
 3620SOL     OW11539   3.381   2.162   0.127
 3620SOL    HW111540   3.333   2.080   0.142
 3620SOL    HW211541   3.421   2.182   0.211
 3621SOL     OW11542   3.158   2.688   0.022
 3621SOL    HW111543   3.195   2.601   0.038
 3621SOL    HW211544   3.213   2.725   8.034
 3622SOL     OW11545   2.926   3.199   0.849
 3622SOL    HW111546   2.931   3.129   0.784
 3622SOL    HW211547   2.989   3.264   0.819
 3623SOL     OW11548   2.169   2.673   0.949
 3623SOL    HW111549   2.259   2.706   0.957
 3623SOL    HW211550   2.171   2.587   0.989
 3624SOL     OW11551   2.188   2.385   1.019
 3624SOL    HW111552   2.151   2.298   1.003
 3624SOL    HW211553   2.265   2.389   0.963
 3625SOL     OW11554   2.999   2.236   1.678
 3625SOL    HW111555   2.954   2.290   1.744
 3625SOL    HW211556   3.086   2.275   1.672
 3626SOL     OW11557   3.023   2.064   1.469
 3626SOL    HW111558   3.013   2.127   1.541
 3626SOL    HW211559   3.062   2.115   1.398
 3627SOL     OW11560   1.872   3.187   0.191
 3627SOL    HW111561   1.785   3.201   0.153
 3627SOL    HW211562   1.871   3.097   0.222
 3628SOL     OW11563   1.952   3.650   0.937
 3628SOL    HW111564   1.922   3.570   0.894
 3628SOL    HW211565   2.042   3.662   0.906
 3629SOL     OW11566   2.359   3.435   0.905
 3629SOL    HW111567   2.428   3.497   0.930
 3629SOL    HW211568   2.404   3.370   0.851
 3630SOL     OW11569   1.897   2.405   1.117
 3630SOL    HW111570   1.979   2.394   1.068
 3630SOL    HW211571   1.924   2.411   1.208
 3631SOL     OW11572   2.053   2.381   1.726
 3631SOL    HW111573   2.104   2.339   1.657
 3631SOL    HW211574   2.009   2.453   1.682
 3632SOL     OW11575   3.237   2.802   1.659
 3632SOL    HW111576   3.260   2.895   1.657
 3632SOL    HW211577   3.236   2.776   1.566
 3633SOL     OW11578   3.504   2.464   1.187
 3633SOL    HW111579   3.493   2.405   1.262
 3633SOL    HW211580   3.591   2.443   1.153
 3634SOL     OW11581   2.106   3.414   1.729
 3634SOL    HW111582   2.083   3.478   1.796
 3634SOL    HW211583   2.107   3.330   1.774
 3635SOL     OW11584   2.545   2.294   1.256
 3635SOL    HW111585   2.497   2.216   1.229
 3635SOL    HW211586   2.551   2.347   1.177
 3636SOL     OW11587   2.790   3.542   1.468
 3636SOL    HW111588   2.765   3.506   1.383
 3636SOL    HW211589   2.786   3.637   1.456
 3637SOL     OW11590   2.333   2.360   0.190
 3637SOL    HW111591   2.393   2.434   0.201
 3637SOL    HW211592   2.246   2.400   0.191
 3638SOL     OW11593   2.007   3.003   1.473
 3638SOL    HW111594   2.010   2.950   1.552
 3638SOL    HW211595   2.023   2.941   1.402
 3639SOL     OW11596   3.190   2.910   1.224
 3639SOL    HW111597   3.213   2.847   1.156
 3639SOL    HW211598   3.120   2.962   1.185
 3640SOL     OW11599   3.166   2.692   0.305
 3640SOL    HW111600   3.087   2.729   0.345
 3640SOL    HW211601   3.151   2.700   0.211
 3641SOL     OW11602   3.631   3.607   1.149
 3641SOL    HW111603   3.693   3.633   1.080
 3641SOL    HW211604   3.609   3.517   1.128
 3642SOL     OW11605   3.103   3.595   1.114
 3642SOL    HW111606   3.185   3.614   1.069
 3642SOL    HW211607   3.108   3.501   1.132
 3643SOL     OW11608   1.945   3.129   1.012
 3643SOL    HW111609   1.932   3.141   1.106
 3643SOL    HW211610   1.872   3.074   0.985
 3644SOL     OW11611   2.539   3.527   1.727
 3644SOL    HW111612   2.487   3.607   1.723
 3644SOL    HW211613   2.604   3.537   1.658
 3645SOL     OW11614   2.767   1.955   0.135
 3645SOL    HW111615   2.785   1.940   0.043
 3645SOL    HW211616   2.830   1.900   0.182
 3646SOL     OW11617   3.580   2.006   0.510
 3646SOL    HW111618   3.653   1.990   0.450
 3646SOL    HW211619   3.565   1.921   0.552
 3647SOL     OW11620   3.251   3.430   0.484
 3647SOL    HW111621   3.315   3.463   0.420
 3647SOL    HW211622   3.204   3.508   0.513
 3648SOL     OW11623   1.997   3.659   1.843
 3648SOL    HW111624   1.947   3.594   1.892
 3648SOL    HW211625   2.046   3.706   1.911
 3649SOL     OW11626   3.131   2.788   0.670
 3649SOL    HW111627   3.203   2.726   0.678
 3649SOL    HW211628   3.167   2.860   0.619
 3650SOL     OW11629   2.689   3.139   1.436
 3650SOL    HW111630   2.648   3.181   1.512
 3650SOL    HW211631   2.617   3.126   1.374
 3651SOL     OW11632   2.539   3.483   0.155
 3651SOL    HW111633   2.544   3.488   0.059
 3651SOL    HW211634   2.477   3.412   0.172
 3652SOL     OW11635   3.490   3.589   1.391
 3652SOL    HW111636   3.539   3.596   1.310
 3652SOL    HW211637   3.477   3.679   1.419
 3653SOL     OW11638   3.702   2.035   0.967
 3653SOL    HW111639   3.731   1.948   0.939
 3653SOL    HW211640   3.616   2.045   0.927
 3654SOL     OW11641   2.125   2.182   0.717
 3654SOL    HW111642   2.038   2.214   0.693
 3654SOL    HW211643   2.120   2.170   0.812
 3655SOL     OW11644   3.019   3.445   0.052
 3655SOL    HW111645   3.036   3.352   0.070
 3655SOL    HW211646   3.027   3.452   8.037
 3656SOL     OW11647   3.372   3.486   0.060
 3656SOL    HW111648   3.277   3.487   0.050
 3656SOL    HW211649   3.406   3.487   8.051
 3657SOL     OW11650   2.230   3.165   1.493
 3657SOL    HW111651   2.219   3.241   1.436
 3657SOL    HW211652   2.153   3.111   1.475
 3658SOL     OW11653   3.473   3.145   1.281
 3658SOL    HW111654   3.533   3.135   1.355
 3658SOL    HW211655   3.413   3.214   1.307
 3659SOL     OW11656   2.909   2.965   0.701
 3659SOL    HW111657   2.845   2.917   0.753
 3659SOL    HW211658   2.977   2.901   0.681
 3660SOL     OW11659   2.887   2.098   0.966
 3660SOL    HW111660   2.881   2.048   0.884
 3660SOL    HW211661   2.880   2.031   1.034
 3661SOL     OW11662   2.463   3.350   0.480
 3661SOL    HW111663   2.507   3.304   0.409
 3661SOL    HW211664   2.394   3.401   0.437
 3662SOL     OW11665   3.583   2.254   1.380
 3662SOL    HW111666   3.655   2.317   1.379
 3662SOL    HW211667   3.613   2.182   1.324
 3663SOL     OW11668   2.125   3.181   0.301
 3663SOL    HW111669   2.042   3.196   0.257
 3663SOL    HW211670   2.119   3.229   0.383
 3664SOL     OW11671   1.973   2.881   1.718
 3664SOL    HW111672   1.897   2.860   1.772
 3664SOL    HW211673   2.047   2.846   1.767
 3665SOL     OW11674   2.533   2.057   1.494
 3665SOL    HW111675   2.618   2.039   1.455
 3665SOL    HW211676   2.552   2.079   1.585
 3666SOL     OW11677   1.921   2.220   0.039
 3666SOL    HW111678   1.845   2.167   0.015
 3666SOL    HW211679   1.960   2.244   8.035
 3667SOL     OW11680   3.293   2.720   1.402
 3667SOL    HW111681   3.244   2.780   1.346
 3667SOL    HW211682   3.383   2.724   1.367
 3668SOL     OW11683   1.934   2.017   0.307
 3668SOL    HW111684   1.917   2.100   0.262
 3668SOL    HW211685   2.017   1.987   0.271
 3669SOL     OW11686   3.048   3.183   0.121
 3669SOL    HW111687   2.953   3.170   0.120
 3669SOL    HW211688   3.070   3.184   0.214
 3670SOL     OW11689   3.347   3.637   0.977
 3670SOL    HW111690   3.371   3.697   0.906
 3670SOL    HW211691   3.428   3.621   1.024
 3671SOL     OW11692   3.333   3.062   1.632
 3671SOL    HW111693   3.321   3.077   1.726
 3671SOL    HW211694   3.427   3.077   1.618
 3672SOL     OW11695   2.242   3.601   1.564
 3672SOL    HW111696   2.157   3.642   1.550
 3672SOL    HW211697   2.223   3.517   1.605
 3673SOL     OW11698   3.532   2.744   1.256
 3673SOL    HW111699   3.525   2.658   1.213
 3673SOL    HW211700   3.523   2.807   1.184
 3674SOL     OW11701   3.080   2.180   0.459
 3674SOL    HW111702   3.145   2.110   0.450
 3674SOL    HW211703   3.108   2.229   0.536
 3675SOL     OW11704   3.626   2.223   1.650
 3675SOL    HW111705   3.608   2.238   1.557
 3675SOL    HW211706   3.554   2.166   1.679
 3676SOL     OW11707   3.606   2.795   1.513
 3676SOL    HW111708   3.606   2.890   1.526
 3676SOL    HW211709   3.591   2.784   1.419
 3677SOL     OW11710   2.757   3.236   0.035
 3677SOL    HW111711   2.693   3.230   0.106
 3677SOL    HW211712   2.739   3.321   8.075
 3678SOL     OW11713   2.521   3.655   0.946
 3678SOL    HW111714   2.502   3.745   0.922
 3678SOL    HW211715   2.616   3.648   0.939
 3679SOL     OW11716   2.961   2.864   0.091
 3679SOL    HW111717   2.944   2.917   0.014
 3679SOL    HW211718   3.029   2.803   0.063
 3680SOL     OW11719   3.717   3.416   0.844
 3680SOL    HW111720   3.639   3.406   0.791
 3680SOL    HW211721   3.707   3.351   0.914
 3681SOL     OW11722   2.086   3.166   1.856
 3681SOL    HW111723   2.018   3.106   1.828
 3681SOL    HW211724   2.070   3.178   1.950
 3682SOL     OW11725   1.945   3.094   0.665
 3682SOL    HW111726   1.950   3.046   0.747
 3682SOL    HW211727   2.019   3.063   0.614
 3683SOL     OW11728   2.541   3.264   1.627
 3683SOL    HW111729   2.461   3.221   1.656
 3683SOL    HW211730   2.537   3.352   1.664
 3684SOL     OW11731   3.675   2.047   1.238
 3684SOL    HW111732   3.686   1.953   1.253
 3684SOL    HW211733   3.684   2.057   1.143
 3685SOL     OW11734   2.305   2.296   0.539
 3685SOL    HW111735   2.324   2.229   0.473
 3685SOL    HW211736   2.244   2.254   0.599
 3686SOL     OW11737   3.563   3.351   1.097
 3686SOL    HW111738   3.482   3.328   1.053
 3686SOL    HW211739   3.576   3.283   1.163
 3687SOL     OW11740   2.195   2.413   1.297
 3687SOL    HW111741   2.250   2.354   1.349
 3687SOL    HW211742   2.208   2.384   1.206
 3688SOL     OW11743   2.690   3.440   0.676
 3688SOL    HW111744   2.676   3.491   0.596
 3688SOL    HW211745   2.612   3.384   0.681
 3689SOL     OW11746   3.295   2.086   1.119
 3689SOL    HW111747   3.322   2.007   1.166
 3689SOL    HW211748   3.242   2.135   1.182
 3690SOL     OW11749   2.870   1.880   1.143
 3690SOL    HW111750   2.817   1.811   1.104
 3690SOL    HW211751   2.959   1.843   1.146
 3691SOL     OW11752   2.634   3.203   0.302
 3691SOL    HW111753   2.602   3.113   0.313
 3691SOL    HW211754   2.715   3.205   0.353
 3692SOL     OW11755   2.481   3.421   1.283
 3692SOL    HW111756   2.485   3.503   1.334
 3692SOL    HW211757   2.569   3.411   1.247
 3693SOL     OW11758   3.218   1.916   0.183
 3693SOL    HW111759   3.240   1.868   0.104
 3693SOL    HW211760   3.132   1.882   0.209
 3694SOL     OW11761   3.164   2.316   0.681
 3694SOL    HW111762   3.117   2.399   0.693
 3694SOL    HW211763   3.161   2.274   0.768
 3695SOL     OW11764   3.449   2.065   0.877
 3695SOL    HW111765   3.387   2.084   0.948
 3695SOL    HW211766   3.448   2.143   0.823
 3696SOL     OW11767   1.904   2.929   0.300
 3696SOL    HW111768   1.999   2.930   0.302
 3696SOL    HW211769   1.879   2.847   0.343
 3697SOL     OW11770   2.744   3.514   0.347
 3697SOL    HW111771   2.677   3.497   0.282
 3697SOL    HW211772   2.712   3.590   0.396
 3698SOL     OW11773   2.094   2.480   1.984
 3698SOL    HW111774   2.005   2.487   2.019
 3698SOL    HW211775   2.082   2.457   1.892
 3699SOL     OW11776   1.865   2.243   2.497
 3699SOL    HW111777   1.785   2.270   2.541
 3699SOL    HW211778   1.842   2.163   2.450
 3700SOL     OW11779   3.420   3.372   2.569
 3700SOL    HW111780   3.375   3.357   2.653
 3700SOL    HW211781   3.350   3.378   2.505
 3701SOL     OW11782   3.015   2.541   2.582
 3701SOL    HW111783   3.046   2.630   2.564
 3701SOL    HW211784   2.942   2.552   2.642
 3702SOL     OW11785   3.628   2.468   2.091
 3702SOL    HW111786   3.608   2.460   1.998
 3702SOL    HW211787   3.593   2.389   2.131
 3703SOL     OW11788   2.633   3.018   2.900
 3703SOL    HW111789   2.551   3.034   2.947
 3703SOL    HW211790   2.653   3.101   2.858
 3704SOL     OW11791   2.174   3.330   2.938
 3704SOL    HW111792   2.121   3.266   2.890
 3704SOL    HW211793   2.242   3.356   2.876
 3705SOL     OW11794   3.475   2.311   2.602
 3705SOL    HW111795   3.398   2.334   2.550
 3705SOL    HW211796   3.489   2.386   2.660
 3706SOL     OW11797   2.081   3.576   2.334
 3706SOL    HW111798   2.103   3.652   2.388
 3706SOL    HW211799   2.154   3.569   2.273
 3707SOL     OW11800   2.089   3.303   2.396
 3707SOL    HW111801   2.075   3.397   2.402
 3707SOL    HW211802   2.031   3.265   2.462
 3708SOL     OW11803   2.110   2.952   2.750
 3708SOL    HW111804   2.110   2.869   2.798
 3708SOL    HW211805   2.061   3.012   2.805
 3709SOL     OW11806   2.492   3.661   3.309
 3709SOL    HW111807   2.404   3.644   3.343
 3709SOL    HW211808   2.506   3.754   3.324
 3710SOL     OW11809   2.430   2.862   1.988
 3710SOL    HW111810   2.476   2.919   1.927
 3710SOL    HW211811   2.491   2.850   2.060
 3711SOL     OW11812   1.977   2.513   2.423
 3711SOL    HW111813   1.942   2.426   2.444
 3711SOL    HW211814   1.968   2.563   2.504
 3712SOL     OW11815   3.704   3.622   2.198
 3712SOL    HW111816   3.767   3.593   2.264
 3712SOL    HW211817   3.729   3.712   2.179
 3713SOL     OW11818   1.893   3.458   1.986
 3713SOL    HW111819   1.876   3.366   2.006
 3713SOL    HW211820   1.869   3.504   2.066
 3714SOL     OW11821   3.551   2.781   2.501
 3714SOL    HW111822   3.636   2.740   2.482
 3714SOL    HW211823   3.531   2.830   2.421
 3715SOL     OW11824   3.507   2.970   2.291
 3715SOL    HW111825   3.593   2.976   2.248
 3715SOL    HW211826   3.513   3.030   2.364
 3716SOL     OW11827   2.475   3.244   2.589
 3716SOL    HW111828   2.429   3.160   2.600
 3716SOL    HW211829   2.454   3.271   2.500
 3717SOL     OW11830   2.675   1.858   2.372
 3717SOL    HW111831   2.719   1.940   2.350
 3717SOL    HW211832   2.582   1.881   2.379
 3718SOL     OW11833   2.063   2.868   3.079
 3718SOL    HW111834   2.139   2.810   3.087
 3718SOL    HW211835   1.990   2.816   3.114
 3719SOL     OW11836   3.394   2.855   2.060
 3719SOL    HW111837   3.328   2.793   2.091
 3719SOL    HW211838   3.434   2.890   2.139
 3720SOL     OW11839   3.053   3.679   3.483
 3720SOL    HW111840   3.057   3.733   3.405
 3720SOL    HW211841   3.014   3.597   3.454
 3721SOL     OW11842   3.329   3.278   2.826
 3721SOL    HW111843   3.246   3.297   2.871
 3721SOL    HW211844   3.317   3.190   2.791
 3722SOL     OW11845   3.521   3.599   2.440
 3722SOL    HW111846   3.501   3.570   2.351
 3722SOL    HW211847   3.496   3.525   2.496
 3723SOL     OW11848   3.143   2.208   2.789
 3723SOL    HW111849   3.053   2.179   2.801
 3723SOL    HW211850   3.193   2.157   2.853
 3724SOL     OW11851   3.443   3.531   2.171
 3724SOL    HW111852   3.533   3.564   2.164
 3724SOL    HW211853   3.417   3.514   2.080
 3725SOL     OW11854   2.862   2.278   3.107
 3725SOL    HW111855   2.778   2.276   3.152
 3725SOL    HW211856   2.843   2.247   3.018
 3726SOL     OW11857   1.950   2.682   2.639
 3726SOL    HW111858   2.032   2.676   2.687
 3726SOL    HW211859   1.908   2.761   2.672
 3727SOL     OW11860   1.981   3.695   3.439
 3727SOL    HW111861   1.979   3.681   3.534
 3727SOL    HW211862   1.889   3.705   3.414
 3728SOL     OW11863   2.744   2.189   2.007
 3728SOL    HW111864   2.799   2.252   1.960
 3728SOL    HW211865   2.792   2.106   2.001
 3729SOL     OW11866   3.236   3.000   2.401
 3729SOL    HW111867   3.318   2.992   2.352
 3729SOL    HW211868   3.186   3.067   2.353
 3730SOL     OW11869   2.406   2.044   2.767
 3730SOL    HW111870   2.405   2.080   2.856
 3730SOL    HW211871   2.418   2.121   2.711
 3731SOL     OW11872   2.867   3.305   2.335
 3731SOL    HW111873   2.830   3.379   2.287
 3731SOL    HW211874   2.852   3.326   2.427
 3732SOL     OW11875   2.217   3.669   2.722
 3732SOL    HW111876   2.259   3.583   2.731
 3732SOL    HW211877   2.286   3.732   2.741
 3733SOL     OW11878   3.664   2.917   2.726
 3733SOL    HW111879   3.607   2.899   2.651
 3733SOL    HW211880   3.604   2.931   2.799
 3734SOL     OW11881   2.177   2.824   2.112
 3734SOL    HW111882   2.258   2.846   2.066
 3734SOL    HW211883   2.152   2.739   2.077
 3735SOL     OW11884   3.338   2.606   2.589
 3735SOL    HW111885   3.328   2.561   2.673
 3735SOL    HW211886   3.416   2.660   2.600
 3736SOL     OW11887   2.983   3.640   2.093
 3736SOL    HW111888   2.911   3.597   2.139
 3736SOL    HW211889   3.006   3.579   2.023
 3737SOL     OW11890   3.491   3.241   1.949
 3737SOL    HW111891   3.450   3.327   1.934
 3737SOL    HW211892   3.421   3.178   1.930
 3738SOL     OW11893   2.328   3.599   2.183
 3738SOL    HW111894   2.369   3.657   2.248
 3738SOL    HW211895   2.401   3.571   2.127
 3739SOL     OW11896   3.263   1.969   2.294
 3739SOL    HW111897   3.253   1.944   2.202
 3739SOL    HW211898   3.358   1.977   2.307
 3740SOL     OW11899   2.113   3.652   3.090
 3740SOL    HW111900   2.180   3.599   3.133
 3740SOL    HW211901   2.101   3.609   3.005
 3741SOL     OW11902   2.800   3.559   2.763
 3741SOL    HW111903   2.870   3.499   2.788
 3741SOL    HW211904   2.752   3.511   2.695
 3742SOL     OW11905   2.250   2.552   2.335
 3742SOL    HW111906   2.276   2.462   2.354
 3742SOL    HW211907   2.157   2.556   2.359
 3743SOL     OW11908   2.479   1.974   1.980
 3743SOL    HW111909   2.568   1.941   1.979
 3743SOL    HW211910   2.444   1.952   1.894
 3744SOL     OW11911   2.669   3.261   2.778
 3744SOL    HW111912   2.757   3.248   2.743
 3744SOL    HW211913   2.611   3.250   2.702
 3745SOL     OW11914   2.787   2.355   2.759
 3745SOL    HW111915   2.766   2.341   2.667
 3745SOL    HW211916   2.828   2.273   2.788
 3746SOL     OW11917   2.411   1.927   2.366
 3746SOL    HW111918   2.329   1.926   2.414
 3746SOL    HW211919   2.405   2.005   2.310
 3747SOL     OW11920   3.290   3.060   1.903
 3747SOL    HW111921   3.320   2.985   1.953
 3747SOL    HW211922   3.204   3.081   1.940
 3748SOL     OW11923   2.155   1.910   2.047
 3748SOL    HW111924   2.215   1.971   2.004
 3748SOL    HW211925   2.213   1.845   2.088
 3749SOL     OW11926   2.807   2.094   2.326
 3749SOL    HW111927   2.768   2.164   2.274
 3749SOL    HW211928   2.901   2.112   2.325
 3750SOL     OW11929   2.968   2.519   3.340
 3750SOL    HW111930   2.884   2.471   3.336
 3750SOL    HW211931   3.025   2.471   3.280
 3751SOL     OW11932   3.099   3.430   2.650
 3751SOL    HW111933   3.107   3.500   2.585
 3751SOL    HW211934   3.155   3.458   2.722
 3752SOL     OW11935   2.327   3.015   2.598
 3752SOL    HW111936   2.256   2.993   2.658
 3752SOL    HW211937   2.295   2.989   2.511
 3753SOL     OW11938   3.132   3.656   2.470
 3753SOL    HW111939   3.177   3.718   2.412
 3753SOL    HW211940   3.065   3.710   2.513
 3754SOL     OW11941   2.906   2.392   1.884
 3754SOL    HW111942   2.844   2.464   1.879
 3754SOL    HW211943   2.964   2.414   1.958
 3755SOL     OW11944   2.729   2.299   2.509
 3755SOL    HW111945   2.709   2.366   2.443
 3755SOL    HW211946   2.754   2.222   2.459
 3756SOL     OW11947   2.875   1.914   2.613
 3756SOL    HW111948   2.819   1.904   2.537
 3756SOL    HW211949   2.854   1.839   2.669
 3757SOL     OW11950   3.289   3.031   2.716
 3757SOL    HW111951   3.235   2.953   2.721
 3757SOL    HW211952   3.314   3.038   2.624
 3758SOL     OW11953   3.329   2.466   2.840
 3758SOL    HW111954   3.278   2.385   2.845
 3758SOL    HW211955   3.389   2.460   2.915
 3759SOL     OW11956   3.708   2.679   2.244
 3759SOL    HW111957   3.764   2.628   2.302
 3759SOL    HW211958   3.680   2.616   2.177
 3760SOL     OW11959   2.355   3.276   2.022
 3760SOL    HW111960   2.279   3.249   2.073
 3760SOL    HW211961   2.338   3.242   1.934
 3761SOL     OW11962   3.531   3.126   2.507
 3761SOL    HW111963   3.625   3.130   2.522
 3761SOL    HW211964   3.499   3.214   2.530
 3762SOL     OW11965   3.256   2.433   1.934
 3762SOL    HW111966   3.197   2.413   2.006
 3762SOL    HW211967   3.342   2.402   1.963
 3763SOL     OW11968   2.386   2.129   2.184
 3763SOL    HW111969   2.423   2.075   2.115
 3763SOL    HW211970   2.368   2.213   2.142
 3764SOL     OW11971   3.621   3.094   3.467
 3764SOL    HW111972   3.698   3.057   3.425
 3764SOL    HW211973   3.640   3.188   3.473
 3765SOL     OW11974   3.470   3.485   3.510
 3765SOL    HW111975   3.464   3.520   3.422
 3765SOL    HW211976   3.553   3.436   3.511
 3766SOL     OW11977   3.501   2.987   2.932
 3766SOL    HW111978   3.489   3.001   3.026
 3766SOL    HW211979   3.413   2.966   2.900
 3767SOL     OW11980   2.268   2.673   3.111
 3767SOL    HW111981   2.344   2.710   3.156
 3767SOL    HW211982   2.242   2.598   3.165
 3768SOL     OW11983   3.132   2.250   3.103
 3768SOL    HW111984   3.159   2.314   3.169
 3768SOL    HW211985   3.036   2.258   3.101
 3769SOL     OW11986   1.912   3.420   3.202
 3769SOL    HW111987   1.885   3.499   3.156
 3769SOL    HW211988   2.008   3.423   3.201
 3770SOL     OW11989   2.218   2.967   2.350
 3770SOL    HW111990   2.213   3.042   2.291
 3770SOL    HW211991   2.209   2.890   2.294
 3771SOL     OW11992   2.408   2.384   2.738
 3771SOL    HW111993   2.414   2.412   2.647
 3771SOL    HW211994   2.496   2.398   2.773
 3772SOL     OW11995   3.110   3.210   2.253
 3772SOL    HW111996   3.165   3.282   2.282
 3772SOL    HW211997   3.023   3.231   2.286
 3773SOL     OW11998   3.099   3.332   2.984
 3773SOL    HW111999   3.129   3.325   3.075
 3773SOL    HW212000   3.027   3.269   2.977
 3774SOL     OW12001   3.442   2.486   2.338
 3774SOL    HW112002   3.399   2.540   2.405
 3774SOL    HW212003   3.490   2.549   2.284
 3775SOL     OW12004   2.296   2.610   3.399
 3775SOL    HW112005   2.338   2.691   3.431
 3775SOL    HW212006   2.298   2.552   3.475
 3776SOL     OW12007   3.226   2.729   2.877
 3776SOL    HW112008   3.141   2.708   2.840
 3776SOL    HW212009   3.269   2.644   2.890
 3777SOL     OW12010   3.063   2.390   2.131
 3777SOL    HW112011   3.069   2.308   2.180
 3777SOL    HW212012   3.058   2.457   2.199
 3778SOL     OW12013   3.607   2.818   3.717
 3778SOL    HW112014   3.560   2.838   3.636
 3778SOL    HW212015   3.552   2.855   3.786
 3779SOL     OW12016   2.165   1.928   2.484
 3779SOL    HW112017   2.144   2.018   2.509
 3779SOL    HW212018   2.171   1.881   2.567
 3780SOL     OW12019   3.476   2.235   2.230
 3780SOL    HW112020   3.504   2.172   2.296
 3780SOL    HW212021   3.454   2.314   2.280
 3781SOL     OW12022   3.718   3.369   3.467
 3781SOL    HW112023   3.734   3.395   3.376
 3781SOL    HW212024   3.800   3.389   3.512
 3782SOL     OW12025   3.391   2.136   1.989
 3782SOL    HW112026   3.327   2.070   2.016
 3782SOL    HW212027   3.424   2.171   2.072
 3783SOL     OW12028   3.154   2.687   1.891
 3783SOL    HW112029   3.198   2.602   1.895
 3783SOL    HW212030   3.186   2.727   1.810
 3784SOL     OW12031   2.923   3.212   2.700
 3784SOL    HW112032   2.933   3.132   2.648
 3784SOL    HW212033   2.994   3.269   2.671
 3785SOL     OW12034   2.171   2.671   2.806
 3785SOL    HW112035   2.259   2.706   2.822
 3785SOL    HW212036   2.172   2.586   2.850
 3786SOL     OW12037   2.171   2.382   2.865
 3786SOL    HW112038   2.152   2.288   2.856
 3786SOL    HW212039   2.255   2.393   2.819
 3787SOL     OW12040   1.867   3.184   2.057
 3787SOL    HW112041   1.780   3.197   2.019
 3787SOL    HW212042   1.865   3.094   2.090
 3788SOL     OW12043   1.952   3.651   2.798
 3788SOL    HW112044   1.922   3.571   2.756
 3788SOL    HW212045   2.042   3.661   2.769
 3789SOL     OW12046   2.363   3.435   2.765
 3789SOL    HW112047   2.433   3.496   2.790
 3789SOL    HW212048   2.408   3.368   2.713
 3790SOL     OW12049   1.899   2.386   2.987
 3790SOL    HW112050   1.971   2.387   2.923
 3790SOL    HW212051   1.942   2.405   3.070
 3791SOL     OW12052   2.706   2.332   2.231
 3791SOL    HW112053   2.704   2.290   2.145
 3791SOL    HW212054   2.638   2.399   2.226
 3792SOL     OW12055   3.499   2.443   3.049
 3792SOL    HW112056   3.506   2.394   3.131
 3792SOL    HW212057   3.587   2.440   3.012
 3793SOL     OW12058   2.822   3.579   3.320
 3793SOL    HW112059   2.753   3.542   3.265
 3793SOL    HW212060   2.801   3.672   3.326
 3794SOL     OW12061   2.331   2.365   2.058
 3794SOL    HW112062   2.380   2.446   2.070
 3794SOL    HW212063   2.241   2.393   2.044
 3795SOL     OW12064   3.176   2.709   2.165
 3795SOL    HW112065   3.094   2.727   2.210
 3795SOL    HW212066   3.153   2.704   2.072
 3796SOL     OW12067   3.628   3.612   3.007
 3796SOL    HW112068   3.691   3.634   2.939
 3796SOL    HW212069   3.606   3.520   2.991
 3797SOL     OW12070   3.104   3.608   2.976
 3797SOL    HW112071   3.188   3.624   2.931
 3797SOL    HW212072   3.098   3.512   2.981
 3798SOL     OW12073   1.944   3.129   2.881
 3798SOL    HW112074   1.946   3.116   2.976
 3798SOL    HW212075   1.873   3.072   2.851
 3799SOL     OW12076   2.555   3.558   3.611
 3799SOL    HW112077   2.496   3.629   3.588
 3799SOL    HW212078   2.606   3.542   3.532
 3800SOL     OW12079   3.581   2.007   2.372
 3800SOL    HW112080   3.654   1.993   2.312
 3800SOL    HW212081   3.565   1.921   2.412
 3801SOL     OW12082   3.252   3.429   2.345
 3801SOL    HW112083   3.313   3.462   2.278
 3801SOL    HW212084   3.204   3.507   2.374
 3802SOL     OW12085   1.988   3.663   3.705
 3802SOL    HW112086   1.944   3.592   3.751
 3802SOL    HW212087   2.045   3.703   3.770
 3803SOL     OW12088   3.131   2.785   2.530
 3803SOL    HW112089   3.205   2.725   2.540
 3803SOL    HW212090   3.167   2.859   2.481
 3804SOL     OW12091   2.533   3.481   2.017
 3804SOL    HW112092   2.543   3.493   1.922
 3804SOL    HW212093   2.479   3.402   2.026
 3805SOL     OW12094   3.511   3.593   3.261
 3805SOL    HW112095   3.542   3.598   3.170
 3805SOL    HW212096   3.485   3.683   3.282
 3806SOL     OW12097   3.702   2.036   2.826
 3806SOL    HW112098   3.731   1.949   2.798
 3806SOL    HW212099   3.616   2.047   2.787
 3807SOL     OW12100   2.117   2.179   2.583
 3807SOL    HW112101   2.038   2.216   2.545
 3807SOL    HW212102   2.093   2.158   2.673
 3808SOL     OW12103   3.068   3.469   1.893
 3808SOL    HW112104   3.059   3.377   1.920
 3808SOL    HW212105   3.004   3.480   1.824
 3809SOL     OW12106   3.355   3.486   1.904
 3809SOL    HW112107   3.260   3.481   1.891
 3809SOL    HW212108   3.391   3.493   1.816
 3810SOL     OW12109   2.913   2.970   2.564
 3810SOL    HW112110   2.840   2.925   2.606
 3810SOL    HW212111   2.976   2.901   2.544
 3811SOL     OW12112   2.887   2.100   2.824
 3811SOL    HW112113   2.881   2.055   2.740
 3811SOL    HW212114   2.895   2.030   2.889
 3812SOL     OW12115   2.462   3.354   2.340
 3812SOL    HW112116   2.506   3.307   2.269
 3812SOL    HW212117   2.393   3.404   2.296
 3813SOL     OW12118   3.615   2.255   3.237
 3813SOL    HW112119   3.687   2.317   3.230
 3813SOL    HW212120   3.640   2.182   3.181
 3814SOL     OW12121   2.121   3.208   2.149
 3814SOL    HW112122   2.028   3.206   2.127
 3814SOL    HW212123   2.123   3.245   2.238
 3815SOL     OW12124   1.940   2.196   1.898
 3815SOL    HW112125   1.852   2.176   1.865
 3815SOL    HW212126   1.968   2.272   1.846
 3816SOL     OW12127   1.932   2.019   2.173
 3816SOL    HW112128   1.917   2.098   2.122
 3816SOL    HW212129   2.017   1.986   2.142
 3817SOL     OW12130   3.042   3.203   1.979
 3817SOL    HW112131   2.951   3.172   1.981
 3817SOL    HW212132   3.070   3.202   2.071
 3818SOL     OW12133   3.347   3.636   2.839
 3818SOL    HW112134   3.371   3.696   2.768
 3818SOL    HW212135   3.428   3.621   2.886
 3819SOL     OW12136   2.243   3.628   3.430
 3819SOL    HW112137   2.150   3.649   3.426
 3819SOL    HW212138   2.246   3.536   3.455
 3820SOL     OW12139   3.080   2.180   2.318
 3820SOL    HW112140   3.143   2.109   2.310
 3820SOL    HW212141   3.108   2.228   2.396
 3821SOL     OW12142   3.633   2.190   3.504
 3821SOL    HW112143   3.619   2.222   3.415
 3821SOL    HW212144   3.547   2.193   3.544
 3822SOL     OW12145   2.729   3.233   1.895
 3822SOL    HW112146   2.689   3.262   1.976
 3822SOL    HW212147   2.746   3.314   1.846
 3823SOL     OW12148   2.522   3.657   2.811
 3823SOL    HW112149   2.502   3.747   2.785
 3823SOL    HW212150   2.617   3.649   2.799
 3824SOL     OW12151   2.955   2.860   1.953
 3824SOL    HW112152   2.923   2.902   1.873
 3824SOL    HW212153   3.024   2.801   1.922
 3825SOL     OW12154   3.717   3.417   2.707
 3825SOL    HW112155   3.639   3.406   2.653
 3825SOL    HW212156   3.713   3.346   2.771
 3826SOL     OW12157   1.945   3.094   2.527
 3826SOL    HW112158   1.952   3.047   2.610
 3826SOL    HW212159   2.016   3.059   2.473
 3827SOL     OW12160   3.683   2.034   3.097
 3827SOL    HW112161   3.697   1.939   3.104
 3827SOL    HW212162   3.687   2.052   3.004
 3828SOL     OW12163   2.303   2.293   2.401
 3828SOL    HW112164   2.324   2.228   2.334
 3828SOL    HW212165   2.243   2.247   2.460
 3829SOL     OW12166   3.561   3.354   2.969
 3829SOL    HW112167   3.485   3.319   2.923
 3829SOL    HW212168   3.591   3.283   3.025
 3830SOL     OW12169   2.686   3.445   2.537
 3830SOL    HW112170   2.673   3.491   2.454
 3830SOL    HW212171   2.611   3.387   2.545
 3831SOL     OW12172   3.297   2.082   2.975
 3831SOL    HW112173   3.327   2.012   3.033
 3831SOL    HW212174   3.242   2.138   3.031
 3832SOL     OW12175   2.903   1.872   2.971
 3832SOL    HW112176   2.843   1.801   2.947
 3832SOL    HW212177   2.987   1.829   2.983
 3833SOL     OW12178   2.636   3.204   2.173
 3833SOL    HW112179   2.606   3.113   2.169
 3833SOL    HW212180   2.717   3.200   2.224
 3834SOL     OW12181   3.214   1.916   2.026
 3834SOL    HW112182   3.242   1.853   1.959
 3834SOL    HW212183   3.127   1.885   2.053
 3835SOL     OW12184   3.164   2.316   2.542
 3835SOL    HW112185   3.114   2.398   2.551
 3835SOL    HW212186   3.160   2.275   2.628
 3836SOL     OW12187   3.449   2.064   2.738
 3836SOL    HW112188   3.388   2.083   2.809
 3836SOL    HW212189   3.448   2.143   2.684
 3837SOL     OW12190   1.906   2.933   2.167
 3837SOL    HW112191   1.999   2.924   2.148
 3837SOL    HW212192   1.877   2.845   2.191
 3838SOL     OW12193   2.746   3.514   2.205
 3838SOL    HW112194   2.673   3.496   2.145
 3838SOL    HW212195   2.717   3.589   2.256
 3839SOL     OW12196   2.057   2.041   4.793
 3839SOL    HW112197   2.042   2.079   4.880
 3839SOL    HW212198   1.981   2.068   4.742
 3840SOL     OW12199   3.418   3.371   4.434
 3840SOL    HW112200   3.359   3.382   4.509
 3840SOL    HW212201   3.363   3.391   4.358
 3841SOL     OW12202   3.004   2.593   4.401
 3841SOL    HW112203   3.088   2.628   4.431
 3841SOL    HW212204   2.967   2.550   4.478
 3842SOL     OW12205   3.647   2.460   3.931
 3842SOL    HW112206   3.595   2.449   3.851
 3842SOL    HW212207   3.607   2.401   3.994
 3843SOL     OW12208   2.574   3.018   5.531
 3843SOL    HW112209   2.621   3.097   5.557
 3843SOL    HW212210   2.490   3.050   5.497
 3844SOL     OW12211   3.325   3.364   5.088
 3844SOL    HW112212   3.376   3.445   5.087
 3844SOL    HW212213   3.276   3.368   5.170
 3845SOL     OW12214   2.319   2.258   5.216
 3845SOL    HW112215   2.389   2.193   5.219
 3845SOL    HW212216   2.239   2.208   5.230
 3846SOL     OW12217   2.083   3.579   4.185
 3846SOL    HW112218   2.104   3.652   4.243
 3846SOL    HW212219   2.158   3.572   4.126
 3847SOL     OW12220   3.000   3.200   5.412
 3847SOL    HW112221   3.045   3.201   5.496
 3847SOL    HW212222   2.944   3.122   5.415
 3848SOL     OW12223   2.478   3.656   5.161
 3848SOL    HW112224   2.394   3.638   5.203
 3848SOL    HW212225   2.497   3.747   5.183
 3849SOL     OW12226   3.450   1.988   5.187
 3849SOL    HW112227   3.475   2.068   5.139
 3849SOL    HW212228   3.442   2.016   5.278
 3850SOL     OW12229   3.707   3.623   4.059
 3850SOL    HW112230   3.770   3.594   4.126
 3850SOL    HW212231   3.732   3.713   4.041
 3851SOL     OW12232   1.867   3.468   3.852
 3851SOL    HW112233   1.867   3.375   3.877
 3851SOL    HW212234   1.857   3.515   3.935
 3852SOL     OW12235   3.538   3.021   4.152
 3852SOL    HW112236   3.627   2.992   4.133
 3852SOL    HW212237   3.537   3.039   4.246
 3853SOL     OW12238   1.983   2.619   5.327
 3853SOL    HW112239   2.076   2.640   5.339
 3853SOL    HW212240   1.940   2.704   5.325
 3854SOL     OW12241   3.045   3.670   5.347
 3854SOL    HW112242   3.060   3.729   5.273
 3854SOL    HW212243   3.064   3.583   5.312
 3855SOL     OW12244   2.195   2.108   5.545
 3855SOL    HW112245   2.236   2.195   5.542
 3855SOL    HW212246   2.104   2.125   5.570
 3856SOL     OW12247   3.532   3.598   4.306
 3856SOL    HW112248   3.501   3.572   4.219
 3856SOL    HW212249   3.500   3.529   4.364
 3857SOL     OW12250   3.450   3.546   4.032
 3857SOL    HW112251   3.542   3.574   4.035
 3857SOL    HW212252   3.436   3.521   3.941
 3858SOL     OW12253   3.250   2.334   5.408
 3858SOL    HW112254   3.254   2.377   5.493
 3858SOL    HW212255   3.316   2.265   5.412
 3859SOL     OW12256   2.929   2.548   4.136
 3859SOL    HW112257   2.948   2.548   4.229
 3859SOL    HW212258   2.839   2.515   4.130
 3860SOL     OW12259   1.989   3.701   5.300
 3860SOL    HW112260   1.987   3.684   5.394
 3860SOL    HW212261   1.897   3.707   5.275
 3861SOL     OW12262   3.570   2.438   5.552
 3861SOL    HW112263   3.533   2.512   5.505
 3861SOL    HW212264   3.597   2.376   5.484
 3862SOL     OW12265   2.220   3.665   4.588
 3862SOL    HW112266   2.276   3.588   4.575
 3862SOL    HW212267   2.281   3.736   4.606
 3863SOL     OW12268   3.647   2.932   4.606
 3863SOL    HW112269   3.610   2.963   4.523
 3863SOL    HW212270   3.572   2.930   4.666
 3864SOL     OW12271   3.093   3.410   5.248
 3864SOL    HW112272   3.080   3.339   5.311
 3864SOL    HW212273   3.036   3.388   5.175
 3865SOL     OW12274   2.327   3.124   5.465
 3865SOL    HW112275   2.296   3.136   5.375
 3865SOL    HW212276   2.247   3.120   5.517
 3866SOL     OW12277   2.987   3.639   3.952
 3866SOL    HW112278   2.933   3.616   4.027
 3866SOL    HW212279   2.942   3.600   3.877
 3867SOL     OW12280   2.070   2.157   5.251
 3867SOL    HW112281   1.991   2.202   5.221
 3867SOL    HW212282   2.038   2.073   5.286
 3868SOL     OW12283   3.488   3.229   3.815
 3868SOL    HW112284   3.461   3.319   3.796
 3868SOL    HW212285   3.416   3.175   3.783
 3869SOL     OW12286   2.324   3.609   4.041
 3869SOL    HW112287   2.373   3.658   4.107
 3869SOL    HW212288   2.391   3.568   3.987
 3870SOL     OW12289   3.288   1.951   4.151
 3870SOL    HW112290   3.262   1.945   4.060
 3870SOL    HW212291   3.380   1.978   4.148
 3871SOL     OW12292   2.116   3.654   4.958
 3871SOL    HW112293   2.172   3.590   5.002
 3871SOL    HW212294   2.110   3.621   4.868
 3872SOL     OW12295   2.800   3.573   4.637
 3872SOL    HW112296   2.886   3.533   4.639
 3872SOL    HW212297   2.746   3.512   4.587
 3873SOL     OW12298   3.399   2.087   5.449
 3873SOL    HW112299   3.407   2.108   5.542
 3873SOL    HW212300   3.330   2.020   5.446
 3874SOL     OW12301   2.621   2.117   5.470
 3874SOL    HW112302   2.702   2.068   5.480
 3874SOL    HW212303   2.596   2.142   5.559
 3875SOL     OW12304   2.743   3.406   4.931
 3875SOL    HW112305   2.721   3.366   4.846
 3875SOL    HW212306   2.812   3.350   4.966
 3876SOL     OW12307   3.297   2.474   5.178
 3876SOL    HW112308   3.278   2.424   5.257
 3876SOL    HW212309   3.246   2.554   5.187
 3877SOL     OW12310   3.118   3.674   4.314
 3877SOL    HW112311   3.166   3.742   4.266
 3877SOL    HW212312   3.060   3.723   4.373
 3878SOL     OW12313   1.945   2.403   5.171
 3878SOL    HW112314   2.023   2.410   5.116
 3878SOL    HW212315   1.942   2.486   5.219
 3879SOL     OW12316   2.743   2.352   4.348
 3879SOL    HW112317   2.695   2.356   4.265
 3879SOL    HW212318   2.756   2.258   4.363
 3880SOL     OW12319   3.705   2.673   4.096
 3880SOL    HW112320   3.760   2.630   4.161
 3880SOL    HW212321   3.695   2.609   4.025
 3881SOL     OW12322   2.345   3.305   3.910
 3881SOL    HW112323   2.269   3.278   3.960
 3881SOL    HW212324   2.367   3.229   3.856
 3882SOL     OW12325   3.567   3.134   4.410
 3882SOL    HW112326   3.658   3.152   4.391
 3882SOL    HW212327   3.523   3.219   4.404
 3883SOL     OW12328   3.614   3.104   5.297
 3883SOL    HW112329   3.700   3.062   5.295
 3883SOL    HW212330   3.632   3.193   5.327
 3884SOL     OW12331   2.951   3.213   5.108
 3884SOL    HW112332   2.862   3.192   5.137
 3884SOL    HW212333   3.007   3.164   5.168
 3885SOL     OW12334   3.467   3.485   5.375
 3885SOL    HW112335   3.465   3.522   5.287
 3885SOL    HW212336   3.551   3.440   5.380
 3886SOL     OW12337   2.774   1.961   5.125
 3886SOL    HW112338   2.796   1.934   5.036
 3886SOL    HW212339   2.856   1.993   5.163
 3887SOL     OW12340   2.850   2.974   5.443
 3887SOL    HW112341   2.759   2.994   5.467
 3887SOL    HW212342   2.842   2.913   5.370
 3888SOL     OW12343   2.509   2.942   4.088
 3888SOL    HW112344   2.521   2.982   4.174
 3888SOL    HW212345   2.598   2.925   4.057
 3889SOL     OW12346   1.928   3.438   5.075
 3889SOL    HW112347   1.892   3.509   5.023
 3889SOL    HW212348   2.023   3.450   5.070
 3890SOL     OW12349   2.420   2.391   4.620
 3890SOL    HW112350   2.433   2.439   4.538
 3890SOL    HW212351   2.500   2.407   4.670
 3891SOL     OW12352   3.133   3.272   4.912
 3891SOL    HW112353   3.206   3.302   4.965
 3891SOL    HW212354   3.069   3.240   4.975
 3892SOL     OW12355   3.471   2.489   4.157
 3892SOL    HW112356   3.442   2.524   4.241
 3892SOL    HW212357   3.517   2.562   4.116
 3893SOL     OW12358   2.213   3.385   5.030
 3893SOL    HW112359   2.202   3.319   4.961
 3893SOL    HW212360   2.307   3.401   5.033
 3894SOL     OW12361   2.271   2.608   5.333
 3894SOL    HW112362   2.319   2.646   5.259
 3894SOL    HW212363   2.286   2.514   5.326
 3895SOL     OW12364   3.459   2.645   5.412
 3895SOL    HW112365   3.374   2.686   5.402
 3895SOL    HW212366   3.512   2.680   5.339
 3896SOL     OW12367   2.862   1.983   5.486
 3896SOL    HW112368   2.913   2.056   5.450
 3896SOL    HW212369   2.909   1.904   5.459
 3897SOL     OW12370   2.359   1.901   5.471
 3897SOL    HW112371   2.316   1.849   5.403
 3897SOL    HW212372   2.300   1.975   5.485
 3898SOL     OW12373   1.945   3.177   4.994
 3898SOL    HW112374   1.914   3.123   5.066
 3898SOL    HW212375   1.921   3.266   5.020
 3899SOL     OW12376   3.597   2.823   5.577
 3899SOL    HW112377   3.552   2.762   5.518
 3899SOL    HW212378   3.537   2.834   5.650
 3900SOL     OW12379   3.492   2.229   4.077
 3900SOL    HW112380   3.515   2.173   4.151
 3900SOL    HW212381   3.466   2.312   4.117
 3901SOL     OW12382   2.844   3.426   5.439
 3901SOL    HW112383   2.830   3.474   5.357
 3901SOL    HW212384   2.886   3.345   5.412
 3902SOL     OW12385   3.717   3.370   5.330
 3902SOL    HW112386   3.735   3.396   5.239
 3902SOL    HW212387   3.798   3.389   5.377
 3903SOL     OW12388   2.207   2.787   5.529
 3903SOL    HW112389   2.285   2.809   5.580
 3903SOL    HW212390   2.236   2.719   5.469
 3904SOL     OW12391   3.408   2.127   3.844
 3904SOL    HW112392   3.337   2.068   3.870
 3904SOL    HW212393   3.435   2.169   3.925
 3905SOL     OW12394   2.996   2.234   5.401
 3905SOL    HW112395   2.949   2.287   5.465
 3905SOL    HW212396   3.084   2.272   5.399
 3906SOL     OW12397   3.020   2.052   5.202
 3906SOL    HW112398   3.011   2.117   5.272
 3906SOL    HW212399   3.044   2.102   5.125
 3907SOL     OW12400   1.863   3.192   3.927
 3907SOL    HW112401   1.780   3.207   3.882
 3907SOL    HW212402   1.858   3.100   3.956
 3908SOL     OW12403   1.948   3.642   4.654
 3908SOL    HW112404   1.918   3.577   4.590
 3908SOL    HW212405   2.040   3.657   4.631
 3909SOL     OW12406   2.060   2.381   5.452
 3909SOL    HW112407   2.086   2.324   5.380
 3909SOL    HW212408   2.010   2.452   5.411
 3910SOL     OW12409   3.237   2.805   5.372
 3910SOL    HW112410   3.264   2.895   5.390
 3910SOL    HW212411   3.225   2.801   5.278
 3911SOL     OW12412   3.512   2.479   4.919
 3911SOL    HW112413   3.470   2.415   4.977
 3911SOL    HW212414   3.586   2.431   4.880
 3912SOL     OW12415   2.109   3.414   5.453
 3912SOL    HW112416   2.083   3.478   5.519
 3912SOL    HW212417   2.106   3.330   5.499
 3913SOL     OW12418   2.792   3.542   5.190
 3913SOL    HW112419   2.759   3.512   5.105
 3913SOL    HW212420   2.787   3.637   5.185
 3914SOL     OW12421   3.082   2.734   4.023
 3914SOL    HW112422   3.032   2.666   4.067
 3914SOL    HW212423   3.143   2.687   3.966
 3915SOL     OW12424   3.630   3.607   4.870
 3915SOL    HW112425   3.694   3.631   4.803
 3915SOL    HW212426   3.607   3.516   4.850
 3916SOL     OW12427   2.539   3.529   5.452
 3916SOL    HW112428   2.485   3.609   5.449
 3916SOL    HW212429   2.602   3.541   5.381
 3917SOL     OW12430   3.593   2.008   4.241
 3917SOL    HW112431   3.661   1.994   4.176
 3917SOL    HW212432   3.572   1.920   4.272
 3918SOL     OW12433   3.275   3.470   4.229
 3918SOL    HW112434   3.316   3.496   4.147
 3918SOL    HW212435   3.212   3.539   4.248
 3919SOL     OW12436   1.998   3.658   5.567
 3919SOL    HW112437   1.947   3.594   5.616
 3919SOL    HW212438   2.047   3.706   5.634
 3920SOL     OW12439   2.697   3.147   5.182
 3920SOL    HW112440   2.655   3.188   5.258
 3920SOL    HW212441   2.628   3.143   5.116
 3921SOL     OW12442   2.523   3.510   3.875
 3921SOL    HW112443   2.543   3.514   3.782
 3921SOL    HW212444   2.472   3.429   3.885
 3922SOL     OW12445   3.490   3.590   5.115
 3922SOL    HW112446   3.540   3.596   5.033
 3922SOL    HW212447   3.477   3.680   5.142
 3923SOL     OW12448   3.695   2.037   4.688
 3923SOL    HW112449   3.728   1.950   4.663
 3923SOL    HW212450   3.607   2.041   4.651
 3924SOL     OW12451   3.403   3.492   3.770
 3924SOL    HW112452   3.308   3.489   3.762
 3924SOL    HW212453   3.435   3.497   3.680
 3925SOL     OW12454   2.223   3.180   5.225
 3925SOL    HW112455   2.221   3.261   5.175
 3925SOL    HW212456   2.152   3.127   5.189
 3926SOL     OW12457   3.484   3.158   5.015
 3926SOL    HW112458   3.537   3.143   5.094
 3926SOL    HW212459   3.419   3.223   5.041
 3927SOL     OW12460   3.586   2.242   5.110
 3927SOL    HW112461   3.645   2.316   5.101
 3927SOL    HW212462   3.619   2.177   5.048
 3928SOL     OW12463   2.114   3.227   4.030
 3928SOL    HW112464   2.027   3.218   3.990
 3928SOL    HW212465   2.100   3.287   4.103
 3929SOL     OW12466   1.965   2.908   5.454
 3929SOL    HW112467   1.891   2.869   5.502
 3929SOL    HW212468   2.042   2.862   5.487
 3930SOL     OW12469   2.534   2.064   5.220
 3930SOL    HW112470   2.616   2.037   5.179
 3930SOL    HW212471   2.556   2.084   5.310
 3931SOL     OW12472   3.386   3.645   4.693
 3931SOL    HW112473   3.405   3.715   4.631
 3931SOL    HW212474   3.461   3.644   4.752
 3932SOL     OW12475   3.329   3.063   5.355
 3932SOL    HW112476   3.321   3.080   5.449
 3932SOL    HW212477   3.422   3.079   5.336
 3933SOL     OW12478   2.242   3.600   5.287
 3933SOL    HW112479   2.157   3.641   5.273
 3933SOL    HW212480   2.222   3.518   5.332
 3934SOL     OW12481   3.594   2.728   4.969
 3934SOL    HW112482   3.565   2.638   4.958
 3934SOL    HW212483   3.541   2.779   4.907
 3935SOL     OW12484   3.626   2.222   5.378
 3935SOL    HW112485   3.612   2.237   5.285
 3935SOL    HW212486   3.553   2.167   5.405
 3936SOL     OW12487   3.594   2.795   5.234
 3936SOL    HW112488   3.605   2.890   5.238
 3936SOL    HW212489   3.600   2.774   5.140
 3937SOL     OW12490   2.518   3.662   4.680
 3937SOL    HW112491   2.494   3.749   4.647
 3937SOL    HW212492   2.612   3.656   4.665
 3938SOL     OW12493   3.717   3.417   4.570
 3938SOL    HW112494   3.640   3.407   4.515
 3938SOL    HW212495   3.709   3.348   4.635
 3939SOL     OW12496   2.085   3.165   5.580
 3939SOL    HW112497   2.024   3.097   5.551
 3939SOL    HW212498   2.065   3.178   5.673
 3940SOL     OW12499   2.536   3.268   5.358
 3940SOL    HW112500   2.456   3.226   5.390
 3940SOL    HW212501   2.532   3.357   5.392
 3941SOL     OW12502   3.684   2.042   4.962
 3941SOL    HW112503   3.687   1.947   4.970
 3941SOL    HW212504   3.685   2.058   4.868
 3942SOL     OW12505   3.563   3.348   4.826
 3942SOL    HW112506   3.473   3.326   4.803
 3942SOL    HW212507   3.589   3.282   4.890
 3943SOL     OW12508   2.190   2.409   5.034
 3943SOL    HW112509   2.242   2.358   5.096
 3943SOL    HW212510   2.226   2.385   4.948
 3944SOL     OW12511   3.336   2.065   4.881
 3944SOL    HW112512   3.333   1.997   4.948
 3944SOL    HW212513   3.280   2.135   4.915
 3945SOL     OW12514   2.865   1.864   4.887
 3945SOL    HW112515   2.813   1.812   4.825
 3945SOL    HW212516   2.955   1.833   4.874
 3946SOL     OW12517   2.477   3.431   5.012
 3946SOL    HW112518   2.484   3.512   5.063
 3946SOL    HW212519   2.564   3.420   4.974
 3947SOL     OW12520   3.211   1.920   3.891
 3947SOL    HW112521   3.242   1.859   3.823
 3947SOL    HW212522   3.126   1.886   3.916
 3948SOL     OW12523   1.878   2.933   4.027
 3948SOL    HW112524   1.970   2.935   4.001
 3948SOL    HW212525   1.858   2.839   4.033
 3949SOL     OW12526   2.095   2.486   5.707
 3949SOL    HW112527   2.006   2.485   5.742
 3949SOL    HW212528   2.086   2.458   5.616
 3950SOL     OW12529   2.087   2.141   6.577
 3950SOL    HW112530   2.115   2.107   6.662
 3950SOL    HW212531   1.997   2.110   6.567
 3951SOL     OW12532   1.867   2.243   6.225
 3951SOL    HW112533   1.784   2.269   6.266
 3951SOL    HW212534   1.846   2.164   6.175
 3952SOL     OW12535   2.427   3.148   6.760
 3952SOL    HW112536   2.340   3.153   6.721
 3952SOL    HW212537   2.443   3.235   6.796
 3953SOL     OW12538   3.421   3.373   6.292
 3953SOL    HW112539   3.378   3.355   6.376
 3953SOL    HW212540   3.349   3.379   6.229
 3954SOL     OW12541   3.016   2.541   6.305
 3954SOL    HW112542   3.045   2.631   6.288
 3954SOL    HW212543   2.940   2.551   6.363
 3955SOL     OW12544   3.626   2.468   5.815
 3955SOL    HW112545   3.607   2.460   5.722
 3955SOL    HW212546   3.593   2.388   5.854
 3956SOL     OW12547   2.637   3.025   6.628
 3956SOL    HW112548   2.557   3.039   6.678
 3956SOL    HW212549   2.653   3.108   6.583
 3957SOL     OW12550   2.573   3.016   7.395
 3957SOL    HW112551   2.621   3.094   7.419
 3957SOL    HW212552   2.490   3.049   7.359
 3958SOL     OW12553   2.191   3.292   6.654
 3958SOL    HW112554   2.120   3.252   6.602
 3958SOL    HW212555   2.243   3.340   6.590
 3959SOL     OW12556   3.323   3.360   6.939
 3959SOL    HW112557   3.371   3.443   6.950
 3959SOL    HW212558   3.262   3.359   7.013
 3960SOL     OW12559   2.310   2.266   7.089
 3960SOL    HW112560   2.387   2.208   7.081
 3960SOL    HW212561   2.236   2.206   7.094
 3961SOL     OW12562   3.475   2.310   6.325
 3961SOL    HW112563   3.398   2.333   6.273
 3961SOL    HW212564   3.490   2.387   6.381
 3962SOL     OW12565   2.081   3.576   6.059
 3962SOL    HW112566   2.103   3.652   6.113
 3962SOL    HW212567   2.154   3.569   5.997
 3963SOL     OW12568   2.997   3.201   7.277
 3963SOL    HW112569   3.035   3.198   7.365
 3963SOL    HW212570   2.946   3.121   7.271
 3964SOL     OW12571   2.091   3.303   6.120
 3964SOL    HW112572   2.074   3.397   6.126
 3964SOL    HW212573   2.032   3.264   6.185
 3965SOL     OW12574   2.113   2.951   6.473
 3965SOL    HW112575   2.112   2.867   6.518
 3965SOL    HW212576   2.060   3.009   6.528
 3966SOL     OW12577   2.474   3.655   7.015
 3966SOL    HW112578   2.393   3.636   7.062
 3966SOL    HW212579   2.497   3.744   7.041
 3967SOL     OW12580   2.429   2.865   5.710
 3967SOL    HW112581   2.478   2.922   5.651
 3967SOL    HW212582   2.485   2.858   5.788
 3968SOL     OW12583   3.458   1.985   7.055
 3968SOL    HW112584   3.462   2.065   7.003
 3968SOL    HW212585   3.445   2.014   7.145
 3969SOL     OW12586   1.977   2.513   6.147
 3969SOL    HW112587   1.945   2.425   6.168
 3969SOL    HW212588   1.967   2.562   6.228
 3970SOL     OW12589   3.704   3.622   5.922
 3970SOL    HW112590   3.767   3.593   5.988
 3970SOL    HW212591   3.729   3.712   5.903
 3971SOL     OW12592   1.893   3.457   5.710
 3971SOL    HW112593   1.875   3.365   5.730
 3971SOL    HW212594   1.869   3.505   5.789
 3972SOL     OW12595   3.551   2.780   6.225
 3972SOL    HW112596   3.636   2.740   6.207
 3972SOL    HW212597   3.531   2.830   6.146
 3973SOL     OW12598   3.508   2.970   6.015
 3973SOL    HW112599   3.593   2.975   5.973
 3973SOL    HW212600   3.513   3.031   6.089
 3974SOL     OW12601   1.976   2.603   7.172
 3974SOL    HW112602   2.068   2.625   7.186
 3974SOL    HW212603   1.930   2.687   7.181
 3975SOL     OW12604   2.478   3.246   6.321
 3975SOL    HW112605   2.434   3.162   6.332
 3975SOL    HW212606   2.458   3.272   6.231
 3976SOL     OW12607   3.152   3.100   7.011
 3976SOL    HW112608   3.185   3.033   6.951
 3976SOL    HW212609   3.209   3.093   7.087
 3977SOL     OW12610   2.674   1.857   6.095
 3977SOL    HW112611   2.718   1.939   6.074
 3977SOL    HW212612   2.582   1.880   6.103
 3978SOL     OW12613   2.045   2.834   6.853
 3978SOL    HW112614   2.129   2.789   6.844
 3978SOL    HW212615   1.982   2.777   6.811
 3979SOL     OW12616   3.393   2.856   5.784
 3979SOL    HW112617   3.327   2.795   5.816
 3979SOL    HW212618   3.435   2.890   5.862
 3980SOL     OW12619   3.048   3.668   7.207
 3980SOL    HW112620   3.059   3.725   7.131
 3980SOL    HW212621   3.062   3.579   7.173
 3981SOL     OW12622   2.192   2.110   7.396
 3981SOL    HW112623   2.238   2.193   7.408
 3981SOL    HW212624   2.103   2.127   7.428
 3982SOL     OW12625   3.329   3.282   6.539
 3982SOL    HW112626   3.260   3.297   6.604
 3982SOL    HW212627   3.317   3.191   6.512
 3983SOL     OW12628   3.521   3.599   6.164
 3983SOL    HW112629   3.501   3.570   6.075
 3983SOL    HW212630   3.496   3.525   6.220
 3984SOL     OW12631   3.143   2.211   6.518
 3984SOL    HW112632   3.053   2.179   6.527
 3984SOL    HW212633   3.193   2.159   6.581
 3985SOL     OW12634   3.443   3.531   5.895
 3985SOL    HW112635   3.533   3.564   5.889
 3985SOL    HW212636   3.418   3.514   5.804
 3986SOL     OW12637   3.257   2.336   7.262
 3986SOL    HW112638   3.256   2.381   7.346
 3986SOL    HW212639   3.318   2.264   7.274
 3987SOL     OW12640   2.852   2.272   6.834
 3987SOL    HW112641   2.765   2.290   6.869
 3987SOL    HW212642   2.836   2.238   6.746
 3988SOL     OW12643   1.950   2.682   6.362
 3988SOL    HW112644   2.031   2.676   6.413
 3988SOL    HW212645   1.907   2.761   6.396
 3989SOL     OW12646   1.989   3.708   7.164
 3989SOL    HW112647   1.989   3.687   7.257
 3989SOL    HW212648   1.897   3.701   7.137
 3990SOL     OW12649   2.746   2.192   5.737
 3990SOL    HW112650   2.797   2.255   5.686
 3990SOL    HW212651   2.791   2.108   5.723
 3991SOL     OW12652   3.573   2.439   7.415
 3991SOL    HW112653   3.534   2.513   7.369
 3991SOL    HW212654   3.598   2.377   7.346
 3992SOL     OW12655   3.235   3.001   6.125
 3992SOL    HW112656   3.318   2.992   6.076
 3992SOL    HW212657   3.187   3.067   6.076
 3993SOL     OW12658   2.410   2.040   6.475
 3993SOL    HW112659   2.411   2.066   6.567
 3993SOL    HW212660   2.412   2.122   6.427
 3994SOL     OW12661   2.866   3.304   6.058
 3994SOL    HW112662   2.830   3.379   6.010
 3994SOL    HW212663   2.853   3.328   6.150
 3995SOL     OW12664   2.217   3.670   6.446
 3995SOL    HW112665   2.260   3.585   6.455
 3995SOL    HW212666   2.286   3.734   6.465
 3996SOL     OW12667   3.661   2.919   6.454
 3996SOL    HW112668   3.605   2.903   6.378
 3996SOL    HW212669   3.600   2.925   6.527
 3997SOL     OW12670   3.089   3.400   7.098
 3997SOL    HW112671   3.076   3.328   7.160
 3997SOL    HW212672   3.026   3.383   7.028
 3998SOL     OW12673   2.176   2.825   5.835
 3998SOL    HW112674   2.257   2.845   5.789
 3998SOL    HW212675   2.151   2.738   5.803
 3999SOL     OW12676   3.336   2.608   6.314
 3999SOL    HW112677   3.329   2.560   6.396
 3999SOL    HW212678   3.417   2.659   6.324
 4000SOL     OW12679   2.327   3.126   7.324
 4000SOL    HW112680   2.299   3.131   7.232
 4000SOL    HW212681   2.245   3.124   7.374
 4001SOL     OW12682   2.983   3.640   5.817
 4001SOL    HW112683   2.911   3.598   5.863
 4001SOL    HW212684   3.006   3.579   5.747
 4002SOL     OW12685   2.063   2.145   7.087
 4002SOL    HW112686   1.979   2.191   7.080
 4002SOL    HW212687   2.047   2.075   7.150
 4003SOL     OW12688   3.490   3.240   5.674
 4003SOL    HW112689   3.450   3.326   5.659
 4003SOL    HW212690   3.421   3.177   5.653
 4004SOL     OW12691   2.329   3.599   5.908
 4004SOL    HW112692   2.368   3.657   5.972
 4004SOL    HW212693   2.401   3.571   5.852
 4005SOL     OW12694   3.263   1.970   6.018
 4005SOL    HW112695   3.253   1.944   5.926
 4005SOL    HW212696   3.358   1.976   6.030
 4006SOL     OW12697   2.117   3.653   6.818
 4006SOL    HW112698   2.169   3.589   6.866
 4006SOL    HW212699   2.108   3.617   6.730
 4007SOL     OW12700   2.799   3.563   6.485
 4007SOL    HW112701   2.872   3.507   6.513
 4007SOL    HW212702   2.755   3.511   6.417
 4008SOL     OW12703   2.250   2.553   6.059
 4008SOL    HW112704   2.276   2.463   6.077
 4008SOL    HW212705   2.157   2.556   6.082
 4009SOL     OW12706   3.398   2.087   7.312
 4009SOL    HW112707   3.407   2.108   7.405
 4009SOL    HW212708   3.329   2.022   7.308
 4010SOL     OW12709   2.482   1.976   5.703
 4010SOL    HW112710   2.568   1.934   5.702
 4010SOL    HW212711   2.444   1.953   5.618
 4011SOL     OW12712   2.620   2.119   7.332
 4011SOL    HW112713   2.702   2.069   7.341
 4011SOL    HW212714   2.595   2.139   7.422
 4012SOL     OW12715   2.740   3.387   6.780
 4012SOL    HW112716   2.722   3.349   6.694
 4012SOL    HW212717   2.804   3.328   6.819
 4013SOL     OW12718   3.216   2.448   7.012
 4013SOL    HW112719   3.241   2.417   7.099
 4013SOL    HW212720   3.248   2.538   7.008
 4014SOL     OW12721   2.677   3.273   6.521
 4014SOL    HW112722   2.760   3.253   6.479
 4014SOL    HW212723   2.612   3.262   6.451
 4015SOL     OW12724   2.782   2.356   6.488
 4015SOL    HW112725   2.764   2.341   6.395
 4015SOL    HW212726   2.825   2.276   6.517
 4016SOL     OW12727   2.410   1.926   6.089
 4016SOL    HW112728   2.329   1.926   6.140
 4016SOL    HW212729   2.404   2.004   6.034
 4017SOL     OW12730   3.289   3.059   5.626
 4017SOL    HW112731   3.321   2.985   5.677
 4017SOL    HW212732   3.204   3.081   5.666
 4018SOL     OW12733   2.154   1.910   5.772
 4018SOL    HW112734   2.210   1.971   5.724
 4018SOL    HW212735   2.214   1.847   5.811
 4019SOL     OW12736   2.807   2.093   6.051
 4019SOL    HW112737   2.767   2.162   5.999
 4019SOL    HW212738   2.901   2.112   6.048
 4020SOL     OW12739   2.951   2.518   7.060
 4020SOL    HW112740   2.898   2.444   7.031
 4020SOL    HW212741   3.041   2.494   7.038
 4021SOL     OW12742   3.090   3.428   6.376
 4021SOL    HW112743   3.104   3.499   6.314
 4021SOL    HW212744   3.153   3.445   6.446
 4022SOL     OW12745   2.328   3.018   6.321
 4022SOL    HW112746   2.258   2.994   6.382
 4022SOL    HW212747   2.296   2.991   6.235
 4023SOL     OW12748   3.132   3.656   6.193
 4023SOL    HW112749   3.177   3.718   6.135
 4023SOL    HW212750   3.066   3.709   6.238
 4024SOL     OW12751   2.904   2.391   5.609
 4024SOL    HW112752   2.852   2.469   5.591
 4024SOL    HW212753   2.960   2.415   5.683
 4025SOL     OW12754   1.941   2.417   6.976
 4025SOL    HW112755   2.034   2.416   6.952
 4025SOL    HW212756   1.934   2.487   7.041
 4026SOL     OW12757   2.419   2.076   6.746
 4026SOL    HW112758   2.459   2.000   6.787
 4026SOL    HW212759   2.329   2.075   6.778
 4027SOL     OW12760   2.733   2.295   6.237
 4027SOL    HW112761   2.712   2.361   6.172
 4027SOL    HW212762   2.756   2.217   6.185
 4028SOL     OW12763   2.877   1.915   6.338
 4028SOL    HW112764   2.820   1.908   6.262
 4028SOL    HW212765   2.854   1.839   6.392
 4029SOL     OW12766   3.300   3.026   6.444
 4029SOL    HW112767   3.232   2.959   6.442
 4029SOL    HW212768   3.325   3.037   6.352
 4030SOL     OW12769   3.329   2.466   6.563
 4030SOL    HW112770   3.279   2.385   6.567
 4030SOL    HW212771   3.389   2.460   6.638
 4031SOL     OW12772   3.708   2.679   5.968
 4031SOL    HW112773   3.764   2.628   6.026
 4031SOL    HW212774   3.679   2.617   5.901
 4032SOL     OW12775   2.356   3.274   5.746
 4032SOL    HW112776   2.280   3.249   5.798
 4032SOL    HW212777   2.335   3.245   5.657
 4033SOL     OW12778   3.530   3.126   6.233
 4033SOL    HW112779   3.625   3.130   6.246
 4033SOL    HW212780   3.500   3.215   6.254
 4034SOL     OW12781   3.257   2.436   5.661
 4034SOL    HW112782   3.197   2.413   5.732
 4034SOL    HW212783   3.342   2.402   5.689
 4035SOL     OW12784   2.387   2.129   5.908
 4035SOL    HW112785   2.424   2.075   5.838
 4035SOL    HW212786   2.368   2.213   5.865
 4036SOL     OW12787   3.615   3.100   7.160
 4036SOL    HW112788   3.703   3.061   7.156
 4036SOL    HW212789   3.629   3.189   7.190
 4037SOL     OW12790   2.925   3.220   6.921
 4037SOL    HW112791   2.847   3.188   6.968
 4037SOL    HW212792   2.998   3.175   6.963
 4038SOL     OW12793   3.469   3.488   7.238
 4038SOL    HW112794   3.465   3.521   7.148
 4038SOL    HW212795   3.552   3.440   7.242
 4039SOL     OW12796   2.990   3.064   6.691
 4039SOL    HW112797   2.927   3.089   6.759
 4039SOL    HW212798   2.950   3.094   6.609
 4040SOL     OW12799   3.492   2.961   6.664
 4040SOL    HW112800   3.488   3.023   6.737
 4040SOL    HW212801   3.412   2.978   6.614
 4041SOL     OW12802   2.780   1.959   6.983
 4041SOL    HW112803   2.803   1.940   6.892
 4041SOL    HW212804   2.858   1.999   7.020
 4042SOL     OW12805   2.847   2.964   7.308
 4042SOL    HW112806   2.756   2.984   7.326
 4042SOL    HW212807   2.845   2.910   7.229
 4043SOL     OW12808   2.262   2.675   6.847
 4043SOL    HW112809   2.355   2.681   6.868
 4043SOL    HW212810   2.240   2.583   6.863
 4044SOL     OW12811   3.129   2.238   6.859
 4044SOL    HW112812   3.165   2.315   6.904
 4044SOL    HW212813   3.039   2.263   6.838
 4045SOL     OW12814   1.932   3.435   6.938
 4045SOL    HW112815   1.903   3.508   6.884
 4045SOL    HW212816   2.028   3.439   6.933
 4046SOL     OW12817   2.220   2.967   6.074
 4046SOL    HW112818   2.211   3.041   6.014
 4046SOL    HW212819   2.209   2.890   6.019
 4047SOL     OW12820   2.414   2.394   6.463
 4047SOL    HW112821   2.416   2.413   6.369
 4047SOL    HW212822   2.505   2.401   6.492
 4048SOL     OW12823   3.109   3.210   5.976
 4048SOL    HW112824   3.165   3.282   6.005
 4048SOL    HW212825   3.022   3.232   6.010
 4049SOL     OW12826   3.141   3.318   6.731
 4049SOL    HW112827   3.195   3.320   6.811
 4049SOL    HW212828   3.081   3.245   6.744
 4050SOL     OW12829   3.442   2.486   6.063
 4050SOL    HW112830   3.399   2.543   6.128
 4050SOL    HW212831   3.491   2.547   6.007
 4051SOL     OW12832   2.209   3.388   6.902
 4051SOL    HW112833   2.196   3.346   6.817
 4051SOL    HW212834   2.304   3.400   6.909
 4052SOL     OW12835   2.251   2.599   7.191
 4052SOL    HW112836   2.306   2.654   7.135
 4052SOL    HW212837   2.291   2.513   7.187
 4053SOL     OW12838   3.462   2.640   7.267
 4053SOL    HW112839   3.376   2.681   7.260
 4053SOL    HW212840   3.514   2.682   7.199
 4054SOL     OW12841   2.861   1.984   7.343
 4054SOL    HW112842   2.915   2.057   7.313
 4054SOL    HW212843   2.909   1.906   7.316
 4055SOL     OW12844   2.359   1.901   7.334
 4055SOL    HW112845   2.317   1.848   7.266
 4055SOL    HW212846   2.300   1.976   7.345
 4056SOL     OW12847   3.225   2.721   6.618
 4056SOL    HW112848   3.146   2.711   6.564
 4056SOL    HW212849   3.266   2.635   6.616
 4057SOL     OW12850   3.064   2.391   5.856
 4057SOL    HW112851   3.069   2.307   5.902
 4057SOL    HW212852   3.055   2.456   5.926
 4058SOL     OW12853   2.161   2.061   6.833
 4058SOL    HW112854   2.123   2.094   6.915
 4058SOL    HW212855   2.141   1.968   6.833
 4059SOL     OW12856   1.906   3.173   6.862
 4059SOL    HW112857   1.941   3.119   6.934
 4059SOL    HW212858   1.915   3.263   6.895
 4060SOL     OW12859   3.597   2.821   7.438
 4060SOL    HW112860   3.548   2.762   7.380
 4060SOL    HW212861   3.539   2.835   7.512
 4061SOL     OW12862   2.164   1.928   6.209
 4061SOL    HW112863   2.145   2.018   6.234
 4061SOL    HW212864   2.171   1.882   6.293
 4062SOL     OW12865   3.477   2.235   5.954
 4062SOL    HW112866   3.505   2.172   6.020
 4062SOL    HW212867   3.454   2.313   6.005
 4063SOL     OW12868   2.845   3.428   7.301
 4063SOL    HW112869   2.829   3.472   7.218
 4063SOL    HW212870   2.886   3.345   7.278
 4064SOL     OW12871   3.717   3.369   7.191
 4064SOL    HW112872   3.735   3.395   7.101
 4064SOL    HW212873   3.799   3.388   7.238
 4065SOL     OW12874   2.211   2.780   7.397
 4065SOL    HW112875   2.291   2.803   7.443
 4065SOL    HW212876   2.237   2.713   7.335
 4066SOL     OW12877   3.390   2.137   5.713
 4066SOL    HW112878   3.326   2.070   5.740
 4066SOL    HW212879   3.424   2.171   5.796
 4067SOL     OW12880   3.154   2.688   5.614
 4067SOL    HW112881   3.197   2.603   5.621
 4067SOL    HW212882   3.188   2.726   5.532
 4068SOL     OW12883   2.925   3.200   6.435
 4068SOL    HW112884   2.931   3.129   6.372
 4068SOL    HW212885   2.989   3.265   6.405
 4069SOL     OW12886   2.169   2.673   6.535
 4069SOL    HW112887   2.260   2.704   6.541
 4069SOL    HW212888   2.172   2.585   6.574
 4070SOL     OW12889   2.190   2.386   6.605
 4070SOL    HW112890   2.154   2.299   6.586
 4070SOL    HW212891   2.269   2.391   6.552
 4071SOL     OW12892   3.000   2.233   7.264
 4071SOL    HW112893   2.953   2.286   7.329
 4071SOL    HW212894   3.086   2.274   7.257
 4072SOL     OW12895   3.023   2.063   7.054
 4072SOL    HW112896   3.013   2.125   7.126
 4072SOL    HW212897   3.062   2.115   6.983
 4073SOL     OW12898   1.867   3.183   5.781
 4073SOL    HW112899   1.780   3.197   5.743
 4073SOL    HW212900   1.865   3.094   5.815
 4074SOL     OW12901   1.952   3.650   6.523
 4074SOL    HW112902   1.922   3.570   6.480
 4074SOL    HW212903   2.042   3.662   6.492
 4075SOL     OW12904   2.359   3.435   6.490
 4075SOL    HW112905   2.428   3.496   6.516
 4075SOL    HW212906   2.405   3.369   6.438
 4076SOL     OW12907   1.897   2.405   6.703
 4076SOL    HW112908   1.978   2.393   6.654
 4076SOL    HW212909   1.924   2.410   6.794
 4077SOL     OW12910   2.053   2.380   7.312
 4077SOL    HW112911   2.104   2.339   7.243
 4077SOL    HW212912   2.008   2.453   7.269
 4078SOL     OW12913   3.238   2.802   7.246
 4078SOL    HW112914   3.259   2.895   7.244
 4078SOL    HW212915   3.235   2.776   7.153
 4079SOL     OW12916   2.703   2.332   5.960
 4079SOL    HW112917   2.706   2.290   5.874
 4079SOL    HW212918   2.631   2.395   5.952
 4080SOL     OW12919   3.504   2.464   6.773
 4080SOL    HW112920   3.492   2.406   6.848
 4080SOL    HW212921   3.591   2.443   6.739
 4081SOL     OW12922   2.105   3.414   7.314
 4081SOL    HW112923   2.083   3.477   7.383
 4081SOL    HW212924   2.108   3.330   7.360
 4082SOL     OW12925   2.538   2.298   6.850
 4082SOL    HW112926   2.497   2.219   6.814
 4082SOL    HW212927   2.560   2.350   6.772
 4083SOL     OW12928   2.790   3.542   7.054
 4083SOL    HW112929   2.766   3.506   6.969
 4083SOL    HW212930   2.785   3.637   7.042
 4084SOL     OW12931   2.330   2.364   5.784
 4084SOL    HW112932   2.381   2.445   5.791
 4084SOL    HW212933   2.240   2.394   5.768
 4085SOL     OW12934   2.007   3.003   7.059
 4085SOL    HW112935   2.010   2.950   7.138
 4085SOL    HW212936   2.023   2.941   6.987
 4086SOL     OW12937   3.190   2.910   6.811
 4086SOL    HW112938   3.213   2.847   6.742
 4086SOL    HW212939   3.120   2.963   6.772
 4087SOL     OW12940   3.177   2.712   5.888
 4087SOL    HW112941   3.094   2.722   5.935
 4087SOL    HW212942   3.152   2.704   5.796
 4088SOL     OW12943   3.632   3.607   6.735
 4088SOL    HW112944   3.693   3.633   6.666
 4088SOL    HW212945   3.609   3.517   6.714
 4089SOL     OW12946   3.103   3.595   6.699
 4089SOL    HW112947   3.186   3.614   6.655
 4089SOL    HW212948   3.108   3.501   6.719
 4090SOL     OW12949   1.945   3.129   6.598
 4090SOL    HW112950   1.932   3.141   6.692
 4090SOL    HW212951   1.873   3.073   6.571
 4091SOL     OW12952   2.539   3.526   7.312
 4091SOL    HW112953   2.489   3.607   7.309
 4091SOL    HW212954   2.605   3.536   7.244
 4092SOL     OW12955   3.581   2.007   6.096
 4092SOL    HW112956   3.654   1.993   6.036
 4092SOL    HW212957   3.565   1.921   6.136
 4093SOL     OW12958   3.251   3.430   6.068
 4093SOL    HW112959   3.313   3.462   6.003
 4093SOL    HW212960   3.204   3.507   6.098
 4094SOL     OW12961   1.997   3.659   7.430
 4094SOL    HW112962   1.946   3.594   7.479
 4094SOL    HW212963   2.046   3.707   7.497
 4095SOL     OW12964   3.132   2.787   6.256
 4095SOL    HW112965   3.205   2.725   6.264
 4095SOL    HW212966   3.167   2.860   6.205
 4096SOL     OW12967   2.690   3.142   7.021
 4096SOL    HW112968   2.646   3.182   7.097
 4096SOL    HW212969   2.618   3.121   6.961
 4097SOL     OW12970   2.533   3.481   5.741
 4097SOL    HW112971   2.543   3.493   5.647
 4097SOL    HW212972   2.480   3.402   5.750
 4098SOL     OW12973   3.491   3.589   6.977
 4098SOL    HW112974   3.539   3.596   6.895
 4098SOL    HW212975   3.477   3.679   7.005
 4099SOL     OW12976   3.702   2.035   6.553
 4099SOL    HW112977   3.731   1.948   6.525
 4099SOL    HW212978   3.616   2.046   6.513
 4100SOL     OW12979   2.125   2.181   6.304
 4100SOL    HW112980   2.038   2.214   6.279
 4100SOL    HW212981   2.120   2.169   6.398
 4101SOL     OW12982   3.069   3.469   5.616
 4101SOL    HW112983   3.059   3.378   5.645
 4101SOL    HW212984   3.002   3.480   5.548
 4102SOL     OW12985   3.355   3.486   5.628
 4102SOL    HW112986   3.260   3.482   5.615
 4102SOL    HW212987   3.391   3.492   5.540
 4103SOL     OW12988   2.229   3.165   7.079
 4103SOL    HW112989   2.219   3.241   7.022
 4103SOL    HW212990   2.152   3.111   7.061
 4104SOL     OW12991   3.474   3.145   6.867
 4104SOL    HW112992   3.532   3.135   6.942
 4104SOL    HW212993   3.413   3.214   6.893
 4105SOL     OW12994   2.911   2.969   6.287
 4105SOL    HW112995   2.839   2.922   6.328
 4105SOL    HW212996   2.976   2.901   6.267
 4106SOL     OW12997   2.886   2.100   6.552
 4106SOL    HW112998   2.880   2.051   6.470
 4106SOL    HW212999   2.879   2.033   6.620
 4107SOL     OW13000   2.463   3.352   6.066
 4107SOL    HW113001   2.505   3.307   5.993
 4107SOL    HW213002   2.393   3.404   6.026
 4108SOL     OW13003   3.583   2.254   6.967
 4108SOL    HW113004   3.655   2.317   6.965
 4108SOL    HW213005   3.613   2.182   6.910
 4109SOL     OW13006   2.121   3.208   5.874
 4109SOL    HW113007   2.028   3.205   5.851
 4109SOL    HW213008   2.123   3.245   5.962
 4110SOL     OW13009   1.973   2.881   7.304
 4110SOL    HW113010   1.897   2.859   7.358
 4110SOL    HW213011   2.048   2.846   7.352
 4111SOL     OW13012   2.533   2.056   7.081
 4111SOL    HW113013   2.618   2.039   7.041
 4111SOL    HW213014   2.553   2.080   7.171
 4112SOL     OW13015   1.939   2.199   5.623
 4112SOL    HW113016   1.855   2.176   5.582
 4112SOL    HW213017   1.970   2.274   5.571
 4113SOL     OW13018   3.293   2.720   6.987
 4113SOL    HW113019   3.244   2.781   6.932
 4113SOL    HW213020   3.383   2.724   6.953
 4114SOL     OW13021   1.931   2.019   5.897
 4114SOL    HW113022   1.916   2.098   5.845
 4114SOL    HW213023   2.016   1.986   5.867
 4115SOL     OW13024   3.041   3.204   5.703
 4115SOL    HW113025   2.951   3.172   5.707
 4115SOL    HW213026   3.071   3.204   5.794
 4116SOL     OW13027   3.347   3.637   6.563
 4116SOL    HW113028   3.371   3.697   6.492
 4116SOL    HW213029   3.428   3.620   6.610
 4117SOL     OW13030   3.333   3.062   7.219
 4117SOL    HW113031   3.320   3.076   7.313
 4117SOL    HW213032   3.426   3.077   7.205
 4118SOL     OW13033   2.242   3.602   7.150
 4118SOL    HW113034   2.156   3.642   7.137
 4118SOL    HW213035   2.224   3.517   7.191
 4119SOL     OW13036   3.532   2.744   6.842
 4119SOL    HW113037   3.525   2.658   6.799
 4119SOL    HW213038   3.523   2.807   6.770
 4120SOL     OW13039   3.081   2.181   6.042
 4120SOL    HW113040   3.143   2.109   6.034
 4120SOL    HW213041   3.109   2.228   6.121
 4121SOL     OW13042   3.625   2.223   7.237
 4121SOL    HW113043   3.608   2.238   7.144
 4121SOL    HW213044   3.553   2.166   7.265
 4122SOL     OW13045   3.607   2.795   7.098
 4122SOL    HW113046   3.605   2.890   7.112
 4122SOL    HW213047   3.592   2.784   7.005
 4123SOL     OW13048   2.725   3.231   5.616
 4123SOL    HW113049   2.690   3.257   5.701
 4123SOL    HW213050   2.745   3.313   5.572
 4124SOL     OW13051   2.521   3.655   6.531
 4124SOL    HW113052   2.502   3.746   6.508
 4124SOL    HW213053   2.616   3.648   6.525
 4125SOL     OW13054   2.951   2.859   5.679
 4125SOL    HW113055   2.924   2.904   5.599
 4125SOL    HW213056   3.020   2.800   5.651
 4126SOL     OW13057   3.717   3.417   6.430
 4126SOL    HW113058   3.639   3.406   6.377
 4126SOL    HW213059   3.708   3.351   6.500
 4127SOL     OW13060   2.086   3.166   7.443
 4127SOL    HW113061   2.019   3.105   7.414
 4127SOL    HW213062   2.070   3.178   7.536
 4128SOL     OW13063   1.946   3.096   6.251
 4128SOL    HW113064   1.950   3.048   6.334
 4128SOL    HW213065   2.016   3.058   6.198
 4129SOL     OW13066   2.540   3.264   7.211
 4129SOL    HW113067   2.461   3.221   7.243
 4129SOL    HW213068   2.537   3.352   7.250
 4130SOL     OW13069   3.676   2.047   6.824
 4130SOL    HW113070   3.685   1.953   6.838
 4130SOL    HW213071   3.685   2.057   6.729
 4131SOL     OW13072   2.305   2.294   6.124
 4131SOL    HW113073   2.325   2.229   6.057
 4131SOL    HW213074   2.244   2.250   6.183
 4132SOL     OW13075   3.563   3.352   6.683
 4132SOL    HW113076   3.482   3.328   6.639
 4132SOL    HW213077   3.575   3.284   6.749
 4133SOL     OW13078   2.196   2.413   6.882
 4133SOL    HW113079   2.250   2.354   6.933
 4133SOL    HW213080   2.208   2.384   6.791
 4134SOL     OW13081   2.690   3.440   6.262
 4134SOL    HW113082   2.674   3.490   6.182
 4134SOL    HW213083   2.613   3.384   6.270
 4135SOL     OW13084   3.295   2.086   6.704
 4135SOL    HW113085   3.321   2.007   6.752
 4135SOL    HW213086   3.242   2.135   6.767
 4136SOL     OW13087   2.870   1.880   6.729
 4136SOL    HW113088   2.817   1.812   6.689
 4136SOL    HW213089   2.959   1.843   6.732
 4137SOL     OW13090   2.639   3.201   5.893
 4137SOL    HW113091   2.605   3.112   5.901
 4137SOL    HW213092   2.717   3.202   5.949
 4138SOL     OW13093   2.480   3.422   6.868
 4138SOL    HW113094   2.485   3.503   6.919
 4138SOL    HW213095   2.569   3.410   6.834
 4139SOL     OW13096   3.214   1.916   5.750
 4139SOL    HW113097   3.241   1.854   5.683
 4139SOL    HW213098   3.127   1.885   5.777
 4140SOL     OW13099   3.165   2.317   6.267
 4140SOL    HW113100   3.114   2.397   6.276
 4140SOL    HW213101   3.160   2.276   6.354
 4141SOL     OW13102   3.449   2.065   6.463
 4141SOL    HW113103   3.387   2.084   6.534
 4141SOL    HW213104   3.448   2.143   6.408
 4142SOL     OW13105   1.906   2.933   5.891
 4142SOL    HW113106   1.999   2.923   5.871
 4142SOL    HW213107   1.877   2.845   5.915
 4143SOL     OW13108   2.746   3.514   5.928
 4143SOL    HW113109   2.673   3.497   5.868
 4143SOL    HW213110   2.717   3.589   5.980
 4144SOL     OW13111   2.094   2.478   7.570
 4144SOL    HW113112   2.004   2.492   7.602
 4144SOL    HW213113   2.083   2.457   7.478
 4145SOL     OW13114   3.628   2.462   7.680
 4145SOL    HW113115   3.609   2.457   7.586
 4145SOL    HW213116   3.587   2.383   7.716
 4146SOL     OW13117   2.082   3.582   7.919
 4146SOL    HW113118   2.113   3.623   7.999
 4146SOL    HW213119   2.160   3.577   7.863
 4147SOL     OW13120   2.079   3.301   7.988
 4147SOL    HW113121   2.063   3.395   7.991
 4147SOL    HW213122   2.024   3.264   8.057
 4148SOL     OW13123   2.429   2.859   7.569
 4148SOL    HW113124   2.481   2.909   7.506
 4148SOL    HW213125   2.471   2.876   7.653
 4149SOL     OW13126   3.699   3.622   7.797
 4149SOL    HW113127   3.769   3.591   7.855
 4149SOL    HW213128   3.726   3.710   7.772
 4150SOL     OW13129   1.891   3.462   7.577
 4150SOL    HW113130   1.876   3.368   7.592
 4150SOL    HW213131   1.864   3.503   7.659
 4151SOL     OW13132   3.544   2.731   8.037
 4151SOL    HW113133   3.627   2.742   0.005
 4151SOL    HW213134   3.532   2.813   7.991
 4152SOL     OW13135   3.516   2.960   7.877
 4152SOL    HW113136   3.602   2.986   7.845
 4152SOL    HW213137   3.489   3.032   7.934
 4153SOL     OW13138   2.665   1.857   7.942
 4153SOL    HW113139   2.712   1.939   7.923
 4153SOL    HW213140   2.573   1.884   7.948
 4154SOL     OW13141   3.395   2.855   7.648
 4154SOL    HW113142   3.328   2.794   7.680
 4154SOL    HW213143   3.436   2.889   7.727
 4155SOL     OW13144   3.437   3.532   7.757
 4155SOL    HW113145   3.527   3.562   7.765
 4155SOL    HW213146   3.424   3.519   7.663
 4156SOL     OW13147   1.924   2.720   0.093
 4156SOL    HW113148   1.996   2.665   0.125
 4156SOL    HW213149   1.913   2.786   0.161
 4157SOL     OW13150   2.743   2.204   7.641
 4157SOL    HW113151   2.786   2.273   7.591
 4157SOL    HW213152   2.783   2.123   7.610
 4158SOL     OW13153   2.178   2.823   7.695
 4158SOL    HW113154   2.260   2.839   7.649
 4158SOL    HW213155   2.149   2.737   7.665
 4159SOL     OW13156   2.985   3.637   7.682
 4159SOL    HW113157   2.909   3.597   7.723
 4159SOL    HW213158   3.008   3.577   7.611
 4160SOL     OW13159   3.491   3.242   7.533
 4160SOL    HW113160   3.449   3.327   7.520
 4160SOL    HW213161   3.421   3.178   7.516
 4161SOL     OW13162   2.328   3.601   7.769
 4161SOL    HW113163   2.377   3.652   7.833
 4161SOL    HW213164   2.396   3.565   7.711
 4162SOL     OW13165   3.277   1.993   7.864
 4162SOL    HW113166   3.264   1.958   7.776
 4162SOL    HW213167   3.372   1.990   7.877
 4163SOL     OW13168   2.242   2.549   7.902
 4163SOL    HW113169   2.251   2.457   7.927
 4163SOL    HW213170   2.168   2.580   7.955
 4164SOL     OW13171   2.482   1.977   7.567
 4164SOL    HW113172   2.567   1.934   7.569
 4164SOL    HW213173   2.445   1.953   7.482
 4165SOL     OW13174   2.394   1.934   7.959
 4165SOL    HW113175   2.308   1.936   7.999
 4165SOL    HW213176   2.392   2.005   7.895
 4166SOL     OW13177   3.290   3.060   7.490
 4166SOL    HW113178   3.320   2.985   7.541
 4166SOL    HW213179   3.204   3.080   7.526
 4167SOL     OW13180   2.155   1.911   7.633
 4167SOL    HW113181   2.214   1.971   7.586
 4167SOL    HW213182   2.213   1.845   7.671
 4168SOL     OW13183   2.802   2.092   7.909
 4168SOL    HW113184   2.763   2.147   7.841
 4168SOL    HW213185   2.893   2.121   7.914
 4169SOL     OW13186   2.290   3.044   0.092
 4169SOL    HW113187   2.212   3.037   0.148
 4169SOL    HW213188   2.261   3.012   0.007
 4170SOL     OW13189   3.153   3.673   8.015
 4170SOL    HW113190   3.187   3.742   7.958
 4170SOL    HW213191   3.070   3.708   8.047
 4171SOL     OW13192   2.908   2.386   7.470
 4171SOL    HW113193   2.862   2.470   7.465
 4171SOL    HW213194   2.970   2.397   7.542
 4172SOL     OW13195   3.732   2.680   7.803
 4172SOL    HW113196   3.733   2.647   7.893
 4172SOL    HW213197   3.691   2.610   7.752
 4173SOL     OW13198   2.351   3.278   7.606
 4173SOL    HW113199   2.276   3.248   7.658
 4173SOL    HW213200   2.336   3.241   7.519
 4174SOL     OW13201   3.256   2.432   7.518
 4174SOL    HW113202   3.195   2.414   7.590
 4174SOL    HW213203   3.340   2.399   7.549
 4175SOL     OW13204   2.386   2.130   7.772
 4175SOL    HW113205   2.427   2.077   7.704
 4175SOL    HW213206   2.368   2.214   7.730
 4176SOL     OW13207   2.574   2.944   7.823
 4176SOL    HW113208   2.521   2.944   7.902
 4176SOL    HW213209   2.606   2.854   7.815
 4177SOL     OW13210   2.231   2.961   7.926
 4177SOL    HW113211   2.209   3.038   7.875
 4177SOL    HW213212   2.217   2.887   7.867
 4178SOL     OW13213   3.088   3.217   7.822
 4178SOL    HW113214   3.151   3.285   7.847
 4178SOL    HW213215   3.042   3.195   7.902
 4179SOL     OW13216   3.449   2.491   7.922
 4179SOL    HW113217   3.437   2.552   7.995
 4179SOL    HW213218   3.489   2.544   7.853
 4180SOL     OW13219   3.065   2.388   7.715
 4180SOL    HW113220   3.066   2.307   7.766
 4180SOL    HW213221   3.059   2.457   7.781
 4181SOL     OW13222   3.480   2.240   7.816
 4181SOL    HW113223   3.501   2.173   7.880
 4181SOL    HW213224   3.455   2.317   7.867
 4182SOL     OW13225   3.393   2.136   7.576
 4182SOL    HW113226   3.327   2.071   7.601
 4182SOL    HW213227   3.425   2.172   7.658
 4183SOL     OW13228   3.158   2.689   7.482
 4183SOL    HW113229   3.197   2.602   7.481
 4183SOL    HW213230   3.186   2.729   7.399
 4184SOL     OW13231   1.867   3.187   7.641
 4184SOL    HW113232   1.780   3.199   7.603
 4184SOL    HW213233   1.867   3.097   7.674
 4185SOL     OW13234   2.331   2.363   7.643
 4185SOL    HW113235   2.385   2.441   7.658
 4185SOL    HW213236   2.243   2.398   7.630
 4186SOL     OW13237   3.167   2.704   7.755
 4186SOL    HW113238   3.079   2.724   7.788
 4186SOL    HW213239   3.156   2.702   7.660
 4187SOL     OW13240   3.574   2.007   7.949
 4187SOL    HW113241   3.652   1.999   7.894
 4187SOL    HW213242   3.575   1.929   8.004
 4188SOL     OW13243   3.227   3.438   7.897
 4188SOL    HW113244   3.302   3.459   7.841
 4188SOL    HW213245   3.195   3.523   7.927
 4189SOL     OW13246   2.528   3.482   7.604
 4189SOL    HW113247   2.542   3.492   7.509
 4189SOL    HW213248   2.478   3.401   7.613
 4190SOL     OW13249   3.070   3.470   7.478
 4190SOL    HW113250   3.060   3.379   7.506
 4190SOL    HW213251   3.004   3.481   7.410
 4191SOL     OW13252   3.356   3.488   7.489
 4191SOL    HW113253   3.261   3.481   7.477
 4191SOL    HW213254   3.391   3.493   7.399
 4192SOL     OW13255   2.470   3.371   7.935
 4192SOL    HW113256   2.512   3.308   7.876
 4192SOL    HW213257   2.394   3.402   7.887
 4193SOL     OW13258   2.120   3.209   7.739
 4193SOL    HW113259   2.027   3.206   7.714
 4193SOL    HW213260   2.120   3.244   7.828
 4194SOL     OW13261   1.939   2.196   7.484
 4194SOL    HW113262   1.852   2.176   7.448
 4194SOL    HW213263   1.969   2.272   7.434
 4195SOL     OW13264   1.933   2.020   7.759
 4195SOL    HW113265   1.916   2.096   7.704
 4195SOL    HW213266   2.016   1.984   7.727
 4196SOL     OW13267   3.039   3.203   7.556
 4196SOL    HW113268   2.950   3.169   7.558
 4196SOL    HW213269   3.065   3.207   7.649
 4197SOL     OW13270   3.076   2.181   7.901
 4197SOL    HW113271   3.150   2.120   7.892
 4197SOL    HW213272   3.094   2.228   7.982
 4198SOL     OW13273   2.724   3.230   7.479
 4198SOL    HW113274   2.687   3.256   7.563
 4198SOL    HW213275   2.745   3.312   7.435
 4199SOL     OW13276   2.960   2.871   7.545
 4199SOL    HW113277   2.923   2.905   7.464
 4199SOL    HW213278   3.022   2.804   7.516
 4200SOL     OW13279   2.254   2.285   7.982
 4200SOL    HW113280   2.302   2.235   7.916
 4200SOL    HW213281   2.295   2.260   8.065
 4201SOL     OW13282   2.632   3.205   7.756
 4201SOL    HW113283   2.601   3.115   7.761
 4201SOL    HW213284   2.714   3.206   7.805
 4202SOL     OW13285   3.214   1.915   7.610
 4202SOL    HW113286   3.242   1.851   7.545
 4202SOL    HW213287   3.128   1.884   7.638
 4203SOL     OW13288   1.913   2.941   7.750
 4203SOL    HW113289   2.006   2.929   7.733
 4203SOL    HW213290   1.880   2.853   7.766
 4204SOL     OW13291   2.755   3.513   7.782
 4204SOL    HW113292   2.678   3.488   7.730
 4204SOL    HW213293   2.721   3.576   7.845
 4205SOL     OW13294   2.083   4.348   0.121
 4205SOL    HW113295   2.002   4.314   0.160
 4205SOL    HW213296   2.104   4.285   0.051
 4206SOL     OW13297   2.087   4.004   0.991
 4206SOL    HW113298   2.115   3.971   1.076
 4206SOL    HW213299   1.997   3.972   0.982
 4207SOL     OW13300   1.867   4.107   0.638
 4207SOL    HW113301   1.784   4.132   0.679
 4207SOL    HW213302   1.846   4.027   0.590
 4208SOL     OW13303   2.428   5.004   1.177
 4208SOL    HW113304   2.343   5.003   1.134
 4208SOL    HW213305   2.439   5.095   1.205
 4209SOL     OW13306   3.417   5.232   0.688
 4209SOL    HW113307   3.392   5.229   0.780
 4209SOL    HW213308   3.340   5.268   0.644
 4210SOL     OW13309   2.992   4.422   0.702
 4210SOL    HW113310   3.041   4.503   0.688
 4210SOL    HW213311   2.945   4.437   0.785
 4211SOL     OW13312   3.631   4.325   0.233
 4211SOL    HW113313   3.593   4.325   0.145
 4211SOL    HW213314   3.591   4.249   0.276
 4212SOL     OW13315   2.619   4.869   1.037
 4212SOL    HW113316   2.551   4.900   1.097
 4212SOL    HW213317   2.649   4.947   0.991
 4213SOL     OW13318   2.727   4.501   1.822
 4213SOL    HW113319   2.714   4.572   1.884
 4213SOL    HW213320   2.751   4.544   1.740
 4214SOL     OW13321   2.547   4.726   0.651
 4214SOL    HW113322   2.612   4.715   0.720
 4214SOL    HW213323   2.478   4.780   0.691
 4215SOL     OW13324   2.570   4.873   1.810
 4215SOL    HW113325   2.618   4.952   1.835
 4215SOL    HW213326   2.486   4.905   1.776
 4216SOL     OW13327   2.199   5.153   1.061
 4216SOL    HW113328   2.122   5.109   1.023
 4216SOL    HW213329   2.240   5.197   0.986
 4217SOL     OW13330   3.317   5.220   1.347
 4217SOL    HW113331   3.371   5.293   1.378
 4217SOL    HW213332   3.251   5.208   1.414
 4218SOL     OW13333   2.310   4.122   1.488
 4218SOL    HW113334   2.385   4.063   1.493
 4218SOL    HW213335   2.234   4.066   1.501
 4219SOL     OW13336   3.475   4.172   0.740
 4219SOL    HW113337   3.399   4.196   0.687
 4219SOL    HW213338   3.491   4.250   0.794
 4220SOL     OW13339   2.995   5.072   1.700
 4220SOL    HW113340   3.026   5.072   1.790
 4220SOL    HW213341   2.942   4.993   1.693
 4221SOL     OW13342   2.070   5.155   0.516
 4221SOL    HW113343   2.097   5.238   0.555
 4221SOL    HW213344   2.017   5.112   0.584
 4222SOL     OW13345   2.118   4.811   0.891
 4222SOL    HW113346   2.116   4.725   0.931
 4222SOL    HW213347   2.061   4.865   0.946
 4223SOL     OW13348   2.492   4.686   0.131
 4223SOL    HW113349   2.441   4.763   0.106
 4223SOL    HW213350   2.540   4.713   0.209
 4224SOL     OW13351   3.458   3.846   1.469
 4224SOL    HW113352   3.462   3.927   1.417
 4224SOL    HW213353   3.445   3.877   1.559
 4225SOL     OW13354   1.977   4.374   0.562
 4225SOL    HW113355   1.946   4.285   0.583
 4225SOL    HW213356   1.968   4.422   0.644
 4226SOL     OW13357   1.840   0.019   0.096
 4226SOL    HW113358   1.857   5.229   0.124
 4226SOL    HW213359   1.869   0.072   0.170
 4227SOL     OW13360   3.549   4.642   0.642
 4227SOL    HW113361   3.633   4.601   0.621
 4227SOL    HW213362   3.528   4.694   0.564
 4228SOL     OW13363   3.508   4.830   0.434
 4228SOL    HW113364   3.589   4.843   0.385
 4228SOL    HW213365   3.514   4.891   0.507
 4229SOL     OW13366   1.985   4.466   1.586
 4229SOL    HW113367   2.077   4.490   1.596
 4229SOL    HW213368   1.937   4.549   1.594
 4230SOL     OW13369   2.483   5.098   0.736
 4230SOL    HW113370   2.429   5.019   0.735
 4230SOL    HW213371   2.465   5.141   0.653
 4231SOL     OW13372   3.151   4.955   1.426
 4231SOL    HW113373   3.186   4.890   1.365
 4231SOL    HW213374   3.210   4.952   1.501
 4232SOL     OW13375   2.677   3.725   0.509
 4232SOL    HW113376   2.716   3.810   0.489
 4232SOL    HW213377   2.583   3.744   0.518
 4233SOL     OW13378   2.053   4.691   1.269
 4233SOL    HW113379   2.137   4.648   1.254
 4233SOL    HW213380   1.989   4.635   1.225
 4234SOL     OW13381   3.373   4.733   0.209
 4234SOL    HW113382   3.313   4.665   0.241
 4234SOL    HW213383   3.425   4.756   0.286
 4235SOL     OW13384   2.194   3.975   1.809
 4235SOL    HW113385   2.239   4.057   1.826
 4235SOL    HW213386   2.105   3.989   1.842
 4236SOL     OW13387   3.338   5.146   0.963
 4236SOL    HW113388   3.264   5.158   1.023
 4236SOL    HW213389   3.325   5.058   0.928
 4237SOL     OW13390   2.460   4.439   0.282
 4237SOL    HW113391   2.479   4.515   0.227
 4237SOL    HW213392   2.395   4.470   0.345
 4238SOL     OW13393   3.141   4.075   0.932
 4238SOL    HW113394   3.052   4.042   0.941
 4238SOL    HW213395   3.192   4.022   0.994
 4239SOL     OW13396   2.654   4.341   1.452
 4239SOL    HW113397   2.628   4.318   1.541
 4239SOL    HW213398   2.613   4.275   1.396
 4240SOL     OW13399   3.256   4.198   1.678
 4240SOL    HW113400   3.257   4.242   1.762
 4240SOL    HW213401   3.318   4.126   1.687
 4241SOL     OW13402   2.818   4.612   1.582
 4241SOL    HW113403   2.872   4.542   1.547
 4241SOL    HW213404   2.770   4.646   1.506
 4242SOL     OW13405   2.854   4.137   1.239
 4242SOL    HW113406   2.770   4.159   1.278
 4242SOL    HW213407   2.833   4.090   1.159
 4243SOL     OW13408   2.914   4.422   0.427
 4243SOL    HW113409   2.928   4.416   0.522
 4243SOL    HW213410   2.831   4.376   0.413
 4244SOL     OW13411   1.951   4.545   0.775
 4244SOL    HW113412   2.032   4.538   0.826
 4244SOL    HW213413   1.907   4.622   0.811
 4245SOL     OW13414   2.746   4.081   0.201
 4245SOL    HW113415   2.791   4.130   0.132
 4245SOL    HW213416   2.746   3.990   0.170
 4246SOL     OW13417   3.571   4.299   1.828
 4246SOL    HW113418   3.533   4.374   1.781
 4246SOL    HW213419   3.598   4.239   1.759
 4247SOL     OW13420   3.238   4.864   0.540
 4247SOL    HW113421   3.318   4.850   0.490
 4247SOL    HW213422   3.187   4.926   0.488
 4248SOL     OW13423   2.411   3.907   0.892
 4248SOL    HW113424   2.414   3.935   0.984
 4248SOL    HW213425   2.414   3.989   0.843
 4249SOL     OW13426   2.880   5.166   0.469
 4249SOL    HW113427   2.804   5.225   0.464
 4249SOL    HW213428   2.900   5.160   0.562
 4250SOL     OW13429   3.661   4.781   0.867
 4250SOL    HW113430   3.603   4.765   0.792
 4250SOL    HW213431   3.603   4.788   0.942
 4251SOL     OW13432   3.112   5.239   1.523
 4251SOL    HW113433   3.075   5.173   1.582
 4251SOL    HW213434   3.041   5.258   1.461
 4252SOL     OW13435   2.190   4.665   0.252
 4252SOL    HW113436   2.261   4.706   0.203
 4252SOL    HW213437   2.188   4.575   0.222
 4253SOL     OW13438   3.339   4.464   0.727
 4253SOL    HW113439   3.330   4.421   0.812
 4253SOL    HW213440   3.416   4.520   0.737
 4254SOL     OW13441   2.326   4.988   1.740
 4254SOL    HW113442   2.299   4.990   1.648
 4254SOL    HW213443   2.244   4.986   1.789
 4255SOL     OW13444   3.018   0.161   0.238
 4255SOL    HW113445   2.933   0.176   0.279
 4255SOL    HW213446   2.997   0.143   0.146
 4256SOL     OW13447   2.062   4.006   1.500
 4256SOL    HW113448   1.980   4.055   1.496
 4256SOL    HW213449   2.046   3.939   1.567
 4257SOL     OW13450   3.492   5.095   0.076
 4257SOL    HW113451   3.454   5.181   0.091
 4257SOL    HW213452   3.417   5.037   0.062
 4258SOL     OW13453   3.269   3.835   0.443
 4258SOL    HW113454   3.259   3.814   0.350
 4258SOL    HW213455   3.363   3.842   0.456
 4259SOL     OW13456   2.248   4.421   0.477
 4259SOL    HW113457   2.273   4.330   0.487
 4259SOL    HW213458   2.155   4.423   0.500
 4260SOL     OW13459   3.398   3.949   1.725
 4260SOL    HW113460   3.407   3.970   1.818
 4260SOL    HW213461   3.329   3.883   1.722
 4261SOL     OW13462   2.491   3.836   0.135
 4261SOL    HW113463   2.586   3.823   0.142
 4261SOL    HW213464   2.471   3.816   0.043
 4262SOL     OW13465   2.629   4.001   1.753
 4262SOL    HW113466   2.704   3.941   1.757
 4262SOL    HW213467   2.580   3.983   1.833
 4263SOL     OW13468   3.203   4.312   1.432
 4263SOL    HW113469   3.234   4.281   1.517
 4263SOL    HW213470   3.239   4.401   1.424
 4264SOL     OW13471   2.673   5.121   0.935
 4264SOL    HW113472   2.754   5.106   0.886
 4264SOL    HW213473   2.605   5.127   0.868
 4265SOL     OW13474   2.789   4.233   0.903
 4265SOL    HW113475   2.766   4.225   0.811
 4265SOL    HW213476   2.821   4.146   0.927
 4266SOL     OW13477   2.411   3.787   0.506
 4266SOL    HW113478   2.330   3.787   0.558
 4266SOL    HW213479   2.405   3.866   0.452
 4267SOL     OW13480   3.288   4.925   0.036
 4267SOL    HW113481   3.318   4.851   0.089
 4267SOL    HW213482   3.202   4.946   0.071
 4268SOL     OW13483   2.172   3.778   0.168
 4268SOL    HW113484   2.236   3.847   0.183
 4268SOL    HW213485   2.209   3.701   0.211
 4269SOL     OW13486   2.801   3.970   0.460
 4269SOL    HW113487   2.773   4.012   0.379
 4269SOL    HW213488   2.895   3.985   0.464
 4270SOL     OW13489   2.942   4.404   1.460
 4270SOL    HW113490   2.873   4.338   1.465
 4270SOL    HW213491   3.023   4.354   1.453
 4271SOL     OW13492   3.124   5.266   0.782
 4271SOL    HW113493   3.089   0.048   0.747
 4271SOL    HW213494   3.169   5.292   0.862
 4272SOL     OW13495   2.326   4.872   0.732
 4272SOL    HW113496   2.258   4.852   0.796
 4272SOL    HW213497   2.286   4.854   0.647
 4273SOL     OW13498   2.894   4.254   0.029
 4273SOL    HW113499   2.851   4.335   8.080
 4273SOL    HW213500   2.956   4.284   0.097
 4274SOL     OW13501   1.940   4.279   1.392
 4274SOL    HW113502   2.032   4.277   1.365
 4274SOL    HW213503   1.935   4.349   1.457
 4275SOL     OW13504   2.422   3.951   1.165
 4275SOL    HW113505   2.463   3.873   1.203
 4275SOL    HW213506   2.331   3.948   1.195
 4276SOL     OW13507   2.729   4.182   0.639
 4276SOL    HW113508   2.687   4.238   0.574
 4276SOL    HW213509   2.751   4.102   0.592
 4277SOL     OW13510   2.878   3.777   0.751
 4277SOL    HW113511   2.818   3.770   0.677
 4277SOL    HW213512   2.856   3.702   0.806
 4278SOL     OW13513   3.299   4.889   0.859
 4278SOL    HW113514   3.232   4.821   0.855
 4278SOL    HW213515   3.323   4.904   0.767
 4279SOL     OW13516   3.329   4.328   0.978
 4279SOL    HW113517   3.279   4.246   0.982
 4279SOL    HW213518   3.389   4.323   1.053
 4280SOL     OW13519   3.710   4.540   0.388
 4280SOL    HW113520   3.762   4.486   0.448
 4280SOL    HW213521   3.679   4.478   0.322
 4281SOL     OW13522   2.329   5.160   0.157
 4281SOL    HW113523   2.281   5.103   0.217
 4281SOL    HW213524   2.365   5.101   0.090
 4282SOL     OW13525   3.531   4.988   0.648
 4282SOL    HW113526   3.625   4.995   0.666
 4282SOL    HW213527   3.497   5.075   0.665
 4283SOL     OW13528   3.260   4.304   0.087
 4283SOL    HW113529   3.198   4.284   0.157
 4283SOL    HW213530   3.318   4.228   0.083
 4284SOL     OW13531   2.380   3.987   0.324
 4284SOL    HW113532   2.429   3.935   0.261
 4284SOL    HW213533   2.368   4.072   0.281
 4285SOL     OW13534   3.614   4.959   1.577
 4285SOL    HW113535   3.700   4.918   1.576
 4285SOL    HW213536   3.632   5.052   1.591
 4286SOL     OW13537   2.927   5.075   1.331
 4286SOL    HW113538   2.849   5.049   1.380
 4286SOL    HW213539   2.999   5.035   1.379
 4287SOL     OW13540   2.987   4.925   1.108
 4287SOL    HW113541   2.936   4.967   1.177
 4287SOL    HW213542   2.944   4.953   1.027
 4288SOL     OW13543   3.492   4.823   1.077
 4288SOL    HW113544   3.487   4.884   1.150
 4288SOL    HW213545   3.413   4.841   1.026
 4289SOL     OW13546   2.780   3.822   1.397
 4289SOL    HW113547   2.803   3.803   1.306
 4289SOL    HW213548   2.859   3.861   1.434
 4290SOL     OW13549   2.846   4.839   1.725
 4290SOL    HW113550   2.754   4.854   1.743
 4290SOL    HW213551   2.847   4.762   1.667
 4291SOL     OW13552   2.571   4.782   0.380
 4291SOL    HW113553   2.556   4.766   0.474
 4291SOL    HW213554   2.650   4.733   0.360
 4292SOL     OW13555   2.280   4.538   1.251
 4292SOL    HW113556   2.349   4.548   1.317
 4292SOL    HW213557   2.245   4.450   1.266
 4293SOL     OW13558   3.128   4.101   1.274
 4293SOL    HW113559   3.161   4.179   1.320
 4293SOL    HW213560   3.038   4.124   1.251
 4294SOL     OW13561   2.207   4.831   0.491
 4294SOL    HW113562   2.211   4.904   0.429
 4294SOL    HW213563   2.217   4.753   0.437
 4295SOL     OW13564   2.415   4.261   0.860
 4295SOL    HW113565   2.431   4.319   0.786
 4295SOL    HW213566   2.480   4.288   0.926
 4296SOL     OW13567   3.119   5.072   0.387
 4296SOL    HW113568   3.173   5.146   0.412
 4296SOL    HW213569   3.030   5.096   0.413
 4297SOL     OW13570   3.130   5.181   1.142
 4297SOL    HW113571   3.190   5.195   1.216
 4297SOL    HW213572   3.086   5.098   1.161
 4298SOL     OW13573   3.445   4.348   0.480
 4298SOL    HW113574   3.397   4.400   0.545
 4298SOL    HW213575   3.482   4.414   0.420
 4299SOL     OW13576   2.210   5.236   1.316
 4299SOL    HW113577   2.199   5.201   1.227
 4299SOL    HW213578   2.303   5.257   1.321
 4300SOL     OW13579   2.276   4.469   1.602
 4300SOL    HW113580   2.337   4.513   1.544
 4300SOL    HW213581   2.316   4.383   1.618
 4301SOL     OW13582   3.462   4.502   1.681
 4301SOL    HW113583   3.376   4.543   1.674
 4301SOL    HW213584   3.514   4.544   1.613
 4302SOL     OW13585   2.858   3.845   1.756
 4302SOL    HW113586   2.912   3.918   1.726
 4302SOL    HW213587   2.907   3.767   1.730
 4303SOL     OW13588   2.360   3.766   1.747
 4303SOL    HW113589   2.317   3.711   1.681
 4303SOL    HW213590   2.300   3.839   1.759
 4304SOL     OW13591   2.444   4.596   1.031
 4304SOL    HW113592   2.475   4.687   1.029
 4304SOL    HW213593   2.388   4.591   1.108
 4305SOL     OW13594   3.221   4.582   1.030
 4305SOL    HW113595   3.138   4.574   0.982
 4305SOL    HW213596   3.260   4.495   1.026
 4306SOL     OW13597   3.067   4.252   0.271
 4306SOL    HW113598   3.074   4.173   0.325
 4306SOL    HW213599   3.024   4.316   0.328
 4307SOL     OW13600   2.161   3.923   1.246
 4307SOL    HW113601   2.124   3.956   1.328
 4307SOL    HW213602   2.142   3.829   1.247
 4308SOL     OW13603   1.914   5.046   1.284
 4308SOL    HW113604   1.939   4.982   1.351
 4308SOL    HW213605   1.949   5.129   1.315
 4309SOL     OW13606   2.586   4.355   1.058
 4309SOL    HW113607   2.661   4.338   1.000
 4309SOL    HW213608   2.559   4.444   1.037
 4310SOL     OW13609   3.596   4.683   1.851
 4310SOL    HW113610   3.549   4.623   1.793
 4310SOL    HW213611   3.536   4.696   1.925
 4311SOL     OW13612   2.164   3.789   0.623
 4311SOL    HW113613   2.146   3.880   0.647
 4311SOL    HW213614   2.171   3.743   0.707
 4312SOL     OW13615   3.481   4.098   0.370
 4312SOL    HW113616   3.506   4.034   0.436
 4312SOL    HW213617   3.456   4.176   0.420
 4313SOL     OW13618   2.889   4.483   0.961
 4313SOL    HW113619   2.887   4.501   1.055
 4313SOL    HW213620   2.863   4.391   0.953
 4314SOL     OW13621   3.716   5.214   1.586
 4314SOL    HW113622   3.714   5.288   1.525
 4314SOL    HW213623   3.785   5.237   1.648
 4315SOL     OW13624   2.215   4.640   1.808
 4315SOL    HW113625   2.297   4.658   1.854
 4315SOL    HW213626   2.239   4.578   1.740
 4316SOL     OW13627   3.383   4.022   0.126
 4316SOL    HW113628   3.332   3.942   0.143
 4316SOL    HW213629   3.421   4.044   0.211
 4317SOL     OW13630   3.156   4.549   0.020
 4317SOL    HW113631   3.195   4.463   0.040
 4317SOL    HW213632   3.215   4.587   8.035
 4318SOL     OW13633   2.920   5.077   0.829
 4318SOL    HW113634   2.926   4.993   0.784
 4318SOL    HW213635   3.006   5.117   0.815
 4319SOL     OW13636   2.171   4.533   0.947
 4319SOL    HW113637   2.264   4.554   0.942
 4319SOL    HW213638   2.169   4.444   0.981
 4320SOL     OW13639   2.194   4.249   1.012
 4320SOL    HW113640   2.159   4.161   0.997
 4320SOL    HW213641   2.270   4.255   0.954
 4321SOL     OW13642   2.996   4.101   1.681
 4321SOL    HW113643   2.949   4.156   1.744
 4321SOL    HW213644   3.084   4.138   1.677
 4322SOL     OW13645   3.023   3.927   1.470
 4322SOL    HW113646   3.012   3.990   1.541
 4322SOL    HW213647   3.062   3.978   1.399
 4323SOL     OW13648   1.872   5.045   0.181
 4323SOL    HW113649   1.784   5.058   0.146
 4323SOL    HW213650   1.871   4.958   0.220
 4324SOL     OW13651   2.846   4.517   1.227
 4324SOL    HW113652   2.902   4.493   1.302
 4324SOL    HW213653   2.761   4.480   1.249
 4325SOL     OW13654   1.898   4.268   1.116
 4325SOL    HW113655   1.979   4.253   1.068
 4325SOL    HW213656   1.925   4.273   1.208
 4326SOL     OW13657   2.053   4.243   1.727
 4326SOL    HW113658   2.110   4.206   1.660
 4326SOL    HW213659   2.009   4.316   1.683
 4327SOL     OW13660   3.238   4.664   1.659
 4327SOL    HW113661   3.259   4.757   1.657
 4327SOL    HW213662   3.235   4.638   1.566
 4328SOL     OW13663   2.680   4.294   0.365
 4328SOL    HW113664   2.689   4.222   0.302
 4328SOL    HW213665   2.604   4.343   0.335
 4329SOL     OW13666   3.504   4.325   1.187
 4329SOL    HW113667   3.494   4.266   1.261
 4329SOL    HW213668   3.591   4.305   1.152
 4330SOL     OW13669   2.069   5.277   1.745
 4330SOL    HW113670   2.056   0.030   1.824
 4330SOL    HW213671   2.081   5.188   1.777
 4331SOL     OW13672   2.561   4.175   1.260
 4331SOL    HW113673   2.509   4.101   1.230
 4331SOL    HW213674   2.558   4.238   1.188
 4332SOL     OW13675   2.330   4.214   0.180
 4332SOL    HW113676   2.397   4.281   0.199
 4332SOL    HW213677   2.247   4.260   0.190
 4333SOL     OW13678   2.008   4.863   1.470
 4333SOL    HW113679   2.010   4.811   1.551
 4333SOL    HW213680   2.025   4.800   1.401
 4334SOL     OW13681   3.190   4.770   1.223
 4334SOL    HW113682   3.213   4.708   1.154
 4334SOL    HW213683   3.118   4.821   1.186
 4335SOL     OW13684   3.169   4.573   0.307
 4335SOL    HW113685   3.091   4.545   0.357
 4335SOL    HW213686   3.144   4.563   0.216
 4336SOL     OW13687   1.954   4.986   1.021
 4336SOL    HW113688   1.934   5.003   1.113
 4336SOL    HW213689   1.875   4.948   0.985
 4337SOL     OW13690   2.613   0.040   1.709
 4337SOL    HW113691   2.520   0.062   1.720
 4337SOL    HW213692   2.632   0.063   1.618
 4338SOL     OW13693   2.767   3.815   0.134
 4338SOL    HW113694   2.786   3.799   0.042
 4338SOL    HW213695   2.830   3.762   0.182
 4339SOL     OW13696   3.580   3.868   0.510
 4339SOL    HW113697   3.653   3.853   0.450
 4339SOL    HW213698   3.565   3.783   0.552
 4340SOL     OW13699   3.139   4.649   0.671
 4340SOL    HW113700   3.213   4.587   0.677
 4340SOL    HW213701   3.173   4.721   0.619
 4341SOL     OW13702   2.682   4.994   1.423
 4341SOL    HW113703   2.653   5.030   1.507
 4341SOL    HW213704   2.606   5.005   1.366
 4342SOL     OW13705   3.702   3.897   0.967
 4342SOL    HW113706   3.731   3.810   0.939
 4342SOL    HW213707   3.616   3.907   0.927
 4343SOL     OW13708   2.125   4.040   0.718
 4343SOL    HW113709   2.039   4.076   0.694
 4343SOL    HW213710   2.121   4.032   0.813
 4344SOL     OW13711   3.004   0.020   0.005
 4344SOL    HW113712   3.018   5.230   0.035
 4344SOL    HW213713   3.005   0.015   7.990
 4345SOL     OW13714   2.687   4.728   1.370
 4345SOL    HW113715   2.733   4.723   1.287
 4345SOL    HW213716   2.690   4.821   1.394
 4346SOL     OW13717   2.781   4.639   0.299
 4346SOL    HW113718   2.836   4.665   0.225
 4346SOL    HW213719   2.828   4.565   0.338
 4347SOL     OW13720   2.228   5.025   1.496
 4347SOL    HW113721   2.216   5.100   1.437
 4347SOL    HW213722   2.152   4.969   1.479
 4348SOL     OW13723   3.474   5.004   1.282
 4348SOL    HW113724   3.532   4.999   1.359
 4348SOL    HW213725   3.412   5.074   1.304
 4349SOL     OW13726   2.914   4.833   0.711
 4349SOL    HW113727   2.842   4.781   0.747
 4349SOL    HW213728   2.975   4.768   0.675
 4350SOL     OW13729   2.883   3.964   0.966
 4350SOL    HW113730   2.878   3.916   0.883
 4350SOL    HW213731   2.877   3.896   1.033
 4351SOL     OW13732   3.583   4.116   1.380
 4351SOL    HW113733   3.655   4.179   1.379
 4351SOL    HW213734   3.613   4.045   1.324
 4352SOL     OW13735   2.126   5.029   0.288
 4352SOL    HW113736   2.044   5.046   0.241
 4352SOL    HW213737   2.118   5.080   0.369
 4353SOL     OW13738   1.974   4.744   1.718
 4353SOL    HW113739   1.898   4.721   1.772
 4353SOL    HW213740   2.049   4.708   1.766
 4354SOL     OW13741   2.536   3.920   1.499
 4354SOL    HW113742   2.620   3.901   1.457
 4354SOL    HW213743   2.559   3.951   1.587
 4355SOL     OW13744   1.919   4.087   0.039
 4355SOL    HW113745   1.846   4.031   0.015
 4355SOL    HW213746   1.966   4.102   8.037
 4356SOL     OW13747   3.293   4.582   1.401
 4356SOL    HW113748   3.244   4.642   1.345
 4356SOL    HW213749   3.382   4.585   1.367
 4357SOL     OW13750   1.933   3.879   0.307
 4357SOL    HW113751   1.918   3.963   0.264
 4357SOL    HW213752   2.017   3.849   0.273
 4358SOL     OW13753   3.044   5.064   0.113
 4358SOL    HW113754   2.949   5.049   0.111
 4358SOL    HW213755   3.067   5.060   0.206
 4359SOL     OW13756   2.481   4.555   1.433
 4359SOL    HW113757   2.537   4.631   1.418
 4359SOL    HW213758   2.542   4.481   1.442
 4360SOL     OW13759   2.580   4.288   1.705
 4360SOL    HW113760   2.618   4.351   1.765
 4360SOL    HW213761   2.610   4.203   1.736
 4361SOL     OW13762   3.334   4.924   1.632
 4361SOL    HW113763   3.321   4.936   1.726
 4361SOL    HW213764   3.428   4.937   1.619
 4362SOL     OW13765   3.533   4.606   1.255
 4362SOL    HW113766   3.525   4.520   1.212
 4362SOL    HW213767   3.523   4.669   1.184
 4363SOL     OW13768   3.079   4.042   0.459
 4363SOL    HW113769   3.145   3.972   0.452
 4363SOL    HW213770   3.107   4.092   0.536
 4364SOL     OW13771   2.451   4.462   0.669
 4364SOL    HW113772   2.491   4.548   0.654
 4364SOL    HW213773   2.382   4.457   0.602
 4365SOL     OW13774   3.626   4.085   1.650
 4365SOL    HW113775   3.608   4.100   1.557
 4365SOL    HW213776   3.554   4.028   1.679
 4366SOL     OW13777   3.606   4.657   1.512
 4366SOL    HW113778   3.604   4.752   1.525
 4366SOL    HW213779   3.591   4.646   1.418
 4367SOL     OW13780   2.769   5.097   0.036
 4367SOL    HW113781   2.709   5.080   0.108
 4367SOL    HW213782   2.723   5.161   8.062
 4368SOL     OW13783   2.729   4.690   0.856
 4368SOL    HW113784   2.779   4.619   0.896
 4368SOL    HW213785   2.695   4.741   0.930
 4369SOL     OW13786   2.942   4.704   0.088
 4369SOL    HW113787   2.922   4.757   0.012
 4369SOL    HW213788   3.018   4.653   0.062
 4370SOL     OW13789   2.085   5.025   1.853
 4370SOL    HW113790   2.017   4.963   1.828
 4370SOL    HW213791   2.074   5.037   1.947
 4371SOL     OW13792   1.948   4.955   0.669
 4371SOL    HW113793   1.946   4.902   0.749
 4371SOL    HW213794   2.017   4.915   0.616
 4372SOL     OW13795   2.531   5.109   1.608
 4372SOL    HW113796   2.457   5.073   1.656
 4372SOL    HW213797   2.562   5.182   1.662
 4373SOL     OW13798   3.674   3.909   1.238
 4373SOL    HW113799   3.686   3.815   1.253
 4373SOL    HW213800   3.684   3.919   1.143
 4374SOL     OW13801   2.287   4.160   0.523
 4374SOL    HW113802   2.320   4.088   0.469
 4374SOL    HW213803   2.243   4.116   0.596
 4375SOL     OW13804   3.569   5.223   1.119
 4375SOL    HW113805   3.495   5.206   1.060
 4375SOL    HW213806   3.576   5.143   1.172
 4376SOL     OW13807   2.191   4.278   1.291
 4376SOL    HW113808   2.246   4.223   1.347
 4376SOL    HW213809   2.211   4.250   1.202
 4377SOL     OW13810   3.294   3.948   1.118
 4377SOL    HW113811   3.321   3.870   1.166
 4377SOL    HW213812   3.242   3.998   1.181
 4378SOL     OW13813   2.871   3.743   1.143
 4378SOL    HW113814   2.816   3.675   1.105
 4378SOL    HW213815   2.958   3.706   1.145
 4379SOL     OW13816   2.656   5.040   0.283
 4379SOL    HW113817   2.600   4.966   0.308
 4379SOL    HW213818   2.715   5.052   0.357
 4380SOL     OW13819   2.483   5.299   1.289
 4380SOL    HW113820   2.491   0.054   1.367
 4380SOL    HW213821   2.574   5.279   1.265
 4381SOL     OW13822   3.218   3.778   0.184
 4381SOL    HW113823   3.240   3.731   0.103
 4381SOL    HW213824   3.133   3.745   0.209
 4382SOL     OW13825   3.159   4.185   0.682
 4382SOL    HW113826   3.106   4.264   0.689
 4382SOL    HW213827   3.155   4.145   0.769
 4383SOL     OW13828   3.449   3.927   0.877
 4383SOL    HW113829   3.387   3.947   0.948
 4383SOL    HW213830   3.448   4.005   0.823
 4384SOL     OW13831   1.903   4.792   0.303
 4384SOL    HW113832   1.998   4.794   0.306
 4384SOL    HW213833   1.879   4.709   0.343
 4385SOL     OW13834   2.092   4.348   1.984
 4385SOL    HW113835   2.002   4.347   2.018
 4385SOL    HW213836   2.083   4.321   1.893
 4386SOL     OW13837   2.086   4.005   2.853
 4386SOL    HW113838   2.115   3.971   2.938
 4386SOL    HW213839   1.997   3.972   2.843
 4387SOL     OW13840   1.867   4.107   2.500
 4387SOL    HW113841   1.784   4.131   2.541
 4387SOL    HW213842   1.847   4.027   2.451
 4388SOL     OW13843   2.428   5.004   3.040
 4388SOL    HW113844   2.343   5.002   2.996
 4388SOL    HW213845   2.439   5.095   3.067
 4389SOL     OW13846   3.417   5.232   2.551
 4389SOL    HW113847   3.395   5.229   2.644
 4389SOL    HW213848   3.338   5.267   2.509
 4390SOL     OW13849   2.992   4.422   2.564
 4390SOL    HW113850   3.041   4.503   2.550
 4390SOL    HW213851   2.945   4.437   2.646
 4391SOL     OW13852   3.628   4.330   2.091
 4391SOL    HW113853   3.608   4.322   1.998
 4391SOL    HW213854   3.593   4.250   2.131
 4392SOL     OW13855   2.620   4.869   2.900
 4392SOL    HW113856   2.552   4.900   2.959
 4392SOL    HW213857   2.649   4.948   2.854
 4393SOL     OW13858   2.727   4.501   3.684
 4393SOL    HW113859   2.714   4.573   3.746
 4393SOL    HW213860   2.751   4.544   3.602
 4394SOL     OW13861   2.548   4.728   2.510
 4394SOL    HW113862   2.613   4.716   2.580
 4394SOL    HW213863   2.479   4.780   2.551
 4395SOL     OW13864   2.570   4.873   3.672
 4395SOL    HW113865   2.618   4.952   3.697
 4395SOL    HW213866   2.486   4.905   3.638
 4396SOL     OW13867   2.198   5.153   2.923
 4396SOL    HW113868   2.122   5.109   2.886
 4396SOL    HW213869   2.240   5.196   2.848
 4397SOL     OW13870   3.317   5.220   3.209
 4397SOL    HW113871   3.370   5.293   3.240
 4397SOL    HW213872   3.251   5.207   3.276
 4398SOL     OW13873   2.310   4.123   3.351
 4398SOL    HW113874   2.386   4.065   3.355
 4398SOL    HW213875   2.235   4.065   3.363
 4399SOL     OW13876   3.474   4.172   2.602
 4399SOL    HW113877   3.399   4.196   2.548
 4399SOL    HW213878   3.492   4.250   2.655
 4400SOL     OW13879   2.995   5.072   3.562
 4400SOL    HW113880   3.026   5.072   3.652
 4400SOL    HW213881   2.942   4.993   3.555
 4401SOL     OW13882   2.072   5.155   2.382
 4401SOL    HW113883   2.097   5.238   2.422
 4401SOL    HW213884   2.020   5.110   2.448
 4402SOL     OW13885   2.119   4.811   2.754
 4402SOL    HW113886   2.116   4.724   2.793
 4402SOL    HW213887   2.061   4.864   2.809
 4403SOL     OW13888   2.448   4.705   1.995
 4403SOL    HW113889   2.494   4.754   1.927
 4403SOL    HW213890   2.488   4.734   2.077
 4404SOL     OW13891   3.454   3.849   3.329
 4404SOL    HW113892   3.461   3.930   3.278
 4404SOL    HW213893   3.444   3.878   3.419
 4405SOL     OW13894   1.977   4.376   2.421
 4405SOL    HW113895   1.948   4.287   2.442
 4405SOL    HW213896   1.968   4.424   2.504
 4406SOL     OW13897   1.849   0.014   1.961
 4406SOL    HW113898   1.865   5.225   1.991
 4406SOL    HW213899   1.871   0.069   2.036
 4407SOL     OW13900   3.551   4.642   2.501
 4407SOL    HW113901   3.635   4.601   2.482
 4407SOL    HW213902   3.530   4.693   2.423
 4408SOL     OW13903   3.507   4.831   2.292
 4408SOL    HW113904   3.592   4.837   2.248
 4408SOL    HW213905   3.513   4.892   2.365
 4409SOL     OW13906   1.985   4.466   3.448
 4409SOL    HW113907   2.077   4.490   3.458
 4409SOL    HW213908   1.937   4.549   3.456
 4410SOL     OW13909   2.484   5.097   2.598
 4410SOL    HW113910   2.429   5.018   2.597
 4410SOL    HW213911   2.464   5.140   2.514
 4411SOL     OW13912   3.151   4.955   3.287
 4411SOL    HW113913   3.186   4.890   3.227
 4411SOL    HW213914   3.210   4.952   3.363
 4412SOL     OW13915   2.675   3.724   2.367
 4412SOL    HW113916   2.716   3.809   2.351
 4412SOL    HW213917   2.582   3.743   2.378
 4413SOL     OW13918   2.053   4.691   3.131
 4413SOL    HW113919   2.137   4.648   3.116
 4413SOL    HW213920   1.989   4.635   3.087
 4414SOL     OW13921   3.393   4.718   2.059
 4414SOL    HW113922   3.323   4.660   2.090
 4414SOL    HW213923   3.434   4.752   2.138
 4415SOL     OW13924   2.191   3.980   3.671
 4415SOL    HW113925   2.237   4.062   3.691
 4415SOL    HW213926   2.103   3.993   3.706
 4416SOL     OW13927   3.337   5.146   2.824
 4416SOL    HW113928   3.265   5.158   2.885
 4416SOL    HW213929   3.325   5.058   2.790
 4417SOL     OW13930   2.458   4.446   2.127
 4417SOL    HW113931   2.465   4.527   2.077
 4417SOL    HW213932   2.393   4.465   2.195
 4418SOL     OW13933   3.141   4.075   2.794
 4418SOL    HW113934   3.052   4.042   2.802
 4418SOL    HW213935   3.192   4.022   2.856
 4419SOL     OW13936   2.654   4.341   3.314
 4419SOL    HW113937   2.628   4.318   3.403
 4419SOL    HW213938   2.613   4.275   3.258
 4420SOL     OW13939   3.256   4.198   3.540
 4420SOL    HW113940   3.257   4.243   3.624
 4420SOL    HW213941   3.318   4.126   3.549
 4421SOL     OW13942   2.818   4.612   3.444
 4421SOL    HW113943   2.872   4.541   3.409
 4421SOL    HW213944   2.770   4.645   3.368
 4422SOL     OW13945   2.855   4.138   3.101
 4422SOL    HW113946   2.770   4.158   3.140
 4422SOL    HW213947   2.833   4.090   3.021
 4423SOL     OW13948   2.912   4.422   2.288
 4423SOL    HW113949   2.928   4.415   2.383
 4423SOL    HW213950   2.830   4.376   2.274
 4424SOL     OW13951   1.950   4.545   2.638
 4424SOL    HW113952   2.031   4.537   2.688
 4424SOL    HW213953   1.907   4.622   2.673
 4425SOL     OW13954   2.753   4.072   2.056
 4425SOL    HW113955   2.794   4.133   1.996
 4425SOL    HW213956   2.770   3.986   2.018
 4426SOL     OW13957   3.571   4.299   3.690
 4426SOL    HW113958   3.534   4.374   3.643
 4426SOL    HW213959   3.598   4.239   3.621
 4427SOL     OW13960   3.238   4.864   2.402
 4427SOL    HW113961   3.319   4.850   2.353
 4427SOL    HW213962   3.188   4.925   2.348
 4428SOL     OW13963   2.413   3.907   2.754
 4428SOL    HW113964   2.414   3.935   2.846
 4428SOL    HW213965   2.413   3.989   2.705
 4429SOL     OW13966   2.884   5.172   2.331
 4429SOL    HW113967   2.806   5.225   2.324
 4429SOL    HW213968   2.898   5.162   2.425
 4430SOL     OW13969   3.662   4.782   2.728
 4430SOL    HW113970   3.604   4.765   2.653
 4430SOL    HW213971   3.602   4.788   2.803
 4431SOL     OW13972   3.112   5.239   3.385
 4431SOL    HW113973   3.075   5.173   3.444
 4431SOL    HW213974   3.041   5.258   3.323
 4432SOL     OW13975   2.183   4.680   2.111
 4432SOL    HW113976   2.265   4.699   2.066
 4432SOL    HW213977   2.152   4.598   2.072
 4433SOL     OW13978   3.339   4.465   2.590
 4433SOL    HW113979   3.330   4.421   2.674
 4433SOL    HW213980   3.417   4.520   2.599
 4434SOL     OW13981   2.326   4.988   3.602
 4434SOL    HW113982   2.299   4.990   3.510
 4434SOL    HW213983   2.244   4.986   3.651
 4435SOL     OW13984   2.937   0.182   2.070
 4435SOL    HW113985   2.937   0.106   2.128
 4435SOL    HW213986   2.969   0.148   1.986
 4436SOL     OW13987   2.062   4.005   3.362
 4436SOL    HW113988   1.980   4.054   3.358
 4436SOL    HW213989   2.049   3.942   3.433
 4437SOL     OW13990   3.485   5.100   1.968
 4437SOL    HW113991   3.480   5.178   1.914
 4437SOL    HW213992   3.416   5.042   1.934
 4438SOL     OW13993   3.263   3.831   2.294
 4438SOL    HW113994   3.253   3.807   2.202
 4438SOL    HW213995   3.358   3.839   2.306
 4439SOL     OW13996   2.254   4.419   2.339
 4439SOL    HW113997   2.276   4.327   2.350
 4439SOL    HW213998   2.160   4.424   2.357
 4440SOL     OW13999   3.399   3.951   3.587
 4440SOL    HW114000   3.407   3.970   3.680
 4440SOL    HW214001   3.329   3.886   3.582
 4441SOL     OW14002   2.495   3.847   1.968
 4441SOL    HW114003   2.566   3.785   1.980
 4441SOL    HW214004   2.447   3.815   1.892
 4442SOL     OW14005   2.632   4.002   3.619
 4442SOL    HW114006   2.705   3.940   3.620
 4442SOL    HW214007   2.577   3.975   3.693
 4443SOL     OW14008   3.203   4.313   3.294
 4443SOL    HW114009   3.234   4.281   3.379
 4443SOL    HW214010   3.239   4.401   3.286
 4444SOL     OW14011   2.674   5.121   2.796
 4444SOL    HW114012   2.754   5.106   2.747
 4444SOL    HW214013   2.605   5.127   2.729
 4445SOL     OW14014   2.790   4.233   2.765
 4445SOL    HW114015   2.766   4.225   2.673
 4445SOL    HW214016   2.821   4.147   2.790
 4446SOL     OW14017   2.410   3.787   2.365
 4446SOL    HW114018   2.330   3.787   2.417
 4446SOL    HW214019   2.404   3.866   2.311
 4447SOL     OW14020   3.290   4.923   1.901
 4447SOL    HW114021   3.321   4.848   1.951
 4447SOL    HW214022   3.202   4.940   1.935
 4448SOL     OW14023   2.154   3.771   2.046
 4448SOL    HW114024   2.214   3.836   2.008
 4448SOL    HW214025   2.212   3.708   2.088
 4449SOL     OW14026   2.799   3.970   2.324
 4449SOL    HW114027   2.772   4.012   2.242
 4449SOL    HW214028   2.894   3.983   2.327
 4450SOL     OW14029   2.942   4.404   3.322
 4450SOL    HW114030   2.872   4.338   3.327
 4450SOL    HW214031   3.022   4.353   3.315
 4451SOL     OW14032   3.126   5.267   2.641
 4451SOL    HW114033   3.087   0.050   2.612
 4451SOL    HW214034   3.169   5.290   2.723
 4452SOL     OW14035   2.327   4.872   2.594
 4452SOL    HW114036   2.258   4.852   2.657
 4452SOL    HW214037   2.288   4.853   2.509
 4453SOL     OW14038   2.886   4.267   1.884
 4453SOL    HW114039   2.844   4.351   1.863
 4453SOL    HW214040   2.951   4.289   1.950
 4454SOL     OW14041   1.940   4.279   3.254
 4454SOL    HW114042   2.032   4.277   3.227
 4454SOL    HW214043   1.936   4.349   3.319
 4455SOL     OW14044   2.422   3.951   3.027
 4455SOL    HW114045   2.463   3.874   3.065
 4455SOL    HW214046   2.331   3.948   3.057
 4456SOL     OW14047   2.730   4.183   2.502
 4456SOL    HW114048   2.684   4.238   2.437
 4456SOL    HW214049   2.751   4.103   2.455
 4457SOL     OW14050   2.877   3.776   2.615
 4457SOL    HW114051   2.819   3.768   2.539
 4457SOL    HW214052   2.856   3.699   2.669
 4458SOL     OW14053   3.298   4.890   2.721
 4458SOL    HW114054   3.233   4.820   2.717
 4458SOL    HW214055   3.324   4.904   2.630
 4459SOL     OW14056   3.329   4.328   2.840
 4459SOL    HW114057   3.279   4.246   2.844
 4459SOL    HW214058   3.389   4.323   2.915
 4460SOL     OW14059   3.708   4.541   2.244
 4460SOL    HW114060   3.764   4.489   2.302
 4460SOL    HW214061   3.679   4.478   2.177
 4461SOL     OW14062   2.344   5.145   2.017
 4461SOL    HW114063   2.281   5.094   2.068
 4461SOL    HW214064   2.342   5.106   1.930
 4462SOL     OW14065   3.531   4.987   2.510
 4462SOL    HW114066   3.625   4.994   2.526
 4462SOL    HW214067   3.497   5.075   2.526
 4463SOL     OW14068   3.256   4.296   1.933
 4463SOL    HW114069   3.195   4.276   2.005
 4463SOL    HW214070   3.341   4.263   1.964
 4464SOL     OW14071   2.387   3.987   2.181
 4464SOL    HW114072   2.431   3.938   2.111
 4464SOL    HW214073   2.366   4.072   2.143
 4465SOL     OW14074   3.614   4.959   3.439
 4465SOL    HW114075   3.700   4.918   3.438
 4465SOL    HW214076   3.632   5.052   3.453
 4466SOL     OW14077   2.927   5.075   3.194
 4466SOL    HW114078   2.849   5.049   3.242
 4466SOL    HW214079   2.999   5.035   3.241
 4467SOL     OW14080   2.987   4.925   2.970
 4467SOL    HW114081   2.936   4.966   3.040
 4467SOL    HW214082   2.943   4.952   2.889
 4468SOL     OW14083   3.492   4.823   2.939
 4468SOL    HW114084   3.487   4.884   3.012
 4468SOL    HW214085   3.413   4.841   2.888
 4469SOL     OW14086   2.776   3.843   3.256
 4469SOL    HW114087   2.798   3.813   3.167
 4469SOL    HW214088   2.859   3.878   3.290
 4470SOL     OW14089   2.846   4.839   3.587
 4470SOL    HW114090   2.753   4.854   3.605
 4470SOL    HW214091   2.847   4.762   3.529
 4471SOL     OW14092   2.567   4.782   2.234
 4471SOL    HW114093   2.555   4.767   2.328
 4471SOL    HW214094   2.644   4.731   2.211
 4472SOL     OW14095   2.280   4.538   3.114
 4472SOL    HW114096   2.349   4.547   3.179
 4472SOL    HW214097   2.245   4.450   3.127
 4473SOL     OW14098   3.128   4.102   3.136
 4473SOL    HW114099   3.161   4.179   3.182
 4473SOL    HW214100   3.038   4.124   3.112
 4474SOL     OW14101   2.211   4.831   2.352
 4474SOL    HW114102   2.214   4.904   2.290
 4474SOL    HW214103   2.210   4.753   2.297
 4475SOL     OW14104   2.416   4.261   2.722
 4475SOL    HW114105   2.431   4.319   2.648
 4475SOL    HW214106   2.480   4.288   2.788
 4476SOL     OW14107   3.121   5.076   2.248
 4476SOL    HW114108   3.177   5.144   2.286
 4476SOL    HW214109   3.033   5.099   2.277
 4477SOL     OW14110   3.130   5.181   3.004
 4477SOL    HW114111   3.190   5.194   3.078
 4477SOL    HW214112   3.086   5.098   3.023
 4478SOL     OW14113   3.444   4.347   2.340
 4478SOL    HW114114   3.398   4.402   2.404
 4478SOL    HW214115   3.490   4.410   2.283
 4479SOL     OW14116   2.210   5.236   3.178
 4479SOL    HW114117   2.199   5.201   3.089
 4479SOL    HW214118   2.303   5.257   3.183
 4480SOL     OW14119   2.276   4.469   3.464
 4480SOL    HW114120   2.337   4.513   3.406
 4480SOL    HW214121   2.315   4.383   3.479
 4481SOL     OW14122   3.462   4.502   3.543
 4481SOL    HW114123   3.376   4.543   3.536
 4481SOL    HW214124   3.514   4.544   3.475
 4482SOL     OW14125   2.862   3.845   3.619
 4482SOL    HW114126   2.912   3.921   3.590
 4482SOL    HW214127   2.912   3.770   3.588
 4483SOL     OW14128   2.363   3.781   3.612
 4483SOL    HW114129   2.322   3.726   3.545
 4483SOL    HW214130   2.301   3.852   3.626
 4484SOL     OW14131   2.445   4.596   2.893
 4484SOL    HW114132   2.474   4.687   2.891
 4484SOL    HW214133   2.388   4.591   2.970
 4485SOL     OW14134   3.221   4.582   2.892
 4485SOL    HW114135   3.138   4.573   2.845
 4485SOL    HW214136   3.260   4.495   2.888
 4486SOL     OW14137   3.068   4.253   2.130
 4486SOL    HW114138   3.076   4.174   2.184
 4486SOL    HW214139   3.025   4.317   2.186
 4487SOL     OW14140   2.161   3.922   3.108
 4487SOL    HW114141   2.125   3.955   3.190
 4487SOL    HW214142   2.139   3.829   3.107
 4488SOL     OW14143   1.913   5.046   3.146
 4488SOL    HW114144   1.939   4.982   3.213
 4488SOL    HW214145   1.949   5.129   3.177
 4489SOL     OW14146   2.587   4.355   2.920
 4489SOL    HW114147   2.661   4.338   2.862
 4489SOL    HW214148   2.559   4.444   2.898
 4490SOL     OW14149   3.596   4.684   3.713
 4490SOL    HW114150   3.550   4.623   3.655
 4490SOL    HW214151   3.536   4.696   3.787
 4491SOL     OW14152   2.164   3.789   2.485
 4491SOL    HW114153   2.146   3.880   2.509
 4491SOL    HW214154   2.171   3.743   2.569
 4492SOL     OW14155   3.477   4.097   2.230
 4492SOL    HW114156   3.505   4.034   2.296
 4492SOL    HW214157   3.454   4.176   2.280
 4493SOL     OW14158   2.889   4.483   2.823
 4493SOL    HW114159   2.887   4.501   2.917
 4493SOL    HW214160   2.863   4.392   2.815
 4494SOL     OW14161   3.716   5.214   3.448
 4494SOL    HW114162   3.714   5.288   3.387
 4494SOL    HW214163   3.785   5.237   3.510
 4495SOL     OW14164   2.215   4.641   3.670
 4495SOL    HW114165   2.298   4.658   3.716
 4495SOL    HW214166   2.239   4.578   3.602
 4496SOL     OW14167   3.392   3.997   1.989
 4496SOL    HW114168   3.327   3.932   2.016
 4496SOL    HW214169   3.425   4.033   2.072
 4497SOL     OW14170   3.155   4.550   1.894
 4497SOL    HW114171   3.197   4.465   1.897
 4497SOL    HW214172   3.186   4.590   1.812
 4498SOL     OW14173   2.920   5.078   2.689
 4498SOL    HW114174   2.925   4.993   2.646
 4498SOL    HW214175   3.006   5.117   2.676
 4499SOL     OW14176   2.171   4.533   2.810
 4499SOL    HW114177   2.264   4.554   2.803
 4499SOL    HW214178   2.169   4.443   2.843
 4500SOL     OW14179   2.194   4.249   2.874
 4500SOL    HW114180   2.158   4.162   2.859
 4500SOL    HW214181   2.270   4.255   2.816
 4501SOL     OW14182   2.997   4.100   3.544
 4501SOL    HW114183   2.949   4.155   3.606
 4501SOL    HW214184   3.084   4.139   3.539
 4502SOL     OW14185   3.023   3.929   3.331
 4502SOL    HW114186   3.014   3.991   3.403
 4502SOL    HW214187   3.063   3.980   3.260
 4503SOL     OW14188   1.868   5.042   2.053
 4503SOL    HW114189   1.778   5.058   2.025
 4503SOL    HW214190   1.866   4.954   2.090
 4504SOL     OW14191   2.846   4.517   3.089
 4504SOL    HW114192   2.902   4.494   3.164
 4504SOL    HW214193   2.761   4.479   3.110
 4505SOL     OW14194   1.898   4.269   2.978
 4505SOL    HW114195   1.978   4.252   2.929
 4505SOL    HW214196   1.926   4.272   3.070
 4506SOL     OW14197   2.052   4.243   3.589
 4506SOL    HW114198   2.110   4.205   3.523
 4506SOL    HW214199   2.009   4.316   3.544
 4507SOL     OW14200   3.238   4.664   3.521
 4507SOL    HW114201   3.259   4.757   3.518
 4507SOL    HW214202   3.235   4.638   3.429
 4508SOL     OW14203   2.678   4.293   2.220
 4508SOL    HW114204   2.681   4.218   2.161
 4508SOL    HW214205   2.604   4.345   2.190
 4509SOL     OW14206   3.504   4.325   3.049
 4509SOL    HW114207   3.494   4.266   3.123
 4509SOL    HW214208   3.591   4.305   3.015
 4510SOL     OW14209   2.069   5.277   3.607
 4510SOL    HW114210   2.056   0.030   3.686
 4510SOL    HW214211   2.081   5.188   3.639
 4511SOL     OW14212   2.561   4.176   3.123
 4511SOL    HW114213   2.509   4.101   3.092
 4511SOL    HW214214   2.558   4.238   3.050
 4512SOL     OW14215   2.327   4.217   2.049
 4512SOL    HW114216   2.385   4.290   2.071
 4512SOL    HW214217   2.241   4.257   2.037
 4513SOL     OW14218   2.008   4.863   3.332
 4513SOL    HW114219   2.011   4.811   3.413
 4513SOL    HW214220   2.026   4.800   3.262
 4514SOL     OW14221   3.190   4.770   3.085
 4514SOL    HW114222   3.213   4.708   3.016
 4514SOL    HW214223   3.118   4.822   3.048
 4515SOL     OW14224   3.172   4.581   2.169
 4515SOL    HW114225   3.096   4.550   2.218
 4515SOL    HW214226   3.148   4.567   2.077
 4516SOL     OW14227   1.954   4.986   2.883
 4516SOL    HW114228   1.933   5.003   2.975
 4516SOL    HW214229   1.875   4.947   2.847
 4517SOL     OW14230   2.613   0.040   3.571
 4517SOL    HW114231   2.520   0.062   3.582
 4517SOL    HW214232   2.632   0.062   3.480
 4518SOL     OW14233   3.581   3.869   2.372
 4518SOL    HW114234   3.654   3.855   2.312
 4518SOL    HW214235   3.565   3.783   2.412
 4519SOL     OW14236   3.139   4.649   2.533
 4519SOL    HW114237   3.212   4.588   2.540
 4519SOL    HW214238   3.173   4.721   2.481
 4520SOL     OW14239   2.682   4.994   3.285
 4520SOL    HW114240   2.653   5.030   3.369
 4520SOL    HW214241   2.606   5.004   3.228
 4521SOL     OW14242   3.702   3.898   2.829
 4521SOL    HW114243   3.731   3.810   2.802
 4521SOL    HW214244   3.616   3.908   2.789
 4522SOL     OW14245   2.125   4.041   2.579
 4522SOL    HW114246   2.039   4.076   2.555
 4522SOL    HW214247   2.121   4.032   2.675
 4523SOL     OW14248   2.686   4.728   3.233
 4523SOL    HW114249   2.732   4.722   3.149
 4523SOL    HW214250   2.690   4.821   3.255
 4524SOL     OW14251   2.778   4.635   2.152
 4524SOL    HW114252   2.839   4.667   2.086
 4524SOL    HW214253   2.825   4.565   2.196
 4525SOL     OW14254   2.228   5.025   3.358
 4525SOL    HW114255   2.216   5.100   3.299
 4525SOL    HW214256   2.152   4.969   3.341
 4526SOL     OW14257   3.474   5.004   3.144
 4526SOL    HW114258   3.532   4.999   3.221
 4526SOL    HW214259   3.412   5.074   3.166
 4527SOL     OW14260   2.914   4.833   2.572
 4527SOL    HW114261   2.842   4.781   2.609
 4527SOL    HW214262   2.976   4.767   2.538
 4528SOL     OW14263   2.883   3.965   2.827
 4528SOL    HW114264   2.878   3.916   2.745
 4528SOL    HW214265   2.877   3.898   2.895
 4529SOL     OW14266   3.583   4.116   3.242
 4529SOL    HW114267   3.655   4.179   3.241
 4529SOL    HW214268   3.613   4.044   3.186
 4530SOL     OW14269   2.120   5.054   2.144
 4530SOL    HW114270   2.028   5.056   2.117
 4530SOL    HW214271   2.121   5.096   2.230
 4531SOL     OW14272   1.974   4.745   3.580
 4531SOL    HW114273   1.898   4.722   3.634
 4531SOL    HW214274   2.049   4.708   3.627
 4532SOL     OW14275   2.535   3.930   3.362
 4532SOL    HW114276   2.619   3.912   3.319
 4532SOL    HW214277   2.559   3.955   3.451
 4533SOL     OW14278   1.940   4.059   1.897
 4533SOL    HW114279   1.853   4.039   1.864
 4533SOL    HW214280   1.969   4.133   1.845
 4534SOL     OW14281   3.293   4.582   3.263
 4534SOL    HW114282   3.244   4.642   3.207
 4534SOL    HW214283   3.382   4.584   3.229
 4535SOL     OW14284   1.931   3.881   2.173
 4535SOL    HW114285   1.917   3.961   2.122
 4535SOL    HW214286   2.016   3.848   2.144
 4536SOL     OW14287   3.044   5.065   1.982
 4536SOL    HW114288   2.953   5.036   1.982
 4536SOL    HW214289   3.072   5.057   2.073
 4537SOL     OW14290   2.481   4.555   3.295
 4537SOL    HW114291   2.537   4.630   3.280
 4537SOL    HW214292   2.541   4.481   3.304
 4538SOL     OW14293   2.580   4.287   3.567
 4538SOL    HW114294   2.619   4.350   3.628
 4538SOL    HW214295   2.609   4.201   3.599
 4539SOL     OW14296   3.334   4.924   3.494
 4539SOL    HW114297   3.321   4.936   3.588
 4539SOL    HW214298   3.428   4.937   3.481
 4540SOL     OW14299   3.532   4.606   3.117
 4540SOL    HW114300   3.525   4.520   3.075
 4540SOL    HW214301   3.523   4.669   3.046
 4541SOL     OW14302   3.079   4.043   2.320
 4541SOL    HW114303   3.143   3.972   2.311
 4541SOL    HW214304   3.108   4.092   2.397
 4542SOL     OW14305   2.453   4.463   2.531
 4542SOL    HW114306   2.491   4.549   2.515
 4542SOL    HW214307   2.384   4.455   2.464
 4543SOL     OW14308   3.626   4.085   3.512
 4543SOL    HW114309   3.609   4.100   3.419
 4543SOL    HW214310   3.554   4.029   3.541
 4544SOL     OW14311   3.606   4.657   3.374
 4544SOL    HW114312   3.604   4.752   3.387
 4544SOL    HW214313   3.591   4.646   3.280
 4545SOL     OW14314   2.712   5.095   1.881
 4545SOL    HW114315   2.691   5.096   1.975
 4545SOL    HW214316   2.730   5.186   1.859
 4546SOL     OW14317   2.729   4.691   2.718
 4546SOL    HW114318   2.779   4.619   2.758
 4546SOL    HW214319   2.695   4.741   2.792
 4547SOL     OW14320   2.942   4.713   1.951
 4547SOL    HW114321   2.920   4.763   1.873
 4547SOL    HW214322   3.017   4.659   1.925
 4548SOL     OW14323   2.085   5.025   3.715
 4548SOL    HW114324   2.017   4.962   3.689
 4548SOL    HW214325   2.074   5.036   3.809
 4549SOL     OW14326   1.947   4.956   2.532
 4549SOL    HW114327   1.946   4.903   2.611
 4549SOL    HW214328   2.011   4.913   2.475
 4550SOL     OW14329   2.531   5.109   3.470
 4550SOL    HW114330   2.457   5.073   3.518
 4550SOL    HW214331   2.562   5.182   3.525
 4551SOL     OW14332   3.675   3.909   3.100
 4551SOL    HW114333   3.683   3.815   3.115
 4551SOL    HW214334   3.684   3.919   3.005
 4552SOL     OW14335   2.291   4.158   2.387
 4552SOL    HW114336   2.321   4.087   2.330
 4552SOL    HW214337   2.244   4.114   2.458
 4553SOL     OW14338   3.569   5.223   2.981
 4553SOL    HW114339   3.495   5.206   2.922
 4553SOL    HW214340   3.576   5.144   3.034
 4554SOL     OW14341   2.191   4.278   3.153
 4554SOL    HW114342   2.246   4.223   3.209
 4554SOL    HW214343   2.211   4.250   3.064
 4555SOL     OW14344   3.294   3.948   2.980
 4555SOL    HW114345   3.322   3.870   3.028
 4555SOL    HW214346   3.242   3.998   3.044
 4556SOL     OW14347   2.868   3.747   3.006
 4556SOL    HW114348   2.817   3.680   2.961
 4556SOL    HW214349   2.957   3.711   3.010
 4557SOL     OW14350   2.664   5.048   2.146
 4557SOL    HW114351   2.602   4.977   2.164
 4557SOL    HW214352   2.719   5.052   2.225
 4558SOL     OW14353   2.483   5.299   3.151
 4558SOL    HW114354   2.491   0.054   3.229
 4558SOL    HW214355   2.574   5.279   3.127
 4559SOL     OW14356   3.214   3.778   2.027
 4559SOL    HW114357   3.241   3.716   1.959
 4559SOL    HW214358   3.127   3.747   2.054
 4560SOL     OW14359   3.159   4.184   2.544
 4560SOL    HW114360   3.105   4.263   2.551
 4560SOL    HW214361   3.155   4.144   2.631
 4561SOL     OW14362   3.449   3.927   2.739
 4561SOL    HW114363   3.387   3.947   2.810
 4561SOL    HW214364   3.448   4.005   2.685
 4562SOL     OW14365   1.904   4.795   2.169
 4562SOL    HW114366   1.998   4.788   2.152
 4562SOL    HW214367   1.877   4.706   2.191
 4563SOL     OW14368   2.092   4.348   3.846
 4563SOL    HW114369   2.002   4.346   3.880
 4563SOL    HW214370   2.083   4.322   3.755
 4564SOL     OW14371   2.086   4.004   4.716
 4564SOL    HW114372   2.115   3.972   4.801
 4564SOL    HW214373   1.996   3.972   4.706
 4565SOL     OW14374   1.867   4.106   4.363
 4565SOL    HW114375   1.784   4.130   4.403
 4565SOL    HW214376   1.847   4.027   4.312
 4566SOL     OW14377   2.428   5.004   4.901
 4566SOL    HW114378   2.343   5.002   4.858
 4566SOL    HW214379   2.439   5.095   4.929
 4567SOL     OW14380   3.417   5.232   4.413
 4567SOL    HW114381   3.395   5.229   4.506
 4567SOL    HW214382   3.338   5.267   4.371
 4568SOL     OW14383   2.992   4.422   4.426
 4568SOL    HW114384   3.042   4.503   4.411
 4568SOL    HW214385   2.945   4.438   4.508
 4569SOL     OW14386   3.627   4.330   3.954
 4569SOL    HW114387   3.607   4.322   3.860
 4569SOL    HW214388   3.593   4.250   3.992
 4570SOL     OW14389   2.620   4.869   4.762
 4570SOL    HW114390   2.551   4.900   4.821
 4570SOL    HW214391   2.649   4.948   4.716
 4571SOL     OW14392   2.727   4.501   5.545
 4571SOL    HW114393   2.714   4.572   5.608
 4571SOL    HW214394   2.751   4.544   5.464
 4572SOL     OW14395   2.548   4.728   4.372
 4572SOL    HW114396   2.613   4.716   4.442
 4572SOL    HW214397   2.479   4.780   4.412
 4573SOL     OW14398   2.570   4.873   5.534
 4573SOL    HW114399   2.618   4.952   5.559
 4573SOL    HW214400   2.486   4.905   5.500
 4574SOL     OW14401   2.199   5.153   4.785
 4574SOL    HW114402   2.122   5.109   4.748
 4574SOL    HW214403   2.240   5.196   4.710
 4575SOL     OW14404   3.317   5.220   5.071
 4575SOL    HW114405   3.371   5.293   5.102
 4575SOL    HW214406   3.251   5.208   5.138
 4576SOL     OW14407   2.310   4.122   5.213
 4576SOL    HW114408   2.385   4.063   5.217
 4576SOL    HW214409   2.234   4.066   5.224
 4577SOL     OW14410   3.474   4.172   4.464
 4577SOL    HW114411   3.399   4.196   4.409
 4577SOL    HW214412   3.493   4.251   4.515
 4578SOL     OW14413   2.995   5.072   5.424
 4578SOL    HW114414   3.026   5.072   5.514
 4578SOL    HW214415   2.942   4.993   5.417
 4579SOL     OW14416   2.072   5.155   4.244
 4579SOL    HW114417   2.097   5.238   4.284
 4579SOL    HW214418   2.020   5.111   4.310
 4580SOL     OW14419   2.119   4.811   4.616
 4580SOL    HW114420   2.116   4.724   4.655
 4580SOL    HW214421   2.061   4.865   4.670
 4581SOL     OW14422   2.448   4.705   3.857
 4581SOL    HW114423   2.494   4.754   3.789
 4581SOL    HW214424   2.488   4.735   3.939
 4582SOL     OW14425   3.455   3.847   5.192
 4582SOL    HW114426   3.466   3.928   5.141
 4582SOL    HW214427   3.444   3.877   5.282
 4583SOL     OW14428   1.977   4.376   4.283
 4583SOL    HW114429   1.948   4.287   4.304
 4583SOL    HW214430   1.968   4.424   4.366
 4584SOL     OW14431   1.849   0.014   3.823
 4584SOL    HW114432   1.865   5.225   3.853
 4584SOL    HW214433   1.871   0.069   3.899
 4585SOL     OW14434   3.551   4.642   4.363
 4585SOL    HW114435   3.635   4.601   4.343
 4585SOL    HW214436   3.530   4.693   4.285
 4586SOL     OW14437   3.507   4.831   4.154
 4586SOL    HW114438   3.592   4.837   4.110
 4586SOL    HW214439   3.513   4.892   4.227
 4587SOL     OW14440   1.984   4.466   5.310
 4587SOL    HW114441   2.076   4.491   5.320
 4587SOL    HW214442   1.937   4.549   5.318
 4588SOL     OW14443   2.484   5.097   4.460
 4588SOL    HW114444   2.429   5.018   4.459
 4588SOL    HW214445   2.464   5.140   4.376
 4589SOL     OW14446   3.151   4.955   5.150
 4589SOL    HW114447   3.186   4.890   5.089
 4589SOL    HW214448   3.210   4.952   5.225
 4590SOL     OW14449   2.686   3.734   4.263
 4590SOL    HW114450   2.719   3.815   4.225
 4590SOL    HW214451   2.591   3.739   4.253
 4591SOL     OW14452   2.053   4.691   4.993
 4591SOL    HW114453   2.137   4.648   4.978
 4591SOL    HW214454   1.989   4.636   4.948
 4592SOL     OW14455   3.393   4.718   3.921
 4592SOL    HW114456   3.323   4.660   3.952
 4592SOL    HW214457   3.434   4.752   4.000
 4593SOL     OW14458   2.194   3.974   5.533
 4593SOL    HW114459   2.240   4.057   5.549
 4593SOL    HW214460   2.105   3.989   5.565
 4594SOL     OW14461   3.337   5.146   4.686
 4594SOL    HW114462   3.265   5.158   4.747
 4594SOL    HW214463   3.325   5.058   4.652
 4595SOL     OW14464   2.458   4.446   3.989
 4595SOL    HW114465   2.464   4.527   3.938
 4595SOL    HW214466   2.393   4.465   4.057
 4596SOL     OW14467   3.141   4.076   4.656
 4596SOL    HW114468   3.052   4.043   4.663
 4596SOL    HW214469   3.191   4.022   4.718
 4597SOL     OW14470   2.655   4.341   5.176
 4597SOL    HW114471   2.628   4.318   5.265
 4597SOL    HW214472   2.613   4.275   5.120
 4598SOL     OW14473   3.255   4.197   5.402
 4598SOL    HW114474   3.257   4.242   5.486
 4598SOL    HW214475   3.318   4.126   5.411
 4599SOL     OW14476   2.818   4.612   5.306
 4599SOL    HW114477   2.872   4.542   5.271
 4599SOL    HW214478   2.770   4.646   5.230
 4600SOL     OW14479   2.854   4.134   4.964
 4600SOL    HW114480   2.769   4.159   5.002
 4600SOL    HW214481   2.832   4.094   4.880
 4601SOL     OW14482   2.913   4.422   4.150
 4601SOL    HW114483   2.927   4.415   4.245
 4601SOL    HW214484   2.830   4.376   4.135
 4602SOL     OW14485   1.950   4.544   4.500
 4602SOL    HW114486   2.032   4.538   4.550
 4602SOL    HW214487   1.907   4.622   4.535
 4603SOL     OW14488   2.755   4.074   3.921
 4603SOL    HW114489   2.796   4.132   3.858
 4603SOL    HW214490   2.751   3.989   3.878
 4604SOL     OW14491   3.570   4.299   5.552
 4604SOL    HW114492   3.533   4.374   5.505
 4604SOL    HW214493   3.599   4.239   5.483
 4605SOL     OW14494   3.238   4.864   4.264
 4605SOL    HW114495   3.319   4.850   4.215
 4605SOL    HW214496   3.188   4.925   4.210
 4606SOL     OW14497   2.406   3.907   4.616
 4606SOL    HW114498   2.411   3.937   4.707
 4606SOL    HW214499   2.412   3.987   4.564
 4607SOL     OW14500   2.884   5.172   4.193
 4607SOL    HW114501   2.805   5.225   4.186
 4607SOL    HW214502   2.898   5.162   4.287
 4608SOL     OW14503   3.662   4.782   4.590
 4608SOL    HW114504   3.605   4.765   4.515
 4608SOL    HW214505   3.602   4.788   4.665
 4609SOL     OW14506   3.112   5.239   5.247
 4609SOL    HW114507   3.075   5.173   5.306
 4609SOL    HW214508   3.041   5.259   5.185
 4610SOL     OW14509   2.183   4.680   3.973
 4610SOL    HW114510   2.265   4.699   3.928
 4610SOL    HW214511   2.152   4.598   3.934
 4611SOL     OW14512   3.339   4.466   4.452
 4611SOL    HW114513   3.330   4.421   4.536
 4611SOL    HW214514   3.417   4.520   4.461
 4612SOL     OW14515   2.326   4.987   5.464
 4612SOL    HW114516   2.299   4.990   5.372
 4612SOL    HW214517   2.244   4.986   5.513
 4613SOL     OW14518   2.937   0.182   3.932
 4613SOL    HW114519   2.938   0.106   3.990
 4613SOL    HW214520   2.969   0.148   3.849
 4614SOL     OW14521   2.062   4.006   5.224
 4614SOL    HW114522   1.981   4.057   5.218
 4614SOL    HW214523   2.045   3.943   5.294
 4615SOL     OW14524   3.485   5.100   3.830
 4615SOL    HW114525   3.480   5.178   3.775
 4615SOL    HW214526   3.417   5.042   3.797
 4616SOL     OW14527   3.268   3.842   4.154
 4616SOL    HW114528   3.257   3.812   4.064
 4616SOL    HW214529   3.363   3.840   4.169
 4617SOL     OW14530   2.254   4.419   4.202
 4617SOL    HW114531   2.276   4.327   4.211
 4617SOL    HW214532   2.160   4.424   4.219
 4618SOL     OW14533   3.399   3.949   5.450
 4618SOL    HW114534   3.408   3.971   5.542
 4618SOL    HW214535   3.330   3.884   5.447
 4619SOL     OW14536   2.505   3.849   3.830
 4619SOL    HW114537   2.556   3.772   3.854
 4619SOL    HW214538   2.452   3.821   3.755
 4620SOL     OW14539   2.628   4.000   5.477
 4620SOL    HW114540   2.703   3.941   5.481
 4620SOL    HW214541   2.581   3.985   5.558
 4621SOL     OW14542   3.203   4.312   5.156
 4621SOL    HW114543   3.234   4.282   5.241
 4621SOL    HW214544   3.239   4.401   5.148
 4622SOL     OW14545   2.673   5.121   4.658
 4622SOL    HW114546   2.754   5.106   4.609
 4622SOL    HW214547   2.605   5.126   4.591
 4623SOL     OW14548   2.789   4.233   4.627
 4623SOL    HW114549   2.766   4.226   4.535
 4623SOL    HW214550   2.822   4.146   4.650
 4624SOL     OW14551   2.414   3.787   4.229
 4624SOL    HW114552   2.331   3.787   4.278
 4624SOL    HW214553   2.409   3.863   4.173
 4625SOL     OW14554   3.290   4.923   3.763
 4625SOL    HW114555   3.321   4.848   3.813
 4625SOL    HW214556   3.202   4.940   3.797
 4626SOL     OW14557   2.152   3.773   3.905
 4626SOL    HW114558   2.211   3.836   3.865
 4626SOL    HW214559   2.210   3.709   3.948
 4627SOL     OW14560   2.801   3.974   4.184
 4627SOL    HW114561   2.774   4.013   4.100
 4627SOL    HW214562   2.895   3.986   4.187
 4628SOL     OW14563   2.942   4.404   5.184
 4628SOL    HW114564   2.873   4.338   5.189
 4628SOL    HW214565   3.023   4.354   5.177
 4629SOL     OW14566   3.126   5.267   4.503
 4629SOL    HW114567   3.087   0.050   4.474
 4629SOL    HW214568   3.169   5.290   4.586
 4630SOL     OW14569   2.327   4.871   4.456
 4630SOL    HW114570   2.258   4.852   4.519
 4630SOL    HW214571   2.288   4.853   4.371
 4631SOL     OW14572   2.887   4.267   3.745
 4631SOL    HW114573   2.844   4.351   3.725
 4631SOL    HW214574   2.951   4.289   3.812
 4632SOL     OW14575   1.940   4.278   5.116
 4632SOL    HW114576   2.032   4.277   5.089
 4632SOL    HW214577   1.936   4.349   5.181
 4633SOL     OW14578   2.422   3.952   4.889
 4633SOL    HW114579   2.462   3.872   4.922
 4633SOL    HW214580   2.331   3.949   4.919
 4634SOL     OW14581   2.729   4.183   4.364
 4634SOL    HW114582   2.685   4.238   4.299
 4634SOL    HW214583   2.751   4.103   4.317
 4635SOL     OW14584   2.873   3.782   4.475
 4635SOL    HW114585   2.818   3.774   4.397
 4635SOL    HW214586   2.850   3.707   4.529
 4636SOL     OW14587   3.298   4.890   4.583
 4636SOL    HW114588   3.232   4.820   4.578
 4636SOL    HW214589   3.324   4.904   4.492
 4637SOL     OW14590   3.328   4.329   4.702
 4637SOL    HW114591   3.279   4.247   4.705
 4637SOL    HW214592   3.389   4.323   4.777
 4638SOL     OW14593   3.708   4.541   4.106
 4638SOL    HW114594   3.764   4.489   4.164
 4638SOL    HW214595   3.679   4.479   4.039
 4639SOL     OW14596   2.344   5.146   3.879
 4639SOL    HW114597   2.281   5.095   3.930
 4639SOL    HW214598   2.342   5.106   3.792
 4640SOL     OW14599   3.531   4.987   4.372
 4640SOL    HW114600   3.625   4.994   4.388
 4640SOL    HW214601   3.497   5.075   4.388
 4641SOL     OW14602   3.256   4.296   3.795
 4641SOL    HW114603   3.195   4.277   3.867
 4641SOL    HW214604   3.341   4.263   3.826
 4642SOL     OW14605   2.388   3.986   4.043
 4642SOL    HW114606   2.434   3.938   3.974
 4642SOL    HW214607   2.367   4.071   4.004
 4643SOL     OW14608   3.614   4.959   5.301
 4643SOL    HW114609   3.700   4.918   5.300
 4643SOL    HW214610   3.632   5.052   5.315
 4644SOL     OW14611   2.927   5.074   5.055
 4644SOL    HW114612   2.848   5.049   5.104
 4644SOL    HW214613   2.999   5.035   5.103
 4645SOL     OW14614   2.987   4.925   4.832
 4645SOL    HW114615   2.937   4.966   4.902
 4645SOL    HW214616   2.943   4.952   4.751
 4646SOL     OW14617   3.491   4.823   4.801
 4646SOL    HW114618   3.487   4.884   4.874
 4646SOL    HW214619   3.413   4.841   4.750
 4647SOL     OW14620   2.779   3.821   5.126
 4647SOL    HW114621   2.797   3.806   5.033
 4647SOL    HW214622   2.859   3.862   5.159
 4648SOL     OW14623   2.846   4.839   5.449
 4648SOL    HW114624   2.754   4.854   5.467
 4648SOL    HW214625   2.847   4.762   5.391
 4649SOL     OW14626   2.567   4.782   4.096
 4649SOL    HW114627   2.555   4.767   4.190
 4649SOL    HW214628   2.645   4.731   4.073
 4650SOL     OW14629   2.280   4.538   4.976
 4650SOL    HW114630   2.349   4.548   5.041
 4650SOL    HW214631   2.245   4.450   4.990
 4651SOL     OW14632   3.128   4.101   4.999
 4651SOL    HW114633   3.161   4.178   5.045
 4651SOL    HW214634   3.038   4.124   4.975
 4652SOL     OW14635   2.211   4.831   4.214
 4652SOL    HW114636   2.214   4.904   4.152
 4652SOL    HW214637   2.210   4.753   4.159
 4653SOL     OW14638   2.415   4.262   4.585
 4653SOL    HW114639   2.431   4.319   4.510
 4653SOL    HW214640   2.480   4.289   4.650
 4654SOL     OW14641   3.121   5.076   4.110
 4654SOL    HW114642   3.177   5.144   4.148
 4654SOL    HW214643   3.033   5.099   4.139
 4655SOL     OW14644   3.130   5.181   4.866
 4655SOL    HW114645   3.190   5.195   4.939
 4655SOL    HW214646   3.086   5.098   4.885
 4656SOL     OW14647   3.444   4.347   4.203
 4656SOL    HW114648   3.398   4.403   4.266
 4656SOL    HW214649   3.489   4.409   4.145
 4657SOL     OW14650   2.210   5.236   5.040
 4657SOL    HW114651   2.199   5.201   4.951
 4657SOL    HW214652   2.303   5.257   5.045
 4658SOL     OW14653   2.276   4.469   5.326
 4658SOL    HW114654   2.337   4.514   5.268
 4658SOL    HW214655   2.316   4.383   5.342
 4659SOL     OW14656   3.462   4.502   5.405
 4659SOL    HW114657   3.376   4.543   5.398
 4659SOL    HW214658   3.514   4.544   5.337
 4660SOL     OW14659   2.858   3.845   5.480
 4660SOL    HW114660   2.912   3.919   5.452
 4660SOL    HW214661   2.908   3.768   5.453
 4661SOL     OW14662   2.360   3.765   5.471
 4661SOL    HW114663   2.317   3.711   5.404
 4661SOL    HW214664   2.301   3.839   5.483
 4662SOL     OW14665   2.446   4.596   4.756
 4662SOL    HW114666   2.475   4.687   4.752
 4662SOL    HW214667   2.388   4.591   4.832
 4663SOL     OW14668   3.221   4.582   4.754
 4663SOL    HW114669   3.138   4.574   4.706
 4663SOL    HW214670   3.260   4.495   4.749
 4664SOL     OW14671   3.068   4.253   3.992
 4664SOL    HW114672   3.075   4.174   4.046
 4664SOL    HW214673   3.025   4.317   4.048
 4665SOL     OW14674   2.161   3.923   4.971
 4665SOL    HW114675   2.124   3.957   5.052
 4665SOL    HW214676   2.141   3.830   4.972
 4666SOL     OW14677   1.913   5.046   5.008
 4666SOL    HW114678   1.939   4.982   5.075
 4666SOL    HW214679   1.949   5.129   5.039
 4667SOL     OW14680   2.587   4.355   4.783
 4667SOL    HW114681   2.661   4.339   4.724
 4667SOL    HW214682   2.559   4.444   4.762
 4668SOL     OW14683   3.596   4.683   5.576
 4668SOL    HW114684   3.549   4.624   5.517
 4668SOL    HW214685   3.536   4.696   5.649
 4669SOL     OW14686   2.164   3.786   4.348
 4669SOL    HW114687   2.147   3.878   4.370
 4669SOL    HW214688   2.172   3.742   4.433
 4670SOL     OW14689   3.479   4.098   4.091
 4670SOL    HW114690   3.504   4.034   4.157
 4670SOL    HW214691   3.455   4.176   4.142
 4671SOL     OW14692   2.889   4.483   4.685
 4671SOL    HW114693   2.887   4.501   4.779
 4671SOL    HW214694   2.863   4.392   4.677
 4672SOL     OW14695   3.716   5.214   5.310
 4672SOL    HW114696   3.714   5.288   5.249
 4672SOL    HW214697   3.785   5.237   5.372
 4673SOL     OW14698   2.215   4.640   5.532
 4673SOL    HW114699   2.297   4.659   5.578
 4673SOL    HW214700   2.239   4.578   5.464
 4674SOL     OW14701   3.392   3.997   3.852
 4674SOL    HW114702   3.327   3.933   3.880
 4674SOL    HW214703   3.426   4.034   3.933
 4675SOL     OW14704   3.155   4.551   3.756
 4675SOL    HW114705   3.197   4.465   3.759
 4675SOL    HW214706   3.186   4.590   3.674
 4676SOL     OW14707   2.920   5.078   4.552
 4676SOL    HW114708   2.925   4.993   4.508
 4676SOL    HW214709   3.006   5.117   4.538
 4677SOL     OW14710   2.171   4.533   4.672
 4677SOL    HW114711   2.264   4.554   4.664
 4677SOL    HW214712   2.169   4.444   4.705
 4678SOL     OW14713   2.194   4.249   4.736
 4678SOL    HW114714   2.158   4.161   4.720
 4678SOL    HW214715   2.270   4.255   4.679
 4679SOL     OW14716   2.996   4.099   5.406
 4679SOL    HW114717   2.949   4.155   5.468
 4679SOL    HW214718   3.084   4.137   5.401
 4680SOL     OW14719   3.023   3.927   5.193
 4680SOL    HW114720   3.012   3.988   5.265
 4680SOL    HW214721   3.062   3.980   5.123
 4681SOL     OW14722   1.868   5.042   3.915
 4681SOL    HW114723   1.778   5.059   3.887
 4681SOL    HW214724   1.866   4.954   3.952
 4682SOL     OW14725   2.847   4.516   4.951
 4682SOL    HW114726   2.902   4.493   5.026
 4682SOL    HW214727   2.760   4.480   4.973
 4683SOL     OW14728   1.898   4.267   4.841
 4683SOL    HW114729   1.979   4.254   4.791
 4683SOL    HW214730   1.926   4.272   4.932
 4684SOL     OW14731   2.053   4.243   5.450
 4684SOL    HW114732   2.111   4.207   5.383
 4684SOL    HW214733   2.009   4.316   5.407
 4685SOL     OW14734   3.238   4.664   5.382
 4685SOL    HW114735   3.259   4.757   5.381
 4685SOL    HW214736   3.235   4.638   5.290
 4686SOL     OW14737   2.678   4.294   4.083
 4686SOL    HW114738   2.683   4.219   4.025
 4686SOL    HW214739   2.604   4.345   4.051
 4687SOL     OW14740   3.504   4.325   4.911
 4687SOL    HW114741   3.494   4.266   4.986
 4687SOL    HW214742   3.591   4.305   4.876
 4688SOL     OW14743   2.069   5.277   5.469
 4688SOL    HW114744   2.056   0.030   5.547
 4688SOL    HW214745   2.081   5.188   5.501
 4689SOL     OW14746   2.561   4.175   4.984
 4689SOL    HW114747   2.509   4.101   4.953
 4689SOL    HW214748   2.558   4.238   4.913
 4690SOL     OW14749   2.327   4.217   3.912
 4690SOL    HW114750   2.385   4.289   3.932
 4690SOL    HW214751   2.241   4.257   3.900
 4691SOL     OW14752   2.008   4.863   5.195
 4691SOL    HW114753   2.010   4.811   5.275
 4691SOL    HW214754   2.025   4.800   5.125
 4692SOL     OW14755   3.190   4.770   4.947
 4692SOL    HW114756   3.213   4.708   4.878
 4692SOL    HW214757   3.118   4.821   4.910
 4693SOL     OW14758   3.171   4.581   4.031
 4693SOL    HW114759   3.096   4.549   4.080
 4693SOL    HW214760   3.148   4.567   3.939
 4694SOL     OW14761   1.955   4.986   4.745
 4694SOL    HW114762   1.933   5.003   4.837
 4694SOL    HW214763   1.875   4.947   4.709
 4695SOL     OW14764   2.613   0.040   5.433
 4695SOL    HW114765   2.520   0.062   5.444
 4695SOL    HW214766   2.632   0.063   5.342
 4696SOL     OW14767   3.580   3.867   4.234
 4696SOL    HW114768   3.654   3.855   4.174
 4696SOL    HW214769   3.568   3.782   4.275
 4697SOL     OW14770   3.139   4.649   4.396
 4697SOL    HW114771   3.212   4.588   4.402
 4697SOL    HW214772   3.173   4.721   4.343
 4698SOL     OW14773   2.682   4.993   5.147
 4698SOL    HW114774   2.653   5.030   5.231
 4698SOL    HW214775   2.606   5.005   5.089
 4699SOL     OW14776   3.703   3.897   4.692
 4699SOL    HW114777   3.732   3.811   4.663
 4699SOL    HW214778   3.617   3.908   4.651
 4700SOL     OW14779   2.125   4.039   4.441
 4700SOL    HW114780   2.040   4.075   4.416
 4700SOL    HW214781   2.121   4.032   4.537
 4701SOL     OW14782   2.687   4.728   5.094
 4701SOL    HW114783   2.732   4.723   5.010
 4701SOL    HW214784   2.690   4.821   5.118
 4702SOL     OW14785   2.778   4.636   4.015
 4702SOL    HW114786   2.839   4.668   3.948
 4702SOL    HW214787   2.825   4.565   4.058
 4703SOL     OW14788   2.228   5.025   5.220
 4703SOL    HW114789   2.217   5.100   5.161
 4703SOL    HW214790   2.152   4.969   5.203
 4704SOL     OW14791   3.474   5.004   5.006
 4704SOL    HW114792   3.532   4.999   5.083
 4704SOL    HW214793   3.412   5.074   5.028
 4705SOL     OW14794   2.914   4.833   4.435
 4705SOL    HW114795   2.842   4.781   4.471
 4705SOL    HW214796   2.975   4.768   4.400
 4706SOL     OW14797   2.882   3.967   4.688
 4706SOL    HW114798   2.876   3.920   4.605
 4706SOL    HW214799   2.870   3.899   4.755
 4707SOL     OW14800   3.583   4.116   5.105
 4707SOL    HW114801   3.654   4.179   5.103
 4707SOL    HW214802   3.613   4.044   5.048
 4708SOL     OW14803   2.120   5.054   4.006
 4708SOL    HW114804   2.028   5.056   3.979
 4708SOL    HW214805   2.121   5.096   4.092
 4709SOL     OW14806   1.974   4.744   5.442
 4709SOL    HW114807   1.898   4.721   5.496
 4709SOL    HW214808   2.049   4.708   5.490
 4710SOL     OW14809   2.535   3.921   5.224
 4710SOL    HW114810   2.619   3.902   5.182
 4710SOL    HW214811   2.558   3.952   5.312
 4711SOL     OW14812   1.938   4.061   3.761
 4711SOL    HW114813   1.853   4.038   3.726
 4711SOL    HW214814   1.968   4.135   3.708
 4712SOL     OW14815   3.292   4.582   5.124
 4712SOL    HW114816   3.244   4.642   5.069
 4712SOL    HW214817   3.382   4.584   5.091
 4713SOL     OW14818   1.932   3.882   4.035
 4713SOL    HW114819   1.918   3.961   3.982
 4713SOL    HW214820   2.015   3.847   4.004
 4714SOL     OW14821   3.044   5.065   3.844
 4714SOL    HW114822   2.953   5.035   3.844
 4714SOL    HW214823   3.072   5.057   3.935
 4715SOL     OW14824   2.481   4.555   5.157
 4715SOL    HW114825   2.537   4.631   5.142
 4715SOL    HW214826   2.542   4.481   5.166
 4716SOL     OW14827   2.579   4.289   5.429
 4716SOL    HW114828   2.618   4.352   5.489
 4716SOL    HW214829   2.610   4.204   5.461
 4717SOL     OW14830   3.334   4.924   5.356
 4717SOL    HW114831   3.321   4.936   5.450
 4717SOL    HW214832   3.428   4.937   5.343
 4718SOL     OW14833   3.532   4.606   4.979
 4718SOL    HW114834   3.525   4.520   4.936
 4718SOL    HW214835   3.523   4.669   4.908
 4719SOL     OW14836   3.079   4.044   4.182
 4719SOL    HW114837   3.145   3.975   4.171
 4719SOL    HW214838   3.108   4.093   4.259
 4720SOL     OW14839   2.452   4.463   4.394
 4720SOL    HW114840   2.491   4.549   4.377
 4720SOL    HW214841   2.384   4.455   4.327
 4721SOL     OW14842   3.626   4.085   5.374
 4721SOL    HW114843   3.608   4.100   5.281
 4721SOL    HW214844   3.554   4.029   5.403
 4722SOL     OW14845   3.606   4.657   5.236
 4722SOL    HW114846   3.604   4.752   5.250
 4722SOL    HW214847   3.591   4.646   5.142
 4723SOL     OW14848   2.711   5.095   3.743
 4723SOL    HW114849   2.691   5.096   3.837
 4723SOL    HW214850   2.730   5.186   3.721
 4724SOL     OW14851   2.729   4.691   4.580
 4724SOL    HW114852   2.779   4.620   4.620
 4724SOL    HW214853   2.695   4.741   4.654
 4725SOL     OW14854   2.943   4.714   3.813
 4725SOL    HW114855   2.920   4.763   3.735
 4725SOL    HW214856   3.017   4.659   3.787
 4726SOL     OW14857   2.086   5.025   5.577
 4726SOL    HW114858   2.017   4.963   5.552
 4726SOL    HW214859   2.074   5.037   5.671
 4727SOL     OW14860   1.947   4.956   4.394
 4727SOL    HW114861   1.946   4.903   4.473
 4727SOL    HW214862   2.011   4.914   4.337
 4728SOL     OW14863   2.531   5.109   5.332
 4728SOL    HW114864   2.456   5.073   5.380
 4728SOL    HW214865   2.562   5.182   5.386
 4729SOL     OW14866   3.672   3.908   4.962
 4729SOL    HW114867   3.689   3.815   4.977
 4729SOL    HW214868   3.683   3.919   4.868
 4730SOL     OW14869   2.292   4.157   4.249
 4730SOL    HW114870   2.322   4.087   4.192
 4730SOL    HW214871   2.244   4.112   4.319
 4731SOL     OW14872   3.569   5.223   4.843
 4731SOL    HW114873   3.495   5.206   4.784
 4731SOL    HW214874   3.576   5.143   4.896
 4732SOL     OW14875   2.191   4.278   5.015
 4732SOL    HW114876   2.247   4.223   5.070
 4732SOL    HW214877   2.211   4.251   4.926
 4733SOL     OW14878   3.291   3.946   4.841
 4733SOL    HW114879   3.328   3.873   4.890
 4733SOL    HW214880   3.241   3.996   4.906
 4734SOL     OW14881   2.861   3.749   4.868
 4734SOL    HW114882   2.813   3.680   4.823
 4734SOL    HW214883   2.950   3.715   4.876
 4735SOL     OW14884   2.664   5.048   4.008
 4735SOL    HW114885   2.602   4.977   4.026
 4735SOL    HW214886   2.719   5.051   4.086
 4736SOL     OW14887   2.483   5.299   5.014
 4736SOL    HW114888   2.491   0.054   5.091
 4736SOL    HW214889   2.574   5.279   4.989
 4737SOL     OW14890   3.215   3.780   3.891
 4737SOL    HW114891   3.239   3.731   3.813
 4737SOL    HW214892   3.131   3.743   3.918
 4738SOL     OW14893   3.159   4.185   4.406
 4738SOL    HW114894   3.105   4.264   4.413
 4738SOL    HW214895   3.155   4.146   4.493
 4739SOL     OW14896   3.450   3.927   4.602
 4739SOL    HW114897   3.384   3.946   4.669
 4739SOL    HW214898   3.450   4.005   4.546
 4740SOL     OW14899   1.904   4.795   4.031
 4740SOL    HW114900   1.998   4.788   4.013
 4740SOL    HW214901   1.877   4.706   4.053
 4741SOL     OW14902   2.092   4.347   5.708
 4741SOL    HW114903   2.002   4.347   5.742
 4741SOL    HW214904   2.083   4.321   5.617
 4742SOL     OW14905   2.087   4.005   6.577
 4742SOL    HW114906   2.115   3.971   6.662
 4742SOL    HW214907   1.997   3.972   6.568
 4743SOL     OW14908   1.867   4.106   6.224
 4743SOL    HW114909   1.784   4.131   6.265
 4743SOL    HW214910   1.846   4.027   6.175
 4744SOL     OW14911   2.428   5.004   6.763
 4744SOL    HW114912   2.343   5.002   6.720
 4744SOL    HW214913   2.439   5.095   6.791
 4745SOL     OW14914   3.417   5.232   6.275
 4745SOL    HW114915   3.395   5.229   6.368
 4745SOL    HW214916   3.338   5.267   6.233
 4746SOL     OW14917   2.991   4.422   6.288
 4746SOL    HW114918   3.041   4.503   6.274
 4746SOL    HW214919   2.945   4.437   6.370
 4747SOL     OW14920   3.628   4.330   5.815
 4747SOL    HW114921   3.608   4.322   5.722
 4747SOL    HW214922   3.593   4.250   5.855
 4748SOL     OW14923   2.620   4.869   6.623
 4748SOL    HW114924   2.551   4.900   6.683
 4748SOL    HW214925   2.649   4.948   6.578
 4749SOL     OW14926   2.727   4.503   7.406
 4749SOL    HW114927   2.711   4.577   7.464
 4749SOL    HW214928   2.752   4.542   7.323
 4750SOL     OW14929   2.548   4.728   6.234
 4750SOL    HW114930   2.613   4.716   6.304
 4750SOL    HW214931   2.479   4.780   6.275
 4751SOL     OW14932   2.570   4.873   7.396
 4751SOL    HW114933   2.618   4.953   7.420
 4751SOL    HW214934   2.487   4.905   7.362
 4752SOL     OW14935   2.199   5.153   6.647
 4752SOL    HW114936   2.122   5.109   6.610
 4752SOL    HW214937   2.240   5.197   6.572
 4753SOL     OW14938   3.317   5.220   6.933
 4753SOL    HW114939   3.371   5.293   6.964
 4753SOL    HW214940   3.251   5.208   7.000
 4754SOL     OW14941   2.310   4.123   7.075
 4754SOL    HW114942   2.386   4.064   7.080
 4754SOL    HW214943   2.234   4.066   7.087
 4755SOL     OW14944   3.474   4.172   6.326
 4755SOL    HW114945   3.399   4.197   6.272
 4755SOL    HW214946   3.492   4.250   6.379
 4756SOL     OW14947   2.995   5.071   7.284
 4756SOL    HW114948   3.028   5.070   7.374
 4756SOL    HW214949   2.941   4.992   7.278
 4757SOL     OW14950   2.072   5.155   6.106
 4757SOL    HW114951   2.097   5.238   6.146
 4757SOL    HW214952   2.020   5.111   6.173
 4758SOL     OW14953   2.119   4.811   6.478
 4758SOL    HW114954   2.116   4.724   6.517
 4758SOL    HW214955   2.061   4.864   6.532
 4759SOL     OW14956   2.449   4.705   5.719
 4759SOL    HW114957   2.494   4.754   5.651
 4759SOL    HW214958   2.488   4.734   5.801
 4760SOL     OW14959   3.458   3.847   7.054
 4760SOL    HW114960   3.462   3.927   7.003
 4760SOL    HW214961   3.445   3.876   7.144
 4761SOL     OW14962   1.977   4.376   6.145
 4761SOL    HW114963   1.947   4.287   6.166
 4761SOL    HW214964   1.968   4.424   6.228
 4762SOL     OW14965   1.848   0.014   5.685
 4762SOL    HW114966   1.865   5.225   5.715
 4762SOL    HW214967   1.871   0.069   5.760
 4763SOL     OW14968   3.550   4.642   6.225
 4763SOL    HW114969   3.635   4.601   6.206
 4763SOL    HW214970   3.530   4.693   6.147
 4764SOL     OW14971   3.507   4.831   6.016
 4764SOL    HW114972   3.592   4.837   5.972
 4764SOL    HW214973   3.513   4.892   6.089
 4765SOL     OW14974   1.985   4.466   7.172
 4765SOL    HW114975   2.077   4.490   7.182
 4765SOL    HW214976   1.937   4.548   7.180
 4766SOL     OW14977   2.484   5.097   6.322
 4766SOL    HW114978   2.429   5.018   6.321
 4766SOL    HW214979   2.464   5.140   6.238
 4767SOL     OW14980   3.151   4.955   7.012
 4767SOL    HW114981   3.186   4.890   6.951
 4767SOL    HW214982   3.210   4.952   7.087
 4768SOL     OW14983   2.675   3.723   6.090
 4768SOL    HW114984   2.716   3.808   6.075
 4768SOL    HW214985   2.582   3.743   6.102
 4769SOL     OW14986   2.053   4.691   6.855
 4769SOL    HW114987   2.137   4.648   6.841
 4769SOL    HW214988   1.989   4.635   6.810
 4770SOL     OW14989   3.393   4.718   5.783
 4770SOL    HW114990   3.323   4.660   5.814
 4770SOL    HW214991   3.434   4.752   5.862
 4771SOL     OW14992   2.193   3.974   7.396
 4771SOL    HW114993   2.239   4.056   7.410
 4771SOL    HW214994   2.105   3.990   7.428
 4772SOL     OW14995   3.337   5.146   6.548
 4772SOL    HW114996   3.265   5.159   6.609
 4772SOL    HW214997   3.325   5.058   6.514
 4773SOL     OW14998   2.458   4.446   5.851
 4773SOL    HW114999   2.465   4.527   5.801
 4773SOL    HW215000   2.393   4.465   5.919
 4774SOL     OW15001   3.141   4.075   6.518
 4774SOL    HW115002   3.052   4.042   6.527
 4774SOL    HW215003   3.192   4.022   6.580
 4775SOL     OW15004   2.654   4.342   7.038
 4775SOL    HW115005   2.628   4.318   7.127
 4775SOL    HW215006   2.613   4.275   6.983
 4776SOL     OW15007   3.256   4.198   7.263
 4776SOL    HW115008   3.258   4.242   7.348
 4776SOL    HW215009   3.317   4.125   7.273
 4777SOL     OW15010   2.818   4.612   7.168
 4777SOL    HW115011   2.872   4.542   7.133
 4777SOL    HW215012   2.770   4.645   7.092
 4778SOL     OW15013   2.855   4.138   6.825
 4778SOL    HW115014   2.770   4.159   6.864
 4778SOL    HW215015   2.833   4.089   6.745
 4779SOL     OW15016   2.913   4.422   6.012
 4779SOL    HW115017   2.928   4.416   6.107
 4779SOL    HW215018   2.830   4.376   5.998
 4780SOL     OW15019   1.950   4.545   6.362
 4780SOL    HW115020   2.031   4.537   6.412
 4780SOL    HW215021   1.907   4.622   6.397
 4781SOL     OW15022   2.752   4.072   5.779
 4781SOL    HW115023   2.794   4.134   5.720
 4781SOL    HW215024   2.772   3.986   5.742
 4782SOL     OW15025   3.572   4.301   7.415
 4782SOL    HW115026   3.534   4.375   7.368
 4782SOL    HW215027   3.598   4.239   7.346
 4783SOL     OW15028   3.238   4.864   6.126
 4783SOL    HW115029   3.319   4.850   6.077
 4783SOL    HW215030   3.188   4.925   6.072
 4784SOL     OW15031   2.412   3.907   6.478
 4784SOL    HW115032   2.414   3.935   6.570
 4784SOL    HW215033   2.413   3.989   6.429
 4785SOL     OW15034   2.884   5.171   6.055
 4785SOL    HW115035   2.805   5.225   6.048
 4785SOL    HW215036   2.898   5.162   6.149
 4786SOL     OW15037   3.662   4.781   6.452
 4786SOL    HW115038   3.604   4.765   6.377
 4786SOL    HW215039   3.602   4.788   6.527
 4787SOL     OW15040   3.112   5.239   7.109
 4787SOL    HW115041   3.075   5.173   7.167
 4787SOL    HW215042   3.041   5.259   7.047
 4788SOL     OW15043   2.183   4.680   5.836
 4788SOL    HW115044   2.265   4.700   5.790
 4788SOL    HW215045   2.152   4.599   5.795
 4789SOL     OW15046   3.339   4.465   6.314
 4789SOL    HW115047   3.330   4.421   6.398
 4789SOL    HW215048   3.417   4.520   6.323
 4790SOL     OW15049   2.326   4.987   7.327
 4790SOL    HW115050   2.298   4.990   7.235
 4790SOL    HW215051   2.243   4.986   7.376
 4791SOL     OW15052   2.937   0.182   5.794
 4791SOL    HW115053   2.937   0.107   5.852
 4791SOL    HW215054   2.968   0.148   5.710
 4792SOL     OW15055   2.062   4.006   7.087
 4792SOL    HW115056   1.980   4.054   7.081
 4792SOL    HW215057   2.046   3.937   7.151
 4793SOL     OW15058   3.486   5.099   5.692
 4793SOL    HW115059   3.480   5.178   5.638
 4793SOL    HW215060   3.416   5.042   5.658
 4794SOL     OW15061   3.263   3.832   6.018
 4794SOL    HW115062   3.253   3.807   5.926
 4794SOL    HW215063   3.358   3.839   6.031
 4795SOL     OW15064   2.254   4.419   6.063
 4795SOL    HW115065   2.275   4.327   6.074
 4795SOL    HW215066   2.160   4.424   6.081
 4796SOL     OW15067   3.398   3.949   7.312
 4796SOL    HW115068   3.407   3.970   7.404
 4796SOL    HW215069   3.330   3.882   7.309
 4797SOL     OW15070   2.493   3.847   5.693
 4797SOL    HW115071   2.567   3.786   5.703
 4797SOL    HW215072   2.447   3.815   5.616
 4798SOL     OW15073   2.628   4.000   7.339
 4798SOL    HW115074   2.704   3.941   7.342
 4798SOL    HW215075   2.584   3.987   7.423
 4799SOL     OW15076   3.203   4.313   7.018
 4799SOL    HW115077   3.234   4.281   7.103
 4799SOL    HW215078   3.239   4.401   7.010
 4800SOL     OW15079   2.674   5.121   6.520
 4800SOL    HW115080   2.754   5.106   6.471
 4800SOL    HW215081   2.605   5.126   6.453
 4801SOL     OW15082   2.789   4.233   6.489
 4801SOL    HW115083   2.766   4.225   6.397
 4801SOL    HW215084   2.821   4.147   6.514
 4802SOL     OW15085   2.410   3.786   6.089
 4802SOL    HW115086   2.330   3.788   6.141
 4802SOL    HW215087   2.404   3.866   6.035
 4803SOL     OW15088   3.289   4.923   5.625
 4803SOL    HW115089   3.321   4.848   5.675
 4803SOL    HW215090   3.202   4.941   5.659
 4804SOL     OW15091   2.155   3.771   5.770
 4804SOL    HW115092   2.214   3.837   5.733
 4804SOL    HW215093   2.213   3.708   5.812
 4805SOL     OW15094   2.799   3.969   6.047
 4805SOL    HW115095   2.772   4.012   5.966
 4805SOL    HW215096   2.894   3.983   6.051
 4806SOL     OW15097   2.942   4.404   7.046
 4806SOL    HW115098   2.873   4.338   7.051
 4806SOL    HW215099   3.023   4.354   7.039
 4807SOL     OW15100   3.126   5.267   6.365
 4807SOL    HW115101   3.087   0.050   6.336
 4807SOL    HW215102   3.169   5.290   6.448
 4808SOL     OW15103   2.327   4.871   6.318
 4808SOL    HW115104   2.258   4.852   6.381
 4808SOL    HW215105   2.288   4.853   6.233
 4809SOL     OW15106   2.886   4.267   5.608
 4809SOL    HW115107   2.844   4.350   5.587
 4809SOL    HW215108   2.951   4.288   5.674
 4810SOL     OW15109   1.940   4.279   6.978
 4810SOL    HW115110   2.032   4.277   6.951
 4810SOL    HW215111   1.936   4.349   7.043
 4811SOL     OW15112   2.422   3.951   6.751
 4811SOL    HW115113   2.463   3.873   6.790
 4811SOL    HW215114   2.331   3.947   6.781
 4812SOL     OW15115   2.730   4.183   6.226
 4812SOL    HW115116   2.684   4.238   6.162
 4812SOL    HW215117   2.750   4.102   6.179
 4813SOL     OW15118   2.878   3.777   6.338
 4813SOL    HW115119   2.819   3.770   6.263
 4813SOL    HW215120   2.856   3.702   6.393
 4814SOL     OW15121   3.298   4.890   6.445
 4814SOL    HW115122   3.233   4.820   6.441
 4814SOL    HW215123   3.324   4.904   6.354
 4815SOL     OW15124   3.329   4.328   6.564
 4815SOL    HW115125   3.279   4.246   6.568
 4815SOL    HW215126   3.389   4.323   6.639
 4816SOL     OW15127   3.708   4.541   5.968
 4816SOL    HW115128   3.764   4.489   6.026
 4816SOL    HW215129   3.679   4.478   5.901
 4817SOL     OW15130   2.344   5.145   5.742
 4817SOL    HW115131   2.281   5.094   5.792
 4817SOL    HW215132   2.342   5.106   5.654
 4818SOL     OW15133   3.531   4.987   6.234
 4818SOL    HW115134   3.625   4.994   6.250
 4818SOL    HW215135   3.497   5.075   6.250
 4819SOL     OW15136   3.256   4.296   5.657
 4819SOL    HW115137   3.195   4.276   5.729
 4819SOL    HW215138   3.341   4.264   5.688
 4820SOL     OW15139   2.387   3.987   5.906
 4820SOL    HW115140   2.430   3.939   5.835
 4820SOL    HW215141   2.366   4.072   5.867
 4821SOL     OW15142   3.613   4.959   7.163
 4821SOL    HW115143   3.700   4.918   7.162
 4821SOL    HW215144   3.631   5.052   7.177
 4822SOL     OW15145   2.927   5.074   6.917
 4822SOL    HW115146   2.849   5.049   6.966
 4822SOL    HW215147   2.999   5.035   6.965
 4823SOL     OW15148   2.987   4.925   6.694
 4823SOL    HW115149   2.937   4.966   6.764
 4823SOL    HW215150   2.943   4.952   6.613
 4824SOL     OW15151   3.492   4.823   6.663
 4824SOL    HW115152   3.487   4.884   6.736
 4824SOL    HW215153   3.413   4.841   6.612
 4825SOL     OW15154   2.780   3.822   6.983
 4825SOL    HW115155   2.803   3.803   6.892
 4825SOL    HW215156   2.859   3.861   7.020
 4826SOL     OW15157   2.846   4.838   7.312
 4826SOL    HW115158   2.754   4.854   7.328
 4826SOL    HW215159   2.847   4.762   7.254
 4827SOL     OW15160   2.566   4.782   5.958
 4827SOL    HW115161   2.555   4.767   6.052
 4827SOL    HW215162   2.644   4.731   5.935
 4828SOL     OW15163   2.280   4.538   6.837
 4828SOL    HW115164   2.349   4.548   6.903
 4828SOL    HW215165   2.245   4.450   6.852
 4829SOL     OW15166   3.128   4.102   6.860
 4829SOL    HW115167   3.161   4.179   6.906
 4829SOL    HW215168   3.038   4.124   6.837
 4830SOL     OW15169   2.211   4.831   6.076
 4830SOL    HW115170   2.214   4.905   6.014
 4830SOL    HW215171   2.210   4.753   6.020
 4831SOL     OW15172   2.416   4.261   6.446
 4831SOL    HW115173   2.431   4.319   6.372
 4831SOL    HW215174   2.480   4.288   6.512
 4832SOL     OW15175   3.121   5.076   5.972
 4832SOL    HW115176   3.177   5.144   6.009
 4832SOL    HW215177   3.033   5.099   6.001
 4833SOL     OW15178   3.131   5.181   6.728
 4833SOL    HW115179   3.190   5.195   6.802
 4833SOL    HW215180   3.086   5.098   6.748
 4834SOL     OW15181   3.444   4.347   6.064
 4834SOL    HW115182   3.398   4.402   6.128
 4834SOL    HW215183   3.490   4.410   6.007
 4835SOL     OW15184   2.210   5.236   6.902
 4835SOL    HW115185   2.199   5.201   6.813
 4835SOL    HW215186   2.303   5.257   6.907
 4836SOL     OW15187   2.276   4.469   7.188
 4836SOL    HW115188   2.337   4.514   7.130
 4836SOL    HW215189   2.315   4.383   7.203
 4837SOL     OW15190   3.462   4.502   7.267
 4837SOL    HW115191   3.376   4.543   7.260
 4837SOL    HW215192   3.514   4.544   7.199
 4838SOL     OW15193   2.858   3.846   7.341
 4838SOL    HW115194   2.913   3.918   7.311
 4838SOL    HW215195   2.906   3.767   7.316
 4839SOL     OW15196   2.360   3.766   7.333
 4839SOL    HW115197   2.318   3.711   7.267
 4839SOL    HW215198   2.301   3.839   7.344
 4840SOL     OW15199   2.445   4.596   6.617
 4840SOL    HW115200   2.475   4.687   6.615
 4840SOL    HW215201   2.388   4.591   6.694
 4841SOL     OW15202   3.221   4.582   6.616
 4841SOL    HW115203   3.138   4.573   6.569
 4841SOL    HW215204   3.260   4.495   6.612
 4842SOL     OW15205   3.067   4.252   5.854
 4842SOL    HW115206   3.076   4.174   5.908
 4842SOL    HW215207   3.025   4.317   5.910
 4843SOL     OW15208   2.161   3.923   6.832
 4843SOL    HW115209   2.125   3.956   6.914
 4843SOL    HW215210   2.142   3.829   6.833
 4844SOL     OW15211   1.913   5.046   6.870
 4844SOL    HW115212   1.939   4.982   6.937
 4844SOL    HW215213   1.949   5.129   6.901
 4845SOL     OW15214   2.586   4.355   6.644
 4845SOL    HW115215   2.661   4.338   6.587
 4845SOL    HW215216   2.559   4.444   6.623
 4846SOL     OW15217   3.597   4.684   7.437
 4846SOL    HW115218   3.549   4.624   7.380
 4846SOL    HW215219   3.539   4.697   7.512
 4847SOL     OW15220   2.164   3.789   6.209
 4847SOL    HW115221   2.146   3.880   6.233
 4847SOL    HW215222   2.172   3.743   6.293
 4848SOL     OW15223   3.477   4.097   5.954
 4848SOL    HW115224   3.505   4.034   6.020
 4848SOL    HW215225   3.454   4.176   6.004
 4849SOL     OW15226   2.889   4.483   6.547
 4849SOL    HW115227   2.887   4.501   6.641
 4849SOL    HW215228   2.863   4.392   6.540
 4850SOL     OW15229   3.716   5.214   7.171
 4850SOL    HW115230   3.713   5.288   7.110
 4850SOL    HW215231   3.786   5.237   7.233
 4851SOL     OW15232   2.216   4.639   7.395
 4851SOL    HW115233   2.298   4.658   7.439
 4851SOL    HW215234   2.239   4.577   7.326
 4852SOL     OW15235   3.392   3.997   5.713
 4852SOL    HW115236   3.327   3.932   5.740
 4852SOL    HW215237   3.425   4.033   5.796
 4853SOL     OW15238   3.155   4.550   5.617
 4853SOL    HW115239   3.198   4.465   5.621
 4853SOL    HW215240   3.186   4.590   5.536
 4854SOL     OW15241   2.920   5.077   6.414
 4854SOL    HW115242   2.925   4.993   6.370
 4854SOL    HW215243   3.006   5.117   6.400
 4855SOL     OW15244   2.171   4.533   6.534
 4855SOL    HW115245   2.264   4.554   6.527
 4855SOL    HW215246   2.169   4.444   6.567
 4856SOL     OW15247   2.194   4.249   6.598
 4856SOL    HW115248   2.159   4.162   6.583
 4856SOL    HW215249   2.270   4.255   6.540
 4857SOL     OW15250   2.997   4.101   7.266
 4857SOL    HW115251   2.950   4.156   7.329
 4857SOL    HW215252   3.085   4.139   7.262
 4858SOL     OW15253   3.022   3.927   7.055
 4858SOL    HW115254   3.012   3.990   7.127
 4858SOL    HW215255   3.062   3.979   6.984
 4859SOL     OW15256   1.868   5.042   5.777
 4859SOL    HW115257   1.778   5.059   5.749
 4859SOL    HW215258   1.866   4.954   5.814
 4860SOL     OW15259   2.846   4.517   6.813
 4860SOL    HW115260   2.902   4.493   6.888
 4860SOL    HW215261   2.761   4.479   6.834
 4861SOL     OW15262   1.898   4.269   6.702
 4861SOL    HW115263   1.978   4.253   6.653
 4861SOL    HW215264   1.926   4.272   6.794
 4862SOL     OW15265   2.054   4.243   7.313
 4862SOL    HW115266   2.110   4.204   7.245
 4862SOL    HW215267   2.010   4.315   7.269
 4863SOL     OW15268   3.238   4.664   7.245
 4863SOL    HW115269   3.259   4.757   7.243
 4863SOL    HW215270   3.235   4.638   7.153
 4864SOL     OW15271   2.678   4.293   5.944
 4864SOL    HW115272   2.680   4.218   5.884
 4864SOL    HW215273   2.604   4.345   5.914
 4865SOL     OW15274   3.504   4.325   6.773
 4865SOL    HW115275   3.494   4.266   6.847
 4865SOL    HW215276   3.591   4.305   6.739
 4866SOL     OW15277   2.070   5.276   7.329
 4866SOL    HW115278   2.043   0.027   7.405
 4866SOL    HW215279   2.082   5.187   7.363
 4867SOL     OW15280   2.560   4.176   6.847
 4867SOL    HW115281   2.509   4.101   6.816
 4867SOL    HW215282   2.558   4.238   6.774
 4868SOL     OW15283   2.327   4.216   5.773
 4868SOL    HW115284   2.385   4.290   5.795
 4868SOL    HW215285   2.241   4.257   5.761
 4869SOL     OW15286   2.008   4.863   7.057
 4869SOL    HW115287   2.010   4.811   7.137
 4869SOL    HW215288   2.025   4.800   6.987
 4870SOL     OW15289   3.190   4.770   6.809
 4870SOL    HW115290   3.213   4.708   6.740
 4870SOL    HW215291   3.118   4.821   6.772
 4871SOL     OW15292   3.172   4.581   5.892
 4871SOL    HW115293   3.096   4.550   5.942
 4871SOL    HW215294   3.148   4.567   5.801
 4872SOL     OW15295   1.954   4.986   6.607
 4872SOL    HW115296   1.933   5.003   6.699
 4872SOL    HW215297   1.875   4.947   6.571
 4873SOL     OW15298   2.613   0.038   7.296
 4873SOL    HW115299   2.521   0.061   7.307
 4873SOL    HW215300   2.634   0.063   7.206
 4874SOL     OW15301   3.580   3.869   6.096
 4874SOL    HW115302   3.654   3.855   6.036
 4874SOL    HW215303   3.565   3.784   6.136
 4875SOL     OW15304   3.139   4.649   6.257
 4875SOL    HW115305   3.212   4.588   6.264
 4875SOL    HW215306   3.173   4.721   6.205
 4876SOL     OW15307   2.682   4.994   7.009
 4876SOL    HW115308   2.653   5.030   7.093
 4876SOL    HW215309   2.607   5.005   6.951
 4877SOL     OW15310   3.702   3.897   6.553
 4877SOL    HW115311   3.731   3.810   6.525
 4877SOL    HW215312   3.616   3.907   6.513
 4878SOL     OW15313   2.125   4.040   6.303
 4878SOL    HW115314   2.039   4.076   6.279
 4878SOL    HW215315   2.121   4.032   6.399
 4879SOL     OW15316   2.686   4.728   6.957
 4879SOL    HW115317   2.733   4.722   6.873
 4879SOL    HW215318   2.690   4.821   6.979
 4880SOL     OW15319   2.778   4.635   5.876
 4880SOL    HW115320   2.839   4.667   5.810
 4880SOL    HW215321   2.826   4.565   5.921
 4881SOL     OW15322   2.228   5.025   7.083
 4881SOL    HW115323   2.217   5.100   7.023
 4881SOL    HW215324   2.152   4.969   7.065
 4882SOL     OW15325   3.474   5.004   6.868
 4882SOL    HW115326   3.531   4.998   6.945
 4882SOL    HW215327   3.412   5.074   6.890
 4883SOL     OW15328   2.914   4.833   6.296
 4883SOL    HW115329   2.842   4.781   6.333
 4883SOL    HW215330   2.976   4.767   6.262
 4884SOL     OW15331   2.882   3.964   6.552
 4884SOL    HW115332   2.878   3.916   6.469
 4884SOL    HW215333   2.877   3.896   6.619
 4885SOL     OW15334   3.583   4.116   6.967
 4885SOL    HW115335   3.655   4.179   6.965
 4885SOL    HW215336   3.613   4.045   6.911
 4886SOL     OW15337   2.120   5.054   5.868
 4886SOL    HW115338   2.028   5.056   5.841
 4886SOL    HW215339   2.121   5.096   5.954
 4887SOL     OW15340   1.975   4.745   7.305
 4887SOL    HW115341   1.898   4.722   7.357
 4887SOL    HW215342   2.049   4.707   7.352
 4888SOL     OW15343   2.535   3.921   7.085
 4888SOL    HW115344   2.619   3.901   7.043
 4888SOL    HW215345   2.558   3.950   7.173
 4889SOL     OW15346   1.940   4.058   5.621
 4889SOL    HW115347   1.852   4.039   5.588
 4889SOL    HW215348   1.970   4.133   5.569
 4890SOL     OW15349   3.293   4.582   6.987
 4890SOL    HW115350   3.244   4.643   6.931
 4890SOL    HW215351   3.382   4.585   6.953
 4891SOL     OW15352   1.931   3.880   5.897
 4891SOL    HW115353   1.916   3.961   5.847
 4891SOL    HW215354   2.016   3.848   5.867
 4892SOL     OW15355   3.044   5.064   5.706
 4892SOL    HW115356   2.953   5.036   5.706
 4892SOL    HW215357   3.072   5.057   5.797
 4893SOL     OW15358   2.481   4.555   7.019
 4893SOL    HW115359   2.537   4.631   7.003
 4893SOL    HW215360   2.541   4.481   7.028
 4894SOL     OW15361   2.580   4.288   7.291
 4894SOL    HW115362   2.618   4.350   7.353
 4894SOL    HW215363   2.609   4.202   7.322
 4895SOL     OW15364   3.334   4.924   7.218
 4895SOL    HW115365   3.321   4.936   7.312
 4895SOL    HW215366   3.428   4.937   7.205
 4896SOL     OW15367   3.532   4.606   6.841
 4896SOL    HW115368   3.525   4.520   6.799
 4896SOL    HW215369   3.523   4.669   6.770
 4897SOL     OW15370   3.079   4.043   6.044
 4897SOL    HW115371   3.143   3.972   6.035
 4897SOL    HW215372   3.108   4.092   6.121
 4898SOL     OW15373   2.453   4.462   6.255
 4898SOL    HW115374   2.491   4.549   6.239
 4898SOL    HW215375   2.384   4.455   6.188
 4899SOL     OW15376   3.625   4.085   7.237
 4899SOL    HW115377   3.608   4.100   7.144
 4899SOL    HW215378   3.553   4.028   7.265
 4900SOL     OW15379   3.607   4.657   7.098
 4900SOL    HW115380   3.604   4.752   7.112
 4900SOL    HW215381   3.591   4.646   7.004
 4901SOL     OW15382   2.712   5.095   5.605
 4901SOL    HW115383   2.692   5.096   5.699
 4901SOL    HW215384   2.730   5.186   5.583
 4902SOL     OW15385   2.729   4.691   6.442
 4902SOL    HW115386   2.779   4.619   6.482
 4902SOL    HW215387   2.695   4.741   6.516
 4903SOL     OW15388   2.942   4.713   5.675
 4903SOL    HW115389   2.919   4.763   5.597
 4903SOL    HW215390   3.017   4.659   5.649
 4904SOL     OW15391   2.085   5.025   7.442
 4904SOL    HW115392   2.018   4.962   7.412
 4904SOL    HW215393   2.065   5.038   7.535
 4905SOL     OW15394   1.947   4.956   6.256
 4905SOL    HW115395   1.946   4.903   6.335
 4905SOL    HW215396   2.011   4.914   6.199
 4906SOL     OW15397   2.531   5.108   7.194
 4906SOL    HW115398   2.456   5.074   7.243
 4906SOL    HW215399   2.562   5.181   7.247
 4907SOL     OW15400   3.675   3.909   6.824
 4907SOL    HW115401   3.685   3.815   6.839
 4907SOL    HW215402   3.684   3.919   6.729
 4908SOL     OW15403   2.291   4.158   6.111
 4908SOL    HW115404   2.321   4.087   6.054
 4908SOL    HW215405   2.244   4.114   6.182
 4909SOL     OW15406   3.569   5.223   6.705
 4909SOL    HW115407   3.495   5.207   6.646
 4909SOL    HW215408   3.576   5.143   6.758
 4910SOL     OW15409   2.191   4.278   6.877
 4910SOL    HW115410   2.247   4.223   6.933
 4910SOL    HW215411   2.211   4.250   6.788
 4911SOL     OW15412   3.294   3.949   6.704
 4911SOL    HW115413   3.320   3.869   6.751
 4911SOL    HW215414   3.242   3.998   6.767
 4912SOL     OW15415   2.871   3.744   6.729
 4912SOL    HW115416   2.816   3.675   6.692
 4912SOL    HW215417   2.959   3.706   6.731
 4913SOL     OW15418   2.664   5.047   5.870
 4913SOL    HW115419   2.602   4.977   5.888
 4913SOL    HW215420   2.719   5.052   5.949
 4914SOL     OW15421   2.483   5.299   6.876
 4914SOL    HW115422   2.491   0.054   6.954
 4914SOL    HW215423   2.574   5.279   6.851
 4915SOL     OW15424   3.214   3.778   5.751
 4915SOL    HW115425   3.241   3.716   5.684
 4915SOL    HW215426   3.127   3.748   5.778
 4916SOL     OW15427   3.158   4.184   6.267
 4916SOL    HW115428   3.105   4.263   6.275
 4916SOL    HW215429   3.155   4.144   6.354
 4917SOL     OW15430   3.449   3.927   6.463
 4917SOL    HW115431   3.387   3.947   6.534
 4917SOL    HW215432   3.448   4.005   6.409
 4918SOL     OW15433   1.904   4.795   5.893
 4918SOL    HW115434   1.998   4.788   5.876
 4918SOL    HW215435   1.877   4.706   5.915
 4919SOL     OW15436   2.091   4.344   7.571
 4919SOL    HW115437   2.000   4.350   7.601
 4919SOL    HW215438   2.084   4.320   7.479
 4920SOL     OW15439   3.629   4.323   7.680
 4920SOL    HW115440   3.609   4.318   7.586
 4920SOL    HW215441   3.587   4.245   7.717
 4921SOL     OW15442   2.139   0.126   7.957
 4921SOL    HW115443   2.114   0.212   7.992
 4921SOL    HW215444   2.145   0.140   7.862
 4922SOL     OW15445   2.080   5.156   7.989
 4922SOL    HW115446   2.091   5.251   7.997
 4922SOL    HW215447   2.022   5.132   8.061
 4923SOL     OW15448   2.448   4.705   7.578
 4923SOL    HW115449   2.493   4.755   7.511
 4923SOL    HW215450   2.487   4.735   7.661
 4924SOL     OW15451   1.860   0.011   7.539
 4924SOL    HW115452   1.865   5.222   7.575
 4924SOL    HW215453   1.861   0.067   7.617
 4925SOL     OW15454   3.545   4.593   8.036
 4925SOL    HW115455   3.626   4.604   0.005
 4925SOL    HW215456   3.534   4.676   7.990
 4926SOL     OW15457   3.517   4.825   7.875
 4926SOL    HW115458   3.605   4.845   7.843
 4926SOL    HW215459   3.498   4.895   7.938
 4927SOL     OW15460   2.664   3.718   7.940
 4927SOL    HW115461   2.712   3.799   7.924
 4927SOL    HW215462   2.573   3.746   7.948
 4928SOL     OW15463   3.394   4.720   7.647
 4928SOL    HW115464   3.328   4.659   7.680
 4928SOL    HW215465   3.437   4.754   7.726
 4929SOL     OW15466   2.453   4.449   7.708
 4929SOL    HW115467   2.459   4.530   7.658
 4929SOL    HW215468   2.393   4.468   7.780
 4930SOL     OW15469   1.924   4.585   0.091
 4930SOL    HW115470   1.989   4.522   0.122
 4930SOL    HW215471   1.916   4.648   0.163
 4931SOL     OW15472   2.742   4.070   7.637
 4931SOL    HW115473   2.788   4.130   7.579
 4931SOL    HW215474   2.775   3.983   7.613
 4932SOL     OW15475   2.185   4.679   7.697
 4932SOL    HW115476   2.266   4.697   7.648
 4932SOL    HW215477   2.150   4.600   7.656
 4933SOL     OW15478   2.954   0.190   7.648
 4933SOL    HW115479   2.924   0.126   7.713
 4933SOL    HW215480   2.957   0.142   7.566
 4934SOL     OW15481   3.489   5.099   7.549
 4934SOL    HW115482   3.472   5.181   7.503
 4934SOL    HW215483   3.419   5.040   7.520
 4935SOL     OW15484   3.277   3.855   7.864
 4935SOL    HW115485   3.264   3.820   7.776
 4935SOL    HW215486   3.371   3.851   7.877
 4936SOL     OW15487   2.252   4.422   7.918
 4936SOL    HW115488   2.260   4.327   7.925
 4936SOL    HW215489   2.161   4.441   7.940
 4937SOL     OW15490   2.489   3.845   7.559
 4937SOL    HW115491   2.566   3.788   7.569
 4937SOL    HW215492   2.446   3.814   7.480
 4938SOL     OW15493   2.394   3.796   7.959
 4938SOL    HW115494   2.309   3.800   8.002
 4938SOL    HW215495   2.393   3.868   7.895
 4939SOL     OW15496   3.290   4.924   7.488
 4939SOL    HW115497   3.320   4.849   7.539
 4939SOL    HW215498   3.202   4.942   7.521
 4940SOL     OW15499   2.155   3.773   7.632
 4940SOL    HW115500   2.214   3.834   7.588
 4940SOL    HW215501   2.212   3.708   7.671
 4941SOL     OW15502   2.806   3.950   7.911
 4941SOL    HW115503   2.762   4.015   7.856
 4941SOL    HW215504   2.897   3.980   7.914
 4942SOL     OW15505   2.304   4.875   0.100
 4942SOL    HW115506   2.227   4.907   0.148
 4942SOL    HW215507   2.272   4.860   0.011
 4943SOL     OW15508   2.888   4.268   7.466
 4943SOL    HW115509   2.843   4.350   7.448
 4943SOL    HW215510   2.948   4.287   7.537
 4944SOL     OW15511   3.731   4.542   7.802
 4944SOL    HW115512   3.734   4.509   7.892
 4944SOL    HW215513   3.691   4.471   7.752
 4945SOL     OW15514   2.337   5.149   7.603
 4945SOL    HW115515   2.278   5.097   7.657
 4945SOL    HW215516   2.340   5.103   7.519
 4946SOL     OW15517   3.256   4.296   7.519
 4946SOL    HW115518   3.195   4.276   7.591
 4946SOL    HW215519   3.340   4.262   7.549
 4947SOL     OW15520   2.388   3.990   7.771
 4947SOL    HW115521   2.431   3.939   7.702
 4947SOL    HW215522   2.366   4.073   7.729
 4948SOL     OW15523   2.569   4.782   7.813
 4948SOL    HW115524   2.548   4.770   7.906
 4948SOL    HW215525   2.650   4.732   7.800
 4949SOL     OW15526   2.228   4.824   7.928
 4949SOL    HW115527   2.207   4.904   7.879
 4949SOL    HW215528   2.215   4.753   7.866
 4950SOL     OW15529   3.088   5.114   7.831
 4950SOL    HW115530   3.172   5.125   7.873
 4950SOL    HW215531   3.037   5.060   7.892
 4951SOL     OW15532   3.449   4.353   7.921
 4951SOL    HW115533   3.434   4.412   7.995
 4951SOL    HW215534   3.490   4.408   7.855
 4952SOL     OW15535   3.066   4.251   7.716
 4952SOL    HW115536   3.070   4.167   7.763
 4952SOL    HW215537   3.039   4.314   7.783
 4953SOL     OW15538   3.480   4.102   7.815
 4953SOL    HW115539   3.501   4.035   7.880
 4953SOL    HW215540   3.454   4.179   7.867
 4954SOL     OW15541   3.392   3.999   7.575
 4954SOL    HW115542   3.327   3.933   7.601
 4954SOL    HW215543   3.425   4.034   7.658
 4955SOL     OW15544   3.157   4.552   7.482
 4955SOL    HW115545   3.198   4.465   7.483
 4955SOL    HW215546   3.187   4.591   7.399
 4956SOL     OW15547   1.870   5.045   7.640
 4956SOL    HW115548   1.780   5.059   7.610
 4956SOL    HW215549   1.871   4.956   7.675
 4957SOL     OW15550   2.699   4.320   7.763
 4957SOL    HW115551   2.690   4.230   7.734
 4957SOL    HW215552   2.609   4.355   7.762
 4958SOL     OW15553   2.324   4.217   7.642
 4958SOL    HW115554   2.383   4.291   7.656
 4958SOL    HW215555   2.239   4.257   7.624
 4959SOL     OW15556   3.171   4.577   7.755
 4959SOL    HW115557   3.084   4.576   7.794
 4959SOL    HW215558   3.156   4.566   7.661
 4960SOL     OW15559   3.574   3.869   7.948
 4960SOL    HW115560   3.652   3.861   7.894
 4960SOL    HW215561   3.575   3.791   8.004
 4961SOL     OW15562   2.791   4.635   7.758
 4961SOL    HW115563   2.843   4.661   7.681
 4961SOL    HW215564   2.785   4.540   7.752
 4962SOL     OW15565   2.120   5.060   7.743
 4962SOL    HW115566   2.028   5.062   7.716
 4962SOL    HW215567   2.119   5.098   7.831
 4963SOL     OW15568   1.939   4.059   7.484
 4963SOL    HW115569   1.853   4.038   7.448
 4963SOL    HW215570   1.969   4.134   7.433
 4964SOL     OW15571   1.933   3.882   7.759
 4964SOL    HW115572   1.916   3.958   7.704
 4964SOL    HW215573   2.016   3.846   7.727
 4965SOL     OW15574   3.044   5.059   7.564
 4965SOL    HW115575   2.951   5.034   7.562
 4965SOL    HW215576   3.063   5.073   7.656
 4966SOL     OW15577   3.077   4.042   7.903
 4966SOL    HW115578   3.150   3.981   7.892
 4966SOL    HW215579   3.099   4.090   7.984
 4967SOL     OW15580   2.485   4.458   8.058
 4967SOL    HW115581   2.492   4.542   0.023
 4967SOL    HW215582   2.398   4.460   8.018
 4968SOL     OW15583   2.713   5.094   7.465
 4968SOL    HW115584   2.694   5.095   7.559
 4968SOL    HW215585   2.728   5.186   7.444
 4969SOL     OW15586   2.937   4.705   7.538
 4969SOL    HW115587   2.916   4.760   7.462
 4969SOL    HW215588   3.014   4.655   7.511
 4970SOL     OW15589   2.250   4.150   7.981
 4970SOL    HW115590   2.301   4.099   7.918
 4970SOL    HW215591   2.298   4.141   8.063
 4971SOL     OW15592   2.666   5.047   7.730
 4971SOL    HW115593   2.607   4.974   7.748
 4971SOL    HW215594   2.690   5.081   7.816
 4972SOL     OW15595   3.214   3.777   7.609
 4972SOL    HW115596   3.242   3.712   7.545
 4972SOL    HW215597   3.128   3.746   7.638
 4973SOL     OW15598   1.911   4.802   7.751
 4973SOL    HW115599   2.006   4.793   7.738
 4973SOL    HW215600   1.880   4.712   7.766
 4974SOL     OW15601   3.944   0.625   0.120
 4974SOL    HW115602   3.864   0.591   0.161
 4974SOL    HW215603   3.968   0.558   0.055
 4975SOL     OW15604   3.942   0.284   0.993
 4975SOL    HW115605   3.972   0.249   1.077
 4975SOL    HW215606   3.857   0.243   0.978
 4976SOL     OW15607   3.728   0.385   0.638
 4976SOL    HW115608   3.644   0.407   0.678
 4976SOL    HW215609   3.711   0.307   0.586
 4977SOL     OW15610   4.291   1.286   1.174
 4977SOL    HW115611   4.203   1.289   1.136
 4977SOL    HW215612   4.306   1.374   1.207
 4978SOL     OW15613   5.283   1.545   0.707
 4978SOL    HW115614   5.246   1.493   0.779
 4978SOL    HW215615   5.223   1.529   0.633
 4979SOL     OW15616   4.858   0.699   0.702
 4979SOL    HW115617   4.908   0.781   0.691
 4979SOL    HW215618   4.809   0.712   0.783
 4980SOL     OW15619   4.481   1.143   1.040
 4980SOL    HW115620   4.411   1.177   1.096
 4980SOL    HW215621   4.515   1.220   0.995
 4981SOL     OW15622   4.591   0.778   1.823
 4981SOL    HW115623   4.574   0.851   1.883
 4981SOL    HW215624   4.613   0.821   1.740
 4982SOL     OW15625   4.409   1.003   0.650
 4982SOL    HW115626   4.474   0.991   0.719
 4982SOL    HW215627   4.340   1.055   0.691
 4983SOL     OW15628   4.434   1.151   1.811
 4983SOL    HW115629   4.481   1.230   1.838
 4983SOL    HW215630   4.351   1.184   1.776
 4984SOL     OW15631   4.054   1.427   1.068
 4984SOL    HW115632   3.982   1.389   1.017
 4984SOL    HW215633   4.105   1.477   1.004
 4985SOL     OW15634   5.160   1.482   1.349
 4985SOL    HW115635   5.204   1.563   1.376
 4985SOL    HW215636   5.109   1.456   1.426
 4986SOL     OW15637   4.167   0.399   1.488
 4986SOL    HW115638   4.243   0.340   1.486
 4986SOL    HW215639   4.093   0.341   1.502
 4987SOL     OW15640   3.944   1.714   0.472
 4987SOL    HW115641   3.966   1.790   0.526
 4987SOL    HW215642   4.018   1.705   0.412
 4988SOL     OW15643   4.860   1.339   1.693
 4988SOL    HW115644   4.898   1.336   1.781
 4988SOL    HW215645   4.806   1.260   1.687
 4989SOL     OW15646   3.951   1.441   0.530
 4989SOL    HW115647   3.937   1.535   0.536
 4989SOL    HW215648   3.891   1.404   0.596
 4990SOL     OW15649   3.980   1.090   0.891
 4990SOL    HW115650   3.977   1.004   0.932
 4990SOL    HW215651   3.922   1.144   0.944
 4991SOL     OW15652   4.335   1.792   1.427
 4991SOL    HW115653   4.254   1.774   1.475
 4991SOL    HW215654   4.359   1.881   1.454
 4992SOL     OW15655   4.354   0.961   0.132
 4992SOL    HW115656   4.303   1.038   0.106
 4992SOL    HW215657   4.404   0.990   0.209
 4993SOL     OW15658   5.249   0.146   1.481
 4993SOL    HW115659   5.298   0.226   1.458
 4993SOL    HW215660   5.278   0.124   1.569
 4994SOL     OW15661   3.838   0.651   0.561
 4994SOL    HW115662   3.810   0.562   0.582
 4994SOL    HW215663   3.830   0.698   0.644
 4995SOL     OW15664   3.751   1.596   0.111
 4995SOL    HW115665   3.739   1.508   0.145
 4995SOL    HW215666   3.736   1.653   0.187
 4996SOL     OW15667   0.114   0.946   0.593
 4996SOL    HW115668   0.201   0.906   0.594
 4996SOL    HW215669   0.120   1.014   0.526
 4997SOL     OW15670   3.846   0.743   1.585
 4997SOL    HW115671   3.938   0.767   1.595
 4997SOL    HW215672   3.799   0.826   1.593
 4998SOL     OW15673   4.337   1.385   0.735
 4998SOL    HW115674   4.291   1.301   0.744
 4998SOL    HW215675   4.321   1.411   0.644
 4999SOL     OW15676   5.008   1.238   1.425
 4999SOL    HW115677   5.041   1.171   1.365
 4999SOL    HW215678   5.063   1.228   1.503
 5000SOL     OW15679   4.534   0.025   0.526
 5000SOL    HW115680   4.563   0.111   0.498
 5000SOL    HW215681   4.438   0.029   0.521
 5001SOL     OW15682   3.915   0.967   1.270
 5001SOL    HW115683   3.999   0.925   1.255
 5001SOL    HW215684   3.851   0.911   1.225
 5002SOL     OW15685   4.898   1.807   1.623
 5002SOL    HW115686   4.920   1.865   1.550
 5002SOL    HW215687   4.918   1.719   1.591
 5003SOL     OW15688   4.049   0.265   1.809
 5003SOL    HW115689   4.102   0.340   1.836
 5003SOL    HW215690   3.963   0.281   1.849
 5004SOL     OW15691   5.169   1.434   0.938
 5004SOL    HW115692   5.107   1.440   1.010
 5004SOL    HW215693   5.163   1.343   0.908
 5005SOL     OW15694   4.321   0.715   0.282
 5005SOL    HW115695   4.339   0.792   0.227
 5005SOL    HW215696   4.256   0.745   0.345
 5006SOL     OW15697   4.997   0.329   0.920
 5006SOL    HW115698   4.907   0.304   0.943
 5006SOL    HW215699   5.050   0.301   0.995
 5007SOL     OW15700   4.518   0.618   1.451
 5007SOL    HW115701   4.490   0.596   1.540
 5007SOL    HW215702   4.475   0.552   1.396
 5008SOL     OW15703   5.117   0.486   1.679
 5008SOL    HW115704   5.118   0.520   1.768
 5008SOL    HW215705   5.182   0.415   1.680
 5009SOL     OW15706   4.680   0.888   1.582
 5009SOL    HW115707   4.732   0.816   1.547
 5009SOL    HW215708   4.632   0.922   1.506
 5010SOL     OW15709   4.718   0.422   1.232
 5010SOL    HW115710   4.634   0.437   1.276
 5010SOL    HW215711   4.696   0.366   1.157
 5011SOL     OW15712   4.776   0.697   0.427
 5011SOL    HW115713   4.791   0.691   0.521
 5011SOL    HW215714   4.693   0.652   0.412
 5012SOL     OW15715   3.813   0.821   0.776
 5012SOL    HW115716   3.894   0.813   0.826
 5012SOL    HW215717   3.770   0.899   0.811
 5013SOL     OW15718   3.851   1.844   1.577
 5013SOL    HW115719   3.851   1.824   1.671
 5013SOL    HW215720   3.759   1.841   1.551
 5014SOL     OW15721   4.605   0.359   0.200
 5014SOL    HW115722   4.653   0.401   0.128
 5014SOL    HW215723   4.589   0.270   0.169
 5015SOL     OW15724   5.094   1.146   0.548
 5015SOL    HW115725   5.177   1.140   0.501
 5015SOL    HW215726   5.041   1.206   0.495
 5016SOL     OW15727   4.250   0.201   0.883
 5016SOL    HW115728   4.273   0.216   0.975
 5016SOL    HW215729   4.273   0.283   0.839
 5017SOL     OW15730   4.731   1.445   0.474
 5017SOL    HW115731   4.691   1.516   0.424
 5017SOL    HW215732   4.713   1.467   0.565
 5018SOL     OW15733   4.079   1.808   0.860
 5018SOL    HW115734   4.122   1.723   0.869
 5018SOL    HW215735   4.147   1.872   0.878
 5019SOL     OW15736   4.940   1.544   1.520
 5019SOL    HW115737   4.928   1.469   1.579
 5019SOL    HW215738   4.886   1.522   1.443
 5020SOL     OW15739   4.051   0.942   0.253
 5020SOL    HW115740   4.122   0.983   0.203
 5020SOL    HW215741   4.048   0.852   0.223
 5021SOL     OW15742   4.189   1.264   1.738
 5021SOL    HW115743   4.162   1.269   1.646
 5021SOL    HW215744   4.107   1.262   1.787
 5022SOL     OW15745   4.826   1.774   0.226
 5022SOL    HW115746   4.771   1.734   0.293
 5022SOL    HW215747   4.842   1.704   0.162
 5023SOL     OW15748   3.921   0.278   1.502
 5023SOL    HW115749   3.842   0.331   1.497
 5023SOL    HW215750   3.913   0.230   1.584
 5024SOL     OW15751   4.189   1.738   0.323
 5024SOL    HW115752   4.230   1.797   0.386
 5024SOL    HW215753   4.260   1.712   0.264
 5025SOL     OW15754   5.102   0.113   0.442
 5025SOL    HW115755   5.092   0.073   0.356
 5025SOL    HW215756   5.196   0.129   0.451
 5026SOL     OW15757   3.978   1.792   1.232
 5026SOL    HW115758   4.031   1.727   1.279
 5026SOL    HW215759   3.970   1.756   1.144
 5027SOL     OW15760   4.662   1.698   0.900
 5027SOL    HW115761   4.742   1.647   0.917
 5027SOL    HW215762   4.617   1.649   0.831
 5028SOL     OW15763   4.110   0.698   0.477
 5028SOL    HW115764   4.135   0.606   0.487
 5028SOL    HW215765   4.017   0.700   0.500
 5029SOL     OW15766   4.348   0.137   0.123
 5029SOL    HW115767   4.438   0.108   0.135
 5029SOL    HW215768   4.320   0.098   0.040
 5030SOL     OW15769   4.509   0.312   1.766
 5030SOL    HW115770   4.570   0.238   1.767
 5030SOL    HW215771   4.458   0.301   1.847
 5031SOL     OW15772   4.600   1.521   1.194
 5031SOL    HW115773   4.585   1.486   1.106
 5031SOL    HW215774   4.670   1.467   1.230
 5032SOL     OW15775   5.060   0.591   1.431
 5032SOL    HW115776   5.091   0.560   1.516
 5032SOL    HW215777   5.099   0.678   1.422
 5033SOL     OW15778   4.538   1.396   0.938
 5033SOL    HW115779   4.622   1.385   0.894
 5033SOL    HW215780   4.474   1.396   0.867
 5034SOL     OW15781   4.651   0.510   0.902
 5034SOL    HW115782   4.628   0.500   0.810
 5034SOL    HW215783   4.682   0.424   0.929
 5035SOL     OW15784   4.265   0.062   0.512
 5035SOL    HW115785   4.179   0.061   0.552
 5035SOL    HW215786   4.260   0.132   0.446
 5036SOL     OW15787   5.141   1.172   0.041
 5036SOL    HW115788   5.143   1.102   0.107
 5036SOL    HW215789   5.056   1.215   0.055
 5037SOL     OW15790   4.024   0.068   0.204
 5037SOL    HW115791   4.080   0.137   0.170
 5037SOL    HW215792   4.077   5.288   0.199
 5038SOL     OW15793   4.667   0.255   0.454
 5038SOL    HW115794   4.639   0.301   0.375
 5038SOL    HW215795   4.759   0.278   0.464
 5039SOL     OW15796   4.802   0.680   1.461
 5039SOL    HW115797   4.732   0.615   1.463
 5039SOL    HW215798   4.883   0.630   1.450
 5040SOL     OW15799   4.941   1.572   0.796
 5040SOL    HW115800   4.964   1.637   0.729
 5040SOL    HW215801   5.021   1.559   0.846
 5041SOL     OW15802   4.191   1.150   0.735
 5041SOL    HW115803   4.122   1.130   0.798
 5041SOL    HW215804   4.151   1.133   0.649
 5042SOL     OW15805   4.993   1.794   0.604
 5042SOL    HW115806   5.038   1.858   0.547
 5042SOL    HW215807   4.928   1.846   0.651
 5043SOL     OW15808   4.765   0.535   0.022
 5043SOL    HW115809   4.709   0.610   0.003
 5043SOL    HW215810   4.814   0.560   0.100
 5044SOL     OW15811   3.802   0.554   1.393
 5044SOL    HW115812   3.893   0.553   1.365
 5044SOL    HW215813   3.797   0.624   1.457
 5045SOL     OW15814   4.281   0.238   1.158
 5045SOL    HW115815   4.312   0.152   1.186
 5045SOL    HW215816   4.189   0.239   1.184
 5046SOL     OW15817   4.593   0.461   0.639
 5046SOL    HW115818   4.548   0.514   0.573
 5046SOL    HW215819   4.613   0.379   0.594
 5047SOL     OW15820   4.696   0.064   0.763
 5047SOL    HW115821   4.635   0.052   0.691
 5047SOL    HW215822   4.716   5.274   0.792
 5048SOL     OW15823   5.158   1.175   0.850
 5048SOL    HW115824   5.102   1.099   0.863
 5048SOL    HW215825   5.168   1.182   0.755
 5049SOL     OW15826   4.207   1.439   0.172
 5049SOL    HW115827   4.135   1.396   0.219
 5049SOL    HW215828   4.212   1.392   0.089
 5050SOL     OW15829   5.122   0.574   0.082
 5050SOL    HW115830   5.049   0.557   0.142
 5050SOL    HW215831   5.200   0.544   0.130
 5051SOL     OW15832   4.247   0.268   0.329
 5051SOL    HW115833   4.287   0.212   0.262
 5051SOL    HW215834   4.232   0.351   0.284
 5052SOL     OW15835   4.782   1.354   1.334
 5052SOL    HW115836   4.707   1.323   1.385
 5052SOL    HW215837   4.857   1.311   1.374
 5053SOL     OW15838   0.006   1.604   1.618
 5053SOL    HW115839   0.040   1.611   1.528
 5053SOL    HW215840   0.083   1.584   1.671
 5054SOL     OW15841   4.852   1.203   1.107
 5054SOL    HW115842   4.791   1.239   1.171
 5054SOL    HW215843   4.818   1.231   1.022
 5055SOL     OW15844   4.625   0.104   1.389
 5055SOL    HW115845   4.658   0.070   1.306
 5055SOL    HW215846   4.701   0.147   1.429
 5056SOL     OW15847   4.708   1.113   1.725
 5056SOL    HW115848   4.616   1.130   1.744
 5056SOL    HW215849   4.707   1.036   1.667
 5057SOL     OW15850   4.437   1.062   0.380
 5057SOL    HW115851   4.420   1.045   0.472
 5057SOL    HW215852   4.515   1.010   0.360
 5058SOL     OW15853   4.142   0.815   1.251
 5058SOL    HW115854   4.211   0.824   1.317
 5058SOL    HW215855   4.107   0.727   1.265
 5059SOL     OW15856   4.992   0.380   1.269
 5059SOL    HW115857   5.025   0.458   1.314
 5059SOL    HW215858   4.901   0.401   1.247
 5060SOL     OW15859   3.794   1.573   1.351
 5060SOL    HW115860   3.764   1.646   1.298
 5060SOL    HW215861   3.889   1.577   1.347
 5061SOL     OW15862   4.070   1.109   0.492
 5061SOL    HW115863   4.077   1.182   0.430
 5061SOL    HW215864   4.078   1.031   0.437
 5062SOL     OW15865   4.278   0.539   0.861
 5062SOL    HW115866   4.294   0.597   0.786
 5062SOL    HW215867   4.343   0.565   0.926
 5063SOL     OW15868   4.971   1.347   0.392
 5063SOL    HW115869   5.027   1.419   0.420
 5063SOL    HW215870   4.884   1.369   0.424
 5064SOL     OW15871   4.993   1.456   1.139
 5064SOL    HW115872   5.048   1.458   1.217
 5064SOL    HW215873   4.940   1.377   1.150
 5065SOL     OW15874   4.071   1.526   1.316
 5065SOL    HW115875   4.058   1.484   1.231
 5065SOL    HW215876   4.166   1.538   1.323
 5066SOL     OW15877   4.138   0.745   1.602
 5066SOL    HW115878   4.199   0.790   1.544
 5066SOL    HW215879   4.179   0.660   1.619
 5067SOL     OW15880   4.753   0.115   1.760
 5067SOL    HW115881   4.793   0.197   1.730
 5067SOL    HW215882   4.791   0.048   1.704
 5068SOL     OW15883   4.204   0.057   1.738
 5068SOL    HW115884   4.147   5.293   1.695
 5068SOL    HW215885   4.145   0.129   1.760
 5069SOL     OW15886   4.307   0.873   1.031
 5069SOL    HW115887   4.338   0.963   1.030
 5069SOL    HW215888   4.250   0.867   1.108
 5070SOL     OW15889   5.085   0.857   1.039
 5070SOL    HW115890   5.010   0.842   0.982
 5070SOL    HW215891   5.137   0.777   1.032
 5071SOL     OW15892   4.930   0.531   0.268
 5071SOL    HW115893   4.933   0.448   0.316
 5071SOL    HW215894   4.886   0.591   0.328
 5072SOL     OW15895   4.021   0.204   1.247
 5072SOL    HW115896   3.983   0.243   1.325
 5072SOL    HW215897   4.019   0.110   1.263
 5073SOL     OW15898   3.769   1.311   1.277
 5073SOL    HW115899   3.803   1.256   1.348
 5073SOL    HW215900   3.777   1.400   1.309
 5074SOL     OW15901   4.450   0.632   1.060
 5074SOL    HW115902   4.523   0.614   1.001
 5074SOL    HW215903   4.422   0.721   1.036
 5075SOL     OW15904   4.024   0.072   0.649
 5075SOL    HW115905   4.009   0.166   0.658
 5075SOL    HW215906   4.066   0.046   0.731
 5076SOL     OW15907   0.037   0.406   0.362
 5076SOL    HW115908   0.062   0.345   0.430
 5076SOL    HW215909   0.002   0.482   0.409
 5077SOL     OW15910   4.751   0.759   0.961
 5077SOL    HW115911   4.750   0.777   1.055
 5077SOL    HW215912   4.724   0.667   0.954
 5078SOL     OW15913   4.698   1.561   1.713
 5078SOL    HW115914   4.687   1.609   1.631
 5078SOL    HW215915   4.747   1.483   1.689
 5079SOL     OW15916   4.077   0.916   1.808
 5079SOL    HW115917   4.160   0.935   1.853
 5079SOL    HW215918   4.101   0.853   1.740
 5080SOL     OW15919   5.030   0.831   0.029
 5080SOL    HW115920   5.059   0.741   0.043
 5080SOL    HW215921   5.058   0.851   8.019
 5081SOL     OW15922   4.789   1.334   0.855
 5081SOL    HW115923   4.792   1.262   0.792
 5081SOL    HW215924   4.848   1.400   0.819
 5082SOL     OW15925   4.033   0.809   0.947
 5082SOL    HW115926   4.126   0.831   0.941
 5082SOL    HW215927   4.031   0.719   0.980
 5083SOL     OW15928   4.056   0.525   1.012
 5083SOL    HW115929   4.020   0.438   0.996
 5083SOL    HW215930   4.133   0.530   0.955
 5084SOL     OW15931   4.862   0.377   1.689
 5084SOL    HW115932   4.812   0.432   1.750
 5084SOL    HW215933   4.946   0.422   1.680
 5085SOL     OW15934   4.848   0.233   1.458
 5085SOL    HW115935   4.860   0.283   1.540
 5085SOL    HW215936   4.913   0.270   1.398
 5086SOL     OW15937   3.734   1.325   0.190
 5086SOL    HW115938   3.647   1.338   0.153
 5086SOL    HW215939   3.733   1.234   0.222
 5087SOL     OW15940   3.814   1.788   0.937
 5087SOL    HW115941   3.784   1.708   0.894
 5087SOL    HW215942   3.904   1.800   0.906
 5088SOL     OW15943   4.221   1.573   0.906
 5088SOL    HW115944   4.290   1.636   0.930
 5088SOL    HW215945   4.266   1.509   0.850
 5089SOL     OW15946   4.708   0.794   1.228
 5089SOL    HW115947   4.763   0.769   1.302
 5089SOL    HW215948   4.623   0.754   1.246
 5090SOL     OW15949   3.760   0.544   1.117
 5090SOL    HW115950   3.840   0.528   1.067
 5090SOL    HW215951   3.789   0.548   1.208
 5091SOL     OW15952   3.911   0.521   1.726
 5091SOL    HW115953   3.974   0.486   1.663
 5091SOL    HW215954   3.870   0.594   1.681
 5092SOL     OW15955   5.111   0.939   1.666
 5092SOL    HW115956   5.120   1.034   1.654
 5092SOL    HW215957   5.114   0.904   1.577
 5093SOL     OW15958   4.542   0.571   0.364
 5093SOL    HW115959   4.548   0.498   0.302
 5093SOL    HW215960   4.465   0.620   0.335
 5094SOL     OW15961   3.968   1.552   1.728
 5094SOL    HW115962   3.945   1.616   1.796
 5094SOL    HW215963   3.969   1.468   1.774
 5095SOL     OW15964   4.419   0.453   1.262
 5095SOL    HW115965   4.370   0.379   1.228
 5095SOL    HW215966   4.421   0.516   1.190
 5096SOL     OW15967   4.646   1.680   1.468
 5096SOL    HW115968   4.624   1.648   1.381
 5096SOL    HW215969   4.648   1.775   1.459
 5097SOL     OW15970   4.192   0.492   0.178
 5097SOL    HW115971   4.259   0.558   0.197
 5097SOL    HW215972   4.109   0.537   0.192
 5098SOL     OW15973   3.871   1.140   1.472
 5098SOL    HW115974   3.874   1.088   1.552
 5098SOL    HW215975   3.888   1.077   1.402
 5099SOL     OW15976   5.054   1.050   1.225
 5099SOL    HW115977   5.076   0.985   1.158
 5099SOL    HW215978   4.982   1.100   1.187
 5100SOL     OW15979   5.024   0.868   0.319
 5100SOL    HW115980   4.946   0.825   0.353
 5100SOL    HW215981   5.022   0.850   0.225
 5101SOL     OW15982   4.960   1.731   1.122
 5101SOL    HW115983   5.046   1.751   1.084
 5101SOL    HW215984   4.960   1.636   1.132
 5102SOL     OW15985   3.807   1.267   1.012
 5102SOL    HW115986   3.793   1.279   1.106
 5102SOL    HW215987   3.734   1.212   0.984
 5103SOL     OW15988   4.401   1.664   1.727
 5103SOL    HW115989   4.350   1.745   1.722
 5103SOL    HW215990   4.469   1.674   1.660
 5104SOL     OW15991   4.615   0.085   0.141
 5104SOL    HW115992   4.661   0.076   0.058
 5104SOL    HW215993   4.632   0.003   0.187
 5105SOL     OW15994   5.108   1.570   0.478
 5105SOL    HW115995   5.162   1.612   0.411
 5105SOL    HW215996   5.061   1.642   0.519
 5106SOL     OW15997   3.859   1.797   1.843
 5106SOL    HW115998   3.809   1.732   1.892
 5106SOL    HW215999   3.908   1.845   1.911
 5107SOL     OW16000   5.016   0.920   0.673
 5107SOL    HW116001   5.092   0.864   0.658
 5107SOL    HW216002   5.034   1.000   0.624
 5108SOL     OW16003   4.540   1.273   1.431
 5108SOL    HW116004   4.512   1.312   1.514
 5108SOL    HW216005   4.470   1.295   1.369
 5109SOL     OW16006   4.400   1.620   0.156
 5109SOL    HW116007   4.407   1.626   0.061
 5109SOL    HW216008   4.340   1.547   0.172
 5110SOL     OW16009   3.987   0.329   0.720
 5110SOL    HW116010   3.899   0.360   0.698
 5110SOL    HW216011   3.984   0.316   0.815
 5111SOL     OW16012   4.861   1.580   0.046
 5111SOL    HW116013   4.902   1.495   0.061
 5111SOL    HW216014   4.897   1.609   8.042
 5112SOL     OW16015   4.548   1.006   1.372
 5112SOL    HW116016   4.592   1.001   1.288
 5112SOL    HW216017   4.548   1.099   1.394
 5113SOL     OW16018   4.643   0.914   0.299
 5113SOL    HW116019   4.696   0.938   0.223
 5113SOL    HW216020   4.689   0.841   0.339
 5114SOL     OW16021   4.093   1.302   1.492
 5114SOL    HW116022   4.080   1.379   1.437
 5114SOL    HW216023   4.016   1.247   1.475
 5115SOL     OW16024   4.774   1.106   0.707
 5115SOL    HW116025   4.704   1.056   0.747
 5115SOL    HW216026   4.832   1.041   0.667
 5116SOL     OW16027   4.739   0.242   0.970
 5116SOL    HW116028   4.720   0.197   0.888
 5116SOL    HW216029   4.733   0.174   1.037
 5117SOL     OW16030   4.326   1.487   0.481
 5117SOL    HW116031   4.369   1.437   0.411
 5117SOL    HW216032   4.258   1.537   0.435
 5118SOL     OW16033   3.990   1.321   0.293
 5118SOL    HW116034   3.904   1.333   0.253
 5118SOL    HW216035   3.984   1.367   0.377
 5119SOL     OW16036   3.836   1.021   1.719
 5119SOL    HW116037   3.760   0.998   1.772
 5119SOL    HW216038   3.911   0.984   1.766
 5120SOL     OW16039   4.396   0.211   1.488
 5120SOL    HW116040   4.479   0.191   1.445
 5120SOL    HW216041   4.421   0.259   1.567
 5121SOL     OW16042   3.793   0.361   0.034
 5121SOL    HW116043   3.720   0.300   0.022
 5121SOL    HW216044   3.807   0.398   8.027
 5122SOL     OW16045   5.163   0.860   1.404
 5122SOL    HW116046   5.109   0.915   1.347
 5122SOL    HW216047   5.252   0.869   1.369
 5123SOL     OW16048   3.793   0.165   0.314
 5123SOL    HW116049   3.798   0.252   0.275
 5123SOL    HW216050   3.878   0.125   0.296
 5124SOL     OW16051   4.914   1.315   0.120
 5124SOL    HW116052   4.819   1.314   0.115
 5124SOL    HW216053   4.933   1.322   0.214
 5125SOL     OW16054   4.343   0.831   1.433
 5125SOL    HW116055   4.398   0.907   1.418
 5125SOL    HW216056   4.404   0.758   1.441
 5126SOL     OW16057   4.440   0.571   1.704
 5126SOL    HW116058   4.479   0.633   1.765
 5126SOL    HW216059   4.471   0.485   1.733
 5127SOL     OW16060   5.182   1.205   1.632
 5127SOL    HW116061   5.173   1.217   1.727
 5127SOL    HW216062   5.276   1.211   1.616
 5128SOL     OW16063   4.104   1.739   1.564
 5128SOL    HW116064   4.019   1.780   1.551
 5128SOL    HW216065   4.085   1.655   1.606
 5129SOL     OW16066   4.937   0.332   0.472
 5129SOL    HW116067   4.991   0.254   0.456
 5129SOL    HW216068   4.976   0.373   0.550
 5130SOL     OW16069   4.313   0.738   0.668
 5130SOL    HW116070   4.353   0.824   0.653
 5130SOL    HW216071   4.244   0.732   0.602
 5131SOL     OW16072   4.618   1.370   0.031
 5131SOL    HW116073   4.554   1.365   0.102
 5131SOL    HW216074   4.614   1.461   0.002
 5132SOL     OW16075   4.383   1.792   0.945
 5132SOL    HW116076   4.364   1.883   0.922
 5132SOL    HW216077   4.479   1.786   0.939
 5133SOL     OW16078   4.591   0.966   0.856
 5133SOL    HW116079   4.641   0.895   0.895
 5133SOL    HW216080   4.557   1.016   0.930
 5134SOL     OW16081   4.801   0.975   0.086
 5134SOL    HW116082   4.790   1.038   0.015
 5134SOL    HW216083   4.883   0.930   0.066
 5135SOL     OW16084   3.948   1.304   1.856
 5135SOL    HW116085   3.881   1.242   1.827
 5135SOL    HW216086   3.931   1.316   1.949
 5136SOL     OW16087   3.808   1.233   0.664
 5136SOL    HW116088   3.811   1.184   0.746
 5136SOL    HW216089   3.880   1.197   0.612
 5137SOL     OW16090   4.404   1.401   1.628
 5137SOL    HW116091   4.324   1.359   1.658
 5137SOL    HW216092   4.400   1.490   1.663
 5138SOL     OW16093   4.150   0.438   0.522
 5138SOL    HW116094   4.186   0.365   0.471
 5138SOL    HW216095   4.107   0.395   0.597
 5139SOL     OW16096   0.095   1.522   1.099
 5139SOL    HW116097   0.028   1.496   1.037
 5139SOL    HW216098   0.106   1.446   1.156
 5140SOL     OW16099   4.052   0.555   1.290
 5140SOL    HW116100   4.108   0.500   1.345
 5140SOL    HW216101   4.073   0.528   1.201
 5141SOL     OW16102   4.551   1.578   0.678
 5141SOL    HW116103   4.541   1.628   0.597
 5141SOL    HW216104   4.473   1.522   0.681
 5142SOL     OW16105   5.152   0.216   1.120
 5142SOL    HW116106   5.159   0.133   1.167
 5142SOL    HW216107   5.105   0.274   1.181
 5143SOL     OW16108   4.725   0.021   1.141
 5143SOL    HW116109   4.674   5.252   1.099
 5143SOL    HW216110   4.813   5.284   1.152
 5144SOL     OW16111   4.493   1.328   0.308
 5144SOL    HW116112   4.461   1.238   0.321
 5144SOL    HW216113   4.576   1.331   0.356
 5145SOL     OW16114   4.344   1.557   1.285
 5145SOL    HW116115   4.346   1.639   1.334
 5145SOL    HW216116   4.431   1.549   1.247
 5146SOL     OW16117   5.074   5.296   0.202
 5146SOL    HW116118   5.138   0.010   0.132
 5146SOL    HW216119   5.001   0.053   0.180
 5147SOL     OW16120   5.034   0.465   0.691
 5147SOL    HW116121   4.974   0.539   0.693
 5147SOL    HW216122   5.019   0.420   0.775
 5148SOL     OW16123   5.296   0.214   0.881
 5148SOL    HW116124   5.236   0.217   0.956
 5148SOL    HW216125   5.279   0.295   0.834
 5149SOL     OW16126   3.767   1.068   0.303
 5149SOL    HW116127   3.862   1.067   0.305
 5149SOL    HW216128   3.740   0.985   0.344
 5150SOL     OW16129   4.604   1.651   0.350
 5150SOL    HW116130   4.537   1.635   0.283
 5150SOL    HW216131   4.572   1.728   0.397
 5151SOL     OW16132   3.953   0.626   1.984
 5151SOL    HW116133   3.864   0.622   2.019
 5151SOL    HW216134   3.944   0.598   1.893
 5152SOL     OW16135   3.942   0.283   2.854
 5152SOL    HW116136   3.972   0.249   2.939
 5152SOL    HW216137   3.857   0.243   2.840
 5153SOL     OW16138   3.729   0.385   2.500
 5153SOL    HW116139   3.644   0.406   2.540
 5153SOL    HW216140   3.711   0.308   2.447
 5154SOL     OW16141   4.291   1.286   3.036
 5154SOL    HW116142   4.203   1.289   2.998
 5154SOL    HW216143   4.306   1.374   3.069
 5155SOL     OW16144   5.284   1.535   2.568
 5155SOL    HW116145   5.245   1.492   2.643
 5155SOL    HW216146   5.219   1.526   2.498
 5156SOL     OW16147   4.859   0.699   2.564
 5156SOL    HW116148   4.908   0.780   2.553
 5156SOL    HW216149   4.809   0.711   2.645
 5157SOL     OW16150   4.481   1.143   2.902
 5157SOL    HW116151   4.411   1.177   2.958
 5157SOL    HW216152   4.515   1.220   2.857
 5158SOL     OW16153   4.591   0.778   3.685
 5158SOL    HW116154   4.574   0.851   3.745
 5158SOL    HW216155   4.613   0.821   3.602
 5159SOL     OW16156   4.411   1.005   2.509
 5159SOL    HW116157   4.475   0.991   2.580
 5159SOL    HW216158   4.341   1.055   2.550
 5160SOL     OW16159   4.434   1.151   3.673
 5160SOL    HW116160   4.481   1.230   3.700
 5160SOL    HW216161   4.351   1.184   3.638
 5161SOL     OW16162   4.055   1.427   2.930
 5161SOL    HW116163   3.982   1.390   2.879
 5161SOL    HW216164   4.105   1.477   2.866
 5162SOL     OW16165   5.160   1.482   3.211
 5162SOL    HW116166   5.204   1.563   3.237
 5162SOL    HW216167   5.109   1.457   3.288
 5163SOL     OW16168   4.168   0.399   3.350
 5163SOL    HW116169   4.243   0.340   3.348
 5163SOL    HW216170   4.093   0.341   3.364
 5164SOL     OW16171   3.943   1.714   2.335
 5164SOL    HW116172   3.966   1.790   2.388
 5164SOL    HW216173   4.016   1.706   2.272
 5165SOL     OW16174   4.860   1.339   3.555
 5165SOL    HW116175   4.898   1.336   3.643
 5165SOL    HW216176   4.806   1.260   3.549
 5166SOL     OW16177   3.954   1.441   2.397
 5166SOL    HW116178   3.937   1.535   2.401
 5166SOL    HW216179   3.893   1.403   2.460
 5167SOL     OW16180   3.980   1.090   2.753
 5167SOL    HW116181   3.977   1.004   2.794
 5167SOL    HW216182   3.922   1.144   2.806
 5168SOL     OW16183   4.335   1.792   3.290
 5168SOL    HW116184   4.254   1.774   3.337
 5168SOL    HW216185   4.359   1.881   3.316
 5169SOL     OW16186   4.311   0.981   1.995
 5169SOL    HW116187   4.355   1.031   1.927
 5169SOL    HW216188   4.351   1.011   2.077
 5170SOL     OW16189   5.250   0.145   3.342
 5170SOL    HW116190   5.297   0.225   3.320
 5170SOL    HW216191   5.278   0.125   3.431
 5171SOL     OW16192   3.838   0.653   2.421
 5171SOL    HW116193   3.811   0.564   2.442
 5171SOL    HW216194   3.831   0.700   2.504
 5172SOL     OW16195   3.755   1.596   1.986
 5172SOL    HW116196   3.738   1.504   2.006
 5172SOL    HW216197   3.731   1.642   2.066
 5173SOL     OW16198   0.112   0.941   2.439
 5173SOL    HW116199   0.199   0.905   2.456
 5173SOL    HW216200   0.129   1.024   2.394
 5174SOL     OW16201   3.846   0.743   3.447
 5174SOL    HW116202   3.938   0.767   3.457
 5174SOL    HW216203   3.799   0.826   3.455
 5175SOL     OW16204   4.337   1.384   2.597
 5175SOL    HW116205   4.291   1.301   2.606
 5175SOL    HW216206   4.321   1.411   2.507
 5176SOL     OW16207   5.008   1.237   3.287
 5176SOL    HW116208   5.041   1.170   3.227
 5176SOL    HW216209   5.063   1.228   3.365
 5177SOL     OW16210   4.534   0.025   2.389
 5177SOL    HW116211   4.562   0.112   2.364
 5177SOL    HW216212   4.438   0.028   2.383
 5178SOL     OW16213   3.915   0.967   3.132
 5178SOL    HW116214   3.999   0.925   3.117
 5178SOL    HW216215   3.851   0.911   3.087
 5179SOL     OW16216   4.898   1.807   3.485
 5179SOL    HW116217   4.919   1.865   3.412
 5179SOL    HW216218   4.918   1.719   3.453
 5180SOL     OW16219   4.049   0.265   3.671
 5180SOL    HW116220   4.102   0.340   3.698
 5180SOL    HW216221   3.963   0.281   3.711
 5181SOL     OW16222   5.169   1.434   2.800
 5181SOL    HW116223   5.107   1.441   2.872
 5181SOL    HW216224   5.163   1.343   2.771
 5182SOL     OW16225   4.319   0.722   2.128
 5182SOL    HW116226   4.324   0.803   2.076
 5182SOL    HW216227   4.253   0.741   2.195
 5183SOL     OW16228   4.997   0.329   2.781
 5183SOL    HW116229   4.908   0.305   2.805
 5183SOL    HW216230   5.050   0.302   2.856
 5184SOL     OW16231   4.518   0.618   3.313
 5184SOL    HW116232   4.490   0.596   3.402
 5184SOL    HW216233   4.475   0.552   3.258
 5185SOL     OW16234   5.117   0.485   3.541
 5185SOL    HW116235   5.117   0.521   3.630
 5185SOL    HW216236   5.183   0.416   3.543
 5186SOL     OW16237   4.680   0.888   3.444
 5186SOL    HW116238   4.732   0.816   3.409
 5186SOL    HW216239   4.632   0.922   3.368
 5187SOL     OW16240   4.718   0.422   3.094
 5187SOL    HW116241   4.634   0.437   3.138
 5187SOL    HW216242   4.696   0.366   3.019
 5188SOL     OW16243   4.774   0.697   2.288
 5188SOL    HW116244   4.789   0.691   2.382
 5188SOL    HW216245   4.692   0.652   2.273
 5189SOL     OW16246   3.812   0.820   2.639
 5189SOL    HW116247   3.894   0.813   2.689
 5189SOL    HW216248   3.770   0.899   2.673
 5190SOL     OW16249   3.853   1.839   3.439
 5190SOL    HW116250   3.852   1.821   3.533
 5190SOL    HW216251   3.761   1.852   3.416
 5191SOL     OW16252   4.596   0.361   2.052
 5191SOL    HW116253   4.636   0.418   1.986
 5191SOL    HW216254   4.647   0.280   2.047
 5192SOL     OW16255   5.092   1.145   2.409
 5192SOL    HW116256   5.179   1.145   2.369
 5192SOL    HW216257   5.041   1.206   2.354
 5193SOL     OW16258   4.251   0.201   2.745
 5193SOL    HW116259   4.274   0.216   2.837
 5193SOL    HW216260   4.273   0.284   2.702
 5194SOL     OW16261   4.731   1.444   2.335
 5194SOL    HW116262   4.692   1.516   2.285
 5194SOL    HW216263   4.715   1.466   2.427
 5195SOL     OW16264   4.078   1.808   2.723
 5195SOL    HW116265   4.122   1.723   2.731
 5195SOL    HW216266   4.147   1.873   2.740
 5196SOL     OW16267   4.940   1.543   3.382
 5196SOL    HW116268   4.928   1.469   3.441
 5196SOL    HW216269   4.886   1.523   3.305
 5197SOL     OW16270   4.045   0.957   2.111
 5197SOL    HW116271   4.127   0.975   2.066
 5197SOL    HW216272   4.014   0.875   2.073
 5198SOL     OW16273   4.189   1.264   3.600
 5198SOL    HW116274   4.162   1.269   3.508
 5198SOL    HW216275   4.107   1.262   3.649
 5199SOL     OW16276   4.833   1.775   2.098
 5199SOL    HW116277   4.762   1.730   2.143
 5199SOL    HW216278   4.858   1.716   2.027
 5200SOL     OW16279   3.921   0.278   3.364
 5200SOL    HW116280   3.842   0.331   3.359
 5200SOL    HW216281   3.913   0.230   3.446
 5201SOL     OW16282   4.190   1.737   2.183
 5201SOL    HW116283   4.232   1.795   2.247
 5201SOL    HW216284   4.262   1.708   2.127
 5202SOL     OW16285   5.100   0.099   2.283
 5202SOL    HW116286   5.085   0.082   2.190
 5202SOL    HW216287   5.194   0.119   2.289
 5203SOL     OW16288   3.977   1.792   3.094
 5203SOL    HW116289   4.030   1.728   3.141
 5203SOL    HW216290   3.970   1.756   3.005
 5204SOL     OW16291   4.662   1.698   2.762
 5204SOL    HW116292   4.741   1.647   2.779
 5204SOL    HW216293   4.617   1.649   2.693
 5205SOL     OW16294   4.116   0.696   2.339
 5205SOL    HW116295   4.138   0.603   2.349
 5205SOL    HW216296   4.022   0.701   2.357
 5206SOL     OW16297   4.346   0.133   1.970
 5206SOL    HW116298   4.419   0.074   1.988
 5206SOL    HW216299   4.298   0.090   1.899
 5207SOL     OW16300   4.509   0.312   3.629
 5207SOL    HW116301   4.570   0.238   3.629
 5207SOL    HW216302   4.458   0.301   3.709
 5208SOL     OW16303   4.600   1.521   3.056
 5208SOL    HW116304   4.585   1.486   2.968
 5208SOL    HW216305   4.670   1.467   3.092
 5209SOL     OW16306   5.060   0.591   3.293
 5209SOL    HW116307   5.091   0.560   3.378
 5209SOL    HW216308   5.099   0.678   3.284
 5210SOL     OW16309   4.538   1.396   2.800
 5210SOL    HW116310   4.622   1.385   2.756
 5210SOL    HW216311   4.473   1.396   2.729
 5211SOL     OW16312   4.651   0.511   2.765
 5211SOL    HW116313   4.628   0.501   2.673
 5211SOL    HW216314   4.682   0.424   2.791
 5212SOL     OW16315   4.266   0.063   2.371
 5212SOL    HW116316   4.180   0.062   2.414
 5212SOL    HW216317   4.260   0.133   2.306
 5213SOL     OW16318   5.137   1.180   1.905
 5213SOL    HW116319   5.148   1.103   1.961
 5213SOL    HW216320   5.050   1.212   1.926
 5214SOL     OW16321   4.025   0.061   2.052
 5214SOL    HW116322   4.085   0.129   2.021
 5214SOL    HW216323   4.082   5.285   2.065
 5215SOL     OW16324   4.661   0.260   2.325
 5215SOL    HW116325   4.632   0.295   2.241
 5215SOL    HW216326   4.756   0.274   2.326
 5216SOL     OW16327   4.802   0.680   3.323
 5216SOL    HW116328   4.732   0.615   3.325
 5216SOL    HW216329   4.882   0.629   3.312
 5217SOL     OW16330   4.941   1.571   2.656
 5217SOL    HW116331   4.964   1.637   2.591
 5217SOL    HW216332   5.020   1.561   2.709
 5218SOL     OW16333   4.192   1.149   2.597
 5218SOL    HW116334   4.122   1.129   2.659
 5218SOL    HW216335   4.153   1.132   2.511
 5219SOL     OW16336   4.996   1.794   2.467
 5219SOL    HW116337   5.038   1.855   2.406
 5219SOL    HW216338   4.930   1.847   2.512
 5220SOL     OW16339   4.754   0.551   1.880
 5220SOL    HW116340   4.706   0.632   1.863
 5220SOL    HW216341   4.808   0.571   1.957
 5221SOL     OW16342   3.802   0.554   3.255
 5221SOL    HW116343   3.893   0.553   3.227
 5221SOL    HW216344   3.797   0.624   3.319
 5222SOL     OW16345   4.280   0.237   3.020
 5222SOL    HW116346   4.312   0.152   3.048
 5222SOL    HW216347   4.189   0.239   3.046
 5223SOL     OW16348   4.593   0.463   2.502
 5223SOL    HW116349   4.544   0.515   2.438
 5223SOL    HW216350   4.613   0.382   2.456
 5224SOL     OW16351   4.699   0.063   2.624
 5224SOL    HW116352   4.635   0.053   2.554
 5224SOL    HW216353   4.714   5.273   2.655
 5225SOL     OW16354   5.158   1.175   2.713
 5225SOL    HW116355   5.101   1.099   2.726
 5225SOL    HW216356   5.169   1.181   2.618
 5226SOL     OW16357   4.215   1.417   2.020
 5226SOL    HW116358   4.140   1.388   2.072
 5226SOL    HW216359   4.199   1.381   1.933
 5227SOL     OW16360   5.127   0.560   1.942
 5227SOL    HW116361   5.052   0.552   2.001
 5227SOL    HW216362   5.202   0.531   1.995
 5228SOL     OW16363   4.248   0.265   2.184
 5228SOL    HW116364   4.291   0.214   2.115
 5228SOL    HW216365   4.228   0.349   2.144
 5229SOL     OW16366   4.782   1.353   3.195
 5229SOL    HW116367   4.707   1.323   3.246
 5229SOL    HW216368   4.857   1.311   3.236
 5230SOL     OW16369   0.006   1.603   3.480
 5230SOL    HW116370   0.039   1.610   3.390
 5230SOL    HW216371   0.083   1.584   3.533
 5231SOL     OW16372   4.852   1.202   2.969
 5231SOL    HW116373   4.791   1.238   3.033
 5231SOL    HW216374   4.817   1.231   2.885
 5232SOL     OW16375   4.625   0.104   3.251
 5232SOL    HW116376   4.658   0.070   3.168
 5232SOL    HW216377   4.701   0.147   3.291
 5233SOL     OW16378   4.708   1.113   3.587
 5233SOL    HW116379   4.616   1.130   3.606
 5233SOL    HW216380   4.707   1.036   3.529
 5234SOL     OW16381   4.432   1.061   2.233
 5234SOL    HW116382   4.418   1.045   2.327
 5234SOL    HW216383   4.508   1.008   2.211
 5235SOL     OW16384   4.142   0.815   3.113
 5235SOL    HW116385   4.211   0.824   3.179
 5235SOL    HW216386   4.107   0.727   3.127
 5236SOL     OW16387   4.992   0.380   3.131
 5236SOL    HW116388   5.025   0.458   3.176
 5236SOL    HW216389   4.901   0.401   3.109
 5237SOL     OW16390   3.794   1.573   3.213
 5237SOL    HW116391   3.766   1.646   3.158
 5237SOL    HW216392   3.890   1.576   3.210
 5238SOL     OW16393   4.075   1.108   2.353
 5238SOL    HW116394   4.079   1.181   2.292
 5238SOL    HW216395   4.072   1.030   2.297
 5239SOL     OW16396   4.278   0.538   2.723
 5239SOL    HW116397   4.294   0.596   2.648
 5239SOL    HW216398   4.343   0.565   2.788
 5240SOL     OW16399   4.972   1.349   2.250
 5240SOL    HW116400   5.026   1.421   2.280
 5240SOL    HW216401   4.884   1.368   2.283
 5241SOL     OW16402   4.993   1.456   3.001
 5241SOL    HW116403   5.048   1.459   3.079
 5241SOL    HW216404   4.939   1.377   3.012
 5242SOL     OW16405   4.071   1.526   3.178
 5242SOL    HW116406   4.058   1.484   3.093
 5242SOL    HW216407   4.166   1.538   3.185
 5243SOL     OW16408   4.138   0.745   3.464
 5243SOL    HW116409   4.199   0.790   3.406
 5243SOL    HW216410   4.179   0.660   3.481
 5244SOL     OW16411   4.753   0.115   3.622
 5244SOL    HW116412   4.793   0.197   3.592
 5244SOL    HW216413   4.791   0.048   3.566
 5245SOL     OW16414   4.204   0.057   3.600
 5245SOL    HW116415   4.147   5.293   3.558
 5245SOL    HW216416   4.145   0.130   3.622
 5246SOL     OW16417   4.307   0.872   2.893
 5246SOL    HW116418   4.337   0.964   2.892
 5246SOL    HW216419   4.250   0.867   2.970
 5247SOL     OW16420   5.086   0.858   2.900
 5247SOL    HW116421   5.009   0.842   2.845
 5247SOL    HW216422   5.136   0.776   2.895
 5248SOL     OW16423   4.931   0.531   2.129
 5248SOL    HW116424   4.934   0.451   2.180
 5248SOL    HW216425   4.886   0.594   2.186
 5249SOL     OW16426   4.021   0.204   3.109
 5249SOL    HW116427   3.983   0.243   3.187
 5249SOL    HW216428   4.019   0.110   3.125
 5250SOL     OW16429   3.769   1.310   3.139
 5250SOL    HW116430   3.803   1.257   3.210
 5250SOL    HW216431   3.777   1.400   3.170
 5251SOL     OW16432   4.450   0.632   2.922
 5251SOL    HW116433   4.523   0.614   2.863
 5251SOL    HW216434   4.421   0.720   2.899
 5252SOL     OW16435   4.025   0.073   2.511
 5252SOL    HW116436   4.010   0.167   2.520
 5252SOL    HW216437   4.065   0.046   2.593
 5253SOL     OW16438   0.028   0.406   2.227
 5253SOL    HW116439   0.060   0.344   2.293
 5253SOL    HW216440   0.003   0.483   2.277
 5254SOL     OW16441   4.751   0.759   2.823
 5254SOL    HW116442   4.750   0.777   2.917
 5254SOL    HW216443   4.725   0.668   2.815
 5255SOL     OW16444   4.698   1.561   3.575
 5255SOL    HW116445   4.687   1.609   3.493
 5255SOL    HW216446   4.747   1.483   3.551
 5256SOL     OW16447   4.077   0.916   3.670
 5256SOL    HW116448   4.160   0.935   3.715
 5256SOL    HW216449   4.101   0.853   3.602
 5257SOL     OW16450   5.028   0.830   1.899
 5257SOL    HW116451   5.063   0.741   1.899
 5257SOL    HW216452   5.054   0.865   1.814
 5258SOL     OW16453   4.789   1.334   2.717
 5258SOL    HW116454   4.792   1.262   2.654
 5258SOL    HW216455   4.848   1.400   2.681
 5259SOL     OW16456   4.033   0.809   2.810
 5259SOL    HW116457   4.126   0.831   2.803
 5259SOL    HW216458   4.032   0.719   2.842
 5260SOL     OW16459   4.057   0.525   2.874
 5260SOL    HW116460   4.020   0.438   2.858
 5260SOL    HW216461   4.133   0.530   2.817
 5261SOL     OW16462   4.861   0.377   3.551
 5261SOL    HW116463   4.812   0.432   3.612
 5261SOL    HW216464   4.946   0.422   3.542
 5262SOL     OW16465   4.848   0.233   3.321
 5262SOL    HW116466   4.860   0.283   3.401
 5262SOL    HW216467   4.913   0.270   3.260
 5263SOL     OW16468   3.729   1.322   2.057
 5263SOL    HW116469   3.642   1.336   2.019
 5263SOL    HW216470   3.726   1.232   2.090
 5264SOL     OW16471   3.814   1.788   2.800
 5264SOL    HW116472   3.784   1.708   2.756
 5264SOL    HW216473   3.904   1.800   2.769
 5265SOL     OW16474   4.221   1.573   2.768
 5265SOL    HW116475   4.290   1.636   2.792
 5265SOL    HW216476   4.266   1.509   2.712
 5266SOL     OW16477   4.709   0.794   3.090
 5266SOL    HW116478   4.763   0.769   3.164
 5266SOL    HW216479   4.623   0.755   3.108
 5267SOL     OW16480   3.759   0.543   2.979
 5267SOL    HW116481   3.839   0.528   2.928
 5267SOL    HW216482   3.789   0.548   3.070
 5268SOL     OW16483   3.911   0.521   3.588
 5268SOL    HW116484   3.974   0.486   3.525
 5268SOL    HW216485   3.870   0.594   3.543
 5269SOL     OW16486   5.111   0.939   3.528
 5269SOL    HW116487   5.120   1.034   3.517
 5269SOL    HW216488   5.113   0.904   3.439
 5270SOL     OW16489   4.539   0.573   2.220
 5270SOL    HW116490   4.541   0.497   2.162
 5270SOL    HW216491   4.464   0.624   2.191
 5271SOL     OW16492   3.969   1.551   3.590
 5271SOL    HW116493   3.945   1.616   3.657
 5271SOL    HW216494   3.969   1.468   3.637
 5272SOL     OW16495   4.420   0.453   3.124
 5272SOL    HW116496   4.370   0.379   3.090
 5272SOL    HW216497   4.421   0.516   3.052
 5273SOL     OW16498   4.646   1.680   3.330
 5273SOL    HW116499   4.624   1.648   3.242
 5273SOL    HW216500   4.648   1.775   3.321
 5274SOL     OW16501   4.188   0.493   2.047
 5274SOL    HW116502   4.247   0.565   2.069
 5274SOL    HW216503   4.102   0.535   2.037
 5275SOL     OW16504   3.870   1.140   3.334
 5275SOL    HW116505   3.874   1.088   3.414
 5275SOL    HW216506   3.888   1.077   3.264
 5276SOL     OW16507   5.054   1.050   3.087
 5276SOL    HW116508   5.076   0.985   3.019
 5276SOL    HW216509   4.982   1.100   3.050
 5277SOL     OW16510   5.034   0.858   2.178
 5277SOL    HW116511   4.952   0.826   2.215
 5277SOL    HW216512   5.022   0.851   2.084
 5278SOL     OW16513   4.960   1.731   2.984
 5278SOL    HW116514   5.046   1.751   2.946
 5278SOL    HW216515   4.960   1.636   2.994
 5279SOL     OW16516   3.807   1.267   2.874
 5279SOL    HW116517   3.793   1.279   2.968
 5279SOL    HW216518   3.735   1.211   2.846
 5280SOL     OW16519   4.401   1.664   3.589
 5280SOL    HW116520   4.350   1.745   3.584
 5280SOL    HW216521   4.469   1.674   3.522
 5281SOL     OW16522   5.111   1.570   2.341
 5281SOL    HW116523   5.180   1.609   2.289
 5281SOL    HW216524   5.062   1.644   2.377
 5282SOL     OW16525   3.861   1.796   3.705
 5282SOL    HW116526   3.809   1.732   3.754
 5282SOL    HW216527   3.908   1.845   3.773
 5283SOL     OW16528   5.015   0.919   2.535
 5283SOL    HW116529   5.092   0.864   2.521
 5283SOL    HW216530   5.034   0.999   2.486
 5284SOL     OW16531   4.540   1.273   3.293
 5284SOL    HW116532   4.512   1.312   3.376
 5284SOL    HW216533   4.470   1.295   3.231
 5285SOL     OW16534   4.395   1.619   2.018
 5285SOL    HW116535   4.406   1.631   1.923
 5285SOL    HW216536   4.341   1.541   2.026
 5286SOL     OW16537   3.987   0.329   2.582
 5286SOL    HW116538   3.899   0.360   2.559
 5286SOL    HW216539   3.984   0.317   2.677
 5287SOL     OW16540   4.909   1.609   1.903
 5287SOL    HW116541   4.920   1.515   1.914
 5287SOL    HW216542   4.855   1.618   1.824
 5288SOL     OW16543   4.548   1.006   3.234
 5288SOL    HW116544   4.591   1.001   3.149
 5288SOL    HW216545   4.548   1.099   3.256
 5289SOL     OW16546   4.640   0.912   2.152
 5289SOL    HW116547   4.702   0.943   2.086
 5289SOL    HW216548   4.686   0.840   2.196
 5290SOL     OW16549   4.093   1.302   3.354
 5290SOL    HW116550   4.080   1.379   3.299
 5290SOL    HW216551   4.016   1.247   3.337
 5291SOL     OW16552   4.775   1.106   2.568
 5291SOL    HW116553   4.704   1.056   2.609
 5291SOL    HW216554   4.832   1.040   2.530
 5292SOL     OW16555   4.739   0.242   2.832
 5292SOL    HW116556   4.721   0.197   2.750
 5292SOL    HW216557   4.733   0.174   2.899
 5293SOL     OW16558   4.326   1.488   2.344
 5293SOL    HW116559   4.370   1.438   2.275
 5293SOL    HW216560   4.258   1.538   2.298
 5294SOL     OW16561   3.983   1.346   2.150
 5294SOL    HW116562   3.890   1.344   2.127
 5294SOL    HW216563   3.985   1.382   2.238
 5295SOL     OW16564   3.836   1.021   3.581
 5295SOL    HW116565   3.760   0.998   3.634
 5295SOL    HW216566   3.911   0.984   3.628
 5296SOL     OW16567   4.396   0.211   3.350
 5296SOL    HW116568   4.479   0.191   3.307
 5296SOL    HW216569   4.421   0.259   3.429
 5297SOL     OW16570   3.801   0.340   1.903
 5297SOL    HW116571   3.718   0.307   1.870
 5297SOL    HW216572   3.822   0.413   1.845
 5298SOL     OW16573   5.163   0.860   3.265
 5298SOL    HW116574   5.110   0.915   3.209
 5298SOL    HW216575   5.252   0.870   3.232
 5299SOL     OW16576   3.796   0.167   2.178
 5299SOL    HW116577   3.796   0.249   2.130
 5299SOL    HW216578   3.881   0.127   2.158
 5300SOL     OW16579   4.907   1.330   1.976
 5300SOL    HW116580   4.813   1.312   1.977
 5300SOL    HW216581   4.931   1.337   2.069
 5301SOL     OW16582   4.343   0.831   3.295
 5301SOL    HW116583   4.398   0.907   3.280
 5301SOL    HW216584   4.404   0.758   3.303
 5302SOL     OW16585   4.440   0.571   3.565
 5302SOL    HW116586   4.479   0.633   3.627
 5302SOL    HW216587   4.471   0.486   3.595
 5303SOL     OW16588   5.182   1.205   3.494
 5303SOL    HW116589   5.173   1.217   3.589
 5303SOL    HW216590   5.276   1.212   3.478
 5304SOL     OW16591   4.105   1.739   3.426
 5304SOL    HW116592   4.020   1.779   3.413
 5304SOL    HW216593   4.086   1.655   3.468
 5305SOL     OW16594   4.942   0.323   2.323
 5305SOL    HW116595   4.998   0.246   2.316
 5305SOL    HW216596   4.973   0.368   2.402
 5306SOL     OW16597   4.315   0.739   2.531
 5306SOL    HW116598   4.353   0.825   2.514
 5306SOL    HW216599   4.246   0.730   2.465
 5307SOL     OW16600   4.590   1.367   1.896
 5307SOL    HW116601   4.549   1.396   1.977
 5307SOL    HW216602   4.607   1.447   1.846
 5308SOL     OW16603   4.383   1.792   2.807
 5308SOL    HW116604   4.363   1.883   2.784
 5308SOL    HW216605   4.479   1.786   2.801
 5309SOL     OW16606   4.591   0.967   2.718
 5309SOL    HW116607   4.641   0.895   2.757
 5309SOL    HW216608   4.557   1.016   2.792
 5310SOL     OW16609   4.807   0.988   1.952
 5310SOL    HW116610   4.782   1.037   1.874
 5310SOL    HW216611   4.881   0.934   1.924
 5311SOL     OW16612   3.949   1.304   3.718
 5311SOL    HW116613   3.881   1.242   3.689
 5311SOL    HW216614   3.932   1.316   3.812
 5312SOL     OW16615   3.807   1.234   2.526
 5312SOL    HW116616   3.812   1.185   2.608
 5312SOL    HW216617   3.876   1.196   2.472
 5313SOL     OW16618   4.405   1.401   3.490
 5313SOL    HW116619   4.324   1.359   3.520
 5313SOL    HW216620   4.400   1.490   3.525
 5314SOL     OW16621   4.154   0.435   2.386
 5314SOL    HW116622   4.185   0.363   2.332
 5314SOL    HW216623   4.108   0.393   2.458
 5315SOL     OW16624   0.096   1.521   2.961
 5315SOL    HW116625   0.028   1.495   2.899
 5315SOL    HW216626   0.106   1.445   3.019
 5316SOL     OW16627   4.052   0.555   3.152
 5316SOL    HW116628   4.108   0.500   3.207
 5316SOL    HW216629   4.073   0.528   3.063
 5317SOL     OW16630   4.551   1.577   2.540
 5317SOL    HW116631   4.541   1.629   2.460
 5317SOL    HW216632   4.473   1.522   2.542
 5318SOL     OW16633   5.151   0.216   2.982
 5318SOL    HW116634   5.160   0.133   3.029
 5318SOL    HW216635   5.105   0.274   3.043
 5319SOL     OW16636   4.725   0.021   3.003
 5319SOL    HW116637   4.674   5.251   2.962
 5319SOL    HW216638   4.812   5.284   3.014
 5320SOL     OW16639   4.494   1.332   2.176
 5320SOL    HW116640   4.463   1.242   2.182
 5320SOL    HW216641   4.577   1.332   2.224
 5321SOL     OW16642   4.344   1.557   3.147
 5321SOL    HW116643   4.346   1.639   3.196
 5321SOL    HW216644   4.431   1.549   3.109
 5322SOL     OW16645   5.036   0.036   2.023
 5322SOL    HW116646   5.117   0.028   1.972
 5322SOL    HW216647   4.984   5.260   1.997
 5323SOL     OW16648   5.029   0.461   2.548
 5323SOL    HW116649   4.972   0.538   2.552
 5323SOL    HW216650   5.017   0.418   2.633
 5324SOL     OW16651   5.296   0.214   2.743
 5324SOL    HW116652   5.236   0.216   2.819
 5324SOL    HW216653   5.279   0.296   2.697
 5325SOL     OW16654   3.767   1.072   2.168
 5325SOL    HW116655   3.861   1.063   2.150
 5325SOL    HW216656   3.739   0.983   2.190
 5326SOL     OW16657   4.604   1.649   2.208
 5326SOL    HW116658   4.533   1.634   2.145
 5326SOL    HW216659   4.576   1.726   2.257
 5327SOL     OW16660   3.953   0.626   3.846
 5327SOL    HW116661   3.864   0.622   3.881
 5327SOL    HW216662   3.944   0.598   3.755
 5328SOL     OW16663   3.943   0.283   4.716
 5328SOL    HW116664   3.972   0.249   4.801
 5328SOL    HW216665   3.857   0.243   4.702
 5329SOL     OW16666   3.729   0.385   4.362
 5329SOL    HW116667   3.644   0.406   4.402
 5329SOL    HW216668   3.711   0.308   4.309
 5330SOL     OW16669   4.291   1.286   4.898
 5330SOL    HW116670   4.203   1.289   4.860
 5330SOL    HW216671   4.306   1.374   4.931
 5331SOL     OW16672   5.284   1.535   4.430
 5331SOL    HW116673   5.245   1.492   4.505
 5331SOL    HW216674   5.219   1.526   4.360
 5332SOL     OW16675   4.859   0.699   4.426
 5332SOL    HW116676   4.908   0.780   4.415
 5332SOL    HW216677   4.809   0.711   4.507
 5333SOL     OW16678   4.481   1.143   4.764
 5333SOL    HW116679   4.411   1.177   4.820
 5333SOL    HW216680   4.515   1.220   4.719
 5334SOL     OW16681   4.591   0.778   5.547
 5334SOL    HW116682   4.573   0.851   5.607
 5334SOL    HW216683   4.613   0.821   5.464
 5335SOL     OW16684   4.411   1.004   4.371
 5335SOL    HW116685   4.475   0.992   4.442
 5335SOL    HW216686   4.340   1.055   4.412
 5336SOL     OW16687   4.434   1.151   5.535
 5336SOL    HW116688   4.481   1.230   5.562
 5336SOL    HW216689   4.351   1.184   5.500
 5337SOL     OW16690   4.055   1.427   4.792
 5337SOL    HW116691   3.982   1.390   4.741
 5337SOL    HW216692   4.105   1.477   4.728
 5338SOL     OW16693   5.160   1.482   5.073
 5338SOL    HW116694   5.204   1.563   5.099
 5338SOL    HW216695   5.109   1.457   5.150
 5339SOL     OW16696   4.168   0.399   5.212
 5339SOL    HW116697   4.243   0.340   5.210
 5339SOL    HW216698   4.093   0.341   5.226
 5340SOL     OW16699   3.943   1.714   4.197
 5340SOL    HW116700   3.965   1.790   4.250
 5340SOL    HW216701   4.015   1.706   4.134
 5341SOL     OW16702   4.860   1.339   5.417
 5341SOL    HW116703   4.898   1.336   5.505
 5341SOL    HW216704   4.806   1.260   5.411
 5342SOL     OW16705   3.954   1.441   4.259
 5342SOL    HW116706   3.937   1.535   4.263
 5342SOL    HW216707   3.893   1.403   4.322
 5343SOL     OW16708   3.980   1.090   4.614
 5343SOL    HW116709   3.977   1.004   4.656
 5343SOL    HW216710   3.922   1.144   4.668
 5344SOL     OW16711   4.335   1.792   5.152
 5344SOL    HW116712   4.254   1.774   5.199
 5344SOL    HW216713   4.359   1.881   5.178
 5345SOL     OW16714   4.311   0.981   3.857
 5345SOL    HW116715   4.355   1.031   3.789
 5345SOL    HW216716   4.351   1.011   3.939
 5346SOL     OW16717   5.251   0.145   5.203
 5346SOL    HW116718   5.297   0.225   5.182
 5346SOL    HW216719   5.277   0.125   5.293
 5347SOL     OW16720   3.838   0.653   4.283
 5347SOL    HW116721   3.811   0.564   4.304
 5347SOL    HW216722   3.831   0.700   4.366
 5348SOL     OW16723   3.754   1.596   3.848
 5348SOL    HW116724   3.737   1.504   3.869
 5348SOL    HW216725   3.730   1.643   3.928
 5349SOL     OW16726   0.112   0.940   4.300
 5349SOL    HW116727   0.200   0.905   4.318
 5349SOL    HW216728   0.129   1.024   4.257
 5350SOL     OW16729   3.846   0.743   5.309
 5350SOL    HW116730   3.938   0.768   5.319
 5350SOL    HW216731   3.798   0.826   5.317
 5351SOL     OW16732   4.337   1.384   4.459
 5351SOL    HW116733   4.291   1.301   4.468
 5351SOL    HW216734   4.321   1.411   4.369
 5352SOL     OW16735   5.008   1.237   5.149
 5352SOL    HW116736   5.041   1.170   5.089
 5352SOL    HW216737   5.063   1.228   5.227
 5353SOL     OW16738   4.534   0.024   4.251
 5353SOL    HW116739   4.562   0.112   4.226
 5353SOL    HW216740   4.438   0.028   4.245
 5354SOL     OW16741   3.915   0.967   4.994
 5354SOL    HW116742   3.999   0.925   4.979
 5354SOL    HW216743   3.851   0.911   4.949
 5355SOL     OW16744   4.898   1.807   5.347
 5355SOL    HW116745   4.919   1.865   5.274
 5355SOL    HW216746   4.918   1.719   5.315
 5356SOL     OW16747   4.049   0.265   5.533
 5356SOL    HW116748   4.102   0.340   5.560
 5356SOL    HW216749   3.963   0.281   5.573
 5357SOL     OW16750   5.169   1.434   4.662
 5357SOL    HW116751   5.107   1.441   4.734
 5357SOL    HW216752   5.163   1.343   4.633
 5358SOL     OW16753   4.319   0.722   3.990
 5358SOL    HW116754   4.325   0.803   3.938
 5358SOL    HW216755   4.253   0.741   4.057
 5359SOL     OW16756   4.997   0.329   4.643
 5359SOL    HW116757   4.908   0.305   4.667
 5359SOL    HW216758   5.050   0.302   4.717
 5360SOL     OW16759   4.518   0.618   5.175
 5360SOL    HW116760   4.490   0.596   5.264
 5360SOL    HW216761   4.475   0.552   5.120
 5361SOL     OW16762   5.117   0.485   5.403
 5361SOL    HW116763   5.117   0.521   5.492
 5361SOL    HW216764   5.183   0.416   5.405
 5362SOL     OW16765   4.680   0.888   5.306
 5362SOL    HW116766   4.732   0.816   5.271
 5362SOL    HW216767   4.632   0.922   5.230
 5363SOL     OW16768   4.718   0.422   4.956
 5363SOL    HW116769   4.634   0.437   5.000
 5363SOL    HW216770   4.696   0.366   4.881
 5364SOL     OW16771   4.774   0.697   4.150
 5364SOL    HW116772   4.789   0.691   4.244
 5364SOL    HW216773   4.692   0.652   4.135
 5365SOL     OW16774   3.812   0.821   4.501
 5365SOL    HW116775   3.894   0.813   4.550
 5365SOL    HW216776   3.770   0.899   4.535
 5366SOL     OW16777   3.852   1.844   5.301
 5366SOL    HW116778   3.850   1.824   5.394
 5366SOL    HW216779   3.760   1.842   5.274
 5367SOL     OW16780   4.596   0.361   3.914
 5367SOL    HW116781   4.636   0.418   3.848
 5367SOL    HW216782   4.647   0.280   3.909
 5368SOL     OW16783   5.092   1.145   4.271
 5368SOL    HW116784   5.179   1.145   4.231
 5368SOL    HW216785   5.041   1.206   4.216
 5369SOL     OW16786   4.251   0.201   4.607
 5369SOL    HW116787   4.274   0.216   4.699
 5369SOL    HW216788   4.273   0.284   4.564
 5370SOL     OW16789   4.731   1.444   4.197
 5370SOL    HW116790   4.692   1.516   4.147
 5370SOL    HW216791   4.714   1.466   4.289
 5371SOL     OW16792   4.078   1.808   4.585
 5371SOL    HW116793   4.122   1.723   4.593
 5371SOL    HW216794   4.146   1.872   4.603
 5372SOL     OW16795   4.940   1.543   5.244
 5372SOL    HW116796   4.928   1.469   5.303
 5372SOL    HW216797   4.886   1.523   5.168
 5373SOL     OW16798   4.045   0.957   3.973
 5373SOL    HW116799   4.127   0.976   3.928
 5373SOL    HW216800   4.014   0.875   3.934
 5374SOL     OW16801   4.189   1.264   5.462
 5374SOL    HW116802   4.162   1.268   5.370
 5374SOL    HW216803   4.107   1.262   5.511
 5375SOL     OW16804   4.833   1.775   3.960
 5375SOL    HW116805   4.761   1.730   4.005
 5375SOL    HW216806   4.858   1.716   3.889
 5376SOL     OW16807   3.921   0.278   5.226
 5376SOL    HW116808   3.842   0.332   5.221
 5376SOL    HW216809   3.912   0.230   5.308
 5377SOL     OW16810   4.190   1.737   4.045
 5377SOL    HW116811   4.231   1.795   4.110
 5377SOL    HW216812   4.262   1.708   3.989
 5378SOL     OW16813   5.100   0.099   4.145
 5378SOL    HW116814   5.085   0.082   4.052
 5378SOL    HW216815   5.194   0.119   4.151
 5379SOL     OW16816   3.981   1.792   4.956
 5379SOL    HW116817   4.032   1.726   5.004
 5379SOL    HW216818   3.969   1.755   4.869
 5380SOL     OW16819   4.662   1.698   4.624
 5380SOL    HW116820   4.741   1.647   4.641
 5380SOL    HW216821   4.617   1.649   4.555
 5381SOL     OW16822   4.116   0.696   4.201
 5381SOL    HW116823   4.138   0.603   4.211
 5381SOL    HW216824   4.022   0.701   4.219
 5382SOL     OW16825   4.346   0.133   3.832
 5382SOL    HW116826   4.419   0.074   3.850
 5382SOL    HW216827   4.298   0.090   3.761
 5383SOL     OW16828   4.509   0.312   5.490
 5383SOL    HW116829   4.570   0.238   5.491
 5383SOL    HW216830   4.458   0.301   5.571
 5384SOL     OW16831   4.600   1.521   4.917
 5384SOL    HW116832   4.585   1.486   4.830
 5384SOL    HW216833   4.670   1.467   4.954
 5385SOL     OW16834   5.061   0.591   5.155
 5385SOL    HW116835   5.091   0.560   5.240
 5385SOL    HW216836   5.099   0.678   5.146
 5386SOL     OW16837   4.538   1.396   4.662
 5386SOL    HW116838   4.622   1.385   4.618
 5386SOL    HW216839   4.473   1.396   4.591
 5387SOL     OW16840   4.651   0.511   4.627
 5387SOL    HW116841   4.628   0.501   4.535
 5387SOL    HW216842   4.682   0.424   4.653
 5388SOL     OW16843   4.266   0.063   4.233
 5388SOL    HW116844   4.180   0.062   4.276
 5388SOL    HW216845   4.260   0.133   4.168
 5389SOL     OW16846   5.137   1.180   3.767
 5389SOL    HW116847   5.148   1.103   3.823
 5389SOL    HW216848   5.050   1.212   3.788
 5390SOL     OW16849   4.025   0.061   3.914
 5390SOL    HW116850   4.085   0.129   3.883
 5390SOL    HW216851   4.081   5.285   3.927
 5391SOL     OW16852   4.661   0.260   4.187
 5391SOL    HW116853   4.632   0.295   4.103
 5391SOL    HW216854   4.756   0.274   4.188
 5392SOL     OW16855   4.802   0.680   5.185
 5392SOL    HW116856   4.732   0.615   5.187
 5392SOL    HW216857   4.882   0.629   5.174
 5393SOL     OW16858   4.941   1.571   4.518
 5393SOL    HW116859   4.964   1.637   4.453
 5393SOL    HW216860   5.020   1.561   4.571
 5394SOL     OW16861   4.192   1.149   4.459
 5394SOL    HW116862   4.122   1.129   4.521
 5394SOL    HW216863   4.153   1.132   4.373
 5395SOL     OW16864   4.996   1.794   4.329
 5395SOL    HW116865   5.038   1.855   4.268
 5395SOL    HW216866   4.930   1.846   4.374
 5396SOL     OW16867   4.754   0.551   3.742
 5396SOL    HW116868   4.706   0.632   3.725
 5396SOL    HW216869   4.808   0.571   3.819
 5397SOL     OW16870   3.802   0.554   5.117
 5397SOL    HW116871   3.893   0.553   5.089
 5397SOL    HW216872   3.797   0.624   5.181
 5398SOL     OW16873   4.280   0.237   4.882
 5398SOL    HW116874   4.312   0.152   4.910
 5398SOL    HW216875   4.189   0.239   4.908
 5399SOL     OW16876   4.593   0.463   4.364
 5399SOL    HW116877   4.544   0.515   4.300
 5399SOL    HW216878   4.613   0.382   4.318
 5400SOL     OW16879   4.699   0.063   4.486
 5400SOL    HW116880   4.635   0.053   4.416
 5400SOL    HW216881   4.714   5.273   4.517
 5401SOL     OW16882   5.158   1.175   4.575
 5401SOL    HW116883   5.101   1.100   4.588
 5401SOL    HW216884   5.169   1.181   4.480
 5402SOL     OW16885   4.215   1.417   3.882
 5402SOL    HW116886   4.140   1.387   3.934
 5402SOL    HW216887   4.199   1.382   3.794
 5403SOL     OW16888   5.127   0.560   3.804
 5403SOL    HW116889   5.052   0.552   3.863
 5403SOL    HW216890   5.202   0.532   3.857
 5404SOL     OW16891   4.248   0.265   4.046
 5404SOL    HW116892   4.291   0.214   3.977
 5404SOL    HW216893   4.228   0.349   4.006
 5405SOL     OW16894   4.782   1.353   5.057
 5405SOL    HW116895   4.707   1.323   5.108
 5405SOL    HW216896   4.857   1.311   5.098
 5406SOL     OW16897   0.006   1.603   5.342
 5406SOL    HW116898   0.040   1.610   5.252
 5406SOL    HW216899   0.083   1.584   5.395
 5407SOL     OW16900   4.852   1.202   4.831
 5407SOL    HW116901   4.791   1.238   4.895
 5407SOL    HW216902   4.817   1.231   4.747
 5408SOL     OW16903   4.626   0.104   5.113
 5408SOL    HW116904   4.658   0.070   5.029
 5408SOL    HW216905   4.701   0.147   5.153
 5409SOL     OW16906   4.708   1.113   5.449
 5409SOL    HW116907   4.616   1.130   5.468
 5409SOL    HW216908   4.707   1.036   5.391
 5410SOL     OW16909   4.432   1.061   4.095
 5410SOL    HW116910   4.418   1.045   4.189
 5410SOL    HW216911   4.508   1.007   4.073
 5411SOL     OW16912   4.142   0.815   4.975
 5411SOL    HW116913   4.211   0.824   5.041
 5411SOL    HW216914   4.107   0.727   4.989
 5412SOL     OW16915   4.992   0.380   4.993
 5412SOL    HW116916   5.025   0.458   5.038
 5412SOL    HW216917   4.901   0.401   4.971
 5413SOL     OW16918   3.792   1.573   5.075
 5413SOL    HW116919   3.761   1.644   5.019
 5413SOL    HW216920   3.888   1.580   5.070
 5414SOL     OW16921   4.074   1.108   4.215
 5414SOL    HW116922   4.079   1.181   4.154
 5414SOL    HW216923   4.072   1.030   4.159
 5415SOL     OW16924   4.278   0.538   4.585
 5415SOL    HW116925   4.294   0.596   4.510
 5415SOL    HW216926   4.343   0.565   4.650
 5416SOL     OW16927   4.972   1.349   4.112
 5416SOL    HW116928   5.026   1.421   4.142
 5416SOL    HW216929   4.884   1.368   4.145
 5417SOL     OW16930   4.993   1.456   4.863
 5417SOL    HW116931   5.048   1.459   4.941
 5417SOL    HW216932   4.939   1.377   4.874
 5418SOL     OW16933   4.071   1.526   5.040
 5418SOL    HW116934   4.058   1.484   4.955
 5418SOL    HW216935   4.166   1.538   5.047
 5419SOL     OW16936   4.138   0.745   5.326
 5419SOL    HW116937   4.199   0.790   5.268
 5419SOL    HW216938   4.179   0.660   5.343
 5420SOL     OW16939   4.753   0.115   5.484
 5420SOL    HW116940   4.793   0.197   5.454
 5420SOL    HW216941   4.791   0.048   5.428
 5421SOL     OW16942   4.204   0.057   5.462
 5421SOL    HW116943   4.147   5.293   5.420
 5421SOL    HW216944   4.146   0.130   5.484
 5422SOL     OW16945   4.307   0.872   4.755
 5422SOL    HW116946   4.337   0.964   4.754
 5422SOL    HW216947   4.250   0.867   4.832
 5423SOL     OW16948   5.086   0.858   4.762
 5423SOL    HW116949   5.009   0.842   4.707
 5423SOL    HW216950   5.135   0.776   4.757
 5424SOL     OW16951   4.931   0.531   3.991
 5424SOL    HW116952   4.934   0.451   4.042
 5424SOL    HW216953   4.886   0.594   4.048
 5425SOL     OW16954   4.021   0.204   4.971
 5425SOL    HW116955   3.983   0.243   5.049
 5425SOL    HW216956   4.019   0.110   4.987
 5426SOL     OW16957   3.768   1.311   5.001
 5426SOL    HW116958   3.803   1.257   5.072
 5426SOL    HW216959   3.777   1.401   5.033
 5427SOL     OW16960   4.450   0.632   4.784
 5427SOL    HW116961   4.523   0.614   4.725
 5427SOL    HW216962   4.421   0.721   4.761
 5428SOL     OW16963   4.025   0.073   4.373
 5428SOL    HW116964   4.010   0.167   4.382
 5428SOL    HW216965   4.065   0.046   4.455
 5429SOL     OW16966   0.028   0.406   4.089
 5429SOL    HW116967   0.060   0.344   4.155
 5429SOL    HW216968   0.004   0.483   4.139
 5430SOL     OW16969   4.751   0.759   4.685
 5430SOL    HW116970   4.750   0.777   4.779
 5430SOL    HW216971   4.725   0.667   4.677
 5431SOL     OW16972   4.698   1.562   5.437
 5431SOL    HW116973   4.687   1.609   5.355
 5431SOL    HW216974   4.747   1.483   5.412
 5432SOL     OW16975   4.077   0.916   5.532
 5432SOL    HW116976   4.160   0.935   5.577
 5432SOL    HW216977   4.101   0.853   5.464
 5433SOL     OW16978   5.028   0.830   3.761
 5433SOL    HW116979   5.063   0.741   3.761
 5433SOL    HW216980   5.054   0.865   3.676
 5434SOL     OW16981   4.789   1.334   4.579
 5434SOL    HW116982   4.792   1.262   4.516
 5434SOL    HW216983   4.848   1.401   4.543
 5435SOL     OW16984   4.033   0.809   4.672
 5435SOL    HW116985   4.126   0.831   4.665
 5435SOL    HW216986   4.032   0.719   4.704
 5436SOL     OW16987   4.057   0.525   4.736
 5436SOL    HW116988   4.020   0.438   4.720
 5436SOL    HW216989   4.133   0.530   4.679
 5437SOL     OW16990   4.861   0.377   5.413
 5437SOL    HW116991   4.812   0.432   5.474
 5437SOL    HW216992   4.946   0.421   5.404
 5438SOL     OW16993   4.848   0.233   5.183
 5438SOL    HW116994   4.860   0.283   5.263
 5438SOL    HW216995   4.913   0.270   5.122
 5439SOL     OW16996   3.729   1.322   3.920
 5439SOL    HW116997   3.642   1.336   3.882
 5439SOL    HW216998   3.726   1.232   3.953
 5440SOL     OW16999   3.812   1.793   4.658
 5440SOL    HW117000   3.783   1.711   4.617
 5440SOL    HW217001   3.902   1.803   4.630
 5441SOL     OW17002   4.221   1.573   4.630
 5441SOL    HW117003   4.290   1.636   4.654
 5441SOL    HW217004   4.266   1.509   4.574
 5442SOL     OW17005   4.709   0.794   4.952
 5442SOL    HW117006   4.763   0.769   5.026
 5442SOL    HW217007   4.623   0.755   4.970
 5443SOL     OW17008   3.759   0.543   4.841
 5443SOL    HW117009   3.839   0.528   4.791
 5443SOL    HW217010   3.789   0.548   4.932
 5444SOL     OW17011   3.911   0.521   5.450
 5444SOL    HW117012   3.974   0.486   5.387
 5444SOL    HW217013   3.870   0.594   5.405
 5445SOL     OW17014   5.111   0.939   5.390
 5445SOL    HW117015   5.120   1.033   5.379
 5445SOL    HW217016   5.113   0.904   5.301
 5446SOL     OW17017   4.539   0.573   4.082
 5446SOL    HW117018   4.541   0.497   4.024
 5446SOL    HW217019   4.464   0.624   4.053
 5447SOL     OW17020   3.968   1.552   5.453
 5447SOL    HW117021   3.945   1.616   5.520
 5447SOL    HW217022   3.969   1.468   5.499
 5448SOL     OW17023   4.420   0.453   4.986
 5448SOL    HW117024   4.370   0.379   4.952
 5448SOL    HW217025   4.421   0.516   4.914
 5449SOL     OW17026   4.646   1.680   5.192
 5449SOL    HW117027   4.624   1.648   5.104
 5449SOL    HW217028   4.648   1.775   5.183
 5450SOL     OW17029   4.188   0.493   3.909
 5450SOL    HW117030   4.247   0.565   3.931
 5450SOL    HW217031   4.102   0.535   3.899
 5451SOL     OW17032   3.871   1.140   5.196
 5451SOL    HW117033   3.874   1.088   5.276
 5451SOL    HW217034   3.888   1.077   5.125
 5452SOL     OW17035   5.054   1.050   4.949
 5452SOL    HW117036   5.076   0.985   4.881
 5452SOL    HW217037   4.982   1.100   4.912
 5453SOL     OW17038   5.035   0.858   4.040
 5453SOL    HW117039   4.952   0.827   4.077
 5453SOL    HW217040   5.022   0.851   3.946
 5454SOL     OW17041   4.960   1.731   4.846
 5454SOL    HW117042   5.046   1.751   4.808
 5454SOL    HW217043   4.960   1.636   4.856
 5455SOL     OW17044   3.807   1.267   4.737
 5455SOL    HW117045   3.793   1.279   4.831
 5455SOL    HW217046   3.735   1.211   4.708
 5456SOL     OW17047   4.401   1.664   5.451
 5456SOL    HW117048   4.349   1.745   5.446
 5456SOL    HW217049   4.468   1.675   5.384
 5457SOL     OW17050   5.111   1.570   4.203
 5457SOL    HW117051   5.180   1.610   4.151
 5457SOL    HW217052   5.062   1.644   4.239
 5458SOL     OW17053   3.859   1.797   5.567
 5458SOL    HW117054   3.809   1.732   5.616
 5458SOL    HW217055   3.908   1.845   5.635
 5459SOL     OW17056   5.015   0.919   4.397
 5459SOL    HW117057   5.093   0.864   4.383
 5459SOL    HW217058   5.034   0.999   4.348
 5460SOL     OW17059   4.540   1.273   5.155
 5460SOL    HW117060   4.512   1.312   5.238
 5460SOL    HW217061   4.470   1.295   5.093
 5461SOL     OW17062   4.396   1.619   3.879
 5461SOL    HW117063   4.406   1.631   3.785
 5461SOL    HW217064   4.341   1.541   3.888
 5462SOL     OW17065   3.987   0.329   4.444
 5462SOL    HW117066   3.899   0.360   4.421
 5462SOL    HW217067   3.984   0.317   4.539
 5463SOL     OW17068   4.909   1.609   3.765
 5463SOL    HW117069   4.920   1.515   3.776
 5463SOL    HW217070   4.855   1.618   3.686
 5464SOL     OW17071   4.548   1.006   5.096
 5464SOL    HW117072   4.591   1.002   5.011
 5464SOL    HW217073   4.548   1.099   5.118
 5465SOL     OW17074   4.640   0.911   4.014
 5465SOL    HW117075   4.702   0.943   3.948
 5465SOL    HW217076   4.686   0.840   4.058
 5466SOL     OW17077   4.093   1.302   5.216
 5466SOL    HW117078   4.080   1.380   5.161
 5466SOL    HW217079   4.016   1.248   5.199
 5467SOL     OW17080   4.775   1.106   4.430
 5467SOL    HW117081   4.704   1.056   4.471
 5467SOL    HW217082   4.832   1.040   4.392
 5468SOL     OW17083   4.739   0.242   4.694
 5468SOL    HW117084   4.721   0.197   4.612
 5468SOL    HW217085   4.733   0.174   4.761
 5469SOL     OW17086   4.326   1.488   4.206
 5469SOL    HW117087   4.369   1.438   4.137
 5469SOL    HW217088   4.258   1.538   4.160
 5470SOL     OW17089   3.983   1.346   4.012
 5470SOL    HW117090   3.890   1.344   3.989
 5470SOL    HW217091   3.986   1.382   4.100
 5471SOL     OW17092   3.836   1.020   5.443
 5471SOL    HW117093   3.760   0.998   5.496
 5471SOL    HW217094   3.911   0.984   5.491
 5472SOL     OW17095   4.396   0.211   5.212
 5472SOL    HW117096   4.479   0.191   5.169
 5472SOL    HW217097   4.421   0.259   5.291
 5473SOL     OW17098   3.801   0.340   3.765
 5473SOL    HW117099   3.718   0.307   3.731
 5473SOL    HW217100   3.822   0.413   3.707
 5474SOL     OW17101   5.163   0.859   5.127
 5474SOL    HW117102   5.110   0.915   5.071
 5474SOL    HW217103   5.252   0.870   5.094
 5475SOL     OW17104   3.796   0.167   4.040
 5475SOL    HW117105   3.796   0.249   3.992
 5475SOL    HW217106   3.881   0.127   4.020
 5476SOL     OW17107   4.907   1.330   3.838
 5476SOL    HW117108   4.813   1.312   3.839
 5476SOL    HW217109   4.931   1.337   3.931
 5477SOL     OW17110   4.343   0.831   5.157
 5477SOL    HW117111   4.398   0.907   5.142
 5477SOL    HW217112   4.404   0.758   5.165
 5478SOL     OW17113   4.440   0.571   5.427
 5478SOL    HW117114   4.479   0.633   5.489
 5478SOL    HW217115   4.471   0.486   5.457
 5479SOL     OW17116   5.182   1.205   5.356
 5479SOL    HW117117   5.173   1.217   5.451
 5479SOL    HW217118   5.276   1.212   5.340
 5480SOL     OW17119   4.105   1.739   5.288
 5480SOL    HW117120   4.019   1.780   5.275
 5480SOL    HW217121   4.085   1.655   5.330
 5481SOL     OW17122   4.942   0.323   4.185
 5481SOL    HW117123   4.998   0.246   4.178
 5481SOL    HW217124   4.973   0.368   4.264
 5482SOL     OW17125   4.315   0.739   4.393
 5482SOL    HW117126   4.353   0.825   4.376
 5482SOL    HW217127   4.246   0.730   4.327
 5483SOL     OW17128   4.591   1.367   3.758
 5483SOL    HW117129   4.549   1.396   3.839
 5483SOL    HW217130   4.607   1.447   3.708
 5484SOL     OW17131   4.383   1.792   4.669
 5484SOL    HW117132   4.363   1.883   4.646
 5484SOL    HW217133   4.479   1.786   4.663
 5485SOL     OW17134   4.591   0.967   4.580
 5485SOL    HW117135   4.641   0.895   4.619
 5485SOL    HW217136   4.557   1.016   4.654
 5486SOL     OW17137   4.807   0.988   3.814
 5486SOL    HW117138   4.782   1.037   3.736
 5486SOL    HW217139   4.881   0.934   3.786
 5487SOL     OW17140   3.949   1.304   5.580
 5487SOL    HW117141   3.881   1.243   5.551
 5487SOL    HW217142   3.931   1.316   5.673
 5488SOL     OW17143   3.807   1.234   4.388
 5488SOL    HW117144   3.812   1.185   4.471
 5488SOL    HW217145   3.876   1.196   4.333
 5489SOL     OW17146   4.405   1.401   5.352
 5489SOL    HW117147   4.324   1.359   5.382
 5489SOL    HW217148   4.400   1.490   5.387
 5490SOL     OW17149   4.154   0.435   4.248
 5490SOL    HW117150   4.185   0.363   4.194
 5490SOL    HW217151   4.108   0.393   4.320
 5491SOL     OW17152   0.096   1.521   4.823
 5491SOL    HW117153   0.028   1.495   4.761
 5491SOL    HW217154   0.106   1.445   4.881
 5492SOL     OW17155   4.052   0.555   5.014
 5492SOL    HW117156   4.108   0.500   5.069
 5492SOL    HW217157   4.073   0.528   4.925
 5493SOL     OW17158   4.551   1.577   4.402
 5493SOL    HW117159   4.541   1.629   4.322
 5493SOL    HW217160   4.473   1.522   4.404
 5494SOL     OW17161   5.151   0.216   4.844
 5494SOL    HW117162   5.160   0.134   4.891
 5494SOL    HW217163   5.105   0.274   4.905
 5495SOL     OW17164   4.725   0.021   4.865
 5495SOL    HW117165   4.674   5.251   4.824
 5495SOL    HW217166   4.813   5.284   4.876
 5496SOL     OW17167   4.494   1.332   4.038
 5496SOL    HW117168   4.463   1.242   4.044
 5496SOL    HW217169   4.577   1.332   4.086
 5497SOL     OW17170   4.344   1.557   5.009
 5497SOL    HW117171   4.346   1.639   5.058
 5497SOL    HW217172   4.431   1.549   4.971
 5498SOL     OW17173   5.036   0.036   3.885
 5498SOL    HW117174   5.117   0.028   3.834
 5498SOL    HW217175   4.984   5.260   3.859
 5499SOL     OW17176   5.029   0.461   4.410
 5499SOL    HW117177   4.972   0.538   4.414
 5499SOL    HW217178   5.017   0.418   4.495
 5500SOL     OW17179   5.296   0.214   4.605
 5500SOL    HW117180   5.236   0.216   4.681
 5500SOL    HW217181   5.279   0.296   4.559
 5501SOL     OW17182   3.767   1.072   4.030
 5501SOL    HW117183   3.861   1.063   4.012
 5501SOL    HW217184   3.739   0.983   4.052
 5502SOL     OW17185   4.604   1.649   4.070
 5502SOL    HW117186   4.534   1.634   4.007
 5502SOL    HW217187   4.576   1.726   4.119
 5503SOL     OW17188   3.953   0.625   5.708
 5503SOL    HW117189   3.864   0.622   5.743
 5503SOL    HW217190   3.944   0.598   5.617
 5504SOL     OW17191   3.943   0.283   6.578
 5504SOL    HW117192   3.972   0.249   6.663
 5504SOL    HW217193   3.857   0.243   6.564
 5505SOL     OW17194   3.729   0.385   6.224
 5505SOL    HW117195   3.644   0.406   6.264
 5505SOL    HW217196   3.711   0.308   6.171
 5506SOL     OW17197   4.291   1.286   6.760
 5506SOL    HW117198   4.203   1.289   6.722
 5506SOL    HW217199   4.306   1.374   6.793
 5507SOL     OW17200   5.284   1.535   6.292
 5507SOL    HW117201   5.245   1.492   6.367
 5507SOL    HW217202   5.219   1.526   6.222
 5508SOL     OW17203   4.859   0.699   6.288
 5508SOL    HW117204   4.908   0.780   6.277
 5508SOL    HW217205   4.809   0.711   6.369
 5509SOL     OW17206   4.481   1.143   6.626
 5509SOL    HW117207   4.411   1.177   6.682
 5509SOL    HW217208   4.515   1.220   6.581
 5510SOL     OW17209   4.590   0.780   7.408
 5510SOL    HW117210   4.569   0.855   7.463
 5510SOL    HW217211   4.614   0.818   7.324
 5511SOL     OW17212   4.411   1.004   6.233
 5511SOL    HW117213   4.475   0.992   6.304
 5511SOL    HW217214   4.340   1.055   6.274
 5512SOL     OW17215   4.434   1.152   7.397
 5512SOL    HW117216   4.481   1.230   7.423
 5512SOL    HW217217   4.351   1.184   7.362
 5513SOL     OW17218   4.055   1.427   6.654
 5513SOL    HW117219   3.982   1.389   6.603
 5513SOL    HW217220   4.105   1.477   6.590
 5514SOL     OW17221   5.161   1.481   6.936
 5514SOL    HW117222   5.203   1.563   6.961
 5514SOL    HW217223   5.108   1.457   7.012
 5515SOL     OW17224   4.168   0.399   7.075
 5515SOL    HW117225   4.243   0.340   7.072
 5515SOL    HW217226   4.093   0.341   7.088
 5516SOL     OW17227   3.943   1.714   6.059
 5516SOL    HW117228   3.966   1.790   6.112
 5516SOL    HW217229   4.015   1.706   5.996
 5517SOL     OW17230   4.860   1.339   7.278
 5517SOL    HW117231   4.898   1.337   7.365
 5517SOL    HW217232   4.807   1.259   7.273
 5518SOL     OW17233   3.954   1.441   6.121
 5518SOL    HW117234   3.937   1.535   6.125
 5518SOL    HW217235   3.893   1.403   6.184
 5519SOL     OW17236   3.980   1.090   6.477
 5519SOL    HW117237   3.977   1.004   6.518
 5519SOL    HW217238   3.922   1.144   6.530
 5520SOL     OW17239   4.335   1.792   7.013
 5520SOL    HW117240   4.254   1.774   7.061
 5520SOL    HW217241   4.359   1.881   7.040
 5521SOL     OW17242   4.311   0.981   5.719
 5521SOL    HW117243   4.355   1.031   5.651
 5521SOL    HW217244   4.351   1.011   5.801
 5522SOL     OW17245   5.250   0.145   7.065
 5522SOL    HW117246   5.296   0.226   7.043
 5522SOL    HW217247   5.278   0.126   7.155
 5523SOL     OW17248   3.838   0.653   6.145
 5523SOL    HW117249   3.810   0.564   6.166
 5523SOL    HW217250   3.831   0.701   6.228
 5524SOL     OW17251   3.755   1.596   5.710
 5524SOL    HW117252   3.738   1.504   5.730
 5524SOL    HW217253   3.731   1.642   5.790
 5525SOL     OW17254   0.112   0.940   6.162
 5525SOL    HW117255   0.200   0.905   6.180
 5525SOL    HW217256   0.129   1.024   6.119
 5526SOL     OW17257   3.846   0.743   7.172
 5526SOL    HW117258   3.938   0.768   7.181
 5526SOL    HW217259   3.798   0.825   7.180
 5527SOL     OW17260   4.337   1.384   6.321
 5527SOL    HW117261   4.291   1.301   6.330
 5527SOL    HW217262   4.321   1.411   6.231
 5528SOL     OW17263   5.008   1.237   7.010
 5528SOL    HW117264   5.041   1.170   6.951
 5528SOL    HW217265   5.062   1.229   7.089
 5529SOL     OW17266   4.534   0.024   6.113
 5529SOL    HW117267   4.562   0.112   6.088
 5529SOL    HW217268   4.438   0.028   6.107
 5530SOL     OW17269   3.915   0.967   6.856
 5530SOL    HW117270   3.999   0.925   6.841
 5530SOL    HW217271   3.851   0.912   6.811
 5531SOL     OW17272   4.898   1.807   7.208
 5531SOL    HW117273   4.920   1.865   7.134
 5531SOL    HW217274   4.919   1.719   7.177
 5532SOL     OW17275   4.048   0.262   7.400
 5532SOL    HW117276   4.101   0.339   7.421
 5532SOL    HW217277   3.962   0.282   7.436
 5533SOL     OW17278   5.169   1.434   6.524
 5533SOL    HW117279   5.107   1.441   6.596
 5533SOL    HW217280   5.163   1.343   6.495
 5534SOL     OW17281   4.319   0.722   5.852
 5534SOL    HW117282   4.324   0.803   5.801
 5534SOL    HW217283   4.253   0.741   5.919
 5535SOL     OW17284   4.997   0.329   6.505
 5535SOL    HW117285   4.908   0.305   6.528
 5535SOL    HW217286   5.050   0.302   6.580
 5536SOL     OW17287   4.518   0.618   7.037
 5536SOL    HW117288   4.490   0.596   7.126
 5536SOL    HW217289   4.475   0.552   6.982
 5537SOL     OW17290   5.117   0.486   7.265
 5537SOL    HW117291   5.117   0.522   7.354
 5537SOL    HW217292   5.181   0.415   7.268
 5538SOL     OW17293   4.680   0.888   7.168
 5538SOL    HW117294   4.732   0.816   7.132
 5538SOL    HW217295   4.632   0.922   7.092
 5539SOL     OW17296   4.718   0.421   6.818
 5539SOL    HW117297   4.634   0.437   6.862
 5539SOL    HW217298   4.696   0.366   6.743
 5540SOL     OW17299   4.774   0.697   6.012
 5540SOL    HW117300   4.789   0.691   6.106
 5540SOL    HW217301   4.692   0.652   5.997
 5541SOL     OW17302   3.812   0.820   6.362
 5541SOL    HW117303   3.894   0.813   6.413
 5541SOL    HW217304   3.769   0.899   6.397
 5542SOL     OW17305   3.851   1.845   7.163
 5542SOL    HW117306   3.850   1.824   7.257
 5542SOL    HW217307   3.759   1.841   7.137
 5543SOL     OW17308   4.596   0.361   5.776
 5543SOL    HW117309   4.636   0.418   5.710
 5543SOL    HW217310   4.647   0.280   5.771
 5544SOL     OW17311   5.092   1.145   6.132
 5544SOL    HW117312   5.179   1.145   6.093
 5544SOL    HW217313   5.041   1.206   6.078
 5545SOL     OW17314   4.252   0.201   6.469
 5545SOL    HW117315   4.274   0.216   6.561
 5545SOL    HW217316   4.273   0.284   6.426
 5546SOL     OW17317   4.731   1.444   6.059
 5546SOL    HW117318   4.692   1.516   6.009
 5546SOL    HW217319   4.714   1.466   6.151
 5547SOL     OW17320   4.078   1.808   6.447
 5547SOL    HW117321   4.122   1.723   6.455
 5547SOL    HW217322   4.147   1.872   6.464
 5548SOL     OW17323   4.941   1.543   7.105
 5548SOL    HW117324   4.928   1.470   7.165
 5548SOL    HW217325   4.885   1.523   7.030
 5549SOL     OW17326   4.045   0.957   5.836
 5549SOL    HW117327   4.127   0.976   5.790
 5549SOL    HW217328   4.014   0.875   5.797
 5550SOL     OW17329   4.189   1.263   7.323
 5550SOL    HW117330   4.161   1.268   7.232
 5550SOL    HW217331   4.107   1.262   7.373
 5551SOL     OW17332   4.833   1.775   5.822
 5551SOL    HW117333   4.761   1.730   5.867
 5551SOL    HW217334   4.858   1.716   5.751
 5552SOL     OW17335   3.921   0.278   7.087
 5552SOL    HW117336   3.842   0.332   7.082
 5552SOL    HW217337   3.911   0.229   7.169
 5553SOL     OW17338   4.190   1.737   5.907
 5553SOL    HW117339   4.232   1.795   5.971
 5553SOL    HW217340   4.262   1.708   5.851
 5554SOL     OW17341   5.100   0.099   6.007
 5554SOL    HW117342   5.085   0.082   5.914
 5554SOL    HW217343   5.194   0.119   6.013
 5555SOL     OW17344   3.978   1.792   6.818
 5555SOL    HW117345   4.031   1.727   6.865
 5555SOL    HW217346   3.969   1.756   6.730
 5556SOL     OW17347   4.662   1.698   6.486
 5556SOL    HW117348   4.741   1.647   6.504
 5556SOL    HW217349   4.617   1.649   6.417
 5557SOL     OW17350   4.116   0.696   6.063
 5557SOL    HW117351   4.138   0.603   6.073
 5557SOL    HW217352   4.022   0.701   6.081
 5558SOL     OW17353   4.346   0.133   5.694
 5558SOL    HW117354   4.419   0.074   5.712
 5558SOL    HW217355   4.298   0.090   5.623
 5559SOL     OW17356   4.508   0.311   7.350
 5559SOL    HW117357   4.571   0.239   7.351
 5559SOL    HW217358   4.463   0.305   7.434
 5560SOL     OW17359   4.600   1.521   6.779
 5560SOL    HW117360   4.585   1.486   6.692
 5560SOL    HW217361   4.670   1.467   6.816
 5561SOL     OW17362   5.061   0.591   7.017
 5561SOL    HW117363   5.091   0.560   7.102
 5561SOL    HW217364   5.099   0.678   7.008
 5562SOL     OW17365   4.538   1.396   6.524
 5562SOL    HW117366   4.622   1.385   6.480
 5562SOL    HW217367   4.473   1.396   6.453
 5563SOL     OW17368   4.651   0.510   6.489
 5563SOL    HW117369   4.628   0.501   6.397
 5563SOL    HW217370   4.682   0.424   6.515
 5564SOL     OW17371   4.266   0.063   6.095
 5564SOL    HW117372   4.180   0.062   6.138
 5564SOL    HW217373   4.260   0.133   6.030
 5565SOL     OW17374   5.137   1.180   5.629
 5565SOL    HW117375   5.148   1.103   5.685
 5565SOL    HW217376   5.050   1.212   5.650
 5566SOL     OW17377   4.025   0.061   5.776
 5566SOL    HW117378   4.085   0.129   5.745
 5566SOL    HW217379   4.082   5.285   5.789
 5567SOL     OW17380   4.661   0.260   6.049
 5567SOL    HW117381   4.632   0.295   5.965
 5567SOL    HW217382   4.756   0.274   6.050
 5568SOL     OW17383   4.802   0.680   7.047
 5568SOL    HW117384   4.732   0.615   7.050
 5568SOL    HW217385   4.882   0.629   7.036
 5569SOL     OW17386   4.941   1.571   6.380
 5569SOL    HW117387   4.964   1.637   6.315
 5569SOL    HW217388   5.020   1.561   6.433
 5570SOL     OW17389   4.192   1.149   6.321
 5570SOL    HW117390   4.122   1.130   6.383
 5570SOL    HW217391   4.153   1.132   6.235
 5571SOL     OW17392   4.996   1.794   6.191
 5571SOL    HW117393   5.038   1.855   6.130
 5571SOL    HW217394   4.930   1.846   6.236
 5572SOL     OW17395   4.754   0.551   5.604
 5572SOL    HW117396   4.706   0.632   5.587
 5572SOL    HW217397   4.807   0.571   5.681
 5573SOL     OW17398   3.802   0.553   6.979
 5573SOL    HW117399   3.894   0.553   6.951
 5573SOL    HW217400   3.797   0.624   7.043
 5574SOL     OW17401   4.281   0.237   6.744
 5574SOL    HW117402   4.312   0.152   6.772
 5574SOL    HW217403   4.189   0.239   6.770
 5575SOL     OW17404   4.593   0.463   6.226
 5575SOL    HW117405   4.544   0.516   6.163
 5575SOL    HW217406   4.613   0.382   6.180
 5576SOL     OW17407   4.699   0.063   6.348
 5576SOL    HW117408   4.635   0.053   6.278
 5576SOL    HW217409   4.714   5.273   6.380
 5577SOL     OW17410   5.158   1.175   6.437
 5577SOL    HW117411   5.101   1.100   6.450
 5577SOL    HW217412   5.169   1.181   6.342
 5578SOL     OW17413   4.215   1.417   5.744
 5578SOL    HW117414   4.140   1.387   5.796
 5578SOL    HW217415   4.198   1.382   5.657
 5579SOL     OW17416   5.127   0.560   5.666
 5579SOL    HW117417   5.052   0.552   5.725
 5579SOL    HW217418   5.202   0.532   5.719
 5580SOL     OW17419   4.248   0.265   5.908
 5580SOL    HW117420   4.291   0.214   5.839
 5580SOL    HW217421   4.228   0.349   5.868
 5581SOL     OW17422   4.782   1.353   6.919
 5581SOL    HW117423   4.706   1.323   6.970
 5581SOL    HW217424   4.857   1.311   6.960
 5582SOL     OW17425   0.006   1.604   7.203
 5582SOL    HW117426   0.040   1.611   7.114
 5582SOL    HW217427   0.084   1.585   7.256
 5583SOL     OW17428   4.852   1.202   6.693
 5583SOL    HW117429   4.791   1.238   6.758
 5583SOL    HW217430   4.817   1.231   6.609
 5584SOL     OW17431   4.625   0.104   6.975
 5584SOL    HW117432   4.658   0.070   6.891
 5584SOL    HW217433   4.701   0.147   7.015
 5585SOL     OW17434   4.709   1.112   7.313
 5585SOL    HW117435   4.616   1.131   7.330
 5585SOL    HW217436   4.707   1.036   7.255
 5586SOL     OW17437   4.432   1.061   5.957
 5586SOL    HW117438   4.418   1.045   6.051
 5586SOL    HW217439   4.508   1.007   5.935
 5587SOL     OW17440   4.142   0.815   6.837
 5587SOL    HW117441   4.211   0.824   6.903
 5587SOL    HW217442   4.107   0.727   6.851
 5588SOL     OW17443   4.992   0.380   6.855
 5588SOL    HW117444   5.025   0.458   6.900
 5588SOL    HW217445   4.901   0.401   6.833
 5589SOL     OW17446   3.794   1.573   6.938
 5589SOL    HW117447   3.763   1.646   6.884
 5589SOL    HW217448   3.889   1.578   6.933
 5590SOL     OW17449   4.075   1.108   6.077
 5590SOL    HW117450   4.079   1.182   6.016
 5590SOL    HW217451   4.072   1.030   6.021
 5591SOL     OW17452   4.278   0.538   6.447
 5591SOL    HW117453   4.294   0.596   6.372
 5591SOL    HW217454   4.343   0.565   6.512
 5592SOL     OW17455   4.972   1.349   5.974
 5592SOL    HW117456   5.026   1.421   6.004
 5592SOL    HW217457   4.884   1.368   6.007
 5593SOL     OW17458   4.993   1.456   6.725
 5593SOL    HW117459   5.048   1.458   6.803
 5593SOL    HW217460   4.939   1.378   6.736
 5594SOL     OW17461   4.071   1.526   6.902
 5594SOL    HW117462   4.058   1.484   6.817
 5594SOL    HW217463   4.166   1.538   6.909
 5595SOL     OW17464   4.138   0.745   7.188
 5595SOL    HW117465   4.199   0.790   7.130
 5595SOL    HW217466   4.179   0.660   7.204
 5596SOL     OW17467   4.750   0.115   7.342
 5596SOL    HW117468   4.793   0.196   7.317
 5596SOL    HW217469   4.791   0.047   7.288
 5597SOL     OW17470   4.204   0.057   7.323
 5597SOL    HW117471   4.147   5.293   7.282
 5597SOL    HW217472   4.145   0.129   7.347
 5598SOL     OW17473   4.308   0.872   6.617
 5598SOL    HW117474   4.337   0.964   6.615
 5598SOL    HW217475   4.250   0.867   6.694
 5599SOL     OW17476   5.086   0.858   6.623
 5599SOL    HW117477   5.008   0.842   6.569
 5599SOL    HW217478   5.135   0.776   6.619
 5600SOL     OW17479   4.931   0.531   5.853
 5600SOL    HW117480   4.934   0.451   5.904
 5600SOL    HW217481   4.886   0.594   5.910
 5601SOL     OW17482   4.021   0.204   6.833
 5601SOL    HW117483   3.983   0.243   6.911
 5601SOL    HW217484   4.019   0.110   6.849
 5602SOL     OW17485   3.770   1.311   6.863
 5602SOL    HW117486   3.803   1.257   6.934
 5602SOL    HW217487   3.777   1.400   6.895
 5603SOL     OW17488   4.450   0.632   6.646
 5603SOL    HW117489   4.523   0.614   6.587
 5603SOL    HW217490   4.421   0.721   6.623
 5604SOL     OW17491   4.025   0.073   6.234
 5604SOL    HW117492   4.010   0.167   6.244
 5604SOL    HW217493   4.065   0.046   6.317
 5605SOL     OW17494   0.028   0.406   5.951
 5605SOL    HW117495   0.060   0.344   6.017
 5605SOL    HW217496   0.004   0.483   6.001
 5606SOL     OW17497   4.752   0.759   6.547
 5606SOL    HW117498   4.750   0.777   6.641
 5606SOL    HW217499   4.725   0.667   6.539
 5607SOL     OW17500   4.699   1.562   7.299
 5607SOL    HW117501   4.688   1.609   7.217
 5607SOL    HW217502   4.747   1.482   7.274
 5608SOL     OW17503   4.077   0.914   7.396
 5608SOL    HW117504   4.161   0.935   7.438
 5608SOL    HW217505   4.101   0.853   7.326
 5609SOL     OW17506   5.028   0.830   5.623
 5609SOL    HW117507   5.063   0.741   5.623
 5609SOL    HW217508   5.054   0.865   5.538
 5610SOL     OW17509   4.789   1.334   6.441
 5610SOL    HW117510   4.792   1.262   6.378
 5610SOL    HW217511   4.848   1.401   6.405
 5611SOL     OW17512   4.033   0.809   6.534
 5611SOL    HW117513   4.126   0.831   6.527
 5611SOL    HW217514   4.032   0.719   6.566
 5612SOL     OW17515   4.057   0.525   6.598
 5612SOL    HW117516   4.020   0.438   6.582
 5612SOL    HW217517   4.133   0.530   6.541
 5613SOL     OW17518   4.862   0.377   7.274
 5613SOL    HW117519   4.813   0.432   7.335
 5613SOL    HW217520   4.946   0.422   7.265
 5614SOL     OW17521   4.849   0.232   7.044
 5614SOL    HW117522   4.860   0.282   7.125
 5614SOL    HW217523   4.912   0.270   6.984
 5615SOL     OW17524   3.729   1.322   5.781
 5615SOL    HW117525   3.642   1.336   5.743
 5615SOL    HW217526   3.726   1.232   5.814
 5616SOL     OW17527   3.814   1.788   6.523
 5616SOL    HW117528   3.784   1.708   6.480
 5616SOL    HW217529   3.904   1.800   6.492
 5617SOL     OW17530   4.221   1.573   6.492
 5617SOL    HW117531   4.290   1.636   6.516
 5617SOL    HW217532   4.266   1.509   6.436
 5618SOL     OW17533   4.709   0.794   6.814
 5618SOL    HW117534   4.763   0.769   6.888
 5618SOL    HW217535   4.623   0.755   6.832
 5619SOL     OW17536   3.759   0.543   6.703
 5619SOL    HW117537   3.839   0.528   6.653
 5619SOL    HW217538   3.789   0.548   6.794
 5620SOL     OW17539   3.913   0.520   7.312
 5620SOL    HW117540   3.974   0.486   7.248
 5620SOL    HW217541   3.870   0.593   7.268
 5621SOL     OW17542   5.110   0.938   7.253
 5621SOL    HW117543   5.119   1.033   7.242
 5621SOL    HW217544   5.113   0.904   7.163
 5622SOL     OW17545   4.539   0.573   5.944
 5622SOL    HW117546   4.540   0.497   5.886
 5622SOL    HW217547   4.464   0.624   5.915
 5623SOL     OW17548   3.968   1.552   7.314
 5623SOL    HW117549   3.945   1.616   7.382
 5623SOL    HW217550   3.969   1.468   7.361
 5624SOL     OW17551   4.419   0.453   6.848
 5624SOL    HW117552   4.370   0.379   6.813
 5624SOL    HW217553   4.421   0.516   6.776
 5625SOL     OW17554   4.647   1.680   7.054
 5625SOL    HW117555   4.624   1.649   6.966
 5625SOL    HW217556   4.648   1.775   7.046
 5626SOL     OW17557   4.188   0.493   5.771
 5626SOL    HW117558   4.247   0.565   5.793
 5626SOL    HW217559   4.103   0.535   5.761
 5627SOL     OW17560   3.871   1.140   7.058
 5627SOL    HW117561   3.873   1.088   7.138
 5627SOL    HW217562   3.888   1.077   6.988
 5628SOL     OW17563   5.055   1.050   6.811
 5628SOL    HW117564   5.076   0.985   6.743
 5628SOL    HW217565   4.982   1.100   6.774
 5629SOL     OW17566   5.035   0.858   5.902
 5629SOL    HW117567   4.952   0.827   5.939
 5629SOL    HW217568   5.022   0.851   5.808
 5630SOL     OW17569   4.960   1.731   6.708
 5630SOL    HW117570   5.046   1.751   6.670
 5630SOL    HW217571   4.960   1.636   6.718
 5631SOL     OW17572   3.808   1.267   6.599
 5631SOL    HW117573   3.794   1.279   6.692
 5631SOL    HW217574   3.734   1.212   6.570
 5632SOL     OW17575   4.400   1.663   7.311
 5632SOL    HW117576   4.351   1.745   7.309
 5632SOL    HW217577   4.469   1.675   7.246
 5633SOL     OW17578   5.111   1.570   6.065
 5633SOL    HW117579   5.180   1.610   6.013
 5633SOL    HW217580   5.062   1.644   6.101
 5634SOL     OW17581   3.859   1.796   7.430
 5634SOL    HW117582   3.809   1.732   7.479
 5634SOL    HW217583   3.908   1.845   7.497
 5635SOL     OW17584   5.015   0.919   6.259
 5635SOL    HW117585   5.093   0.864   6.245
 5635SOL    HW217586   5.034   0.999   6.210
 5636SOL     OW17587   4.540   1.273   7.017
 5636SOL    HW117588   4.512   1.312   7.100
 5636SOL    HW217589   4.470   1.295   6.955
 5637SOL     OW17590   4.395   1.619   5.741
 5637SOL    HW117591   4.406   1.631   5.647
 5637SOL    HW217592   4.341   1.541   5.750
 5638SOL     OW17593   3.987   0.329   6.306
 5638SOL    HW117594   3.899   0.360   6.283
 5638SOL    HW217595   3.984   0.317   6.400
 5639SOL     OW17596   4.909   1.609   5.627
 5639SOL    HW117597   4.920   1.515   5.638
 5639SOL    HW217598   4.855   1.618   5.549
 5640SOL     OW17599   4.548   1.006   6.958
 5640SOL    HW117600   4.591   1.002   6.873
 5640SOL    HW217601   4.548   1.099   6.981
 5641SOL     OW17602   4.640   0.911   5.876
 5641SOL    HW117603   4.702   0.943   5.810
 5641SOL    HW217604   4.686   0.840   5.920
 5642SOL     OW17605   4.093   1.302   7.078
 5642SOL    HW117606   4.080   1.379   7.023
 5642SOL    HW217607   4.016   1.248   7.061
 5643SOL     OW17608   4.775   1.106   6.292
 5643SOL    HW117609   4.704   1.056   6.333
 5643SOL    HW217610   4.832   1.040   6.254
 5644SOL     OW17611   4.739   0.242   6.556
 5644SOL    HW117612   4.721   0.197   6.474
 5644SOL    HW217613   4.733   0.174   6.623
 5645SOL     OW17614   4.326   1.488   6.068
 5645SOL    HW117615   4.369   1.438   5.999
 5645SOL    HW217616   4.258   1.538   6.023
 5646SOL     OW17617   3.983   1.346   5.874
 5646SOL    HW117618   3.890   1.344   5.851
 5646SOL    HW217619   3.985   1.382   5.962
 5647SOL     OW17620   3.837   1.020   7.305
 5647SOL    HW117621   3.760   0.998   7.358
 5647SOL    HW217622   3.910   0.983   7.354
 5648SOL     OW17623   4.396   0.212   7.075
 5648SOL    HW117624   4.479   0.191   7.032
 5648SOL    HW217625   4.421   0.259   7.154
 5649SOL     OW17626   3.801   0.340   5.627
 5649SOL    HW117627   3.717   0.307   5.594
 5649SOL    HW217628   3.822   0.413   5.569
 5650SOL     OW17629   5.163   0.859   6.989
 5650SOL    HW117630   5.110   0.915   6.933
 5650SOL    HW217631   5.252   0.871   6.957
 5651SOL     OW17632   3.796   0.167   5.902
 5651SOL    HW117633   3.796   0.250   5.854
 5651SOL    HW217634   3.881   0.127   5.882
 5652SOL     OW17635   4.907   1.330   5.700
 5652SOL    HW117636   4.813   1.312   5.701
 5652SOL    HW217637   4.931   1.337   5.793
 5653SOL     OW17638   4.343   0.831   7.019
 5653SOL    HW117639   4.398   0.907   7.004
 5653SOL    HW217640   4.404   0.758   7.027
 5654SOL     OW17641   4.439   0.571   7.290
 5654SOL    HW117642   4.479   0.633   7.352
 5654SOL    HW217643   4.470   0.485   7.318
 5655SOL     OW17644   5.182   1.204   7.217
 5655SOL    HW117645   5.172   1.216   7.312
 5655SOL    HW217646   5.276   1.212   7.202
 5656SOL     OW17647   4.104   1.740   7.150
 5656SOL    HW117648   4.019   1.780   7.137
 5656SOL    HW217649   4.085   1.656   7.192
 5657SOL     OW17650   4.942   0.323   6.047
 5657SOL    HW117651   4.998   0.246   6.040
 5657SOL    HW217652   4.973   0.368   6.126
 5658SOL     OW17653   4.315   0.739   6.255
 5658SOL    HW117654   4.353   0.825   6.238
 5658SOL    HW217655   4.246   0.730   6.189
 5659SOL     OW17656   4.591   1.367   5.620
 5659SOL    HW117657   4.549   1.396   5.700
 5659SOL    HW217658   4.607   1.447   5.570
 5660SOL     OW17659   4.383   1.792   6.531
 5660SOL    HW117660   4.364   1.883   6.508
 5660SOL    HW217661   4.479   1.786   6.525
 5661SOL     OW17662   4.591   0.967   6.442
 5661SOL    HW117663   4.641   0.895   6.482
 5661SOL    HW217664   4.557   1.016   6.516
 5662SOL     OW17665   4.807   0.988   5.676
 5662SOL    HW117666   4.782   1.037   5.598
 5662SOL    HW217667   4.881   0.934   5.648
 5663SOL     OW17668   3.949   1.304   7.443
 5663SOL    HW117669   3.881   1.244   7.413
 5663SOL    HW217670   3.930   1.317   7.536
 5664SOL     OW17671   3.808   1.234   6.250
 5664SOL    HW117672   3.812   1.185   6.332
 5664SOL    HW217673   3.876   1.196   6.196
 5665SOL     OW17674   4.404   1.401   7.213
 5665SOL    HW117675   4.324   1.359   7.244
 5665SOL    HW217676   4.401   1.489   7.249
 5666SOL     OW17677   4.154   0.435   6.110
 5666SOL    HW117678   4.185   0.362   6.056
 5666SOL    HW217679   4.108   0.393   6.182
 5667SOL     OW17680   0.096   1.521   6.685
 5667SOL    HW117681   0.028   1.495   6.623
 5667SOL    HW217682   0.106   1.445   6.743
 5668SOL     OW17683   4.052   0.555   6.876
 5668SOL    HW117684   4.108   0.500   6.931
 5668SOL    HW217685   4.072   0.528   6.787
 5669SOL     OW17686   4.551   1.577   6.264
 5669SOL    HW117687   4.541   1.629   6.184
 5669SOL    HW217688   4.473   1.522   6.266
 5670SOL     OW17689   5.151   0.216   6.706
 5670SOL    HW117690   5.160   0.133   6.753
 5670SOL    HW217691   5.105   0.274   6.767
 5671SOL     OW17692   4.725   0.021   6.727
 5671SOL    HW117693   4.674   5.251   6.686
 5671SOL    HW217694   4.812   5.284   6.738
 5672SOL     OW17695   4.494   1.332   5.900
 5672SOL    HW117696   4.463   1.242   5.906
 5672SOL    HW217697   4.577   1.332   5.948
 5673SOL     OW17698   4.344   1.557   6.871
 5673SOL    HW117699   4.346   1.639   6.920
 5673SOL    HW217700   4.431   1.549   6.833
 5674SOL     OW17701   5.036   0.036   5.747
 5674SOL    HW117702   5.117   0.028   5.696
 5674SOL    HW217703   4.984   5.260   5.721
 5675SOL     OW17704   5.029   0.461   6.272
 5675SOL    HW117705   4.972   0.538   6.276
 5675SOL    HW217706   5.017   0.418   6.357
 5676SOL     OW17707   5.296   0.214   6.467
 5676SOL    HW117708   5.236   0.216   6.543
 5676SOL    HW217709   5.279   0.296   6.421
 5677SOL     OW17710   3.768   1.072   5.892
 5677SOL    HW117711   3.861   1.063   5.874
 5677SOL    HW217712   3.739   0.983   5.914
 5678SOL     OW17713   4.604   1.649   5.932
 5678SOL    HW117714   4.534   1.634   5.869
 5678SOL    HW217715   4.576   1.726   5.981
 5679SOL     OW17716   3.952   0.620   7.571
 5679SOL    HW117717   3.862   0.628   7.602
 5679SOL    HW217718   3.944   0.597   7.479
 5680SOL     OW17719   3.945   1.718   7.919
 5680SOL    HW117720   3.974   1.761   7.999
 5680SOL    HW217721   4.022   1.715   7.863
 5681SOL     OW17722   3.942   1.438   7.990
 5681SOL    HW117723   3.927   1.532   7.991
 5681SOL    HW217724   3.882   1.403   8.056
 5682SOL     OW17725   4.312   0.981   7.578
 5682SOL    HW117726   4.355   1.033   7.510
 5682SOL    HW217727   4.350   1.013   7.660
 5683SOL     OW17728   3.753   1.599   7.577
 5683SOL    HW117729   3.738   1.506   7.592
 5683SOL    HW217730   3.726   1.642   7.659
 5684SOL     OW17731   0.118   0.924   8.015
 5684SOL    HW117732   0.211   0.916   8.037
 5684SOL    HW217733   0.106   1.017   7.998
 5685SOL     OW17734   4.534   5.291   7.947
 5685SOL    HW117735   4.575   0.076   7.931
 5685SOL    HW217736   4.440   0.009   7.942
 5686SOL     OW17737   4.315   0.725   7.709
 5686SOL    HW117738   4.319   0.807   7.658
 5686SOL    HW217739   4.254   0.744   7.780
 5687SOL     OW17740   3.786   0.863   0.091
 5687SOL    HW117741   3.850   0.798   0.120
 5687SOL    HW217742   3.778   0.923   0.165
 5688SOL     OW17743   4.588   0.355   7.634
 5688SOL    HW117744   4.632   0.416   7.574
 5688SOL    HW217745   4.646   0.279   7.637
 5689SOL     OW17746   4.047   0.956   7.697
 5689SOL    HW117747   4.127   0.974   7.647
 5689SOL    HW217748   4.011   0.877   7.657
 5690SOL     OW17749   4.837   1.776   7.684
 5690SOL    HW117750   4.764   1.733   7.727
 5690SOL    HW217751   4.861   1.717   7.613
 5691SOL     OW17752   4.191   1.738   7.769
 5691SOL    HW117753   4.239   1.791   7.833
 5691SOL    HW217754   4.259   1.703   7.711
 5692SOL     OW17755   5.115   0.113   7.873
 5692SOL    HW117756   5.087   0.090   7.784
 5692SOL    HW217757   5.210   0.100   7.872
 5693SOL     OW17758   4.114   0.696   7.918
 5693SOL    HW117759   4.122   0.601   7.926
 5693SOL    HW217760   4.023   0.714   7.942
 5694SOL     OW17761   4.341   0.131   7.560
 5694SOL    HW117762   4.421   0.080   7.574
 5694SOL    HW217763   4.297   0.088   7.487
 5695SOL     OW17764   4.270   0.064   7.952
 5695SOL    HW117765   4.178   0.048   7.974
 5695SOL    HW217766   4.268   0.136   7.890
 5696SOL     OW17767   5.138   1.178   7.488
 5696SOL    HW117768   5.155   1.109   7.552
 5696SOL    HW217769   5.051   1.211   7.511
 5697SOL     OW17770   4.029   0.071   7.658
 5697SOL    HW117771   4.081   0.128   7.601
 5697SOL    HW217772   4.077   5.288   7.661
 5698SOL     OW17773   4.673   0.230   7.911
 5698SOL    HW117774   4.620   0.293   7.863
 5698SOL    HW217775   4.759   0.272   7.918
 5699SOL     OW17776   4.166   1.150   0.100
 5699SOL    HW117777   4.090   1.183   0.147
 5699SOL    HW217778   4.134   1.136   0.010
 5700SOL     OW17779   5.007   1.805   8.013
 5700SOL    HW117780   5.046   1.871   7.956
 5700SOL    HW217781   4.938   1.851   8.060
 5701SOL     OW17782   4.757   0.553   7.462
 5701SOL    HW117783   4.706   0.633   7.448
 5701SOL    HW217784   4.804   0.569   7.544
 5702SOL     OW17785   4.213   1.415   7.606
 5702SOL    HW117786   4.139   1.386   7.659
 5702SOL    HW217787   4.195   1.381   7.518
 5703SOL     OW17788   5.127   0.560   7.529
 5703SOL    HW117789   5.051   0.552   7.587
 5703SOL    HW217790   5.200   0.524   7.579
 5704SOL     OW17791   4.249   0.270   7.773
 5704SOL    HW117792   4.289   0.216   7.705
 5704SOL    HW217793   4.229   0.353   7.730
 5705SOL     OW17794   4.436   1.062   7.812
 5705SOL    HW117795   4.410   1.049   7.903
 5705SOL    HW217796   4.515   1.009   7.801
 5706SOL     OW17797   4.090   1.101   7.928
 5706SOL    HW117798   4.071   1.180   7.878
 5706SOL    HW217799   4.076   1.029   7.866
 5707SOL     OW17800   4.959   1.357   7.820
 5707SOL    HW117801   5.017   1.427   7.850
 5707SOL    HW217802   4.902   1.340   7.894
 5708SOL     OW17803   0.026   0.639   7.936
 5708SOL    HW117804   5.276   0.682   8.006
 5708SOL    HW217805   0.048   0.710   7.875
 5709SOL     OW17806   4.929   0.530   7.715
 5709SOL    HW117807   4.933   0.444   7.758
 5709SOL    HW217808   4.896   0.589   7.783
 5710SOL     OW17809   0.031   0.404   7.805
 5710SOL    HW117810   0.031   0.337   7.874
 5710SOL    HW217811   0.021   0.486   7.852
 5711SOL     OW17812   5.034   0.832   7.490
 5711SOL    HW117813   5.062   0.741   7.486
 5711SOL    HW217814   5.056   0.868   7.404
 5712SOL     OW17815   3.730   1.324   7.640
 5712SOL    HW117816   3.642   1.337   7.603
 5712SOL    HW217817   3.729   1.235   7.674
 5713SOL     OW17818   4.561   0.599   7.763
 5713SOL    HW117819   4.550   0.509   7.735
 5713SOL    HW217820   4.472   0.635   7.764
 5714SOL     OW17821   4.186   0.495   7.638
 5714SOL    HW117822   4.245   0.568   7.655
 5714SOL    HW217823   4.101   0.536   7.623
 5715SOL     OW17824   5.033   0.846   7.772
 5715SOL    HW117825   4.940   0.857   7.792
 5715SOL    HW217826   5.038   0.847   7.677
 5716SOL     OW17827   5.102   1.573   7.907
 5716SOL    HW117828   5.197   1.586   7.901
 5716SOL    HW217829   5.069   1.653   7.947
 5717SOL     OW17830   4.390   1.619   7.604
 5717SOL    HW117831   4.403   1.630   7.509
 5717SOL    HW217832   4.339   1.539   7.612
 5718SOL     OW17833   4.912   1.611   7.486
 5718SOL    HW117834   4.920   1.517   7.501
 5718SOL    HW217835   4.853   1.618   7.411
 5719SOL     OW17836   4.655   0.910   7.758
 5719SOL    HW117837   4.705   0.934   7.680
 5719SOL    HW217838   4.645   0.815   7.751
 5720SOL     OW17839   4.328   1.506   7.936
 5720SOL    HW117840   4.372   1.444   7.878
 5720SOL    HW217841   4.256   1.542   7.884
 5721SOL     OW17842   3.982   1.347   7.740
 5721SOL    HW117843   3.889   1.345   7.715
 5721SOL    HW217844   3.982   1.383   7.829
 5722SOL     OW17845   3.799   0.339   7.490
 5722SOL    HW117846   3.716   0.308   7.453
 5722SOL    HW217847   3.823   0.414   7.435
 5723SOL     OW17848   3.788   0.182   7.747
 5723SOL    HW117849   3.785   0.257   7.688
 5723SOL    HW217850   3.868   0.135   7.722
 5724SOL     OW17851   4.906   1.330   7.556
 5724SOL    HW117852   4.811   1.316   7.556
 5724SOL    HW217853   4.929   1.342   7.648
 5725SOL     OW17854   5.265   1.743   0.321
 5725SOL    HW117855   5.268   1.829   0.280
 5725SOL    HW217856   0.036   1.744   0.385
 5726SOL     OW17857   4.945   0.325   7.909
 5726SOL    HW117858   5.007   0.252   7.906
 5726SOL    HW217859   4.956   0.363   7.995
 5727SOL     OW17860   4.349   0.736   8.056
 5727SOL    HW117861   4.354   0.819   0.024
 5727SOL    HW217862   4.261   0.736   8.018
 5728SOL     OW17863   4.591   1.366   7.481
 5728SOL    HW117864   4.550   1.394   7.564
 5728SOL    HW217865   4.607   1.448   7.434
 5729SOL     OW17866   4.802   0.979   7.539
 5729SOL    HW117867   4.778   1.033   7.464
 5729SOL    HW217868   4.880   0.932   7.511
 5730SOL     OW17869   4.113   0.420   7.983
 5730SOL    HW117870   4.165   0.369   7.922
 5730SOL    HW217871   4.161   0.416   8.066
 5731SOL     OW17872   4.490   1.334   7.757
 5731SOL    HW117873   4.459   1.244   7.761
 5731SOL    HW217874   4.568   1.335   7.813
 5732SOL     OW17875   5.037   0.040   7.613
 5732SOL    HW117876   5.115   0.030   7.558
 5732SOL    HW217877   4.986   5.261   7.597
 5733SOL     OW17878   3.774   1.079   7.750
 5733SOL    HW117879   3.868   1.068   7.736
 5733SOL    HW217880   3.742   0.990   7.766
 5734SOL     OW17881   4.613   1.647   7.783
 5734SOL    HW117882   4.537   1.626   7.729
 5734SOL    HW217883   4.582   1.712   7.846
 5735SOL     OW17884   3.946   2.485   0.122
 5735SOL    HW117885   3.865   2.452   0.159
 5735SOL    HW217886   3.967   2.425   0.051
 5736SOL     OW17887   3.949   2.142   0.991
 5736SOL    HW117888   3.977   2.109   1.076
 5736SOL    HW217889   3.859   2.110   0.982
 5737SOL     OW17890   3.729   2.245   0.638
 5737SOL    HW117891   3.646   2.270   0.679
 5737SOL    HW217892   3.708   2.164   0.590
 5738SOL     OW17893   4.291   3.148   1.174
 5738SOL    HW117894   4.203   3.152   1.136
 5738SOL    HW217895   4.306   3.236   1.207
 5739SOL     OW17896   5.283   3.406   0.707
 5739SOL    HW117897   5.246   3.355   0.778
 5739SOL    HW217898   5.223   3.390   0.633
 5740SOL     OW17899   4.858   2.561   0.701
 5740SOL    HW117900   4.908   2.642   0.690
 5740SOL    HW217901   4.809   2.574   0.783
 5741SOL     OW17902   4.480   3.005   1.039
 5741SOL    HW117903   4.411   3.039   1.096
 5741SOL    HW217904   4.515   3.082   0.995
 5742SOL     OW17905   4.591   2.638   1.822
 5742SOL    HW117906   4.574   2.710   1.883
 5742SOL    HW217907   4.613   2.682   1.740
 5743SOL     OW17908   4.409   2.865   0.650
 5743SOL    HW117909   4.474   2.853   0.719
 5743SOL    HW217910   4.340   2.917   0.691
 5744SOL     OW17911   4.434   3.013   1.811
 5744SOL    HW117912   4.481   3.092   1.838
 5744SOL    HW217913   4.351   3.046   1.776
 5745SOL     OW17914   4.055   3.289   1.068
 5745SOL    HW117915   3.982   3.252   1.017
 5745SOL    HW217916   4.106   3.339   1.004
 5746SOL     OW17917   5.160   3.344   1.349
 5746SOL    HW117918   5.204   3.425   1.375
 5746SOL    HW217919   5.110   3.318   1.427
 5747SOL     OW17920   4.172   2.260   1.489
 5747SOL    HW117921   4.247   2.201   1.494
 5747SOL    HW217922   4.096   2.204   1.501
 5748SOL     OW17923   3.944   3.576   0.472
 5748SOL    HW117924   3.966   3.652   0.526
 5748SOL    HW217925   4.018   3.567   0.412
 5749SOL     OW17926   4.860   3.201   1.693
 5749SOL    HW117927   4.899   3.198   1.781
 5749SOL    HW217928   4.806   3.122   1.688
 5750SOL     OW17929   3.950   3.302   0.530
 5750SOL    HW117930   3.937   3.397   0.535
 5750SOL    HW217931   3.891   3.267   0.597
 5751SOL     OW17932   3.979   2.952   0.890
 5751SOL    HW117933   3.977   2.866   0.932
 5751SOL    HW217934   3.922   3.007   0.944
 5752SOL     OW17935   4.334   3.654   1.427
 5752SOL    HW117936   4.254   3.636   1.475
 5752SOL    HW217937   4.359   3.743   1.454
 5753SOL     OW17938   4.355   2.823   0.131
 5753SOL    HW117939   4.303   2.900   0.106
 5753SOL    HW217940   4.404   2.852   0.209
 5754SOL     OW17941   3.838   2.512   0.562
 5754SOL    HW117942   3.809   2.423   0.583
 5754SOL    HW217943   3.830   2.560   0.644
 5755SOL     OW17944   3.751   3.458   0.111
 5755SOL    HW117945   3.739   3.370   0.146
 5755SOL    HW217946   3.736   3.516   0.186
 5756SOL     OW17947   0.114   2.807   0.593
 5756SOL    HW117948   0.202   2.770   0.593
 5756SOL    HW217949   0.116   2.874   0.524
 5757SOL     OW17950   3.846   2.604   1.586
 5757SOL    HW117951   3.939   2.628   1.596
 5757SOL    HW217952   3.799   2.687   1.594
 5758SOL     OW17953   4.337   3.247   0.735
 5758SOL    HW117954   4.291   3.163   0.744
 5758SOL    HW217955   4.321   3.273   0.644
 5759SOL     OW17956   5.008   3.099   1.425
 5759SOL    HW117957   5.041   3.033   1.365
 5759SOL    HW217958   5.063   3.091   1.503
 5760SOL     OW17959   4.539   1.863   0.510
 5760SOL    HW117960   4.578   1.948   0.489
 5760SOL    HW217961   4.445   1.882   0.518
 5761SOL     OW17962   3.915   2.829   1.270
 5761SOL    HW117963   3.999   2.787   1.255
 5761SOL    HW217964   3.851   2.773   1.226
 5762SOL     OW17965   4.897   3.669   1.623
 5762SOL    HW117966   4.920   3.727   1.550
 5762SOL    HW217967   4.918   3.581   1.590
 5763SOL     OW17968   4.056   2.112   1.809
 5763SOL    HW117969   4.101   2.195   1.826
 5763SOL    HW217970   3.967   2.127   1.842
 5764SOL     OW17971   5.169   3.296   0.938
 5764SOL    HW117972   5.107   3.302   1.010
 5764SOL    HW217973   5.163   3.205   0.908
 5765SOL     OW17974   4.322   2.577   0.282
 5765SOL    HW117975   4.340   2.653   0.227
 5765SOL    HW217976   4.257   2.608   0.345
 5766SOL     OW17977   4.997   2.198   0.920
 5766SOL    HW117978   4.908   2.168   0.941
 5766SOL    HW217979   5.051   2.164   0.991
 5767SOL     OW17980   4.515   2.480   1.452
 5767SOL    HW117981   4.489   2.456   1.541
 5767SOL    HW217982   4.474   2.413   1.396
 5768SOL     OW17983   5.115   2.341   1.680
 5768SOL    HW117984   5.116   2.379   1.768
 5768SOL    HW217985   5.190   2.281   1.680
 5769SOL     OW17986   4.679   2.750   1.582
 5769SOL    HW117987   4.732   2.679   1.547
 5769SOL    HW217988   4.631   2.784   1.506
 5770SOL     OW17989   4.715   2.275   1.239
 5770SOL    HW117990   4.630   2.297   1.277
 5770SOL    HW217991   4.694   2.228   1.158
 5771SOL     OW17992   4.776   2.559   0.426
 5771SOL    HW117993   4.791   2.555   0.521
 5771SOL    HW217994   4.693   2.513   0.412
 5772SOL     OW17995   3.813   2.683   0.776
 5772SOL    HW117996   3.894   2.676   0.826
 5772SOL    HW217997   3.770   2.761   0.811
 5773SOL     OW17998   3.851   3.705   1.577
 5773SOL    HW117999   3.851   3.686   1.670
 5773SOL    HW218000   3.759   3.704   1.551
 5774SOL     OW18001   4.608   2.219   0.200
 5774SOL    HW118002   4.653   2.267   0.130
 5774SOL    HW218003   4.609   2.128   0.171
 5775SOL     OW18004   5.094   3.008   0.548
 5775SOL    HW118005   5.177   3.001   0.501
 5775SOL    HW218006   5.041   3.068   0.494
 5776SOL     OW18007   4.273   2.045   0.893
 5776SOL    HW118008   4.276   2.072   0.984
 5776SOL    HW218009   4.276   2.126   0.843
 5777SOL     OW18010   4.731   3.307   0.474
 5777SOL    HW118011   4.691   3.378   0.424
 5777SOL    HW218012   4.713   3.329   0.565
 5778SOL     OW18013   4.078   3.670   0.861
 5778SOL    HW118014   4.122   3.585   0.869
 5778SOL    HW218015   4.147   3.735   0.878
 5779SOL     OW18016   4.940   3.406   1.520
 5779SOL    HW118017   4.928   3.331   1.579
 5779SOL    HW218018   4.887   3.385   1.443
 5780SOL     OW18019   4.051   2.803   0.253
 5780SOL    HW118020   4.121   2.846   0.203
 5780SOL    HW218021   4.051   2.713   0.222
 5781SOL     OW18022   4.189   3.126   1.738
 5781SOL    HW118023   4.162   3.130   1.646
 5781SOL    HW218024   4.107   3.125   1.787
 5782SOL     OW18025   4.826   3.636   0.225
 5782SOL    HW118026   4.771   3.596   0.293
 5782SOL    HW218027   4.842   3.566   0.162
 5783SOL     OW18028   3.924   2.144   1.500
 5783SOL    HW118029   3.842   2.193   1.495
 5783SOL    HW218030   3.908   2.077   1.567
 5784SOL     OW18031   4.189   3.600   0.323
 5784SOL    HW118032   4.230   3.659   0.386
 5784SOL    HW218033   4.260   3.574   0.264
 5785SOL     OW18034   5.118   1.987   0.438
 5785SOL    HW118035   5.101   1.968   0.345
 5785SOL    HW218036   5.213   1.994   0.444
 5786SOL     OW18037   3.978   3.653   1.232
 5786SOL    HW118038   4.031   3.589   1.280
 5786SOL    HW218039   3.970   3.618   1.144
 5787SOL     OW18040   4.662   3.560   0.900
 5787SOL    HW118041   4.742   3.510   0.917
 5787SOL    HW218042   4.617   3.511   0.831
 5788SOL     OW18043   4.110   2.559   0.477
 5788SOL    HW118044   4.135   2.468   0.487
 5788SOL    HW218045   4.017   2.561   0.500
 5789SOL     OW18046   4.353   1.974   0.135
 5789SOL    HW118047   4.448   1.961   0.141
 5789SOL    HW218048   4.333   1.954   0.043
 5790SOL     OW18049   4.491   2.140   1.754
 5790SOL    HW118050   4.566   2.081   1.756
 5790SOL    HW218051   4.441   2.120   1.833
 5791SOL     OW18052   4.600   3.383   1.194
 5791SOL    HW118053   4.585   3.348   1.106
 5791SOL    HW218054   4.670   3.329   1.230
 5792SOL     OW18055   5.058   2.453   1.432
 5792SOL    HW118056   5.091   2.420   1.516
 5792SOL    HW218057   5.100   2.538   1.421
 5793SOL     OW18058   4.538   3.257   0.938
 5793SOL    HW118059   4.622   3.247   0.894
 5793SOL    HW218060   4.474   3.258   0.867
 5794SOL     OW18061   4.651   2.371   0.903
 5794SOL    HW118062   4.628   2.362   0.810
 5794SOL    HW218063   4.683   2.284   0.928
 5795SOL     OW18064   4.273   1.925   0.506
 5795SOL    HW118065   4.192   1.925   0.557
 5795SOL    HW218066   4.267   2.003   0.452
 5796SOL     OW18067   5.141   3.035   0.042
 5796SOL    HW118068   5.143   2.964   0.106
 5796SOL    HW218069   5.056   3.077   0.056
 5797SOL     OW18070   4.034   1.916   0.168
 5797SOL    HW118071   4.098   1.985   0.183
 5797SOL    HW218072   4.071   1.839   0.211
 5798SOL     OW18073   4.661   2.108   0.460
 5798SOL    HW118074   4.633   2.149   0.378
 5798SOL    HW218075   4.755   2.124   0.464
 5799SOL     OW18076   4.801   2.543   1.461
 5799SOL    HW118077   4.733   2.475   1.463
 5799SOL    HW218078   4.883   2.494   1.451
 5800SOL     OW18079   4.941   3.434   0.796
 5800SOL    HW118080   4.964   3.499   0.729
 5800SOL    HW218081   5.021   3.421   0.846
 5801SOL     OW18082   4.191   3.011   0.735
 5801SOL    HW118083   4.122   2.992   0.798
 5801SOL    HW218084   4.151   2.995   0.649
 5802SOL     OW18085   4.993   3.656   0.604
 5802SOL    HW118086   5.038   3.720   0.547
 5802SOL    HW218087   4.929   3.708   0.652
 5803SOL     OW18088   4.759   2.394   0.027
 5803SOL    HW118089   4.711   2.473   0.001
 5803SOL    HW218090   4.817   2.424   0.097
 5804SOL     OW18091   3.802   2.417   1.392
 5804SOL    HW118092   3.894   2.415   1.365
 5804SOL    HW218093   3.798   2.487   1.457
 5805SOL     OW18094   4.284   2.089   1.165
 5805SOL    HW118095   4.325   2.012   1.204
 5805SOL    HW218096   4.193   2.086   1.195
 5806SOL     OW18097   4.592   2.321   0.639
 5806SOL    HW118098   4.549   2.376   0.574
 5806SOL    HW218099   4.613   2.240   0.591
 5807SOL     OW18100   4.739   1.914   0.752
 5807SOL    HW118101   4.680   1.907   0.677
 5807SOL    HW218102   4.717   1.839   0.806
 5808SOL     OW18103   5.158   3.037   0.850
 5808SOL    HW118104   5.102   2.961   0.863
 5808SOL    HW218105   5.169   3.044   0.756
 5809SOL     OW18106   4.207   3.300   0.172
 5809SOL    HW118107   4.135   3.258   0.219
 5809SOL    HW218108   4.211   3.255   0.088
 5810SOL     OW18109   5.125   2.446   0.077
 5810SOL    HW118110   5.066   2.421   0.148
 5810SOL    HW218111   5.194   2.381   0.079
 5811SOL     OW18112   4.242   2.125   0.324
 5811SOL    HW118113   4.291   2.073   0.261
 5811SOL    HW218114   4.230   2.210   0.281
 5812SOL     OW18115   4.782   3.215   1.333
 5812SOL    HW118116   4.707   3.185   1.384
 5812SOL    HW218117   4.857   3.173   1.374
 5813SOL     OW18118   0.006   3.466   1.618
 5813SOL    HW118119   0.040   3.473   1.528
 5813SOL    HW218120   0.083   3.446   1.671
 5814SOL     OW18121   4.851   3.064   1.107
 5814SOL    HW118122   4.791   3.101   1.171
 5814SOL    HW218123   4.818   3.094   1.023
 5815SOL     OW18124   4.642   1.961   1.397
 5815SOL    HW118125   4.664   1.942   1.306
 5815SOL    HW218126   4.721   1.999   1.434
 5816SOL     OW18127   4.708   2.975   1.725
 5816SOL    HW118128   4.616   2.992   1.744
 5816SOL    HW218129   4.707   2.898   1.667
 5817SOL     OW18130   4.437   2.924   0.380
 5817SOL    HW118131   4.420   2.907   0.472
 5817SOL    HW218132   4.515   2.872   0.360
 5818SOL     OW18133   4.142   2.676   1.251
 5818SOL    HW118134   4.210   2.686   1.317
 5818SOL    HW218135   4.107   2.588   1.266
 5819SOL     OW18136   4.989   2.238   1.275
 5819SOL    HW118137   5.024   2.317   1.317
 5819SOL    HW218138   4.900   2.261   1.250
 5820SOL     OW18139   3.794   3.435   1.351
 5820SOL    HW118140   3.763   3.509   1.299
 5820SOL    HW218141   3.889   3.440   1.347
 5821SOL     OW18142   4.070   2.971   0.492
 5821SOL    HW118143   4.077   3.044   0.431
 5821SOL    HW218144   4.079   2.893   0.437
 5822SOL     OW18145   4.277   2.399   0.860
 5822SOL    HW118146   4.293   2.457   0.786
 5822SOL    HW218147   4.342   2.426   0.926
 5823SOL     OW18148   4.971   3.209   0.392
 5823SOL    HW118149   5.027   3.281   0.420
 5823SOL    HW218150   4.884   3.231   0.424
 5824SOL     OW18151   4.993   3.318   1.139
 5824SOL    HW118152   5.048   3.321   1.217
 5824SOL    HW218153   4.940   3.239   1.150
 5825SOL     OW18154   4.071   3.388   1.316
 5825SOL    HW118155   4.059   3.346   1.231
 5825SOL    HW218156   4.166   3.400   1.323
 5826SOL     OW18157   4.138   2.607   1.602
 5826SOL    HW118158   4.199   2.652   1.544
 5826SOL    HW218159   4.178   2.521   1.617
 5827SOL     OW18160   4.718   1.985   1.756
 5827SOL    HW118161   4.774   2.057   1.727
 5827SOL    HW218162   4.766   1.906   1.731
 5828SOL     OW18163   4.222   1.904   1.747
 5828SOL    HW118164   4.180   1.849   1.681
 5828SOL    HW218165   4.162   1.978   1.759
 5829SOL     OW18166   4.306   2.735   1.031
 5829SOL    HW118167   4.338   2.825   1.030
 5829SOL    HW218168   4.250   2.730   1.108
 5830SOL     OW18169   5.085   2.719   1.039
 5830SOL    HW118170   5.010   2.704   0.982
 5830SOL    HW218171   5.137   2.639   1.033
 5831SOL     OW18172   4.933   2.393   0.270
 5831SOL    HW118173   4.935   2.313   0.321
 5831SOL    HW218174   4.886   2.456   0.326
 5832SOL     OW18175   4.023   2.061   1.246
 5832SOL    HW118176   3.986   2.094   1.328
 5832SOL    HW218177   4.004   1.967   1.247
 5833SOL     OW18178   3.770   3.173   1.276
 5833SOL    HW118179   3.803   3.119   1.348
 5833SOL    HW218180   3.777   3.262   1.309
 5834SOL     OW18181   4.448   2.493   1.058
 5834SOL    HW118182   4.523   2.476   1.001
 5834SOL    HW218183   4.421   2.582   1.037
 5835SOL     OW18184   4.026   1.927   0.623
 5835SOL    HW118185   4.008   2.018   0.647
 5835SOL    HW218186   4.033   1.881   0.707
 5836SOL     OW18187   0.046   2.240   0.358
 5836SOL    HW118188   0.062   2.182   0.432
 5836SOL    HW218189   0.014   2.321   0.398
 5837SOL     OW18190   4.750   2.621   0.960
 5837SOL    HW118191   4.750   2.639   1.054
 5837SOL    HW218192   4.725   2.529   0.953
 5838SOL     OW18193   4.698   3.423   1.713
 5838SOL    HW118194   4.687   3.471   1.631
 5838SOL    HW218195   4.747   3.345   1.689
 5839SOL     OW18196   4.077   2.777   1.809
 5839SOL    HW118197   4.160   2.797   1.853
 5839SOL    HW218198   4.101   2.715   1.740
 5840SOL     OW18199   5.029   2.696   0.028
 5840SOL    HW118200   5.061   2.607   0.045
 5840SOL    HW218201   5.059   2.715   8.019
 5841SOL     OW18202   4.789   3.196   0.855
 5841SOL    HW118203   4.792   3.124   0.792
 5841SOL    HW218204   4.848   3.262   0.819
 5842SOL     OW18205   4.033   2.671   0.947
 5842SOL    HW118206   4.126   2.693   0.942
 5842SOL    HW218207   4.032   2.582   0.981
 5843SOL     OW18208   4.056   2.387   1.012
 5843SOL    HW118209   4.021   2.299   0.997
 5843SOL    HW218210   4.132   2.393   0.955
 5844SOL     OW18211   4.857   2.239   1.680
 5844SOL    HW118212   4.810   2.294   1.743
 5844SOL    HW218213   4.944   2.278   1.675
 5845SOL     OW18214   4.885   2.065   1.469
 5845SOL    HW118215   4.874   2.127   1.541
 5845SOL    HW218216   4.923   2.117   1.398
 5846SOL     OW18217   3.734   3.187   0.191
 5846SOL    HW118218   3.647   3.200   0.153
 5846SOL    HW218219   3.733   3.096   0.222
 5847SOL     OW18220   3.814   3.650   0.937
 5847SOL    HW118221   3.784   3.570   0.893
 5847SOL    HW218222   3.904   3.662   0.906
 5848SOL     OW18223   4.221   3.435   0.906
 5848SOL    HW118224   4.290   3.498   0.930
 5848SOL    HW218225   4.266   3.372   0.850
 5849SOL     OW18226   4.708   2.655   1.227
 5849SOL    HW118227   4.763   2.631   1.302
 5849SOL    HW218228   4.623   2.618   1.248
 5850SOL     OW18229   3.760   2.406   1.116
 5850SOL    HW118230   3.841   2.391   1.068
 5850SOL    HW218231   3.787   2.410   1.208
 5851SOL     OW18232   3.915   2.381   1.727
 5851SOL    HW118233   3.972   2.344   1.660
 5851SOL    HW218234   3.871   2.454   1.683
 5852SOL     OW18235   5.111   2.801   1.666
 5852SOL    HW118236   5.120   2.896   1.654
 5852SOL    HW218237   5.114   2.766   1.577
 5853SOL     OW18238   4.542   2.431   0.365
 5853SOL    HW118239   4.550   2.360   0.302
 5853SOL    HW218240   4.466   2.481   0.335
 5854SOL     OW18241   3.968   3.414   1.728
 5854SOL    HW118242   3.945   3.478   1.796
 5854SOL    HW218243   3.969   3.330   1.775
 5855SOL     OW18244   4.422   2.314   1.260
 5855SOL    HW118245   4.371   2.239   1.229
 5855SOL    HW218246   4.420   2.376   1.188
 5856SOL     OW18247   4.646   3.542   1.468
 5856SOL    HW118248   4.624   3.510   1.380
 5856SOL    HW218249   4.648   3.637   1.460
 5857SOL     OW18250   4.193   2.352   0.180
 5857SOL    HW118251   4.259   2.419   0.199
 5857SOL    HW218252   4.109   2.398   0.189
 5858SOL     OW18253   3.870   3.002   1.472
 5858SOL    HW118254   3.874   2.950   1.552
 5858SOL    HW218255   3.888   2.939   1.402
 5859SOL     OW18256   5.054   2.912   1.225
 5859SOL    HW118257   5.076   2.847   1.158
 5859SOL    HW218258   4.982   2.962   1.187
 5860SOL     OW18259   5.023   2.731   0.319
 5860SOL    HW118260   4.945   2.687   0.352
 5860SOL    HW218261   5.024   2.711   0.225
 5861SOL     OW18262   4.960   3.593   1.122
 5861SOL    HW118263   5.046   3.613   1.084
 5861SOL    HW218264   4.960   3.498   1.132
 5862SOL     OW18265   3.808   3.128   1.013
 5862SOL    HW118266   3.794   3.141   1.106
 5862SOL    HW218267   3.734   3.074   0.985
 5863SOL     OW18268   4.401   3.526   1.727
 5863SOL    HW118269   4.350   3.607   1.722
 5863SOL    HW218270   4.469   3.536   1.660
 5864SOL     OW18271   4.629   1.953   0.134
 5864SOL    HW118272   4.650   1.937   0.042
 5864SOL    HW218273   4.692   1.899   0.182
 5865SOL     OW18274   0.083   2.012   0.522
 5865SOL    HW118275   0.174   2.006   0.492
 5865SOL    HW218276   0.074   1.941   0.586
 5866SOL     OW18277   5.108   3.432   0.478
 5866SOL    HW118278   5.162   3.473   0.411
 5866SOL    HW218279   5.061   3.504   0.519
 5867SOL     OW18280   3.859   3.659   1.843
 5867SOL    HW118281   3.809   3.594   1.892
 5867SOL    HW218282   3.908   3.707   1.910
 5868SOL     OW18283   5.016   2.781   0.673
 5868SOL    HW118284   5.093   2.727   0.658
 5868SOL    HW218285   5.034   2.862   0.624
 5869SOL     OW18286   4.540   3.135   1.431
 5869SOL    HW118287   4.512   3.174   1.514
 5869SOL    HW218288   4.470   3.157   1.369
 5870SOL     OW18289   4.400   3.482   0.156
 5870SOL    HW118290   4.407   3.488   0.061
 5870SOL    HW218291   4.340   3.409   0.172
 5871SOL     OW18292   3.987   2.178   0.718
 5871SOL    HW118293   3.901   2.214   0.694
 5871SOL    HW218294   3.983   2.170   0.813
 5872SOL     OW18295   4.860   3.441   0.045
 5872SOL    HW118296   4.902   3.357   0.061
 5872SOL    HW218297   4.897   3.472   8.042
 5873SOL     OW18298   4.548   2.868   1.372
 5873SOL    HW118299   4.592   2.864   1.287
 5873SOL    HW218300   4.548   2.961   1.395
 5874SOL     OW18301   4.643   2.776   0.299
 5874SOL    HW118302   4.696   2.801   0.223
 5874SOL    HW218303   4.690   2.703   0.339
 5875SOL     OW18304   4.093   3.164   1.492
 5875SOL    HW118305   4.080   3.241   1.437
 5875SOL    HW218306   4.016   3.110   1.475
 5876SOL     OW18307   4.774   2.968   0.707
 5876SOL    HW118308   4.704   2.917   0.747
 5876SOL    HW218309   4.832   2.903   0.667
 5877SOL     OW18310   4.740   2.101   0.968
 5877SOL    HW118311   4.737   2.053   0.885
 5877SOL    HW218312   4.736   2.033   1.035
 5878SOL     OW18313   4.325   3.349   0.481
 5878SOL    HW118314   4.369   3.299   0.411
 5878SOL    HW218315   4.259   3.400   0.435
 5879SOL     OW18316   3.990   3.183   0.293
 5879SOL    HW118317   3.904   3.195   0.253
 5879SOL    HW218318   3.984   3.228   0.377
 5880SOL     OW18319   3.836   2.882   1.719
 5880SOL    HW118320   3.760   2.860   1.772
 5880SOL    HW218321   3.911   2.845   1.767
 5881SOL     OW18322   4.398   2.058   1.499
 5881SOL    HW118323   4.482   2.039   1.457
 5881SOL    HW218324   4.421   2.089   1.587
 5882SOL     OW18325   3.781   2.225   0.039
 5882SOL    HW118326   3.707   2.169   0.014
 5882SOL    HW218327   3.828   2.240   8.037
 5883SOL     OW18328   5.162   2.722   1.404
 5883SOL    HW118329   5.110   2.778   1.347
 5883SOL    HW218330   5.252   2.729   1.370
 5884SOL     OW18331   3.795   2.017   0.307
 5884SOL    HW118332   3.780   2.101   0.263
 5884SOL    HW218333   3.880   1.987   0.273
 5885SOL     OW18334   4.914   3.177   0.120
 5885SOL    HW118335   4.819   3.176   0.115
 5885SOL    HW218336   4.933   3.184   0.214
 5886SOL     OW18337   4.342   2.693   1.433
 5886SOL    HW118338   4.399   2.769   1.418
 5886SOL    HW218339   4.403   2.620   1.441
 5887SOL     OW18340   4.441   2.426   1.705
 5887SOL    HW118341   4.480   2.488   1.766
 5887SOL    HW218342   4.471   2.340   1.736
 5888SOL     OW18343   5.182   3.067   1.632
 5888SOL    HW118344   5.173   3.079   1.727
 5888SOL    HW218345   5.277   3.073   1.616
 5889SOL     OW18346   4.104   3.601   1.564
 5889SOL    HW118347   4.019   3.642   1.551
 5889SOL    HW218348   4.085   3.518   1.606
 5890SOL     OW18349   4.935   2.186   0.460
 5890SOL    HW118350   4.998   2.115   0.449
 5890SOL    HW218351   4.965   2.232   0.539
 5891SOL     OW18352   4.313   2.600   0.668
 5891SOL    HW118353   4.353   2.685   0.654
 5891SOL    HW218354   4.244   2.594   0.602
 5892SOL     OW18355   4.618   3.232   0.031
 5892SOL    HW118356   4.553   3.227   0.102
 5892SOL    HW218357   4.615   3.323   0.002
 5893SOL     OW18358   4.383   3.654   0.945
 5893SOL    HW118359   4.364   3.745   0.922
 5893SOL    HW218360   4.479   3.648   0.939
 5894SOL     OW18361   4.591   2.828   0.856
 5894SOL    HW118362   4.641   2.757   0.895
 5894SOL    HW218363   4.557   2.878   0.930
 5895SOL     OW18364   4.799   2.836   0.085
 5895SOL    HW118365   4.790   2.901   0.015
 5895SOL    HW218366   4.882   2.792   0.067
 5896SOL     OW18367   3.949   3.166   1.856
 5896SOL    HW118368   3.881   3.105   1.827
 5896SOL    HW218369   3.932   3.178   1.949
 5897SOL     OW18370   3.807   3.094   0.664
 5897SOL    HW118371   3.812   3.046   0.746
 5897SOL    HW218372   3.880   3.060   0.612
 5898SOL     OW18373   4.404   3.263   1.627
 5898SOL    HW118374   4.324   3.221   1.658
 5898SOL    HW218375   4.400   3.352   1.663
 5899SOL     OW18376   4.149   2.298   0.523
 5899SOL    HW118377   4.182   2.226   0.469
 5899SOL    HW218378   4.105   2.254   0.596
 5900SOL     OW18379   0.095   3.384   1.099
 5900SOL    HW118380   0.028   3.358   1.036
 5900SOL    HW218381   0.106   3.308   1.156
 5901SOL     OW18382   4.053   2.416   1.291
 5901SOL    HW118383   4.109   2.361   1.347
 5901SOL    HW218384   4.073   2.388   1.202
 5902SOL     OW18385   4.551   3.440   0.678
 5902SOL    HW118386   4.541   3.490   0.597
 5902SOL    HW218387   4.473   3.384   0.680
 5903SOL     OW18388   5.149   2.081   1.115
 5903SOL    HW118389   5.193   2.015   1.169
 5903SOL    HW218390   5.102   2.136   1.178
 5904SOL     OW18391   4.730   1.881   1.143
 5904SOL    HW118392   4.677   1.812   1.103
 5904SOL    HW218393   4.818   1.844   1.148
 5905SOL     OW18394   4.493   3.190   0.308
 5905SOL    HW118395   4.462   3.100   0.322
 5905SOL    HW218396   4.576   3.193   0.356
 5906SOL     OW18397   4.344   3.419   1.285
 5906SOL    HW118398   4.346   3.501   1.334
 5906SOL    HW218399   4.431   3.411   1.247
 5907SOL     OW18400   5.052   1.923   0.185
 5907SOL    HW118401   5.095   1.874   0.115
 5907SOL    HW218402   4.975   1.872   0.207
 5908SOL     OW18403   5.029   2.322   0.684
 5908SOL    HW118404   4.973   2.400   0.688
 5908SOL    HW218405   5.017   2.280   0.769
 5909SOL     OW18406   0.000   2.086   0.876
 5909SOL    HW118407   5.237   2.074   0.947
 5909SOL    HW218408   5.277   2.170   0.837
 5910SOL     OW18409   3.766   2.929   0.302
 5910SOL    HW118410   3.862   2.929   0.306
 5910SOL    HW218411   3.741   2.847   0.344
 5911SOL     OW18412   4.604   3.513   0.350
 5911SOL    HW118413   4.537   3.497   0.283
 5911SOL    HW218414   4.572   3.590   0.397
 5912SOL     OW18415   3.954   2.485   1.985
 5912SOL    HW118416   3.865   2.485   2.019
 5912SOL    HW218417   3.945   2.460   1.893
 5913SOL     OW18418   3.949   2.142   2.853
 5913SOL    HW118419   3.977   2.108   2.938
 5913SOL    HW218420   3.859   2.111   2.843
 5914SOL     OW18421   3.729   2.245   2.500
 5914SOL    HW118422   3.647   2.270   2.541
 5914SOL    HW218423   3.707   2.165   2.452
 5915SOL     OW18424   4.291   3.148   3.036
 5915SOL    HW118425   4.203   3.151   2.998
 5915SOL    HW218426   4.306   3.236   3.069
 5916SOL     OW18427   5.284   3.397   2.567
 5916SOL    HW118428   5.245   3.354   2.643
 5916SOL    HW218429   5.219   3.388   2.498
 5917SOL     OW18430   4.857   2.561   2.563
 5917SOL    HW118431   4.908   2.642   2.552
 5917SOL    HW218432   4.809   2.573   2.645
 5918SOL     OW18433   4.481   3.005   2.902
 5918SOL    HW118434   4.411   3.039   2.958
 5918SOL    HW218435   4.515   3.082   2.857
 5919SOL     OW18436   4.591   2.638   3.684
 5919SOL    HW118437   4.574   2.710   3.745
 5919SOL    HW218438   4.613   2.681   3.602
 5920SOL     OW18439   4.410   2.866   2.510
 5920SOL    HW118440   4.475   2.854   2.580
 5920SOL    HW218441   4.340   2.917   2.550
 5921SOL     OW18442   4.434   3.013   3.673
 5921SOL    HW118443   4.481   3.092   3.699
 5921SOL    HW218444   4.351   3.046   3.638
 5922SOL     OW18445   4.054   3.289   2.930
 5922SOL    HW118446   3.983   3.251   2.878
 5922SOL    HW218447   4.106   3.339   2.867
 5923SOL     OW18448   5.160   3.344   3.211
 5923SOL    HW118449   5.204   3.425   3.237
 5923SOL    HW218450   5.109   3.318   3.288
 5924SOL     OW18451   4.172   2.259   3.351
 5924SOL    HW118452   4.246   2.199   3.356
 5924SOL    HW218453   4.095   2.203   3.363
 5925SOL     OW18454   3.943   3.576   2.335
 5925SOL    HW118455   3.965   3.652   2.388
 5925SOL    HW218456   4.016   3.568   2.273
 5926SOL     OW18457   4.860   3.201   3.555
 5926SOL    HW118458   4.899   3.198   3.643
 5926SOL    HW218459   4.806   3.122   3.549
 5927SOL     OW18460   3.954   3.303   2.396
 5927SOL    HW118461   3.937   3.397   2.401
 5927SOL    HW218462   3.893   3.264   2.460
 5928SOL     OW18463   3.982   2.953   2.755
 5928SOL    HW118464   3.977   2.866   2.794
 5928SOL    HW218465   3.922   3.006   2.806
 5929SOL     OW18466   4.335   3.654   3.290
 5929SOL    HW118467   4.254   3.636   3.337
 5929SOL    HW218468   4.359   3.743   3.316
 5930SOL     OW18469   4.312   2.843   1.995
 5930SOL    HW118470   4.356   2.893   1.927
 5930SOL    HW218471   4.351   2.873   2.077
 5931SOL     OW18472   3.839   2.514   2.421
 5931SOL    HW118473   3.809   2.425   2.443
 5931SOL    HW218474   3.831   2.563   2.503
 5932SOL     OW18475   3.755   3.458   1.986
 5932SOL    HW118476   3.738   3.366   2.006
 5932SOL    HW218477   3.731   3.505   2.066
 5933SOL     OW18478   0.112   2.803   2.438
 5933SOL    HW118479   0.198   2.766   2.456
 5933SOL    HW218480   0.130   2.886   2.393
 5934SOL     OW18481   3.878   2.613   3.443
 5934SOL    HW118482   3.973   2.619   3.450
 5934SOL    HW218483   3.846   2.698   3.471
 5935SOL     OW18484   4.337   3.246   2.597
 5935SOL    HW118485   4.291   3.163   2.606
 5935SOL    HW218486   4.321   3.273   2.507
 5936SOL     OW18487   5.008   3.099   3.287
 5936SOL    HW118488   5.042   3.032   3.227
 5936SOL    HW218489   5.063   3.091   3.365
 5937SOL     OW18490   4.537   1.861   2.370
 5937SOL    HW118491   4.578   1.946   2.351
 5937SOL    HW218492   4.444   1.881   2.379
 5938SOL     OW18493   3.915   2.829   3.131
 5938SOL    HW118494   4.000   2.787   3.118
 5938SOL    HW218495   3.853   2.774   3.084
 5939SOL     OW18496   4.898   3.669   3.485
 5939SOL    HW118497   4.920   3.727   3.412
 5939SOL    HW218498   4.918   3.581   3.453
 5940SOL     OW18499   4.055   2.113   3.671
 5940SOL    HW118500   4.101   2.195   3.689
 5940SOL    HW218501   3.966   2.128   3.704
 5941SOL     OW18502   5.169   3.296   2.800
 5941SOL    HW118503   5.107   3.303   2.872
 5941SOL    HW218504   5.163   3.205   2.771
 5942SOL     OW18505   4.320   2.584   2.127
 5942SOL    HW118506   4.326   2.665   2.076
 5942SOL    HW218507   4.255   2.603   2.195
 5943SOL     OW18508   4.996   2.199   2.782
 5943SOL    HW118509   4.908   2.169   2.803
 5943SOL    HW218510   5.051   2.164   2.853
 5944SOL     OW18511   4.516   2.479   3.314
 5944SOL    HW118512   4.489   2.456   3.403
 5944SOL    HW218513   4.475   2.413   3.258
 5945SOL     OW18514   5.115   2.341   3.542
 5945SOL    HW118515   5.116   2.379   3.630
 5945SOL    HW218516   5.190   2.281   3.541
 5946SOL     OW18517   4.679   2.750   3.444
 5946SOL    HW118518   4.732   2.678   3.409
 5946SOL    HW218519   4.632   2.784   3.368
 5947SOL     OW18520   4.715   2.275   3.101
 5947SOL    HW118521   4.630   2.297   3.138
 5947SOL    HW218522   4.694   2.228   3.020
 5948SOL     OW18523   4.774   2.560   2.288
 5948SOL    HW118524   4.789   2.554   2.382
 5948SOL    HW218525   4.692   2.513   2.274
 5949SOL     OW18526   3.813   2.683   2.637
 5949SOL    HW118527   3.894   2.676   2.688
 5949SOL    HW218528   3.768   2.759   2.673
 5950SOL     OW18529   3.851   3.707   3.439
 5950SOL    HW118530   3.850   3.687   3.532
 5950SOL    HW218531   3.759   3.698   3.412
 5951SOL     OW18532   4.615   2.209   2.056
 5951SOL    HW118533   4.656   2.270   1.995
 5951SOL    HW218534   4.631   2.122   2.019
 5952SOL     OW18535   5.092   3.007   2.409
 5952SOL    HW118536   5.179   3.007   2.369
 5952SOL    HW218537   5.041   3.068   2.354
 5953SOL     OW18538   4.274   2.044   2.755
 5953SOL    HW118539   4.276   2.073   2.846
 5953SOL    HW218540   4.275   2.126   2.704
 5954SOL     OW18541   4.731   3.306   2.335
 5954SOL    HW118542   4.692   3.377   2.285
 5954SOL    HW218543   4.715   3.328   2.427
 5955SOL     OW18544   4.079   3.670   2.723
 5955SOL    HW118545   4.122   3.585   2.731
 5955SOL    HW218546   4.147   3.734   2.740
 5956SOL     OW18547   4.940   3.406   3.382
 5956SOL    HW118548   4.928   3.331   3.441
 5956SOL    HW218549   4.886   3.385   3.306
 5957SOL     OW18550   4.045   2.819   2.112
 5957SOL    HW118551   4.127   2.838   2.066
 5957SOL    HW218552   4.014   2.737   2.072
 5958SOL     OW18553   4.189   3.125   3.599
 5958SOL    HW118554   4.161   3.130   3.508
 5958SOL    HW218555   4.107   3.124   3.649
 5959SOL     OW18556   4.833   3.637   2.098
 5959SOL    HW118557   4.762   3.592   2.143
 5959SOL    HW218558   4.858   3.578   2.027
 5960SOL     OW18559   3.922   2.144   3.364
 5960SOL    HW118560   3.837   2.189   3.359
 5960SOL    HW218561   3.909   2.078   3.432
 5961SOL     OW18562   4.190   3.599   2.183
 5961SOL    HW118563   4.232   3.657   2.247
 5961SOL    HW218564   4.262   3.570   2.127
 5962SOL     OW18565   5.122   1.969   2.286
 5962SOL    HW118566   5.101   1.951   2.195
 5962SOL    HW218567   5.216   1.984   2.288
 5963SOL     OW18568   3.979   3.654   3.095
 5963SOL    HW118569   4.031   3.588   3.141
 5963SOL    HW218570   3.969   3.618   3.007
 5964SOL     OW18571   4.662   3.560   2.762
 5964SOL    HW118572   4.741   3.509   2.779
 5964SOL    HW218573   4.617   3.511   2.693
 5965SOL     OW18574   4.116   2.557   2.339
 5965SOL    HW118575   4.137   2.465   2.350
 5965SOL    HW218576   4.022   2.562   2.357
 5966SOL     OW18577   4.357   1.985   1.968
 5966SOL    HW118578   4.429   1.923   1.979
 5966SOL    HW218579   4.309   1.953   1.892
 5967SOL     OW18580   4.491   2.140   3.616
 5967SOL    HW118581   4.566   2.081   3.618
 5967SOL    HW218582   4.441   2.120   3.695
 5968SOL     OW18583   4.600   3.383   3.055
 5968SOL    HW118584   4.585   3.348   2.968
 5968SOL    HW218585   4.670   3.329   3.092
 5969SOL     OW18586   5.058   2.453   3.294
 5969SOL    HW118587   5.091   2.420   3.378
 5969SOL    HW218588   5.100   2.538   3.284
 5970SOL     OW18589   4.538   3.258   2.800
 5970SOL    HW118590   4.622   3.247   2.756
 5970SOL    HW218591   4.473   3.258   2.729
 5971SOL     OW18592   4.651   2.371   2.765
 5971SOL    HW118593   4.628   2.362   2.673
 5971SOL    HW218594   4.683   2.285   2.790
 5972SOL     OW18595   4.272   1.925   2.365
 5972SOL    HW118596   4.192   1.926   2.417
 5972SOL    HW218597   4.267   2.003   2.311
 5973SOL     OW18598   5.138   3.042   1.905
 5973SOL    HW118599   5.149   2.965   1.961
 5973SOL    HW218600   5.050   3.074   1.926
 5974SOL     OW18601   4.016   1.909   2.046
 5974SOL    HW118602   4.075   1.974   2.007
 5974SOL    HW218603   4.074   1.846   2.088
 5975SOL     OW18604   4.661   2.108   2.323
 5975SOL    HW118605   4.633   2.149   2.241
 5975SOL    HW218606   4.755   2.120   2.325
 5976SOL     OW18607   4.801   2.543   3.323
 5976SOL    HW118608   4.733   2.475   3.325
 5976SOL    HW218609   4.883   2.494   3.313
 5977SOL     OW18610   4.941   3.433   2.656
 5977SOL    HW118611   4.964   3.499   2.591
 5977SOL    HW218612   5.020   3.423   2.709
 5978SOL     OW18613   4.193   3.011   2.596
 5978SOL    HW118614   4.123   2.992   2.660
 5978SOL    HW218615   4.153   2.994   2.511
 5979SOL     OW18616   4.996   3.656   2.467
 5979SOL    HW118617   5.038   3.717   2.406
 5979SOL    HW218618   4.930   3.709   2.512
 5980SOL     OW18619   4.749   2.407   1.883
 5980SOL    HW118620   4.705   2.489   1.862
 5980SOL    HW218621   4.810   2.429   1.953
 5981SOL     OW18622   3.816   2.431   3.248
 5981SOL    HW118623   3.908   2.425   3.221
 5981SOL    HW218624   3.815   2.498   3.315
 5982SOL     OW18625   4.284   2.089   3.027
 5982SOL    HW118626   4.325   2.012   3.066
 5982SOL    HW218627   4.193   2.086   3.057
 5983SOL     OW18628   4.593   2.321   2.501
 5983SOL    HW118629   4.546   2.376   2.438
 5983SOL    HW218630   4.613   2.241   2.454
 5984SOL     OW18631   4.739   1.915   2.614
 5984SOL    HW118632   4.681   1.907   2.539
 5984SOL    HW218633   4.717   1.839   2.669
 5985SOL     OW18634   5.158   3.037   2.713
 5985SOL    HW118635   5.101   2.961   2.726
 5985SOL    HW218636   5.169   3.043   2.618
 5986SOL     OW18637   4.215   3.279   2.020
 5986SOL    HW118638   4.140   3.249   2.072
 5986SOL    HW218639   4.199   3.244   1.933
 5987SOL     OW18640   5.127   2.425   1.941
 5987SOL    HW118641   5.055   2.415   2.003
 5987SOL    HW218642   5.202   2.387   1.985
 5988SOL     OW18643   4.250   2.125   2.181
 5988SOL    HW118644   4.293   2.076   2.111
 5988SOL    HW218645   4.228   2.210   2.143
 5989SOL     OW18646   4.782   3.215   3.195
 5989SOL    HW118647   4.707   3.185   3.246
 5989SOL    HW218648   4.857   3.173   3.236
 5990SOL     OW18649   0.006   3.466   3.480
 5990SOL    HW118650   0.040   3.473   3.390
 5990SOL    HW218651   0.083   3.446   3.533
 5991SOL     OW18652   4.851   3.064   2.969
 5991SOL    HW118653   4.791   3.101   3.033
 5991SOL    HW218654   4.817   3.094   2.885
 5992SOL     OW18655   4.642   1.960   3.259
 5992SOL    HW118656   4.664   1.942   3.168
 5992SOL    HW218657   4.721   1.999   3.296
 5993SOL     OW18658   4.708   2.975   3.587
 5993SOL    HW118659   4.616   2.992   3.606
 5993SOL    HW218660   4.707   2.898   3.529
 5994SOL     OW18661   4.432   2.923   2.233
 5994SOL    HW118662   4.418   2.907   2.327
 5994SOL    HW218663   4.508   2.869   2.211
 5995SOL     OW18664   4.143   2.678   3.113
 5995SOL    HW118665   4.211   2.687   3.179
 5995SOL    HW218666   4.109   2.589   3.126
 5996SOL     OW18667   4.989   2.238   3.138
 5996SOL    HW118668   5.024   2.317   3.179
 5996SOL    HW218669   4.900   2.261   3.112
 5997SOL     OW18670   3.795   3.432   3.212
 5997SOL    HW118671   3.763   3.510   3.167
 5997SOL    HW218672   3.890   3.439   3.207
 5998SOL     OW18673   4.075   2.970   2.353
 5998SOL    HW118674   4.079   3.044   2.292
 5998SOL    HW218675   4.072   2.893   2.297
 5999SOL     OW18676   4.278   2.399   2.722
 5999SOL    HW118677   4.294   2.457   2.648
 5999SOL    HW218678   4.342   2.426   2.788
 6000SOL     OW18679   4.972   3.211   2.250
 6000SOL    HW118680   5.026   3.283   2.280
 6000SOL    HW218681   4.884   3.230   2.283
 6001SOL     OW18682   4.993   3.318   3.001
 6001SOL    HW118683   5.048   3.321   3.079
 6001SOL    HW218684   4.939   3.239   3.013
 6002SOL     OW18685   4.072   3.389   3.178
 6002SOL    HW118686   4.059   3.346   3.093
 6002SOL    HW218687   4.167   3.401   3.184
 6003SOL     OW18688   4.149   2.605   3.468
 6003SOL    HW118689   4.209   2.650   3.408
 6003SOL    HW218690   4.189   2.519   3.482
 6004SOL     OW18691   4.718   1.985   3.618
 6004SOL    HW118692   4.774   2.057   3.589
 6004SOL    HW218693   4.766   1.906   3.593
 6005SOL     OW18694   4.222   1.904   3.609
 6005SOL    HW118695   4.180   1.849   3.543
 6005SOL    HW218696   4.162   1.978   3.621
 6006SOL     OW18697   4.307   2.734   2.894
 6006SOL    HW118698   4.337   2.825   2.891
 6006SOL    HW218699   4.250   2.729   2.970
 6007SOL     OW18700   5.086   2.720   2.899
 6007SOL    HW118701   5.009   2.703   2.845
 6007SOL    HW218702   5.136   2.638   2.896
 6008SOL     OW18703   4.929   2.393   2.128
 6008SOL    HW118704   4.936   2.313   2.180
 6008SOL    HW218705   4.886   2.456   2.185
 6009SOL     OW18706   4.023   2.061   3.109
 6009SOL    HW118707   3.985   2.094   3.190
 6009SOL    HW218708   4.003   1.968   3.109
 6010SOL     OW18709   3.750   3.173   3.136
 6010SOL    HW118710   3.785   3.116   3.205
 6010SOL    HW218711   3.766   3.262   3.169
 6011SOL     OW18712   4.448   2.493   2.921
 6011SOL    HW118713   4.523   2.477   2.863
 6011SOL    HW218714   4.420   2.582   2.899
 6012SOL     OW18715   4.026   1.927   2.485
 6012SOL    HW118716   4.008   2.018   2.509
 6012SOL    HW218717   4.033   1.881   2.569
 6013SOL     OW18718   0.035   2.254   2.222
 6013SOL    HW118719   0.056   2.180   2.280
 6013SOL    HW218720   0.015   2.326   2.282
 6014SOL     OW18721   4.751   2.621   2.823
 6014SOL    HW118722   4.750   2.639   2.917
 6014SOL    HW218723   4.725   2.529   2.815
 6015SOL     OW18724   4.698   3.423   3.575
 6015SOL    HW118725   4.687   3.471   3.493
 6015SOL    HW218726   4.747   3.345   3.551
 6016SOL     OW18727   4.081   2.779   3.671
 6016SOL    HW118728   4.162   2.799   3.718
 6016SOL    HW218729   4.107   2.716   3.604
 6017SOL     OW18730   5.027   2.691   1.899
 6017SOL    HW118731   5.064   2.603   1.900
 6017SOL    HW218732   5.054   2.727   1.814
 6018SOL     OW18733   4.789   3.196   2.717
 6018SOL    HW118734   4.793   3.124   2.654
 6018SOL    HW218735   4.848   3.263   2.681
 6019SOL     OW18736   4.033   2.671   2.809
 6019SOL    HW118737   4.126   2.693   2.803
 6019SOL    HW218738   4.031   2.582   2.843
 6020SOL     OW18739   4.056   2.386   2.873
 6020SOL    HW118740   4.021   2.299   2.858
 6020SOL    HW218741   4.132   2.392   2.816
 6021SOL     OW18742   4.856   2.239   3.542
 6021SOL    HW118743   4.810   2.294   3.605
 6021SOL    HW218744   4.944   2.277   3.537
 6022SOL     OW18745   4.885   2.065   3.331
 6022SOL    HW118746   4.874   2.127   3.403
 6022SOL    HW218747   4.923   2.117   3.260
 6023SOL     OW18748   3.729   3.184   2.057
 6023SOL    HW118749   3.642   3.198   2.019
 6023SOL    HW218750   3.726   3.094   2.090
 6024SOL     OW18751   3.814   3.650   2.799
 6024SOL    HW118752   3.784   3.571   2.756
 6024SOL    HW218753   3.904   3.662   2.768
 6025SOL     OW18754   4.221   3.435   2.768
 6025SOL    HW118755   4.290   3.498   2.792
 6025SOL    HW218756   4.266   3.371   2.712
 6026SOL     OW18757   4.709   2.655   3.089
 6026SOL    HW118758   4.763   2.631   3.164
 6026SOL    HW218759   4.623   2.618   3.109
 6027SOL     OW18760   3.762   2.407   2.977
 6027SOL    HW118761   3.843   2.393   2.929
 6027SOL    HW218762   3.789   2.419   3.068
 6028SOL     OW18763   3.913   2.382   3.587
 6028SOL    HW118764   3.969   2.338   3.523
 6028SOL    HW218765   3.878   2.458   3.541
 6029SOL     OW18766   5.111   2.801   3.528
 6029SOL    HW118767   5.120   2.896   3.516
 6029SOL    HW218768   5.114   2.766   3.439
 6030SOL     OW18769   4.540   2.431   2.219
 6030SOL    HW118770   4.543   2.356   2.160
 6030SOL    HW218771   4.466   2.483   2.189
 6031SOL     OW18772   3.970   3.414   3.591
 6031SOL    HW118773   3.945   3.478   3.658
 6031SOL    HW218774   3.970   3.330   3.636
 6032SOL     OW18775   4.422   2.313   3.123
 6032SOL    HW118776   4.371   2.239   3.091
 6032SOL    HW218777   4.420   2.376   3.050
 6033SOL     OW18778   4.646   3.542   3.330
 6033SOL    HW118779   4.624   3.510   3.242
 6033SOL    HW218780   4.648   3.637   3.322
 6034SOL     OW18781   4.189   2.355   2.050
 6034SOL    HW118782   4.247   2.428   2.071
 6034SOL    HW218783   4.103   2.395   2.037
 6035SOL     OW18784   3.867   3.004   3.332
 6035SOL    HW118785   3.869   2.950   3.412
 6035SOL    HW218786   3.886   2.942   3.261
 6036SOL     OW18787   5.054   2.912   3.087
 6036SOL    HW118788   5.076   2.848   3.019
 6036SOL    HW218789   4.982   2.962   3.049
 6037SOL     OW18790   5.034   2.721   2.178
 6037SOL    HW118791   4.951   2.689   2.215
 6037SOL    HW218792   5.023   2.712   2.084
 6038SOL     OW18793   4.960   3.593   2.984
 6038SOL    HW118794   5.046   3.613   2.946
 6038SOL    HW218795   4.960   3.498   2.994
 6039SOL     OW18796   3.805   3.129   2.874
 6039SOL    HW118797   3.790   3.140   2.968
 6039SOL    HW218798   3.732   3.073   2.845
 6040SOL     OW18799   4.401   3.526   3.589
 6040SOL    HW118800   4.350   3.607   3.584
 6040SOL    HW218801   4.469   3.537   3.522
 6041SOL     OW18802   0.083   2.021   2.391
 6041SOL    HW118803   0.168   2.009   2.348
 6041SOL    HW218804   0.070   1.940   2.441
 6042SOL     OW18805   5.111   3.432   2.341
 6042SOL    HW118806   5.180   3.471   2.289
 6042SOL    HW218807   5.062   3.506   2.377
 6043SOL     OW18808   3.859   3.659   3.705
 6043SOL    HW118809   3.809   3.593   3.754
 6043SOL    HW218810   3.908   3.706   3.773
 6044SOL     OW18811   5.015   2.781   2.535
 6044SOL    HW118812   5.093   2.727   2.521
 6044SOL    HW218813   5.034   2.861   2.485
 6045SOL     OW18814   4.539   3.135   3.293
 6045SOL    HW118815   4.512   3.174   3.376
 6045SOL    HW218816   4.470   3.157   3.231
 6046SOL     OW18817   4.395   3.481   2.018
 6046SOL    HW118818   4.406   3.493   1.923
 6046SOL    HW218819   4.341   3.403   2.026
 6047SOL     OW18820   3.987   2.178   2.579
 6047SOL    HW118821   3.901   2.214   2.555
 6047SOL    HW218822   3.983   2.170   2.674
 6048SOL     OW18823   4.909   3.471   1.903
 6048SOL    HW118824   4.920   3.377   1.914
 6048SOL    HW218825   4.855   3.480   1.824
 6049SOL     OW18826   4.549   2.868   3.234
 6049SOL    HW118827   4.591   2.865   3.148
 6049SOL    HW218828   4.548   2.961   3.257
 6050SOL     OW18829   4.640   2.773   2.152
 6050SOL    HW118830   4.702   2.804   2.086
 6050SOL    HW218831   4.687   2.702   2.196
 6051SOL     OW18832   4.093   3.164   3.353
 6051SOL    HW118833   4.080   3.242   3.300
 6051SOL    HW218834   4.015   3.110   3.337
 6052SOL     OW18835   4.775   2.968   2.568
 6052SOL    HW118836   4.704   2.918   2.609
 6052SOL    HW218837   4.832   2.902   2.530
 6053SOL     OW18838   4.740   2.101   2.830
 6053SOL    HW118839   4.737   2.054   2.747
 6053SOL    HW218840   4.736   2.033   2.897
 6054SOL     OW18841   4.326   3.350   2.344
 6054SOL    HW118842   4.369   3.300   2.275
 6054SOL    HW218843   4.258   3.400   2.299
 6055SOL     OW18844   3.983   3.207   2.150
 6055SOL    HW118845   3.890   3.206   2.127
 6055SOL    HW218846   3.986   3.244   2.238
 6056SOL     OW18847   3.839   2.861   3.572
 6056SOL    HW118848   3.768   2.850   3.634
 6056SOL    HW218849   3.918   2.841   3.622
 6057SOL     OW18850   4.398   2.058   3.361
 6057SOL    HW118851   4.482   2.039   3.319
 6057SOL    HW218852   4.421   2.089   3.449
 6058SOL     OW18853   3.802   2.197   1.897
 6058SOL    HW118854   3.715   2.177   1.863
 6058SOL    HW218855   3.831   2.271   1.845
 6059SOL     OW18856   5.162   2.722   3.266
 6059SOL    HW118857   5.110   2.779   3.209
 6059SOL    HW218858   5.251   2.729   3.232
 6060SOL     OW18859   3.793   2.018   2.173
 6060SOL    HW118860   3.779   2.099   2.123
 6060SOL    HW218861   3.878   1.986   2.143
 6061SOL     OW18862   4.907   3.192   1.976
 6061SOL    HW118863   4.813   3.174   1.977
 6061SOL    HW218864   4.931   3.199   2.069
 6062SOL     OW18865   4.344   2.693   3.294
 6062SOL    HW118866   4.400   2.769   3.279
 6062SOL    HW218867   4.405   2.620   3.302
 6063SOL     OW18868   4.441   2.426   3.566
 6063SOL    HW118869   4.480   2.488   3.628
 6063SOL    HW218870   4.470   2.340   3.598
 6064SOL     OW18871   5.182   3.067   3.494
 6064SOL    HW118872   5.173   3.079   3.589
 6064SOL    HW218873   5.277   3.073   3.478
 6065SOL     OW18874   4.104   3.602   3.426
 6065SOL    HW118875   4.019   3.643   3.413
 6065SOL    HW218876   4.084   3.518   3.469
 6066SOL     OW18877   4.941   2.182   2.318
 6066SOL    HW118878   5.003   2.110   2.305
 6066SOL    HW218879   4.971   2.226   2.398
 6067SOL     OW18880   4.315   2.600   2.530
 6067SOL    HW118881   4.353   2.687   2.515
 6067SOL    HW218882   4.246   2.593   2.464
 6068SOL     OW18883   4.590   3.229   1.895
 6068SOL    HW118884   4.549   3.258   1.977
 6068SOL    HW218885   4.607   3.309   1.846
 6069SOL     OW18886   4.383   3.654   2.807
 6069SOL    HW118887   4.363   3.745   2.784
 6069SOL    HW218888   4.479   3.648   2.801
 6070SOL     OW18889   4.591   2.828   2.718
 6070SOL    HW118890   4.641   2.757   2.758
 6070SOL    HW218891   4.557   2.878   2.792
 6071SOL     OW18892   4.806   2.849   1.952
 6071SOL    HW118893   4.782   2.899   1.874
 6071SOL    HW218894   4.881   2.796   1.925
 6072SOL     OW18895   3.948   3.166   3.718
 6072SOL    HW118896   3.874   3.114   3.688
 6072SOL    HW218897   3.933   3.178   3.812
 6073SOL     OW18898   3.807   3.097   2.527
 6073SOL    HW118899   3.809   3.046   2.608
 6073SOL    HW218900   3.876   3.058   2.473
 6074SOL     OW18901   4.405   3.263   3.490
 6074SOL    HW118902   4.324   3.221   3.520
 6074SOL    HW218903   4.400   3.352   3.525
 6075SOL     OW18904   4.154   2.296   2.387
 6075SOL    HW118905   4.183   2.224   2.330
 6075SOL    HW218906   4.106   2.252   2.458
 6076SOL     OW18907   0.096   3.383   2.961
 6076SOL    HW118908   0.028   3.357   2.899
 6076SOL    HW218909   0.106   3.307   3.019
 6077SOL     OW18910   4.064   2.418   3.151
 6077SOL    HW118911   4.116   2.359   3.207
 6077SOL    HW218912   4.080   2.387   3.062
 6078SOL     OW18913   4.551   3.439   2.540
 6078SOL    HW118914   4.541   3.491   2.460
 6078SOL    HW218915   4.473   3.384   2.542
 6079SOL     OW18916   5.148   2.081   2.977
 6079SOL    HW118917   5.193   2.015   3.031
 6079SOL    HW218918   5.102   2.136   3.040
 6080SOL     OW18919   4.730   1.881   3.005
 6080SOL    HW118920   4.677   1.813   2.965
 6080SOL    HW218921   4.818   1.844   3.009
 6081SOL     OW18922   4.494   3.194   2.176
 6081SOL    HW118923   4.463   3.104   2.182
 6081SOL    HW218924   4.577   3.194   2.224
 6082SOL     OW18925   4.344   3.419   3.147
 6082SOL    HW118926   4.346   3.501   3.196
 6082SOL    HW218927   4.432   3.411   3.109
 6083SOL     OW18928   5.059   1.908   2.030
 6083SOL    HW118929   5.084   1.867   1.947
 6083SOL    HW218930   4.974   1.869   2.051
 6084SOL     OW18931   5.028   2.320   2.545
 6084SOL    HW118932   4.973   2.398   2.549
 6084SOL    HW218933   5.017   2.279   2.631
 6085SOL     OW18934   0.002   2.086   2.741
 6085SOL    HW118935   5.236   2.076   2.809
 6085SOL    HW218936   5.278   2.167   2.696
 6086SOL     OW18937   3.767   2.934   2.168
 6086SOL    HW118938   3.861   2.926   2.151
 6086SOL    HW218939   3.739   2.845   2.190
 6087SOL     OW18940   4.604   3.511   2.208
 6087SOL    HW118941   4.533   3.496   2.145
 6087SOL    HW218942   4.576   3.588   2.257
 6088SOL     OW18943   3.952   2.485   3.847
 6088SOL    HW118944   3.863   2.478   3.882
 6088SOL    HW218945   3.944   2.459   3.756
 6089SOL     OW18946   3.947   2.141   4.714
 6089SOL    HW118947   3.975   2.108   4.800
 6089SOL    HW218948   3.856   2.112   4.707
 6090SOL     OW18949   3.730   2.247   4.364
 6090SOL    HW118950   3.653   2.270   4.415
 6090SOL    HW218951   3.705   2.168   4.316
 6091SOL     OW18952   4.291   3.148   4.898
 6091SOL    HW118953   4.203   3.151   4.860
 6091SOL    HW218954   4.306   3.236   4.931
 6092SOL     OW18955   5.284   3.397   4.430
 6092SOL    HW118956   5.245   3.354   4.505
 6092SOL    HW218957   5.219   3.388   4.360
 6093SOL     OW18958   4.857   2.561   4.425
 6093SOL    HW118959   4.908   2.642   4.415
 6093SOL    HW218960   4.809   2.573   4.507
 6094SOL     OW18961   4.481   3.005   4.764
 6094SOL    HW118962   4.411   3.039   4.820
 6094SOL    HW218963   4.515   3.082   4.719
 6095SOL     OW18964   4.591   2.638   5.546
 6095SOL    HW118965   4.574   2.710   5.607
 6095SOL    HW218966   4.613   2.681   5.464
 6096SOL     OW18967   4.410   2.866   4.372
 6096SOL    HW118968   4.475   2.854   4.442
 6096SOL    HW218969   4.340   2.917   4.412
 6097SOL     OW18970   4.433   3.013   5.536
 6097SOL    HW118971   4.481   3.092   5.562
 6097SOL    HW218972   4.351   3.046   5.500
 6098SOL     OW18973   4.055   3.289   4.792
 6098SOL    HW118974   3.982   3.252   4.742
 6098SOL    HW218975   4.105   3.339   4.728
 6099SOL     OW18976   5.160   3.344   5.073
 6099SOL    HW118977   5.204   3.425   5.099
 6099SOL    HW218978   5.110   3.318   5.150
 6100SOL     OW18979   4.173   2.261   5.213
 6100SOL    HW118980   4.247   2.200   5.217
 6100SOL    HW218981   4.096   2.205   5.224
 6101SOL     OW18982   3.943   3.578   4.197
 6101SOL    HW118983   3.966   3.655   4.250
 6101SOL    HW218984   4.015   3.569   4.135
 6102SOL     OW18985   4.860   3.201   5.417
 6102SOL    HW118986   4.899   3.198   5.505
 6102SOL    HW218987   4.806   3.122   5.412
 6103SOL     OW18988   3.961   3.306   4.255
 6103SOL    HW118989   3.937   3.399   4.263
 6103SOL    HW218990   3.905   3.262   4.319
 6104SOL     OW18991   3.977   2.951   4.615
 6104SOL    HW118992   3.982   2.868   4.663
 6104SOL    HW218993   3.924   3.008   4.671
 6105SOL     OW18994   4.335   3.654   5.151
 6105SOL    HW118995   4.254   3.636   5.199
 6105SOL    HW218996   4.359   3.743   5.178
 6106SOL     OW18997   4.312   2.843   3.857
 6106SOL    HW118998   4.356   2.893   3.789
 6106SOL    HW218999   4.351   2.873   3.939
 6107SOL     OW19000   3.842   2.516   4.279
 6107SOL    HW119001   3.814   2.429   4.308
 6107SOL    HW219002   3.847   2.568   4.359
 6108SOL     OW19003   3.756   3.456   3.848
 6108SOL    HW119004   3.739   3.364   3.868
 6108SOL    HW219005   3.732   3.503   3.927
 6109SOL     OW19006   0.112   2.803   4.301
 6109SOL    HW119007   0.198   2.766   4.317
 6109SOL    HW219008   0.130   2.885   4.255
 6110SOL     OW19009   3.848   2.604   5.311
 6110SOL    HW119010   3.940   2.626   5.319
 6110SOL    HW219011   3.803   2.688   5.320
 6111SOL     OW19012   4.336   3.246   4.460
 6111SOL    HW119013   4.290   3.163   4.468
 6111SOL    HW219014   4.320   3.273   4.369
 6112SOL     OW19015   5.008   3.099   5.149
 6112SOL    HW119016   5.041   3.032   5.089
 6112SOL    HW219017   5.063   3.091   5.227
 6113SOL     OW19018   4.537   1.861   4.232
 6113SOL    HW119019   4.578   1.946   4.213
 6113SOL    HW219020   4.444   1.881   4.241
 6114SOL     OW19021   3.913   2.830   4.993
 6114SOL    HW119022   3.994   2.783   4.976
 6114SOL    HW219023   3.845   2.773   4.957
 6115SOL     OW19024   4.897   3.669   5.347
 6115SOL    HW119025   4.920   3.727   5.274
 6115SOL    HW219026   4.918   3.581   5.314
 6116SOL     OW19027   4.056   2.112   5.535
 6116SOL    HW119028   4.101   2.195   5.548
 6116SOL    HW219029   3.967   2.127   5.567
 6117SOL     OW19030   5.169   3.296   4.662
 6117SOL    HW119031   5.107   3.303   4.734
 6117SOL    HW219032   5.163   3.205   4.633
 6118SOL     OW19033   4.320   2.584   3.989
 6118SOL    HW119034   4.325   2.665   3.939
 6118SOL    HW219035   4.255   2.602   4.057
 6119SOL     OW19036   4.997   2.199   4.644
 6119SOL    HW119037   4.908   2.169   4.665
 6119SOL    HW219038   5.051   2.164   4.715
 6120SOL     OW19039   4.516   2.479   5.176
 6120SOL    HW119040   4.489   2.456   5.265
 6120SOL    HW219041   4.475   2.413   5.120
 6121SOL     OW19042   5.115   2.341   5.404
 6121SOL    HW119043   5.116   2.380   5.492
 6121SOL    HW219044   5.190   2.281   5.404
 6122SOL     OW19045   4.679   2.750   5.306
 6122SOL    HW119046   4.732   2.678   5.271
 6122SOL    HW219047   4.631   2.784   5.230
 6123SOL     OW19048   4.715   2.275   4.963
 6123SOL    HW119049   4.630   2.297   5.000
 6123SOL    HW219050   4.695   2.228   4.882
 6124SOL     OW19051   4.774   2.560   4.150
 6124SOL    HW119052   4.789   2.554   4.244
 6124SOL    HW219053   4.692   2.513   4.135
 6125SOL     OW19054   3.856   2.692   4.489
 6125SOL    HW119055   3.929   2.684   4.551
 6125SOL    HW219056   3.806   2.767   4.521
 6126SOL     OW19057   3.851   3.706   5.301
 6126SOL    HW119058   3.851   3.686   5.395
 6126SOL    HW219059   3.759   3.703   5.276
 6127SOL     OW19060   4.615   2.209   3.918
 6127SOL    HW119061   4.656   2.270   3.857
 6127SOL    HW219062   4.631   2.122   3.881
 6128SOL     OW19063   5.092   3.007   4.271
 6128SOL    HW119064   5.179   3.006   4.231
 6128SOL    HW219065   5.041   3.068   4.216
 6129SOL     OW19066   4.274   2.044   4.617
 6129SOL    HW119067   4.276   2.072   4.708
 6129SOL    HW219068   4.275   2.126   4.566
 6130SOL     OW19069   4.731   3.306   4.197
 6130SOL    HW119070   4.692   3.377   4.147
 6130SOL    HW219071   4.714   3.328   4.289
 6131SOL     OW19072   4.078   3.670   4.585
 6131SOL    HW119073   4.122   3.585   4.593
 6131SOL    HW219074   4.147   3.734   4.602
 6132SOL     OW19075   4.940   3.406   5.244
 6132SOL    HW119076   4.928   3.331   5.303
 6132SOL    HW219077   4.887   3.385   5.167
 6133SOL     OW19078   4.044   2.817   3.974
 6133SOL    HW119079   4.126   2.838   3.928
 6133SOL    HW219080   4.014   2.736   3.934
 6134SOL     OW19081   4.189   3.126   5.462
 6134SOL    HW119082   4.162   3.131   5.370
 6134SOL    HW219083   4.107   3.125   5.511
 6135SOL     OW19084   4.833   3.637   3.960
 6135SOL    HW119085   4.761   3.592   4.005
 6135SOL    HW219086   4.858   3.578   3.889
 6136SOL     OW19087   3.925   2.146   5.224
 6136SOL    HW119088   3.842   2.193   5.212
 6136SOL    HW219089   3.904   2.079   5.290
 6137SOL     OW19090   4.190   3.600   4.045
 6137SOL    HW119091   4.232   3.657   4.109
 6137SOL    HW219092   4.262   3.570   3.989
 6138SOL     OW19093   5.122   1.969   4.148
 6138SOL    HW119094   5.101   1.951   4.057
 6138SOL    HW219095   5.216   1.984   4.150
 6139SOL     OW19096   3.977   3.653   4.956
 6139SOL    HW119097   4.031   3.589   5.003
 6139SOL    HW219098   3.970   3.619   4.867
 6140SOL     OW19099   4.662   3.560   4.624
 6140SOL    HW119100   4.741   3.509   4.641
 6140SOL    HW219101   4.617   3.511   4.555
 6141SOL     OW19102   4.118   2.557   4.200
 6141SOL    HW119103   4.138   2.465   4.211
 6141SOL    HW219104   4.024   2.564   4.217
 6142SOL     OW19105   4.357   1.985   3.830
 6142SOL    HW119106   4.429   1.923   3.841
 6142SOL    HW219107   4.309   1.953   3.754
 6143SOL     OW19108   4.491   2.140   5.478
 6143SOL    HW119109   4.566   2.081   5.480
 6143SOL    HW219110   4.441   2.119   5.557
 6144SOL     OW19111   4.600   3.383   4.918
 6144SOL    HW119112   4.585   3.348   4.830
 6144SOL    HW219113   4.670   3.329   4.954
 6145SOL     OW19114   5.058   2.453   5.156
 6145SOL    HW119115   5.091   2.420   5.240
 6145SOL    HW219116   5.100   2.538   5.146
 6146SOL     OW19117   4.538   3.258   4.662
 6146SOL    HW119118   4.622   3.247   4.618
 6146SOL    HW219119   4.473   3.258   4.591
 6147SOL     OW19120   4.651   2.371   4.627
 6147SOL    HW119121   4.628   2.362   4.535
 6147SOL    HW219122   4.683   2.285   4.652
 6148SOL     OW19123   4.272   1.925   4.227
 6148SOL    HW119124   4.192   1.926   4.279
 6148SOL    HW219125   4.267   2.003   4.173
 6149SOL     OW19126   5.137   3.042   3.767
 6149SOL    HW119127   5.149   2.965   3.823
 6149SOL    HW219128   5.050   3.074   3.788
 6150SOL     OW19129   4.016   1.910   3.909
 6150SOL    HW119130   4.075   1.974   3.869
 6150SOL    HW219131   4.074   1.846   3.950
 6151SOL     OW19132   4.661   2.108   4.185
 6151SOL    HW119133   4.633   2.149   4.103
 6151SOL    HW219134   4.755   2.120   4.187
 6152SOL     OW19135   4.801   2.543   5.185
 6152SOL    HW119136   4.733   2.475   5.187
 6152SOL    HW219137   4.883   2.494   5.175
 6153SOL     OW19138   4.941   3.433   4.518
 6153SOL    HW119139   4.964   3.499   4.453
 6153SOL    HW219140   5.020   3.423   4.571
 6154SOL     OW19141   4.192   3.010   4.459
 6154SOL    HW119142   4.121   2.991   4.521
 6154SOL    HW219143   4.153   2.994   4.373
 6155SOL     OW19144   4.996   3.656   4.329
 6155SOL    HW119145   5.038   3.717   4.268
 6155SOL    HW219146   4.930   3.709   4.374
 6156SOL     OW19147   4.749   2.407   3.744
 6156SOL    HW119148   4.705   2.489   3.724
 6156SOL    HW219149   4.809   2.429   3.815
 6157SOL     OW19150   3.802   2.417   5.114
 6157SOL    HW119151   3.894   2.416   5.087
 6157SOL    HW219152   3.796   2.488   5.178
 6158SOL     OW19153   4.284   2.089   4.889
 6158SOL    HW119154   4.324   2.011   4.928
 6158SOL    HW219155   4.193   2.086   4.919
 6159SOL     OW19156   4.593   2.321   4.363
 6159SOL    HW119157   4.546   2.376   4.300
 6159SOL    HW219158   4.613   2.241   4.316
 6160SOL     OW19159   4.739   1.915   4.476
 6160SOL    HW119160   4.681   1.907   4.401
 6160SOL    HW219161   4.717   1.839   4.531
 6161SOL     OW19162   5.158   3.037   4.575
 6161SOL    HW119163   5.101   2.961   4.588
 6161SOL    HW219164   5.169   3.043   4.480
 6162SOL     OW19165   4.215   3.278   3.882
 6162SOL    HW119166   4.141   3.250   3.934
 6162SOL    HW219167   4.198   3.244   3.794
 6163SOL     OW19168   5.127   2.425   3.803
 6163SOL    HW119169   5.055   2.415   3.865
 6163SOL    HW219170   5.202   2.387   3.847
 6164SOL     OW19171   4.250   2.125   4.043
 6164SOL    HW119172   4.293   2.076   3.973
 6164SOL    HW219173   4.228   2.210   4.005
 6165SOL     OW19174   4.782   3.215   5.057
 6165SOL    HW119175   4.707   3.185   5.108
 6165SOL    HW219176   4.857   3.173   5.098
 6166SOL     OW19177   0.006   3.466   5.342
 6166SOL    HW119178   0.040   3.473   5.252
 6166SOL    HW219179   0.083   3.446   5.395
 6167SOL     OW19180   4.851   3.064   4.831
 6167SOL    HW119181   4.791   3.101   4.895
 6167SOL    HW219182   4.817   3.094   4.746
 6168SOL     OW19183   4.642   1.960   5.121
 6168SOL    HW119184   4.664   1.942   5.030
 6168SOL    HW219185   4.721   1.999   5.158
 6169SOL     OW19186   4.708   2.975   5.449
 6169SOL    HW119187   4.616   2.992   5.468
 6169SOL    HW219188   4.707   2.898   5.391
 6170SOL     OW19189   4.432   2.923   4.095
 6170SOL    HW119190   4.418   2.907   4.189
 6170SOL    HW219191   4.508   2.869   4.073
 6171SOL     OW19192   4.142   2.677   4.976
 6171SOL    HW119193   4.210   2.686   5.042
 6171SOL    HW219194   4.107   2.589   4.990
 6172SOL     OW19195   4.989   2.238   5.000
 6172SOL    HW119196   5.024   2.317   5.041
 6172SOL    HW219197   4.900   2.261   4.974
 6173SOL     OW19198   3.794   3.436   5.076
 6173SOL    HW119199   3.764   3.508   5.021
 6173SOL    HW219200   3.889   3.439   5.071
 6174SOL     OW19201   4.074   2.972   4.215
 6174SOL    HW119202   4.078   3.044   4.153
 6174SOL    HW219203   4.072   2.893   4.161
 6175SOL     OW19204   4.278   2.399   4.584
 6175SOL    HW119205   4.293   2.457   4.510
 6175SOL    HW219206   4.342   2.426   4.650
 6176SOL     OW19207   4.972   3.211   4.112
 6176SOL    HW119208   5.026   3.283   4.142
 6176SOL    HW219209   4.884   3.231   4.145
 6177SOL     OW19210   4.993   3.318   4.863
 6177SOL    HW119211   5.048   3.321   4.941
 6177SOL    HW219212   4.939   3.239   4.874
 6178SOL     OW19213   4.071   3.388   5.040
 6178SOL    HW119214   4.058   3.346   4.955
 6178SOL    HW219215   4.166   3.400   5.047
 6179SOL     OW19216   4.137   2.607   5.326
 6179SOL    HW119217   4.199   2.652   5.268
 6179SOL    HW219218   4.176   2.521   5.341
 6180SOL     OW19219   4.718   1.984   5.480
 6180SOL    HW119220   4.774   2.057   5.451
 6180SOL    HW219221   4.766   1.906   5.455
 6181SOL     OW19222   4.222   1.904   5.471
 6181SOL    HW119223   4.180   1.849   5.405
 6181SOL    HW219224   4.162   1.977   5.483
 6182SOL     OW19225   4.311   2.735   4.758
 6182SOL    HW119226   4.339   2.826   4.754
 6182SOL    HW219227   4.253   2.731   4.834
 6183SOL     OW19228   5.086   2.720   4.762
 6183SOL    HW119229   5.009   2.703   4.707
 6183SOL    HW219230   5.136   2.638   4.758
 6184SOL     OW19231   4.929   2.393   3.990
 6184SOL    HW119232   4.936   2.313   4.042
 6184SOL    HW219233   4.886   2.456   4.047
 6185SOL     OW19234   4.024   2.062   4.970
 6185SOL    HW119235   3.985   2.095   5.051
 6185SOL    HW219236   4.004   1.968   4.971
 6186SOL     OW19237   3.778   3.174   4.998
 6186SOL    HW119238   3.805   3.118   5.071
 6186SOL    HW219239   3.780   3.263   5.034
 6187SOL     OW19240   4.448   2.493   4.782
 6187SOL    HW119241   4.523   2.477   4.724
 6187SOL    HW219242   4.421   2.582   4.762
 6188SOL     OW19243   4.026   1.926   4.347
 6188SOL    HW119244   4.008   2.017   4.370
 6188SOL    HW219245   4.033   1.881   4.431
 6189SOL     OW19246   0.035   2.254   4.084
 6189SOL    HW119247   0.056   2.180   4.141
 6189SOL    HW219248   0.014   2.326   4.144
 6190SOL     OW19249   4.751   2.621   4.685
 6190SOL    HW119250   4.750   2.639   4.779
 6190SOL    HW219251   4.725   2.529   4.677
 6191SOL     OW19252   4.698   3.423   5.437
 6191SOL    HW119253   4.687   3.471   5.355
 6191SOL    HW219254   4.747   3.345   5.413
 6192SOL     OW19255   4.077   2.778   5.533
 6192SOL    HW119256   4.160   2.797   5.577
 6192SOL    HW219257   4.101   2.716   5.464
 6193SOL     OW19258   5.027   2.691   3.761
 6193SOL    HW119259   5.064   2.603   3.762
 6193SOL    HW219260   5.054   2.727   3.676
 6194SOL     OW19261   4.789   3.196   4.579
 6194SOL    HW119262   4.792   3.124   4.516
 6194SOL    HW219263   4.848   3.263   4.543
 6195SOL     OW19264   4.045   2.673   4.680
 6195SOL    HW119265   4.138   2.690   4.675
 6195SOL    HW219266   4.039   2.582   4.712
 6196SOL     OW19267   4.056   2.385   4.737
 6196SOL    HW119268   4.020   2.298   4.720
 6196SOL    HW219269   4.132   2.391   4.679
 6197SOL     OW19270   4.857   2.239   5.404
 6197SOL    HW119271   4.810   2.294   5.467
 6197SOL    HW219272   4.944   2.278   5.399
 6198SOL     OW19273   4.885   2.065   5.193
 6198SOL    HW119274   4.874   2.127   5.265
 6198SOL    HW219275   4.923   2.117   5.122
 6199SOL     OW19276   3.730   3.181   3.919
 6199SOL    HW119277   3.641   3.194   3.886
 6199SOL    HW219278   3.728   3.094   3.959
 6200SOL     OW19279   3.814   3.650   4.662
 6200SOL    HW119280   3.784   3.570   4.618
 6200SOL    HW219281   3.904   3.662   4.631
 6201SOL     OW19282   4.221   3.436   4.630
 6201SOL    HW119283   4.290   3.498   4.654
 6201SOL    HW219284   4.265   3.372   4.574
 6202SOL     OW19285   4.709   2.655   4.951
 6202SOL    HW119286   4.763   2.631   5.026
 6202SOL    HW219287   4.623   2.618   4.971
 6203SOL     OW19288   3.762   2.393   4.838
 6203SOL    HW119289   3.847   2.391   4.794
 6203SOL    HW219290   3.782   2.409   4.930
 6204SOL     OW19291   3.916   2.380   5.451
 6204SOL    HW119292   3.970   2.341   5.382
 6204SOL    HW219293   3.871   2.453   5.407
 6205SOL     OW19294   5.111   2.801   5.390
 6205SOL    HW119295   5.120   2.896   5.378
 6205SOL    HW219296   5.114   2.766   5.301
 6206SOL     OW19297   4.540   2.431   4.081
 6206SOL    HW119298   4.542   2.356   4.022
 6206SOL    HW219299   4.466   2.483   4.051
 6207SOL     OW19300   3.968   3.414   5.452
 6207SOL    HW119301   3.945   3.478   5.520
 6207SOL    HW219302   3.969   3.330   5.498
 6208SOL     OW19303   4.423   2.313   4.985
 6208SOL    HW119304   4.371   2.239   4.954
 6208SOL    HW219305   4.420   2.376   4.912
 6209SOL     OW19306   4.646   3.542   5.192
 6209SOL    HW119307   4.624   3.510   5.105
 6209SOL    HW219308   4.648   3.637   5.183
 6210SOL     OW19309   4.189   2.355   3.912
 6210SOL    HW119310   4.247   2.428   3.933
 6210SOL    HW219311   4.103   2.395   3.900
 6211SOL     OW19312   3.869   3.002   5.196
 6211SOL    HW119313   3.874   2.949   5.275
 6211SOL    HW219314   3.887   2.940   5.125
 6212SOL     OW19315   5.054   2.912   4.949
 6212SOL    HW119316   5.076   2.848   4.881
 6212SOL    HW219317   4.982   2.962   4.911
 6213SOL     OW19318   5.034   2.721   4.040
 6213SOL    HW119319   4.951   2.689   4.077
 6213SOL    HW219320   5.023   2.712   3.946
 6214SOL     OW19321   4.960   3.593   4.846
 6214SOL    HW119322   5.046   3.613   4.808
 6214SOL    HW219323   4.960   3.498   4.856
 6215SOL     OW19324   3.810   3.131   4.734
 6215SOL    HW119325   3.796   3.142   4.828
 6215SOL    HW219326   3.739   3.074   4.706
 6216SOL     OW19327   4.401   3.526   5.451
 6216SOL    HW119328   4.350   3.607   5.446
 6216SOL    HW219329   4.469   3.536   5.384
 6217SOL     OW19330   0.083   2.021   4.253
 6217SOL    HW119331   0.168   2.009   4.210
 6217SOL    HW219332   0.070   1.940   4.303
 6218SOL     OW19333   5.111   3.432   4.203
 6218SOL    HW119334   5.180   3.471   4.151
 6218SOL    HW219335   5.062   3.506   4.239
 6219SOL     OW19336   3.859   3.659   5.567
 6219SOL    HW119337   3.809   3.594   5.616
 6219SOL    HW219338   3.908   3.707   5.635
 6220SOL     OW19339   5.016   2.781   4.397
 6220SOL    HW119340   5.093   2.726   4.383
 6220SOL    HW219341   5.034   2.861   4.348
 6221SOL     OW19342   4.540   3.135   5.155
 6221SOL    HW119343   4.512   3.174   5.238
 6221SOL    HW219344   4.470   3.157   5.093
 6222SOL     OW19345   4.395   3.481   3.879
 6222SOL    HW119346   4.406   3.493   3.785
 6222SOL    HW219347   4.341   3.403   3.888
 6223SOL     OW19348   3.988   2.178   4.441
 6223SOL    HW119349   3.903   2.214   4.416
 6223SOL    HW219350   3.983   2.169   4.536
 6224SOL     OW19351   4.909   3.471   3.765
 6224SOL    HW119352   4.920   3.377   3.776
 6224SOL    HW219353   4.855   3.480   3.687
 6225SOL     OW19354   4.548   2.868   5.096
 6225SOL    HW119355   4.591   2.864   5.011
 6225SOL    HW219356   4.548   2.961   5.119
 6226SOL     OW19357   4.640   2.773   4.014
 6226SOL    HW119358   4.702   2.805   3.948
 6226SOL    HW219359   4.687   2.702   4.058
 6227SOL     OW19360   4.092   3.164   5.216
 6227SOL    HW119361   4.080   3.241   5.161
 6227SOL    HW219362   4.016   3.109   5.198
 6228SOL     OW19363   4.775   2.968   4.430
 6228SOL    HW119364   4.704   2.918   4.471
 6228SOL    HW219365   4.832   2.902   4.392
 6229SOL     OW19366   4.740   2.101   4.692
 6229SOL    HW119367   4.737   2.054   4.609
 6229SOL    HW219368   4.736   2.033   4.759
 6230SOL     OW19369   4.327   3.351   4.206
 6230SOL    HW119370   4.369   3.301   4.137
 6230SOL    HW219371   4.257   3.399   4.162
 6231SOL     OW19372   3.984   3.207   4.011
 6231SOL    HW119373   3.891   3.203   3.989
 6231SOL    HW219374   3.986   3.246   4.098
 6232SOL     OW19375   3.836   2.881   5.442
 6232SOL    HW119376   3.760   2.859   5.496
 6232SOL    HW219377   3.911   2.845   5.490
 6233SOL     OW19378   4.398   2.058   5.223
 6233SOL    HW119379   4.482   2.039   5.181
 6233SOL    HW219380   4.421   2.089   5.311
 6234SOL     OW19381   3.800   2.197   3.757
 6234SOL    HW119382   3.717   2.168   3.719
 6234SOL    HW219383   3.827   2.270   3.701
 6235SOL     OW19384   5.162   2.722   5.128
 6235SOL    HW119385   5.110   2.778   5.071
 6235SOL    HW219386   5.251   2.729   5.094
 6236SOL     OW19387   3.792   2.019   4.036
 6236SOL    HW119388   3.774   2.097   3.985
 6236SOL    HW219389   3.877   1.988   4.004
 6237SOL     OW19390   4.907   3.192   3.838
 6237SOL    HW119391   4.813   3.174   3.839
 6237SOL    HW219392   4.931   3.199   3.931
 6238SOL     OW19393   4.343   2.693   5.158
 6238SOL    HW119394   4.399   2.769   5.142
 6238SOL    HW219395   4.404   2.619   5.166
 6239SOL     OW19396   4.442   2.426   5.429
 6239SOL    HW119397   4.481   2.488   5.490
 6239SOL    HW219398   4.471   2.340   5.460
 6240SOL     OW19399   5.182   3.067   5.356
 6240SOL    HW119400   5.173   3.079   5.451
 6240SOL    HW219401   5.277   3.072   5.340
 6241SOL     OW19402   4.105   3.601   5.288
 6241SOL    HW119403   4.019   3.642   5.275
 6241SOL    HW219404   4.085   3.517   5.330
 6242SOL     OW19405   4.941   2.182   4.180
 6242SOL    HW119406   5.003   2.110   4.167
 6242SOL    HW219407   4.971   2.226   4.260
 6243SOL     OW19408   4.315   2.600   4.393
 6243SOL    HW119409   4.353   2.687   4.377
 6243SOL    HW219410   4.246   2.593   4.327
 6244SOL     OW19411   4.591   3.229   3.758
 6244SOL    HW119412   4.549   3.258   3.838
 6244SOL    HW219413   4.607   3.309   3.708
 6245SOL     OW19414   4.384   3.655   4.670
 6245SOL    HW119415   4.364   3.745   4.646
 6245SOL    HW219416   4.479   3.648   4.663
 6246SOL     OW19417   4.591   2.828   4.580
 6246SOL    HW119418   4.641   2.757   4.619
 6246SOL    HW219419   4.557   2.878   4.654
 6247SOL     OW19420   4.806   2.849   3.814
 6247SOL    HW119421   4.782   2.899   3.736
 6247SOL    HW219422   4.881   2.796   3.787
 6248SOL     OW19423   3.949   3.166   5.580
 6248SOL    HW119424   3.881   3.104   5.551
 6248SOL    HW219425   3.932   3.178   5.674
 6249SOL     OW19426   3.834   3.098   4.388
 6249SOL    HW119427   3.839   3.050   4.470
 6249SOL    HW219428   3.894   3.052   4.329
 6250SOL     OW19429   4.404   3.263   5.352
 6250SOL    HW119430   4.324   3.221   5.382
 6250SOL    HW219431   4.400   3.352   5.387
 6251SOL     OW19432   4.154   2.296   4.249
 6251SOL    HW119433   4.183   2.225   4.192
 6251SOL    HW219434   4.107   2.252   4.320
 6252SOL     OW19435   0.096   3.383   4.823
 6252SOL    HW119436   0.028   3.357   4.761
 6252SOL    HW219437   0.106   3.307   4.881
 6253SOL     OW19438   4.055   2.417   5.016
 6253SOL    HW119439   4.109   2.361   5.071
 6253SOL    HW219440   4.073   2.388   4.926
 6254SOL     OW19441   4.551   3.439   4.402
 6254SOL    HW119442   4.541   3.491   4.322
 6254SOL    HW219443   4.473   3.384   4.404
 6255SOL     OW19444   5.148   2.081   4.839
 6255SOL    HW119445   5.193   2.015   4.893
 6255SOL    HW219446   5.102   2.136   4.902
 6256SOL     OW19447   4.730   1.881   4.867
 6256SOL    HW119448   4.677   1.813   4.827
 6256SOL    HW219449   4.818   1.844   4.871
 6257SOL     OW19450   4.494   3.194   4.038
 6257SOL    HW119451   4.463   3.104   4.044
 6257SOL    HW219452   4.577   3.194   4.086
 6258SOL     OW19453   4.344   3.419   5.009
 6258SOL    HW119454   4.346   3.501   5.058
 6258SOL    HW219455   4.431   3.411   4.971
 6259SOL     OW19456   5.059   1.908   3.892
 6259SOL    HW119457   5.084   1.868   3.809
 6259SOL    HW219458   4.974   1.869   3.913
 6260SOL     OW19459   5.029   2.320   4.407
 6260SOL    HW119460   4.973   2.398   4.411
 6260SOL    HW219461   5.017   2.279   4.493
 6261SOL     OW19462   0.002   2.086   4.603
 6261SOL    HW119463   5.236   2.076   4.671
 6261SOL    HW219464   5.278   2.167   4.558
 6262SOL     OW19465   3.778   2.931   4.032
 6262SOL    HW119466   3.870   2.914   4.013
 6262SOL    HW219467   3.741   2.845   4.052
 6263SOL     OW19468   4.604   3.511   4.070
 6263SOL    HW119469   4.533   3.495   4.007
 6263SOL    HW219470   4.576   3.588   4.119
 6264SOL     OW19471   3.954   2.486   5.708
 6264SOL    HW119472   3.865   2.484   5.742
 6264SOL    HW219473   3.946   2.460   5.616
 6265SOL     OW19474   3.949   2.142   6.577
 6265SOL    HW119475   3.977   2.109   6.662
 6265SOL    HW219476   3.859   2.110   6.568
 6266SOL     OW19477   3.729   2.245   6.224
 6266SOL    HW119478   3.646   2.269   6.265
 6266SOL    HW219479   3.709   2.165   6.175
 6267SOL     OW19480   4.291   3.148   6.760
 6267SOL    HW119481   4.203   3.151   6.722
 6267SOL    HW219482   4.306   3.236   6.793
 6268SOL     OW19483   5.284   3.398   6.292
 6268SOL    HW119484   5.245   3.354   6.367
 6268SOL    HW219485   5.219   3.388   6.222
 6269SOL     OW19486   4.857   2.561   6.287
 6269SOL    HW119487   4.908   2.642   6.277
 6269SOL    HW219488   4.809   2.573   6.369
 6270SOL     OW19489   4.481   3.005   6.625
 6270SOL    HW119490   4.411   3.039   6.682
 6270SOL    HW219491   4.515   3.082   6.581
 6271SOL     OW19492   4.590   2.640   7.407
 6271SOL    HW119493   4.569   2.715   7.463
 6271SOL    HW219494   4.614   2.679   7.323
 6272SOL     OW19495   4.410   2.866   6.234
 6272SOL    HW119496   4.475   2.854   6.304
 6272SOL    HW219497   4.340   2.917   6.274
 6273SOL     OW19498   4.433   3.014   7.397
 6273SOL    HW119499   4.481   3.092   7.424
 6273SOL    HW219500   4.351   3.046   7.362
 6274SOL     OW19501   4.055   3.289   6.654
 6274SOL    HW119502   3.982   3.252   6.603
 6274SOL    HW219503   4.105   3.339   6.590
 6275SOL     OW19504   5.160   3.344   6.935
 6275SOL    HW119505   5.203   3.425   6.962
 6275SOL    HW219506   5.109   3.318   7.012
 6276SOL     OW19507   4.172   2.261   7.075
 6276SOL    HW119508   4.247   2.201   7.080
 6276SOL    HW219509   4.096   2.204   7.087
 6277SOL     OW19510   3.943   3.576   6.059
 6277SOL    HW119511   3.965   3.652   6.112
 6277SOL    HW219512   4.016   3.568   5.997
 6278SOL     OW19513   4.860   3.201   7.278
 6278SOL    HW119514   4.899   3.199   7.365
 6278SOL    HW219515   4.807   3.121   7.273
 6279SOL     OW19516   3.953   3.303   6.120
 6279SOL    HW119517   3.937   3.397   6.125
 6279SOL    HW219518   3.893   3.265   6.184
 6280SOL     OW19519   3.980   2.952   6.476
 6280SOL    HW119520   3.977   2.866   6.518
 6280SOL    HW219521   3.922   3.006   6.530
 6281SOL     OW19522   4.334   3.654   7.013
 6281SOL    HW119523   4.254   3.636   7.061
 6281SOL    HW219524   4.359   3.743   7.040
 6282SOL     OW19525   4.311   2.843   5.719
 6282SOL    HW119526   4.355   2.893   5.651
 6282SOL    HW219527   4.351   2.873   5.801
 6283SOL     OW19528   3.838   2.514   6.145
 6283SOL    HW119529   3.810   2.425   6.166
 6283SOL    HW219530   3.830   2.562   6.228
 6284SOL     OW19531   3.754   3.458   5.710
 6284SOL    HW119532   3.738   3.366   5.730
 6284SOL    HW219533   3.731   3.505   5.790
 6285SOL     OW19534   0.112   2.803   6.162
 6285SOL    HW119535   0.198   2.766   6.180
 6285SOL    HW219536   0.130   2.885   6.117
 6286SOL     OW19537   3.846   2.604   7.172
 6286SOL    HW119538   3.938   2.629   7.182
 6286SOL    HW219539   3.798   2.686   7.180
 6287SOL     OW19540   4.337   3.246   6.321
 6287SOL    HW119541   4.291   3.163   6.330
 6287SOL    HW219542   4.321   3.273   6.231
 6288SOL     OW19543   5.008   3.099   7.010
 6288SOL    HW119544   5.042   3.032   6.951
 6288SOL    HW219545   5.063   3.091   7.089
 6289SOL     OW19546   4.537   1.862   6.094
 6289SOL    HW119547   4.578   1.946   6.075
 6289SOL    HW219548   4.444   1.881   6.104
 6290SOL     OW19549   3.915   2.829   6.856
 6290SOL    HW119550   3.999   2.786   6.841
 6290SOL    HW219551   3.851   2.773   6.812
 6291SOL     OW19552   4.898   3.669   7.208
 6291SOL    HW119553   4.920   3.727   7.135
 6291SOL    HW219554   4.919   3.581   7.177
 6292SOL     OW19555   4.055   2.111   7.397
 6292SOL    HW119556   4.101   2.194   7.410
 6292SOL    HW219557   3.966   2.127   7.428
 6293SOL     OW19558   5.169   3.296   6.524
 6293SOL    HW119559   5.107   3.303   6.596
 6293SOL    HW219560   5.163   3.205   6.495
 6294SOL     OW19561   4.320   2.584   5.851
 6294SOL    HW119562   4.326   2.665   5.800
 6294SOL    HW219563   4.255   2.603   5.919
 6295SOL     OW19564   4.996   2.199   6.506
 6295SOL    HW119565   4.908   2.168   6.527
 6295SOL    HW219566   5.051   2.164   6.577
 6296SOL     OW19567   4.515   2.480   7.038
 6296SOL    HW119568   4.489   2.456   7.127
 6296SOL    HW219569   4.475   2.413   6.982
 6297SOL     OW19570   5.115   2.342   7.266
 6297SOL    HW119571   5.116   2.380   7.354
 6297SOL    HW219572   5.190   2.282   7.265
 6298SOL     OW19573   4.679   2.750   7.168
 6298SOL    HW119574   4.732   2.679   7.132
 6298SOL    HW219575   4.632   2.784   7.092
 6299SOL     OW19576   4.715   2.276   6.825
 6299SOL    HW119577   4.630   2.297   6.863
 6299SOL    HW219578   4.695   2.228   6.744
 6300SOL     OW19579   4.774   2.560   6.012
 6300SOL    HW119580   4.789   2.554   6.106
 6300SOL    HW219581   4.692   2.513   5.997
 6301SOL     OW19582   3.812   2.683   6.362
 6301SOL    HW119583   3.894   2.675   6.412
 6301SOL    HW219584   3.770   2.761   6.397
 6302SOL     OW19585   3.851   3.707   7.164
 6302SOL    HW119586   3.850   3.687   7.257
 6302SOL    HW219587   3.759   3.702   7.137
 6303SOL     OW19588   4.615   2.209   5.781
 6303SOL    HW119589   4.656   2.270   5.719
 6303SOL    HW219590   4.630   2.122   5.743
 6304SOL     OW19591   5.092   3.007   6.133
 6304SOL    HW119592   5.179   3.006   6.093
 6304SOL    HW219593   5.041   3.068   6.078
 6305SOL     OW19594   4.274   2.044   6.479
 6305SOL    HW119595   4.276   2.073   6.570
 6305SOL    HW219596   4.275   2.126   6.428
 6306SOL     OW19597   4.731   3.306   6.059
 6306SOL    HW119598   4.692   3.378   6.009
 6306SOL    HW219599   4.715   3.328   6.151
 6307SOL     OW19600   4.078   3.670   6.447
 6307SOL    HW119601   4.122   3.585   6.455
 6307SOL    HW219602   4.147   3.734   6.464
 6308SOL     OW19603   4.940   3.405   7.105
 6308SOL    HW119604   4.928   3.332   7.165
 6308SOL    HW219605   4.886   3.384   7.030
 6309SOL     OW19606   4.045   2.819   5.835
 6309SOL    HW119607   4.127   2.838   5.790
 6309SOL    HW219608   4.014   2.737   5.796
 6310SOL     OW19609   4.189   3.125   7.323
 6310SOL    HW119610   4.161   3.130   7.232
 6310SOL    HW219611   4.107   3.124   7.373
 6311SOL     OW19612   4.833   3.637   5.822
 6311SOL    HW119613   4.762   3.592   5.867
 6311SOL    HW219614   4.858   3.578   5.751
 6312SOL     OW19615   3.924   2.144   7.087
 6312SOL    HW119616   3.842   2.193   7.080
 6312SOL    HW219617   3.907   2.076   7.151
 6313SOL     OW19618   4.190   3.599   5.907
 6313SOL    HW119619   4.232   3.657   5.971
 6313SOL    HW219620   4.262   3.570   5.851
 6314SOL     OW19621   5.122   1.969   6.010
 6314SOL    HW119622   5.101   1.951   5.919
 6314SOL    HW219623   5.216   1.984   6.012
 6315SOL     OW19624   3.978   3.654   6.818
 6315SOL    HW119625   4.031   3.589   6.865
 6315SOL    HW219626   3.970   3.618   6.730
 6316SOL     OW19627   4.662   3.560   6.486
 6316SOL    HW119628   4.741   3.509   6.503
 6316SOL    HW219629   4.617   3.511   6.417
 6317SOL     OW19630   4.116   2.557   6.063
 6317SOL    HW119631   4.138   2.465   6.073
 6317SOL    HW219632   4.022   2.562   6.080
 6318SOL     OW19633   4.357   1.985   5.692
 6318SOL    HW119634   4.429   1.922   5.703
 6318SOL    HW219635   4.309   1.953   5.616
 6319SOL     OW19636   4.490   2.139   7.339
 6319SOL    HW119637   4.565   2.080   7.342
 6319SOL    HW219638   4.445   2.124   7.423
 6320SOL     OW19639   4.600   3.383   6.779
 6320SOL    HW119640   4.585   3.348   6.692
 6320SOL    HW219641   4.670   3.329   6.816
 6321SOL     OW19642   5.058   2.453   7.018
 6321SOL    HW119643   5.091   2.421   7.102
 6321SOL    HW219644   5.100   2.539   7.007
 6322SOL     OW19645   4.538   3.258   6.524
 6322SOL    HW119646   4.622   3.247   6.480
 6322SOL    HW219647   4.474   3.258   6.453
 6323SOL     OW19648   4.651   2.371   6.489
 6323SOL    HW119649   4.628   2.362   6.397
 6323SOL    HW219650   4.683   2.285   6.514
 6324SOL     OW19651   4.272   1.925   6.089
 6324SOL    HW119652   4.192   1.926   6.141
 6324SOL    HW219653   4.267   2.003   6.035
 6325SOL     OW19654   5.138   3.042   5.629
 6325SOL    HW119655   5.149   2.965   5.685
 6325SOL    HW219656   5.050   3.074   5.650
 6326SOL     OW19657   4.016   1.909   5.770
 6326SOL    HW119658   4.074   1.974   5.730
 6326SOL    HW219659   4.075   1.846   5.812
 6327SOL     OW19660   4.661   2.108   6.047
 6327SOL    HW119661   4.633   2.148   5.965
 6327SOL    HW219662   4.756   2.119   6.049
 6328SOL     OW19663   4.801   2.543   7.047
 6328SOL    HW119664   4.733   2.475   7.049
 6328SOL    HW219665   4.883   2.494   7.037
 6329SOL     OW19666   4.941   3.433   6.380
 6329SOL    HW119667   4.964   3.499   6.315
 6329SOL    HW219668   5.020   3.422   6.433
 6330SOL     OW19669   4.192   3.011   6.321
 6330SOL    HW119670   4.122   2.992   6.383
 6330SOL    HW219671   4.153   2.994   6.235
 6331SOL     OW19672   4.996   3.656   6.190
 6331SOL    HW119673   5.038   3.717   6.130
 6331SOL    HW219674   4.930   3.709   6.236
 6332SOL     OW19675   4.749   2.407   5.606
 6332SOL    HW119676   4.705   2.489   5.586
 6332SOL    HW219677   4.810   2.429   5.677
 6333SOL     OW19678   3.802   2.417   6.977
 6333SOL    HW119679   3.894   2.415   6.951
 6333SOL    HW219680   3.797   2.487   7.043
 6334SOL     OW19681   4.284   2.089   6.751
 6334SOL    HW119682   4.325   2.012   6.790
 6334SOL    HW219683   4.193   2.086   6.781
 6335SOL     OW19684   4.593   2.321   6.225
 6335SOL    HW119685   4.546   2.375   6.162
 6335SOL    HW219686   4.613   2.241   6.178
 6336SOL     OW19687   4.739   1.915   6.338
 6336SOL    HW119688   4.681   1.907   6.263
 6336SOL    HW219689   4.717   1.839   6.393
 6337SOL     OW19690   5.158   3.037   6.437
 6337SOL    HW119691   5.101   2.961   6.450
 6337SOL    HW219692   5.169   3.043   6.342
 6338SOL     OW19693   4.215   3.279   5.744
 6338SOL    HW119694   4.140   3.249   5.796
 6338SOL    HW219695   4.199   3.243   5.657
 6339SOL     OW19696   5.127   2.425   5.665
 6339SOL    HW119697   5.055   2.415   5.727
 6339SOL    HW219698   5.202   2.387   5.709
 6340SOL     OW19699   4.250   2.125   5.905
 6340SOL    HW119700   4.293   2.076   5.835
 6340SOL    HW219701   4.228   2.210   5.867
 6341SOL     OW19702   4.782   3.215   6.919
 6341SOL    HW119703   4.707   3.185   6.970
 6341SOL    HW219704   4.857   3.173   6.960
 6342SOL     OW19705   0.006   3.467   7.203
 6342SOL    HW119706   0.040   3.473   7.114
 6342SOL    HW219707   0.083   3.447   7.256
 6343SOL     OW19708   4.851   3.064   6.693
 6343SOL    HW119709   4.791   3.101   6.758
 6343SOL    HW219710   4.817   3.094   6.609
 6344SOL     OW19711   4.642   1.960   6.983
 6344SOL    HW119712   4.664   1.942   6.892
 6344SOL    HW219713   4.721   1.999   7.020
 6345SOL     OW19714   4.709   2.974   7.313
 6345SOL    HW119715   4.616   2.993   7.330
 6345SOL    HW219716   4.707   2.898   7.255
 6346SOL     OW19717   4.432   2.923   5.957
 6346SOL    HW119718   4.419   2.907   6.051
 6346SOL    HW219719   4.508   2.869   5.935
 6347SOL     OW19720   4.142   2.676   6.837
 6347SOL    HW119721   4.211   2.686   6.903
 6347SOL    HW219722   4.107   2.588   6.852
 6348SOL     OW19723   4.989   2.238   6.862
 6348SOL    HW119724   5.024   2.317   6.903
 6348SOL    HW219725   4.900   2.261   6.836
 6349SOL     OW19726   3.794   3.435   6.938
 6349SOL    HW119727   3.763   3.508   6.884
 6349SOL    HW219728   3.889   3.439   6.933
 6350SOL     OW19729   4.074   2.970   6.077
 6350SOL    HW119730   4.080   3.044   6.016
 6350SOL    HW219731   4.072   2.892   6.021
 6351SOL     OW19732   4.278   2.399   6.446
 6351SOL    HW119733   4.293   2.457   6.372
 6351SOL    HW219734   4.342   2.426   6.512
 6352SOL     OW19735   4.972   3.211   5.974
 6352SOL    HW119736   5.026   3.283   6.004
 6352SOL    HW219737   4.884   3.230   6.007
 6353SOL     OW19738   4.993   3.318   6.725
 6353SOL    HW119739   5.048   3.321   6.803
 6353SOL    HW219740   4.939   3.239   6.737
 6354SOL     OW19741   4.071   3.388   6.902
 6354SOL    HW119742   4.058   3.346   6.817
 6354SOL    HW219743   4.166   3.401   6.909
 6355SOL     OW19744   4.138   2.607   7.188
 6355SOL    HW119745   4.199   2.652   7.130
 6355SOL    HW219746   4.177   2.521   7.203
 6356SOL     OW19747   4.718   1.985   7.341
 6356SOL    HW119748   4.774   2.057   7.312
 6356SOL    HW219749   4.766   1.906   7.317
 6357SOL     OW19750   4.223   1.903   7.333
 6357SOL    HW119751   4.180   1.849   7.267
 6357SOL    HW219752   4.163   1.977   7.345
 6358SOL     OW19753   4.307   2.735   6.617
 6358SOL    HW119754   4.337   2.825   6.616
 6358SOL    HW219755   4.250   2.729   6.694
 6359SOL     OW19756   5.086   2.720   6.623
 6359SOL    HW119757   5.009   2.703   6.569
 6359SOL    HW219758   5.136   2.638   6.620
 6360SOL     OW19759   4.930   2.393   5.852
 6360SOL    HW119760   4.936   2.313   5.904
 6360SOL    HW219761   4.886   2.456   5.909
 6361SOL     OW19762   4.023   2.061   6.832
 6361SOL    HW119763   3.986   2.094   6.914
 6361SOL    HW219764   4.004   1.967   6.833
 6362SOL     OW19765   3.771   3.173   6.862
 6362SOL    HW119766   3.803   3.119   6.934
 6362SOL    HW219767   3.777   3.262   6.895
 6363SOL     OW19768   4.448   2.493   6.644
 6363SOL    HW119769   4.523   2.477   6.587
 6363SOL    HW219770   4.421   2.582   6.623
 6364SOL     OW19771   4.026   1.927   6.209
 6364SOL    HW119772   4.008   2.018   6.233
 6364SOL    HW219773   4.033   1.881   6.293
 6365SOL     OW19774   0.035   2.254   5.946
 6365SOL    HW119775   0.056   2.180   6.003
 6365SOL    HW219776   0.014   2.326   6.006
 6366SOL     OW19777   4.751   2.621   6.547
 6366SOL    HW119778   4.750   2.639   6.641
 6366SOL    HW219779   4.725   2.529   6.539
 6367SOL     OW19780   4.699   3.424   7.299
 6367SOL    HW119781   4.688   3.471   7.217
 6367SOL    HW219782   4.747   3.344   7.275
 6368SOL     OW19783   4.077   2.776   7.397
 6368SOL    HW119784   4.161   2.797   7.438
 6368SOL    HW219785   4.100   2.715   7.327
 6369SOL     OW19786   5.027   2.691   5.623
 6369SOL    HW119787   5.064   2.603   5.625
 6369SOL    HW219788   5.054   2.727   5.538
 6370SOL     OW19789   4.789   3.196   6.441
 6370SOL    HW119790   4.793   3.124   6.378
 6370SOL    HW219791   4.848   3.262   6.405
 6371SOL     OW19792   4.033   2.671   6.533
 6371SOL    HW119793   4.126   2.693   6.527
 6371SOL    HW219794   4.031   2.582   6.567
 6372SOL     OW19795   4.056   2.387   6.598
 6372SOL    HW119796   4.021   2.299   6.583
 6372SOL    HW219797   4.132   2.393   6.540
 6373SOL     OW19798   4.857   2.239   7.265
 6373SOL    HW119799   4.810   2.294   7.328
 6373SOL    HW219800   4.944   2.278   7.260
 6374SOL     OW19801   4.885   2.065   7.054
 6374SOL    HW119802   4.874   2.127   7.126
 6374SOL    HW219803   4.923   2.117   6.983
 6375SOL     OW19804   3.729   3.184   5.781
 6375SOL    HW119805   3.642   3.198   5.744
 6375SOL    HW219806   3.726   3.094   5.815
 6376SOL     OW19807   3.814   3.650   6.523
 6376SOL    HW119808   3.784   3.570   6.480
 6376SOL    HW219809   3.904   3.662   6.492
 6377SOL     OW19810   4.221   3.435   6.492
 6377SOL    HW119811   4.290   3.498   6.516
 6377SOL    HW219812   4.266   3.371   6.436
 6378SOL     OW19813   4.708   2.655   6.813
 6378SOL    HW119814   4.763   2.631   6.888
 6378SOL    HW219815   4.623   2.618   6.833
 6379SOL     OW19816   3.760   2.406   6.703
 6379SOL    HW119817   3.840   2.391   6.654
 6379SOL    HW219818   3.787   2.410   6.794
 6380SOL     OW19819   3.916   2.381   7.313
 6380SOL    HW119820   3.972   2.343   7.245
 6380SOL    HW219821   3.872   2.453   7.270
 6381SOL     OW19822   5.109   2.801   7.253
 6381SOL    HW119823   5.119   2.895   7.242
 6381SOL    HW219824   5.113   2.766   7.164
 6382SOL     OW19825   4.540   2.431   5.944
 6382SOL    HW119826   4.543   2.356   5.885
 6382SOL    HW219827   4.466   2.483   5.913
 6383SOL     OW19828   3.968   3.414   7.314
 6383SOL    HW119829   3.945   3.478   7.382
 6383SOL    HW219830   3.969   3.330   7.361
 6384SOL     OW19831   4.422   2.314   6.847
 6384SOL    HW119832   4.371   2.239   6.816
 6384SOL    HW219833   4.420   2.376   6.774
 6385SOL     OW19834   4.646   3.542   7.054
 6385SOL    HW119835   4.624   3.511   6.966
 6385SOL    HW219836   4.648   3.637   7.046
 6386SOL     OW19837   4.189   2.355   5.774
 6386SOL    HW119838   4.247   2.428   5.795
 6386SOL    HW219839   4.103   2.395   5.761
 6387SOL     OW19840   3.871   3.002   7.058
 6387SOL    HW119841   3.873   2.950   7.138
 6387SOL    HW219842   3.888   2.939   6.988
 6388SOL     OW19843   5.055   2.912   6.811
 6388SOL    HW119844   5.076   2.847   6.743
 6388SOL    HW219845   4.982   2.962   6.773
 6389SOL     OW19846   5.034   2.721   5.902
 6389SOL    HW119847   4.951   2.688   5.939
 6389SOL    HW219848   5.023   2.712   5.808
 6390SOL     OW19849   4.960   3.593   6.707
 6390SOL    HW119850   5.046   3.613   6.670
 6390SOL    HW219851   4.960   3.498   6.718
 6391SOL     OW19852   3.808   3.129   6.598
 6391SOL    HW119853   3.794   3.141   6.692
 6391SOL    HW219854   3.734   3.074   6.571
 6392SOL     OW19855   4.400   3.525   7.311
 6392SOL    HW119856   4.351   3.607   7.309
 6392SOL    HW219857   4.469   3.537   7.246
 6393SOL     OW19858   0.083   2.021   6.115
 6393SOL    HW119859   0.168   2.009   6.072
 6393SOL    HW219860   0.070   1.940   6.165
 6394SOL     OW19861   5.110   3.432   6.065
 6394SOL    HW119862   5.180   3.471   6.013
 6394SOL    HW219863   5.062   3.506   6.101
 6395SOL     OW19864   3.859   3.658   7.430
 6395SOL    HW119865   3.809   3.594   7.479
 6395SOL    HW219866   3.908   3.707   7.497
 6396SOL     OW19867   5.015   2.781   6.259
 6396SOL    HW119868   5.093   2.727   6.245
 6396SOL    HW219869   5.034   2.861   6.209
 6397SOL     OW19870   4.540   3.135   7.017
 6397SOL    HW119871   4.512   3.174   7.100
 6397SOL    HW219872   4.470   3.157   6.955
 6398SOL     OW19873   4.395   3.481   5.742
 6398SOL    HW119874   4.406   3.493   5.647
 6398SOL    HW219875   4.341   3.403   5.750
 6399SOL     OW19876   3.987   2.178   6.303
 6399SOL    HW119877   3.901   2.214   6.279
 6399SOL    HW219878   3.983   2.170   6.399
 6400SOL     OW19879   4.909   3.471   5.627
 6400SOL    HW119880   4.920   3.377   5.638
 6400SOL    HW219881   4.855   3.480   5.548
 6401SOL     OW19882   4.548   2.868   6.958
 6401SOL    HW119883   4.591   2.864   6.873
 6401SOL    HW219884   4.548   2.961   6.981
 6402SOL     OW19885   4.640   2.773   5.876
 6402SOL    HW119886   4.702   2.805   5.810
 6402SOL    HW219887   4.687   2.702   5.920
 6403SOL     OW19888   4.093   3.164   7.078
 6403SOL    HW119889   4.080   3.242   7.023
 6403SOL    HW219890   4.016   3.110   7.061
 6404SOL     OW19891   4.775   2.968   6.292
 6404SOL    HW119892   4.704   2.918   6.333
 6404SOL    HW219893   4.832   2.902   6.254
 6405SOL     OW19894   4.740   2.101   6.554
 6405SOL    HW119895   4.737   2.054   6.471
 6405SOL    HW219896   4.736   2.033   6.621
 6406SOL     OW19897   4.326   3.350   6.068
 6406SOL    HW119898   4.370   3.300   5.999
 6406SOL    HW219899   4.259   3.400   6.022
 6407SOL     OW19900   3.983   3.208   5.873
 6407SOL    HW119901   3.890   3.206   5.851
 6407SOL    HW219902   3.986   3.244   5.962
 6408SOL     OW19903   3.837   2.882   7.305
 6408SOL    HW119904   3.760   2.860   7.358
 6408SOL    HW219905   3.911   2.845   7.354
 6409SOL     OW19906   4.398   2.058   7.085
 6409SOL    HW119907   4.482   2.039   7.044
 6409SOL    HW219908   4.420   2.088   7.173
 6410SOL     OW19909   3.801   2.198   5.622
 6410SOL    HW119910   3.715   2.176   5.585
 6410SOL    HW219911   3.832   2.272   5.570
 6411SOL     OW19912   5.162   2.722   6.990
 6411SOL    HW119913   5.110   2.778   6.933
 6411SOL    HW219914   5.252   2.729   6.956
 6412SOL     OW19915   3.793   2.019   5.897
 6412SOL    HW119916   3.779   2.098   5.846
 6412SOL    HW219917   3.878   1.986   5.867
 6413SOL     OW19918   4.907   3.192   5.700
 6413SOL    HW119919   4.813   3.174   5.701
 6413SOL    HW219920   4.931   3.199   5.793
 6414SOL     OW19921   4.343   2.693   7.019
 6414SOL    HW119922   4.399   2.769   7.004
 6414SOL    HW219923   4.403   2.620   7.027
 6415SOL     OW19924   4.442   2.426   7.291
 6415SOL    HW119925   4.480   2.487   7.353
 6415SOL    HW219926   4.471   2.339   7.322
 6416SOL     OW19927   5.182   3.067   7.217
 6416SOL    HW119928   5.172   3.078   7.312
 6416SOL    HW219929   5.277   3.073   7.202
 6417SOL     OW19930   4.104   3.602   7.150
 6417SOL    HW119931   4.018   3.642   7.137
 6417SOL    HW219932   4.085   3.518   7.192
 6418SOL     OW19933   4.941   2.182   6.042
 6418SOL    HW119934   5.003   2.110   6.029
 6418SOL    HW219935   4.971   2.226   6.122
 6419SOL     OW19936   4.315   2.600   6.254
 6419SOL    HW119937   4.354   2.687   6.239
 6419SOL    HW219938   4.246   2.593   6.188
 6420SOL     OW19939   4.590   3.229   5.619
 6420SOL    HW119940   4.549   3.259   5.701
 6420SOL    HW219941   4.607   3.309   5.570
 6421SOL     OW19942   4.383   3.654   6.531
 6421SOL    HW119943   4.364   3.745   6.508
 6421SOL    HW219944   4.479   3.648   6.525
 6422SOL     OW19945   4.591   2.828   6.442
 6422SOL    HW119946   4.641   2.757   6.481
 6422SOL    HW219947   4.557   2.878   6.516
 6423SOL     OW19948   4.806   2.849   5.676
 6423SOL    HW119949   4.782   2.899   5.598
 6423SOL    HW219950   4.881   2.796   5.649
 6424SOL     OW19951   3.949   3.165   7.443
 6424SOL    HW119952   3.881   3.105   7.412
 6424SOL    HW219953   3.929   3.179   7.535
 6425SOL     OW19954   3.807   3.095   6.250
 6425SOL    HW119955   3.812   3.047   6.333
 6425SOL    HW219956   3.876   3.058   6.196
 6426SOL     OW19957   4.404   3.263   7.213
 6426SOL    HW119958   4.324   3.221   7.244
 6426SOL    HW219959   4.401   3.351   7.249
 6427SOL     OW19960   4.154   2.296   6.111
 6427SOL    HW119961   4.183   2.225   6.054
 6427SOL    HW219962   4.106   2.252   6.182
 6428SOL     OW19963   0.096   3.383   6.685
 6428SOL    HW119964   0.028   3.357   6.623
 6428SOL    HW219965   0.106   3.307   6.743
 6429SOL     OW19966   4.053   2.416   6.877
 6429SOL    HW119967   4.109   2.361   6.932
 6429SOL    HW219968   4.073   2.388   6.788
 6430SOL     OW19969   4.551   3.439   6.264
 6430SOL    HW119970   4.541   3.490   6.184
 6430SOL    HW219971   4.473   3.384   6.266
 6431SOL     OW19972   5.148   2.081   6.701
 6431SOL    HW119973   5.193   2.015   6.754
 6431SOL    HW219974   5.102   2.136   6.764
 6432SOL     OW19975   4.730   1.881   6.729
 6432SOL    HW119976   4.677   1.813   6.690
 6432SOL    HW219977   4.818   1.844   6.733
 6433SOL     OW19978   4.494   3.194   5.900
 6433SOL    HW119979   4.463   3.104   5.906
 6433SOL    HW219980   4.577   3.194   5.948
 6434SOL     OW19981   4.344   3.419   6.871
 6434SOL    HW119982   4.346   3.501   6.920
 6434SOL    HW219983   4.431   3.411   6.833
 6435SOL     OW19984   5.059   1.908   5.754
 6435SOL    HW119985   5.084   1.868   5.671
 6435SOL    HW219986   4.974   1.869   5.775
 6436SOL     OW19987   5.029   2.320   6.269
 6436SOL    HW119988   4.973   2.398   6.273
 6436SOL    HW219989   5.018   2.279   6.355
 6437SOL     OW19990   0.002   2.086   6.465
 6437SOL    HW119991   5.236   2.076   6.533
 6437SOL    HW219992   5.278   2.167   6.420
 6438SOL     OW19993   3.767   2.933   5.892
 6438SOL    HW119994   3.861   2.926   5.874
 6438SOL    HW219995   3.739   2.845   5.914
 6439SOL     OW19996   4.604   3.511   5.932
 6439SOL    HW119997   4.533   3.496   5.869
 6439SOL    HW219998   4.576   3.588   5.981
 6440SOL     OW19999   3.953   2.481   7.572
 6440SOL    HW120000   3.862   2.489   7.601
 6440SOL    HW220001   3.946   2.458   7.479
 6441SOL     OW20002   3.945   3.580   7.919
 6441SOL    HW120003   3.974   3.623   7.999
 6441SOL    HW220004   4.022   3.577   7.863
 6442SOL     OW20005   3.942   3.300   7.990
 6442SOL    HW120006   3.928   3.394   7.990
 6442SOL    HW220007   3.882   3.266   8.056
 6443SOL     OW20008   4.312   2.843   7.578
 6443SOL    HW120009   4.355   2.895   7.510
 6443SOL    HW220010   4.351   2.875   7.660
 6444SOL     OW20011   3.754   3.461   7.577
 6444SOL    HW120012   3.738   3.368   7.592
 6444SOL    HW220013   3.726   3.504   7.659
 6445SOL     OW20014   0.118   2.787   8.016
 6445SOL    HW120015   0.211   2.778   8.038
 6445SOL    HW220016   0.107   2.881   7.998
 6446SOL     OW20017   4.525   1.856   7.938
 6446SOL    HW120018   4.574   1.936   7.923
 6446SOL    HW220019   4.434   1.884   7.948
 6447SOL     OW20020   4.315   2.587   7.709
 6447SOL    HW120021   4.320   2.668   7.658
 6447SOL    HW220022   4.254   2.606   7.780
 6448SOL     OW20023   3.786   2.723   0.092
 6448SOL    HW120024   3.852   2.661   0.123
 6448SOL    HW220025   3.778   2.786   0.163
 6449SOL     OW20026   4.605   2.206   7.638
 6449SOL    HW120027   4.650   2.266   7.578
 6449SOL    HW220028   4.637   2.119   7.614
 6450SOL     OW20029   4.048   2.817   7.697
 6450SOL    HW120030   4.127   2.836   7.648
 6450SOL    HW220031   4.011   2.739   7.655
 6451SOL     OW20032   4.837   3.638   7.684
 6451SOL    HW120033   4.764   3.595   7.728
 6451SOL    HW220034   4.861   3.579   7.613
 6452SOL     OW20035   4.191   3.600   7.769
 6452SOL    HW120036   4.238   3.653   7.833
 6452SOL    HW220037   4.259   3.565   7.711
 6453SOL     OW20038   5.133   1.987   7.858
 6453SOL    HW120039   5.097   1.963   7.773
 6453SOL    HW220040   5.227   1.987   7.845
 6454SOL     OW20041   4.115   2.560   7.918
 6454SOL    HW120042   4.121   2.465   7.926
 6454SOL    HW220043   4.023   2.579   7.936
 6455SOL     OW20044   4.352   1.983   7.559
 6455SOL    HW120045   4.428   1.926   7.569
 6455SOL    HW220046   4.309   1.952   7.480
 6456SOL     OW20047   4.256   1.934   7.959
 6456SOL    HW120048   4.170   1.939   8.002
 6456SOL    HW220049   4.254   2.006   7.895
 6457SOL     OW20050   5.138   3.040   7.488
 6457SOL    HW120051   5.156   2.971   7.552
 6457SOL    HW220052   5.051   3.073   7.512
 6458SOL     OW20053   4.017   1.911   7.633
 6458SOL    HW120054   4.075   1.972   7.588
 6458SOL    HW220055   4.075   1.846   7.671
 6459SOL     OW20056   4.666   2.089   7.911
 6459SOL    HW120057   4.623   2.152   7.854
 6459SOL    HW220058   4.758   2.116   7.913
 6460SOL     OW20059   4.165   3.010   0.100
 6460SOL    HW120060   4.090   3.047   0.147
 6460SOL    HW220061   4.134   2.997   0.011
 6461SOL     OW20062   5.007   3.666   8.013
 6461SOL    HW120063   5.046   3.733   7.956
 6461SOL    HW220064   4.938   3.713   8.060
 6462SOL     OW20065   4.752   2.408   7.464
 6462SOL    HW120066   4.705   2.489   7.447
 6462SOL    HW220067   4.806   2.427   7.541
 6463SOL     OW20068   4.213   3.277   7.606
 6463SOL    HW120069   4.139   3.248   7.659
 6463SOL    HW220070   4.195   3.243   7.518
 6464SOL     OW20071   5.127   2.424   7.528
 6464SOL    HW120072   5.053   2.414   7.589
 6464SOL    HW220073   5.201   2.384   7.574
 6465SOL     OW20074   4.250   2.128   7.771
 6465SOL    HW120075   4.293   2.077   7.702
 6465SOL    HW220076   4.228   2.211   7.729
 6466SOL     OW20077   4.436   2.923   7.812
 6466SOL    HW120078   4.411   2.912   7.903
 6466SOL    HW220079   4.515   2.871   7.801
 6467SOL     OW20080   4.090   2.963   7.928
 6467SOL    HW120081   4.071   3.042   7.878
 6467SOL    HW220082   4.076   2.891   7.866
 6468SOL     OW20083   4.959   3.219   7.820
 6468SOL    HW120084   5.017   3.289   7.849
 6468SOL    HW220085   4.902   3.202   7.895
 6469SOL     OW20086   0.035   2.509   7.925
 6469SOL    HW120087   5.279   2.534   7.998
 6469SOL    HW220088   0.040   2.587   7.871
 6470SOL     OW20089   4.928   2.392   7.714
 6470SOL    HW120090   4.933   2.308   7.760
 6470SOL    HW220091   4.898   2.453   7.781
 6471SOL     OW20092   0.027   2.261   7.809
 6471SOL    HW120093   0.040   2.192   7.874
 6471SOL    HW220094   0.021   2.342   7.860
 6472SOL     OW20095   5.033   2.694   7.489
 6472SOL    HW120096   5.064   2.603   7.487
 6472SOL    HW220097   5.056   2.730   7.404
 6473SOL     OW20098   3.730   3.186   7.640
 6473SOL    HW120099   3.642   3.199   7.603
 6473SOL    HW220100   3.729   3.097   7.674
 6474SOL     OW20101   4.562   2.459   7.761
 6474SOL    HW120102   4.552   2.368   7.735
 6474SOL    HW220103   4.472   2.494   7.762
 6475SOL     OW20104   4.187   2.355   7.643
 6475SOL    HW120105   4.245   2.430   7.657
 6475SOL    HW220106   4.102   2.395   7.624
 6476SOL     OW20107   5.032   2.708   7.772
 6476SOL    HW120108   4.939   2.721   7.791
 6476SOL    HW220109   5.037   2.708   7.676
 6477SOL     OW20110   0.179   2.004   7.990
 6477SOL    HW120111   0.160   1.985   7.898
 6477SOL    HW220112   0.137   1.933   8.038
 6478SOL     OW20113   5.102   3.435   7.907
 6478SOL    HW120114   5.197   3.448   7.901
 6478SOL    HW220115   5.069   3.515   7.947
 6479SOL     OW20116   4.390   3.481   7.604
 6479SOL    HW120117   4.403   3.492   7.510
 6479SOL    HW220118   4.339   3.401   7.612
 6480SOL     OW20119   4.912   3.473   7.486
 6480SOL    HW120120   4.921   3.379   7.501
 6480SOL    HW220121   4.853   3.480   7.411
 6481SOL     OW20122   4.654   2.772   7.758
 6481SOL    HW120123   4.705   2.797   7.680
 6481SOL    HW220124   4.646   2.677   7.751
 6482SOL     OW20125   4.327   3.367   7.936
 6482SOL    HW120126   4.372   3.306   7.878
 6482SOL    HW220127   4.256   3.404   7.883
 6483SOL     OW20128   3.982   3.209   7.740
 6483SOL    HW120129   3.889   3.207   7.715
 6483SOL    HW220130   3.982   3.245   7.829
 6484SOL     OW20131   3.801   2.196   7.484
 6484SOL    HW120132   3.715   2.176   7.448
 6484SOL    HW220133   3.831   2.272   7.433
 6485SOL     OW20134   3.795   2.020   7.759
 6485SOL    HW120135   3.778   2.096   7.704
 6485SOL    HW220136   3.878   1.984   7.727
 6486SOL     OW20137   4.906   3.192   7.556
 6486SOL    HW120138   4.811   3.178   7.556
 6486SOL    HW220139   4.929   3.204   7.648
 6487SOL     OW20140   5.265   3.605   0.321
 6487SOL    HW120141   5.268   3.692   0.280
 6487SOL    HW220142   0.036   3.606   0.385
 6488SOL     OW20143   4.939   2.182   7.900
 6488SOL    HW120144   5.010   2.119   7.890
 6488SOL    HW220145   4.957   2.225   7.984
 6489SOL     OW20146   4.347   2.595   8.059
 6489SOL    HW120147   4.355   2.679   0.024
 6489SOL    HW220148   4.261   2.597   8.018
 6490SOL     OW20149   4.590   3.228   7.481
 6490SOL    HW120150   4.550   3.257   7.564
 6490SOL    HW220151   4.607   3.310   7.434
 6491SOL     OW20152   4.802   2.841   7.539
 6491SOL    HW120153   4.779   2.896   7.464
 6491SOL    HW220154   4.880   2.793   7.511
 6492SOL     OW20155   4.112   2.287   7.981
 6492SOL    HW120156   4.163   2.237   7.918
 6492SOL    HW220157   4.160   2.279   8.063
 6493SOL     OW20158   4.490   3.196   7.757
 6493SOL    HW120159   4.459   3.106   7.761
 6493SOL    HW220160   4.568   3.197   7.812
 6494SOL     OW20161   5.063   1.907   7.612
 6494SOL    HW120162   5.084   1.863   7.529
 6494SOL    HW220163   4.978   1.870   7.638
 6495SOL     OW20164   3.774   2.941   7.750
 6495SOL    HW120165   3.868   2.930   7.736
 6495SOL    HW220166   3.742   2.852   7.767
 6496SOL     OW20167   4.613   3.509   7.783
 6496SOL    HW120168   4.537   3.488   7.729
 6496SOL    HW220169   4.582   3.574   7.846
 6497SOL     OW20170   3.945   4.348   0.121
 6497SOL    HW120171   3.864   4.315   0.160
 6497SOL    HW220172   3.966   4.285   0.051
 6498SOL     OW20173   3.949   4.004   0.991
 6498SOL    HW120174   3.977   3.971   1.076
 6498SOL    HW220175   3.859   3.972   0.982
 6499SOL     OW20176   3.729   4.107   0.638
 6499SOL    HW120177   3.646   4.132   0.679
 6499SOL    HW220178   3.708   4.027   0.590
 6500SOL     OW20179   4.290   5.004   1.178
 6500SOL    HW120180   4.204   5.004   1.134
 6500SOL    HW220181   4.302   5.095   1.205
 6501SOL     OW20182   5.276   5.233   0.693
 6501SOL    HW120183   5.262   5.215   0.786
 6501SOL    HW220184   5.189   5.231   0.654
 6502SOL     OW20185   4.858   4.423   0.701
 6502SOL    HW120186   4.908   4.504   0.690
 6502SOL    HW220187   4.809   4.436   0.783
 6503SOL     OW20188   4.480   4.868   1.037
 6503SOL    HW120189   4.412   4.900   1.097
 6503SOL    HW220190   4.511   4.947   0.991
 6504SOL     OW20191   4.591   4.501   1.822
 6504SOL    HW120192   4.574   4.572   1.883
 6504SOL    HW220193   4.613   4.544   1.739
 6505SOL     OW20194   4.408   4.726   0.651
 6505SOL    HW120195   4.474   4.715   0.720
 6505SOL    HW220196   4.340   4.780   0.691
 6506SOL     OW20197   4.433   4.874   1.811
 6506SOL    HW120198   4.480   4.953   1.835
 6506SOL    HW220199   4.349   4.906   1.777
 6507SOL     OW20200   4.061   5.153   1.061
 6507SOL    HW120201   3.985   5.109   1.023
 6507SOL    HW220202   4.102   5.197   0.986
 6508SOL     OW20203   5.131   5.237   1.341
 6508SOL    HW120204   5.153   0.008   1.402
 6508SOL    HW220205   5.111   5.162   1.397
 6509SOL     OW20206   4.172   4.122   1.489
 6509SOL    HW120207   4.247   4.064   1.494
 6509SOL    HW220208   4.096   4.065   1.501
 6510SOL     OW20209   4.864   5.053   1.699
 6510SOL    HW120210   4.887   5.065   1.791
 6510SOL    HW220211   4.803   4.979   1.700
 6511SOL     OW20212   3.932   5.155   0.516
 6511SOL    HW120213   3.959   5.238   0.555
 6511SOL    HW220214   3.879   5.112   0.584
 6512SOL     OW20215   3.980   4.811   0.891
 6512SOL    HW120216   3.978   4.725   0.931
 6512SOL    HW220217   3.923   4.865   0.946
 6513SOL     OW20218   4.354   4.685   0.131
 6513SOL    HW120219   4.303   4.762   0.106
 6513SOL    HW220220   4.403   4.713   0.209
 6514SOL     OW20221   3.839   4.374   0.562
 6514SOL    HW120222   3.808   4.286   0.583
 6514SOL    HW220223   3.830   4.422   0.644
 6515SOL     OW20224   3.702   0.018   0.096
 6515SOL    HW120225   3.719   5.228   0.124
 6515SOL    HW220226   3.731   0.072   0.170
 6516SOL     OW20227   0.114   4.657   0.581
 6516SOL    HW120228   0.206   4.633   0.592
 6516SOL    HW220229   0.116   4.744   0.541
 6517SOL     OW20230   3.847   4.466   1.586
 6517SOL    HW120231   3.939   4.490   1.596
 6517SOL    HW220232   3.799   4.549   1.594
 6518SOL     OW20233   4.345   5.098   0.736
 6518SOL    HW120234   4.291   5.019   0.734
 6518SOL    HW220235   4.327   5.141   0.653
 6519SOL     OW20236   5.019   4.969   1.421
 6519SOL    HW120237   5.048   4.898   1.364
 6519SOL    HW220238   5.067   4.955   1.503
 6520SOL     OW20239   4.538   3.725   0.510
 6520SOL    HW120240   4.578   3.810   0.489
 6520SOL    HW220241   4.445   3.744   0.518
 6521SOL     OW20242   3.915   4.691   1.269
 6521SOL    HW120243   3.999   4.648   1.255
 6521SOL    HW220244   3.851   4.635   1.225
 6522SOL     OW20245   4.056   3.974   1.809
 6522SOL    HW120246   4.101   4.057   1.825
 6522SOL    HW220247   3.967   3.989   1.842
 6523SOL     OW20248   5.178   5.152   0.952
 6523SOL    HW120249   5.110   5.162   1.018
 6523SOL    HW220250   5.164   5.065   0.914
 6524SOL     OW20251   0.051   0.162   0.564
 6524SOL    HW120252   0.090   0.121   0.487
 6524SOL    HW220253   0.040   0.091   0.627
 6525SOL     OW20254   4.321   4.439   0.281
 6525SOL    HW120255   4.341   4.516   0.228
 6525SOL    HW220256   4.257   4.470   0.345
 6526SOL     OW20257   4.996   4.060   0.920
 6526SOL    HW120258   4.908   4.030   0.941
 6526SOL    HW220259   5.051   4.026   0.991
 6527SOL     OW20260   4.515   4.341   1.452
 6527SOL    HW120261   4.489   4.318   1.541
 6527SOL    HW220262   4.474   4.275   1.396
 6528SOL     OW20263   5.115   4.203   1.680
 6528SOL    HW120264   5.116   4.241   1.768
 6528SOL    HW220265   5.191   4.144   1.679
 6529SOL     OW20266   4.679   4.612   1.581
 6529SOL    HW120267   4.732   4.541   1.547
 6529SOL    HW220268   4.631   4.646   1.505
 6530SOL     OW20269   4.715   4.137   1.239
 6530SOL    HW120270   4.630   4.159   1.277
 6530SOL    HW220271   4.694   4.090   1.158
 6531SOL     OW20272   4.776   4.421   0.426
 6531SOL    HW120273   4.791   4.417   0.521
 6531SOL    HW220274   4.693   4.376   0.413
 6532SOL     OW20275   3.813   4.545   0.775
 6532SOL    HW120276   3.894   4.538   0.826
 6532SOL    HW220277   3.769   4.622   0.811
 6533SOL     OW20278   4.608   4.081   0.200
 6533SOL    HW120279   4.653   4.129   0.131
 6533SOL    HW220280   4.609   3.989   0.171
 6534SOL     OW20281   5.091   4.868   0.546
 6534SOL    HW120282   5.179   4.863   0.508
 6534SOL    HW220283   5.043   4.928   0.489
 6535SOL     OW20284   4.273   3.906   0.893
 6535SOL    HW120285   4.276   3.934   0.984
 6535SOL    HW220286   4.276   3.988   0.843
 6536SOL     OW20287   4.743   5.167   0.468
 6536SOL    HW120288   4.666   5.224   0.465
 6536SOL    HW220289   4.765   5.161   0.560
 6537SOL     OW20290   4.938   5.261   1.553
 6537SOL    HW120291   4.915   5.178   1.595
 6537SOL    HW220292   4.903   5.253   1.464
 6538SOL     OW20293   4.052   4.665   0.252
 6538SOL    HW120294   4.123   4.706   0.203
 6538SOL    HW220295   4.051   4.574   0.222
 6539SOL     OW20296   4.188   4.987   1.740
 6539SOL    HW120297   4.161   4.990   1.648
 6539SOL    HW220298   4.106   4.986   1.789
 6540SOL     OW20299   4.872   0.190   0.220
 6540SOL    HW120300   4.797   0.178   0.277
 6540SOL    HW220301   4.846   0.151   0.137
 6541SOL     OW20302   3.924   4.006   1.500
 6541SOL    HW120303   3.843   4.055   1.495
 6541SOL    HW220304   3.908   3.939   1.567
 6542SOL     OW20305   5.118   3.848   0.438
 6542SOL    HW120306   5.101   3.830   0.345
 6542SOL    HW220307   5.213   3.856   0.444
 6543SOL     OW20308   4.110   4.421   0.477
 6543SOL    HW120309   4.135   4.330   0.487
 6543SOL    HW220310   4.017   4.423   0.500
 6544SOL     OW20311   4.353   3.836   0.135
 6544SOL    HW120312   4.448   3.823   0.141
 6544SOL    HW220313   4.333   3.816   0.043
 6545SOL     OW20314   4.490   4.002   1.754
 6545SOL    HW120315   4.566   3.943   1.756
 6545SOL    HW220316   4.442   3.982   1.833
 6546SOL     OW20317   5.058   4.315   1.432
 6546SOL    HW120318   5.091   4.283   1.516
 6546SOL    HW220319   5.100   4.400   1.421
 6547SOL     OW20320   4.535   5.120   0.935
 6547SOL    HW120321   4.616   5.107   0.887
 6547SOL    HW220322   4.467   5.126   0.868
 6548SOL     OW20323   4.651   4.233   0.903
 6548SOL    HW120324   4.628   4.224   0.811
 6548SOL    HW220325   4.683   4.146   0.928
 6549SOL     OW20326   4.273   3.787   0.506
 6549SOL    HW120327   4.192   3.787   0.557
 6549SOL    HW220328   4.267   3.865   0.452
 6550SOL     OW20329   5.130   4.895   0.031
 6550SOL    HW120330   5.151   4.833   0.100
 6550SOL    HW220331   5.048   4.936   0.060
 6551SOL     OW20332   4.034   3.778   0.168
 6551SOL    HW120333   4.098   3.847   0.183
 6551SOL    HW220334   4.071   3.701   0.211
 6552SOL     OW20335   4.661   3.970   0.460
 6552SOL    HW120336   4.633   4.011   0.378
 6552SOL    HW220337   4.755   3.986   0.464
 6553SOL     OW20338   4.801   4.405   1.461
 6553SOL    HW120339   4.734   4.337   1.463
 6553SOL    HW220340   4.883   4.356   1.451
 6554SOL     OW20341   4.981   5.266   0.775
 6554SOL    HW120342   4.955   0.053   0.745
 6554SOL    HW220343   5.036   5.282   0.852
 6555SOL     OW20344   4.188   4.872   0.732
 6555SOL    HW120345   4.120   4.852   0.796
 6555SOL    HW220346   4.148   4.854   0.647
 6556SOL     OW20347   4.759   4.256   0.027
 6556SOL    HW120348   4.711   4.335   0.002
 6556SOL    HW220349   4.818   4.285   0.097
 6557SOL     OW20350   3.802   4.279   1.392
 6557SOL    HW120351   3.894   4.277   1.365
 6557SOL    HW220352   3.798   4.349   1.457
 6558SOL     OW20353   4.284   3.951   1.165
 6558SOL    HW120354   4.325   3.874   1.204
 6558SOL    HW220355   4.193   3.948   1.195
 6559SOL     OW20356   4.591   4.182   0.639
 6559SOL    HW120357   4.549   4.238   0.574
 6559SOL    HW220358   4.613   4.102   0.591
 6560SOL     OW20359   4.739   3.776   0.752
 6560SOL    HW120360   4.680   3.769   0.677
 6560SOL    HW220361   4.717   3.701   0.806
 6561SOL     OW20362   5.153   4.901   0.850
 6561SOL    HW120363   5.101   4.822   0.859
 6561SOL    HW220364   5.172   4.907   0.756
 6562SOL     OW20365   4.191   5.160   0.157
 6562SOL    HW120366   4.143   5.103   0.217
 6562SOL    HW220367   4.226   5.101   0.090
 6563SOL     OW20368   5.124   4.308   0.076
 6563SOL    HW120369   5.066   4.283   0.148
 6563SOL    HW220370   5.195   4.243   0.080
 6564SOL     OW20371   4.242   3.987   0.324
 6564SOL    HW120372   4.291   3.935   0.261
 6564SOL    HW220373   4.230   4.072   0.281
 6565SOL     OW20374   4.787   5.074   1.330
 6565SOL    HW120375   4.709   5.049   1.381
 6565SOL    HW220376   4.860   5.035   1.379
 6566SOL     OW20377   4.847   4.922   1.109
 6566SOL    HW120378   4.796   4.966   1.177
 6566SOL    HW220379   4.806   4.951   1.027
 6567SOL     OW20380   4.642   3.822   1.397
 6567SOL    HW120381   4.664   3.804   1.306
 6567SOL    HW220382   4.721   3.861   1.434
 6568SOL     OW20383   4.706   4.834   1.729
 6568SOL    HW120384   4.613   4.852   1.745
 6568SOL    HW220385   4.705   4.759   1.669
 6569SOL     OW20386   4.433   4.782   0.380
 6569SOL    HW120387   4.418   4.767   0.474
 6569SOL    HW220388   4.512   4.733   0.360
 6570SOL     OW20389   4.142   4.538   1.251
 6570SOL    HW120390   4.211   4.548   1.317
 6570SOL    HW220391   4.107   4.450   1.266
 6571SOL     OW20392   4.989   4.100   1.276
 6571SOL    HW120393   5.024   4.179   1.317
 6571SOL    HW220394   4.900   4.123   1.250
 6572SOL     OW20395   4.068   4.831   0.491
 6572SOL    HW120396   4.073   4.904   0.429
 6572SOL    HW220397   4.079   4.753   0.437
 6573SOL     OW20398   4.277   4.261   0.860
 6573SOL    HW120399   4.293   4.319   0.786
 6573SOL    HW220400   4.342   4.288   0.926
 6574SOL     OW20401   4.981   5.069   0.386
 6574SOL    HW120402   5.033   5.149   0.393
 6574SOL    HW220403   4.893   5.095   0.414
 6575SOL     OW20404   4.979   5.180   1.132
 6575SOL    HW120405   5.034   5.202   1.207
 6575SOL    HW220406   4.940   5.096   1.155
 6576SOL     OW20407   4.072   5.236   1.316
 6576SOL    HW120408   4.061   5.201   1.227
 6576SOL    HW220409   4.165   5.257   1.322
 6577SOL     OW20410   4.138   4.469   1.602
 6577SOL    HW120411   4.199   4.514   1.544
 6577SOL    HW220412   4.178   4.383   1.618
 6578SOL     OW20413   4.718   3.847   1.756
 6578SOL    HW120414   4.774   3.919   1.727
 6578SOL    HW220415   4.766   3.768   1.730
 6579SOL     OW20416   4.222   3.766   1.747
 6579SOL    HW120417   4.180   3.711   1.681
 6579SOL    HW220418   4.162   3.840   1.759
 6580SOL     OW20419   4.306   4.597   1.031
 6580SOL    HW120420   4.338   4.687   1.029
 6580SOL    HW220421   4.251   4.592   1.109
 6581SOL     OW20422   5.085   4.581   1.038
 6581SOL    HW120423   5.010   4.565   0.981
 6581SOL    HW220424   5.137   4.500   1.032
 6582SOL     OW20425   4.932   4.255   0.270
 6582SOL    HW120426   4.935   4.175   0.322
 6582SOL    HW220427   4.886   4.318   0.326
 6583SOL     OW20428   4.023   3.923   1.246
 6583SOL    HW120429   3.986   3.956   1.328
 6583SOL    HW220430   4.004   3.829   1.247
 6584SOL     OW20431   3.775   5.046   1.284
 6584SOL    HW120432   3.801   4.982   1.351
 6584SOL    HW220433   3.811   5.129   1.315
 6585SOL     OW20434   4.448   4.355   1.058
 6585SOL    HW120435   4.523   4.338   1.001
 6585SOL    HW220436   4.421   4.444   1.037
 6586SOL     OW20437   4.025   3.789   0.623
 6586SOL    HW120438   4.008   3.880   0.647
 6586SOL    HW220439   4.033   3.743   0.707
 6587SOL     OW20440   0.045   4.102   0.358
 6587SOL    HW120441   0.061   4.044   0.433
 6587SOL    HW220442   0.016   4.184   0.397
 6588SOL     OW20443   4.750   4.483   0.960
 6588SOL    HW120444   4.750   4.501   1.054
 6588SOL    HW220445   4.725   4.391   0.954
 6589SOL     OW20446   4.077   4.640   1.808
 6589SOL    HW120447   4.159   4.659   1.854
 6589SOL    HW220448   4.101   4.578   1.740
 6590SOL     OW20449   5.027   4.556   0.027
 6590SOL    HW120450   5.060   4.468   0.045
 6590SOL    HW220451   5.061   4.577   8.020
 6591SOL     OW20452   4.781   5.077   0.830
 6591SOL    HW120453   4.788   4.993   0.785
 6591SOL    HW220454   4.866   5.119   0.815
 6592SOL     OW20455   4.033   4.533   0.947
 6592SOL    HW120456   4.126   4.555   0.942
 6592SOL    HW220457   4.031   4.444   0.981
 6593SOL     OW20458   4.056   4.249   1.012
 6593SOL    HW120459   4.021   4.161   0.996
 6593SOL    HW220460   4.132   4.255   0.955
 6594SOL     OW20461   4.856   4.101   1.680
 6594SOL    HW120462   4.810   4.156   1.743
 6594SOL    HW220463   4.944   4.139   1.675
 6595SOL     OW20464   4.885   3.927   1.469
 6595SOL    HW120465   4.874   3.989   1.541
 6595SOL    HW220466   4.923   3.979   1.398
 6596SOL     OW20467   3.734   5.045   0.181
 6596SOL    HW120468   3.646   5.058   0.146
 6596SOL    HW220469   3.733   4.958   0.220
 6597SOL     OW20470   4.708   4.517   1.227
 6597SOL    HW120471   4.764   4.494   1.301
 6597SOL    HW220472   4.622   4.479   1.249
 6598SOL     OW20473   3.760   4.268   1.116
 6598SOL    HW120474   3.841   4.254   1.068
 6598SOL    HW220475   3.787   4.273   1.208
 6599SOL     OW20476   3.915   4.243   1.727
 6599SOL    HW120477   3.973   4.206   1.660
 6599SOL    HW220478   3.871   4.316   1.683
 6600SOL     OW20479   5.111   4.663   1.666
 6600SOL    HW120480   5.119   4.758   1.654
 6600SOL    HW220481   5.114   4.628   1.577
 6601SOL     OW20482   4.542   4.293   0.365
 6601SOL    HW120483   4.550   4.222   0.302
 6601SOL    HW220484   4.466   4.343   0.335
 6602SOL     OW20485   3.930   5.277   1.745
 6602SOL    HW120486   3.918   0.030   1.824
 6602SOL    HW220487   3.942   5.188   1.777
 6603SOL     OW20488   4.422   4.175   1.260
 6603SOL    HW120489   4.371   4.101   1.229
 6603SOL    HW220490   4.420   4.238   1.188
 6604SOL     OW20491   4.192   4.215   0.180
 6604SOL    HW120492   4.258   4.281   0.199
 6604SOL    HW220493   4.109   4.260   0.190
 6605SOL     OW20494   3.870   4.863   1.470
 6605SOL    HW120495   3.873   4.811   1.551
 6605SOL    HW220496   3.887   4.800   1.400
 6606SOL     OW20497   5.051   4.771   1.227
 6606SOL    HW120498   5.076   4.709   1.158
 6606SOL    HW220499   4.980   4.822   1.189
 6607SOL     OW20500   5.022   4.594   0.319
 6607SOL    HW120501   4.945   4.548   0.352
 6607SOL    HW220502   5.024   4.573   0.225
 6608SOL     OW20503   3.816   4.986   1.021
 6608SOL    HW120504   3.796   5.003   1.113
 6608SOL    HW220505   3.737   4.947   0.985
 6609SOL     OW20506   4.469   0.036   1.712
 6609SOL    HW120507   4.377   0.062   1.716
 6609SOL    HW220508   4.499   0.065   1.626
 6610SOL     OW20509   4.629   3.815   0.134
 6610SOL    HW120510   4.650   3.799   0.042
 6610SOL    HW220511   4.692   3.761   0.182
 6611SOL     OW20512   0.083   3.873   0.521
 6611SOL    HW120513   0.174   3.868   0.493
 6611SOL    HW220514   0.074   3.803   0.586
 6612SOL     OW20515   5.016   4.642   0.673
 6612SOL    HW120516   5.093   4.588   0.659
 6612SOL    HW220517   5.033   4.722   0.624
 6613SOL     OW20518   4.544   4.993   1.424
 6613SOL    HW120519   4.515   5.030   1.508
 6613SOL    HW220520   4.469   5.005   1.366
 6614SOL     OW20521   3.987   4.040   0.718
 6614SOL    HW120522   3.901   4.076   0.694
 6614SOL    HW220523   3.984   4.032   0.813
 6615SOL     OW20524   4.858   0.020   0.008
 6615SOL    HW120525   4.883   5.232   0.035
 6615SOL    HW220526   4.866   0.019   7.992
 6616SOL     OW20527   4.549   4.728   1.370
 6616SOL    HW120528   4.595   4.723   1.287
 6616SOL    HW220529   4.552   4.821   1.393
 6617SOL     OW20530   4.642   4.638   0.299
 6617SOL    HW120531   4.697   4.665   0.225
 6617SOL    HW220532   4.690   4.566   0.339
 6618SOL     OW20533   4.089   5.025   1.496
 6618SOL    HW120534   4.079   5.100   1.437
 6618SOL    HW220535   4.014   4.969   1.478
 6619SOL     OW20536   4.776   4.833   0.711
 6619SOL    HW120537   4.705   4.781   0.749
 6619SOL    HW220538   4.833   4.769   0.669
 6620SOL     OW20539   4.739   3.963   0.968
 6620SOL    HW120540   4.738   3.915   0.885
 6620SOL    HW220541   4.736   3.895   1.035
 6621SOL     OW20542   3.988   5.029   0.288
 6621SOL    HW120543   3.906   5.046   0.241
 6621SOL    HW220544   3.980   5.080   0.369
 6622SOL     OW20545   3.836   4.744   1.718
 6622SOL    HW120546   3.760   4.721   1.772
 6622SOL    HW220547   3.911   4.708   1.766
 6623SOL     OW20548   4.398   3.920   1.499
 6623SOL    HW120549   4.482   3.901   1.457
 6623SOL    HW220550   4.421   3.951   1.587
 6624SOL     OW20551   3.782   4.086   0.039
 6624SOL    HW120552   3.707   4.031   0.015
 6624SOL    HW220553   3.828   4.102   8.037
 6625SOL     OW20554   5.163   4.583   1.404
 6625SOL    HW120555   5.110   4.640   1.347
 6625SOL    HW220556   5.252   4.592   1.369
 6626SOL     OW20557   3.795   3.879   0.307
 6626SOL    HW120558   3.779   3.963   0.264
 6626SOL    HW220559   3.880   3.849   0.273
 6627SOL     OW20560   4.907   5.054   0.109
 6627SOL    HW120561   4.811   5.046   0.109
 6627SOL    HW220562   4.929   5.062   0.202
 6628SOL     OW20563   4.343   4.555   1.433
 6628SOL    HW120564   4.399   4.631   1.417
 6628SOL    HW220565   4.403   4.482   1.441
 6629SOL     OW20566   4.441   4.288   1.705
 6629SOL    HW120567   4.480   4.351   1.766
 6629SOL    HW220568   4.471   4.203   1.736
 6630SOL     OW20569   5.184   4.928   1.633
 6630SOL    HW120570   5.174   4.940   1.727
 6630SOL    HW220571   5.279   4.933   1.618
 6631SOL     OW20572   4.935   4.048   0.460
 6631SOL    HW120573   4.998   3.977   0.449
 6631SOL    HW220574   4.964   4.094   0.539
 6632SOL     OW20575   4.313   4.462   0.668
 6632SOL    HW120576   4.353   4.547   0.655
 6632SOL    HW220577   4.244   4.457   0.602
 6633SOL     OW20578   4.632   5.097   0.036
 6633SOL    HW120579   4.572   5.079   0.108
 6633SOL    HW220580   4.587   5.161   8.062
 6634SOL     OW20581   4.591   4.690   0.856
 6634SOL    HW120582   4.642   4.619   0.896
 6634SOL    HW220583   4.558   4.741   0.930
 6635SOL     OW20584   4.801   4.701   0.087
 6635SOL    HW120585   4.787   4.758   0.011
 6635SOL    HW220586   4.883   4.655   0.068
 6636SOL     OW20587   3.947   5.025   1.853
 6636SOL    HW120588   3.879   4.963   1.828
 6636SOL    HW220589   3.936   5.037   1.947
 6637SOL     OW20590   3.810   4.955   0.669
 6637SOL    HW120591   3.808   4.903   0.749
 6637SOL    HW220592   3.879   4.915   0.616
 6638SOL     OW20593   4.393   5.107   1.609
 6638SOL    HW120594   4.318   5.073   1.657
 6638SOL    HW220595   4.424   5.182   1.660
 6639SOL     OW20596   4.149   4.160   0.523
 6639SOL    HW120597   4.182   4.088   0.469
 6639SOL    HW220598   4.105   4.116   0.596
 6640SOL     OW20599   0.122   5.228   1.052
 6640SOL    HW120600   0.038   5.205   1.013
 6640SOL    HW220601   0.106   5.229   1.146
 6641SOL     OW20602   4.053   4.278   1.291
 6641SOL    HW120603   4.109   4.223   1.347
 6641SOL    HW220604   4.073   4.250   1.202
 6642SOL     OW20605   5.148   3.942   1.115
 6642SOL    HW120606   5.193   3.877   1.169
 6642SOL    HW220607   5.102   3.998   1.178
 6643SOL     OW20608   4.730   3.743   1.143
 6643SOL    HW120609   4.677   3.674   1.103
 6643SOL    HW220610   4.818   3.706   1.148
 6644SOL     OW20611   4.518   5.040   0.283
 6644SOL    HW120612   4.462   4.966   0.308
 6644SOL    HW220613   4.577   5.052   0.357
 6645SOL     OW20614   4.346   5.299   1.290
 6645SOL    HW120615   4.353   0.054   1.368
 6645SOL    HW220616   4.436   5.280   1.265
 6646SOL     OW20617   5.052   3.785   0.185
 6646SOL    HW120618   5.095   3.736   0.115
 6646SOL    HW220619   4.975   3.734   0.207
 6647SOL     OW20620   5.029   4.184   0.684
 6647SOL    HW120621   4.974   4.262   0.688
 6647SOL    HW220622   5.017   4.142   0.769
 6648SOL     OW20623   0.000   3.948   0.877
 6648SOL    HW120624   5.236   3.936   0.947
 6648SOL    HW220625   5.278   4.032   0.837
 6649SOL     OW20626   3.765   4.792   0.302
 6649SOL    HW120627   3.860   4.794   0.306
 6649SOL    HW220628   3.741   4.709   0.343
 6650SOL     OW20629   3.954   4.347   1.984
 6650SOL    HW120630   3.864   4.347   2.018
 6650SOL    HW220631   3.945   4.321   1.893
 6651SOL     OW20632   3.949   4.004   2.853
 6651SOL    HW120633   3.977   3.971   2.938
 6651SOL    HW220634   3.859   3.972   2.844
 6652SOL     OW20635   3.729   4.106   2.500
 6652SOL    HW120636   3.646   4.131   2.541
 6652SOL    HW220637   3.708   4.027   2.451
 6653SOL     OW20638   4.290   5.004   3.040
 6653SOL    HW120639   4.204   5.003   2.996
 6653SOL    HW220640   4.302   5.095   3.067
 6654SOL     OW20641   5.276   5.232   2.556
 6654SOL    HW120642   5.263   5.216   2.649
 6654SOL    HW220643   5.187   5.232   2.519
 6655SOL     OW20644   4.857   4.423   2.563
 6655SOL    HW120645   4.908   4.504   2.553
 6655SOL    HW220646   4.809   4.435   2.645
 6656SOL     OW20647   4.481   4.869   2.899
 6656SOL    HW120648   4.413   4.900   2.959
 6656SOL    HW220649   4.511   4.947   2.853
 6657SOL     OW20650   4.591   4.501   3.684
 6657SOL    HW120651   4.574   4.572   3.745
 6657SOL    HW220652   4.613   4.544   3.602
 6658SOL     OW20653   4.410   4.728   2.511
 6658SOL    HW120654   4.474   4.716   2.581
 6658SOL    HW220655   4.341   4.780   2.550
 6659SOL     OW20656   4.433   4.874   3.673
 6659SOL    HW120657   4.480   4.953   3.697
 6659SOL    HW220658   4.349   4.906   3.639
 6660SOL     OW20659   4.061   5.153   2.923
 6660SOL    HW120660   3.984   5.109   2.885
 6660SOL    HW220661   4.102   5.196   2.848
 6661SOL     OW20662   5.132   5.236   3.203
 6661SOL    HW120663   5.153   0.007   3.264
 6661SOL    HW220664   5.111   5.162   3.260
 6662SOL     OW20665   4.172   4.123   3.351
 6662SOL    HW120666   4.247   4.063   3.355
 6662SOL    HW220667   4.096   4.066   3.363
 6663SOL     OW20668   4.864   5.053   3.561
 6663SOL    HW120669   4.887   5.066   3.653
 6663SOL    HW220670   4.803   4.979   3.562
 6664SOL     OW20671   3.934   5.155   2.382
 6664SOL    HW120672   3.959   5.238   2.422
 6664SOL    HW220673   3.882   5.111   2.449
 6665SOL     OW20674   3.981   4.811   2.753
 6665SOL    HW120675   3.978   4.724   2.793
 6665SOL    HW220676   3.923   4.865   2.808
 6666SOL     OW20677   4.311   4.705   1.995
 6666SOL    HW120678   4.356   4.755   1.927
 6666SOL    HW220679   4.350   4.735   2.077
 6667SOL     OW20680   3.839   4.376   2.421
 6667SOL    HW120681   3.809   4.287   2.442
 6667SOL    HW220682   3.830   4.424   2.504
 6668SOL     OW20683   3.710   0.014   1.961
 6668SOL    HW120684   3.727   5.225   1.991
 6668SOL    HW220685   3.733   0.069   2.037
 6669SOL     OW20686   0.112   4.659   2.430
 6669SOL    HW120687   0.199   4.627   2.455
 6669SOL    HW220688   0.128   4.748   2.397
 6670SOL     OW20689   3.847   4.466   3.448
 6670SOL    HW120690   3.939   4.490   3.458
 6670SOL    HW220691   3.799   4.549   3.456
 6671SOL     OW20692   4.345   5.097   2.598
 6671SOL    HW120693   4.291   5.018   2.597
 6671SOL    HW220694   4.326   5.140   2.514
 6672SOL     OW20695   5.019   4.969   3.283
 6672SOL    HW120696   5.048   4.898   3.226
 6672SOL    HW220697   5.067   4.955   3.365
 6673SOL     OW20698   4.537   3.723   2.369
 6673SOL    HW120699   4.578   3.808   2.351
 6673SOL    HW220700   4.444   3.743   2.379
 6674SOL     OW20701   3.915   4.691   3.131
 6674SOL    HW120702   3.999   4.648   3.116
 6674SOL    HW220703   3.851   4.635   3.086
 6675SOL     OW20704   4.056   3.974   3.672
 6675SOL    HW120705   4.101   4.057   3.687
 6675SOL    HW220706   3.967   3.989   3.704
 6676SOL     OW20707   5.178   5.152   2.814
 6676SOL    HW120708   5.110   5.162   2.880
 6676SOL    HW220709   5.164   5.065   2.777
 6677SOL     OW20710   0.046   0.163   2.428
 6677SOL    HW120711   0.087   0.123   2.351
 6677SOL    HW220712   0.036   0.090   2.490
 6678SOL     OW20713   4.320   4.446   2.127
 6678SOL    HW120714   4.327   4.527   2.077
 6678SOL    HW220715   4.255   4.465   2.195
 6679SOL     OW20716   4.996   4.061   2.782
 6679SOL    HW120717   4.908   4.030   2.803
 6679SOL    HW220718   5.051   4.026   2.853
 6680SOL     OW20719   4.515   4.341   3.314
 6680SOL    HW120720   4.489   4.318   3.403
 6680SOL    HW220721   4.474   4.275   3.258
 6681SOL     OW20722   5.115   4.203   3.542
 6681SOL    HW120723   5.116   4.241   3.630
 6681SOL    HW220724   5.190   4.144   3.541
 6682SOL     OW20725   4.679   4.612   3.443
 6682SOL    HW120726   4.732   4.541   3.409
 6682SOL    HW220727   4.631   4.646   3.367
 6683SOL     OW20728   4.715   4.137   3.101
 6683SOL    HW120729   4.630   4.159   3.138
 6683SOL    HW220730   4.694   4.090   3.020
 6684SOL     OW20731   4.774   4.422   2.288
 6684SOL    HW120732   4.789   4.416   2.382
 6684SOL    HW220733   4.692   4.375   2.274
 6685SOL     OW20734   3.812   4.544   2.638
 6685SOL    HW120735   3.893   4.537   2.688
 6685SOL    HW220736   3.769   4.622   2.673
 6686SOL     OW20737   4.615   4.071   2.056
 6686SOL    HW120738   4.656   4.132   1.995
 6686SOL    HW220739   4.632   3.984   2.019
 6687SOL     OW20740   5.091   4.867   2.407
 6687SOL    HW120741   5.181   4.865   2.373
 6687SOL    HW220742   5.045   4.928   2.350
 6688SOL     OW20743   4.274   3.906   2.755
 6688SOL    HW120744   4.276   3.935   2.846
 6688SOL    HW220745   4.275   3.988   2.704
 6689SOL     OW20746   4.746   5.169   2.331
 6689SOL    HW120747   4.668   5.224   2.322
 6689SOL    HW220748   4.760   5.163   2.426
 6690SOL     OW20749   4.940   5.260   3.414
 6690SOL    HW120750   4.916   5.178   3.457
 6690SOL    HW220751   4.902   5.253   3.326
 6691SOL     OW20752   4.045   4.680   2.111
 6691SOL    HW120753   4.127   4.700   2.066
 6691SOL    HW220754   4.014   4.598   2.071
 6692SOL     OW20755   4.188   4.987   3.602
 6692SOL    HW120756   4.161   4.990   3.510
 6692SOL    HW220757   4.106   4.986   3.651
 6693SOL     OW20758   4.791   0.175   2.073
 6693SOL    HW120759   4.803   0.118   2.149
 6693SOL    HW220760   4.868   0.159   2.018
 6694SOL     OW20761   3.924   4.006   3.363
 6694SOL    HW120762   3.842   4.054   3.357
 6694SOL    HW220763   3.907   3.937   3.427
 6695SOL     OW20764   5.122   3.831   2.286
 6695SOL    HW120765   5.102   3.813   2.195
 6695SOL    HW220766   5.216   3.846   2.288
 6696SOL     OW20767   4.116   4.419   2.339
 6696SOL    HW120768   4.137   4.327   2.350
 6696SOL    HW220769   4.022   4.424   2.357
 6697SOL     OW20770   4.357   3.847   1.968
 6697SOL    HW120771   4.429   3.785   1.979
 6697SOL    HW220772   4.309   3.815   1.892
 6698SOL     OW20773   4.491   4.002   3.616
 6698SOL    HW120774   4.566   3.943   3.618
 6698SOL    HW220775   4.441   3.981   3.695
 6699SOL     OW20776   5.058   4.315   3.294
 6699SOL    HW120777   5.091   4.283   3.378
 6699SOL    HW220778   5.100   4.400   3.283
 6700SOL     OW20779   4.535   5.121   2.797
 6700SOL    HW120780   4.616   5.107   2.748
 6700SOL    HW220781   4.467   5.126   2.729
 6701SOL     OW20782   4.651   4.233   2.765
 6701SOL    HW120783   4.628   4.224   2.673
 6701SOL    HW220784   4.683   4.147   2.790
 6702SOL     OW20785   4.272   3.787   2.365
 6702SOL    HW120786   4.192   3.788   2.417
 6702SOL    HW220787   4.267   3.865   2.311
 6703SOL     OW20788   5.138   4.904   1.905
 6703SOL    HW120789   5.147   4.826   1.960
 6703SOL    HW220790   5.049   4.935   1.922
 6704SOL     OW20791   4.016   3.771   2.046
 6704SOL    HW120792   4.075   3.836   2.007
 6704SOL    HW220793   4.074   3.708   2.088
 6705SOL     OW20794   4.661   3.970   2.323
 6705SOL    HW120795   4.633   4.011   2.241
 6705SOL    HW220796   4.756   3.982   2.325
 6706SOL     OW20797   4.801   4.405   3.323
 6706SOL    HW120798   4.733   4.337   3.325
 6706SOL    HW220799   4.883   4.356   3.313
 6707SOL     OW20800   4.984   5.266   2.635
 6707SOL    HW120801   4.951   0.053   2.611
 6707SOL    HW220802   5.037   5.281   2.713
 6708SOL     OW20803   4.189   4.871   2.594
 6708SOL    HW120804   4.120   4.852   2.657
 6708SOL    HW220805   4.150   4.853   2.509
 6709SOL     OW20806   4.749   4.269   1.883
 6709SOL    HW120807   4.705   4.351   1.862
 6709SOL    HW220808   4.810   4.291   1.953
 6710SOL     OW20809   3.802   4.279   3.254
 6710SOL    HW120810   3.894   4.277   3.227
 6710SOL    HW220811   3.798   4.349   3.319
 6711SOL     OW20812   4.284   3.951   3.027
 6711SOL    HW120813   4.325   3.874   3.066
 6711SOL    HW220814   4.193   3.948   3.057
 6712SOL     OW20815   4.593   4.183   2.501
 6712SOL    HW120816   4.546   4.238   2.438
 6712SOL    HW220817   4.613   4.103   2.454
 6713SOL     OW20818   4.739   3.777   2.614
 6713SOL    HW120819   4.681   3.769   2.539
 6713SOL    HW220820   4.717   3.701   2.669
 6714SOL     OW20821   5.153   4.901   2.712
 6714SOL    HW120822   5.101   4.821   2.722
 6714SOL    HW220823   5.170   4.906   2.618
 6715SOL     OW20824   4.206   5.144   2.018
 6715SOL    HW120825   4.142   5.093   2.068
 6715SOL    HW220826   4.204   5.106   1.930
 6716SOL     OW20827   5.127   4.287   1.941
 6716SOL    HW120828   5.055   4.277   2.003
 6716SOL    HW220829   5.202   4.249   1.986
 6717SOL     OW20830   4.250   3.987   2.181
 6717SOL    HW120831   4.293   3.938   2.111
 6717SOL    HW220832   4.228   4.072   2.143
 6718SOL     OW20833   4.787   5.074   3.192
 6718SOL    HW120834   4.709   5.049   3.243
 6718SOL    HW220835   4.860   5.036   3.241
 6719SOL     OW20836   4.847   4.923   2.971
 6719SOL    HW120837   4.796   4.965   3.040
 6719SOL    HW220838   4.805   4.951   2.889
 6720SOL     OW20839   4.642   3.822   3.259
 6720SOL    HW120840   4.664   3.804   3.168
 6720SOL    HW220841   4.721   3.861   3.296
 6721SOL     OW20842   4.706   4.834   3.591
 6721SOL    HW120843   4.613   4.852   3.607
 6721SOL    HW220844   4.705   4.759   3.531
 6722SOL     OW20845   4.428   4.781   2.234
 6722SOL    HW120846   4.417   4.767   2.328
 6722SOL    HW220847   4.506   4.731   2.211
 6723SOL     OW20848   4.142   4.538   3.113
 6723SOL    HW120849   4.211   4.548   3.179
 6723SOL    HW220850   4.107   4.450   3.128
 6724SOL     OW20851   4.989   4.100   3.138
 6724SOL    HW120852   5.024   4.179   3.179
 6724SOL    HW220853   4.900   4.123   3.112
 6725SOL     OW20854   4.073   4.831   2.352
 6725SOL    HW120855   4.076   4.905   2.290
 6725SOL    HW220856   4.072   4.753   2.296
 6726SOL     OW20857   4.278   4.261   2.722
 6726SOL    HW120858   4.293   4.319   2.648
 6726SOL    HW220859   4.342   4.288   2.788
 6727SOL     OW20860   4.984   5.076   2.250
 6727SOL    HW120861   5.037   5.151   2.277
 6727SOL    HW220862   4.895   5.098   2.277
 6728SOL     OW20863   4.979   5.180   2.995
 6728SOL    HW120864   5.034   5.202   3.069
 6728SOL    HW220865   4.940   5.096   3.017
 6729SOL     OW20866   4.072   5.236   3.178
 6729SOL    HW120867   4.061   5.201   3.089
 6729SOL    HW220868   4.165   5.257   3.184
 6730SOL     OW20869   4.138   4.469   3.464
 6730SOL    HW120870   4.199   4.514   3.406
 6730SOL    HW220871   4.177   4.383   3.479
 6731SOL     OW20872   4.718   3.847   3.618
 6731SOL    HW120873   4.774   3.919   3.589
 6731SOL    HW220874   4.766   3.768   3.592
 6732SOL     OW20875   4.222   3.766   3.609
 6732SOL    HW120876   4.180   3.711   3.543
 6732SOL    HW220877   4.162   3.840   3.621
 6733SOL     OW20878   4.307   4.596   2.893
 6733SOL    HW120879   4.337   4.687   2.891
 6733SOL    HW220880   4.251   4.591   2.970
 6734SOL     OW20881   5.086   4.582   2.898
 6734SOL    HW120882   5.009   4.564   2.845
 6734SOL    HW220883   5.136   4.500   2.895
 6735SOL     OW20884   4.929   4.255   2.128
 6735SOL    HW120885   4.936   4.175   2.180
 6735SOL    HW220886   4.886   4.318   2.185
 6736SOL     OW20887   4.024   3.923   3.108
 6736SOL    HW120888   3.986   3.956   3.190
 6736SOL    HW220889   4.004   3.829   3.109
 6737SOL     OW20890   3.775   5.046   3.146
 6737SOL    HW120891   3.801   4.982   3.213
 6737SOL    HW220892   3.811   5.129   3.177
 6738SOL     OW20893   4.448   4.355   2.920
 6738SOL    HW120894   4.523   4.338   2.863
 6738SOL    HW220895   4.421   4.444   2.899
 6739SOL     OW20896   4.026   3.789   2.485
 6739SOL    HW120897   4.008   3.880   2.509
 6739SOL    HW220898   4.033   3.743   2.569
 6740SOL     OW20899   0.035   4.116   2.222
 6740SOL    HW120900   0.056   4.042   2.280
 6740SOL    HW220901   0.016   4.188   2.282
 6741SOL     OW20902   4.751   4.483   2.823
 6741SOL    HW120903   4.750   4.501   2.917
 6741SOL    HW220904   4.725   4.391   2.816
 6742SOL     OW20905   4.077   4.640   3.670
 6742SOL    HW120906   4.160   4.659   3.715
 6742SOL    HW220907   4.101   4.578   3.602
 6743SOL     OW20908   5.027   4.553   1.899
 6743SOL    HW120909   5.065   4.465   1.900
 6743SOL    HW220910   5.054   4.589   1.814
 6744SOL     OW20911   4.781   5.077   2.691
 6744SOL    HW120912   4.788   4.993   2.646
 6744SOL    HW220913   4.866   5.118   2.676
 6745SOL     OW20914   4.033   4.533   2.810
 6745SOL    HW120915   4.126   4.554   2.803
 6745SOL    HW220916   4.031   4.444   2.843
 6746SOL     OW20917   4.056   4.249   2.874
 6746SOL    HW120918   4.021   4.161   2.859
 6746SOL    HW220919   4.132   4.255   2.816
 6747SOL     OW20920   4.856   4.101   3.542
 6747SOL    HW120921   4.810   4.156   3.605
 6747SOL    HW220922   4.944   4.139   3.537
 6748SOL     OW20923   4.885   3.927   3.331
 6748SOL    HW120924   4.874   3.989   3.403
 6748SOL    HW220925   4.923   3.979   3.260
 6749SOL     OW20926   3.730   5.042   2.053
 6749SOL    HW120927   3.640   5.059   2.025
 6749SOL    HW220928   3.728   4.954   2.090
 6750SOL     OW20929   4.708   4.517   3.089
 6750SOL    HW120930   4.763   4.494   3.164
 6750SOL    HW220931   4.622   4.479   3.110
 6751SOL     OW20932   3.760   4.268   2.978
 6751SOL    HW120933   3.840   4.253   2.929
 6751SOL    HW220934   3.788   4.272   3.070
 6752SOL     OW20935   3.915   4.243   3.589
 6752SOL    HW120936   3.972   4.204   3.521
 6752SOL    HW220937   3.872   4.316   3.545
 6753SOL     OW20938   5.111   4.663   3.528
 6753SOL    HW120939   5.119   4.758   3.516
 6753SOL    HW220940   5.114   4.628   3.439
 6754SOL     OW20941   4.540   4.293   2.220
 6754SOL    HW120942   4.543   4.218   2.160
 6754SOL    HW220943   4.466   4.345   2.189
 6755SOL     OW20944   3.930   5.277   3.607
 6755SOL    HW120945   3.918   0.030   3.686
 6755SOL    HW220946   3.942   5.188   3.639
 6756SOL     OW20947   4.422   4.175   3.123
 6756SOL    HW120948   4.371   4.101   3.091
 6756SOL    HW220949   4.420   4.238   3.050
 6757SOL     OW20950   4.189   4.217   2.050
 6757SOL    HW120951   4.247   4.290   2.071
 6757SOL    HW220952   4.103   4.257   2.037
 6758SOL     OW20953   3.870   4.863   3.332
 6758SOL    HW120954   3.873   4.811   3.413
 6758SOL    HW220955   3.887   4.800   3.262
 6759SOL     OW20956   5.051   4.771   3.089
 6759SOL    HW120957   5.076   4.710   3.020
 6759SOL    HW220958   4.980   4.822   3.051
 6760SOL     OW20959   5.033   4.584   2.178
 6760SOL    HW120960   4.951   4.550   2.215
 6760SOL    HW220961   5.022   4.575   2.083
 6761SOL     OW20962   3.816   4.986   2.883
 6761SOL    HW120963   3.795   5.003   2.975
 6761SOL    HW220964   3.737   4.947   2.847
 6762SOL     OW20965   4.469   0.036   3.574
 6762SOL    HW120966   4.377   0.062   3.578
 6762SOL    HW220967   4.498   0.065   3.488
 6763SOL     OW20968   0.083   3.883   2.391
 6763SOL    HW120969   0.168   3.871   2.348
 6763SOL    HW220970   0.070   3.802   2.441
 6764SOL     OW20971   5.016   4.643   2.535
 6764SOL    HW120972   5.093   4.588   2.522
 6764SOL    HW220973   5.034   4.722   2.485
 6765SOL     OW20974   4.544   4.993   3.286
 6765SOL    HW120975   4.516   5.030   3.370
 6765SOL    HW220976   4.469   5.005   3.228
 6766SOL     OW20977   3.987   4.040   2.579
 6766SOL    HW120978   3.901   4.076   2.555
 6766SOL    HW220979   3.983   4.032   2.675
 6767SOL     OW20980   4.549   4.728   3.232
 6767SOL    HW120981   4.594   4.722   3.149
 6767SOL    HW220982   4.552   4.821   3.255
 6768SOL     OW20983   4.640   4.635   2.152
 6768SOL    HW120984   4.702   4.668   2.087
 6768SOL    HW220985   4.687   4.564   2.196
 6769SOL     OW20986   4.090   5.025   3.358
 6769SOL    HW120987   4.079   5.100   3.299
 6769SOL    HW220988   4.014   4.969   3.341
 6770SOL     OW20989   4.776   4.833   2.573
 6770SOL    HW120990   4.704   4.782   2.611
 6770SOL    HW220991   4.834   4.767   2.533
 6771SOL     OW20992   4.740   3.963   2.830
 6771SOL    HW120993   4.737   3.916   2.747
 6771SOL    HW220994   4.736   3.895   2.897
 6772SOL     OW20995   3.981   5.053   2.144
 6772SOL    HW120996   3.889   5.056   2.117
 6772SOL    HW220997   3.983   5.095   2.230
 6773SOL     OW20998   3.836   4.745   3.580
 6773SOL    HW120999   3.760   4.722   3.634
 6773SOL    HW221000   3.911   4.708   3.628
 6774SOL     OW21001   4.398   3.920   3.361
 6774SOL    HW121002   4.482   3.901   3.319
 6774SOL    HW221003   4.421   3.951   3.449
 6775SOL     OW21004   3.802   4.059   1.897
 6775SOL    HW121005   3.715   4.039   1.864
 6775SOL    HW221006   3.831   4.133   1.845
 6776SOL     OW21007   5.163   4.584   3.266
 6776SOL    HW121008   5.110   4.640   3.209
 6776SOL    HW221009   5.252   4.591   3.231
 6777SOL     OW21010   3.793   3.881   2.173
 6777SOL    HW121011   3.779   3.961   2.123
 6777SOL    HW221012   3.878   3.848   2.143
 6778SOL     OW21013   4.909   5.059   1.983
 6778SOL    HW121014   4.815   5.041   1.981
 6778SOL    HW221015   4.933   5.055   2.076
 6779SOL     OW21016   4.343   4.555   3.295
 6779SOL    HW121017   4.399   4.631   3.279
 6779SOL    HW221018   4.403   4.481   3.303
 6780SOL     OW21019   4.442   4.288   3.567
 6780SOL    HW121020   4.481   4.350   3.628
 6780SOL    HW221021   4.471   4.202   3.598
 6781SOL     OW21022   5.184   4.929   3.495
 6781SOL    HW121023   5.174   4.940   3.589
 6781SOL    HW221024   5.279   4.932   3.480
 6782SOL     OW21025   4.941   4.044   2.318
 6782SOL    HW121026   5.003   3.972   2.305
 6782SOL    HW221027   4.971   4.088   2.398
 6783SOL     OW21028   4.315   4.462   2.530
 6783SOL    HW121029   4.353   4.549   2.516
 6783SOL    HW221030   4.246   4.455   2.464
 6784SOL     OW21031   4.580   5.095   1.881
 6784SOL    HW121032   4.556   5.098   1.974
 6784SOL    HW221033   4.592   5.187   1.856
 6785SOL     OW21034   4.592   4.691   2.718
 6785SOL    HW121035   4.641   4.620   2.758
 6785SOL    HW221036   4.557   4.741   2.792
 6786SOL     OW21037   4.808   4.712   1.954
 6786SOL    HW121038   4.781   4.760   1.875
 6786SOL    HW221039   4.882   4.659   1.925
 6787SOL     OW21040   3.947   5.025   3.715
 6787SOL    HW121041   3.879   4.963   3.690
 6787SOL    HW221042   3.936   5.037   3.809
 6788SOL     OW21043   3.809   4.956   2.532
 6788SOL    HW121044   3.809   4.903   2.611
 6788SOL    HW221045   3.873   4.914   2.475
 6789SOL     OW21046   4.393   5.107   3.471
 6789SOL    HW121047   4.318   5.073   3.519
 6789SOL    HW221048   4.424   5.182   3.522
 6790SOL     OW21049   4.154   4.158   2.387
 6790SOL    HW121050   4.183   4.087   2.330
 6790SOL    HW221051   4.106   4.114   2.458
 6791SOL     OW21052   0.122   5.228   2.913
 6791SOL    HW121053   0.038   5.204   2.875
 6791SOL    HW221054   0.107   5.232   3.007
 6792SOL     OW21055   4.053   4.278   3.153
 6792SOL    HW121056   4.109   4.223   3.208
 6792SOL    HW221057   4.073   4.250   3.064
 6793SOL     OW21058   5.148   3.942   2.977
 6793SOL    HW121059   5.193   3.878   3.031
 6793SOL    HW221060   5.102   3.998   3.040
 6794SOL     OW21061   4.730   3.743   3.005
 6794SOL    HW121062   4.677   3.675   2.965
 6794SOL    HW221063   4.818   3.706   3.009
 6795SOL     OW21064   4.525   5.047   2.146
 6795SOL    HW121065   4.463   4.976   2.165
 6795SOL    HW221066   4.580   5.052   2.224
 6796SOL     OW21067   4.346   5.299   3.152
 6796SOL    HW121068   4.353   0.054   3.230
 6796SOL    HW221069   4.436   5.280   3.127
 6797SOL     OW21070   5.059   3.770   2.030
 6797SOL    HW121071   5.084   3.730   1.947
 6797SOL    HW221072   4.974   3.731   2.050
 6798SOL     OW21073   5.028   4.182   2.545
 6798SOL    HW121074   4.973   4.260   2.549
 6798SOL    HW221075   5.017   4.141   2.631
 6799SOL     OW21076   0.002   3.948   2.741
 6799SOL    HW121077   5.236   3.938   2.809
 6799SOL    HW221078   5.278   4.029   2.696
 6800SOL     OW21079   3.766   4.795   2.169
 6800SOL    HW121080   3.860   4.789   2.152
 6800SOL    HW221081   3.739   4.706   2.191
 6801SOL     OW21082   3.954   4.347   3.846
 6801SOL    HW121083   3.864   4.346   3.880
 6801SOL    HW221084   3.945   4.321   3.755
 6802SOL     OW21085   3.949   4.005   4.715
 6802SOL    HW121086   3.978   3.971   4.800
 6802SOL    HW221087   3.859   3.972   4.706
 6803SOL     OW21088   3.729   4.106   4.363
 6803SOL    HW121089   3.645   4.130   4.403
 6803SOL    HW221090   3.709   4.027   4.313
 6804SOL     OW21091   4.290   5.004   4.902
 6804SOL    HW121092   4.204   5.003   4.858
 6804SOL    HW221093   4.302   5.095   4.929
 6805SOL     OW21094   5.276   5.232   4.418
 6805SOL    HW121095   5.263   5.216   4.511
 6805SOL    HW221096   5.187   5.232   4.381
 6806SOL     OW21097   4.857   4.423   4.425
 6806SOL    HW121098   4.908   4.504   4.415
 6806SOL    HW221099   4.809   4.435   4.507
 6807SOL     OW21100   4.481   4.869   4.761
 6807SOL    HW121101   4.413   4.900   4.821
 6807SOL    HW221102   4.511   4.947   4.716
 6808SOL     OW21103   4.591   4.500   5.546
 6808SOL    HW121104   4.574   4.572   5.607
 6808SOL    HW221105   4.613   4.544   5.464
 6809SOL     OW21106   4.410   4.728   4.373
 6809SOL    HW121107   4.475   4.716   4.443
 6809SOL    HW221108   4.341   4.780   4.412
 6810SOL     OW21109   4.433   4.874   5.535
 6810SOL    HW121110   4.481   4.953   5.559
 6810SOL    HW221111   4.349   4.906   5.501
 6811SOL     OW21112   4.061   5.153   4.785
 6811SOL    HW121113   3.984   5.109   4.747
 6811SOL    HW221114   4.102   5.196   4.710
 6812SOL     OW21115   5.132   5.236   5.065
 6812SOL    HW121116   5.153   0.007   5.126
 6812SOL    HW221117   5.111   5.162   5.122
 6813SOL     OW21118   4.172   4.123   5.213
 6813SOL    HW121119   4.247   4.064   5.218
 6813SOL    HW221120   4.096   4.065   5.225
 6814SOL     OW21121   4.864   5.053   5.423
 6814SOL    HW121122   4.887   5.066   5.515
 6814SOL    HW221123   4.803   4.979   5.424
 6815SOL     OW21124   3.934   5.155   4.244
 6815SOL    HW121125   3.959   5.238   4.284
 6815SOL    HW221126   3.882   5.111   4.311
 6816SOL     OW21127   3.980   4.811   4.615
 6816SOL    HW121128   3.978   4.724   4.655
 6816SOL    HW221129   3.923   4.865   4.670
 6817SOL     OW21130   4.311   4.705   3.857
 6817SOL    HW121131   4.356   4.755   3.789
 6817SOL    HW221132   4.350   4.735   3.939
 6818SOL     OW21133   3.839   4.376   4.283
 6818SOL    HW121134   3.810   4.287   4.304
 6818SOL    HW221135   3.830   4.424   4.366
 6819SOL     OW21136   3.710   0.014   3.823
 6819SOL    HW121137   3.727   5.225   3.853
 6819SOL    HW221138   3.733   0.069   3.899
 6820SOL     OW21139   0.112   4.659   4.293
 6820SOL    HW121140   0.199   4.627   4.317
 6820SOL    HW221141   0.128   4.748   4.259
 6821SOL     OW21142   3.847   4.466   5.311
 6821SOL    HW121143   3.939   4.490   5.320
 6821SOL    HW221144   3.799   4.549   5.318
 6822SOL     OW21145   4.345   5.097   4.460
 6822SOL    HW121146   4.291   5.018   4.459
 6822SOL    HW221147   4.326   5.140   4.376
 6823SOL     OW21148   5.019   4.969   5.145
 6823SOL    HW121149   5.048   4.898   5.088
 6823SOL    HW221150   5.067   4.955   5.227
 6824SOL     OW21151   4.538   3.724   4.232
 6824SOL    HW121152   4.578   3.808   4.213
 6824SOL    HW221153   4.444   3.743   4.242
 6825SOL     OW21154   3.915   4.691   4.993
 6825SOL    HW121155   3.999   4.648   4.979
 6825SOL    HW221156   3.851   4.635   4.948
 6826SOL     OW21157   4.055   3.974   5.533
 6826SOL    HW121158   4.102   4.057   5.549
 6826SOL    HW221159   3.967   3.990   5.566
 6827SOL     OW21160   5.178   5.152   4.676
 6827SOL    HW121161   5.110   5.162   4.742
 6827SOL    HW221162   5.164   5.065   4.639
 6828SOL     OW21163   0.046   0.163   4.289
 6828SOL    HW121164   0.087   0.123   4.213
 6828SOL    HW221165   0.036   0.090   4.352
 6829SOL     OW21166   4.320   4.446   3.989
 6829SOL    HW121167   4.326   4.527   3.939
 6829SOL    HW221168   4.255   4.465   4.057
 6830SOL     OW21169   4.996   4.061   4.644
 6830SOL    HW121170   4.908   4.030   4.665
 6830SOL    HW221171   5.051   4.026   4.715
 6831SOL     OW21172   4.515   4.341   5.176
 6831SOL    HW121173   4.489   4.318   5.265
 6831SOL    HW221174   4.474   4.275   5.120
 6832SOL     OW21175   5.115   4.203   5.404
 6832SOL    HW121176   5.116   4.241   5.492
 6832SOL    HW221177   5.190   4.144   5.403
 6833SOL     OW21178   4.679   4.612   5.305
 6833SOL    HW121179   4.732   4.541   5.271
 6833SOL    HW221180   4.631   4.646   5.229
 6834SOL     OW21181   4.715   4.137   4.963
 6834SOL    HW121182   4.630   4.159   5.000
 6834SOL    HW221183   4.695   4.090   4.882
 6835SOL     OW21184   4.774   4.422   4.150
 6835SOL    HW121185   4.789   4.416   4.244
 6835SOL    HW221186   4.692   4.375   4.135
 6836SOL     OW21187   3.812   4.544   4.500
 6836SOL    HW121188   3.893   4.537   4.550
 6836SOL    HW221189   3.769   4.622   4.535
 6837SOL     OW21190   4.615   4.071   3.919
 6837SOL    HW121191   4.656   4.132   3.857
 6837SOL    HW221192   4.630   3.984   3.881
 6838SOL     OW21193   5.091   4.867   4.269
 6838SOL    HW121194   5.180   4.865   4.235
 6838SOL    HW221195   5.045   4.928   4.212
 6839SOL     OW21196   4.273   3.906   4.617
 6839SOL    HW121197   4.276   3.935   4.708
 6839SOL    HW221198   4.275   3.988   4.566
 6840SOL     OW21199   4.746   5.169   4.193
 6840SOL    HW121200   4.668   5.224   4.184
 6840SOL    HW221201   4.760   5.163   4.288
 6841SOL     OW21202   4.940   5.260   5.276
 6841SOL    HW121203   4.916   5.178   5.319
 6841SOL    HW221204   4.902   5.253   5.188
 6842SOL     OW21205   4.045   4.680   3.974
 6842SOL    HW121206   4.127   4.699   3.928
 6842SOL    HW221207   4.014   4.598   3.933
 6843SOL     OW21208   4.188   4.987   5.464
 6843SOL    HW121209   4.161   4.990   5.372
 6843SOL    HW221210   4.106   4.986   5.513
 6844SOL     OW21211   4.791   0.175   3.935
 6844SOL    HW121212   4.803   0.118   4.011
 6844SOL    HW221213   4.868   0.159   3.881
 6845SOL     OW21214   3.924   4.005   5.224
 6845SOL    HW121215   3.843   4.056   5.220
 6845SOL    HW221216   3.908   3.939   5.291
 6846SOL     OW21217   5.122   3.831   4.148
 6846SOL    HW121218   5.101   3.813   4.057
 6846SOL    HW221219   5.216   3.846   4.150
 6847SOL     OW21220   4.116   4.419   4.201
 6847SOL    HW121221   4.138   4.327   4.212
 6847SOL    HW221222   4.022   4.424   4.218
 6848SOL     OW21223   4.357   3.847   3.830
 6848SOL    HW121224   4.429   3.785   3.841
 6848SOL    HW221225   4.309   3.815   3.754
 6849SOL     OW21226   4.490   4.002   5.478
 6849SOL    HW121227   4.566   3.943   5.480
 6849SOL    HW221228   4.442   3.982   5.557
 6850SOL     OW21229   5.058   4.315   5.156
 6850SOL    HW121230   5.091   4.283   5.240
 6850SOL    HW221231   5.100   4.401   5.145
 6851SOL     OW21232   4.535   5.121   4.659
 6851SOL    HW121233   4.616   5.107   4.610
 6851SOL    HW221234   4.467   5.126   4.591
 6852SOL     OW21235   4.651   4.233   4.627
 6852SOL    HW121236   4.628   4.224   4.535
 6852SOL    HW221237   4.683   4.147   4.652
 6853SOL     OW21238   4.273   3.787   4.227
 6853SOL    HW121239   4.192   3.788   4.279
 6853SOL    HW221240   4.267   3.865   4.172
 6854SOL     OW21241   5.138   4.904   3.767
 6854SOL    HW121242   5.147   4.826   3.822
 6854SOL    HW221243   5.049   4.935   3.784
 6855SOL     OW21244   4.016   3.772   3.909
 6855SOL    HW121245   4.075   3.836   3.869
 6855SOL    HW221246   4.074   3.708   3.950
 6856SOL     OW21247   4.661   3.970   4.185
 6856SOL    HW121248   4.633   4.011   4.103
 6856SOL    HW221249   4.756   3.982   4.187
 6857SOL     OW21250   4.801   4.405   5.185
 6857SOL    HW121251   4.734   4.337   5.187
 6857SOL    HW221252   4.883   4.356   5.175
 6858SOL     OW21253   4.984   5.266   4.497
 6858SOL    HW121254   4.951   0.053   4.473
 6858SOL    HW221255   5.037   5.281   4.575
 6859SOL     OW21256   4.189   4.871   4.456
 6859SOL    HW121257   4.120   4.852   4.519
 6859SOL    HW221258   4.150   4.853   4.371
 6860SOL     OW21259   4.749   4.269   3.745
 6860SOL    HW121260   4.705   4.351   3.724
 6860SOL    HW221261   4.810   4.291   3.815
 6861SOL     OW21262   3.802   4.278   5.116
 6861SOL    HW121263   3.894   4.277   5.089
 6861SOL    HW221264   3.798   4.349   5.181
 6862SOL     OW21265   4.284   3.951   4.889
 6862SOL    HW121266   4.325   3.874   4.927
 6862SOL    HW221267   4.193   3.948   4.919
 6863SOL     OW21268   4.593   4.183   4.363
 6863SOL    HW121269   4.546   4.238   4.300
 6863SOL    HW221270   4.613   4.103   4.316
 6864SOL     OW21271   4.738   3.777   4.477
 6864SOL    HW121272   4.681   3.769   4.401
 6864SOL    HW221273   4.717   3.701   4.531
 6865SOL     OW21274   5.153   4.901   4.574
 6865SOL    HW121275   5.101   4.821   4.584
 6865SOL    HW221276   5.170   4.906   4.480
 6866SOL     OW21277   4.206   5.145   3.880
 6866SOL    HW121278   4.142   5.093   3.930
 6866SOL    HW221279   4.204   5.106   3.792
 6867SOL     OW21280   5.127   4.287   3.803
 6867SOL    HW121281   5.055   4.277   3.865
 6867SOL    HW221282   5.202   4.249   3.847
 6868SOL     OW21283   4.250   3.987   4.043
 6868SOL    HW121284   4.293   3.938   3.973
 6868SOL    HW221285   4.229   4.072   4.005
 6869SOL     OW21286   4.787   5.074   5.054
 6869SOL    HW121287   4.709   5.049   5.105
 6869SOL    HW221288   4.860   5.036   5.103
 6870SOL     OW21289   4.847   4.922   4.833
 6870SOL    HW121290   4.796   4.965   4.902
 6870SOL    HW221291   4.805   4.951   4.751
 6871SOL     OW21292   4.642   3.823   5.121
 6871SOL    HW121293   4.664   3.804   5.030
 6871SOL    HW221294   4.721   3.861   5.158
 6872SOL     OW21295   4.706   4.834   5.453
 6872SOL    HW121296   4.613   4.852   5.469
 6872SOL    HW221297   4.705   4.759   5.393
 6873SOL     OW21298   4.428   4.781   4.096
 6873SOL    HW121299   4.417   4.767   4.190
 6873SOL    HW221300   4.506   4.731   4.073
 6874SOL     OW21301   4.142   4.538   4.976
 6874SOL    HW121302   4.211   4.548   5.041
 6874SOL    HW221303   4.107   4.450   4.990
 6875SOL     OW21304   4.989   4.100   5.000
 6875SOL    HW121305   5.024   4.179   5.041
 6875SOL    HW221306   4.900   4.123   4.974
 6876SOL     OW21307   4.073   4.831   4.214
 6876SOL    HW121308   4.076   4.904   4.152
 6876SOL    HW221309   4.072   4.753   4.158
 6877SOL     OW21310   4.277   4.261   4.584
 6877SOL    HW121311   4.293   4.319   4.510
 6877SOL    HW221312   4.342   4.288   4.650
 6878SOL     OW21313   4.984   5.076   4.111
 6878SOL    HW121314   5.037   5.151   4.139
 6878SOL    HW221315   4.895   5.098   4.139
 6879SOL     OW21316   4.979   5.180   4.857
 6879SOL    HW121317   5.034   5.202   4.931
 6879SOL    HW221318   4.940   5.096   4.879
 6880SOL     OW21319   4.072   5.236   5.040
 6880SOL    HW121320   4.061   5.201   4.951
 6880SOL    HW221321   4.165   5.257   5.046
 6881SOL     OW21322   4.138   4.468   5.326
 6881SOL    HW121323   4.199   4.514   5.268
 6881SOL    HW221324   4.178   4.383   5.342
 6882SOL     OW21325   4.718   3.847   5.480
 6882SOL    HW121326   4.774   3.919   5.451
 6882SOL    HW221327   4.766   3.768   5.454
 6883SOL     OW21328   4.222   3.766   5.471
 6883SOL    HW121329   4.180   3.711   5.405
 6883SOL    HW221330   4.162   3.840   5.483
 6884SOL     OW21331   4.307   4.596   4.755
 6884SOL    HW121332   4.337   4.687   4.753
 6884SOL    HW221333   4.251   4.592   4.832
 6885SOL     OW21334   5.086   4.582   4.760
 6885SOL    HW121335   5.009   4.564   4.706
 6885SOL    HW221336   5.136   4.500   4.757
 6886SOL     OW21337   4.930   4.255   3.990
 6886SOL    HW121338   4.936   4.175   4.042
 6886SOL    HW221339   4.886   4.318   4.047
 6887SOL     OW21340   4.023   3.923   4.970
 6887SOL    HW121341   3.987   3.956   5.052
 6887SOL    HW221342   4.004   3.829   4.971
 6888SOL     OW21343   3.775   5.046   5.008
 6888SOL    HW121344   3.801   4.982   5.075
 6888SOL    HW221345   3.811   5.129   5.039
 6889SOL     OW21346   4.448   4.355   4.783
 6889SOL    HW121347   4.523   4.338   4.725
 6889SOL    HW221348   4.421   4.444   4.761
 6890SOL     OW21349   4.027   3.789   4.347
 6890SOL    HW121350   4.008   3.880   4.371
 6890SOL    HW221351   4.033   3.744   4.431
 6891SOL     OW21352   0.035   4.116   4.084
 6891SOL    HW121353   0.056   4.043   4.142
 6891SOL    HW221354   0.015   4.188   4.144
 6892SOL     OW21355   4.751   4.483   4.685
 6892SOL    HW121356   4.750   4.501   4.779
 6892SOL    HW221357   4.725   4.391   4.678
 6893SOL     OW21358   4.077   4.640   5.532
 6893SOL    HW121359   4.159   4.659   5.578
 6893SOL    HW221360   4.101   4.577   5.464
 6894SOL     OW21361   5.027   4.553   3.761
 6894SOL    HW121362   5.065   4.465   3.762
 6894SOL    HW221363   5.054   4.589   3.676
 6895SOL     OW21364   4.781   5.077   4.553
 6895SOL    HW121365   4.788   4.993   4.508
 6895SOL    HW221366   4.866   5.118   4.538
 6896SOL     OW21367   4.033   4.533   4.672
 6896SOL    HW121368   4.126   4.555   4.665
 6896SOL    HW221369   4.031   4.443   4.705
 6897SOL     OW21370   4.056   4.249   4.736
 6897SOL    HW121371   4.021   4.162   4.720
 6897SOL    HW221372   4.132   4.255   4.679
 6898SOL     OW21373   4.856   4.101   5.404
 6898SOL    HW121374   4.810   4.156   5.467
 6898SOL    HW221375   4.944   4.139   5.399
 6899SOL     OW21376   4.885   3.927   5.193
 6899SOL    HW121377   4.874   3.989   5.265
 6899SOL    HW221378   4.923   3.979   5.122
 6900SOL     OW21379   3.730   5.042   3.915
 6900SOL    HW121380   3.640   5.059   3.887
 6900SOL    HW221381   3.728   4.954   3.952
 6901SOL     OW21382   4.708   4.517   4.951
 6901SOL    HW121383   4.763   4.494   5.026
 6901SOL    HW221384   4.623   4.479   4.972
 6902SOL     OW21385   3.759   4.267   4.841
 6902SOL    HW121386   3.840   4.253   4.791
 6902SOL    HW221387   3.788   4.272   4.932
 6903SOL     OW21388   3.915   4.242   5.450
 6903SOL    HW121389   3.973   4.206   5.384
 6903SOL    HW221390   3.872   4.316   5.407
 6904SOL     OW21391   5.111   4.663   5.390
 6904SOL    HW121392   5.119   4.758   5.378
 6904SOL    HW221393   5.114   4.628   5.301
 6905SOL     OW21394   4.540   4.293   4.082
 6905SOL    HW121395   4.543   4.218   4.023
 6905SOL    HW221396   4.466   4.345   4.051
 6906SOL     OW21397   3.930   5.277   5.469
 6906SOL    HW121398   3.918   0.030   5.547
 6906SOL    HW221399   3.942   5.188   5.501
 6907SOL     OW21400   4.422   4.176   4.985
 6907SOL    HW121401   4.371   4.101   4.953
 6907SOL    HW221402   4.420   4.238   4.912
 6908SOL     OW21403   4.189   4.217   3.912
 6908SOL    HW121404   4.247   4.290   3.933
 6908SOL    HW221405   4.103   4.257   3.899
 6909SOL     OW21406   3.870   4.863   5.194
 6909SOL    HW121407   3.873   4.811   5.275
 6909SOL    HW221408   3.887   4.800   5.125
 6910SOL     OW21409   5.051   4.771   4.951
 6910SOL    HW121410   5.076   4.710   4.882
 6910SOL    HW221411   4.980   4.822   4.913
 6911SOL     OW21412   5.033   4.584   4.040
 6911SOL    HW121413   4.951   4.550   4.077
 6911SOL    HW221414   5.022   4.575   3.946
 6912SOL     OW21415   3.817   4.986   4.745
 6912SOL    HW121416   3.795   5.003   4.837
 6912SOL    HW221417   3.737   4.947   4.709
 6913SOL     OW21418   4.469   0.036   5.436
 6913SOL    HW121419   4.377   0.062   5.440
 6913SOL    HW221420   4.498   0.065   5.350
 6914SOL     OW21421   0.083   3.883   4.253
 6914SOL    HW121422   0.168   3.871   4.210
 6914SOL    HW221423   0.070   3.802   4.303
 6915SOL     OW21424   5.016   4.643   4.397
 6915SOL    HW121425   5.093   4.588   4.384
 6915SOL    HW221426   5.034   4.722   4.347
 6916SOL     OW21427   4.544   4.993   5.148
 6916SOL    HW121428   4.516   5.030   5.232
 6916SOL    HW221429   4.469   5.005   5.090
 6917SOL     OW21430   3.987   4.040   4.441
 6917SOL    HW121431   3.901   4.076   4.417
 6917SOL    HW221432   3.983   4.032   4.537
 6918SOL     OW21433   4.548   4.728   5.094
 6918SOL    HW121434   4.594   4.722   5.011
 6918SOL    HW221435   4.552   4.821   5.117
 6919SOL     OW21436   4.640   4.635   4.014
 6919SOL    HW121437   4.702   4.668   3.949
 6919SOL    HW221438   4.687   4.564   4.058
 6920SOL     OW21439   4.089   5.025   5.220
 6920SOL    HW121440   4.079   5.100   5.161
 6920SOL    HW221441   4.014   4.969   5.202
 6921SOL     OW21442   4.776   4.833   4.435
 6921SOL    HW121443   4.704   4.782   4.473
 6921SOL    HW221444   4.834   4.767   4.395
 6922SOL     OW21445   4.740   3.963   4.692
 6922SOL    HW121446   4.737   3.916   4.609
 6922SOL    HW221447   4.736   3.895   4.759
 6923SOL     OW21448   3.981   5.053   4.006
 6923SOL    HW121449   3.889   5.056   3.979
 6923SOL    HW221450   3.983   5.095   4.092
 6924SOL     OW21451   3.836   4.744   5.442
 6924SOL    HW121452   3.760   4.721   5.496
 6924SOL    HW221453   3.911   4.708   5.490
 6925SOL     OW21454   4.398   3.920   5.223
 6925SOL    HW121455   4.482   3.901   5.181
 6925SOL    HW221456   4.421   3.951   5.311
 6926SOL     OW21457   3.802   4.059   3.760
 6926SOL    HW121458   3.715   4.038   3.725
 6926SOL    HW221459   3.831   4.134   3.707
 6927SOL     OW21460   5.163   4.584   5.128
 6927SOL    HW121461   5.110   4.640   5.071
 6927SOL    HW221462   5.252   4.591   5.093
 6928SOL     OW21463   3.794   3.882   4.036
 6928SOL    HW121464   3.779   3.961   3.984
 6928SOL    HW221465   3.878   3.849   4.006
 6929SOL     OW21466   4.909   5.059   3.845
 6929SOL    HW121467   4.815   5.041   3.843
 6929SOL    HW221468   4.933   5.055   3.937
 6930SOL     OW21469   4.343   4.555   5.157
 6930SOL    HW121470   4.399   4.631   5.141
 6930SOL    HW221471   4.403   4.482   5.165
 6931SOL     OW21472   4.441   4.288   5.429
 6931SOL    HW121473   4.480   4.351   5.490
 6931SOL    HW221474   4.471   4.202   5.460
 6932SOL     OW21475   5.184   4.929   5.357
 6932SOL    HW121476   5.174   4.940   5.451
 6932SOL    HW221477   5.279   4.932   5.342
 6933SOL     OW21478   4.941   4.044   4.180
 6933SOL    HW121479   5.003   3.972   4.167
 6933SOL    HW221480   4.971   4.088   4.260
 6934SOL     OW21481   4.315   4.462   4.393
 6934SOL    HW121482   4.353   4.549   4.378
 6934SOL    HW221483   4.246   4.455   4.326
 6935SOL     OW21484   4.580   5.095   3.743
 6935SOL    HW121485   4.556   5.098   3.836
 6935SOL    HW221486   4.592   5.187   3.718
 6936SOL     OW21487   4.591   4.691   4.580
 6936SOL    HW121488   4.641   4.620   4.620
 6936SOL    HW221489   4.557   4.741   4.654
 6937SOL     OW21490   4.808   4.713   3.816
 6937SOL    HW121491   4.781   4.760   3.737
 6937SOL    HW221492   4.882   4.659   3.787
 6938SOL     OW21493   3.947   5.025   5.577
 6938SOL    HW121494   3.878   4.963   5.552
 6938SOL    HW221495   3.936   5.037   5.671
 6939SOL     OW21496   3.809   4.956   4.394
 6939SOL    HW121497   3.809   4.903   4.473
 6939SOL    HW221498   3.873   4.914   4.337
 6940SOL     OW21499   4.393   5.107   5.333
 6940SOL    HW121500   4.318   5.073   5.381
 6940SOL    HW221501   4.424   5.182   5.384
 6941SOL     OW21502   4.154   4.158   4.249
 6941SOL    HW121503   4.183   4.087   4.192
 6941SOL    HW221504   4.106   4.114   4.320
 6942SOL     OW21505   0.123   5.228   4.775
 6942SOL    HW121506   0.038   5.204   4.737
 6942SOL    HW221507   0.107   5.232   4.869
 6943SOL     OW21508   4.053   4.278   5.015
 6943SOL    HW121509   4.109   4.223   5.070
 6943SOL    HW221510   4.073   4.251   4.926
 6944SOL     OW21511   5.148   3.942   4.839
 6944SOL    HW121512   5.193   3.877   4.892
 6944SOL    HW221513   5.102   3.998   4.902
 6945SOL     OW21514   4.730   3.743   4.867
 6945SOL    HW121515   4.677   3.675   4.827
 6945SOL    HW221516   4.818   3.706   4.872
 6946SOL     OW21517   4.525   5.047   4.008
 6946SOL    HW121518   4.463   4.976   4.027
 6946SOL    HW221519   4.580   5.052   4.086
 6947SOL     OW21520   4.346   5.299   5.014
 6947SOL    HW121521   4.353   0.054   5.092
 6947SOL    HW221522   4.436   5.280   4.989
 6948SOL     OW21523   5.059   3.770   3.892
 6948SOL    HW121524   5.084   3.730   3.809
 6948SOL    HW221525   4.974   3.731   3.913
 6949SOL     OW21526   5.028   4.182   4.407
 6949SOL    HW121527   4.973   4.260   4.411
 6949SOL    HW221528   5.018   4.141   4.493
 6950SOL     OW21529   0.002   3.948   4.603
 6950SOL    HW121530   5.236   3.938   4.671
 6950SOL    HW221531   5.278   4.029   4.558
 6951SOL     OW21532   3.766   4.795   4.031
 6951SOL    HW121533   3.860   4.789   4.014
 6951SOL    HW221534   3.739   4.706   4.053
 6952SOL     OW21535   3.954   4.347   5.708
 6952SOL    HW121536   3.864   4.347   5.742
 6952SOL    HW221537   3.945   4.321   5.617
 6953SOL     OW21538   3.949   4.004   6.577
 6953SOL    HW121539   3.977   3.971   6.662
 6953SOL    HW221540   3.859   3.972   6.568
 6954SOL     OW21541   3.729   4.106   6.224
 6954SOL    HW121542   3.646   4.131   6.265
 6954SOL    HW221543   3.708   4.027   6.175
 6955SOL     OW21544   4.290   5.004   6.764
 6955SOL    HW121545   4.205   5.003   6.720
 6955SOL    HW221546   4.302   5.095   6.791
 6956SOL     OW21547   5.276   5.232   6.280
 6956SOL    HW121548   5.263   5.216   6.373
 6956SOL    HW221549   5.187   5.232   6.243
 6957SOL     OW21550   4.857   4.423   6.287
 6957SOL    HW121551   4.908   4.504   6.277
 6957SOL    HW221552   4.809   4.435   6.369
 6958SOL     OW21553   4.481   4.869   6.623
 6958SOL    HW121554   4.413   4.900   6.683
 6958SOL    HW221555   4.511   4.947   6.578
 6959SOL     OW21556   4.591   4.502   7.407
 6959SOL    HW121557   4.569   4.577   7.463
 6959SOL    HW221558   4.614   4.541   7.323
 6960SOL     OW21559   4.410   4.728   6.235
 6960SOL    HW121560   4.475   4.716   6.305
 6960SOL    HW221561   4.341   4.780   6.274
 6961SOL     OW21562   4.432   4.874   7.397
 6961SOL    HW121563   4.481   4.954   7.420
 6961SOL    HW221564   4.349   4.906   7.362
 6962SOL     OW21565   4.061   5.153   6.647
 6962SOL    HW121566   3.984   5.109   6.610
 6962SOL    HW221567   4.102   5.197   6.572
 6963SOL     OW21568   5.132   5.236   6.927
 6963SOL    HW121569   5.153   0.007   6.988
 6963SOL    HW221570   5.110   5.162   6.984
 6964SOL     OW21571   4.172   4.123   7.075
 6964SOL    HW121572   4.247   4.064   7.080
 6964SOL    HW221573   4.096   4.066   7.087
 6965SOL     OW21574   4.863   5.052   7.284
 6965SOL    HW121575   4.889   5.064   7.375
 6965SOL    HW221576   4.802   4.978   7.285
 6966SOL     OW21577   3.934   5.155   6.106
 6966SOL    HW121578   3.959   5.238   6.146
 6966SOL    HW221579   3.881   5.111   6.173
 6967SOL     OW21580   3.980   4.811   6.477
 6967SOL    HW121581   3.978   4.724   6.517
 6967SOL    HW221582   3.923   4.865   6.532
 6968SOL     OW21583   4.311   4.705   5.719
 6968SOL    HW121584   4.356   4.755   5.651
 6968SOL    HW221585   4.350   4.735   5.801
 6969SOL     OW21586   3.839   4.376   6.145
 6969SOL    HW121587   3.810   4.287   6.166
 6969SOL    HW221588   3.830   4.424   6.228
 6970SOL     OW21589   3.710   0.014   5.685
 6970SOL    HW121590   3.727   5.225   5.715
 6970SOL    HW221591   3.733   0.069   5.760
 6971SOL     OW21592   0.112   4.659   6.155
 6971SOL    HW121593   0.199   4.627   6.179
 6971SOL    HW221594   0.128   4.748   6.121
 6972SOL     OW21595   3.847   4.466   7.172
 6972SOL    HW121596   3.939   4.490   7.182
 6972SOL    HW221597   3.799   4.548   7.180
 6973SOL     OW21598   4.345   5.097   6.322
 6973SOL    HW121599   4.291   5.018   6.321
 6973SOL    HW221600   4.326   5.140   6.238
 6974SOL     OW21601   5.019   4.969   7.007
 6974SOL    HW121602   5.048   4.898   6.950
 6974SOL    HW221603   5.067   4.955   7.089
 6975SOL     OW21604   4.537   3.724   6.093
 6975SOL    HW121605   4.578   3.808   6.075
 6975SOL    HW221606   4.444   3.743   6.103
 6976SOL     OW21607   3.915   4.691   6.855
 6976SOL    HW121608   3.999   4.648   6.840
 6976SOL    HW221609   3.851   4.635   6.810
 6977SOL     OW21610   4.055   3.973   7.396
 6977SOL    HW121611   4.101   4.056   7.410
 6977SOL    HW221612   3.967   3.990   7.428
 6978SOL     OW21613   5.178   5.152   6.538
 6978SOL    HW121614   5.110   5.162   6.604
 6978SOL    HW221615   5.164   5.065   6.501
 6979SOL     OW21616   0.046   0.163   6.151
 6979SOL    HW121617   0.087   0.123   6.075
 6979SOL    HW221618   0.036   0.090   6.214
 6980SOL     OW21619   4.320   4.446   5.851
 6980SOL    HW121620   4.327   4.527   5.801
 6980SOL    HW221621   4.255   4.465   5.919
 6981SOL     OW21622   4.996   4.061   6.506
 6981SOL    HW121623   4.908   4.030   6.527
 6981SOL    HW221624   5.051   4.026   6.577
 6982SOL     OW21625   4.515   4.342   7.038
 6982SOL    HW121626   4.489   4.318   7.127
 6982SOL    HW221627   4.474   4.275   6.982
 6983SOL     OW21628   5.115   4.204   7.266
 6983SOL    HW121629   5.116   4.242   7.354
 6983SOL    HW221630   5.190   4.144   7.265
 6984SOL     OW21631   4.679   4.612   7.167
 6984SOL    HW121632   4.732   4.541   7.132
 6984SOL    HW221633   4.631   4.646   7.091
 6985SOL     OW21634   4.715   4.138   6.825
 6985SOL    HW121635   4.630   4.158   6.863
 6985SOL    HW221636   4.695   4.090   6.744
 6986SOL     OW21637   4.774   4.422   6.012
 6986SOL    HW121638   4.789   4.416   6.106
 6986SOL    HW221639   4.692   4.375   5.998
 6987SOL     OW21640   3.812   4.544   6.362
 6987SOL    HW121641   3.893   4.537   6.412
 6987SOL    HW221642   3.769   4.622   6.397
 6988SOL     OW21643   4.615   4.071   5.780
 6988SOL    HW121644   4.656   4.132   5.719
 6988SOL    HW221645   4.632   3.984   5.743
 6989SOL     OW21646   5.091   4.867   6.131
 6989SOL    HW121647   5.181   4.866   6.097
 6989SOL    HW221648   5.045   4.928   6.074
 6990SOL     OW21649   4.273   3.906   6.479
 6990SOL    HW121650   4.276   3.934   6.570
 6990SOL    HW221651   4.275   3.988   6.428
 6991SOL     OW21652   4.746   5.169   6.055
 6991SOL    HW121653   4.668   5.224   6.046
 6991SOL    HW221654   4.760   5.163   6.150
 6992SOL     OW21655   4.941   5.260   7.138
 6992SOL    HW121656   4.916   5.178   7.181
 6992SOL    HW221657   4.902   5.254   7.051
 6993SOL     OW21658   4.045   4.680   5.836
 6993SOL    HW121659   4.127   4.700   5.790
 6993SOL    HW221660   4.014   4.598   5.795
 6994SOL     OW21661   4.187   4.986   7.327
 6994SOL    HW121662   4.160   4.989   7.235
 6994SOL    HW221663   4.105   4.986   7.376
 6995SOL     OW21664   4.791   0.175   5.797
 6995SOL    HW121665   4.803   0.118   5.873
 6995SOL    HW221666   4.868   0.159   5.743
 6996SOL     OW21667   3.924   4.006   7.087
 6996SOL    HW121668   3.842   4.054   7.081
 6996SOL    HW221669   3.907   3.937   7.151
 6997SOL     OW21670   5.122   3.831   6.010
 6997SOL    HW121671   5.101   3.813   5.919
 6997SOL    HW221672   5.216   3.846   6.012
 6998SOL     OW21673   4.116   4.419   6.063
 6998SOL    HW121674   4.137   4.327   6.074
 6998SOL    HW221675   4.022   4.424   6.081
 6999SOL     OW21676   4.357   3.847   5.692
 6999SOL    HW121677   4.429   3.785   5.703
 6999SOL    HW221678   4.309   3.815   5.616
 7000SOL     OW21679   4.490   4.001   7.339
 7000SOL    HW121680   4.565   3.942   7.342
 7000SOL    HW221681   4.445   3.986   7.423
 7001SOL     OW21682   5.058   4.316   7.018
 7001SOL    HW121683   5.091   4.283   7.102
 7001SOL    HW221684   5.100   4.401   7.007
 7002SOL     OW21685   4.535   5.121   6.521
 7002SOL    HW121686   4.616   5.107   6.472
 7002SOL    HW221687   4.467   5.126   6.453
 7003SOL     OW21688   4.651   4.233   6.489
 7003SOL    HW121689   4.628   4.224   6.397
 7003SOL    HW221690   4.683   4.147   6.514
 7004SOL     OW21691   4.272   3.787   6.089
 7004SOL    HW121692   4.192   3.788   6.141
 7004SOL    HW221693   4.267   3.865   6.035
 7005SOL     OW21694   5.138   4.904   5.629
 7005SOL    HW121695   5.147   4.826   5.684
 7005SOL    HW221696   5.049   4.935   5.646
 7006SOL     OW21697   4.016   3.771   5.770
 7006SOL    HW121698   4.075   3.836   5.731
 7006SOL    HW221699   4.075   3.708   5.812
 7007SOL     OW21700   4.661   3.970   6.047
 7007SOL    HW121701   4.633   4.011   5.965
 7007SOL    HW221702   4.755   3.981   6.049
 7008SOL     OW21703   4.801   4.405   7.047
 7008SOL    HW121704   4.733   4.337   7.049
 7008SOL    HW221705   4.883   4.356   7.037
 7009SOL     OW21706   4.984   5.266   6.359
 7009SOL    HW121707   4.950   0.053   6.335
 7009SOL    HW221708   5.036   5.281   6.437
 7010SOL     OW21709   4.189   4.871   6.318
 7010SOL    HW121710   4.120   4.852   6.381
 7010SOL    HW221711   4.150   4.853   6.233
 7011SOL     OW21712   4.749   4.269   5.607
 7011SOL    HW121713   4.705   4.351   5.586
 7011SOL    HW221714   4.810   4.291   5.677
 7012SOL     OW21715   3.802   4.279   6.978
 7012SOL    HW121716   3.894   4.277   6.951
 7012SOL    HW221717   3.798   4.349   7.043
 7013SOL     OW21718   4.284   3.951   6.751
 7013SOL    HW121719   4.325   3.874   6.790
 7013SOL    HW221720   4.193   3.948   6.781
 7014SOL     OW21721   4.593   4.183   6.225
 7014SOL    HW121722   4.546   4.238   6.162
 7014SOL    HW221723   4.613   4.103   6.178
 7015SOL     OW21724   4.739   3.777   6.338
 7015SOL    HW121725   4.681   3.769   6.263
 7015SOL    HW221726   4.717   3.701   6.393
 7016SOL     OW21727   5.153   4.901   6.436
 7016SOL    HW121728   5.100   4.821   6.446
 7016SOL    HW221729   5.170   4.906   6.342
 7017SOL     OW21730   4.206   5.144   5.742
 7017SOL    HW121731   4.142   5.093   5.792
 7017SOL    HW221732   4.204   5.106   5.654
 7018SOL     OW21733   5.127   4.287   5.665
 7018SOL    HW121734   5.055   4.277   5.728
 7018SOL    HW221735   5.202   4.249   5.709
 7019SOL     OW21736   4.249   3.987   5.905
 7019SOL    HW121737   4.293   3.938   5.835
 7019SOL    HW221738   4.228   4.072   5.867
 7020SOL     OW21739   4.787   5.074   6.916
 7020SOL    HW121740   4.709   5.050   6.967
 7020SOL    HW221741   4.860   5.036   6.965
 7021SOL     OW21742   4.847   4.922   6.695
 7021SOL    HW121743   4.796   4.965   6.764
 7021SOL    HW221744   4.805   4.951   6.613
 7022SOL     OW21745   4.641   3.823   6.983
 7022SOL    HW121746   4.664   3.804   6.892
 7022SOL    HW221747   4.721   3.861   7.020
 7023SOL     OW21748   4.706   4.833   7.317
 7023SOL    HW121749   4.614   4.853   7.331
 7023SOL    HW221750   4.706   4.759   7.256
 7024SOL     OW21751   4.428   4.781   5.958
 7024SOL    HW121752   4.417   4.767   6.052
 7024SOL    HW221753   4.506   4.731   5.935
 7025SOL     OW21754   4.142   4.538   6.837
 7025SOL    HW121755   4.211   4.548   6.903
 7025SOL    HW221756   4.107   4.450   6.852
 7026SOL     OW21757   4.989   4.100   6.862
 7026SOL    HW121758   5.024   4.179   6.903
 7026SOL    HW221759   4.900   4.123   6.836
 7027SOL     OW21760   4.073   4.831   6.076
 7027SOL    HW121761   4.076   4.905   6.014
 7027SOL    HW221762   4.072   4.753   6.020
 7028SOL     OW21763   4.278   4.261   6.446
 7028SOL    HW121764   4.293   4.319   6.372
 7028SOL    HW221765   4.342   4.288   6.512
 7029SOL     OW21766   4.984   5.076   5.974
 7029SOL    HW121767   5.037   5.151   6.001
 7029SOL    HW221768   4.895   5.098   6.001
 7030SOL     OW21769   4.979   5.180   6.719
 7030SOL    HW121770   5.034   5.202   6.793
 7030SOL    HW221771   4.940   5.096   6.741
 7031SOL     OW21772   4.072   5.236   6.902
 7031SOL    HW121773   4.061   5.201   6.813
 7031SOL    HW221774   4.165   5.257   6.907
 7032SOL     OW21775   4.138   4.469   7.188
 7032SOL    HW121776   4.199   4.514   7.130
 7032SOL    HW221777   4.177   4.383   7.203
 7033SOL     OW21778   4.718   3.847   7.341
 7033SOL    HW121779   4.774   3.919   7.312
 7033SOL    HW221780   4.766   3.768   7.317
 7034SOL     OW21781   4.223   3.765   7.333
 7034SOL    HW121782   4.180   3.711   7.267
 7034SOL    HW221783   4.163   3.839   7.345
 7035SOL     OW21784   4.307   4.596   6.617
 7035SOL    HW121785   4.337   4.687   6.615
 7035SOL    HW221786   4.250   4.592   6.694
 7036SOL     OW21787   5.086   4.581   6.622
 7036SOL    HW121788   5.009   4.564   6.568
 7036SOL    HW221789   5.136   4.500   6.619
 7037SOL     OW21790   4.929   4.255   5.852
 7037SOL    HW121791   4.937   4.175   5.904
 7037SOL    HW221792   4.886   4.318   5.909
 7038SOL     OW21793   4.023   3.923   6.832
 7038SOL    HW121794   3.986   3.956   6.914
 7038SOL    HW221795   4.004   3.829   6.833
 7039SOL     OW21796   3.775   5.046   6.870
 7039SOL    HW121797   3.801   4.982   6.937
 7039SOL    HW221798   3.811   5.129   6.901
 7040SOL     OW21799   4.448   4.355   6.644
 7040SOL    HW121800   4.523   4.338   6.587
 7040SOL    HW221801   4.421   4.444   6.623
 7041SOL     OW21802   4.026   3.789   6.209
 7041SOL    HW121803   4.008   3.880   6.233
 7041SOL    HW221804   4.033   3.743   6.293
 7042SOL     OW21805   0.035   4.116   5.946
 7042SOL    HW121806   0.056   4.042   6.004
 7042SOL    HW221807   0.015   4.188   6.006
 7043SOL     OW21808   4.751   4.483   6.547
 7043SOL    HW121809   4.750   4.501   6.641
 7043SOL    HW221810   4.725   4.391   6.540
 7044SOL     OW21811   4.077   4.639   7.395
 7044SOL    HW121812   4.160   4.659   7.439
 7044SOL    HW221813   4.101   4.577   7.326
 7045SOL     OW21814   5.027   4.553   5.623
 7045SOL    HW121815   5.065   4.465   5.624
 7045SOL    HW221816   5.054   4.589   5.538
 7046SOL     OW21817   4.781   5.077   6.415
 7046SOL    HW121818   4.788   4.993   6.370
 7046SOL    HW221819   4.866   5.118   6.400
 7047SOL     OW21820   4.033   4.533   6.534
 7047SOL    HW121821   4.126   4.554   6.527
 7047SOL    HW221822   4.031   4.444   6.567
 7048SOL     OW21823   4.056   4.249   6.598
 7048SOL    HW121824   4.021   4.161   6.583
 7048SOL    HW221825   4.132   4.255   6.541
 7049SOL     OW21826   4.857   4.101   7.265
 7049SOL    HW121827   4.810   4.156   7.328
 7049SOL    HW221828   4.944   4.140   7.260
 7050SOL     OW21829   4.885   3.927   7.054
 7050SOL    HW121830   4.874   3.989   7.126
 7050SOL    HW221831   4.923   3.979   6.983
 7051SOL     OW21832   3.730   5.042   5.777
 7051SOL    HW121833   3.640   5.059   5.749
 7051SOL    HW221834   3.728   4.954   5.814
 7052SOL     OW21835   4.708   4.517   6.813
 7052SOL    HW121836   4.763   4.493   6.888
 7052SOL    HW221837   4.623   4.479   6.834
 7053SOL     OW21838   3.760   4.268   6.702
 7053SOL    HW121839   3.840   4.253   6.653
 7053SOL    HW221840   3.788   4.272   6.794
 7054SOL     OW21841   3.916   4.242   7.313
 7054SOL    HW121842   3.972   4.204   7.245
 7054SOL    HW221843   3.872   4.315   7.269
 7055SOL     OW21844   5.110   4.663   7.253
 7055SOL    HW121845   5.118   4.758   7.241
 7055SOL    HW221846   5.113   4.627   7.164
 7056SOL     OW21847   4.540   4.293   5.944
 7056SOL    HW121848   4.543   4.218   5.884
 7056SOL    HW221849   4.466   4.345   5.913
 7057SOL     OW21850   3.931   5.276   7.329
 7057SOL    HW121851   3.905   0.027   7.405
 7057SOL    HW221852   3.944   5.187   7.363
 7058SOL     OW21853   4.422   4.176   6.847
 7058SOL    HW121854   4.371   4.101   6.815
 7058SOL    HW221855   4.420   4.238   6.774
 7059SOL     OW21856   4.189   4.217   5.774
 7059SOL    HW121857   4.247   4.290   5.795
 7059SOL    HW221858   4.103   4.257   5.761
 7060SOL     OW21859   3.870   4.863   7.057
 7060SOL    HW121860   3.872   4.811   7.137
 7060SOL    HW221861   3.887   4.800   6.987
 7061SOL     OW21862   5.051   4.771   6.813
 7061SOL    HW121863   5.076   4.709   6.744
 7061SOL    HW221864   4.980   4.822   6.775
 7062SOL     OW21865   5.033   4.584   5.902
 7062SOL    HW121866   4.951   4.550   5.939
 7062SOL    HW221867   5.022   4.575   5.807
 7063SOL     OW21868   3.817   4.986   6.607
 7063SOL    HW121869   3.795   5.003   6.699
 7063SOL    HW221870   3.737   4.947   6.571
 7064SOL     OW21871   4.469   0.034   7.299
 7064SOL    HW121872   4.377   0.062   7.303
 7064SOL    HW221873   4.500   0.065   7.215
 7065SOL     OW21874   0.083   3.883   6.115
 7065SOL    HW121875   0.168   3.871   6.072
 7065SOL    HW221876   0.070   3.802   6.165
 7066SOL     OW21877   5.016   4.643   6.259
 7066SOL    HW121878   5.093   4.588   6.246
 7066SOL    HW221879   5.034   4.722   6.209
 7067SOL     OW21880   4.544   4.993   7.010
 7067SOL    HW121881   4.515   5.030   7.093
 7067SOL    HW221882   4.469   5.005   6.951
 7068SOL     OW21883   3.987   4.040   6.303
 7068SOL    HW121884   3.902   4.076   6.279
 7068SOL    HW221885   3.983   4.032   6.399
 7069SOL     OW21886   4.549   4.728   6.956
 7069SOL    HW121887   4.594   4.722   6.873
 7069SOL    HW221888   4.552   4.821   6.979
 7070SOL     OW21889   4.640   4.635   5.876
 7070SOL    HW121890   4.702   4.668   5.811
 7070SOL    HW221891   4.687   4.564   5.920
 7071SOL     OW21892   4.089   5.025   7.083
 7071SOL    HW121893   4.079   5.100   7.023
 7071SOL    HW221894   4.014   4.969   7.065
 7072SOL     OW21895   4.776   4.833   6.297
 7072SOL    HW121896   4.704   4.782   6.335
 7072SOL    HW221897   4.834   4.767   6.257
 7073SOL     OW21898   4.740   3.963   6.554
 7073SOL    HW121899   4.737   3.916   6.471
 7073SOL    HW221900   4.736   3.895   6.621
 7074SOL     OW21901   3.981   5.053   5.868
 7074SOL    HW121902   3.889   5.056   5.841
 7074SOL    HW221903   3.983   5.095   5.954
 7075SOL     OW21904   3.837   4.745   7.305
 7075SOL    HW121905   3.760   4.722   7.357
 7075SOL    HW221906   3.911   4.707   7.352
 7076SOL     OW21907   4.398   3.920   7.085
 7076SOL    HW121908   4.482   3.901   7.044
 7076SOL    HW221909   4.420   3.950   7.173
 7077SOL     OW21910   3.802   4.059   5.622
 7077SOL    HW121911   3.715   4.039   5.587
 7077SOL    HW221912   3.832   4.133   5.569
 7078SOL     OW21913   5.163   4.584   6.990
 7078SOL    HW121914   5.110   4.640   6.934
 7078SOL    HW221915   5.252   4.592   6.955
 7079SOL     OW21916   3.793   3.881   5.897
 7079SOL    HW121917   3.779   3.961   5.847
 7079SOL    HW221918   3.878   3.848   5.867
 7080SOL     OW21919   4.909   5.059   5.707
 7080SOL    HW121920   4.815   5.041   5.705
 7080SOL    HW221921   4.933   5.055   5.799
 7081SOL     OW21922   4.343   4.555   7.019
 7081SOL    HW121923   4.399   4.631   7.003
 7081SOL    HW221924   4.403   4.481   7.027
 7082SOL     OW21925   4.442   4.288   7.291
 7082SOL    HW121926   4.480   4.349   7.353
 7082SOL    HW221927   4.470   4.201   7.322
 7083SOL     OW21928   5.184   4.928   7.218
 7083SOL    HW121929   5.174   4.940   7.313
 7083SOL    HW221930   5.279   4.932   7.204
 7084SOL     OW21931   4.941   4.044   6.042
 7084SOL    HW121932   5.003   3.972   6.029
 7084SOL    HW221933   4.971   4.088   6.122
 7085SOL     OW21934   4.315   4.462   6.254
 7085SOL    HW121935   4.353   4.549   6.240
 7085SOL    HW221936   4.246   4.455   6.188
 7086SOL     OW21937   4.580   5.095   5.605
 7086SOL    HW121938   4.556   5.098   5.698
 7086SOL    HW221939   4.592   5.187   5.580
 7087SOL     OW21940   4.591   4.691   6.442
 7087SOL    HW121941   4.641   4.620   6.482
 7087SOL    HW221942   4.557   4.741   6.516
 7088SOL     OW21943   4.808   4.712   5.678
 7088SOL    HW121944   4.781   4.760   5.599
 7088SOL    HW221945   4.882   4.659   5.649
 7089SOL     OW21946   3.947   5.025   7.442
 7089SOL    HW121947   3.880   4.963   7.412
 7089SOL    HW221948   3.927   5.038   7.535
 7090SOL     OW21949   3.809   4.956   6.256
 7090SOL    HW121950   3.809   4.903   6.335
 7090SOL    HW221951   3.873   4.914   6.199
 7091SOL     OW21952   4.393   5.105   7.195
 7091SOL    HW121953   4.317   5.074   7.243
 7091SOL    HW221954   4.423   5.181   7.245
 7092SOL     OW21955   4.154   4.158   6.111
 7092SOL    HW121956   4.183   4.087   6.054
 7092SOL    HW221957   4.106   4.114   6.182
 7093SOL     OW21958   0.123   5.228   6.637
 7093SOL    HW121959   0.038   5.204   6.599
 7093SOL    HW221960   0.107   5.232   6.731
 7094SOL     OW21961   4.053   4.278   6.877
 7094SOL    HW121962   4.109   4.223   6.932
 7094SOL    HW221963   4.073   4.250   6.788
 7095SOL     OW21964   5.148   3.943   6.701
 7095SOL    HW121965   5.193   3.877   6.754
 7095SOL    HW221966   5.102   3.998   6.764
 7096SOL     OW21967   4.730   3.743   6.729
 7096SOL    HW121968   4.677   3.675   6.690
 7096SOL    HW221969   4.818   3.706   6.733
 7097SOL     OW21970   4.525   5.047   5.870
 7097SOL    HW121971   4.463   4.977   5.889
 7097SOL    HW221972   4.580   5.052   5.948
 7098SOL     OW21973   4.346   5.299   6.876
 7098SOL    HW121974   4.353   0.054   6.954
 7098SOL    HW221975   4.436   5.280   6.851
 7099SOL     OW21976   5.059   3.770   5.754
 7099SOL    HW121977   5.084   3.730   5.671
 7099SOL    HW221978   4.974   3.731   5.774
 7100SOL     OW21979   5.028   4.182   6.269
 7100SOL    HW121980   4.973   4.260   6.273
 7100SOL    HW221981   5.017   4.141   6.355
 7101SOL     OW21982   0.002   3.948   6.465
 7101SOL    HW121983   5.236   3.938   6.533
 7101SOL    HW221984   5.278   4.029   6.420
 7102SOL     OW21985   3.766   4.795   5.893
 7102SOL    HW121986   3.860   4.789   5.876
 7102SOL    HW221987   3.739   4.706   5.915
 7103SOL     OW21988   3.953   4.343   7.571
 7103SOL    HW121989   3.862   4.350   7.601
 7103SOL    HW221990   3.946   4.320   7.479
 7104SOL     OW21991   4.001   0.126   7.957
 7104SOL    HW121992   3.974   0.211   7.992
 7104SOL    HW221993   4.007   0.140   7.862
 7105SOL     OW21994   3.942   5.156   7.989
 7105SOL    HW121995   3.953   5.251   7.997
 7105SOL    HW221996   3.883   5.133   8.061
 7106SOL     OW21997   4.311   4.704   7.578
 7106SOL    HW121998   4.355   4.756   7.511
 7106SOL    HW221999   4.349   4.735   7.660
 7107SOL     OW22000   3.722   0.011   7.540
 7107SOL    HW122001   3.727   5.222   7.574
 7107SOL    HW222002   3.723   0.067   7.617
 7108SOL     OW22003   0.119   4.649   8.014
 7108SOL    HW122004   0.210   4.638   8.041
 7108SOL    HW222005   0.110   4.743   7.997
 7109SOL     OW22006   4.525   3.718   7.938
 7109SOL    HW122007   4.574   3.798   7.923
 7109SOL    HW222008   4.434   3.747   7.948
 7110SOL     OW22009   4.315   4.449   7.708
 7110SOL    HW122010   4.320   4.530   7.658
 7110SOL    HW222011   4.255   4.468   7.780
 7111SOL     OW22012   3.786   4.585   0.092
 7111SOL    HW122013   3.851   4.523   0.122
 7111SOL    HW222014   3.778   4.648   0.163
 7112SOL     OW22015   4.605   4.068   7.638
 7112SOL    HW122016   4.650   4.128   7.578
 7112SOL    HW222017   4.637   3.981   7.615
 7113SOL     OW22018   4.047   4.679   7.697
 7113SOL    HW122019   4.128   4.697   7.648
 7113SOL    HW222020   4.012   4.600   7.656
 7114SOL     OW22021   4.795   0.184   7.648
 7114SOL    HW122022   4.792   0.138   7.732
 7114SOL    HW222023   4.877   0.154   7.608
 7115SOL     OW22024   5.133   3.849   7.859
 7115SOL    HW122025   5.097   3.825   7.773
 7115SOL    HW222026   5.227   3.849   7.845
 7116SOL     OW22027   4.114   4.422   7.918
 7116SOL    HW122028   4.121   4.327   7.926
 7116SOL    HW222029   4.023   4.441   7.939
 7117SOL     OW22030   4.352   3.845   7.559
 7117SOL    HW122031   4.428   3.788   7.569
 7117SOL    HW222032   4.309   3.814   7.480
 7118SOL     OW22033   4.256   3.796   7.959
 7118SOL    HW122034   4.171   3.801   8.002
 7118SOL    HW222035   4.254   3.868   7.895
 7119SOL     OW22036   5.139   4.905   7.489
 7119SOL    HW122037   5.152   4.830   7.548
 7119SOL    HW222038   5.050   4.935   7.509
 7120SOL     OW22039   4.017   3.773   7.632
 7120SOL    HW122040   4.076   3.834   7.588
 7120SOL    HW222041   4.075   3.708   7.671
 7121SOL     OW22042   4.666   3.950   7.911
 7121SOL    HW122043   4.623   4.014   7.854
 7121SOL    HW222044   4.758   3.978   7.913
 7122SOL     OW22045   4.166   4.875   0.100
 7122SOL    HW122046   4.089   4.907   0.148
 7122SOL    HW222047   4.134   4.860   0.011
 7123SOL     OW22048   4.752   4.270   7.464
 7123SOL    HW122049   4.705   4.351   7.447
 7123SOL    HW222050   4.806   4.289   7.541
 7124SOL     OW22051   4.199   5.148   7.604
 7124SOL    HW122052   4.139   5.095   7.657
 7124SOL    HW222053   4.202   5.103   7.519
 7125SOL     OW22054   5.127   4.286   7.529
 7125SOL    HW122055   5.054   4.277   7.589
 7125SOL    HW222056   5.201   4.246   7.574
 7126SOL     OW22057   4.250   3.990   7.771
 7126SOL    HW122058   4.293   3.939   7.702
 7126SOL    HW222059   4.228   4.073   7.729
 7127SOL     OW22060   4.431   4.780   7.813
 7127SOL    HW122061   4.410   4.770   7.906
 7127SOL    HW222062   4.513   4.732   7.801
 7128SOL     OW22063   4.090   4.824   7.928
 7128SOL    HW122064   4.069   4.904   7.879
 7128SOL    HW222065   4.077   4.753   7.865
 7129SOL     OW22066   4.955   5.104   7.831
 7129SOL    HW122067   5.034   5.129   7.878
 7129SOL    HW222068   4.901   5.059   7.896
 7130SOL     OW22069   0.034   4.371   7.924
 7130SOL    HW122070   5.279   4.396   7.999
 7130SOL    HW222071   0.041   4.451   7.872
 7131SOL     OW22072   4.928   4.254   7.715
 7131SOL    HW122073   4.933   4.170   7.759
 7131SOL    HW222074   4.896   4.315   7.781
 7132SOL     OW22075   0.027   4.123   7.809
 7132SOL    HW122076   0.040   4.055   7.874
 7132SOL    HW222077   0.021   4.204   7.859
 7133SOL     OW22078   5.033   4.556   7.489
 7133SOL    HW122079   5.065   4.465   7.487
 7133SOL    HW222080   5.056   4.591   7.403
 7134SOL     OW22081   3.732   5.045   7.640
 7134SOL    HW122082   3.642   5.059   7.609
 7134SOL    HW222083   3.733   4.956   7.675
 7135SOL     OW22084   4.562   4.322   7.761
 7135SOL    HW122085   4.553   4.230   7.734
 7135SOL    HW222086   4.473   4.356   7.762
 7136SOL     OW22087   4.187   4.217   7.642
 7136SOL    HW122088   4.245   4.292   7.657
 7136SOL    HW222089   4.102   4.257   7.624
 7137SOL     OW22090   5.033   4.574   7.771
 7137SOL    HW122091   4.939   4.580   7.791
 7137SOL    HW222092   5.036   4.572   7.675
 7138SOL     OW22093   0.179   3.866   7.990
 7138SOL    HW122094   0.160   3.847   7.898
 7138SOL    HW222095   0.137   3.795   8.038
 7139SOL     OW22096   4.655   4.635   7.759
 7139SOL    HW122097   4.706   4.660   7.682
 7139SOL    HW222098   4.645   4.540   7.751
 7140SOL     OW22099   3.981   5.059   7.743
 7140SOL    HW122100   3.890   5.062   7.716
 7140SOL    HW222101   3.981   5.098   7.831
 7141SOL     OW22102   3.801   4.058   7.484
 7141SOL    HW122103   3.715   4.038   7.448
 7141SOL    HW222104   3.831   4.134   7.433
 7142SOL     OW22105   3.795   3.882   7.759
 7142SOL    HW122106   3.778   3.958   7.704
 7142SOL    HW222107   3.878   3.846   7.727
 7143SOL     OW22108   4.909   5.055   7.566
 7143SOL    HW122109   4.814   5.040   7.559
 7143SOL    HW222110   4.924   5.067   7.660
 7144SOL     OW22111   4.939   4.044   7.901
 7144SOL    HW122112   5.010   3.981   7.891
 7144SOL    HW222113   4.957   4.087   7.984
 7145SOL     OW22114   4.348   4.458   8.057
 7145SOL    HW122115   4.355   4.542   0.023
 7145SOL    HW222116   4.261   4.460   8.018
 7146SOL     OW22117   4.582   5.095   7.465
 7146SOL    HW122118   4.559   5.097   7.558
 7146SOL    HW222119   4.591   5.187   7.441
 7147SOL     OW22120   4.803   4.704   7.541
 7147SOL    HW122121   4.778   4.756   7.465
 7147SOL    HW222122   4.880   4.655   7.511
 7148SOL     OW22123   4.112   4.149   7.981
 7148SOL    HW122124   4.163   4.099   7.918
 7148SOL    HW222125   4.160   4.141   8.063
 7149SOL     OW22126   4.528   5.046   7.730
 7149SOL    HW122127   4.468   4.974   7.749
 7149SOL    HW222128   4.551   5.081   7.816
 7150SOL     OW22129   5.062   3.769   7.611
 7150SOL    HW122130   5.084   3.725   7.529
 7150SOL    HW222131   4.978   3.732   7.638
 7151SOL     OW22132   3.773   4.802   7.751
 7151SOL    HW122133   3.867   4.793   7.738
 7151SOL    HW222134   3.743   4.712   7.766
   5.30000   5.30000   8.08000
