Built with Packmol
26295
    1LIG      O    1   2.477   2.470   0.012
    1LIG      C    2   2.542   2.520   0.131
    1LIG     C1    3   2.471   2.467   0.256
    1LIG     O1    4   2.535   2.517   0.376
    1LIG     C2    5   2.470   2.468   0.495
    1LIG     C3    6   2.541   2.523   0.618
    1LIG     O2    7   2.477   2.475   0.737
    1LIG     C4    8   2.540   2.525   0.857
    1LIG     C5    9   2.468   2.470   0.980
    1LIG     O3   10   2.531   2.520   1.100
    1LIG     C6   11   2.466   2.471   1.218
    1LIG     C7   12   2.538   2.527   1.342
    1LIG     O4   13   2.474   2.479   1.461
    1LIG     C8   14   2.538   2.529   1.580
    1LIG     C9   15   2.465   2.473   1.703
    1LIG     O5   16   2.529   2.523   1.822
    1LIG    C10   17   2.465   2.474   1.941
    1LIG    C11   18   2.537   2.530   2.064
    1LIG     O6   19   2.473   2.481   2.183
    1LIG    C12   20   2.536   2.530   2.303
    1LIG    C13   21   2.463   2.475   2.426
    1LIG     O7   22   2.527   2.524   2.545
    1LIG    C14   23   2.463   2.475   2.664
    1LIG    C15   24   2.535   2.530   2.788
    1LIG     O8   25   2.471   2.481   2.908
    1LIG    C16   26   2.535   2.531   3.026
    1LIG    C17   27   2.464   2.476   3.150
    1LIG     O9   28   2.527   2.525   3.270
    1LIG    C18   29   2.462   2.476   3.388
    1LIG    C19   30   2.534   2.531   3.511
    1LIG    O10   31   2.471   2.482   3.631
    1LIG    C20   32   2.535   2.532   3.749
    1LIG    C21   33   2.462   2.476   3.872
    1LIG    O11   34   2.526   2.525   3.992
    1LIG    C22   35   2.462   2.476   4.110
    1LIG    C23   36   2.534   2.532   4.234
    1LIG    O12   37   2.470   2.483   4.352
    1LIG    C24   38   2.534   2.532   4.472
    1LIG    C25   39   2.462   2.477   4.596
    1LIG    O13   40   2.525   2.526   4.716
    1LIG    C26   41   2.461   2.477   4.834
    1LIG    C27   42   2.533   2.532   4.957
    1LIG    O14   43   2.469   2.483   5.076
    1LIG    C28   44   2.534   2.532   5.196
    1LIG    C29   45   2.462   2.476   5.320
    1LIG    O15   46   2.526   2.525   5.439
    1LIG    C30   47   2.462   2.476   5.557
    1LIG    C31   48   2.534   2.531   5.680
    1LIG    O16   49   2.470   2.482   5.799
    1LIG    C32   50   2.534   2.531   5.918
    1LIG    C33   51   2.462   2.476   6.042
    1LIG    O17   52   2.526   2.525   6.161
    1LIG    C34   53   2.462   2.475   6.280
    1LIG    C35   54   2.534   2.530   6.403
    1LIG    O18   55   2.470   2.481   6.523
    1LIG    C36   56   2.534   2.530   6.642
    1LIG    C37   57   2.463   2.475   6.765
    1LIG    O19   58   2.527   2.524   6.885
    1LIG    C38   59   2.463   2.474   7.003
    1LIG    C39   60   2.534   2.529   7.127
    1LIG    O20   61   2.471   2.480   7.247
    1LIG    C40   62   2.535   2.529   7.365
    1LIG    C41   63   2.464   2.474   7.489
    1LIG    O21   64   2.527   2.523   7.609
    1LIG    C42   65   2.463   2.473   7.727
    1LIG    C43   66   2.535   2.528   7.850
    1LIG    O22   67   2.472   2.479   7.970
    1LIG    C44   68   2.536   2.528   8.089
    1LIG    C45   69   2.464   2.472   8.212
    1LIG    O23   70   2.528   2.521   8.331
    1LIG    C46   71   2.464   2.472   8.450
    1LIG    C47   72   2.537   2.528   8.573
    1LIG    O24   73   2.473   2.478   8.692
    1LIG    C48   74   2.536   2.527   8.811
    1LIG    C49   75   2.464   2.471   8.934
    1LIG    O25   76   2.528   2.520   9.053
    1LIG    C50   77   2.465   2.471   9.173
    1LIG    C51   78   2.537   2.527   9.296
    1LIG    O26   79   2.474   2.477   9.415
    1LIG    C52   80   2.537   2.526   9.534
    1LIG    C53   81   2.465   2.469   9.657
    1LIG    O27   82   2.529   2.519   9.776
    1LIG    C54   83   2.466   2.469   9.895
    1LIG    C55   84   2.538   2.525  10.019
    1LIG    O28   85   2.474   2.475  10.139
    1LIG    C56   86   2.538   2.524  10.258
    1LIG    C57   87   2.467   2.468  10.382
    1LIG    O29   88   2.531   2.517  10.502
    1LIG    C58   89   2.467   2.467  10.621
    1LIG    C59   90   2.538   2.522  10.745
    1LIG      H   91   2.539   2.630   0.129
    1LIG     H1   92   2.647   2.489   0.130
    1LIG     H2   93   2.474   2.358   0.256
    1LIG     H3   94   2.366   2.498   0.255
    1LIG     H4   95   2.473   2.358   0.497
    1LIG     H5   96   2.365   2.499   0.496
    1LIG     H6   97   2.539   2.633   0.616
    1LIG     H7   98   2.647   2.492   0.618
    1LIG     H8   99   2.538   2.634   0.857
    1LIG     H9  100   2.645   2.494   0.859
    1LIG    H10  101   2.471   2.361   0.980
    1LIG    H11  102   2.363   2.501   0.978
    1LIG    H12  103   2.469   2.362   1.220
    1LIG    H13  104   2.361   2.502   1.219
    1LIG    H14  105   2.535   2.637   1.340
    1LIG    H15  106   2.643   2.496   1.341
    1LIG    H16  107   2.535   2.638   1.581
    1LIG    H17  108   2.643   2.498   1.582
    1LIG    H18  109   2.468   2.364   1.702
    1LIG    H19  110   2.360   2.504   1.701
    1LIG    H20  111   2.467   2.364   1.943
    1LIG    H21  112   2.359   2.505   1.943
    1LIG    H22  113   2.534   2.639   2.063
    1LIG    H23  114   2.642   2.499   2.063
    1LIG    H24  115   2.533   2.639   2.304
    1LIG    H25  116   2.641   2.499   2.305
    1LIG    H26  117   2.466   2.365   2.424
    1LIG    H27  118   2.358   2.506   2.424
    1LIG    H28  119   2.466   2.365   2.666
    1LIG    H29  120   2.358   2.506   2.665
    1LIG    H30  121   2.532   2.640   2.787
    1LIG    H31  122   2.640   2.499   2.787
    1LIG    H32  123   2.532   2.641   3.027
    1LIG    H33  124   2.640   2.500   3.028
    1LIG    H34  125   2.466   2.367   3.149
    1LIG    H35  126   2.358   2.507   3.148
    1LIG    H36  127   2.465   2.366   3.389
    1LIG    H37  128   2.357   2.507   3.389
    1LIG    H38  129   2.531   2.641   3.509
    1LIG    H39  130   2.639   2.500   3.510
    1LIG    H40  131   2.532   2.641   3.751
    1LIG    H41  132   2.640   2.501   3.751
    1LIG    H42  133   2.465   2.367   3.871
    1LIG    H43  134   2.357   2.507   3.871
    1LIG    H44  135   2.465   2.367   4.112
    1LIG    H45  136   2.357   2.507   4.112
    1LIG    H46  137   2.531   2.642   4.232
    1LIG    H47  138   2.640   2.501   4.232
    1LIG    H48  139   2.531   2.641   4.474
    1LIG    H49  140   2.639   2.501   4.474
    1LIG    H50  141   2.465   2.367   4.595
    1LIG    H51  142   2.357   2.508   4.595
    1LIG    H52  143   2.464   2.367   4.836
    1LIG    H53  144   2.356   2.508   4.836
    1LIG    H54  145   2.530   2.642   4.956
    1LIG    H55  146   2.638   2.501   4.956
    1LIG    H56  147   2.531   2.641   5.197
    1LIG    H57  148   2.639   2.501   5.197
    1LIG    H58  149   2.465   2.367   5.318
    1LIG    H59  150   2.357   2.507   5.318
    1LIG    H60  151   2.465   2.366   5.559
    1LIG    H61  152   2.357   2.507   5.559
    1LIG    H62  153   2.531   2.641   5.679
    1LIG    H63  154   2.639   2.500   5.679
    1LIG    H64  155   2.531   2.640   5.920
    1LIG    H65  156   2.639   2.500   5.920
    1LIG    H66  157   2.465   2.366   6.041
    1LIG    H67  158   2.357   2.507   6.041
    1LIG    H68  159   2.465   2.366   6.281
    1LIG    H69  160   2.357   2.506   6.281
    1LIG    H70  161   2.531   2.640   6.402
    1LIG    H71  162   2.639   2.500   6.402
    1LIG    H72  163   2.531   2.640   6.643
    1LIG    H73  164   2.640   2.500   6.643
    1LIG    H74  165   2.466   2.366   6.764
    1LIG    H75  166   2.358   2.506   6.764
    1LIG    H76  167   2.466   2.365   7.004
    1LIG    H77  168   2.358   2.505   7.005
    1LIG    H78  169   2.531   2.638   7.126
    1LIG    H79  170   2.640   2.498   7.126
    1LIG    H80  171   2.532   2.639   7.367
    1LIG    H81  172   2.640   2.499   7.366
    1LIG    H82  173   2.467   2.364   7.488
    1LIG    H83  174   2.358   2.504   7.488
    1LIG    H84  175   2.467   2.363   7.728
    1LIG    H85  176   2.358   2.503   7.728
    1LIG    H86  177   2.532   2.638   7.849
    1LIG    H87  178   2.641   2.498   7.848
    1LIG    H88  179   2.533   2.638   8.090
    1LIG    H89  180   2.641   2.498   8.090
    1LIG    H90  181   2.467   2.363   8.210
    1LIG    H91  182   2.359   2.503   8.210
    1LIG    H92  183   2.468   2.362   8.452
    1LIG    H93  184   2.359   2.502   8.452
    1LIG    H94  185   2.533   2.637   8.572
    1LIG    H95  186   2.642   2.497   8.571
    1LIG    H96  187   2.533   2.636   8.813
    1LIG    H97  188   2.641   2.496   8.813
    1LIG    H98  189   2.468   2.361   8.933
    1LIG    H99  190   2.359   2.501   8.933
    1LIG   H100  191   2.468   2.361   9.174
    1LIG   H101  192   2.360   2.501   9.175
    1LIG   H102  193   2.534   2.636   9.295
    1LIG   H103  194   2.642   2.496   9.294
    1LIG   H104  195   2.534   2.635   9.536
    1LIG   H105  196   2.642   2.495   9.536
    1LIG   H106  197   2.469   2.360   9.655
    1LIG   H107  198   2.360   2.500   9.656
    1LIG   H108  199   2.470   2.360   9.897
    1LIG   H109  200   2.361   2.500   9.897
    1LIG   H110  201   2.534   2.634  10.018
    1LIG   H111  202   2.643   2.494  10.018
    1LIG   H112  203   2.535   2.634  10.259
    1LIG   H113  204   2.644   2.494  10.259
    1LIG   H114  205   2.471   2.359  10.381
    1LIG   H115  206   2.362   2.499  10.381
    1LIG   H116  207   2.471   2.357  10.621
    1LIG   H117  208   2.362   2.499  10.622
    1LIG   H118  209   2.643   2.492  10.745
    1LIG   H119  210   2.491   2.485  10.838
    1MOL     C1  211   3.053   2.497   5.400
    1MOL     H1  212   3.142   2.557   5.421
    1MOL     O1  213   3.027   2.424   5.519
    1MOL     C2  214   2.906   2.345   5.513
    1MOL     H2  215   2.821   2.409   5.488
    1MOL     C3  216   2.882   2.289   5.654
    1MOL     H3  217   2.978   2.286   5.706
    1MOL     H4  218   2.842   2.187   5.648
    1MOL     O2  219   2.793   2.371   5.729
    1MOL     H5  220   2.706   2.327   5.727
    1MOL     C4  221   3.075   2.401   5.283
    1MOL     H6  222   3.164   2.341   5.304
    1MOL     O3  223   3.100   2.469   5.161
    1MOL     H7  224   3.046   2.551   5.160
    1MOL     C5  225   2.954   2.309   5.269
    1MOL     H8  226   2.867   2.370   5.241
    1MOL     O4  227   2.976   2.208   5.171
    1MOL     H9  228   3.011   2.254   5.093
    1MOL     C6  229   2.920   2.240   5.401
    1MOL    H10  230   2.997   2.166   5.426
    1MOL     O5  231   2.794   2.175   5.379
    1MOL     C7  232   2.774   2.041   5.418
    1MOL    H11  233   2.869   1.993   5.443
    1MOL     O6  234   2.695   2.033   5.535
    1MOL     C8  235   2.566   2.097   5.524
    1MOL    H12  236   2.580   2.203   5.496
    1MOL     C9  237   2.503   2.093   5.662
    1MOL    H13  238   2.519   1.994   5.706
    1MOL    H14  239   2.395   2.111   5.653
    1MOL     O7  240   2.565   2.194   5.742
    1MOL    H15  241   2.542   2.179   5.835
    1MOL    C10  242   2.704   1.971   5.302
    1MOL    H16  243   2.693   1.865   5.328
    1MOL     O8  244   2.777   1.976   5.181
    1MOL    H17  245   2.823   2.063   5.176
    1MOL    C11  246   2.564   2.031   5.284
    1MOL    H18  247   2.575   2.135   5.252
    1MOL     O9  248   2.491   1.958   5.185
    1MOL    H19  249   2.552   1.948   5.109
    1MOL    C12  250   2.483   2.029   5.414
    1MOL    H20  251   2.460   1.926   5.442
    1MOL    O10  252   2.364   2.103   5.390
    1MOL    C13  253   2.236   2.043   5.409
    1MOL    H21  254   2.248   1.936   5.429
    1MOL    O11  255   2.170   2.097   5.521
    1MOL    C14  256   2.144   2.238   5.515
    1MOL    H22  257   2.240   2.292   5.516
    1MOL    C15  258   2.067   2.275   5.641
    1MOL    H23  259   2.063   2.385   5.647
    1MOL    H24  260   2.123   2.237   5.728
    1MOL    O12  261   1.937   2.219   5.635
    1MOL    H25  262   1.883   2.261   5.703
    1MOL    C16  263   2.154   2.067   5.282
    1MOL    H26  264   2.056   2.020   5.297
    1MOL    O13  265   2.209   2.009   5.165
    1MOL    H27  266   2.307   2.012   5.169
    1MOL    C17  267   2.134   2.217   5.264
    1MOL    H28  268   2.232   2.264   5.250
    1MOL    O14  269   2.051   2.244   5.151
    1MOL    H29  270   2.084   2.187   5.079
    1MOL    C18  271   2.068   2.278   5.387
    1MOL    H30  272   1.964   2.244   5.394
    1MOL    O15  273   2.074   2.420   5.371
    1MOL    C19  274   1.958   2.499   5.387
    1MOL    H31  275   1.869   2.436   5.400
    1MOL    O16  276   1.966   2.580   5.502
    1MOL    C20  277   2.081   2.667   5.507
    1MOL    H32  278   2.172   2.606   5.509
    1MOL    C21  279   2.074   2.746   5.637
    1MOL    H33  280   2.171   2.795   5.652
    1MOL    H34  281   2.057   2.675   5.719
    1MOL    O17  282   1.968   2.841   5.628
    1MOL    H35  283   1.976   2.900   5.705
    1MOL    C22  284   1.946   2.587   5.262
    1MOL    H36  285   1.857   2.649   5.272
    1MOL    O18  286   1.931   2.513   5.142
    1MOL    H37  287   1.988   2.434   5.145
    1MOL    C23  288   2.069   2.678   5.254
    1MOL    H38  289   2.158   2.615   5.240
    1MOL    O19  290   2.058   2.770   5.146
    1MOL    H39  291   2.029   2.718   5.069
    1MOL    C24  292   2.088   2.758   5.382
    1MOL    H40  293   2.011   2.835   5.389
    1MOL    O20  294   2.218   2.817   5.372
    1MOL    C25  295   2.240   2.950   5.413
    1MOL    H41  296   2.145   2.998   5.441
    1MOL    O21  297   2.321   2.956   5.528
    1MOL    C26  298   2.450   2.891   5.513
    1MOL    H42  299   2.432   2.787   5.485
    1MOL    C27  300   2.521   2.893   5.650
    1MOL    H43  301   2.578   2.801   5.662
    1MOL    H44  302   2.443   2.894   5.727
    1MOL    O22  303   2.604   3.006   5.670
    1MOL    H45  304   2.695   2.976   5.653
    1MOL    C28  305   2.307   3.022   5.295
    1MOL    H46  306   2.319   3.128   5.321
    1MOL    O23  307   2.230   3.018   5.176
    1MOL    H47  308   2.192   2.928   5.166
    1MOL    C29  309   2.446   2.961   5.272
    1MOL    H48  310   2.434   2.857   5.240
    1MOL    O24  311   2.518   3.035   5.173
    1MOL    H49  312   2.455   3.048   5.100
    1MOL    C30  313   2.527   2.962   5.401
    1MOL    H50  314   2.549   3.065   5.432
    1MOL    O25  315   2.649   2.893   5.372
    1MOL    C31  316   2.772   2.952   5.406
    1MOL    H51  317   2.759   3.058   5.431
    1MOL    O26  318   2.829   2.892   5.522
    1MOL    C32  319   2.850   2.749   5.511
    1MOL    H52  320   2.754   2.700   5.490
    1MOL    C33  321   2.900   2.701   5.648
    1MOL    H53  322   2.955   2.784   5.695
    1MOL    H54  323   2.970   2.618   5.635
    1MOL    O27  324   2.793   2.664   5.734
    1MOL    H55  325   2.788   2.566   5.733
    1MOL    C34  326   2.866   2.934   5.286
    1MOL    H56  327   2.961   2.985   5.309
    1MOL    O28  328   2.816   2.993   5.167
    1MOL    H57  329   2.718   2.985   5.167
    1MOL    C35  330   2.894   2.785   5.266
    1MOL    H58  331   2.799   2.737   5.239
    1MOL    O29  332   2.990   2.764   5.162
    1MOL    H59  333   2.962   2.820   5.089
    1MOL    C36  334   2.944   2.719   5.393
    1MOL    H60  335   3.047   2.753   5.415
    1MOL    O30  336   2.945   2.579   5.364
    2SOL     OW  337   0.230   0.628   0.113
    2SOL    HW1  338   0.137   0.626   0.150
    2SOL    HW2  339   0.231   0.589   0.021
    3SOL     OW  340   0.225   0.275   0.996
    3SOL    HW1  341   0.260   0.258   1.088
    3SOL    HW2  342   0.137   0.230   0.984
    4SOL     OW  343   0.019   0.368   0.647
    4SOL    HW1  344  -0.063   0.411   0.686
    4SOL    HW2  345  -0.009   0.295   0.584
    5SOL     OW  346   0.569   1.275   1.165
    5SOL    HW1  347   0.476   1.268   1.128
    5SOL    HW2  348   0.580   1.364   1.209
    6SOL     OW  349   1.555   1.511   0.703
    6SOL    HW1  350   1.498   1.495   0.784
    6SOL    HW2  351   1.496   1.521   0.623
    7SOL     OW  352   1.135   0.703   0.717
    7SOL    HW1  353   1.192   0.781   0.692
    7SOL    HW2  354   1.075   0.729   0.793
    8SOL     OW  355   1.755   0.607   0.231
    8SOL    HW1  356   1.743   0.594   0.132
    8SOL    HW2  357   1.725   0.526   0.280
    9SOL     OW  358   0.768   1.144   1.023
    9SOL    HW1  359   0.690   1.161   1.083
    9SOL    HW2  360   0.802   1.231   0.987
   10SOL     OW  361   0.850   0.798   1.823
   10SOL    HW1  362   0.846   0.874   1.888
   10SOL    HW2  363   0.872   0.834   1.732
   11SOL     OW  364   0.685   1.012   0.665
   11SOL    HW1  365   0.754   0.996   0.735
   11SOL    HW2  366   0.612   1.069   0.703
   12SOL     OW  367   0.686   1.161   1.803
   12SOL    HW1  368   0.746   1.240   1.817
   12SOL    HW2  369   0.600   1.192   1.762
   13SOL     OW  370   0.335   1.435   1.061
   13SOL    HW1  371   0.257   1.404   1.008
   13SOL    HW2  372   0.393   1.493   1.004
   14SOL     OW  373   1.460   1.505   1.339
   14SOL    HW1  374   1.484   1.599   1.365
   14SOL    HW2  375   1.444   1.451   1.421
   15SOL     OW  376   0.438   0.392   1.499
   15SOL    HW1  377   0.520   0.336   1.508
   15SOL    HW2  378   0.357   0.334   1.503
   16SOL     OW  379   1.603   0.447   0.737
   16SOL    HW1  380   1.529   0.493   0.687
   16SOL    HW2  381   1.654   0.515   0.790
   17SOL     OW  382   0.231   1.713   0.483
   17SOL    HW1  383   0.265   1.790   0.537
   17SOL    HW2  384   0.275   1.713   0.393
   18SOL     OW  385   1.127   1.341   1.690
   18SOL    HW1  386   1.174   1.341   1.778
   18SOL    HW2  387   1.079   1.254   1.679
   19SOL     OW  388   0.230   1.434   0.538
   19SOL    HW1  389   0.204   1.530   0.538
   19SOL    HW2  390   0.159   1.380   0.583
   20SOL     OW  391   0.240   1.091   0.886
   20SOL    HW1  392   0.254   1.007   0.938
   20SOL    HW2  393   0.185   1.155   0.941
   21SOL     OW  394   0.620   1.786   1.439
   21SOL    HW1  395   0.528   1.769   1.474
   21SOL    HW2  396   0.648   1.878   1.465
   22SOL     OW  397   0.606   0.964   0.123
   22SOL    HW1  398   0.613   1.048   0.069
   22SOL    HW2  399   0.652   0.977   0.211
   23SOL     OW  400   1.594   0.114   1.480
   23SOL    HW1  401   1.576   0.181   1.408
   23SOL    HW2  402   1.591   0.160   1.569
   24SOL     OW  403   0.122   0.643   0.563
   24SOL    HW1  404   0.077   0.555   0.580
   24SOL    HW2  405   0.121   0.697   0.647
   25SOL     OW  406   1.842   1.767   0.359
   25SOL    HW1  407   1.896   1.738   0.439
   25SOL    HW2  408   1.872   1.857   0.330
   26SOL     OW  409   0.027   1.596   0.117
   26SOL    HW1  410   0.008   1.500   0.138
   26SOL    HW2  411  -0.006   1.654   0.192
   27SOL     OW  412   1.689   0.922   0.612
   27SOL    HW1  413   1.784   0.893   0.620
   27SOL    HW2  414   1.681   0.987   0.537
   28SOL     OW  415   1.641   1.108   0.432
   28SOL    HW1  416   1.727   1.110   0.380
   28SOL    HW2  417   1.655   1.155   0.520
   29SOL     OW  418   0.113   0.737   1.597
   29SOL    HW1  419   0.201   0.724   1.642
   29SOL    HW2  420   0.100   0.834   1.575
   30SOL     OW  421   0.613   1.365   0.726
   30SOL    HW1  422   0.564   1.278   0.735
   30SOL    HW2  423   0.590   1.408   0.639
   31SOL     OW  424   1.293   1.228   1.423
   31SOL    HW1  425   1.330   1.155   1.365
   31SOL    HW2  426   1.345   1.233   1.508
   32SOL     OW  427   0.809   0.004   0.502
   32SOL    HW1  428   0.849   0.095   0.493
   32SOL    HW2  429   0.709   0.012   0.508
   33SOL     OW  430   0.197   0.976   1.264
   33SOL    HW1  431   0.286   0.931   1.250
   33SOL    HW2  432   0.124   0.911   1.245
   34SOL     OW  433   1.525   0.999   0.190
   34SOL    HW1  434   1.462   0.923   0.203
   34SOL    HW2  435   1.573   1.017   0.276
   35SOL     OW  436   1.187   1.792   1.616
   35SOL    HW1  437   1.211   1.852   1.540
   35SOL    HW2  438   1.194   1.697   1.586
   36SOL     OW  439   0.317   0.251   1.801
   36SOL    HW1  440   0.388   0.322   1.807
   36SOL    HW2  441   0.229   0.290   1.829
   37SOL     OW  442   1.466   1.417   0.953
   37SOL    HW1  443   1.407   1.423   1.033
   37SOL    HW2  444   1.451   1.329   0.907
   38SOL     OW  445   1.667   1.714   0.572
   38SOL    HW1  446   1.626   1.691   0.484
   38SOL    HW2  447   1.649   1.640   0.637
   39SOL     OW  448   0.598   0.729   0.270
   39SOL    HW1  449   0.622   0.798   0.202
   39SOL    HW2  450   0.520   0.762   0.324
   40SOL     OW  451   1.281   0.345   0.944
   40SOL    HW1  452   1.195   0.295   0.931
   40SOL    HW2  453   1.343   0.291   1.000
   41SOL     OW  454   1.576   1.662   0.307
   41SOL    HW1  455   1.665   1.708   0.310
   41SOL    HW2  456   1.555   1.638   0.212
   42SOL     OW  457   0.807   0.605   1.465
   42SOL    HW1  458   0.760   0.602   1.554
   42SOL    HW2  459   0.756   0.550   1.399
   43SOL     OW  460   1.394   0.469   1.674
   43SOL    HW1  461   1.374   0.512   1.762
   43SOL    HW2  462   1.472   0.407   1.683
   44SOL     OW  463   0.973   0.890   1.572
   44SOL    HW1  464   1.019   0.806   1.543
   44SOL    HW2  465   0.917   0.924   1.497
   45SOL     OW  466   0.991   0.410   1.242
   45SOL    HW1  467   0.914   0.444   1.296
   45SOL    HW2  468   0.957   0.359   1.163
   46SOL     OW  469   1.041   0.701   0.429
   46SOL    HW1  470   1.067   0.697   0.525
   46SOL    HW2  471   0.956   0.650   0.415
   47SOL     OW  472   0.076   0.811   0.789
   47SOL    HW1  473   0.175   0.799   0.798
   47SOL    HW2  474   0.052   0.906   0.810
   48SOL     OW  475   0.130   1.821   1.571
   48SOL    HW1  476   0.120   1.806   1.670
   48SOL    HW2  477   0.044   1.857   1.535
   49SOL     OW  478   0.865   0.348   0.195
   49SOL    HW1  479   0.924   0.411   0.146
   49SOL    HW2  480   0.884   0.254   0.166
   50SOL     OW  481   1.719   0.585   1.831
   50SOL    HW1  482   1.693   0.674   1.795
   50SOL    HW2  483   1.717   0.517   1.758
   51SOL     OW  484   1.362   1.144   0.545
   51SOL    HW1  485   1.445   1.115   0.497
   51SOL    HW2  486   1.313   1.211   0.489
   52SOL     OW  487   0.550   0.196   0.885
   52SOL    HW1  488   0.545   0.191   0.985
   52SOL    HW2  489   0.552   0.292   0.856
   53SOL     OW  490   1.008   1.456   0.477
   53SOL    HW1  491   0.962   1.528   0.425
   53SOL    HW2  492   1.004   1.476   0.575
   54SOL     OW  493   0.351   1.801   0.853
   54SOL    HW1  494   0.401   1.715   0.859
   54SOL    HW2  495   0.416   1.878   0.850
   55SOL     OW  496   1.795   1.066   0.873
   55SOL    HW1  497   1.733   1.051   0.797
   55SOL    HW2  498   1.743   1.077   0.958
   56SOL     OW  499   1.227   1.550   1.506
   56SOL    HW1  500   1.233   1.473   1.570
   56SOL    HW2  501   1.175   1.524   1.426
   57SOL     OW  502   0.321   0.943   0.242
   57SOL    HW1  503   0.403   0.982   0.200
   57SOL    HW2  504   0.294   0.861   0.193
   58SOL     OW  505   1.458   0.735   0.728
   58SOL    HW1  506   1.453   0.670   0.803
   58SOL    HW2  507   1.538   0.794   0.741
   59SOL     OW  508   0.461   1.266   1.727
   59SOL    HW1  509   0.411   1.267   1.641
   59SOL    HW2  510   0.398   1.248   1.803
   60SOL     OW  511   1.111   1.776   0.237
   60SOL    HW1  512   1.051   1.714   0.287
   60SOL    HW2  513   1.142   1.732   0.152
   61SOL     OW  514   0.202   0.285   1.498
   61SOL    HW1  515   0.122   0.345   1.485
   61SOL    HW2  516   0.192   0.236   1.584
   62SOL     OW  517   1.632   1.377   0.081
   62SOL    HW1  518   1.600   1.471   0.071
   62SOL    HW2  519   1.556   1.314   0.069
   63SOL     OW  520   0.464   1.743   0.323
   63SOL    HW1  521   0.497   1.782   0.409
   63SOL    HW2  522   0.540   1.736   0.258
   64SOL     OW  523   1.400   0.107   0.426
   64SOL    HW1  524   1.376   0.070   0.336
   64SOL    HW2  525   1.499   0.123   0.430
   65SOL     OW  526   0.249   1.785   1.241
   65SOL    HW1  527   0.306   1.720   1.291
   65SOL    HW2  528   0.233   1.752   1.148
   66SOL     OW  529   0.940   1.698   0.904
   66SOL    HW1  530   1.020   1.641   0.925
   66SOL    HW2  531   0.891   1.658   0.827
   67SOL     OW  532   0.382   0.700   0.480
   67SOL    HW1  533   0.427   0.610   0.477
   67SOL    HW2  534   0.288   0.689   0.513
   68SOL     OW  535   1.547   0.222   1.729
   68SOL    HW1  536   1.542   0.259   1.821
   68SOL    HW2  537   1.475   0.153   1.717
   69SOL     OW  538   0.614   0.122   0.117
   69SOL    HW1  539   0.712   0.100   0.124
   69SOL    HW2  540   0.583   0.105   0.024
   70SOL     OW  541   0.781   0.264   1.749
   70SOL    HW1  542   0.848   0.203   1.792
   70SOL    HW2  543   0.708   0.283   1.814
   71SOL     OW  544   0.888   1.514   1.195
   71SOL    HW1  545   0.865   1.489   1.101
   71SOL    HW2  546   0.949   1.445   1.234
   72SOL     OW  547   1.351   0.590   1.433
   72SOL    HW1  548   1.379   0.547   1.518
   72SOL    HW2  549   1.376   0.686   1.434
   73SOL     OW  550   0.803   1.402   0.924
   73SOL    HW1  551   0.893   1.416   0.882
   73SOL    HW2  552   0.732   1.404   0.853
   74SOL     OW  553   0.922   0.503   0.899
   74SOL    HW1  554   0.897   0.494   0.803
   74SOL    HW2  555   0.970   0.421   0.930
   75SOL     OW  556   0.539   0.064   0.512
   75SOL    HW1  557   0.458   0.065   0.570
   75SOL    HW2  558   0.542   0.147   0.457
   76SOL     OW  559   1.434   1.188   0.041
   76SOL    HW1  560   1.466   1.112   0.098
   76SOL    HW2  561   1.342   1.215   0.071
   77SOL     OW  562   0.297   0.035   0.171
   77SOL    HW1  563   0.346   0.119   0.150
   77SOL    HW2  564   0.359  -0.030   0.216
   78SOL     OW  565   0.935   0.236   0.480
   78SOL    HW1  566   0.887   0.277   0.402
   78SOL    HW2  567   1.034   0.234   0.461
   79SOL     OW  568   1.076   0.683   1.464
   79SOL    HW1  569   0.996   0.622   1.467
   79SOL    HW2  570   1.157   0.630   1.440
   80SOL     OW  571   1.227   1.570   0.793
   80SOL    HW1  572   1.248   1.644   0.728
   80SOL    HW2  573   1.295   1.570   0.866
   81SOL     OW  574   0.459   1.152   0.741
   81SOL    HW1  575   0.388   1.125   0.806
   81SOL    HW2  576   0.433   1.124   0.648
   82SOL     OW  577   1.271   1.797   0.591
   82SOL    HW1  578   1.315   1.861   0.527
   82SOL    HW2  579   1.221   1.849   0.661
   83SOL     OW  580   1.032   0.549   0.016
   83SOL    HW1  581   0.991   0.631  -0.023
   83SOL    HW2  582   1.096   0.575   0.089
   84SOL     OW  583   0.078   0.556   1.386
   84SOL    HW1  584   0.170   0.555   1.345
   84SOL    HW2  585   0.072   0.630   1.453
   85SOL     OW  586   0.561   0.222   1.147
   85SOL    HW1  587   0.599   0.138   1.184
   85SOL    HW2  588   0.473   0.241   1.191
   86SOL     OW  589   0.866   0.454   0.642
   86SOL    HW1  590   0.834   0.526   0.580
   86SOL    HW2  591   0.890   0.373   0.589
   87SOL     OW  592   1.017   0.039   0.753
   87SOL    HW1  593   0.945   0.044   0.684
   87SOL    HW2  594   0.993  -0.030   0.822
   88SOL     OW  595   1.429   1.173   0.867
   88SOL    HW1  596   1.374   1.089   0.860
   88SOL    HW2  597   1.455   1.202   0.775
   89SOL     OW  598   1.466   0.590   0.992
   89SOL    HW1  599   1.436   0.495   0.999
   89SOL    HW2  600   1.539   0.606   1.058
   90SOL     OW  601   1.857   0.833   0.377
   90SOL    HW1  602   1.899   0.769   0.441
   90SOL    HW2  603   1.819   0.782   0.299
   91SOL     OW  604   0.488   1.385   0.174
   91SOL    HW1  605   0.401   1.370   0.221
   91SOL    HW2  606   0.471   1.411   0.079
   92SOL     OW  607   1.664   1.280   0.657
   92SOL    HW1  608   1.763   1.288   0.671
   92SOL    HW2  609   1.619   1.364   0.688
   93SOL     OW  610   1.390   0.575   0.078
   93SOL    HW1  611   1.336   0.554   0.159
   93SOL    HW2  612   1.481   0.534   0.087
   94SOL     OW  613   0.527   0.256   0.328
   94SOL    HW1  614   0.554   0.197   0.253
   94SOL    HW2  615   0.527   0.351   0.297
   95SOL     OW  616   1.754   1.223   1.588
   95SOL    HW1  617   1.845   1.184   1.575
   95SOL    HW2  618   1.762   1.319   1.612
   96SOL     OW  619   1.064   1.347   1.340
   96SOL    HW1  620   0.984   1.324   1.395
   96SOL    HW2  621   1.147   1.321   1.389
   97SOL     OW  622   1.592   1.629   1.625
   97SOL    HW1  623   1.619   1.663   1.535
   97SOL    HW2  624   1.671   1.591   1.671
   98SOL     OW  625   1.111   1.195   1.100
   98SOL    HW1  626   1.071   1.239   1.181
   98SOL    HW2  627   1.070   1.232   1.017
   99SOL     OW  628   1.638   1.099   1.079
   99SOL    HW1  629   1.643   1.180   1.138
   99SOL    HW2  630   1.552   1.101   1.028
  100SOL     OW  631   0.915   0.089   1.402
  100SOL    HW1  632   0.940   0.069   1.307
  100SOL    HW2  633   0.987   0.145   1.444
  101SOL     OW  634   0.980   1.116   1.719
  101SOL    HW1  635   0.881   1.122   1.729
  101SOL    HW2  636   1.003   1.036   1.663
  102SOL     OW  637   0.705   1.050   0.368
  102SOL    HW1  638   0.691   1.057   0.467
  102SOL    HW2  639   0.789   0.999   0.350
  103SOL     OW  640   0.410   0.813   1.251
  103SOL    HW1  641   0.496   0.825   1.301
  103SOL    HW2  642   0.368   0.726   1.278
  104SOL     OW  643   1.274   0.386   1.262
  104SOL    HW1  644   1.295   0.460   1.326
  104SOL    HW2  645   1.185   0.403   1.219
  105SOL     OW  646   0.064   1.564   1.331
  105SOL    HW1  647   0.018   1.646   1.297
  105SOL    HW2  648   0.162   1.583   1.340
  106SOL     OW  649   0.367   1.100   0.501
  106SOL    HW1  650   0.360   1.183   0.445
  106SOL    HW2  651   0.371   1.020   0.441
  107SOL     OW  652   0.566   0.537   0.865
  107SOL    HW1  653   0.578   0.603   0.791
  107SOL    HW2  654   0.612   0.571   0.948
  108SOL     OW  655   1.252   1.348   0.388
  108SOL    HW1  656   1.302   1.425   0.428
  108SOL    HW2  657   1.157   1.350   0.420
  109SOL     OW  658   1.272   1.445   1.142
  109SOL    HW1  659   1.319   1.458   1.229
  109SOL    HW2  660   1.206   1.371   1.151
  110SOL     OW  661   1.582   0.639   0.472
  110SOL    HW1  662   1.551   0.700   0.545
  110SOL    HW2  663   1.632   0.691   0.403
  111SOL     OW  664   0.354   1.510   1.329
  111SOL    HW1  665   0.333   1.466   1.242
  111SOL    HW2  666   0.451   1.536   1.332
  112SOL     OW  667   0.402   0.751   1.598
  112SOL    HW1  668   0.470   0.806   1.551
  112SOL    HW2  669   0.442   0.663   1.625
  113SOL     OW  670   1.587   0.779   1.670
  113SOL    HW1  671   1.495   0.817   1.665
  113SOL    HW2  672   1.647   0.826   1.605
  114SOL     OW  673   1.013   0.105   1.770
  114SOL    HW1  674   1.019   0.190   1.718
  114SOL    HW2  675   1.045   0.029   1.713
  115SOL     OW  676   0.504   0.050   1.740
  115SOL    HW1  677   0.462  -0.007   1.670
  115SOL    HW2  678   0.438   0.119   1.772
  116SOL     OW  679   0.573   0.870   1.029
  116SOL    HW1  680   0.617   0.959   1.020
  116SOL    HW2  681   0.510   0.870   1.106
  117SOL     OW  682   1.360   0.862   1.045
  117SOL    HW1  683   1.285   0.862   0.979
  117SOL    HW2  684   1.397   0.770   1.054
  118SOL     OW  685   1.209   0.525   0.275
  118SOL    HW1  686   1.222   0.441   0.329
  118SOL    HW2  687   1.180   0.599   0.335
  119SOL     OW  688   0.307   0.213   1.231
  119SOL    HW1  689   0.284   0.250   1.321
  119SOL    HW2  690   0.277   0.118   1.225
  120SOL     OW  691   0.037   1.310   1.282
  120SOL    HW1  692   0.090   1.261   1.350
  120SOL    HW2  693   0.059   1.408   1.287
  121SOL     OW  694   0.732   0.634   1.064
  121SOL    HW1  695   0.791   0.608   0.988
  121SOL    HW2  696   0.704   0.730   1.053
  122SOL     OW  697   1.728   0.935   1.854
  122SOL    HW1  698   1.682   0.928   1.765
  122SOL    HW2  699   1.666   0.979   1.920
  123SOL     OW  700   0.307   0.063   0.618
  123SOL    HW1  701   0.296   0.157   0.651
  123SOL    HW2  702   0.302   0.000   0.695
  124SOL     OW  703   1.622   0.367   0.374
  124SOL    HW1  704   1.624   0.291   0.438
  124SOL    HW2  705   1.574   0.444   0.414
  125SOL     OW  706   1.023   0.766   0.966
  125SOL    HW1  707   1.038   0.787   1.062
  125SOL    HW2  708   0.993   0.671   0.957
  126SOL     OW  709   0.980   1.573   1.700
  126SOL    HW1  710   0.960   1.617   1.612
  126SOL    HW2  711   1.019   1.482   1.684
  127SOL     OW  712   1.859   1.518   1.605
  127SOL    HW1  713   1.873   1.545   1.510
  127SOL    HW2  714   1.942   1.540   1.658
  128SOL     OW  715   0.350   0.898   1.804
  128SOL    HW1  716   0.426   0.942   1.852
  128SOL    HW2  717   0.385   0.851   1.722
  129SOL     OW  718   1.540   0.274   0.125
  129SOL    HW1  719   1.479   0.199   0.148
  129SOL    HW2  720   1.562   0.326   0.208
  130SOL     OW  721   1.303   0.838   0.042
  130SOL    HW1  722   1.337   0.745   0.057
  130SOL    HW2  723   1.321   0.865  -0.053
  131SOL     OW  724   1.068   1.333   0.849
  131SOL    HW1  725   1.075   1.249   0.794
  131SOL    HW2  726   1.130   1.402   0.813
  132SOL     OW  727   0.319   0.810   0.949
  132SOL    HW1  728   0.412   0.846   0.954
  132SOL    HW2  729   0.313   0.725   1.001
  133SOL     OW  730   0.339   0.509   1.006
  133SOL    HW1  731   0.287   0.426   0.989
  133SOL    HW2  732   0.416   0.514   0.942
  134SOL     OW  733   1.138   0.380   1.678
  134SOL    HW1  734   1.093   0.443   1.742
  134SOL    HW2  735   1.231   0.411   1.661
  135SOL     OW  736   1.160   0.207   1.477
  135SOL    HW1  737   1.160   0.271   1.554
  135SOL    HW2  738   1.188   0.255   1.394
  136SOL     OW  739   0.008   1.326   0.200
  136SOL    HW1  740  -0.085   1.347   0.169
  136SOL    HW2  741   0.018   1.227   0.213
  137SOL     OW  742   0.088   1.801   0.927
  137SOL    HW1  743   0.046   1.715   0.900
  137SOL    HW2  744   0.182   1.804   0.893
  138SOL     OW  745   0.504   1.568   0.910
  138SOL    HW1  746   0.570   1.642   0.919
  138SOL    HW2  747   0.548   1.489   0.868
  139SOL     OW  748   1.002   0.796   1.238
  139SOL    HW1  749   1.043   0.764   1.324
  139SOL    HW2  750   0.906   0.769   1.235
  140SOL     OW  751   0.040   0.544   1.114
  140SOL    HW1  752   0.125   0.511   1.073
  140SOL    HW2  753   0.053   0.559   1.212
  141SOL     OW  754   0.189   0.520   1.722
  141SOL    HW1  755   0.248   0.480   1.652
  141SOL    HW2  756   0.131   0.591   1.681
  142SOL     OW  757   1.369   0.950   1.660
  142SOL    HW1  758   1.408   1.039   1.680
  142SOL    HW2  759   1.379   0.930   1.563
  143SOL     OW  760   0.815   0.572   0.325
  143SOL    HW1  761   0.822   0.483   0.279
  143SOL    HW2  762   0.721   0.606   0.317
  144SOL     OW  763   1.657   0.604   1.206
  144SOL    HW1  764   1.619   0.535   1.268
  144SOL    HW2  765   1.739   0.568   1.162
  145SOL     OW  766   0.252   1.564   1.744
  145SOL    HW1  767   0.222   1.621   1.820
  145SOL    HW2  768   0.245   1.467   1.770
  146SOL     OW  769   0.671   0.464   1.269
  146SOL    HW1  770   0.637   0.375   1.239
  146SOL    HW2  771   0.697   0.518   1.189
  147SOL     OW  772   0.930   1.678   1.465
  147SOL    HW1  773   0.906   1.660   1.370
  147SOL    HW2  774   0.960   1.772   1.475
  148SOL     OW  775   0.473   0.500   0.191
  148SOL    HW1  776   0.534   0.580   0.195
  148SOL    HW2  777   0.378   0.531   0.198
  149SOL     OW  778   0.159   1.137   1.466
  149SOL    HW1  779   0.181   1.076   1.542
  149SOL    HW2  780   0.169   1.088   1.380
  150SOL     OW  781   1.347   1.059   1.234
  150SOL    HW1  782   1.371   0.996   1.160
  150SOL    HW2  783   1.257   1.099   1.216
  151SOL     OW  784   1.302   0.855   0.309
  151SOL    HW1  785   1.216   0.824   0.351
  151SOL    HW2  786   1.298   0.841   0.210
  152SOL     OW  787   1.759   1.747   1.154
  152SOL    HW1  788   1.820   1.777   1.081
  152SOL    HW2  789   1.721   1.658   1.132
  153SOL     OW  790   1.252   1.731   1.128
  153SOL    HW1  791   1.336   1.736   1.074
  153SOL    HW2  792   1.229   1.635   1.146
  154SOL     OW  793   0.083   1.258   1.022
  154SOL    HW1  794   0.078   1.257   1.122
  154SOL    HW2  795   0.000   1.217   0.984
  155SOL     OW  796   0.688   1.662   1.716
  155SOL    HW1  797   0.632   1.743   1.725
  155SOL    HW2  798   0.740   1.666   1.630
  156SOL     OW  799   0.903   0.086   0.133
  156SOL    HW1  800   0.954   0.087   0.047
  156SOL    HW2  801   0.959   0.044   0.204
  157SOL     OW  802   1.726   0.135   0.523
  157SOL    HW1  803   1.799   0.118   0.456
  157SOL    HW2  804   1.695   0.048   0.561
  158SOL     OW  805   1.388   1.573   0.477
  158SOL    HW1  806   1.455   1.585   0.403
  158SOL    HW2  807   1.348   1.662   0.500
  159SOL     OW  808   0.130   1.794   1.851
  159SOL    HW1  809   0.089   1.720   1.904
  159SOL    HW2  810   0.194   1.845   1.909
  160SOL     OW  811   1.280   0.927   0.672
  160SOL    HW1  812   1.340   0.846   0.674
  160SOL    HW2  813   1.320   0.996   0.612
  161SOL     OW  814   0.830   1.273   1.422
  161SOL    HW1  815   0.825   1.306   1.517
  161SOL    HW2  816   0.744   1.292   1.376
  162SOL     OW  817   0.672   1.616   0.154
  162SOL    HW1  818   0.681   1.626   0.055
  162SOL    HW2  819   0.632   1.527   0.175
  163SOL     OW  820   1.650   1.720   1.394
  163SOL    HW1  821   1.703   1.730   1.310
  163SOL    HW2  822   1.623   1.810   1.428
  164SOL     OW  823   1.841   0.175   0.963
  164SOL    HW1  824   1.880   0.090   0.927
  164SOL    HW2  825   1.743   0.177   0.944
  165SOL     OW  826   0.263   0.326   0.720
  165SOL    HW1  827   0.184   0.377   0.686
  165SOL    HW2  828   0.254   0.311   0.818
  166SOL     OW  829   1.194   1.612   0.031
  166SOL    HW1  830   1.200   1.519   0.068
  166SOL    HW2  831   1.135   1.612  -0.049
  167SOL     OW  832   0.822   1.002   1.372
  167SOL    HW1  833   0.862   1.001   1.280
  167SOL    HW2  834   0.832   1.094   1.412
  168SOL     OW  835   0.916   0.910   0.291
  168SOL    HW1  836   0.979   0.948   0.223
  168SOL    HW2  837   0.956   0.827   0.330
  169SOL     OW  838   1.504   1.607   0.044
  169SOL    HW1  839   1.412   1.644   0.051
  169SOL    HW2  840   1.542   1.627  -0.046
  170SOL     OW  841   0.372   1.288   1.490
  170SOL    HW1  842   0.359   1.381   1.456
  170SOL    HW2  843   0.288   1.236   1.477
  171SOL     OW  844   1.614   1.292   1.289
  171SOL    HW1  845   1.674   1.295   1.369
  171SOL    HW2  846   1.539   1.356   1.302
  172SOL     OW  847   1.039   1.098   0.696
  172SOL    HW1  848   0.969   1.051   0.750
  172SOL    HW2  849   1.098   1.030   0.653
  173SOL     OW  850   1.014   0.236   0.971
  173SOL    HW1  851   1.006   0.200   0.878
  173SOL    HW2  852   1.012   0.160   1.036
  174SOL     OW  853   0.590   1.487   0.491
  174SOL    HW1  854   0.632   1.429   0.421
  174SOL    HW2  855   0.546   1.566   0.447
  175SOL     OW  856   1.709   0.385   1.381
  175SOL    HW1  857   1.782   0.454   1.385
  175SOL    HW2  858   1.737   0.310   1.322
  176SOL     OW  859   0.255   1.348   0.290
  176SOL    HW1  860   0.159   1.349   0.263
  176SOL    HW2  861   0.267   1.401   0.374
  177SOL     OW  862   0.105   1.013   1.726
  177SOL    HW1  863   0.028   0.980   1.780
  177SOL    HW2  864   0.190   0.983   1.768
  178SOL     OW  865   0.672   0.203   1.489
  178SOL    HW1  866   0.762   0.187   1.449
  178SOL    HW2  867   0.680   0.208   1.588
  179SOL     OW  868   0.075   0.345   0.033
  179SOL    HW1  869  -0.017   0.317   0.004
  179SOL    HW2  870   0.106   0.422  -0.023
  180SOL     OW  871   1.440   0.856   1.398
  180SOL    HW1  872   1.383   0.908   1.335
  180SOL    HW2  873   1.536   0.868   1.374
  181SOL     OW  874   0.072   0.166   0.318
  181SOL    HW1  875   0.055   0.249   0.264
  181SOL    HW2  876   0.162   0.129   0.296
  182SOL     OW  877   1.183   1.335   0.119
  182SOL    HW1  878   1.084   1.324   0.121
  182SOL    HW2  879   1.217   1.350   0.212
  183SOL     OW  880   0.613   0.842   1.431
  183SOL    HW1  881   0.669   0.923   1.414
  183SOL    HW2  882   0.672   0.762   1.434
  184SOL     OW  883   1.493   1.767   0.959
  184SOL    HW1  884   1.526   1.831   0.890
  184SOL    HW2  885   1.559   1.761   1.034
  185SOL     OW  886   0.716   0.565   1.708
  185SOL    HW1  887   0.735   0.630   1.782
  185SOL    HW2  888   0.776   0.485   1.717
  186SOL     OW  889   1.450   1.220   1.633
  186SOL    HW1  890   1.441   1.210   1.732
  186SOL    HW2  891   1.546   1.213   1.607
  187SOL     OW  892   0.390   1.741   1.560
  187SOL    HW1  893   0.299   1.782   1.558
  187SOL    HW2  894   0.383   1.647   1.592
  188SOL     OW  895   1.674   0.883   1.254
  188SOL    HW1  896   1.647   0.794   1.217
  188SOL    HW2  897   1.675   0.951   1.181
  189SOL     OW  898   1.225   0.325   0.449
  189SOL    HW1  899   1.290   0.251   0.438
  189SOL    HW2  900   1.245   0.375   0.533
  190SOL     OW  901   0.594   0.745   0.652
  190SOL    HW1  902   0.644   0.830   0.633
  190SOL    HW2  903   0.506   0.747   0.604
  191SOL     OW  904   1.777   0.342   1.642
  191SOL    HW1  905   1.760   0.373   1.548
  191SOL    HW2  906   1.693   0.305   1.680
  192SOL     OW  907   1.730   0.934   1.517
  192SOL    HW1  908   1.768   1.025   1.532
  192SOL    HW2  909   1.722   0.917   1.418
  193SOL     OW  910   0.859   1.374   0.016
  193SOL    HW1  911   0.813   1.389   0.104
  193SOL    HW2  912   0.903   1.459  -0.014
  194SOL     OW  913   0.661   1.790   0.953
  194SOL    HW1  914   0.615   1.878   0.940
  194SOL    HW2  915   0.760   1.802   0.946
  195SOL     OW  916   0.859   0.956   0.861
  195SOL    HW1  917   0.913   0.887   0.909
  195SOL    HW2  918   0.827   1.025   0.927
  196SOL     OW  919   1.083   0.984   0.087
  196SOL    HW1  920   1.060   1.037   0.005
  196SOL    HW2  921   1.164   0.928   0.068
  197SOL     OW  922   1.861   1.569   0.851
  197SOL    HW1  923   1.790   1.557   0.781
  197SOL    HW2  924   1.862   1.490   0.911
  198SOL     OW  925   0.221   1.314   1.844
  198SOL    HW1  926   0.156   1.241   1.823
  198SOL    HW2  927   0.225   1.328   1.942
  199SOL     OW  928   0.079   1.240   0.653
  199SOL    HW1  929   0.078   1.193   0.741
  199SOL    HW2  930   0.161   1.212   0.602
  200SOL     OW  931   0.672   1.391   1.624
  200SOL    HW1  932   0.594   1.341   1.662
  200SOL    HW2  933   0.669   1.486   1.655
  201SOL     OW  934   1.824   0.192   1.227
  201SOL    HW1  935   1.820   0.102   1.271
  201SOL    HW2  936   1.827   0.181   1.128
  202SOL     OW  937   0.428   0.424   0.520
  202SOL    HW1  938   0.458   0.352   0.458
  202SOL    HW2  939   0.389   0.384   0.603
  203SOL     OW  940   1.705   1.487   1.104
  203SOL    HW1  941   1.612   1.462   1.077
  203SOL    HW2  942   1.731   1.437   1.186
  204SOL     OW  943   0.317   0.547   1.280
  204SOL    HW1  944   0.355   0.488   1.352
  204SOL    HW2  945   0.357   0.521   1.192
  205SOL     OW  946   0.812   1.586   0.687
  205SOL    HW1  947   0.844   1.596   0.593
  205SOL    HW2  948   0.733   1.524   0.689
  206SOL     OW  949   1.424   0.214   1.112
  206SOL    HW1  950   1.476   0.149   1.167
  206SOL    HW2  951   1.375   0.277   1.173
  207SOL     OW  952   1.001   0.034   1.154
  207SOL    HW1  953   0.938  -0.038   1.123
  207SOL    HW2  954   1.094  -0.002   1.154
  208SOL     OW  955   0.770   1.330   0.301
  208SOL    HW1  956   0.724   1.243   0.318
  208SOL    HW2  957   0.861   1.327   0.342
  209SOL     OW  958   0.618   1.567   1.284
  209SOL    HW1  959   0.613   1.649   1.341
  209SOL    HW2  960   0.707   1.564   1.239
  210SOL     OW  961   1.352   0.052   0.168
  210SOL    HW1  962   1.387   0.011   0.084
  210SOL    HW2  963   1.262   0.014   0.188
  211SOL     OW  964   1.300   0.453   0.691
  211SOL    HW1  965   1.241   0.533   0.695
  211SOL    HW2  966   1.315   0.418   0.784
  212SOL     OW  967   1.593   0.221   0.882
  212SOL    HW1  968   1.509   0.220   0.936
  212SOL    HW2  969   1.595   0.304   0.826
  213SOL     OW  970   0.039   1.077   0.300
  213SOL    HW1  971   0.138   1.066   0.291
  213SOL    HW2  972  -0.001   0.991   0.332
  214SOL     OW  973   0.875   1.646   0.337
  214SOL    HW1  974   0.798   1.611   0.283
  214SOL    HW2  975   0.843   1.717   0.399
  215SOL     OW  976   0.230   0.628   1.975
  215SOL    HW1  977   0.137   0.626   2.012
  215SOL    HW2  978   0.231   0.589   1.883
  216SOL     OW  979   0.225   0.275   2.858
  216SOL    HW1  980   0.260   0.258   2.950
  216SOL    HW2  981   0.137   0.230   2.846
  217SOL     OW  982   0.019   0.368   2.509
  217SOL    HW1  983  -0.063   0.411   2.548
  217SOL    HW2  984  -0.009   0.295   2.446
  218SOL     OW  985   0.569   1.275   3.027
  218SOL    HW1  986   0.476   1.268   2.990
  218SOL    HW2  987   0.580   1.364   3.071
  219SOL     OW  988   1.555   1.511   2.565
  219SOL    HW1  989   1.498   1.495   2.646
  219SOL    HW2  990   1.496   1.521   2.485
  220SOL     OW  991   1.135   0.703   2.579
  220SOL    HW1  992   1.192   0.781   2.554
  220SOL    HW2  993   1.075   0.729   2.655
  221SOL     OW  994   1.755   0.607   2.093
  221SOL    HW1  995   1.743   0.594   1.994
  221SOL    HW2  996   1.725   0.526   2.142
  222SOL     OW  997   0.768   1.144   2.885
  222SOL    HW1  998   0.690   1.161   2.945
  222SOL    HW2  999   0.802   1.231   2.849
  223SOL     OW 1000   0.850   0.798   3.685
  223SOL    HW1 1001   0.846   0.874   3.750
  223SOL    HW2 1002   0.872   0.834   3.594
  224SOL     OW 1003   0.685   1.012   2.527
  224SOL    HW1 1004   0.754   0.996   2.597
  224SOL    HW2 1005   0.612   1.069   2.565
  225SOL     OW 1006   0.686   1.161   3.665
  225SOL    HW1 1007   0.746   1.240   3.679
  225SOL    HW2 1008   0.600   1.192   3.624
  226SOL     OW 1009   0.335   1.435   2.923
  226SOL    HW1 1010   0.257   1.404   2.870
  226SOL    HW2 1011   0.393   1.493   2.866
  227SOL     OW 1012   1.460   1.505   3.201
  227SOL    HW1 1013   1.484   1.599   3.227
  227SOL    HW2 1014   1.444   1.451   3.283
  228SOL     OW 1015   0.438   0.392   3.361
  228SOL    HW1 1016   0.520   0.336   3.370
  228SOL    HW2 1017   0.357   0.334   3.365
  229SOL     OW 1018   1.603   0.447   2.599
  229SOL    HW1 1019   1.529   0.493   2.549
  229SOL    HW2 1020   1.654   0.515   2.652
  230SOL     OW 1021   0.231   1.713   2.345
  230SOL    HW1 1022   0.265   1.790   2.399
  230SOL    HW2 1023   0.275   1.713   2.255
  231SOL     OW 1024   1.127   1.341   3.552
  231SOL    HW1 1025   1.174   1.341   3.640
  231SOL    HW2 1026   1.079   1.254   3.541
  232SOL     OW 1027   0.230   1.434   2.400
  232SOL    HW1 1028   0.204   1.530   2.400
  232SOL    HW2 1029   0.159   1.380   2.445
  233SOL     OW 1030   0.240   1.091   2.748
  233SOL    HW1 1031   0.254   1.007   2.800
  233SOL    HW2 1032   0.185   1.155   2.803
  234SOL     OW 1033   0.620   1.786   3.301
  234SOL    HW1 1034   0.528   1.769   3.336
  234SOL    HW2 1035   0.648   1.878   3.327
  235SOL     OW 1036   0.606   0.964   1.985
  235SOL    HW1 1037   0.613   1.048   1.931
  235SOL    HW2 1038   0.652   0.977   2.073
  236SOL     OW 1039   1.594   0.114   3.342
  236SOL    HW1 1040   1.576   0.181   3.270
  236SOL    HW2 1041   1.591   0.160   3.431
  237SOL     OW 1042   0.122   0.643   2.425
  237SOL    HW1 1043   0.077   0.555   2.442
  237SOL    HW2 1044   0.121   0.697   2.509
  238SOL     OW 1045   1.842   1.767   2.221
  238SOL    HW1 1046   1.896   1.738   2.301
  238SOL    HW2 1047   1.872   1.857   2.192
  239SOL     OW 1048   0.027   1.596   1.979
  239SOL    HW1 1049   0.008   1.500   2.000
  239SOL    HW2 1050  -0.006   1.654   2.054
  240SOL     OW 1051   1.689   0.922   2.474
  240SOL    HW1 1052   1.784   0.893   2.482
  240SOL    HW2 1053   1.681   0.987   2.399
  241SOL     OW 1054   1.641   1.108   2.294
  241SOL    HW1 1055   1.727   1.110   2.242
  241SOL    HW2 1056   1.655   1.155   2.382
  242SOL     OW 1057   0.113   0.737   3.459
  242SOL    HW1 1058   0.201   0.724   3.504
  242SOL    HW2 1059   0.100   0.834   3.437
  243SOL     OW 1060   0.613   1.365   2.588
  243SOL    HW1 1061   0.564   1.278   2.597
  243SOL    HW2 1062   0.590   1.408   2.501
  244SOL     OW 1063   1.293   1.228   3.285
  244SOL    HW1 1064   1.330   1.155   3.227
  244SOL    HW2 1065   1.345   1.233   3.370
  245SOL     OW 1066   0.809   0.004   2.364
  245SOL    HW1 1067   0.849   0.095   2.355
  245SOL    HW2 1068   0.709   0.012   2.370
  246SOL     OW 1069   0.197   0.976   3.126
  246SOL    HW1 1070   0.286   0.931   3.112
  246SOL    HW2 1071   0.124   0.911   3.107
  247SOL     OW 1072   1.525   0.999   2.052
  247SOL    HW1 1073   1.462   0.923   2.065
  247SOL    HW2 1074   1.573   1.017   2.138
  248SOL     OW 1075   1.187   1.792   3.478
  248SOL    HW1 1076   1.211   1.852   3.402
  248SOL    HW2 1077   1.194   1.697   3.448
  249SOL     OW 1078   0.317   0.251   3.663
  249SOL    HW1 1079   0.388   0.322   3.669
  249SOL    HW2 1080   0.229   0.290   3.691
  250SOL     OW 1081   1.466   1.417   2.815
  250SOL    HW1 1082   1.407   1.423   2.895
  250SOL    HW2 1083   1.451   1.329   2.769
  251SOL     OW 1084   1.667   1.714   2.434
  251SOL    HW1 1085   1.626   1.691   2.346
  251SOL    HW2 1086   1.649   1.640   2.499
  252SOL     OW 1087   0.598   0.729   2.132
  252SOL    HW1 1088   0.622   0.798   2.064
  252SOL    HW2 1089   0.520   0.762   2.186
  253SOL     OW 1090   1.281   0.345   2.806
  253SOL    HW1 1091   1.195   0.295   2.793
  253SOL    HW2 1092   1.343   0.291   2.862
  254SOL     OW 1093   1.576   1.662   2.169
  254SOL    HW1 1094   1.665   1.708   2.172
  254SOL    HW2 1095   1.555   1.638   2.074
  255SOL     OW 1096   0.807   0.605   3.327
  255SOL    HW1 1097   0.760   0.602   3.416
  255SOL    HW2 1098   0.756   0.550   3.261
  256SOL     OW 1099   1.394   0.469   3.536
  256SOL    HW1 1100   1.374   0.512   3.624
  256SOL    HW2 1101   1.472   0.407   3.545
  257SOL     OW 1102   0.973   0.890   3.434
  257SOL    HW1 1103   1.019   0.806   3.405
  257SOL    HW2 1104   0.917   0.924   3.359
  258SOL     OW 1105   0.991   0.410   3.104
  258SOL    HW1 1106   0.914   0.444   3.158
  258SOL    HW2 1107   0.957   0.359   3.025
  259SOL     OW 1108   1.041   0.701   2.291
  259SOL    HW1 1109   1.067   0.697   2.387
  259SOL    HW2 1110   0.956   0.650   2.277
  260SOL     OW 1111   0.076   0.811   2.651
  260SOL    HW1 1112   0.175   0.799   2.660
  260SOL    HW2 1113   0.052   0.906   2.672
  261SOL     OW 1114   0.130   1.821   3.433
  261SOL    HW1 1115   0.120   1.806   3.532
  261SOL    HW2 1116   0.044   1.857   3.397
  262SOL     OW 1117   0.865   0.348   2.057
  262SOL    HW1 1118   0.924   0.411   2.008
  262SOL    HW2 1119   0.884   0.254   2.028
  263SOL     OW 1120   1.719   0.585   3.693
  263SOL    HW1 1121   1.693   0.674   3.657
  263SOL    HW2 1122   1.717   0.517   3.620
  264SOL     OW 1123   1.362   1.144   2.407
  264SOL    HW1 1124   1.445   1.115   2.359
  264SOL    HW2 1125   1.313   1.211   2.351
  265SOL     OW 1126   0.550   0.196   2.747
  265SOL    HW1 1127   0.545   0.191   2.847
  265SOL    HW2 1128   0.552   0.292   2.718
  266SOL     OW 1129   1.008   1.456   2.339
  266SOL    HW1 1130   0.962   1.528   2.287
  266SOL    HW2 1131   1.004   1.476   2.437
  267SOL     OW 1132   0.351   1.801   2.715
  267SOL    HW1 1133   0.401   1.715   2.721
  267SOL    HW2 1134   0.416   1.878   2.712
  268SOL     OW 1135   1.795   1.066   2.735
  268SOL    HW1 1136   1.733   1.051   2.659
  268SOL    HW2 1137   1.743   1.077   2.820
  269SOL     OW 1138   1.227   1.550   3.368
  269SOL    HW1 1139   1.233   1.473   3.432
  269SOL    HW2 1140   1.175   1.524   3.288
  270SOL     OW 1141   0.321   0.943   2.104
  270SOL    HW1 1142   0.403   0.982   2.062
  270SOL    HW2 1143   0.294   0.861   2.055
  271SOL     OW 1144   1.458   0.735   2.590
  271SOL    HW1 1145   1.453   0.670   2.665
  271SOL    HW2 1146   1.538   0.794   2.603
  272SOL     OW 1147   0.461   1.266   3.589
  272SOL    HW1 1148   0.411   1.267   3.503
  272SOL    HW2 1149   0.398   1.248   3.665
  273SOL     OW 1150   1.111   1.776   2.099
  273SOL    HW1 1151   1.051   1.714   2.149
  273SOL    HW2 1152   1.142   1.732   2.014
  274SOL     OW 1153   0.202   0.285   3.360
  274SOL    HW1 1154   0.122   0.345   3.347
  274SOL    HW2 1155   0.192   0.236   3.446
  275SOL     OW 1156   1.632   1.377   1.943
  275SOL    HW1 1157   1.600   1.471   1.933
  275SOL    HW2 1158   1.556   1.314   1.931
  276SOL     OW 1159   0.464   1.743   2.185
  276SOL    HW1 1160   0.497   1.782   2.271
  276SOL    HW2 1161   0.540   1.736   2.120
  277SOL     OW 1162   1.400   0.107   2.288
  277SOL    HW1 1163   1.376   0.070   2.198
  277SOL    HW2 1164   1.499   0.123   2.292
  278SOL     OW 1165   0.249   1.785   3.103
  278SOL    HW1 1166   0.306   1.720   3.153
  278SOL    HW2 1167   0.233   1.752   3.010
  279SOL     OW 1168   0.940   1.698   2.766
  279SOL    HW1 1169   1.020   1.641   2.787
  279SOL    HW2 1170   0.891   1.658   2.689
  280SOL     OW 1171   0.382   0.700   2.342
  280SOL    HW1 1172   0.427   0.610   2.339
  280SOL    HW2 1173   0.288   0.689   2.375
  281SOL     OW 1174   1.547   0.222   3.591
  281SOL    HW1 1175   1.542   0.259   3.683
  281SOL    HW2 1176   1.475   0.153   3.579
  282SOL     OW 1177   0.614   0.122   1.979
  282SOL    HW1 1178   0.712   0.100   1.986
  282SOL    HW2 1179   0.583   0.105   1.886
  283SOL     OW 1180   0.781   0.264   3.611
  283SOL    HW1 1181   0.848   0.203   3.654
  283SOL    HW2 1182   0.708   0.283   3.676
  284SOL     OW 1183   0.888   1.514   3.057
  284SOL    HW1 1184   0.865   1.489   2.963
  284SOL    HW2 1185   0.949   1.445   3.096
  285SOL     OW 1186   1.351   0.590   3.295
  285SOL    HW1 1187   1.379   0.547   3.380
  285SOL    HW2 1188   1.376   0.686   3.296
  286SOL     OW 1189   0.803   1.402   2.786
  286SOL    HW1 1190   0.893   1.416   2.744
  286SOL    HW2 1191   0.732   1.404   2.715
  287SOL     OW 1192   0.922   0.503   2.761
  287SOL    HW1 1193   0.897   0.494   2.665
  287SOL    HW2 1194   0.970   0.421   2.792
  288SOL     OW 1195   0.539   0.064   2.374
  288SOL    HW1 1196   0.458   0.065   2.432
  288SOL    HW2 1197   0.542   0.147   2.319
  289SOL     OW 1198   1.434   1.188   1.903
  289SOL    HW1 1199   1.466   1.112   1.960
  289SOL    HW2 1200   1.342   1.215   1.933
  290SOL     OW 1201   0.297   0.035   2.033
  290SOL    HW1 1202   0.346   0.119   2.012
  290SOL    HW2 1203   0.359  -0.030   2.078
  291SOL     OW 1204   0.935   0.236   2.342
  291SOL    HW1 1205   0.887   0.277   2.264
  291SOL    HW2 1206   1.034   0.234   2.323
  292SOL     OW 1207   1.076   0.683   3.326
  292SOL    HW1 1208   0.996   0.622   3.329
  292SOL    HW2 1209   1.157   0.630   3.302
  293SOL     OW 1210   1.227   1.570   2.655
  293SOL    HW1 1211   1.248   1.644   2.590
  293SOL    HW2 1212   1.295   1.570   2.728
  294SOL     OW 1213   0.459   1.152   2.603
  294SOL    HW1 1214   0.388   1.125   2.668
  294SOL    HW2 1215   0.433   1.124   2.510
  295SOL     OW 1216   1.271   1.797   2.453
  295SOL    HW1 1217   1.315   1.861   2.389
  295SOL    HW2 1218   1.221   1.849   2.523
  296SOL     OW 1219   1.032   0.549   1.878
  296SOL    HW1 1220   0.991   0.631   1.839
  296SOL    HW2 1221   1.096   0.575   1.951
  297SOL     OW 1222   0.078   0.556   3.248
  297SOL    HW1 1223   0.170   0.555   3.207
  297SOL    HW2 1224   0.072   0.630   3.315
  298SOL     OW 1225   0.561   0.222   3.009
  298SOL    HW1 1226   0.599   0.138   3.046
  298SOL    HW2 1227   0.473   0.241   3.053
  299SOL     OW 1228   0.866   0.454   2.504
  299SOL    HW1 1229   0.834   0.526   2.442
  299SOL    HW2 1230   0.890   0.373   2.451
  300SOL     OW 1231   1.017   0.039   2.615
  300SOL    HW1 1232   0.945   0.044   2.546
  300SOL    HW2 1233   0.993  -0.030   2.684
  301SOL     OW 1234   1.429   1.173   2.729
  301SOL    HW1 1235   1.374   1.089   2.722
  301SOL    HW2 1236   1.455   1.202   2.637
  302SOL     OW 1237   1.466   0.590   2.854
  302SOL    HW1 1238   1.436   0.495   2.861
  302SOL    HW2 1239   1.539   0.606   2.920
  303SOL     OW 1240   1.857   0.833   2.239
  303SOL    HW1 1241   1.899   0.769   2.303
  303SOL    HW2 1242   1.819   0.782   2.161
  304SOL     OW 1243   0.488   1.385   2.036
  304SOL    HW1 1244   0.401   1.370   2.083
  304SOL    HW2 1245   0.471   1.411   1.941
  305SOL     OW 1246   1.664   1.280   2.519
  305SOL    HW1 1247   1.763   1.288   2.533
  305SOL    HW2 1248   1.619   1.364   2.550
  306SOL     OW 1249   1.390   0.575   1.940
  306SOL    HW1 1250   1.336   0.554   2.021
  306SOL    HW2 1251   1.481   0.534   1.949
  307SOL     OW 1252   0.527   0.256   2.190
  307SOL    HW1 1253   0.554   0.197   2.115
  307SOL    HW2 1254   0.527   0.351   2.159
  308SOL     OW 1255   1.754   1.223   3.450
  308SOL    HW1 1256   1.845   1.184   3.437
  308SOL    HW2 1257   1.762   1.319   3.474
  309SOL     OW 1258   1.064   1.347   3.202
  309SOL    HW1 1259   0.984   1.324   3.257
  309SOL    HW2 1260   1.147   1.321   3.251
  310SOL     OW 1261   1.592   1.629   3.487
  310SOL    HW1 1262   1.619   1.663   3.397
  310SOL    HW2 1263   1.671   1.591   3.533
  311SOL     OW 1264   1.111   1.195   2.962
  311SOL    HW1 1265   1.071   1.239   3.043
  311SOL    HW2 1266   1.070   1.232   2.879
  312SOL     OW 1267   1.638   1.099   2.941
  312SOL    HW1 1268   1.643   1.180   3.000
  312SOL    HW2 1269   1.552   1.101   2.890
  313SOL     OW 1270   0.915   0.089   3.264
  313SOL    HW1 1271   0.940   0.069   3.169
  313SOL    HW2 1272   0.987   0.145   3.306
  314SOL     OW 1273   0.980   1.116   3.581
  314SOL    HW1 1274   0.881   1.122   3.591
  314SOL    HW2 1275   1.003   1.036   3.525
  315SOL     OW 1276   0.705   1.050   2.230
  315SOL    HW1 1277   0.691   1.057   2.329
  315SOL    HW2 1278   0.789   0.999   2.212
  316SOL     OW 1279   0.410   0.813   3.113
  316SOL    HW1 1280   0.496   0.825   3.163
  316SOL    HW2 1281   0.368   0.726   3.140
  317SOL     OW 1282   1.274   0.386   3.124
  317SOL    HW1 1283   1.295   0.460   3.188
  317SOL    HW2 1284   1.185   0.403   3.081
  318SOL     OW 1285   0.064   1.564   3.193
  318SOL    HW1 1286   0.018   1.646   3.159
  318SOL    HW2 1287   0.162   1.583   3.202
  319SOL     OW 1288   0.367   1.100   2.363
  319SOL    HW1 1289   0.360   1.183   2.307
  319SOL    HW2 1290   0.371   1.020   2.303
  320SOL     OW 1291   0.566   0.537   2.727
  320SOL    HW1 1292   0.578   0.603   2.653
  320SOL    HW2 1293   0.612   0.571   2.810
  321SOL     OW 1294   1.252   1.348   2.250
  321SOL    HW1 1295   1.302   1.425   2.290
  321SOL    HW2 1296   1.157   1.350   2.282
  322SOL     OW 1297   1.272   1.445   3.004
  322SOL    HW1 1298   1.319   1.458   3.091
  322SOL    HW2 1299   1.206   1.371   3.013
  323SOL     OW 1300   1.582   0.639   2.334
  323SOL    HW1 1301   1.551   0.700   2.407
  323SOL    HW2 1302   1.632   0.691   2.265
  324SOL     OW 1303   0.354   1.510   3.191
  324SOL    HW1 1304   0.333   1.466   3.104
  324SOL    HW2 1305   0.451   1.536   3.194
  325SOL     OW 1306   0.402   0.751   3.460
  325SOL    HW1 1307   0.470   0.806   3.413
  325SOL    HW2 1308   0.442   0.663   3.487
  326SOL     OW 1309   1.587   0.779   3.532
  326SOL    HW1 1310   1.495   0.817   3.527
  326SOL    HW2 1311   1.647   0.826   3.467
  327SOL     OW 1312   1.013   0.105   3.632
  327SOL    HW1 1313   1.019   0.190   3.580
  327SOL    HW2 1314   1.045   0.029   3.575
  328SOL     OW 1315   0.504   0.050   3.602
  328SOL    HW1 1316   0.462  -0.007   3.532
  328SOL    HW2 1317   0.438   0.119   3.634
  329SOL     OW 1318   0.573   0.870   2.891
  329SOL    HW1 1319   0.617   0.959   2.882
  329SOL    HW2 1320   0.510   0.870   2.968
  330SOL     OW 1321   1.360   0.862   2.907
  330SOL    HW1 1322   1.285   0.862   2.841
  330SOL    HW2 1323   1.397   0.770   2.916
  331SOL     OW 1324   1.209   0.525   2.137
  331SOL    HW1 1325   1.222   0.441   2.191
  331SOL    HW2 1326   1.180   0.599   2.197
  332SOL     OW 1327   0.307   0.213   3.093
  332SOL    HW1 1328   0.284   0.250   3.183
  332SOL    HW2 1329   0.277   0.118   3.087
  333SOL     OW 1330   0.037   1.310   3.144
  333SOL    HW1 1331   0.090   1.261   3.212
  333SOL    HW2 1332   0.059   1.408   3.149
  334SOL     OW 1333   0.732   0.634   2.926
  334SOL    HW1 1334   0.791   0.608   2.850
  334SOL    HW2 1335   0.704   0.730   2.915
  335SOL     OW 1336   1.728   0.935   3.716
  335SOL    HW1 1337   1.682   0.928   3.627
  335SOL    HW2 1338   1.666   0.979   3.782
  336SOL     OW 1339   0.307   0.063   2.480
  336SOL    HW1 1340   0.296   0.157   2.513
  336SOL    HW2 1341   0.302   0.000   2.557
  337SOL     OW 1342   1.622   0.367   2.236
  337SOL    HW1 1343   1.624   0.291   2.300
  337SOL    HW2 1344   1.574   0.444   2.276
  338SOL     OW 1345   1.023   0.766   2.828
  338SOL    HW1 1346   1.038   0.787   2.924
  338SOL    HW2 1347   0.993   0.671   2.819
  339SOL     OW 1348   0.980   1.573   3.562
  339SOL    HW1 1349   0.960   1.617   3.474
  339SOL    HW2 1350   1.019   1.482   3.546
  340SOL     OW 1351   1.859   1.518   3.467
  340SOL    HW1 1352   1.873   1.545   3.372
  340SOL    HW2 1353   1.942   1.540   3.520
  341SOL     OW 1354   0.350   0.898   3.666
  341SOL    HW1 1355   0.426   0.942   3.714
  341SOL    HW2 1356   0.385   0.851   3.584
  342SOL     OW 1357   1.540   0.274   1.987
  342SOL    HW1 1358   1.479   0.199   2.010
  342SOL    HW2 1359   1.562   0.326   2.070
  343SOL     OW 1360   1.303   0.838   1.904
  343SOL    HW1 1361   1.337   0.745   1.919
  343SOL    HW2 1362   1.321   0.865   1.809
  344SOL     OW 1363   1.068   1.333   2.711
  344SOL    HW1 1364   1.075   1.249   2.656
  344SOL    HW2 1365   1.130   1.402   2.675
  345SOL     OW 1366   0.319   0.810   2.811
  345SOL    HW1 1367   0.412   0.846   2.816
  345SOL    HW2 1368   0.313   0.725   2.863
  346SOL     OW 1369   0.339   0.509   2.868
  346SOL    HW1 1370   0.287   0.426   2.851
  346SOL    HW2 1371   0.416   0.514   2.804
  347SOL     OW 1372   1.138   0.380   3.540
  347SOL    HW1 1373   1.093   0.443   3.604
  347SOL    HW2 1374   1.231   0.411   3.523
  348SOL     OW 1375   1.160   0.207   3.339
  348SOL    HW1 1376   1.160   0.271   3.416
  348SOL    HW2 1377   1.188   0.255   3.256
  349SOL     OW 1378   0.008   1.326   2.062
  349SOL    HW1 1379  -0.085   1.347   2.031
  349SOL    HW2 1380   0.018   1.227   2.075
  350SOL     OW 1381   0.088   1.801   2.789
  350SOL    HW1 1382   0.046   1.715   2.762
  350SOL    HW2 1383   0.182   1.804   2.755
  351SOL     OW 1384   0.504   1.568   2.772
  351SOL    HW1 1385   0.570   1.642   2.781
  351SOL    HW2 1386   0.548   1.489   2.730
  352SOL     OW 1387   1.002   0.796   3.100
  352SOL    HW1 1388   1.043   0.764   3.186
  352SOL    HW2 1389   0.906   0.769   3.097
  353SOL     OW 1390   0.040   0.544   2.976
  353SOL    HW1 1391   0.125   0.511   2.935
  353SOL    HW2 1392   0.053   0.559   3.074
  354SOL     OW 1393   0.189   0.520   3.584
  354SOL    HW1 1394   0.248   0.480   3.514
  354SOL    HW2 1395   0.131   0.591   3.543
  355SOL     OW 1396   1.369   0.950   3.522
  355SOL    HW1 1397   1.408   1.039   3.542
  355SOL    HW2 1398   1.379   0.930   3.425
  356SOL     OW 1399   0.815   0.572   2.187
  356SOL    HW1 1400   0.822   0.483   2.141
  356SOL    HW2 1401   0.721   0.606   2.179
  357SOL     OW 1402   1.657   0.604   3.068
  357SOL    HW1 1403   1.619   0.535   3.130
  357SOL    HW2 1404   1.739   0.568   3.024
  358SOL     OW 1405   0.252   1.564   3.606
  358SOL    HW1 1406   0.222   1.621   3.682
  358SOL    HW2 1407   0.245   1.467   3.632
  359SOL     OW 1408   0.671   0.464   3.131
  359SOL    HW1 1409   0.637   0.375   3.101
  359SOL    HW2 1410   0.697   0.518   3.051
  360SOL     OW 1411   0.930   1.678   3.327
  360SOL    HW1 1412   0.906   1.660   3.232
  360SOL    HW2 1413   0.960   1.772   3.337
  361SOL     OW 1414   0.473   0.500   2.053
  361SOL    HW1 1415   0.534   0.580   2.057
  361SOL    HW2 1416   0.378   0.531   2.060
  362SOL     OW 1417   0.159   1.137   3.328
  362SOL    HW1 1418   0.181   1.076   3.404
  362SOL    HW2 1419   0.169   1.088   3.242
  363SOL     OW 1420   1.347   1.059   3.096
  363SOL    HW1 1421   1.371   0.996   3.022
  363SOL    HW2 1422   1.257   1.099   3.078
  364SOL     OW 1423   1.302   0.855   2.171
  364SOL    HW1 1424   1.216   0.824   2.213
  364SOL    HW2 1425   1.298   0.841   2.072
  365SOL     OW 1426   1.759   1.747   3.016
  365SOL    HW1 1427   1.820   1.777   2.943
  365SOL    HW2 1428   1.721   1.658   2.994
  366SOL     OW 1429   1.252   1.731   2.990
  366SOL    HW1 1430   1.336   1.736   2.936
  366SOL    HW2 1431   1.229   1.635   3.008
  367SOL     OW 1432   0.083   1.258   2.884
  367SOL    HW1 1433   0.078   1.257   2.984
  367SOL    HW2 1434   0.000   1.217   2.846
  368SOL     OW 1435   0.688   1.662   3.578
  368SOL    HW1 1436   0.632   1.743   3.587
  368SOL    HW2 1437   0.740   1.666   3.492
  369SOL     OW 1438   1.726   0.135   2.385
  369SOL    HW1 1439   1.799   0.118   2.318
  369SOL    HW2 1440   1.695   0.048   2.423
  370SOL     OW 1441   1.388   1.573   2.339
  370SOL    HW1 1442   1.455   1.585   2.265
  370SOL    HW2 1443   1.348   1.662   2.362
  371SOL     OW 1444   0.130   1.794   3.713
  371SOL    HW1 1445   0.089   1.720   3.766
  371SOL    HW2 1446   0.194   1.845   3.771
  372SOL     OW 1447   1.280   0.927   2.534
  372SOL    HW1 1448   1.340   0.846   2.536
  372SOL    HW2 1449   1.320   0.996   2.474
  373SOL     OW 1450   0.830   1.273   3.284
  373SOL    HW1 1451   0.825   1.306   3.379
  373SOL    HW2 1452   0.744   1.292   3.238
  374SOL     OW 1453   0.672   1.616   2.016
  374SOL    HW1 1454   0.681   1.626   1.917
  374SOL    HW2 1455   0.632   1.527   2.037
  375SOL     OW 1456   1.650   1.720   3.256
  375SOL    HW1 1457   1.703   1.730   3.172
  375SOL    HW2 1458   1.623   1.810   3.290
  376SOL     OW 1459   1.841   0.175   2.825
  376SOL    HW1 1460   1.880   0.090   2.789
  376SOL    HW2 1461   1.743   0.177   2.806
  377SOL     OW 1462   0.263   0.326   2.582
  377SOL    HW1 1463   0.184   0.377   2.548
  377SOL    HW2 1464   0.254   0.311   2.680
  378SOL     OW 1465   1.194   1.612   1.893
  378SOL    HW1 1466   1.200   1.519   1.930
  378SOL    HW2 1467   1.135   1.612   1.813
  379SOL     OW 1468   0.822   1.002   3.234
  379SOL    HW1 1469   0.862   1.001   3.142
  379SOL    HW2 1470   0.832   1.094   3.274
  380SOL     OW 1471   0.916   0.910   2.153
  380SOL    HW1 1472   0.979   0.948   2.085
  380SOL    HW2 1473   0.956   0.827   2.192
  381SOL     OW 1474   1.504   1.607   1.906
  381SOL    HW1 1475   1.412   1.644   1.913
  381SOL    HW2 1476   1.542   1.627   1.816
  382SOL     OW 1477   0.372   1.288   3.352
  382SOL    HW1 1478   0.359   1.381   3.318
  382SOL    HW2 1479   0.288   1.236   3.339
  383SOL     OW 1480   1.614   1.292   3.151
  383SOL    HW1 1481   1.674   1.295   3.231
  383SOL    HW2 1482   1.539   1.356   3.164
  384SOL     OW 1483   1.039   1.098   2.558
  384SOL    HW1 1484   0.969   1.051   2.612
  384SOL    HW2 1485   1.098   1.030   2.515
  385SOL     OW 1486   1.014   0.236   2.833
  385SOL    HW1 1487   1.006   0.200   2.740
  385SOL    HW2 1488   1.012   0.160   2.898
  386SOL     OW 1489   0.590   1.487   2.353
  386SOL    HW1 1490   0.632   1.429   2.283
  386SOL    HW2 1491   0.546   1.566   2.309
  387SOL     OW 1492   1.709   0.385   3.243
  387SOL    HW1 1493   1.782   0.454   3.247
  387SOL    HW2 1494   1.737   0.310   3.184
  388SOL     OW 1495   0.255   1.348   2.152
  388SOL    HW1 1496   0.159   1.349   2.125
  388SOL    HW2 1497   0.267   1.401   2.236
  389SOL     OW 1498   0.105   1.013   3.588
  389SOL    HW1 1499   0.028   0.980   3.642
  389SOL    HW2 1500   0.190   0.983   3.630
  390SOL     OW 1501   0.672   0.203   3.351
  390SOL    HW1 1502   0.762   0.187   3.311
  390SOL    HW2 1503   0.680   0.208   3.450
  391SOL     OW 1504   0.075   0.345   1.895
  391SOL    HW1 1505  -0.017   0.317   1.866
  391SOL    HW2 1506   0.106   0.422   1.839
  392SOL     OW 1507   1.440   0.856   3.260
  392SOL    HW1 1508   1.383   0.908   3.197
  392SOL    HW2 1509   1.536   0.868   3.236
  393SOL     OW 1510   0.072   0.166   2.180
  393SOL    HW1 1511   0.055   0.249   2.126
  393SOL    HW2 1512   0.162   0.129   2.158
  394SOL     OW 1513   1.183   1.335   1.981
  394SOL    HW1 1514   1.084   1.324   1.983
  394SOL    HW2 1515   1.217   1.350   2.074
  395SOL     OW 1516   0.613   0.842   3.293
  395SOL    HW1 1517   0.669   0.923   3.276
  395SOL    HW2 1518   0.672   0.762   3.296
  396SOL     OW 1519   1.493   1.767   2.821
  396SOL    HW1 1520   1.526   1.831   2.752
  396SOL    HW2 1521   1.559   1.761   2.896
  397SOL     OW 1522   0.716   0.565   3.570
  397SOL    HW1 1523   0.735   0.630   3.644
  397SOL    HW2 1524   0.776   0.485   3.579
  398SOL     OW 1525   1.450   1.220   3.495
  398SOL    HW1 1526   1.441   1.210   3.594
  398SOL    HW2 1527   1.546   1.213   3.469
  399SOL     OW 1528   0.390   1.741   3.422
  399SOL    HW1 1529   0.299   1.782   3.420
  399SOL    HW2 1530   0.383   1.647   3.454
  400SOL     OW 1531   1.674   0.883   3.116
  400SOL    HW1 1532   1.647   0.794   3.079
  400SOL    HW2 1533   1.675   0.951   3.043
  401SOL     OW 1534   1.225   0.325   2.311
  401SOL    HW1 1535   1.290   0.251   2.300
  401SOL    HW2 1536   1.245   0.375   2.395
  402SOL     OW 1537   0.594   0.745   2.514
  402SOL    HW1 1538   0.644   0.830   2.495
  402SOL    HW2 1539   0.506   0.747   2.466
  403SOL     OW 1540   1.777   0.342   3.504
  403SOL    HW1 1541   1.760   0.373   3.410
  403SOL    HW2 1542   1.693   0.305   3.542
  404SOL     OW 1543   1.730   0.934   3.379
  404SOL    HW1 1544   1.768   1.025   3.394
  404SOL    HW2 1545   1.722   0.917   3.280
  405SOL     OW 1546   0.859   1.374   1.878
  405SOL    HW1 1547   0.813   1.389   1.966
  405SOL    HW2 1548   0.903   1.459   1.848
  406SOL     OW 1549   0.661   1.790   2.815
  406SOL    HW1 1550   0.615   1.878   2.802
  406SOL    HW2 1551   0.760   1.802   2.808
  407SOL     OW 1552   0.859   0.956   2.723
  407SOL    HW1 1553   0.913   0.887   2.771
  407SOL    HW2 1554   0.827   1.025   2.789
  408SOL     OW 1555   1.083   0.984   1.949
  408SOL    HW1 1556   1.060   1.037   1.867
  408SOL    HW2 1557   1.164   0.928   1.930
  409SOL     OW 1558   1.861   1.569   2.713
  409SOL    HW1 1559   1.790   1.557   2.643
  409SOL    HW2 1560   1.862   1.490   2.773
  410SOL     OW 1561   0.221   1.314   3.706
  410SOL    HW1 1562   0.156   1.241   3.685
  410SOL    HW2 1563   0.225   1.328   3.804
  411SOL     OW 1564   0.079   1.240   2.515
  411SOL    HW1 1565   0.078   1.193   2.603
  411SOL    HW2 1566   0.161   1.212   2.464
  412SOL     OW 1567   0.672   1.391   3.486
  412SOL    HW1 1568   0.594   1.341   3.524
  412SOL    HW2 1569   0.669   1.486   3.517
  413SOL     OW 1570   1.824   0.192   3.089
  413SOL    HW1 1571   1.820   0.102   3.133
  413SOL    HW2 1572   1.827   0.181   2.990
  414SOL     OW 1573   0.428   0.424   2.382
  414SOL    HW1 1574   0.458   0.352   2.320
  414SOL    HW2 1575   0.389   0.384   2.465
  415SOL     OW 1576   1.705   1.487   2.966
  415SOL    HW1 1577   1.612   1.462   2.939
  415SOL    HW2 1578   1.731   1.437   3.048
  416SOL     OW 1579   0.317   0.547   3.142
  416SOL    HW1 1580   0.355   0.488   3.214
  416SOL    HW2 1581   0.357   0.521   3.054
  417SOL     OW 1582   0.812   1.586   2.549
  417SOL    HW1 1583   0.844   1.596   2.455
  417SOL    HW2 1584   0.733   1.524   2.551
  418SOL     OW 1585   1.424   0.214   2.974
  418SOL    HW1 1586   1.476   0.149   3.029
  418SOL    HW2 1587   1.375   0.277   3.035
  419SOL     OW 1588   1.001   0.034   3.016
  419SOL    HW1 1589   0.938  -0.038   2.985
  419SOL    HW2 1590   1.094  -0.002   3.016
  420SOL     OW 1591   0.770   1.330   2.163
  420SOL    HW1 1592   0.724   1.243   2.180
  420SOL    HW2 1593   0.861   1.327   2.204
  421SOL     OW 1594   0.618   1.567   3.146
  421SOL    HW1 1595   0.613   1.649   3.203
  421SOL    HW2 1596   0.707   1.564   3.101
  422SOL     OW 1597   1.352   0.052   2.030
  422SOL    HW1 1598   1.387   0.011   1.946
  422SOL    HW2 1599   1.262   0.014   2.050
  423SOL     OW 1600   1.300   0.453   2.553
  423SOL    HW1 1601   1.241   0.533   2.557
  423SOL    HW2 1602   1.315   0.418   2.646
  424SOL     OW 1603   1.593   0.221   2.744
  424SOL    HW1 1604   1.509   0.220   2.798
  424SOL    HW2 1605   1.595   0.304   2.688
  425SOL     OW 1606   0.039   1.077   2.162
  425SOL    HW1 1607   0.138   1.066   2.153
  425SOL    HW2 1608  -0.001   0.991   2.194
  426SOL     OW 1609   0.875   1.646   2.199
  426SOL    HW1 1610   0.798   1.611   2.145
  426SOL    HW2 1611   0.843   1.717   2.261
  427SOL     OW 1612   0.230   0.628   3.837
  427SOL    HW1 1613   0.137   0.626   3.874
  427SOL    HW2 1614   0.231   0.589   3.745
  428SOL     OW 1615   0.225   0.275   4.720
  428SOL    HW1 1616   0.260   0.258   4.812
  428SOL    HW2 1617   0.137   0.230   4.708
  429SOL     OW 1618   0.019   0.368   4.371
  429SOL    HW1 1619  -0.063   0.411   4.410
  429SOL    HW2 1620  -0.009   0.295   4.308
  430SOL     OW 1621   0.569   1.275   4.889
  430SOL    HW1 1622   0.476   1.268   4.852
  430SOL    HW2 1623   0.580   1.364   4.933
  431SOL     OW 1624   1.555   1.511   4.427
  431SOL    HW1 1625   1.498   1.495   4.508
  431SOL    HW2 1626   1.496   1.521   4.347
  432SOL     OW 1627   1.135   0.703   4.441
  432SOL    HW1 1628   1.192   0.781   4.416
  432SOL    HW2 1629   1.075   0.729   4.517
  433SOL     OW 1630   1.755   0.607   3.955
  433SOL    HW1 1631   1.743   0.594   3.856
  433SOL    HW2 1632   1.725   0.526   4.004
  434SOL     OW 1633   0.768   1.144   4.747
  434SOL    HW1 1634   0.690   1.161   4.807
  434SOL    HW2 1635   0.802   1.231   4.711
  435SOL     OW 1636   0.850   0.798   5.547
  435SOL    HW1 1637   0.846   0.874   5.612
  435SOL    HW2 1638   0.872   0.834   5.456
  436SOL     OW 1639   0.685   1.012   4.389
  436SOL    HW1 1640   0.754   0.996   4.459
  436SOL    HW2 1641   0.612   1.069   4.427
  437SOL     OW 1642   0.686   1.161   5.527
  437SOL    HW1 1643   0.746   1.240   5.541
  437SOL    HW2 1644   0.600   1.192   5.486
  438SOL     OW 1645   0.335   1.435   4.785
  438SOL    HW1 1646   0.257   1.404   4.732
  438SOL    HW2 1647   0.393   1.493   4.728
  439SOL     OW 1648   1.460   1.505   5.063
  439SOL    HW1 1649   1.484   1.599   5.089
  439SOL    HW2 1650   1.444   1.451   5.145
  440SOL     OW 1651   0.438   0.392   5.223
  440SOL    HW1 1652   0.520   0.336   5.232
  440SOL    HW2 1653   0.357   0.334   5.227
  441SOL     OW 1654   1.603   0.447   4.461
  441SOL    HW1 1655   1.529   0.493   4.411
  441SOL    HW2 1656   1.654   0.515   4.514
  442SOL     OW 1657   0.231   1.713   4.207
  442SOL    HW1 1658   0.265   1.790   4.261
  442SOL    HW2 1659   0.275   1.713   4.117
  443SOL     OW 1660   1.127   1.341   5.414
  443SOL    HW1 1661   1.174   1.341   5.502
  443SOL    HW2 1662   1.079   1.254   5.403
  444SOL     OW 1663   0.230   1.434   4.262
  444SOL    HW1 1664   0.204   1.530   4.262
  444SOL    HW2 1665   0.159   1.380   4.307
  445SOL     OW 1666   0.240   1.091   4.610
  445SOL    HW1 1667   0.254   1.007   4.662
  445SOL    HW2 1668   0.185   1.155   4.665
  446SOL     OW 1669   0.620   1.786   5.163
  446SOL    HW1 1670   0.528   1.769   5.198
  446SOL    HW2 1671   0.648   1.878   5.189
  447SOL     OW 1672   0.606   0.964   3.847
  447SOL    HW1 1673   0.613   1.048   3.793
  447SOL    HW2 1674   0.652   0.977   3.935
  448SOL     OW 1675   1.594   0.114   5.204
  448SOL    HW1 1676   1.576   0.181   5.132
  448SOL    HW2 1677   1.591   0.160   5.293
  449SOL     OW 1678   0.122   0.643   4.287
  449SOL    HW1 1679   0.077   0.555   4.304
  449SOL    HW2 1680   0.121   0.697   4.371
  450SOL     OW 1681   1.842   1.767   4.083
  450SOL    HW1 1682   1.896   1.738   4.163
  450SOL    HW2 1683   1.872   1.857   4.054
  451SOL     OW 1684   0.027   1.596   3.841
  451SOL    HW1 1685   0.008   1.500   3.862
  451SOL    HW2 1686  -0.006   1.654   3.916
  452SOL     OW 1687   1.689   0.922   4.336
  452SOL    HW1 1688   1.784   0.893   4.344
  452SOL    HW2 1689   1.681   0.987   4.261
  453SOL     OW 1690   1.641   1.108   4.156
  453SOL    HW1 1691   1.727   1.110   4.104
  453SOL    HW2 1692   1.655   1.155   4.244
  454SOL     OW 1693   0.113   0.737   5.321
  454SOL    HW1 1694   0.201   0.724   5.366
  454SOL    HW2 1695   0.100   0.834   5.299
  455SOL     OW 1696   0.613   1.365   4.450
  455SOL    HW1 1697   0.564   1.278   4.459
  455SOL    HW2 1698   0.590   1.408   4.363
  456SOL     OW 1699   1.293   1.228   5.147
  456SOL    HW1 1700   1.330   1.155   5.089
  456SOL    HW2 1701   1.345   1.233   5.232
  457SOL     OW 1702   0.809   0.004   4.226
  457SOL    HW1 1703   0.849   0.095   4.217
  457SOL    HW2 1704   0.709   0.012   4.232
  458SOL     OW 1705   0.197   0.976   4.988
  458SOL    HW1 1706   0.286   0.931   4.974
  458SOL    HW2 1707   0.124   0.911   4.969
  459SOL     OW 1708   1.525   0.999   3.914
  459SOL    HW1 1709   1.462   0.923   3.927
  459SOL    HW2 1710   1.573   1.017   4.000
  460SOL     OW 1711   1.187   1.792   5.340
  460SOL    HW1 1712   1.211   1.852   5.264
  460SOL    HW2 1713   1.194   1.697   5.310
  461SOL     OW 1714   0.317   0.251   5.525
  461SOL    HW1 1715   0.388   0.322   5.531
  461SOL    HW2 1716   0.229   0.290   5.553
  462SOL     OW 1717   1.466   1.417   4.677
  462SOL    HW1 1718   1.407   1.423   4.757
  462SOL    HW2 1719   1.451   1.329   4.631
  463SOL     OW 1720   1.667   1.714   4.296
  463SOL    HW1 1721   1.626   1.691   4.208
  463SOL    HW2 1722   1.649   1.640   4.361
  464SOL     OW 1723   0.598   0.729   3.994
  464SOL    HW1 1724   0.622   0.798   3.926
  464SOL    HW2 1725   0.520   0.762   4.048
  465SOL     OW 1726   1.281   0.345   4.668
  465SOL    HW1 1727   1.195   0.295   4.655
  465SOL    HW2 1728   1.343   0.291   4.724
  466SOL     OW 1729   1.576   1.662   4.031
  466SOL    HW1 1730   1.665   1.708   4.034
  466SOL    HW2 1731   1.555   1.638   3.936
  467SOL     OW 1732   0.807   0.605   5.189
  467SOL    HW1 1733   0.760   0.602   5.278
  467SOL    HW2 1734   0.756   0.550   5.123
  468SOL     OW 1735   1.394   0.469   5.398
  468SOL    HW1 1736   1.374   0.512   5.486
  468SOL    HW2 1737   1.472   0.407   5.407
  469SOL     OW 1738   0.973   0.890   5.296
  469SOL    HW1 1739   1.019   0.806   5.267
  469SOL    HW2 1740   0.917   0.924   5.221
  470SOL     OW 1741   0.991   0.410   4.966
  470SOL    HW1 1742   0.914   0.444   5.020
  470SOL    HW2 1743   0.957   0.359   4.887
  471SOL     OW 1744   1.041   0.701   4.153
  471SOL    HW1 1745   1.067   0.697   4.249
  471SOL    HW2 1746   0.956   0.650   4.139
  472SOL     OW 1747   0.076   0.811   4.513
  472SOL    HW1 1748   0.175   0.799   4.522
  472SOL    HW2 1749   0.052   0.906   4.534
  473SOL     OW 1750   0.130   1.821   5.295
  473SOL    HW1 1751   0.120   1.806   5.394
  473SOL    HW2 1752   0.044   1.857   5.259
  474SOL     OW 1753   0.865   0.348   3.919
  474SOL    HW1 1754   0.924   0.411   3.870
  474SOL    HW2 1755   0.884   0.254   3.890
  475SOL     OW 1756   1.719   0.585   5.555
  475SOL    HW1 1757   1.693   0.674   5.519
  475SOL    HW2 1758   1.717   0.517   5.482
  476SOL     OW 1759   1.362   1.144   4.269
  476SOL    HW1 1760   1.445   1.115   4.221
  476SOL    HW2 1761   1.313   1.211   4.213
  477SOL     OW 1762   0.550   0.196   4.609
  477SOL    HW1 1763   0.545   0.191   4.709
  477SOL    HW2 1764   0.552   0.292   4.580
  478SOL     OW 1765   1.008   1.456   4.201
  478SOL    HW1 1766   0.962   1.528   4.149
  478SOL    HW2 1767   1.004   1.476   4.299
  479SOL     OW 1768   0.351   1.801   4.577
  479SOL    HW1 1769   0.401   1.715   4.583
  479SOL    HW2 1770   0.416   1.878   4.574
  480SOL     OW 1771   1.795   1.066   4.597
  480SOL    HW1 1772   1.733   1.051   4.521
  480SOL    HW2 1773   1.743   1.077   4.682
  481SOL     OW 1774   1.227   1.550   5.230
  481SOL    HW1 1775   1.233   1.473   5.294
  481SOL    HW2 1776   1.175   1.524   5.150
  482SOL     OW 1777   0.321   0.943   3.966
  482SOL    HW1 1778   0.403   0.982   3.924
  482SOL    HW2 1779   0.294   0.861   3.917
  483SOL     OW 1780   1.458   0.735   4.452
  483SOL    HW1 1781   1.453   0.670   4.527
  483SOL    HW2 1782   1.538   0.794   4.465
  484SOL     OW 1783   0.461   1.266   5.451
  484SOL    HW1 1784   0.411   1.267   5.365
  484SOL    HW2 1785   0.398   1.248   5.527
  485SOL     OW 1786   1.111   1.776   3.961
  485SOL    HW1 1787   1.051   1.714   4.011
  485SOL    HW2 1788   1.142   1.732   3.876
  486SOL     OW 1789   0.202   0.285   5.222
  486SOL    HW1 1790   0.122   0.345   5.209
  486SOL    HW2 1791   0.192   0.236   5.308
  487SOL     OW 1792   1.632   1.377   3.805
  487SOL    HW1 1793   1.600   1.471   3.795
  487SOL    HW2 1794   1.556   1.314   3.793
  488SOL     OW 1795   0.464   1.743   4.047
  488SOL    HW1 1796   0.497   1.782   4.133
  488SOL    HW2 1797   0.540   1.736   3.982
  489SOL     OW 1798   1.400   0.107   4.150
  489SOL    HW1 1799   1.376   0.070   4.060
  489SOL    HW2 1800   1.499   0.123   4.154
  490SOL     OW 1801   0.249   1.785   4.965
  490SOL    HW1 1802   0.306   1.720   5.015
  490SOL    HW2 1803   0.233   1.752   4.872
  491SOL     OW 1804   0.940   1.698   4.628
  491SOL    HW1 1805   1.020   1.641   4.649
  491SOL    HW2 1806   0.891   1.658   4.551
  492SOL     OW 1807   0.382   0.700   4.204
  492SOL    HW1 1808   0.427   0.610   4.201
  492SOL    HW2 1809   0.288   0.689   4.237
  493SOL     OW 1810   1.547   0.222   5.453
  493SOL    HW1 1811   1.542   0.259   5.545
  493SOL    HW2 1812   1.475   0.153   5.441
  494SOL     OW 1813   0.614   0.122   3.841
  494SOL    HW1 1814   0.712   0.100   3.848
  494SOL    HW2 1815   0.583   0.105   3.748
  495SOL     OW 1816   0.781   0.264   5.473
  495SOL    HW1 1817   0.848   0.203   5.516
  495SOL    HW2 1818   0.708   0.283   5.538
  496SOL     OW 1819   0.888   1.514   4.919
  496SOL    HW1 1820   0.865   1.489   4.825
  496SOL    HW2 1821   0.949   1.445   4.958
  497SOL     OW 1822   1.351   0.590   5.157
  497SOL    HW1 1823   1.379   0.547   5.242
  497SOL    HW2 1824   1.376   0.686   5.158
  498SOL     OW 1825   0.803   1.402   4.648
  498SOL    HW1 1826   0.893   1.416   4.606
  498SOL    HW2 1827   0.732   1.404   4.577
  499SOL     OW 1828   0.922   0.503   4.623
  499SOL    HW1 1829   0.897   0.494   4.527
  499SOL    HW2 1830   0.970   0.421   4.654
  500SOL     OW 1831   0.539   0.064   4.236
  500SOL    HW1 1832   0.458   0.065   4.294
  500SOL    HW2 1833   0.542   0.147   4.181
  501SOL     OW 1834   1.434   1.188   3.765
  501SOL    HW1 1835   1.466   1.112   3.822
  501SOL    HW2 1836   1.342   1.215   3.795
  502SOL     OW 1837   0.297   0.035   3.895
  502SOL    HW1 1838   0.346   0.119   3.874
  502SOL    HW2 1839   0.359  -0.030   3.940
  503SOL     OW 1840   0.935   0.236   4.204
  503SOL    HW1 1841   0.887   0.277   4.126
  503SOL    HW2 1842   1.034   0.234   4.185
  504SOL     OW 1843   1.076   0.683   5.188
  504SOL    HW1 1844   0.996   0.622   5.191
  504SOL    HW2 1845   1.157   0.630   5.164
  505SOL     OW 1846   1.227   1.570   4.517
  505SOL    HW1 1847   1.248   1.644   4.452
  505SOL    HW2 1848   1.295   1.570   4.590
  506SOL     OW 1849   0.459   1.152   4.465
  506SOL    HW1 1850   0.388   1.125   4.530
  506SOL    HW2 1851   0.433   1.124   4.372
  507SOL     OW 1852   1.271   1.797   4.315
  507SOL    HW1 1853   1.315   1.861   4.251
  507SOL    HW2 1854   1.221   1.849   4.385
  508SOL     OW 1855   1.032   0.549   3.740
  508SOL    HW1 1856   0.991   0.631   3.701
  508SOL    HW2 1857   1.096   0.575   3.813
  509SOL     OW 1858   0.078   0.556   5.110
  509SOL    HW1 1859   0.170   0.555   5.069
  509SOL    HW2 1860   0.072   0.630   5.177
  510SOL     OW 1861   0.561   0.222   4.871
  510SOL    HW1 1862   0.599   0.138   4.908
  510SOL    HW2 1863   0.473   0.241   4.915
  511SOL     OW 1864   0.866   0.454   4.366
  511SOL    HW1 1865   0.834   0.526   4.304
  511SOL    HW2 1866   0.890   0.373   4.313
  512SOL     OW 1867   1.017   0.039   4.477
  512SOL    HW1 1868   0.945   0.044   4.408
  512SOL    HW2 1869   0.993  -0.030   4.546
  513SOL     OW 1870   1.429   1.173   4.591
  513SOL    HW1 1871   1.374   1.089   4.584
  513SOL    HW2 1872   1.455   1.202   4.499
  514SOL     OW 1873   1.466   0.590   4.716
  514SOL    HW1 1874   1.436   0.495   4.723
  514SOL    HW2 1875   1.539   0.606   4.782
  515SOL     OW 1876   1.857   0.833   4.101
  515SOL    HW1 1877   1.899   0.769   4.165
  515SOL    HW2 1878   1.819   0.782   4.023
  516SOL     OW 1879   0.488   1.385   3.898
  516SOL    HW1 1880   0.401   1.370   3.945
  516SOL    HW2 1881   0.471   1.411   3.803
  517SOL     OW 1882   1.664   1.280   4.381
  517SOL    HW1 1883   1.763   1.288   4.395
  517SOL    HW2 1884   1.619   1.364   4.412
  518SOL     OW 1885   1.390   0.575   3.802
  518SOL    HW1 1886   1.336   0.554   3.883
  518SOL    HW2 1887   1.481   0.534   3.811
  519SOL     OW 1888   0.527   0.256   4.052
  519SOL    HW1 1889   0.554   0.197   3.977
  519SOL    HW2 1890   0.527   0.351   4.021
  520SOL     OW 1891   1.754   1.223   5.312
  520SOL    HW1 1892   1.845   1.184   5.299
  520SOL    HW2 1893   1.762   1.319   5.336
  521SOL     OW 1894   1.064   1.347   5.064
  521SOL    HW1 1895   0.984   1.324   5.119
  521SOL    HW2 1896   1.147   1.321   5.113
  522SOL     OW 1897   1.592   1.629   5.349
  522SOL    HW1 1898   1.619   1.663   5.259
  522SOL    HW2 1899   1.671   1.591   5.395
  523SOL     OW 1900   1.111   1.195   4.824
  523SOL    HW1 1901   1.071   1.239   4.905
  523SOL    HW2 1902   1.070   1.232   4.741
  524SOL     OW 1903   1.638   1.099   4.803
  524SOL    HW1 1904   1.643   1.180   4.862
  524SOL    HW2 1905   1.552   1.101   4.752
  525SOL     OW 1906   0.915   0.089   5.126
  525SOL    HW1 1907   0.940   0.069   5.031
  525SOL    HW2 1908   0.987   0.145   5.168
  526SOL     OW 1909   0.980   1.116   5.443
  526SOL    HW1 1910   0.881   1.122   5.453
  526SOL    HW2 1911   1.003   1.036   5.387
  527SOL     OW 1912   0.705   1.050   4.092
  527SOL    HW1 1913   0.691   1.057   4.191
  527SOL    HW2 1914   0.789   0.999   4.074
  528SOL     OW 1915   0.410   0.813   4.975
  528SOL    HW1 1916   0.496   0.825   5.025
  528SOL    HW2 1917   0.368   0.726   5.002
  529SOL     OW 1918   1.274   0.386   4.986
  529SOL    HW1 1919   1.295   0.460   5.050
  529SOL    HW2 1920   1.185   0.403   4.943
  530SOL     OW 1921   0.064   1.564   5.055
  530SOL    HW1 1922   0.018   1.646   5.021
  530SOL    HW2 1923   0.162   1.583   5.064
  531SOL     OW 1924   0.367   1.100   4.225
  531SOL    HW1 1925   0.360   1.183   4.169
  531SOL    HW2 1926   0.371   1.020   4.165
  532SOL     OW 1927   0.566   0.537   4.589
  532SOL    HW1 1928   0.578   0.603   4.515
  532SOL    HW2 1929   0.612   0.571   4.672
  533SOL     OW 1930   1.252   1.348   4.112
  533SOL    HW1 1931   1.302   1.425   4.152
  533SOL    HW2 1932   1.157   1.350   4.144
  534SOL     OW 1933   1.272   1.445   4.866
  534SOL    HW1 1934   1.319   1.458   4.953
  534SOL    HW2 1935   1.206   1.371   4.875
  535SOL     OW 1936   1.582   0.639   4.196
  535SOL    HW1 1937   1.551   0.700   4.269
  535SOL    HW2 1938   1.632   0.691   4.127
  536SOL     OW 1939   0.354   1.510   5.053
  536SOL    HW1 1940   0.333   1.466   4.966
  536SOL    HW2 1941   0.451   1.536   5.056
  537SOL     OW 1942   0.402   0.751   5.322
  537SOL    HW1 1943   0.470   0.806   5.275
  537SOL    HW2 1944   0.442   0.663   5.349
  538SOL     OW 1945   1.587   0.779   5.394
  538SOL    HW1 1946   1.495   0.817   5.389
  538SOL    HW2 1947   1.647   0.826   5.329
  539SOL     OW 1948   1.013   0.105   5.494
  539SOL    HW1 1949   1.019   0.190   5.442
  539SOL    HW2 1950   1.045   0.029   5.437
  540SOL     OW 1951   0.504   0.050   5.464
  540SOL    HW1 1952   0.462  -0.007   5.394
  540SOL    HW2 1953   0.438   0.119   5.496
  541SOL     OW 1954   0.573   0.870   4.753
  541SOL    HW1 1955   0.617   0.959   4.744
  541SOL    HW2 1956   0.510   0.870   4.830
  542SOL     OW 1957   1.360   0.862   4.769
  542SOL    HW1 1958   1.285   0.862   4.703
  542SOL    HW2 1959   1.397   0.770   4.778
  543SOL     OW 1960   1.209   0.525   3.999
  543SOL    HW1 1961   1.222   0.441   4.053
  543SOL    HW2 1962   1.180   0.599   4.059
  544SOL     OW 1963   0.307   0.213   4.955
  544SOL    HW1 1964   0.284   0.250   5.045
  544SOL    HW2 1965   0.277   0.118   4.949
  545SOL     OW 1966   0.037   1.310   5.006
  545SOL    HW1 1967   0.090   1.261   5.074
  545SOL    HW2 1968   0.059   1.408   5.011
  546SOL     OW 1969   0.732   0.634   4.788
  546SOL    HW1 1970   0.791   0.608   4.712
  546SOL    HW2 1971   0.704   0.730   4.777
  547SOL     OW 1972   1.728   0.935   5.578
  547SOL    HW1 1973   1.682   0.928   5.489
  547SOL    HW2 1974   1.666   0.979   5.644
  548SOL     OW 1975   0.307   0.063   4.342
  548SOL    HW1 1976   0.296   0.157   4.375
  548SOL    HW2 1977   0.302   0.000   4.419
  549SOL     OW 1978   1.622   0.367   4.098
  549SOL    HW1 1979   1.624   0.291   4.162
  549SOL    HW2 1980   1.574   0.444   4.138
  550SOL     OW 1981   1.023   0.766   4.690
  550SOL    HW1 1982   1.038   0.787   4.786
  550SOL    HW2 1983   0.993   0.671   4.681
  551SOL     OW 1984   0.980   1.573   5.424
  551SOL    HW1 1985   0.960   1.617   5.336
  551SOL    HW2 1986   1.019   1.482   5.408
  552SOL     OW 1987   1.859   1.518   5.329
  552SOL    HW1 1988   1.873   1.545   5.234
  552SOL    HW2 1989   1.942   1.540   5.382
  553SOL     OW 1990   0.350   0.898   5.528
  553SOL    HW1 1991   0.426   0.942   5.576
  553SOL    HW2 1992   0.385   0.851   5.446
  554SOL     OW 1993   1.540   0.274   3.849
  554SOL    HW1 1994   1.479   0.199   3.872
  554SOL    HW2 1995   1.562   0.326   3.932
  555SOL     OW 1996   1.303   0.838   3.766
  555SOL    HW1 1997   1.337   0.745   3.781
  555SOL    HW2 1998   1.321   0.865   3.671
  556SOL     OW 1999   1.068   1.333   4.573
  556SOL    HW1 2000   1.075   1.249   4.518
  556SOL    HW2 2001   1.130   1.402   4.537
  557SOL     OW 2002   0.319   0.810   4.673
  557SOL    HW1 2003   0.412   0.846   4.678
  557SOL    HW2 2004   0.313   0.725   4.725
  558SOL     OW 2005   0.339   0.509   4.730
  558SOL    HW1 2006   0.287   0.426   4.713
  558SOL    HW2 2007   0.416   0.514   4.666
  559SOL     OW 2008   1.138   0.380   5.402
  559SOL    HW1 2009   1.093   0.443   5.466
  559SOL    HW2 2010   1.231   0.411   5.385
  560SOL     OW 2011   1.160   0.207   5.201
  560SOL    HW1 2012   1.160   0.271   5.278
  560SOL    HW2 2013   1.188   0.255   5.118
  561SOL     OW 2014   0.008   1.326   3.924
  561SOL    HW1 2015  -0.085   1.347   3.893
  561SOL    HW2 2016   0.018   1.227   3.937
  562SOL     OW 2017   0.088   1.801   4.651
  562SOL    HW1 2018   0.046   1.715   4.624
  562SOL    HW2 2019   0.182   1.804   4.617
  563SOL     OW 2020   0.504   1.568   4.634
  563SOL    HW1 2021   0.570   1.642   4.643
  563SOL    HW2 2022   0.548   1.489   4.592
  564SOL     OW 2023   1.002   0.796   4.962
  564SOL    HW1 2024   1.043   0.764   5.048
  564SOL    HW2 2025   0.906   0.769   4.959
  565SOL     OW 2026   0.040   0.544   4.838
  565SOL    HW1 2027   0.125   0.511   4.797
  565SOL    HW2 2028   0.053   0.559   4.936
  566SOL     OW 2029   0.189   0.520   5.446
  566SOL    HW1 2030   0.248   0.480   5.376
  566SOL    HW2 2031   0.131   0.591   5.405
  567SOL     OW 2032   1.369   0.950   5.384
  567SOL    HW1 2033   1.408   1.039   5.404
  567SOL    HW2 2034   1.379   0.930   5.287
  568SOL     OW 2035   0.815   0.572   4.049
  568SOL    HW1 2036   0.822   0.483   4.003
  568SOL    HW2 2037   0.721   0.606   4.041
  569SOL     OW 2038   1.657   0.604   4.930
  569SOL    HW1 2039   1.619   0.535   4.992
  569SOL    HW2 2040   1.739   0.568   4.886
  570SOL     OW 2041   0.252   1.564   5.468
  570SOL    HW1 2042   0.222   1.621   5.544
  570SOL    HW2 2043   0.245   1.467   5.494
  571SOL     OW 2044   0.671   0.464   4.993
  571SOL    HW1 2045   0.637   0.375   4.963
  571SOL    HW2 2046   0.697   0.518   4.913
  572SOL     OW 2047   0.930   1.678   5.189
  572SOL    HW1 2048   0.906   1.660   5.094
  572SOL    HW2 2049   0.960   1.772   5.199
  573SOL     OW 2050   0.473   0.500   3.915
  573SOL    HW1 2051   0.534   0.580   3.919
  573SOL    HW2 2052   0.378   0.531   3.922
  574SOL     OW 2053   0.159   1.137   5.190
  574SOL    HW1 2054   0.181   1.076   5.266
  574SOL    HW2 2055   0.169   1.088   5.104
  575SOL     OW 2056   1.347   1.059   4.958
  575SOL    HW1 2057   1.371   0.996   4.884
  575SOL    HW2 2058   1.257   1.099   4.940
  576SOL     OW 2059   1.302   0.855   4.033
  576SOL    HW1 2060   1.216   0.824   4.075
  576SOL    HW2 2061   1.298   0.841   3.934
  577SOL     OW 2062   1.759   1.747   4.878
  577SOL    HW1 2063   1.820   1.777   4.805
  577SOL    HW2 2064   1.721   1.658   4.856
  578SOL     OW 2065   1.252   1.731   4.852
  578SOL    HW1 2066   1.336   1.736   4.798
  578SOL    HW2 2067   1.229   1.635   4.870
  579SOL     OW 2068   0.083   1.258   4.746
  579SOL    HW1 2069   0.078   1.257   4.846
  579SOL    HW2 2070   0.000   1.217   4.708
  580SOL     OW 2071   0.688   1.662   5.440
  580SOL    HW1 2072   0.632   1.743   5.449
  580SOL    HW2 2073   0.740   1.666   5.354
  581SOL     OW 2074   1.726   0.135   4.247
  581SOL    HW1 2075   1.799   0.118   4.180
  581SOL    HW2 2076   1.695   0.048   4.285
  582SOL     OW 2077   1.388   1.573   4.201
  582SOL    HW1 2078   1.455   1.585   4.127
  582SOL    HW2 2079   1.348   1.662   4.224
  583SOL     OW 2080   0.130   1.794   5.575
  583SOL    HW1 2081   0.089   1.720   5.628
  583SOL    HW2 2082   0.194   1.845   5.633
  584SOL     OW 2083   1.280   0.927   4.396
  584SOL    HW1 2084   1.340   0.846   4.398
  584SOL    HW2 2085   1.320   0.996   4.336
  585SOL     OW 2086   0.830   1.273   5.146
  585SOL    HW1 2087   0.825   1.306   5.241
  585SOL    HW2 2088   0.744   1.292   5.100
  586SOL     OW 2089   0.672   1.616   3.878
  586SOL    HW1 2090   0.681   1.626   3.779
  586SOL    HW2 2091   0.632   1.527   3.899
  587SOL     OW 2092   1.650   1.720   5.118
  587SOL    HW1 2093   1.703   1.730   5.034
  587SOL    HW2 2094   1.623   1.810   5.152
  588SOL     OW 2095   1.841   0.175   4.687
  588SOL    HW1 2096   1.880   0.090   4.651
  588SOL    HW2 2097   1.743   0.177   4.668
  589SOL     OW 2098   0.263   0.326   4.444
  589SOL    HW1 2099   0.184   0.377   4.410
  589SOL    HW2 2100   0.254   0.311   4.542
  590SOL     OW 2101   1.194   1.612   3.755
  590SOL    HW1 2102   1.200   1.519   3.792
  590SOL    HW2 2103   1.135   1.612   3.675
  591SOL     OW 2104   0.822   1.002   5.096
  591SOL    HW1 2105   0.862   1.001   5.004
  591SOL    HW2 2106   0.832   1.094   5.136
  592SOL     OW 2107   0.916   0.910   4.015
  592SOL    HW1 2108   0.979   0.948   3.947
  592SOL    HW2 2109   0.956   0.827   4.054
  593SOL     OW 2110   1.504   1.607   3.768
  593SOL    HW1 2111   1.412   1.644   3.775
  593SOL    HW2 2112   1.542   1.627   3.678
  594SOL     OW 2113   0.372   1.288   5.214
  594SOL    HW1 2114   0.359   1.381   5.180
  594SOL    HW2 2115   0.288   1.236   5.201
  595SOL     OW 2116   1.614   1.292   5.013
  595SOL    HW1 2117   1.674   1.295   5.093
  595SOL    HW2 2118   1.539   1.356   5.026
  596SOL     OW 2119   1.039   1.098   4.420
  596SOL    HW1 2120   0.969   1.051   4.474
  596SOL    HW2 2121   1.098   1.030   4.377
  597SOL     OW 2122   1.014   0.236   4.695
  597SOL    HW1 2123   1.006   0.200   4.602
  597SOL    HW2 2124   1.012   0.160   4.760
  598SOL     OW 2125   0.590   1.487   4.215
  598SOL    HW1 2126   0.632   1.429   4.145
  598SOL    HW2 2127   0.546   1.566   4.171
  599SOL     OW 2128   1.709   0.385   5.105
  599SOL    HW1 2129   1.782   0.454   5.109
  599SOL    HW2 2130   1.737   0.310   5.046
  600SOL     OW 2131   0.255   1.348   4.014
  600SOL    HW1 2132   0.159   1.349   3.987
  600SOL    HW2 2133   0.267   1.401   4.098
  601SOL     OW 2134   0.105   1.013   5.450
  601SOL    HW1 2135   0.028   0.980   5.504
  601SOL    HW2 2136   0.190   0.983   5.492
  602SOL     OW 2137   0.672   0.203   5.213
  602SOL    HW1 2138   0.762   0.187   5.173
  602SOL    HW2 2139   0.680   0.208   5.312
  603SOL     OW 2140   0.075   0.345   3.757
  603SOL    HW1 2141  -0.017   0.317   3.728
  603SOL    HW2 2142   0.106   0.422   3.701
  604SOL     OW 2143   1.440   0.856   5.122
  604SOL    HW1 2144   1.383   0.908   5.059
  604SOL    HW2 2145   1.536   0.868   5.098
  605SOL     OW 2146   0.072   0.166   4.042
  605SOL    HW1 2147   0.055   0.249   3.988
  605SOL    HW2 2148   0.162   0.129   4.020
  606SOL     OW 2149   1.183   1.335   3.843
  606SOL    HW1 2150   1.084   1.324   3.845
  606SOL    HW2 2151   1.217   1.350   3.936
  607SOL     OW 2152   0.613   0.842   5.155
  607SOL    HW1 2153   0.669   0.923   5.138
  607SOL    HW2 2154   0.672   0.762   5.158
  608SOL     OW 2155   1.493   1.767   4.683
  608SOL    HW1 2156   1.526   1.831   4.614
  608SOL    HW2 2157   1.559   1.761   4.758
  609SOL     OW 2158   0.716   0.565   5.432
  609SOL    HW1 2159   0.735   0.630   5.506
  609SOL    HW2 2160   0.776   0.485   5.441
  610SOL     OW 2161   1.450   1.220   5.357
  610SOL    HW1 2162   1.441   1.210   5.456
  610SOL    HW2 2163   1.546   1.213   5.331
  611SOL     OW 2164   0.390   1.741   5.284
  611SOL    HW1 2165   0.299   1.782   5.282
  611SOL    HW2 2166   0.383   1.647   5.316
  612SOL     OW 2167   1.674   0.883   4.978
  612SOL    HW1 2168   1.647   0.794   4.941
  612SOL    HW2 2169   1.675   0.951   4.905
  613SOL     OW 2170   1.225   0.325   4.173
  613SOL    HW1 2171   1.290   0.251   4.162
  613SOL    HW2 2172   1.245   0.375   4.257
  614SOL     OW 2173   0.594   0.745   4.376
  614SOL    HW1 2174   0.644   0.830   4.357
  614SOL    HW2 2175   0.506   0.747   4.328
  615SOL     OW 2176   1.777   0.342   5.366
  615SOL    HW1 2177   1.760   0.373   5.272
  615SOL    HW2 2178   1.693   0.305   5.404
  616SOL     OW 2179   1.730   0.934   5.241
  616SOL    HW1 2180   1.768   1.025   5.256
  616SOL    HW2 2181   1.722   0.917   5.142
  617SOL     OW 2182   0.859   1.374   3.740
  617SOL    HW1 2183   0.813   1.389   3.828
  617SOL    HW2 2184   0.903   1.459   3.710
  618SOL     OW 2185   0.661   1.790   4.677
  618SOL    HW1 2186   0.615   1.878   4.664
  618SOL    HW2 2187   0.760   1.802   4.670
  619SOL     OW 2188   0.859   0.956   4.585
  619SOL    HW1 2189   0.913   0.887   4.633
  619SOL    HW2 2190   0.827   1.025   4.651
  620SOL     OW 2191   1.083   0.984   3.811
  620SOL    HW1 2192   1.060   1.037   3.729
  620SOL    HW2 2193   1.164   0.928   3.792
  621SOL     OW 2194   1.861   1.569   4.575
  621SOL    HW1 2195   1.790   1.557   4.505
  621SOL    HW2 2196   1.862   1.490   4.635
  622SOL     OW 2197   0.221   1.314   5.568
  622SOL    HW1 2198   0.156   1.241   5.547
  622SOL    HW2 2199   0.225   1.328   5.666
  623SOL     OW 2200   0.079   1.240   4.377
  623SOL    HW1 2201   0.078   1.193   4.465
  623SOL    HW2 2202   0.161   1.212   4.326
  624SOL     OW 2203   0.672   1.391   5.348
  624SOL    HW1 2204   0.594   1.341   5.386
  624SOL    HW2 2205   0.669   1.486   5.379
  625SOL     OW 2206   1.824   0.192   4.951
  625SOL    HW1 2207   1.820   0.102   4.995
  625SOL    HW2 2208   1.827   0.181   4.852
  626SOL     OW 2209   0.428   0.424   4.244
  626SOL    HW1 2210   0.458   0.352   4.182
  626SOL    HW2 2211   0.389   0.384   4.327
  627SOL     OW 2212   1.705   1.487   4.828
  627SOL    HW1 2213   1.612   1.462   4.801
  627SOL    HW2 2214   1.731   1.437   4.910
  628SOL     OW 2215   0.317   0.547   5.004
  628SOL    HW1 2216   0.355   0.488   5.076
  628SOL    HW2 2217   0.357   0.521   4.916
  629SOL     OW 2218   0.812   1.586   4.411
  629SOL    HW1 2219   0.844   1.596   4.317
  629SOL    HW2 2220   0.733   1.524   4.413
  630SOL     OW 2221   1.424   0.214   4.836
  630SOL    HW1 2222   1.476   0.149   4.891
  630SOL    HW2 2223   1.375   0.277   4.897
  631SOL     OW 2224   1.001   0.034   4.878
  631SOL    HW1 2225   0.938  -0.038   4.847
  631SOL    HW2 2226   1.094  -0.002   4.878
  632SOL     OW 2227   0.770   1.330   4.025
  632SOL    HW1 2228   0.724   1.243   4.042
  632SOL    HW2 2229   0.861   1.327   4.066
  633SOL     OW 2230   0.618   1.567   5.008
  633SOL    HW1 2231   0.613   1.649   5.065
  633SOL    HW2 2232   0.707   1.564   4.963
  634SOL     OW 2233   1.352   0.052   3.892
  634SOL    HW1 2234   1.387   0.011   3.808
  634SOL    HW2 2235   1.262   0.014   3.912
  635SOL     OW 2236   1.300   0.453   4.415
  635SOL    HW1 2237   1.241   0.533   4.419
  635SOL    HW2 2238   1.315   0.418   4.508
  636SOL     OW 2239   1.593   0.221   4.606
  636SOL    HW1 2240   1.509   0.220   4.660
  636SOL    HW2 2241   1.595   0.304   4.550
  637SOL     OW 2242   0.039   1.077   4.024
  637SOL    HW1 2243   0.138   1.066   4.015
  637SOL    HW2 2244  -0.001   0.991   4.056
  638SOL     OW 2245   0.875   1.646   4.061
  638SOL    HW1 2246   0.798   1.611   4.007
  638SOL    HW2 2247   0.843   1.717   4.123
  639SOL     OW 2248   0.230   0.628   5.699
  639SOL    HW1 2249   0.137   0.626   5.736
  639SOL    HW2 2250   0.231   0.589   5.607
  640SOL     OW 2251   0.225   0.275   6.582
  640SOL    HW1 2252   0.260   0.258   6.674
  640SOL    HW2 2253   0.137   0.230   6.570
  641SOL     OW 2254   0.019   0.368   6.233
  641SOL    HW1 2255  -0.063   0.411   6.272
  641SOL    HW2 2256  -0.009   0.295   6.170
  642SOL     OW 2257   0.569   1.275   6.751
  642SOL    HW1 2258   0.476   1.268   6.714
  642SOL    HW2 2259   0.580   1.364   6.795
  643SOL     OW 2260   1.555   1.511   6.289
  643SOL    HW1 2261   1.498   1.495   6.370
  643SOL    HW2 2262   1.496   1.521   6.209
  644SOL     OW 2263   1.135   0.703   6.303
  644SOL    HW1 2264   1.192   0.781   6.278
  644SOL    HW2 2265   1.075   0.729   6.379
  645SOL     OW 2266   1.755   0.607   5.817
  645SOL    HW1 2267   1.743   0.594   5.718
  645SOL    HW2 2268   1.725   0.526   5.866
  646SOL     OW 2269   0.768   1.144   6.609
  646SOL    HW1 2270   0.690   1.161   6.669
  646SOL    HW2 2271   0.802   1.231   6.573
  647SOL     OW 2272   0.850   0.798   7.409
  647SOL    HW1 2273   0.846   0.874   7.474
  647SOL    HW2 2274   0.872   0.834   7.318
  648SOL     OW 2275   0.685   1.012   6.251
  648SOL    HW1 2276   0.754   0.996   6.321
  648SOL    HW2 2277   0.612   1.069   6.289
  649SOL     OW 2278   0.686   1.161   7.389
  649SOL    HW1 2279   0.746   1.240   7.403
  649SOL    HW2 2280   0.600   1.192   7.348
  650SOL     OW 2281   0.335   1.435   6.647
  650SOL    HW1 2282   0.257   1.404   6.594
  650SOL    HW2 2283   0.393   1.493   6.590
  651SOL     OW 2284   1.460   1.505   6.925
  651SOL    HW1 2285   1.484   1.599   6.951
  651SOL    HW2 2286   1.444   1.451   7.007
  652SOL     OW 2287   0.438   0.392   7.085
  652SOL    HW1 2288   0.520   0.336   7.094
  652SOL    HW2 2289   0.357   0.334   7.089
  653SOL     OW 2290   1.603   0.447   6.323
  653SOL    HW1 2291   1.529   0.493   6.273
  653SOL    HW2 2292   1.654   0.515   6.376
  654SOL     OW 2293   0.231   1.713   6.069
  654SOL    HW1 2294   0.265   1.790   6.123
  654SOL    HW2 2295   0.275   1.713   5.979
  655SOL     OW 2296   1.127   1.341   7.276
  655SOL    HW1 2297   1.174   1.341   7.364
  655SOL    HW2 2298   1.079   1.254   7.265
  656SOL     OW 2299   0.230   1.434   6.124
  656SOL    HW1 2300   0.204   1.530   6.124
  656SOL    HW2 2301   0.159   1.380   6.169
  657SOL     OW 2302   0.240   1.091   6.472
  657SOL    HW1 2303   0.254   1.007   6.524
  657SOL    HW2 2304   0.185   1.155   6.527
  658SOL     OW 2305   0.620   1.786   7.025
  658SOL    HW1 2306   0.528   1.769   7.060
  658SOL    HW2 2307   0.648   1.878   7.051
  659SOL     OW 2308   0.606   0.964   5.709
  659SOL    HW1 2309   0.613   1.048   5.655
  659SOL    HW2 2310   0.652   0.977   5.797
  660SOL     OW 2311   1.594   0.114   7.066
  660SOL    HW1 2312   1.576   0.181   6.994
  660SOL    HW2 2313   1.591   0.160   7.155
  661SOL     OW 2314   0.122   0.643   6.149
  661SOL    HW1 2315   0.077   0.555   6.166
  661SOL    HW2 2316   0.121   0.697   6.233
  662SOL     OW 2317   1.842   1.767   5.945
  662SOL    HW1 2318   1.896   1.738   6.025
  662SOL    HW2 2319   1.872   1.857   5.916
  663SOL     OW 2320   0.027   1.596   5.703
  663SOL    HW1 2321   0.008   1.500   5.724
  663SOL    HW2 2322  -0.006   1.654   5.778
  664SOL     OW 2323   1.689   0.922   6.198
  664SOL    HW1 2324   1.784   0.893   6.206
  664SOL    HW2 2325   1.681   0.987   6.123
  665SOL     OW 2326   1.641   1.108   6.018
  665SOL    HW1 2327   1.727   1.110   5.966
  665SOL    HW2 2328   1.655   1.155   6.106
  666SOL     OW 2329   0.113   0.737   7.183
  666SOL    HW1 2330   0.201   0.724   7.228
  666SOL    HW2 2331   0.100   0.834   7.161
  667SOL     OW 2332   0.613   1.365   6.312
  667SOL    HW1 2333   0.564   1.278   6.321
  667SOL    HW2 2334   0.590   1.408   6.225
  668SOL     OW 2335   1.293   1.228   7.009
  668SOL    HW1 2336   1.330   1.155   6.951
  668SOL    HW2 2337   1.345   1.233   7.094
  669SOL     OW 2338   0.809   0.004   6.088
  669SOL    HW1 2339   0.849   0.095   6.079
  669SOL    HW2 2340   0.709   0.012   6.094
  670SOL     OW 2341   0.197   0.976   6.850
  670SOL    HW1 2342   0.286   0.931   6.836
  670SOL    HW2 2343   0.124   0.911   6.831
  671SOL     OW 2344   1.525   0.999   5.776
  671SOL    HW1 2345   1.462   0.923   5.789
  671SOL    HW2 2346   1.573   1.017   5.862
  672SOL     OW 2347   1.187   1.792   7.202
  672SOL    HW1 2348   1.211   1.852   7.126
  672SOL    HW2 2349   1.194   1.697   7.172
  673SOL     OW 2350   0.317   0.251   7.387
  673SOL    HW1 2351   0.388   0.322   7.393
  673SOL    HW2 2352   0.229   0.290   7.415
  674SOL     OW 2353   1.466   1.417   6.539
  674SOL    HW1 2354   1.407   1.423   6.619
  674SOL    HW2 2355   1.451   1.329   6.493
  675SOL     OW 2356   1.667   1.714   6.158
  675SOL    HW1 2357   1.626   1.691   6.070
  675SOL    HW2 2358   1.649   1.640   6.223
  676SOL     OW 2359   0.598   0.729   5.856
  676SOL    HW1 2360   0.622   0.798   5.788
  676SOL    HW2 2361   0.520   0.762   5.910
  677SOL     OW 2362   1.281   0.345   6.530
  677SOL    HW1 2363   1.195   0.295   6.517
  677SOL    HW2 2364   1.343   0.291   6.586
  678SOL     OW 2365   1.576   1.662   5.893
  678SOL    HW1 2366   1.665   1.708   5.896
  678SOL    HW2 2367   1.555   1.638   5.798
  679SOL     OW 2368   0.807   0.605   7.051
  679SOL    HW1 2369   0.760   0.602   7.140
  679SOL    HW2 2370   0.756   0.550   6.985
  680SOL     OW 2371   1.394   0.469   7.260
  680SOL    HW1 2372   1.374   0.512   7.348
  680SOL    HW2 2373   1.472   0.407   7.269
  681SOL     OW 2374   0.973   0.890   7.158
  681SOL    HW1 2375   1.019   0.806   7.129
  681SOL    HW2 2376   0.917   0.924   7.083
  682SOL     OW 2377   0.991   0.410   6.828
  682SOL    HW1 2378   0.914   0.444   6.882
  682SOL    HW2 2379   0.957   0.359   6.749
  683SOL     OW 2380   1.041   0.701   6.015
  683SOL    HW1 2381   1.067   0.697   6.111
  683SOL    HW2 2382   0.956   0.650   6.001
  684SOL     OW 2383   0.076   0.811   6.375
  684SOL    HW1 2384   0.175   0.799   6.384
  684SOL    HW2 2385   0.052   0.906   6.396
  685SOL     OW 2386   0.130   1.821   7.157
  685SOL    HW1 2387   0.120   1.806   7.256
  685SOL    HW2 2388   0.044   1.857   7.121
  686SOL     OW 2389   0.865   0.348   5.781
  686SOL    HW1 2390   0.924   0.411   5.732
  686SOL    HW2 2391   0.884   0.254   5.752
  687SOL     OW 2392   1.719   0.585   7.417
  687SOL    HW1 2393   1.693   0.674   7.381
  687SOL    HW2 2394   1.717   0.517   7.344
  688SOL     OW 2395   1.362   1.144   6.131
  688SOL    HW1 2396   1.445   1.115   6.083
  688SOL    HW2 2397   1.313   1.211   6.075
  689SOL     OW 2398   0.550   0.196   6.471
  689SOL    HW1 2399   0.545   0.191   6.571
  689SOL    HW2 2400   0.552   0.292   6.442
  690SOL     OW 2401   1.008   1.456   6.063
  690SOL    HW1 2402   0.962   1.528   6.011
  690SOL    HW2 2403   1.004   1.476   6.161
  691SOL     OW 2404   0.351   1.801   6.439
  691SOL    HW1 2405   0.401   1.715   6.445
  691SOL    HW2 2406   0.416   1.878   6.436
  692SOL     OW 2407   1.795   1.066   6.459
  692SOL    HW1 2408   1.733   1.051   6.383
  692SOL    HW2 2409   1.743   1.077   6.544
  693SOL     OW 2410   1.227   1.550   7.092
  693SOL    HW1 2411   1.233   1.473   7.156
  693SOL    HW2 2412   1.175   1.524   7.012
  694SOL     OW 2413   0.321   0.943   5.828
  694SOL    HW1 2414   0.403   0.982   5.786
  694SOL    HW2 2415   0.294   0.861   5.779
  695SOL     OW 2416   1.458   0.735   6.314
  695SOL    HW1 2417   1.453   0.670   6.389
  695SOL    HW2 2418   1.538   0.794   6.327
  696SOL     OW 2419   0.461   1.266   7.313
  696SOL    HW1 2420   0.411   1.267   7.227
  696SOL    HW2 2421   0.398   1.248   7.389
  697SOL     OW 2422   1.111   1.776   5.823
  697SOL    HW1 2423   1.051   1.714   5.873
  697SOL    HW2 2424   1.142   1.732   5.738
  698SOL     OW 2425   0.202   0.285   7.084
  698SOL    HW1 2426   0.122   0.345   7.071
  698SOL    HW2 2427   0.192   0.236   7.170
  699SOL     OW 2428   1.632   1.377   5.667
  699SOL    HW1 2429   1.600   1.471   5.657
  699SOL    HW2 2430   1.556   1.314   5.655
  700SOL     OW 2431   0.464   1.743   5.909
  700SOL    HW1 2432   0.497   1.782   5.995
  700SOL    HW2 2433   0.540   1.736   5.844
  701SOL     OW 2434   1.400   0.107   6.012
  701SOL    HW1 2435   1.376   0.070   5.922
  701SOL    HW2 2436   1.499   0.123   6.016
  702SOL     OW 2437   0.249   1.785   6.827
  702SOL    HW1 2438   0.306   1.720   6.877
  702SOL    HW2 2439   0.233   1.752   6.734
  703SOL     OW 2440   0.940   1.698   6.490
  703SOL    HW1 2441   1.020   1.641   6.511
  703SOL    HW2 2442   0.891   1.658   6.413
  704SOL     OW 2443   0.382   0.700   6.066
  704SOL    HW1 2444   0.427   0.610   6.063
  704SOL    HW2 2445   0.288   0.689   6.099
  705SOL     OW 2446   1.547   0.222   7.315
  705SOL    HW1 2447   1.542   0.259   7.407
  705SOL    HW2 2448   1.475   0.153   7.303
  706SOL     OW 2449   0.614   0.122   5.703
  706SOL    HW1 2450   0.712   0.100   5.710
  706SOL    HW2 2451   0.583   0.105   5.610
  707SOL     OW 2452   0.781   0.264   7.335
  707SOL    HW1 2453   0.848   0.203   7.378
  707SOL    HW2 2454   0.708   0.283   7.400
  708SOL     OW 2455   0.888   1.514   6.781
  708SOL    HW1 2456   0.865   1.489   6.687
  708SOL    HW2 2457   0.949   1.445   6.820
  709SOL     OW 2458   1.351   0.590   7.019
  709SOL    HW1 2459   1.379   0.547   7.104
  709SOL    HW2 2460   1.376   0.686   7.020
  710SOL     OW 2461   0.803   1.402   6.510
  710SOL    HW1 2462   0.893   1.416   6.468
  710SOL    HW2 2463   0.732   1.404   6.439
  711SOL     OW 2464   0.922   0.503   6.485
  711SOL    HW1 2465   0.897   0.494   6.389
  711SOL    HW2 2466   0.970   0.421   6.516
  712SOL     OW 2467   0.539   0.064   6.098
  712SOL    HW1 2468   0.458   0.065   6.156
  712SOL    HW2 2469   0.542   0.147   6.043
  713SOL     OW 2470   1.434   1.188   5.627
  713SOL    HW1 2471   1.466   1.112   5.684
  713SOL    HW2 2472   1.342   1.215   5.657
  714SOL     OW 2473   0.297   0.035   5.757
  714SOL    HW1 2474   0.346   0.119   5.736
  714SOL    HW2 2475   0.359  -0.030   5.802
  715SOL     OW 2476   0.935   0.236   6.066
  715SOL    HW1 2477   0.887   0.277   5.988
  715SOL    HW2 2478   1.034   0.234   6.047
  716SOL     OW 2479   1.076   0.683   7.050
  716SOL    HW1 2480   0.996   0.622   7.053
  716SOL    HW2 2481   1.157   0.630   7.026
  717SOL     OW 2482   1.227   1.570   6.379
  717SOL    HW1 2483   1.248   1.644   6.314
  717SOL    HW2 2484   1.295   1.570   6.452
  718SOL     OW 2485   0.459   1.152   6.327
  718SOL    HW1 2486   0.388   1.125   6.392
  718SOL    HW2 2487   0.433   1.124   6.234
  719SOL     OW 2488   1.271   1.797   6.177
  719SOL    HW1 2489   1.315   1.861   6.113
  719SOL    HW2 2490   1.221   1.849   6.247
  720SOL     OW 2491   1.032   0.549   5.602
  720SOL    HW1 2492   0.991   0.631   5.563
  720SOL    HW2 2493   1.096   0.575   5.675
  721SOL     OW 2494   0.078   0.556   6.972
  721SOL    HW1 2495   0.170   0.555   6.931
  721SOL    HW2 2496   0.072   0.630   7.039
  722SOL     OW 2497   0.561   0.222   6.733
  722SOL    HW1 2498   0.599   0.138   6.770
  722SOL    HW2 2499   0.473   0.241   6.777
  723SOL     OW 2500   0.866   0.454   6.228
  723SOL    HW1 2501   0.834   0.526   6.166
  723SOL    HW2 2502   0.890   0.373   6.175
  724SOL     OW 2503   1.017   0.039   6.339
  724SOL    HW1 2504   0.945   0.044   6.270
  724SOL    HW2 2505   0.993  -0.030   6.408
  725SOL     OW 2506   1.429   1.173   6.453
  725SOL    HW1 2507   1.374   1.089   6.446
  725SOL    HW2 2508   1.455   1.202   6.361
  726SOL     OW 2509   1.466   0.590   6.578
  726SOL    HW1 2510   1.436   0.495   6.585
  726SOL    HW2 2511   1.539   0.606   6.644
  727SOL     OW 2512   1.857   0.833   5.963
  727SOL    HW1 2513   1.899   0.769   6.027
  727SOL    HW2 2514   1.819   0.782   5.885
  728SOL     OW 2515   0.488   1.385   5.760
  728SOL    HW1 2516   0.401   1.370   5.807
  728SOL    HW2 2517   0.471   1.411   5.665
  729SOL     OW 2518   1.664   1.280   6.243
  729SOL    HW1 2519   1.763   1.288   6.257
  729SOL    HW2 2520   1.619   1.364   6.274
  730SOL     OW 2521   1.390   0.575   5.664
  730SOL    HW1 2522   1.336   0.554   5.745
  730SOL    HW2 2523   1.481   0.534   5.673
  731SOL     OW 2524   0.527   0.256   5.914
  731SOL    HW1 2525   0.554   0.197   5.839
  731SOL    HW2 2526   0.527   0.351   5.883
  732SOL     OW 2527   1.754   1.223   7.174
  732SOL    HW1 2528   1.845   1.184   7.161
  732SOL    HW2 2529   1.762   1.319   7.198
  733SOL     OW 2530   1.064   1.347   6.926
  733SOL    HW1 2531   0.984   1.324   6.981
  733SOL    HW2 2532   1.147   1.321   6.975
  734SOL     OW 2533   1.592   1.629   7.211
  734SOL    HW1 2534   1.619   1.663   7.121
  734SOL    HW2 2535   1.671   1.591   7.257
  735SOL     OW 2536   1.111   1.195   6.686
  735SOL    HW1 2537   1.071   1.239   6.767
  735SOL    HW2 2538   1.070   1.232   6.603
  736SOL     OW 2539   1.638   1.099   6.665
  736SOL    HW1 2540   1.643   1.180   6.724
  736SOL    HW2 2541   1.552   1.101   6.614
  737SOL     OW 2542   0.915   0.089   6.988
  737SOL    HW1 2543   0.940   0.069   6.893
  737SOL    HW2 2544   0.987   0.145   7.030
  738SOL     OW 2545   0.980   1.116   7.305
  738SOL    HW1 2546   0.881   1.122   7.315
  738SOL    HW2 2547   1.003   1.036   7.249
  739SOL     OW 2548   0.705   1.050   5.954
  739SOL    HW1 2549   0.691   1.057   6.053
  739SOL    HW2 2550   0.789   0.999   5.936
  740SOL     OW 2551   0.410   0.813   6.837
  740SOL    HW1 2552   0.496   0.825   6.887
  740SOL    HW2 2553   0.368   0.726   6.864
  741SOL     OW 2554   1.274   0.386   6.848
  741SOL    HW1 2555   1.295   0.460   6.912
  741SOL    HW2 2556   1.185   0.403   6.805
  742SOL     OW 2557   0.064   1.564   6.917
  742SOL    HW1 2558   0.018   1.646   6.883
  742SOL    HW2 2559   0.162   1.583   6.926
  743SOL     OW 2560   0.367   1.100   6.087
  743SOL    HW1 2561   0.360   1.183   6.031
  743SOL    HW2 2562   0.371   1.020   6.027
  744SOL     OW 2563   0.566   0.537   6.451
  744SOL    HW1 2564   0.578   0.603   6.377
  744SOL    HW2 2565   0.612   0.571   6.534
  745SOL     OW 2566   1.252   1.348   5.974
  745SOL    HW1 2567   1.302   1.425   6.014
  745SOL    HW2 2568   1.157   1.350   6.006
  746SOL     OW 2569   1.272   1.445   6.728
  746SOL    HW1 2570   1.319   1.458   6.815
  746SOL    HW2 2571   1.206   1.371   6.737
  747SOL     OW 2572   1.582   0.639   6.058
  747SOL    HW1 2573   1.551   0.700   6.131
  747SOL    HW2 2574   1.632   0.691   5.989
  748SOL     OW 2575   0.354   1.510   6.915
  748SOL    HW1 2576   0.333   1.466   6.828
  748SOL    HW2 2577   0.451   1.536   6.918
  749SOL     OW 2578   0.402   0.751   7.184
  749SOL    HW1 2579   0.470   0.806   7.137
  749SOL    HW2 2580   0.442   0.663   7.211
  750SOL     OW 2581   1.587   0.779   7.256
  750SOL    HW1 2582   1.495   0.817   7.251
  750SOL    HW2 2583   1.647   0.826   7.191
  751SOL     OW 2584   1.013   0.105   7.356
  751SOL    HW1 2585   1.019   0.190   7.304
  751SOL    HW2 2586   1.045   0.029   7.299
  752SOL     OW 2587   0.504   0.050   7.326
  752SOL    HW1 2588   0.462  -0.007   7.256
  752SOL    HW2 2589   0.438   0.119   7.358
  753SOL     OW 2590   0.573   0.870   6.615
  753SOL    HW1 2591   0.617   0.959   6.606
  753SOL    HW2 2592   0.510   0.870   6.692
  754SOL     OW 2593   1.360   0.862   6.631
  754SOL    HW1 2594   1.285   0.862   6.565
  754SOL    HW2 2595   1.397   0.770   6.640
  755SOL     OW 2596   1.209   0.525   5.861
  755SOL    HW1 2597   1.222   0.441   5.915
  755SOL    HW2 2598   1.180   0.599   5.921
  756SOL     OW 2599   0.307   0.213   6.817
  756SOL    HW1 2600   0.284   0.250   6.907
  756SOL    HW2 2601   0.277   0.118   6.811
  757SOL     OW 2602   0.037   1.310   6.868
  757SOL    HW1 2603   0.090   1.261   6.936
  757SOL    HW2 2604   0.059   1.408   6.873
  758SOL     OW 2605   0.732   0.634   6.650
  758SOL    HW1 2606   0.791   0.608   6.574
  758SOL    HW2 2607   0.704   0.730   6.639
  759SOL     OW 2608   1.728   0.935   7.440
  759SOL    HW1 2609   1.682   0.928   7.351
  759SOL    HW2 2610   1.666   0.979   7.506
  760SOL     OW 2611   0.307   0.063   6.204
  760SOL    HW1 2612   0.296   0.157   6.237
  760SOL    HW2 2613   0.302   0.000   6.281
  761SOL     OW 2614   1.622   0.367   5.960
  761SOL    HW1 2615   1.624   0.291   6.024
  761SOL    HW2 2616   1.574   0.444   6.000
  762SOL     OW 2617   1.023   0.766   6.552
  762SOL    HW1 2618   1.038   0.787   6.648
  762SOL    HW2 2619   0.993   0.671   6.543
  763SOL     OW 2620   0.980   1.573   7.286
  763SOL    HW1 2621   0.960   1.617   7.198
  763SOL    HW2 2622   1.019   1.482   7.270
  764SOL     OW 2623   1.859   1.518   7.191
  764SOL    HW1 2624   1.873   1.545   7.096
  764SOL    HW2 2625   1.942   1.540   7.244
  765SOL     OW 2626   0.350   0.898   7.390
  765SOL    HW1 2627   0.426   0.942   7.438
  765SOL    HW2 2628   0.385   0.851   7.308
  766SOL     OW 2629   1.540   0.274   5.711
  766SOL    HW1 2630   1.479   0.199   5.734
  766SOL    HW2 2631   1.562   0.326   5.794
  767SOL     OW 2632   1.303   0.838   5.628
  767SOL    HW1 2633   1.337   0.745   5.643
  767SOL    HW2 2634   1.321   0.865   5.533
  768SOL     OW 2635   1.068   1.333   6.435
  768SOL    HW1 2636   1.075   1.249   6.380
  768SOL    HW2 2637   1.130   1.402   6.399
  769SOL     OW 2638   0.319   0.810   6.535
  769SOL    HW1 2639   0.412   0.846   6.540
  769SOL    HW2 2640   0.313   0.725   6.587
  770SOL     OW 2641   0.339   0.509   6.592
  770SOL    HW1 2642   0.287   0.426   6.575
  770SOL    HW2 2643   0.416   0.514   6.528
  771SOL     OW 2644   1.138   0.380   7.264
  771SOL    HW1 2645   1.093   0.443   7.328
  771SOL    HW2 2646   1.231   0.411   7.247
  772SOL     OW 2647   1.160   0.207   7.063
  772SOL    HW1 2648   1.160   0.271   7.140
  772SOL    HW2 2649   1.188   0.255   6.980
  773SOL     OW 2650   0.008   1.326   5.786
  773SOL    HW1 2651  -0.085   1.347   5.755
  773SOL    HW2 2652   0.018   1.227   5.799
  774SOL     OW 2653   0.088   1.801   6.513
  774SOL    HW1 2654   0.046   1.715   6.486
  774SOL    HW2 2655   0.182   1.804   6.479
  775SOL     OW 2656   0.504   1.568   6.496
  775SOL    HW1 2657   0.570   1.642   6.505
  775SOL    HW2 2658   0.548   1.489   6.454
  776SOL     OW 2659   1.002   0.796   6.824
  776SOL    HW1 2660   1.043   0.764   6.910
  776SOL    HW2 2661   0.906   0.769   6.821
  777SOL     OW 2662   0.040   0.544   6.700
  777SOL    HW1 2663   0.125   0.511   6.659
  777SOL    HW2 2664   0.053   0.559   6.798
  778SOL     OW 2665   0.189   0.520   7.308
  778SOL    HW1 2666   0.248   0.480   7.238
  778SOL    HW2 2667   0.131   0.591   7.267
  779SOL     OW 2668   1.369   0.950   7.246
  779SOL    HW1 2669   1.408   1.039   7.266
  779SOL    HW2 2670   1.379   0.930   7.149
  780SOL     OW 2671   0.815   0.572   5.911
  780SOL    HW1 2672   0.822   0.483   5.865
  780SOL    HW2 2673   0.721   0.606   5.903
  781SOL     OW 2674   1.657   0.604   6.792
  781SOL    HW1 2675   1.619   0.535   6.854
  781SOL    HW2 2676   1.739   0.568   6.748
  782SOL     OW 2677   0.252   1.564   7.330
  782SOL    HW1 2678   0.222   1.621   7.406
  782SOL    HW2 2679   0.245   1.467   7.356
  783SOL     OW 2680   0.671   0.464   6.855
  783SOL    HW1 2681   0.637   0.375   6.825
  783SOL    HW2 2682   0.697   0.518   6.775
  784SOL     OW 2683   0.930   1.678   7.051
  784SOL    HW1 2684   0.906   1.660   6.956
  784SOL    HW2 2685   0.960   1.772   7.061
  785SOL     OW 2686   0.473   0.500   5.777
  785SOL    HW1 2687   0.534   0.580   5.781
  785SOL    HW2 2688   0.378   0.531   5.784
  786SOL     OW 2689   0.159   1.137   7.052
  786SOL    HW1 2690   0.181   1.076   7.128
  786SOL    HW2 2691   0.169   1.088   6.966
  787SOL     OW 2692   1.347   1.059   6.820
  787SOL    HW1 2693   1.371   0.996   6.746
  787SOL    HW2 2694   1.257   1.099   6.802
  788SOL     OW 2695   1.302   0.855   5.895
  788SOL    HW1 2696   1.216   0.824   5.937
  788SOL    HW2 2697   1.298   0.841   5.796
  789SOL     OW 2698   1.759   1.747   6.740
  789SOL    HW1 2699   1.820   1.777   6.667
  789SOL    HW2 2700   1.721   1.658   6.718
  790SOL     OW 2701   1.252   1.731   6.714
  790SOL    HW1 2702   1.336   1.736   6.660
  790SOL    HW2 2703   1.229   1.635   6.732
  791SOL     OW 2704   0.083   1.258   6.608
  791SOL    HW1 2705   0.078   1.257   6.708
  791SOL    HW2 2706   0.000   1.217   6.570
  792SOL     OW 2707   0.688   1.662   7.302
  792SOL    HW1 2708   0.632   1.743   7.311
  792SOL    HW2 2709   0.740   1.666   7.216
  793SOL     OW 2710   1.726   0.135   6.109
  793SOL    HW1 2711   1.799   0.118   6.042
  793SOL    HW2 2712   1.695   0.048   6.147
  794SOL     OW 2713   1.388   1.573   6.063
  794SOL    HW1 2714   1.455   1.585   5.989
  794SOL    HW2 2715   1.348   1.662   6.086
  795SOL     OW 2716   0.130   1.794   7.437
  795SOL    HW1 2717   0.089   1.720   7.490
  795SOL    HW2 2718   0.194   1.845   7.495
  796SOL     OW 2719   1.280   0.927   6.258
  796SOL    HW1 2720   1.340   0.846   6.260
  796SOL    HW2 2721   1.320   0.996   6.198
  797SOL     OW 2722   0.830   1.273   7.008
  797SOL    HW1 2723   0.825   1.306   7.103
  797SOL    HW2 2724   0.744   1.292   6.962
  798SOL     OW 2725   0.672   1.616   5.740
  798SOL    HW1 2726   0.681   1.626   5.641
  798SOL    HW2 2727   0.632   1.527   5.761
  799SOL     OW 2728   1.650   1.720   6.980
  799SOL    HW1 2729   1.703   1.730   6.896
  799SOL    HW2 2730   1.623   1.810   7.014
  800SOL     OW 2731   1.841   0.175   6.549
  800SOL    HW1 2732   1.880   0.090   6.513
  800SOL    HW2 2733   1.743   0.177   6.530
  801SOL     OW 2734   0.263   0.326   6.306
  801SOL    HW1 2735   0.184   0.377   6.272
  801SOL    HW2 2736   0.254   0.311   6.404
  802SOL     OW 2737   1.194   1.612   5.617
  802SOL    HW1 2738   1.200   1.519   5.654
  802SOL    HW2 2739   1.135   1.612   5.537
  803SOL     OW 2740   0.822   1.002   6.958
  803SOL    HW1 2741   0.862   1.001   6.866
  803SOL    HW2 2742   0.832   1.094   6.998
  804SOL     OW 2743   0.916   0.910   5.877
  804SOL    HW1 2744   0.979   0.948   5.809
  804SOL    HW2 2745   0.956   0.827   5.916
  805SOL     OW 2746   1.504   1.607   5.630
  805SOL    HW1 2747   1.412   1.644   5.637
  805SOL    HW2 2748   1.542   1.627   5.540
  806SOL     OW 2749   0.372   1.288   7.076
  806SOL    HW1 2750   0.359   1.381   7.042
  806SOL    HW2 2751   0.288   1.236   7.063
  807SOL     OW 2752   1.614   1.292   6.875
  807SOL    HW1 2753   1.674   1.295   6.955
  807SOL    HW2 2754   1.539   1.356   6.888
  808SOL     OW 2755   1.039   1.098   6.282
  808SOL    HW1 2756   0.969   1.051   6.336
  808SOL    HW2 2757   1.098   1.030   6.239
  809SOL     OW 2758   1.014   0.236   6.557
  809SOL    HW1 2759   1.006   0.200   6.464
  809SOL    HW2 2760   1.012   0.160   6.622
  810SOL     OW 2761   0.590   1.487   6.077
  810SOL    HW1 2762   0.632   1.429   6.007
  810SOL    HW2 2763   0.546   1.566   6.033
  811SOL     OW 2764   1.709   0.385   6.967
  811SOL    HW1 2765   1.782   0.454   6.971
  811SOL    HW2 2766   1.737   0.310   6.908
  812SOL     OW 2767   0.255   1.348   5.876
  812SOL    HW1 2768   0.159   1.349   5.849
  812SOL    HW2 2769   0.267   1.401   5.960
  813SOL     OW 2770   0.105   1.013   7.312
  813SOL    HW1 2771   0.028   0.980   7.366
  813SOL    HW2 2772   0.190   0.983   7.354
  814SOL     OW 2773   0.672   0.203   7.075
  814SOL    HW1 2774   0.762   0.187   7.035
  814SOL    HW2 2775   0.680   0.208   7.174
  815SOL     OW 2776   0.075   0.345   5.619
  815SOL    HW1 2777  -0.017   0.317   5.590
  815SOL    HW2 2778   0.106   0.422   5.563
  816SOL     OW 2779   1.440   0.856   6.984
  816SOL    HW1 2780   1.383   0.908   6.921
  816SOL    HW2 2781   1.536   0.868   6.960
  817SOL     OW 2782   0.072   0.166   5.904
  817SOL    HW1 2783   0.055   0.249   5.850
  817SOL    HW2 2784   0.162   0.129   5.882
  818SOL     OW 2785   1.183   1.335   5.705
  818SOL    HW1 2786   1.084   1.324   5.707
  818SOL    HW2 2787   1.217   1.350   5.798
  819SOL     OW 2788   0.613   0.842   7.017
  819SOL    HW1 2789   0.669   0.923   7.000
  819SOL    HW2 2790   0.672   0.762   7.020
  820SOL     OW 2791   1.493   1.767   6.545
  820SOL    HW1 2792   1.526   1.831   6.476
  820SOL    HW2 2793   1.559   1.761   6.620
  821SOL     OW 2794   0.716   0.565   7.294
  821SOL    HW1 2795   0.735   0.630   7.368
  821SOL    HW2 2796   0.776   0.485   7.303
  822SOL     OW 2797   1.450   1.220   7.219
  822SOL    HW1 2798   1.441   1.210   7.318
  822SOL    HW2 2799   1.546   1.213   7.193
  823SOL     OW 2800   0.390   1.741   7.146
  823SOL    HW1 2801   0.299   1.782   7.144
  823SOL    HW2 2802   0.383   1.647   7.178
  824SOL     OW 2803   1.674   0.883   6.840
  824SOL    HW1 2804   1.647   0.794   6.803
  824SOL    HW2 2805   1.675   0.951   6.767
  825SOL     OW 2806   1.225   0.325   6.035
  825SOL    HW1 2807   1.290   0.251   6.024
  825SOL    HW2 2808   1.245   0.375   6.119
  826SOL     OW 2809   0.594   0.745   6.238
  826SOL    HW1 2810   0.644   0.830   6.219
  826SOL    HW2 2811   0.506   0.747   6.190
  827SOL     OW 2812   1.777   0.342   7.228
  827SOL    HW1 2813   1.760   0.373   7.134
  827SOL    HW2 2814   1.693   0.305   7.266
  828SOL     OW 2815   1.730   0.934   7.103
  828SOL    HW1 2816   1.768   1.025   7.118
  828SOL    HW2 2817   1.722   0.917   7.004
  829SOL     OW 2818   0.859   1.374   5.602
  829SOL    HW1 2819   0.813   1.389   5.690
  829SOL    HW2 2820   0.903   1.459   5.572
  830SOL     OW 2821   0.661   1.790   6.539
  830SOL    HW1 2822   0.615   1.878   6.526
  830SOL    HW2 2823   0.760   1.802   6.532
  831SOL     OW 2824   0.859   0.956   6.447
  831SOL    HW1 2825   0.913   0.887   6.495
  831SOL    HW2 2826   0.827   1.025   6.513
  832SOL     OW 2827   1.083   0.984   5.673
  832SOL    HW1 2828   1.060   1.037   5.591
  832SOL    HW2 2829   1.164   0.928   5.654
  833SOL     OW 2830   1.861   1.569   6.437
  833SOL    HW1 2831   1.790   1.557   6.367
  833SOL    HW2 2832   1.862   1.490   6.497
  834SOL     OW 2833   0.221   1.314   7.430
  834SOL    HW1 2834   0.156   1.241   7.409
  834SOL    HW2 2835   0.225   1.328   7.528
  835SOL     OW 2836   0.079   1.240   6.239
  835SOL    HW1 2837   0.078   1.193   6.327
  835SOL    HW2 2838   0.161   1.212   6.188
  836SOL     OW 2839   0.672   1.391   7.210
  836SOL    HW1 2840   0.594   1.341   7.248
  836SOL    HW2 2841   0.669   1.486   7.241
  837SOL     OW 2842   1.824   0.192   6.813
  837SOL    HW1 2843   1.820   0.102   6.857
  837SOL    HW2 2844   1.827   0.181   6.714
  838SOL     OW 2845   0.428   0.424   6.106
  838SOL    HW1 2846   0.458   0.352   6.044
  838SOL    HW2 2847   0.389   0.384   6.189
  839SOL     OW 2848   1.705   1.487   6.690
  839SOL    HW1 2849   1.612   1.462   6.663
  839SOL    HW2 2850   1.731   1.437   6.772
  840SOL     OW 2851   0.317   0.547   6.866
  840SOL    HW1 2852   0.355   0.488   6.938
  840SOL    HW2 2853   0.357   0.521   6.778
  841SOL     OW 2854   0.812   1.586   6.273
  841SOL    HW1 2855   0.844   1.596   6.179
  841SOL    HW2 2856   0.733   1.524   6.275
  842SOL     OW 2857   1.424   0.214   6.698
  842SOL    HW1 2858   1.476   0.149   6.753
  842SOL    HW2 2859   1.375   0.277   6.759
  843SOL     OW 2860   1.001   0.034   6.740
  843SOL    HW1 2861   0.938  -0.038   6.709
  843SOL    HW2 2862   1.094  -0.002   6.740
  844SOL     OW 2863   0.770   1.330   5.887
  844SOL    HW1 2864   0.724   1.243   5.904
  844SOL    HW2 2865   0.861   1.327   5.928
  845SOL     OW 2866   0.618   1.567   6.870
  845SOL    HW1 2867   0.613   1.649   6.927
  845SOL    HW2 2868   0.707   1.564   6.825
  846SOL     OW 2869   1.352   0.052   5.754
  846SOL    HW1 2870   1.387   0.011   5.670
  846SOL    HW2 2871   1.262   0.014   5.774
  847SOL     OW 2872   1.300   0.453   6.277
  847SOL    HW1 2873   1.241   0.533   6.281
  847SOL    HW2 2874   1.315   0.418   6.370
  848SOL     OW 2875   1.593   0.221   6.468
  848SOL    HW1 2876   1.509   0.220   6.522
  848SOL    HW2 2877   1.595   0.304   6.412
  849SOL     OW 2878   0.039   1.077   5.886
  849SOL    HW1 2879   0.138   1.066   5.877
  849SOL    HW2 2880  -0.001   0.991   5.918
  850SOL     OW 2881   0.875   1.646   5.923
  850SOL    HW1 2882   0.798   1.611   5.869
  850SOL    HW2 2883   0.843   1.717   5.985
  851SOL     OW 2884   0.230   0.628   7.561
  851SOL    HW1 2885   0.137   0.626   7.598
  851SOL    HW2 2886   0.231   0.589   7.469
  852SOL     OW 2887   0.225   0.275   8.444
  852SOL    HW1 2888   0.260   0.258   8.536
  852SOL    HW2 2889   0.137   0.230   8.432
  853SOL     OW 2890   0.019   0.368   8.095
  853SOL    HW1 2891  -0.063   0.411   8.134
  853SOL    HW2 2892  -0.009   0.295   8.032
  854SOL     OW 2893   0.569   1.275   8.613
  854SOL    HW1 2894   0.476   1.268   8.576
  854SOL    HW2 2895   0.580   1.364   8.657
  855SOL     OW 2896   1.555   1.511   8.151
  855SOL    HW1 2897   1.498   1.495   8.232
  855SOL    HW2 2898   1.496   1.521   8.071
  856SOL     OW 2899   1.135   0.703   8.165
  856SOL    HW1 2900   1.192   0.781   8.140
  856SOL    HW2 2901   1.075   0.729   8.241
  857SOL     OW 2902   1.755   0.607   7.679
  857SOL    HW1 2903   1.743   0.594   7.580
  857SOL    HW2 2904   1.725   0.526   7.728
  858SOL     OW 2905   0.768   1.144   8.471
  858SOL    HW1 2906   0.690   1.161   8.531
  858SOL    HW2 2907   0.802   1.231   8.435
  859SOL     OW 2908   0.850   0.798   9.271
  859SOL    HW1 2909   0.846   0.874   9.336
  859SOL    HW2 2910   0.872   0.834   9.180
  860SOL     OW 2911   0.685   1.012   8.113
  860SOL    HW1 2912   0.754   0.996   8.183
  860SOL    HW2 2913   0.612   1.069   8.151
  861SOL     OW 2914   0.686   1.161   9.251
  861SOL    HW1 2915   0.746   1.240   9.265
  861SOL    HW2 2916   0.600   1.192   9.210
  862SOL     OW 2917   0.335   1.435   8.509
  862SOL    HW1 2918   0.257   1.404   8.456
  862SOL    HW2 2919   0.393   1.493   8.452
  863SOL     OW 2920   1.460   1.505   8.787
  863SOL    HW1 2921   1.484   1.599   8.813
  863SOL    HW2 2922   1.444   1.451   8.869
  864SOL     OW 2923   0.438   0.392   8.947
  864SOL    HW1 2924   0.520   0.336   8.956
  864SOL    HW2 2925   0.357   0.334   8.951
  865SOL     OW 2926   1.603   0.447   8.185
  865SOL    HW1 2927   1.529   0.493   8.135
  865SOL    HW2 2928   1.654   0.515   8.238
  866SOL     OW 2929   0.231   1.713   7.931
  866SOL    HW1 2930   0.265   1.790   7.985
  866SOL    HW2 2931   0.275   1.713   7.841
  867SOL     OW 2932   1.127   1.341   9.138
  867SOL    HW1 2933   1.174   1.341   9.226
  867SOL    HW2 2934   1.079   1.254   9.127
  868SOL     OW 2935   0.230   1.434   7.986
  868SOL    HW1 2936   0.204   1.530   7.986
  868SOL    HW2 2937   0.159   1.380   8.031
  869SOL     OW 2938   0.240   1.091   8.334
  869SOL    HW1 2939   0.254   1.007   8.386
  869SOL    HW2 2940   0.185   1.155   8.389
  870SOL     OW 2941   0.620   1.786   8.887
  870SOL    HW1 2942   0.528   1.769   8.922
  870SOL    HW2 2943   0.648   1.878   8.913
  871SOL     OW 2944   0.606   0.964   7.571
  871SOL    HW1 2945   0.613   1.048   7.517
  871SOL    HW2 2946   0.652   0.977   7.659
  872SOL     OW 2947   1.594   0.114   8.928
  872SOL    HW1 2948   1.576   0.181   8.856
  872SOL    HW2 2949   1.591   0.160   9.017
  873SOL     OW 2950   0.122   0.643   8.011
  873SOL    HW1 2951   0.077   0.555   8.028
  873SOL    HW2 2952   0.121   0.697   8.095
  874SOL     OW 2953   1.842   1.767   7.807
  874SOL    HW1 2954   1.896   1.738   7.887
  874SOL    HW2 2955   1.872   1.857   7.778
  875SOL     OW 2956   0.027   1.596   7.565
  875SOL    HW1 2957   0.008   1.500   7.586
  875SOL    HW2 2958  -0.006   1.654   7.640
  876SOL     OW 2959   1.689   0.922   8.060
  876SOL    HW1 2960   1.784   0.893   8.068
  876SOL    HW2 2961   1.681   0.987   7.985
  877SOL     OW 2962   1.641   1.108   7.880
  877SOL    HW1 2963   1.727   1.110   7.828
  877SOL    HW2 2964   1.655   1.155   7.968
  878SOL     OW 2965   0.113   0.737   9.045
  878SOL    HW1 2966   0.201   0.724   9.090
  878SOL    HW2 2967   0.100   0.834   9.023
  879SOL     OW 2968   0.613   1.365   8.174
  879SOL    HW1 2969   0.564   1.278   8.183
  879SOL    HW2 2970   0.590   1.408   8.087
  880SOL     OW 2971   1.293   1.228   8.871
  880SOL    HW1 2972   1.330   1.155   8.813
  880SOL    HW2 2973   1.345   1.233   8.956
  881SOL     OW 2974   0.809   0.004   7.950
  881SOL    HW1 2975   0.849   0.095   7.941
  881SOL    HW2 2976   0.709   0.012   7.956
  882SOL     OW 2977   0.197   0.976   8.712
  882SOL    HW1 2978   0.286   0.931   8.698
  882SOL    HW2 2979   0.124   0.911   8.693
  883SOL     OW 2980   1.525   0.999   7.638
  883SOL    HW1 2981   1.462   0.923   7.651
  883SOL    HW2 2982   1.573   1.017   7.724
  884SOL     OW 2983   1.187   1.792   9.064
  884SOL    HW1 2984   1.211   1.852   8.988
  884SOL    HW2 2985   1.194   1.697   9.034
  885SOL     OW 2986   0.317   0.251   9.249
  885SOL    HW1 2987   0.388   0.322   9.255
  885SOL    HW2 2988   0.229   0.290   9.277
  886SOL     OW 2989   1.466   1.417   8.401
  886SOL    HW1 2990   1.407   1.423   8.481
  886SOL    HW2 2991   1.451   1.329   8.355
  887SOL     OW 2992   1.667   1.714   8.020
  887SOL    HW1 2993   1.626   1.691   7.932
  887SOL    HW2 2994   1.649   1.640   8.085
  888SOL     OW 2995   0.598   0.729   7.718
  888SOL    HW1 2996   0.622   0.798   7.650
  888SOL    HW2 2997   0.520   0.762   7.772
  889SOL     OW 2998   1.281   0.345   8.392
  889SOL    HW1 2999   1.195   0.295   8.379
  889SOL    HW2 3000   1.343   0.291   8.448
  890SOL     OW 3001   1.576   1.662   7.755
  890SOL    HW1 3002   1.665   1.708   7.758
  890SOL    HW2 3003   1.555   1.638   7.660
  891SOL     OW 3004   0.807   0.605   8.913
  891SOL    HW1 3005   0.760   0.602   9.002
  891SOL    HW2 3006   0.756   0.550   8.847
  892SOL     OW 3007   1.394   0.469   9.122
  892SOL    HW1 3008   1.374   0.512   9.210
  892SOL    HW2 3009   1.472   0.407   9.131
  893SOL     OW 3010   0.973   0.890   9.020
  893SOL    HW1 3011   1.019   0.806   8.991
  893SOL    HW2 3012   0.917   0.924   8.945
  894SOL     OW 3013   0.991   0.410   8.690
  894SOL    HW1 3014   0.914   0.444   8.744
  894SOL    HW2 3015   0.957   0.359   8.611
  895SOL     OW 3016   1.041   0.701   7.877
  895SOL    HW1 3017   1.067   0.697   7.973
  895SOL    HW2 3018   0.956   0.650   7.863
  896SOL     OW 3019   0.076   0.811   8.237
  896SOL    HW1 3020   0.175   0.799   8.246
  896SOL    HW2 3021   0.052   0.906   8.258
  897SOL     OW 3022   0.130   1.821   9.019
  897SOL    HW1 3023   0.120   1.806   9.118
  897SOL    HW2 3024   0.044   1.857   8.983
  898SOL     OW 3025   0.865   0.348   7.643
  898SOL    HW1 3026   0.924   0.411   7.594
  898SOL    HW2 3027   0.884   0.254   7.614
  899SOL     OW 3028   1.719   0.585   9.279
  899SOL    HW1 3029   1.693   0.674   9.243
  899SOL    HW2 3030   1.717   0.517   9.206
  900SOL     OW 3031   1.362   1.144   7.993
  900SOL    HW1 3032   1.445   1.115   7.945
  900SOL    HW2 3033   1.313   1.211   7.937
  901SOL     OW 3034   0.550   0.196   8.333
  901SOL    HW1 3035   0.545   0.191   8.433
  901SOL    HW2 3036   0.552   0.292   8.304
  902SOL     OW 3037   1.008   1.456   7.925
  902SOL    HW1 3038   0.962   1.528   7.873
  902SOL    HW2 3039   1.004   1.476   8.023
  903SOL     OW 3040   0.351   1.801   8.301
  903SOL    HW1 3041   0.401   1.715   8.307
  903SOL    HW2 3042   0.416   1.878   8.298
  904SOL     OW 3043   1.795   1.066   8.321
  904SOL    HW1 3044   1.733   1.051   8.245
  904SOL    HW2 3045   1.743   1.077   8.406
  905SOL     OW 3046   1.227   1.550   8.954
  905SOL    HW1 3047   1.233   1.473   9.018
  905SOL    HW2 3048   1.175   1.524   8.874
  906SOL     OW 3049   0.321   0.943   7.690
  906SOL    HW1 3050   0.403   0.982   7.648
  906SOL    HW2 3051   0.294   0.861   7.641
  907SOL     OW 3052   1.458   0.735   8.176
  907SOL    HW1 3053   1.453   0.670   8.251
  907SOL    HW2 3054   1.538   0.794   8.189
  908SOL     OW 3055   0.461   1.266   9.175
  908SOL    HW1 3056   0.411   1.267   9.089
  908SOL    HW2 3057   0.398   1.248   9.251
  909SOL     OW 3058   1.111   1.776   7.685
  909SOL    HW1 3059   1.051   1.714   7.735
  909SOL    HW2 3060   1.142   1.732   7.600
  910SOL     OW 3061   0.202   0.285   8.946
  910SOL    HW1 3062   0.122   0.345   8.933
  910SOL    HW2 3063   0.192   0.236   9.032
  911SOL     OW 3064   1.632   1.377   7.529
  911SOL    HW1 3065   1.600   1.471   7.519
  911SOL    HW2 3066   1.556   1.314   7.517
  912SOL     OW 3067   0.464   1.743   7.771
  912SOL    HW1 3068   0.497   1.782   7.857
  912SOL    HW2 3069   0.540   1.736   7.706
  913SOL     OW 3070   1.400   0.107   7.874
  913SOL    HW1 3071   1.376   0.070   7.784
  913SOL    HW2 3072   1.499   0.123   7.878
  914SOL     OW 3073   0.249   1.785   8.689
  914SOL    HW1 3074   0.306   1.720   8.739
  914SOL    HW2 3075   0.233   1.752   8.596
  915SOL     OW 3076   0.940   1.698   8.352
  915SOL    HW1 3077   1.020   1.641   8.373
  915SOL    HW2 3078   0.891   1.658   8.275
  916SOL     OW 3079   0.382   0.700   7.928
  916SOL    HW1 3080   0.427   0.610   7.925
  916SOL    HW2 3081   0.288   0.689   7.961
  917SOL     OW 3082   1.547   0.222   9.177
  917SOL    HW1 3083   1.542   0.259   9.269
  917SOL    HW2 3084   1.475   0.153   9.165
  918SOL     OW 3085   0.614   0.122   7.565
  918SOL    HW1 3086   0.712   0.100   7.572
  918SOL    HW2 3087   0.583   0.105   7.472
  919SOL     OW 3088   0.781   0.264   9.197
  919SOL    HW1 3089   0.848   0.203   9.240
  919SOL    HW2 3090   0.708   0.283   9.262
  920SOL     OW 3091   0.888   1.514   8.643
  920SOL    HW1 3092   0.865   1.489   8.549
  920SOL    HW2 3093   0.949   1.445   8.682
  921SOL     OW 3094   1.351   0.590   8.881
  921SOL    HW1 3095   1.379   0.547   8.966
  921SOL    HW2 3096   1.376   0.686   8.882
  922SOL     OW 3097   0.803   1.402   8.372
  922SOL    HW1 3098   0.893   1.416   8.330
  922SOL    HW2 3099   0.732   1.404   8.301
  923SOL     OW 3100   0.922   0.503   8.347
  923SOL    HW1 3101   0.897   0.494   8.251
  923SOL    HW2 3102   0.970   0.421   8.378
  924SOL     OW 3103   0.539   0.064   7.960
  924SOL    HW1 3104   0.458   0.065   8.018
  924SOL    HW2 3105   0.542   0.147   7.905
  925SOL     OW 3106   1.434   1.188   7.489
  925SOL    HW1 3107   1.466   1.112   7.546
  925SOL    HW2 3108   1.342   1.215   7.519
  926SOL     OW 3109   0.297   0.035   7.619
  926SOL    HW1 3110   0.346   0.119   7.598
  926SOL    HW2 3111   0.359  -0.030   7.664
  927SOL     OW 3112   0.935   0.236   7.928
  927SOL    HW1 3113   0.887   0.277   7.850
  927SOL    HW2 3114   1.034   0.234   7.909
  928SOL     OW 3115   1.076   0.683   8.912
  928SOL    HW1 3116   0.996   0.622   8.915
  928SOL    HW2 3117   1.157   0.630   8.888
  929SOL     OW 3118   1.227   1.570   8.241
  929SOL    HW1 3119   1.248   1.644   8.176
  929SOL    HW2 3120   1.295   1.570   8.314
  930SOL     OW 3121   0.459   1.152   8.189
  930SOL    HW1 3122   0.388   1.125   8.254
  930SOL    HW2 3123   0.433   1.124   8.096
  931SOL     OW 3124   1.271   1.797   8.039
  931SOL    HW1 3125   1.315   1.861   7.975
  931SOL    HW2 3126   1.221   1.849   8.109
  932SOL     OW 3127   1.032   0.549   7.464
  932SOL    HW1 3128   0.991   0.631   7.425
  932SOL    HW2 3129   1.096   0.575   7.537
  933SOL     OW 3130   0.078   0.556   8.834
  933SOL    HW1 3131   0.170   0.555   8.793
  933SOL    HW2 3132   0.072   0.630   8.901
  934SOL     OW 3133   0.561   0.222   8.595
  934SOL    HW1 3134   0.599   0.138   8.632
  934SOL    HW2 3135   0.473   0.241   8.639
  935SOL     OW 3136   0.866   0.454   8.090
  935SOL    HW1 3137   0.834   0.526   8.028
  935SOL    HW2 3138   0.890   0.373   8.037
  936SOL     OW 3139   1.017   0.039   8.201
  936SOL    HW1 3140   0.945   0.044   8.132
  936SOL    HW2 3141   0.993  -0.030   8.270
  937SOL     OW 3142   1.429   1.173   8.315
  937SOL    HW1 3143   1.374   1.089   8.308
  937SOL    HW2 3144   1.455   1.202   8.223
  938SOL     OW 3145   1.466   0.590   8.440
  938SOL    HW1 3146   1.436   0.495   8.447
  938SOL    HW2 3147   1.539   0.606   8.506
  939SOL     OW 3148   1.857   0.833   7.825
  939SOL    HW1 3149   1.899   0.769   7.889
  939SOL    HW2 3150   1.819   0.782   7.747
  940SOL     OW 3151   0.488   1.385   7.622
  940SOL    HW1 3152   0.401   1.370   7.669
  940SOL    HW2 3153   0.471   1.411   7.527
  941SOL     OW 3154   1.664   1.280   8.105
  941SOL    HW1 3155   1.763   1.288   8.119
  941SOL    HW2 3156   1.619   1.364   8.136
  942SOL     OW 3157   1.390   0.575   7.526
  942SOL    HW1 3158   1.336   0.554   7.607
  942SOL    HW2 3159   1.481   0.534   7.535
  943SOL     OW 3160   0.527   0.256   7.776
  943SOL    HW1 3161   0.554   0.197   7.701
  943SOL    HW2 3162   0.527   0.351   7.745
  944SOL     OW 3163   1.754   1.223   9.036
  944SOL    HW1 3164   1.845   1.184   9.023
  944SOL    HW2 3165   1.762   1.319   9.060
  945SOL     OW 3166   1.064   1.347   8.788
  945SOL    HW1 3167   0.984   1.324   8.843
  945SOL    HW2 3168   1.147   1.321   8.837
  946SOL     OW 3169   1.592   1.629   9.073
  946SOL    HW1 3170   1.619   1.663   8.983
  946SOL    HW2 3171   1.671   1.591   9.119
  947SOL     OW 3172   1.111   1.195   8.548
  947SOL    HW1 3173   1.071   1.239   8.629
  947SOL    HW2 3174   1.070   1.232   8.465
  948SOL     OW 3175   1.638   1.099   8.527
  948SOL    HW1 3176   1.643   1.180   8.586
  948SOL    HW2 3177   1.552   1.101   8.476
  949SOL     OW 3178   0.915   0.089   8.850
  949SOL    HW1 3179   0.940   0.069   8.755
  949SOL    HW2 3180   0.987   0.145   8.892
  950SOL     OW 3181   0.980   1.116   9.167
  950SOL    HW1 3182   0.881   1.122   9.177
  950SOL    HW2 3183   1.003   1.036   9.111
  951SOL     OW 3184   0.705   1.050   7.816
  951SOL    HW1 3185   0.691   1.057   7.915
  951SOL    HW2 3186   0.789   0.999   7.798
  952SOL     OW 3187   0.410   0.813   8.699
  952SOL    HW1 3188   0.496   0.825   8.749
  952SOL    HW2 3189   0.368   0.726   8.726
  953SOL     OW 3190   1.274   0.386   8.710
  953SOL    HW1 3191   1.295   0.460   8.774
  953SOL    HW2 3192   1.185   0.403   8.667
  954SOL     OW 3193   0.064   1.564   8.779
  954SOL    HW1 3194   0.018   1.646   8.745
  954SOL    HW2 3195   0.162   1.583   8.788
  955SOL     OW 3196   0.367   1.100   7.949
  955SOL    HW1 3197   0.360   1.183   7.893
  955SOL    HW2 3198   0.371   1.020   7.889
  956SOL     OW 3199   0.566   0.537   8.313
  956SOL    HW1 3200   0.578   0.603   8.239
  956SOL    HW2 3201   0.612   0.571   8.396
  957SOL     OW 3202   1.252   1.348   7.836
  957SOL    HW1 3203   1.302   1.425   7.876
  957SOL    HW2 3204   1.157   1.350   7.868
  958SOL     OW 3205   1.272   1.445   8.590
  958SOL    HW1 3206   1.319   1.458   8.677
  958SOL    HW2 3207   1.206   1.371   8.599
  959SOL     OW 3208   1.582   0.639   7.920
  959SOL    HW1 3209   1.551   0.700   7.993
  959SOL    HW2 3210   1.632   0.691   7.851
  960SOL     OW 3211   0.354   1.510   8.777
  960SOL    HW1 3212   0.333   1.466   8.690
  960SOL    HW2 3213   0.451   1.536   8.780
  961SOL     OW 3214   0.402   0.751   9.046
  961SOL    HW1 3215   0.470   0.806   8.999
  961SOL    HW2 3216   0.442   0.663   9.073
  962SOL     OW 3217   1.587   0.779   9.118
  962SOL    HW1 3218   1.495   0.817   9.113
  962SOL    HW2 3219   1.647   0.826   9.053
  963SOL     OW 3220   1.013   0.105   9.218
  963SOL    HW1 3221   1.019   0.190   9.166
  963SOL    HW2 3222   1.045   0.029   9.161
  964SOL     OW 3223   0.504   0.050   9.188
  964SOL    HW1 3224   0.462  -0.007   9.118
  964SOL    HW2 3225   0.438   0.119   9.220
  965SOL     OW 3226   0.573   0.870   8.477
  965SOL    HW1 3227   0.617   0.959   8.468
  965SOL    HW2 3228   0.510   0.870   8.554
  966SOL     OW 3229   1.360   0.862   8.493
  966SOL    HW1 3230   1.285   0.862   8.427
  966SOL    HW2 3231   1.397   0.770   8.502
  967SOL     OW 3232   1.209   0.525   7.723
  967SOL    HW1 3233   1.222   0.441   7.777
  967SOL    HW2 3234   1.180   0.599   7.783
  968SOL     OW 3235   0.307   0.213   8.679
  968SOL    HW1 3236   0.284   0.250   8.769
  968SOL    HW2 3237   0.277   0.118   8.673
  969SOL     OW 3238   0.037   1.310   8.730
  969SOL    HW1 3239   0.090   1.261   8.798
  969SOL    HW2 3240   0.059   1.408   8.735
  970SOL     OW 3241   0.732   0.634   8.512
  970SOL    HW1 3242   0.791   0.608   8.436
  970SOL    HW2 3243   0.704   0.730   8.501
  971SOL     OW 3244   1.728   0.935   9.302
  971SOL    HW1 3245   1.682   0.928   9.213
  971SOL    HW2 3246   1.666   0.979   9.368
  972SOL     OW 3247   0.307   0.063   8.066
  972SOL    HW1 3248   0.296   0.157   8.099
  972SOL    HW2 3249   0.302   0.000   8.143
  973SOL     OW 3250   1.622   0.367   7.822
  973SOL    HW1 3251   1.624   0.291   7.886
  973SOL    HW2 3252   1.574   0.444   7.862
  974SOL     OW 3253   1.023   0.766   8.414
  974SOL    HW1 3254   1.038   0.787   8.510
  974SOL    HW2 3255   0.993   0.671   8.405
  975SOL     OW 3256   0.980   1.573   9.148
  975SOL    HW1 3257   0.960   1.617   9.060
  975SOL    HW2 3258   1.019   1.482   9.132
  976SOL     OW 3259   1.859   1.518   9.053
  976SOL    HW1 3260   1.873   1.545   8.958
  976SOL    HW2 3261   1.942   1.540   9.106
  977SOL     OW 3262   0.350   0.898   9.252
  977SOL    HW1 3263   0.426   0.942   9.300
  977SOL    HW2 3264   0.385   0.851   9.170
  978SOL     OW 3265   1.540   0.274   7.573
  978SOL    HW1 3266   1.479   0.199   7.596
  978SOL    HW2 3267   1.562   0.326   7.656
  979SOL     OW 3268   1.303   0.838   7.490
  979SOL    HW1 3269   1.337   0.745   7.505
  979SOL    HW2 3270   1.321   0.865   7.395
  980SOL     OW 3271   1.068   1.333   8.297
  980SOL    HW1 3272   1.075   1.249   8.242
  980SOL    HW2 3273   1.130   1.402   8.261
  981SOL     OW 3274   0.319   0.810   8.397
  981SOL    HW1 3275   0.412   0.846   8.402
  981SOL    HW2 3276   0.313   0.725   8.449
  982SOL     OW 3277   0.339   0.509   8.454
  982SOL    HW1 3278   0.287   0.426   8.437
  982SOL    HW2 3279   0.416   0.514   8.390
  983SOL     OW 3280   1.138   0.380   9.126
  983SOL    HW1 3281   1.093   0.443   9.190
  983SOL    HW2 3282   1.231   0.411   9.109
  984SOL     OW 3283   1.160   0.207   8.925
  984SOL    HW1 3284   1.160   0.271   9.002
  984SOL    HW2 3285   1.188   0.255   8.842
  985SOL     OW 3286   0.008   1.326   7.648
  985SOL    HW1 3287  -0.085   1.347   7.617
  985SOL    HW2 3288   0.018   1.227   7.661
  986SOL     OW 3289   0.088   1.801   8.375
  986SOL    HW1 3290   0.046   1.715   8.348
  986SOL    HW2 3291   0.182   1.804   8.341
  987SOL     OW 3292   0.504   1.568   8.358
  987SOL    HW1 3293   0.570   1.642   8.367
  987SOL    HW2 3294   0.548   1.489   8.316
  988SOL     OW 3295   1.002   0.796   8.686
  988SOL    HW1 3296   1.043   0.764   8.772
  988SOL    HW2 3297   0.906   0.769   8.683
  989SOL     OW 3298   0.040   0.544   8.562
  989SOL    HW1 3299   0.125   0.511   8.521
  989SOL    HW2 3300   0.053   0.559   8.660
  990SOL     OW 3301   0.189   0.520   9.170
  990SOL    HW1 3302   0.248   0.480   9.100
  990SOL    HW2 3303   0.131   0.591   9.129
  991SOL     OW 3304   1.369   0.950   9.108
  991SOL    HW1 3305   1.408   1.039   9.128
  991SOL    HW2 3306   1.379   0.930   9.011
  992SOL     OW 3307   0.815   0.572   7.773
  992SOL    HW1 3308   0.822   0.483   7.727
  992SOL    HW2 3309   0.721   0.606   7.765
  993SOL     OW 3310   1.657   0.604   8.654
  993SOL    HW1 3311   1.619   0.535   8.716
  993SOL    HW2 3312   1.739   0.568   8.610
  994SOL     OW 3313   0.252   1.564   9.192
  994SOL    HW1 3314   0.222   1.621   9.268
  994SOL    HW2 3315   0.245   1.467   9.218
  995SOL     OW 3316   0.671   0.464   8.717
  995SOL    HW1 3317   0.637   0.375   8.687
  995SOL    HW2 3318   0.697   0.518   8.637
  996SOL     OW 3319   0.930   1.678   8.913
  996SOL    HW1 3320   0.906   1.660   8.818
  996SOL    HW2 3321   0.960   1.772   8.923
  997SOL     OW 3322   0.473   0.500   7.639
  997SOL    HW1 3323   0.534   0.580   7.643
  997SOL    HW2 3324   0.378   0.531   7.646
  998SOL     OW 3325   0.159   1.137   8.914
  998SOL    HW1 3326   0.181   1.076   8.990
  998SOL    HW2 3327   0.169   1.088   8.828
  999SOL     OW 3328   1.347   1.059   8.682
  999SOL    HW1 3329   1.371   0.996   8.608
  999SOL    HW2 3330   1.257   1.099   8.664
 1000SOL     OW 3331   1.302   0.855   7.757
 1000SOL    HW1 3332   1.216   0.824   7.799
 1000SOL    HW2 3333   1.298   0.841   7.658
 1001SOL     OW 3334   1.759   1.747   8.602
 1001SOL    HW1 3335   1.820   1.777   8.529
 1001SOL    HW2 3336   1.721   1.658   8.580
 1002SOL     OW 3337   1.252   1.731   8.576
 1002SOL    HW1 3338   1.336   1.736   8.522
 1002SOL    HW2 3339   1.229   1.635   8.594
 1003SOL     OW 3340   0.083   1.258   8.470
 1003SOL    HW1 3341   0.078   1.257   8.570
 1003SOL    HW2 3342   0.000   1.217   8.432
 1004SOL     OW 3343   0.688   1.662   9.164
 1004SOL    HW1 3344   0.632   1.743   9.173
 1004SOL    HW2 3345   0.740   1.666   9.078
 1005SOL     OW 3346   1.726   0.135   7.971
 1005SOL    HW1 3347   1.799   0.118   7.904
 1005SOL    HW2 3348   1.695   0.048   8.009
 1006SOL     OW 3349   1.388   1.573   7.925
 1006SOL    HW1 3350   1.455   1.585   7.851
 1006SOL    HW2 3351   1.348   1.662   7.948
 1007SOL     OW 3352   0.130   1.794   9.299
 1007SOL    HW1 3353   0.089   1.720   9.352
 1007SOL    HW2 3354   0.194   1.845   9.357
 1008SOL     OW 3355   1.280   0.927   8.120
 1008SOL    HW1 3356   1.340   0.846   8.122
 1008SOL    HW2 3357   1.320   0.996   8.060
 1009SOL     OW 3358   0.830   1.273   8.870
 1009SOL    HW1 3359   0.825   1.306   8.965
 1009SOL    HW2 3360   0.744   1.292   8.824
 1010SOL     OW 3361   0.672   1.616   7.602
 1010SOL    HW1 3362   0.681   1.626   7.503
 1010SOL    HW2 3363   0.632   1.527   7.623
 1011SOL     OW 3364   1.650   1.720   8.842
 1011SOL    HW1 3365   1.703   1.730   8.758
 1011SOL    HW2 3366   1.623   1.810   8.876
 1012SOL     OW 3367   1.841   0.175   8.411
 1012SOL    HW1 3368   1.880   0.090   8.375
 1012SOL    HW2 3369   1.743   0.177   8.392
 1013SOL     OW 3370   0.263   0.326   8.168
 1013SOL    HW1 3371   0.184   0.377   8.134
 1013SOL    HW2 3372   0.254   0.311   8.266
 1014SOL     OW 3373   1.194   1.612   7.479
 1014SOL    HW1 3374   1.200   1.519   7.516
 1014SOL    HW2 3375   1.135   1.612   7.399
 1015SOL     OW 3376   0.822   1.002   8.820
 1015SOL    HW1 3377   0.862   1.001   8.728
 1015SOL    HW2 3378   0.832   1.094   8.860
 1016SOL     OW 3379   0.916   0.910   7.739
 1016SOL    HW1 3380   0.979   0.948   7.671
 1016SOL    HW2 3381   0.956   0.827   7.778
 1017SOL     OW 3382   1.504   1.607   7.492
 1017SOL    HW1 3383   1.412   1.644   7.499
 1017SOL    HW2 3384   1.542   1.627   7.402
 1018SOL     OW 3385   0.372   1.288   8.938
 1018SOL    HW1 3386   0.359   1.381   8.904
 1018SOL    HW2 3387   0.288   1.236   8.925
 1019SOL     OW 3388   1.614   1.292   8.737
 1019SOL    HW1 3389   1.674   1.295   8.817
 1019SOL    HW2 3390   1.539   1.356   8.750
 1020SOL     OW 3391   1.039   1.098   8.144
 1020SOL    HW1 3392   0.969   1.051   8.198
 1020SOL    HW2 3393   1.098   1.030   8.101
 1021SOL     OW 3394   1.014   0.236   8.419
 1021SOL    HW1 3395   1.006   0.200   8.326
 1021SOL    HW2 3396   1.012   0.160   8.484
 1022SOL     OW 3397   0.590   1.487   7.939
 1022SOL    HW1 3398   0.632   1.429   7.869
 1022SOL    HW2 3399   0.546   1.566   7.895
 1023SOL     OW 3400   1.709   0.385   8.829
 1023SOL    HW1 3401   1.782   0.454   8.833
 1023SOL    HW2 3402   1.737   0.310   8.770
 1024SOL     OW 3403   0.255   1.348   7.738
 1024SOL    HW1 3404   0.159   1.349   7.711
 1024SOL    HW2 3405   0.267   1.401   7.822
 1025SOL     OW 3406   0.105   1.013   9.174
 1025SOL    HW1 3407   0.028   0.980   9.228
 1025SOL    HW2 3408   0.190   0.983   9.216
 1026SOL     OW 3409   0.672   0.203   8.937
 1026SOL    HW1 3410   0.762   0.187   8.897
 1026SOL    HW2 3411   0.680   0.208   9.036
 1027SOL     OW 3412   0.075   0.345   7.481
 1027SOL    HW1 3413  -0.017   0.317   7.452
 1027SOL    HW2 3414   0.106   0.422   7.425
 1028SOL     OW 3415   1.440   0.856   8.846
 1028SOL    HW1 3416   1.383   0.908   8.783
 1028SOL    HW2 3417   1.536   0.868   8.822
 1029SOL     OW 3418   0.072   0.166   7.766
 1029SOL    HW1 3419   0.055   0.249   7.712
 1029SOL    HW2 3420   0.162   0.129   7.744
 1030SOL     OW 3421   1.183   1.335   7.567
 1030SOL    HW1 3422   1.084   1.324   7.569
 1030SOL    HW2 3423   1.217   1.350   7.660
 1031SOL     OW 3424   0.613   0.842   8.879
 1031SOL    HW1 3425   0.669   0.923   8.862
 1031SOL    HW2 3426   0.672   0.762   8.882
 1032SOL     OW 3427   1.493   1.767   8.407
 1032SOL    HW1 3428   1.526   1.831   8.338
 1032SOL    HW2 3429   1.559   1.761   8.482
 1033SOL     OW 3430   0.716   0.565   9.156
 1033SOL    HW1 3431   0.735   0.630   9.230
 1033SOL    HW2 3432   0.776   0.485   9.165
 1034SOL     OW 3433   1.450   1.220   9.081
 1034SOL    HW1 3434   1.441   1.210   9.180
 1034SOL    HW2 3435   1.546   1.213   9.055
 1035SOL     OW 3436   0.390   1.741   9.008
 1035SOL    HW1 3437   0.299   1.782   9.006
 1035SOL    HW2 3438   0.383   1.647   9.040
 1036SOL     OW 3439   1.674   0.883   8.702
 1036SOL    HW1 3440   1.647   0.794   8.665
 1036SOL    HW2 3441   1.675   0.951   8.629
 1037SOL     OW 3442   1.225   0.325   7.897
 1037SOL    HW1 3443   1.290   0.251   7.886
 1037SOL    HW2 3444   1.245   0.375   7.981
 1038SOL     OW 3445   0.594   0.745   8.100
 1038SOL    HW1 3446   0.644   0.830   8.081
 1038SOL    HW2 3447   0.506   0.747   8.052
 1039SOL     OW 3448   1.777   0.342   9.090
 1039SOL    HW1 3449   1.760   0.373   8.996
 1039SOL    HW2 3450   1.693   0.305   9.128
 1040SOL     OW 3451   1.730   0.934   8.965
 1040SOL    HW1 3452   1.768   1.025   8.980
 1040SOL    HW2 3453   1.722   0.917   8.866
 1041SOL     OW 3454   0.859   1.374   7.464
 1041SOL    HW1 3455   0.813   1.389   7.552
 1041SOL    HW2 3456   0.903   1.459   7.434
 1042SOL     OW 3457   0.661   1.790   8.401
 1042SOL    HW1 3458   0.615   1.878   8.388
 1042SOL    HW2 3459   0.760   1.802   8.394
 1043SOL     OW 3460   0.859   0.956   8.309
 1043SOL    HW1 3461   0.913   0.887   8.357
 1043SOL    HW2 3462   0.827   1.025   8.375
 1044SOL     OW 3463   1.083   0.984   7.535
 1044SOL    HW1 3464   1.060   1.037   7.453
 1044SOL    HW2 3465   1.164   0.928   7.516
 1045SOL     OW 3466   1.861   1.569   8.299
 1045SOL    HW1 3467   1.790   1.557   8.229
 1045SOL    HW2 3468   1.862   1.490   8.359
 1046SOL     OW 3469   0.221   1.314   9.292
 1046SOL    HW1 3470   0.156   1.241   9.271
 1046SOL    HW2 3471   0.225   1.328   9.390
 1047SOL     OW 3472   0.079   1.240   8.101
 1047SOL    HW1 3473   0.078   1.193   8.189
 1047SOL    HW2 3474   0.161   1.212   8.050
 1048SOL     OW 3475   0.672   1.391   9.072
 1048SOL    HW1 3476   0.594   1.341   9.110
 1048SOL    HW2 3477   0.669   1.486   9.103
 1049SOL     OW 3478   1.824   0.192   8.675
 1049SOL    HW1 3479   1.820   0.102   8.719
 1049SOL    HW2 3480   1.827   0.181   8.576
 1050SOL     OW 3481   0.428   0.424   7.968
 1050SOL    HW1 3482   0.458   0.352   7.906
 1050SOL    HW2 3483   0.389   0.384   8.051
 1051SOL     OW 3484   1.705   1.487   8.552
 1051SOL    HW1 3485   1.612   1.462   8.525
 1051SOL    HW2 3486   1.731   1.437   8.634
 1052SOL     OW 3487   0.317   0.547   8.728
 1052SOL    HW1 3488   0.355   0.488   8.800
 1052SOL    HW2 3489   0.357   0.521   8.640
 1053SOL     OW 3490   0.812   1.586   8.135
 1053SOL    HW1 3491   0.844   1.596   8.041
 1053SOL    HW2 3492   0.733   1.524   8.137
 1054SOL     OW 3493   1.424   0.214   8.560
 1054SOL    HW1 3494   1.476   0.149   8.615
 1054SOL    HW2 3495   1.375   0.277   8.621
 1055SOL     OW 3496   1.001   0.034   8.602
 1055SOL    HW1 3497   0.938  -0.038   8.571
 1055SOL    HW2 3498   1.094  -0.002   8.602
 1056SOL     OW 3499   0.770   1.330   7.749
 1056SOL    HW1 3500   0.724   1.243   7.766
 1056SOL    HW2 3501   0.861   1.327   7.790
 1057SOL     OW 3502   0.618   1.567   8.732
 1057SOL    HW1 3503   0.613   1.649   8.789
 1057SOL    HW2 3504   0.707   1.564   8.687
 1058SOL     OW 3505   1.352   0.052   7.616
 1058SOL    HW1 3506   1.387   0.011   7.532
 1058SOL    HW2 3507   1.262   0.014   7.636
 1059SOL     OW 3508   1.300   0.453   8.139
 1059SOL    HW1 3509   1.241   0.533   8.143
 1059SOL    HW2 3510   1.315   0.418   8.232
 1060SOL     OW 3511   1.593   0.221   8.330
 1060SOL    HW1 3512   1.509   0.220   8.384
 1060SOL    HW2 3513   1.595   0.304   8.274
 1061SOL     OW 3514   0.039   1.077   7.748
 1061SOL    HW1 3515   0.138   1.066   7.739
 1061SOL    HW2 3516  -0.001   0.991   7.780
 1062SOL     OW 3517   0.875   1.646   7.785
 1062SOL    HW1 3518   0.798   1.611   7.731
 1062SOL    HW2 3519   0.843   1.717   7.847
 1063SOL     OW 3520   0.230   0.628   9.423
 1063SOL    HW1 3521   0.137   0.626   9.460
 1063SOL    HW2 3522   0.231   0.589   9.331
 1064SOL     OW 3523   0.225   0.275  10.306
 1064SOL    HW1 3524   0.260   0.258  10.398
 1064SOL    HW2 3525   0.137   0.230  10.294
 1065SOL     OW 3526   0.019   0.368   9.957
 1065SOL    HW1 3527  -0.063   0.411   9.996
 1065SOL    HW2 3528  -0.009   0.295   9.894
 1066SOL     OW 3529   0.569   1.275  10.475
 1066SOL    HW1 3530   0.476   1.268  10.438
 1066SOL    HW2 3531   0.580   1.364  10.519
 1067SOL     OW 3532   1.555   1.511  10.013
 1067SOL    HW1 3533   1.498   1.495  10.094
 1067SOL    HW2 3534   1.496   1.521   9.933
 1068SOL     OW 3535   1.135   0.703  10.027
 1068SOL    HW1 3536   1.192   0.781  10.002
 1068SOL    HW2 3537   1.075   0.729  10.103
 1069SOL     OW 3538   1.755   0.607   9.541
 1069SOL    HW1 3539   1.743   0.594   9.442
 1069SOL    HW2 3540   1.725   0.526   9.590
 1070SOL     OW 3541   0.768   1.144  10.333
 1070SOL    HW1 3542   0.690   1.161  10.393
 1070SOL    HW2 3543   0.802   1.231  10.297
 1071SOL     OW 3544   0.685   1.012   9.975
 1071SOL    HW1 3545   0.754   0.996  10.045
 1071SOL    HW2 3546   0.612   1.069  10.013
 1072SOL     OW 3547   0.335   1.435  10.371
 1072SOL    HW1 3548   0.257   1.404  10.318
 1072SOL    HW2 3549   0.393   1.493  10.314
 1073SOL     OW 3550   0.438   0.392  10.809
 1073SOL    HW1 3551   0.520   0.336  10.818
 1073SOL    HW2 3552   0.357   0.334  10.813
 1074SOL     OW 3553   1.603   0.447  10.047
 1074SOL    HW1 3554   1.529   0.493   9.997
 1074SOL    HW2 3555   1.654   0.515  10.100
 1075SOL     OW 3556   0.231   1.713   9.793
 1075SOL    HW1 3557   0.265   1.790   9.847
 1075SOL    HW2 3558   0.275   1.713   9.703
 1076SOL     OW 3559   0.230   1.434   9.848
 1076SOL    HW1 3560   0.204   1.530   9.848
 1076SOL    HW2 3561   0.159   1.380   9.893
 1077SOL     OW 3562   0.240   1.091  10.196
 1077SOL    HW1 3563   0.254   1.007  10.248
 1077SOL    HW2 3564   0.185   1.155  10.251
 1078SOL     OW 3565   0.620   1.786  10.749
 1078SOL    HW1 3566   0.528   1.769  10.784
 1078SOL    HW2 3567   0.648   1.878  10.775
 1079SOL     OW 3568   0.606   0.964   9.433
 1079SOL    HW1 3569   0.613   1.048   9.379
 1079SOL    HW2 3570   0.652   0.977   9.521
 1080SOL     OW 3571   0.122   0.643   9.873
 1080SOL    HW1 3572   0.077   0.555   9.890
 1080SOL    HW2 3573   0.121   0.697   9.957
 1081SOL     OW 3574   1.842   1.767   9.669
 1081SOL    HW1 3575   1.896   1.738   9.749
 1081SOL    HW2 3576   1.872   1.857   9.640
 1082SOL     OW 3577   0.027   1.596   9.427
 1082SOL    HW1 3578   0.008   1.500   9.448
 1082SOL    HW2 3579  -0.006   1.654   9.502
 1083SOL     OW 3580   1.689   0.922   9.922
 1083SOL    HW1 3581   1.784   0.893   9.930
 1083SOL    HW2 3582   1.681   0.987   9.847
 1084SOL     OW 3583   1.641   1.108   9.742
 1084SOL    HW1 3584   1.727   1.110   9.690
 1084SOL    HW2 3585   1.655   1.155   9.830
 1085SOL     OW 3586   0.613   1.365  10.036
 1085SOL    HW1 3587   0.564   1.278  10.045
 1085SOL    HW2 3588   0.590   1.408   9.949
 1086SOL     OW 3589   0.809   0.004   9.812
 1086SOL    HW1 3590   0.849   0.095   9.803
 1086SOL    HW2 3591   0.709   0.012   9.818
 1087SOL     OW 3592   0.197   0.976  10.574
 1087SOL    HW1 3593   0.286   0.931  10.560
 1087SOL    HW2 3594   0.124   0.911  10.555
 1088SOL     OW 3595   1.525   0.999   9.500
 1088SOL    HW1 3596   1.462   0.923   9.513
 1088SOL    HW2 3597   1.573   1.017   9.586
 1089SOL     OW 3598   1.466   1.417  10.263
 1089SOL    HW1 3599   1.407   1.423  10.343
 1089SOL    HW2 3600   1.451   1.329  10.217
 1090SOL     OW 3601   1.667   1.714   9.882
 1090SOL    HW1 3602   1.626   1.691   9.794
 1090SOL    HW2 3603   1.649   1.640   9.947
 1091SOL     OW 3604   0.598   0.729   9.580
 1091SOL    HW1 3605   0.622   0.798   9.512
 1091SOL    HW2 3606   0.520   0.762   9.634
 1092SOL     OW 3607   1.281   0.345  10.254
 1092SOL    HW1 3608   1.195   0.295  10.241
 1092SOL    HW2 3609   1.343   0.291  10.310
 1093SOL     OW 3610   1.576   1.662   9.617
 1093SOL    HW1 3611   1.665   1.708   9.620
 1093SOL    HW2 3612   1.555   1.638   9.522
 1094SOL     OW 3613   0.807   0.605  10.775
 1094SOL    HW1 3614   0.760   0.602  10.864
 1094SOL    HW2 3615   0.756   0.550  10.709
 1095SOL     OW 3616   0.991   0.410  10.552
 1095SOL    HW1 3617   0.914   0.444  10.606
 1095SOL    HW2 3618   0.957   0.359  10.473
 1096SOL     OW 3619   1.041   0.701   9.739
 1096SOL    HW1 3620   1.067   0.697   9.835
 1096SOL    HW2 3621   0.956   0.650   9.725
 1097SOL     OW 3622   0.076   0.811  10.099
 1097SOL    HW1 3623   0.175   0.799  10.108
 1097SOL    HW2 3624   0.052   0.906  10.120
 1098SOL     OW 3625   0.130   1.821  10.881
 1098SOL    HW1 3626   0.120   1.806  10.980
 1098SOL    HW2 3627   0.044   1.857  10.845
 1099SOL     OW 3628   0.865   0.348   9.505
 1099SOL    HW1 3629   0.924   0.411   9.456
 1099SOL    HW2 3630   0.884   0.254   9.476
 1100SOL     OW 3631   1.362   1.144   9.855
 1100SOL    HW1 3632   1.445   1.115   9.807
 1100SOL    HW2 3633   1.313   1.211   9.799
 1101SOL     OW 3634   0.550   0.196  10.195
 1101SOL    HW1 3635   0.545   0.191  10.295
 1101SOL    HW2 3636   0.552   0.292  10.166
 1102SOL     OW 3637   1.008   1.456   9.787
 1102SOL    HW1 3638   0.962   1.528   9.735
 1102SOL    HW2 3639   1.004   1.476   9.885
 1103SOL     OW 3640   0.351   1.801  10.163
 1103SOL    HW1 3641   0.401   1.715  10.169
 1103SOL    HW2 3642   0.416   1.878  10.160
 1104SOL     OW 3643   1.795   1.066  10.183
 1104SOL    HW1 3644   1.733   1.051  10.107
 1104SOL    HW2 3645   1.743   1.077  10.268
 1105SOL     OW 3646   0.321   0.943   9.552
 1105SOL    HW1 3647   0.403   0.982   9.510
 1105SOL    HW2 3648   0.294   0.861   9.503
 1106SOL     OW 3649   1.458   0.735  10.038
 1106SOL    HW1 3650   1.453   0.670  10.113
 1106SOL    HW2 3651   1.538   0.794  10.051
 1107SOL     OW 3652   1.111   1.776   9.547
 1107SOL    HW1 3653   1.051   1.714   9.597
 1107SOL    HW2 3654   1.142   1.732   9.462
 1108SOL     OW 3655   1.632   1.377   9.391
 1108SOL    HW1 3656   1.600   1.471   9.381
 1108SOL    HW2 3657   1.556   1.314   9.379
 1109SOL     OW 3658   0.464   1.743   9.633
 1109SOL    HW1 3659   0.497   1.782   9.719
 1109SOL    HW2 3660   0.540   1.736   9.568
 1110SOL     OW 3661   1.400   0.107   9.736
 1110SOL    HW1 3662   1.376   0.070   9.646
 1110SOL    HW2 3663   1.499   0.123   9.740
 1111SOL     OW 3664   0.249   1.785  10.551
 1111SOL    HW1 3665   0.306   1.720  10.601
 1111SOL    HW2 3666   0.233   1.752  10.458
 1112SOL     OW 3667   0.940   1.698  10.214
 1112SOL    HW1 3668   1.020   1.641  10.235
 1112SOL    HW2 3669   0.891   1.658  10.137
 1113SOL     OW 3670   0.382   0.700   9.790
 1113SOL    HW1 3671   0.427   0.610   9.787
 1113SOL    HW2 3672   0.288   0.689   9.823
 1114SOL     OW 3673   0.614   0.122   9.427
 1114SOL    HW1 3674   0.712   0.100   9.434
 1114SOL    HW2 3675   0.583   0.105   9.334
 1115SOL     OW 3676   0.888   1.514  10.505
 1115SOL    HW1 3677   0.865   1.489  10.411
 1115SOL    HW2 3678   0.949   1.445  10.544
 1116SOL     OW 3679   0.803   1.402  10.234
 1116SOL    HW1 3680   0.893   1.416  10.192
 1116SOL    HW2 3681   0.732   1.404  10.163
 1117SOL     OW 3682   0.922   0.503  10.209
 1117SOL    HW1 3683   0.897   0.494  10.113
 1117SOL    HW2 3684   0.970   0.421  10.240
 1118SOL     OW 3685   0.539   0.064   9.822
 1118SOL    HW1 3686   0.458   0.065   9.880
 1118SOL    HW2 3687   0.542   0.147   9.767
 1119SOL     OW 3688   1.434   1.188   9.351
 1119SOL    HW1 3689   1.466   1.112   9.408
 1119SOL    HW2 3690   1.342   1.215   9.381
 1120SOL     OW 3691   0.297   0.035   9.481
 1120SOL    HW1 3692   0.346   0.119   9.460
 1120SOL    HW2 3693   0.359  -0.030   9.526
 1121SOL     OW 3694   0.935   0.236   9.790
 1121SOL    HW1 3695   0.887   0.277   9.712
 1121SOL    HW2 3696   1.034   0.234   9.771
 1122SOL     OW 3697   1.227   1.570  10.103
 1122SOL    HW1 3698   1.248   1.644  10.038
 1122SOL    HW2 3699   1.295   1.570  10.176
 1123SOL     OW 3700   0.459   1.152  10.051
 1123SOL    HW1 3701   0.388   1.125  10.116
 1123SOL    HW2 3702   0.433   1.124   9.958
 1124SOL     OW 3703   1.271   1.797   9.901
 1124SOL    HW1 3704   1.315   1.861   9.837
 1124SOL    HW2 3705   1.221   1.849   9.971
 1125SOL     OW 3706   1.032   0.549   9.326
 1125SOL    HW1 3707   0.991   0.631   9.287
 1125SOL    HW2 3708   1.096   0.575   9.399
 1126SOL     OW 3709   0.078   0.556  10.696
 1126SOL    HW1 3710   0.170   0.555  10.655
 1126SOL    HW2 3711   0.072   0.630  10.763
 1127SOL     OW 3712   0.561   0.222  10.457
 1127SOL    HW1 3713   0.599   0.138  10.494
 1127SOL    HW2 3714   0.473   0.241  10.501
 1128SOL     OW 3715   0.866   0.454   9.952
 1128SOL    HW1 3716   0.834   0.526   9.890
 1128SOL    HW2 3717   0.890   0.373   9.899
 1129SOL     OW 3718   1.017   0.039  10.063
 1129SOL    HW1 3719   0.945   0.044   9.994
 1129SOL    HW2 3720   0.993  -0.030  10.132
 1130SOL     OW 3721   1.429   1.173  10.177
 1130SOL    HW1 3722   1.374   1.089  10.170
 1130SOL    HW2 3723   1.455   1.202  10.085
 1131SOL     OW 3724   1.466   0.590  10.302
 1131SOL    HW1 3725   1.436   0.495  10.309
 1131SOL    HW2 3726   1.539   0.606  10.368
 1132SOL     OW 3727   1.857   0.833   9.687
 1132SOL    HW1 3728   1.899   0.769   9.751
 1132SOL    HW2 3729   1.819   0.782   9.609
 1133SOL     OW 3730   0.488   1.385   9.484
 1133SOL    HW1 3731   0.401   1.370   9.531
 1133SOL    HW2 3732   0.471   1.411   9.389
 1134SOL     OW 3733   1.664   1.280   9.967
 1134SOL    HW1 3734   1.763   1.288   9.981
 1134SOL    HW2 3735   1.619   1.364   9.998
 1135SOL     OW 3736   1.390   0.575   9.388
 1135SOL    HW1 3737   1.336   0.554   9.469
 1135SOL    HW2 3738   1.481   0.534   9.397
 1136SOL     OW 3739   0.527   0.256   9.638
 1136SOL    HW1 3740   0.554   0.197   9.563
 1136SOL    HW2 3741   0.527   0.351   9.607
 1137SOL     OW 3742   1.064   1.347  10.650
 1137SOL    HW1 3743   0.984   1.324  10.705
 1137SOL    HW2 3744   1.147   1.321  10.699
 1138SOL     OW 3745   1.111   1.195  10.410
 1138SOL    HW1 3746   1.071   1.239  10.491
 1138SOL    HW2 3747   1.070   1.232  10.327
 1139SOL     OW 3748   1.638   1.099  10.389
 1139SOL    HW1 3749   1.643   1.180  10.448
 1139SOL    HW2 3750   1.552   1.101  10.338
 1140SOL     OW 3751   0.705   1.050   9.678
 1140SOL    HW1 3752   0.691   1.057   9.777
 1140SOL    HW2 3753   0.789   0.999   9.660
 1141SOL     OW 3754   0.410   0.813  10.561
 1141SOL    HW1 3755   0.496   0.825  10.611
 1141SOL    HW2 3756   0.368   0.726  10.588
 1142SOL     OW 3757   1.274   0.386  10.572
 1142SOL    HW1 3758   1.295   0.460  10.636
 1142SOL    HW2 3759   1.185   0.403  10.529
 1143SOL     OW 3760   0.064   1.564  10.641
 1143SOL    HW1 3761   0.018   1.646  10.607
 1143SOL    HW2 3762   0.162   1.583  10.650
 1144SOL     OW 3763   0.367   1.100   9.811
 1144SOL    HW1 3764   0.360   1.183   9.755
 1144SOL    HW2 3765   0.371   1.020   9.751
 1145SOL     OW 3766   0.566   0.537  10.175
 1145SOL    HW1 3767   0.578   0.603  10.101
 1145SOL    HW2 3768   0.612   0.571  10.258
 1146SOL     OW 3769   1.252   1.348   9.698
 1146SOL    HW1 3770   1.302   1.425   9.738
 1146SOL    HW2 3771   1.157   1.350   9.730
 1147SOL     OW 3772   1.272   1.445  10.452
 1147SOL    HW1 3773   1.319   1.458  10.539
 1147SOL    HW2 3774   1.206   1.371  10.461
 1148SOL     OW 3775   1.582   0.639   9.782
 1148SOL    HW1 3776   1.551   0.700   9.855
 1148SOL    HW2 3777   1.632   0.691   9.713
 1149SOL     OW 3778   0.354   1.510  10.639
 1149SOL    HW1 3779   0.333   1.466  10.552
 1149SOL    HW2 3780   0.451   1.536  10.642
 1150SOL     OW 3781   0.402   0.751  10.908
 1150SOL    HW1 3782   0.470   0.806  10.861
 1150SOL    HW2 3783   0.442   0.663  10.935
 1151SOL     OW 3784   0.573   0.870  10.339
 1151SOL    HW1 3785   0.617   0.959  10.330
 1151SOL    HW2 3786   0.510   0.870  10.416
 1152SOL     OW 3787   1.360   0.862  10.355
 1152SOL    HW1 3788   1.285   0.862  10.289
 1152SOL    HW2 3789   1.397   0.770  10.364
 1153SOL     OW 3790   1.209   0.525   9.585
 1153SOL    HW1 3791   1.222   0.441   9.639
 1153SOL    HW2 3792   1.180   0.599   9.645
 1154SOL     OW 3793   0.307   0.213  10.541
 1154SOL    HW1 3794   0.284   0.250  10.631
 1154SOL    HW2 3795   0.277   0.118  10.535
 1155SOL     OW 3796   0.037   1.310  10.592
 1155SOL    HW1 3797   0.090   1.261  10.660
 1155SOL    HW2 3798   0.059   1.408  10.597
 1156SOL     OW 3799   0.732   0.634  10.374
 1156SOL    HW1 3800   0.791   0.608  10.298
 1156SOL    HW2 3801   0.704   0.730  10.363
 1157SOL     OW 3802   0.307   0.063   9.928
 1157SOL    HW1 3803   0.296   0.157   9.961
 1157SOL    HW2 3804   0.302   0.000  10.005
 1158SOL     OW 3805   1.622   0.367   9.684
 1158SOL    HW1 3806   1.624   0.291   9.748
 1158SOL    HW2 3807   1.574   0.444   9.724
 1159SOL     OW 3808   1.023   0.766  10.276
 1159SOL    HW1 3809   1.038   0.787  10.372
 1159SOL    HW2 3810   0.993   0.671  10.267
 1160SOL     OW 3811   0.980   1.573  11.010
 1160SOL    HW1 3812   0.960   1.617  10.922
 1160SOL    HW2 3813   1.019   1.482  10.994
 1161SOL     OW 3814   1.540   0.274   9.435
 1161SOL    HW1 3815   1.479   0.199   9.458
 1161SOL    HW2 3816   1.562   0.326   9.518
 1162SOL     OW 3817   1.303   0.838   9.352
 1162SOL    HW1 3818   1.337   0.745   9.367
 1162SOL    HW2 3819   1.321   0.865   9.257
 1163SOL     OW 3820   1.068   1.333  10.159
 1163SOL    HW1 3821   1.075   1.249  10.104
 1163SOL    HW2 3822   1.130   1.402  10.123
 1164SOL     OW 3823   0.319   0.810  10.259
 1164SOL    HW1 3824   0.412   0.846  10.264
 1164SOL    HW2 3825   0.313   0.725  10.311
 1165SOL     OW 3826   0.339   0.509  10.316
 1165SOL    HW1 3827   0.287   0.426  10.299
 1165SOL    HW2 3828   0.416   0.514  10.252
 1166SOL     OW 3829   1.160   0.207  10.787
 1166SOL    HW1 3830   1.160   0.271  10.864
 1166SOL    HW2 3831   1.188   0.255  10.704
 1167SOL     OW 3832   0.008   1.326   9.510
 1167SOL    HW1 3833  -0.085   1.347   9.479
 1167SOL    HW2 3834   0.018   1.227   9.523
 1168SOL     OW 3835   0.088   1.801  10.237
 1168SOL    HW1 3836   0.046   1.715  10.210
 1168SOL    HW2 3837   0.182   1.804  10.203
 1169SOL     OW 3838   0.504   1.568  10.220
 1169SOL    HW1 3839   0.570   1.642  10.229
 1169SOL    HW2 3840   0.548   1.489  10.178
 1170SOL     OW 3841   1.002   0.796  10.548
 1170SOL    HW1 3842   1.043   0.764  10.634
 1170SOL    HW2 3843   0.906   0.769  10.545
 1171SOL     OW 3844   0.040   0.544  10.424
 1171SOL    HW1 3845   0.125   0.511  10.383
 1171SOL    HW2 3846   0.053   0.559  10.522
 1172SOL     OW 3847   0.815   0.572   9.635
 1172SOL    HW1 3848   0.822   0.483   9.589
 1172SOL    HW2 3849   0.721   0.606   9.627
 1173SOL     OW 3850   1.657   0.604  10.516
 1173SOL    HW1 3851   1.619   0.535  10.578
 1173SOL    HW2 3852   1.739   0.568  10.472
 1174SOL     OW 3853   0.671   0.464  10.579
 1174SOL    HW1 3854   0.637   0.375  10.549
 1174SOL    HW2 3855   0.697   0.518  10.499
 1175SOL     OW 3856   0.930   1.678  10.775
 1175SOL    HW1 3857   0.906   1.660  10.680
 1175SOL    HW2 3858   0.960   1.772  10.785
 1176SOL     OW 3859   0.473   0.500   9.501
 1176SOL    HW1 3860   0.534   0.580   9.505
 1176SOL    HW2 3861   0.378   0.531   9.508
 1177SOL     OW 3862   0.159   1.137  10.776
 1177SOL    HW1 3863   0.181   1.076  10.852
 1177SOL    HW2 3864   0.169   1.088  10.690
 1178SOL     OW 3865   1.347   1.059  10.544
 1178SOL    HW1 3866   1.371   0.996  10.470
 1178SOL    HW2 3867   1.257   1.099  10.526
 1179SOL     OW 3868   1.302   0.855   9.619
 1179SOL    HW1 3869   1.216   0.824   9.661
 1179SOL    HW2 3870   1.298   0.841   9.520
 1180SOL     OW 3871   1.759   1.747  10.464
 1180SOL    HW1 3872   1.820   1.777  10.391
 1180SOL    HW2 3873   1.721   1.658  10.442
 1181SOL     OW 3874   1.252   1.731  10.438
 1181SOL    HW1 3875   1.336   1.736  10.384
 1181SOL    HW2 3876   1.229   1.635  10.456
 1182SOL     OW 3877   0.083   1.258  10.332
 1182SOL    HW1 3878   0.078   1.257  10.432
 1182SOL    HW2 3879   0.000   1.217  10.294
 1183SOL     OW 3880   1.726   0.135   9.833
 1183SOL    HW1 3881   1.799   0.118   9.766
 1183SOL    HW2 3882   1.695   0.048   9.871
 1184SOL     OW 3883   1.388   1.573   9.787
 1184SOL    HW1 3884   1.455   1.585   9.713
 1184SOL    HW2 3885   1.348   1.662   9.810
 1185SOL     OW 3886   1.280   0.927   9.982
 1185SOL    HW1 3887   1.340   0.846   9.984
 1185SOL    HW2 3888   1.320   0.996   9.922
 1186SOL     OW 3889   0.672   1.616   9.464
 1186SOL    HW1 3890   0.681   1.626   9.365
 1186SOL    HW2 3891   0.632   1.527   9.485
 1187SOL     OW 3892   1.650   1.720  10.704
 1187SOL    HW1 3893   1.703   1.730  10.620
 1187SOL    HW2 3894   1.623   1.810  10.738
 1188SOL     OW 3895   1.841   0.175  10.273
 1188SOL    HW1 3896   1.880   0.090  10.237
 1188SOL    HW2 3897   1.743   0.177  10.254
 1189SOL     OW 3898   0.263   0.326  10.030
 1189SOL    HW1 3899   0.184   0.377   9.996
 1189SOL    HW2 3900   0.254   0.311  10.128
 1190SOL     OW 3901   1.194   1.612   9.341
 1190SOL    HW1 3902   1.200   1.519   9.378
 1190SOL    HW2 3903   1.135   1.612   9.261
 1191SOL     OW 3904   0.822   1.002  10.682
 1191SOL    HW1 3905   0.862   1.001  10.590
 1191SOL    HW2 3906   0.832   1.094  10.722
 1192SOL     OW 3907   0.916   0.910   9.601
 1192SOL    HW1 3908   0.979   0.948   9.533
 1192SOL    HW2 3909   0.956   0.827   9.640
 1193SOL     OW 3910   1.504   1.607   9.354
 1193SOL    HW1 3911   1.412   1.644   9.361
 1193SOL    HW2 3912   1.542   1.627   9.264
 1194SOL     OW 3913   0.372   1.288  10.800
 1194SOL    HW1 3914   0.359   1.381  10.766
 1194SOL    HW2 3915   0.288   1.236  10.787
 1195SOL     OW 3916   1.614   1.292  10.599
 1195SOL    HW1 3917   1.674   1.295  10.679
 1195SOL    HW2 3918   1.539   1.356  10.612
 1196SOL     OW 3919   1.039   1.098  10.006
 1196SOL    HW1 3920   0.969   1.051  10.060
 1196SOL    HW2 3921   1.098   1.030   9.963
 1197SOL     OW 3922   1.014   0.236  10.281
 1197SOL    HW1 3923   1.006   0.200  10.188
 1197SOL    HW2 3924   1.012   0.160  10.346
 1198SOL     OW 3925   0.590   1.487   9.801
 1198SOL    HW1 3926   0.632   1.429   9.731
 1198SOL    HW2 3927   0.546   1.566   9.757
 1199SOL     OW 3928   1.709   0.385  10.691
 1199SOL    HW1 3929   1.782   0.454  10.695
 1199SOL    HW2 3930   1.737   0.310  10.632
 1200SOL     OW 3931   0.255   1.348   9.600
 1200SOL    HW1 3932   0.159   1.349   9.573
 1200SOL    HW2 3933   0.267   1.401   9.684
 1201SOL     OW 3934   0.075   0.345   9.343
 1201SOL    HW1 3935  -0.017   0.317   9.314
 1201SOL    HW2 3936   0.106   0.422   9.287
 1202SOL     OW 3937   0.072   0.166   9.628
 1202SOL    HW1 3938   0.055   0.249   9.574
 1202SOL    HW2 3939   0.162   0.129   9.606
 1203SOL     OW 3940   1.183   1.335   9.429
 1203SOL    HW1 3941   1.084   1.324   9.431
 1203SOL    HW2 3942   1.217   1.350   9.522
 1204SOL     OW 3943   0.613   0.842  10.741
 1204SOL    HW1 3944   0.669   0.923  10.724
 1204SOL    HW2 3945   0.672   0.762  10.744
 1205SOL     OW 3946   1.493   1.767  10.269
 1205SOL    HW1 3947   1.526   1.831  10.200
 1205SOL    HW2 3948   1.559   1.761  10.344
 1206SOL     OW 3949   0.390   1.741  10.870
 1206SOL    HW1 3950   0.299   1.782  10.868
 1206SOL    HW2 3951   0.383   1.647  10.902
 1207SOL     OW 3952   1.674   0.883  10.564
 1207SOL    HW1 3953   1.647   0.794  10.527
 1207SOL    HW2 3954   1.675   0.951  10.491
 1208SOL     OW 3955   1.225   0.325   9.759
 1208SOL    HW1 3956   1.290   0.251   9.748
 1208SOL    HW2 3957   1.245   0.375   9.843
 1209SOL     OW 3958   0.594   0.745   9.962
 1209SOL    HW1 3959   0.644   0.830   9.943
 1209SOL    HW2 3960   0.506   0.747   9.914
 1210SOL     OW 3961   1.730   0.934  10.827
 1210SOL    HW1 3962   1.768   1.025  10.842
 1210SOL    HW2 3963   1.722   0.917  10.728
 1211SOL     OW 3964   0.859   1.374   9.326
 1211SOL    HW1 3965   0.813   1.389   9.414
 1211SOL    HW2 3966   0.903   1.459   9.296
 1212SOL     OW 3967   0.661   1.790  10.263
 1212SOL    HW1 3968   0.615   1.878  10.250
 1212SOL    HW2 3969   0.760   1.802  10.256
 1213SOL     OW 3970   0.859   0.956  10.171
 1213SOL    HW1 3971   0.913   0.887  10.219
 1213SOL    HW2 3972   0.827   1.025  10.237
 1214SOL     OW 3973   1.083   0.984   9.397
 1214SOL    HW1 3974   1.060   1.037   9.315
 1214SOL    HW2 3975   1.164   0.928   9.378
 1215SOL     OW 3976   1.861   1.569  10.161
 1215SOL    HW1 3977   1.790   1.557  10.091
 1215SOL    HW2 3978   1.862   1.490  10.221
 1216SOL     OW 3979   0.079   1.240   9.963
 1216SOL    HW1 3980   0.078   1.193  10.051
 1216SOL    HW2 3981   0.161   1.212   9.912
 1217SOL     OW 3982   1.824   0.192  10.537
 1217SOL    HW1 3983   1.820   0.102  10.581
 1217SOL    HW2 3984   1.827   0.181  10.438
 1218SOL     OW 3985   0.428   0.424   9.830
 1218SOL    HW1 3986   0.458   0.352   9.768
 1218SOL    HW2 3987   0.389   0.384   9.913
 1219SOL     OW 3988   1.705   1.487  10.414
 1219SOL    HW1 3989   1.612   1.462  10.387
 1219SOL    HW2 3990   1.731   1.437  10.496
 1220SOL     OW 3991   0.317   0.547  10.590
 1220SOL    HW1 3992   0.355   0.488  10.662
 1220SOL    HW2 3993   0.357   0.521  10.502
 1221SOL     OW 3994   0.812   1.586   9.997
 1221SOL    HW1 3995   0.844   1.596   9.903
 1221SOL    HW2 3996   0.733   1.524   9.999
 1222SOL     OW 3997   1.424   0.214  10.422
 1222SOL    HW1 3998   1.476   0.149  10.477
 1222SOL    HW2 3999   1.375   0.277  10.483
 1223SOL     OW 4000   1.001   0.034  10.464
 1223SOL    HW1 4001   0.938  -0.038  10.433
 1223SOL    HW2 4002   1.094  -0.002  10.464
 1224SOL     OW 4003   0.770   1.330   9.611
 1224SOL    HW1 4004   0.724   1.243   9.628
 1224SOL    HW2 4005   0.861   1.327   9.652
 1225SOL     OW 4006   0.618   1.567  10.594
 1225SOL    HW1 4007   0.613   1.649  10.651
 1225SOL    HW2 4008   0.707   1.564  10.549
 1226SOL     OW 4009   1.352   0.052   9.478
 1226SOL    HW1 4010   1.387   0.011   9.394
 1226SOL    HW2 4011   1.262   0.014   9.498
 1227SOL     OW 4012   1.300   0.453  10.001
 1227SOL    HW1 4013   1.241   0.533  10.005
 1227SOL    HW2 4014   1.315   0.418  10.094
 1228SOL     OW 4015   1.593   0.221  10.192
 1228SOL    HW1 4016   1.509   0.220  10.246
 1228SOL    HW2 4017   1.595   0.304  10.136
 1229SOL     OW 4018   0.039   1.077   9.610
 1229SOL    HW1 4019   0.138   1.066   9.601
 1229SOL    HW2 4020  -0.001   0.991   9.642
 1230SOL     OW 4021   0.875   1.646   9.647
 1230SOL    HW1 4022   0.798   1.611   9.593
 1230SOL    HW2 4023   0.843   1.717   9.709
 1231SOL     OW 4024   0.230   2.490   0.113
 1231SOL    HW1 4025   0.137   2.488   0.150
 1231SOL    HW2 4026   0.231   2.451   0.021
 1232SOL     OW 4027   0.225   2.137   0.996
 1232SOL    HW1 4028   0.260   2.120   1.088
 1232SOL    HW2 4029   0.137   2.092   0.984
 1233SOL     OW 4030   0.019   2.230   0.647
 1233SOL    HW1 4031  -0.063   2.273   0.686
 1233SOL    HW2 4032  -0.009   2.157   0.584
 1234SOL     OW 4033   0.569   3.137   1.165
 1234SOL    HW1 4034   0.476   3.130   1.128
 1234SOL    HW2 4035   0.580   3.226   1.209
 1235SOL     OW 4036   1.555   3.373   0.703
 1235SOL    HW1 4037   1.498   3.357   0.784
 1235SOL    HW2 4038   1.496   3.383   0.623
 1236SOL     OW 4039   1.135   2.565   0.717
 1236SOL    HW1 4040   1.192   2.643   0.692
 1236SOL    HW2 4041   1.075   2.591   0.793
 1237SOL     OW 4042   1.755   2.469   0.231
 1237SOL    HW1 4043   1.743   2.456   0.132
 1237SOL    HW2 4044   1.725   2.388   0.280
 1238SOL     OW 4045   0.768   3.006   1.023
 1238SOL    HW1 4046   0.690   3.023   1.083
 1238SOL    HW2 4047   0.802   3.093   0.987
 1239SOL     OW 4048   0.850   2.660   1.823
 1239SOL    HW1 4049   0.846   2.736   1.888
 1239SOL    HW2 4050   0.872   2.696   1.732
 1240SOL     OW 4051   0.685   2.874   0.665
 1240SOL    HW1 4052   0.754   2.858   0.735
 1240SOL    HW2 4053   0.612   2.931   0.703
 1241SOL     OW 4054   0.686   3.023   1.803
 1241SOL    HW1 4055   0.746   3.102   1.817
 1241SOL    HW2 4056   0.600   3.054   1.762
 1242SOL     OW 4057   0.335   3.297   1.061
 1242SOL    HW1 4058   0.257   3.266   1.008
 1242SOL    HW2 4059   0.393   3.355   1.004
 1243SOL     OW 4060   1.460   3.367   1.339
 1243SOL    HW1 4061   1.484   3.461   1.365
 1243SOL    HW2 4062   1.444   3.313   1.421
 1244SOL     OW 4063   0.438   2.254   1.499
 1244SOL    HW1 4064   0.520   2.198   1.508
 1244SOL    HW2 4065   0.357   2.196   1.503
 1245SOL     OW 4066   1.603   2.309   0.737
 1245SOL    HW1 4067   1.529   2.355   0.687
 1245SOL    HW2 4068   1.654   2.377   0.790
 1246SOL     OW 4069   0.231   3.575   0.483
 1246SOL    HW1 4070   0.265   3.652   0.537
 1246SOL    HW2 4071   0.275   3.575   0.393
 1247SOL     OW 4072   1.127   3.203   1.690
 1247SOL    HW1 4073   1.174   3.203   1.778
 1247SOL    HW2 4074   1.079   3.116   1.679
 1248SOL     OW 4075   0.230   3.296   0.538
 1248SOL    HW1 4076   0.204   3.392   0.538
 1248SOL    HW2 4077   0.159   3.242   0.583
 1249SOL     OW 4078   0.240   2.953   0.886
 1249SOL    HW1 4079   0.254   2.869   0.938
 1249SOL    HW2 4080   0.185   3.017   0.941
 1250SOL     OW 4081   0.620   3.648   1.439
 1250SOL    HW1 4082   0.528   3.631   1.474
 1250SOL    HW2 4083   0.648   3.740   1.465
 1251SOL     OW 4084   0.606   2.826   0.123
 1251SOL    HW1 4085   0.613   2.910   0.069
 1251SOL    HW2 4086   0.652   2.839   0.211
 1252SOL     OW 4087   1.594   1.976   1.480
 1252SOL    HW1 4088   1.576   2.043   1.408
 1252SOL    HW2 4089   1.591   2.022   1.569
 1253SOL     OW 4090   0.122   2.505   0.563
 1253SOL    HW1 4091   0.077   2.417   0.580
 1253SOL    HW2 4092   0.121   2.559   0.647
 1254SOL     OW 4093   1.842   3.629   0.359
 1254SOL    HW1 4094   1.896   3.600   0.439
 1254SOL    HW2 4095   1.872   3.719   0.330
 1255SOL     OW 4096   0.027   3.458   0.117
 1255SOL    HW1 4097   0.008   3.362   0.138
 1255SOL    HW2 4098  -0.006   3.516   0.192
 1256SOL     OW 4099   1.689   2.784   0.612
 1256SOL    HW1 4100   1.784   2.755   0.620
 1256SOL    HW2 4101   1.681   2.849   0.537
 1257SOL     OW 4102   1.641   2.970   0.432
 1257SOL    HW1 4103   1.727   2.972   0.380
 1257SOL    HW2 4104   1.655   3.017   0.520
 1258SOL     OW 4105   0.113   2.599   1.597
 1258SOL    HW1 4106   0.201   2.586   1.642
 1258SOL    HW2 4107   0.100   2.696   1.575
 1259SOL     OW 4108   0.613   3.227   0.726
 1259SOL    HW1 4109   0.564   3.140   0.735
 1259SOL    HW2 4110   0.590   3.270   0.639
 1260SOL     OW 4111   1.293   3.090   1.423
 1260SOL    HW1 4112   1.330   3.017   1.365
 1260SOL    HW2 4113   1.345   3.095   1.508
 1261SOL     OW 4114   0.809   1.866   0.502
 1261SOL    HW1 4115   0.849   1.957   0.493
 1261SOL    HW2 4116   0.709   1.874   0.508
 1262SOL     OW 4117   0.197   2.838   1.264
 1262SOL    HW1 4118   0.286   2.793   1.250
 1262SOL    HW2 4119   0.124   2.773   1.245
 1263SOL     OW 4120   1.525   2.861   0.190
 1263SOL    HW1 4121   1.462   2.785   0.203
 1263SOL    HW2 4122   1.573   2.879   0.276
 1264SOL     OW 4123   1.187   3.654   1.616
 1264SOL    HW1 4124   1.211   3.714   1.540
 1264SOL    HW2 4125   1.194   3.559   1.586
 1265SOL     OW 4126   0.317   2.113   1.801
 1265SOL    HW1 4127   0.388   2.184   1.807
 1265SOL    HW2 4128   0.229   2.152   1.829
 1266SOL     OW 4129   1.466   3.279   0.953
 1266SOL    HW1 4130   1.407   3.285   1.033
 1266SOL    HW2 4131   1.451   3.191   0.907
 1267SOL     OW 4132   1.667   3.576   0.572
 1267SOL    HW1 4133   1.626   3.553   0.484
 1267SOL    HW2 4134   1.649   3.502   0.637
 1268SOL     OW 4135   0.598   2.591   0.270
 1268SOL    HW1 4136   0.622   2.660   0.202
 1268SOL    HW2 4137   0.520   2.624   0.324
 1269SOL     OW 4138   1.281   2.207   0.944
 1269SOL    HW1 4139   1.195   2.157   0.931
 1269SOL    HW2 4140   1.343   2.153   1.000
 1270SOL     OW 4141   1.576   3.524   0.307
 1270SOL    HW1 4142   1.665   3.570   0.310
 1270SOL    HW2 4143   1.555   3.500   0.212
 1271SOL     OW 4144   0.807   2.467   1.465
 1271SOL    HW1 4145   0.760   2.464   1.554
 1271SOL    HW2 4146   0.756   2.412   1.399
 1272SOL     OW 4147   1.394   2.331   1.674
 1272SOL    HW1 4148   1.374   2.374   1.762
 1272SOL    HW2 4149   1.472   2.269   1.683
 1273SOL     OW 4150   0.973   2.752   1.572
 1273SOL    HW1 4151   1.019   2.668   1.543
 1273SOL    HW2 4152   0.917   2.786   1.497
 1274SOL     OW 4153   0.991   2.272   1.242
 1274SOL    HW1 4154   0.914   2.306   1.296
 1274SOL    HW2 4155   0.957   2.221   1.163
 1275SOL     OW 4156   1.041   2.563   0.429
 1275SOL    HW1 4157   1.067   2.559   0.525
 1275SOL    HW2 4158   0.956   2.512   0.415
 1276SOL     OW 4159   0.076   2.673   0.789
 1276SOL    HW1 4160   0.175   2.661   0.798
 1276SOL    HW2 4161   0.052   2.768   0.810
 1277SOL     OW 4162   0.130   3.683   1.571
 1277SOL    HW1 4163   0.120   3.668   1.670
 1277SOL    HW2 4164   0.044   3.719   1.535
 1278SOL     OW 4165   0.865   2.210   0.195
 1278SOL    HW1 4166   0.924   2.273   0.146
 1278SOL    HW2 4167   0.884   2.116   0.166
 1279SOL     OW 4168   1.719   2.447   1.831
 1279SOL    HW1 4169   1.693   2.536   1.795
 1279SOL    HW2 4170   1.717   2.379   1.758
 1280SOL     OW 4171   1.362   3.006   0.545
 1280SOL    HW1 4172   1.445   2.977   0.497
 1280SOL    HW2 4173   1.313   3.073   0.489
 1281SOL     OW 4174   0.550   2.058   0.885
 1281SOL    HW1 4175   0.545   2.053   0.985
 1281SOL    HW2 4176   0.552   2.154   0.856
 1282SOL     OW 4177   1.008   3.318   0.477
 1282SOL    HW1 4178   0.962   3.390   0.425
 1282SOL    HW2 4179   1.004   3.338   0.575
 1283SOL     OW 4180   0.351   3.663   0.853
 1283SOL    HW1 4181   0.401   3.577   0.859
 1283SOL    HW2 4182   0.416   3.740   0.850
 1284SOL     OW 4183   1.795   2.928   0.873
 1284SOL    HW1 4184   1.733   2.913   0.797
 1284SOL    HW2 4185   1.743   2.939   0.958
 1285SOL     OW 4186   1.227   3.412   1.506
 1285SOL    HW1 4187   1.233   3.335   1.570
 1285SOL    HW2 4188   1.175   3.386   1.426
 1286SOL     OW 4189   0.321   2.805   0.242
 1286SOL    HW1 4190   0.403   2.844   0.200
 1286SOL    HW2 4191   0.294   2.723   0.193
 1287SOL     OW 4192   1.458   2.597   0.728
 1287SOL    HW1 4193   1.453   2.532   0.803
 1287SOL    HW2 4194   1.538   2.656   0.741
 1288SOL     OW 4195   0.461   3.128   1.727
 1288SOL    HW1 4196   0.411   3.129   1.641
 1288SOL    HW2 4197   0.398   3.110   1.803
 1289SOL     OW 4198   1.111   3.638   0.237
 1289SOL    HW1 4199   1.051   3.576   0.287
 1289SOL    HW2 4200   1.142   3.594   0.152
 1290SOL     OW 4201   0.202   2.147   1.498
 1290SOL    HW1 4202   0.122   2.207   1.485
 1290SOL    HW2 4203   0.192   2.098   1.584
 1291SOL     OW 4204   1.632   3.239   0.081
 1291SOL    HW1 4205   1.600   3.333   0.071
 1291SOL    HW2 4206   1.556   3.176   0.069
 1292SOL     OW 4207   0.464   3.605   0.323
 1292SOL    HW1 4208   0.497   3.644   0.409
 1292SOL    HW2 4209   0.540   3.598   0.258
 1293SOL     OW 4210   1.400   1.969   0.426
 1293SOL    HW1 4211   1.376   1.932   0.336
 1293SOL    HW2 4212   1.499   1.985   0.430
 1294SOL     OW 4213   0.249   3.647   1.241
 1294SOL    HW1 4214   0.306   3.582   1.291
 1294SOL    HW2 4215   0.233   3.614   1.148
 1295SOL     OW 4216   0.940   3.560   0.904
 1295SOL    HW1 4217   1.020   3.503   0.925
 1295SOL    HW2 4218   0.891   3.520   0.827
 1296SOL     OW 4219   0.382   2.562   0.480
 1296SOL    HW1 4220   0.427   2.472   0.477
 1296SOL    HW2 4221   0.288   2.551   0.513
 1297SOL     OW 4222   1.547   2.084   1.729
 1297SOL    HW1 4223   1.542   2.121   1.821
 1297SOL    HW2 4224   1.475   2.015   1.717
 1298SOL     OW 4225   0.781   2.126   1.749
 1298SOL    HW1 4226   0.848   2.065   1.792
 1298SOL    HW2 4227   0.708   2.145   1.814
 1299SOL     OW 4228   0.888   3.376   1.195
 1299SOL    HW1 4229   0.865   3.351   1.101
 1299SOL    HW2 4230   0.949   3.307   1.234
 1300SOL     OW 4231   1.351   2.452   1.433
 1300SOL    HW1 4232   1.379   2.409   1.518
 1300SOL    HW2 4233   1.376   2.548   1.434
 1301SOL     OW 4234   0.803   3.264   0.924
 1301SOL    HW1 4235   0.893   3.278   0.882
 1301SOL    HW2 4236   0.732   3.266   0.853
 1302SOL     OW 4237   0.922   2.365   0.899
 1302SOL    HW1 4238   0.897   2.356   0.803
 1302SOL    HW2 4239   0.970   2.283   0.930
 1303SOL     OW 4240   0.539   1.926   0.512
 1303SOL    HW1 4241   0.458   1.927   0.570
 1303SOL    HW2 4242   0.542   2.009   0.457
 1304SOL     OW 4243   1.434   3.050   0.041
 1304SOL    HW1 4244   1.466   2.974   0.098
 1304SOL    HW2 4245   1.342   3.077   0.071
 1305SOL     OW 4246   0.297   1.897   0.171
 1305SOL    HW1 4247   0.346   1.981   0.150
 1305SOL    HW2 4248   0.359   1.832   0.216
 1306SOL     OW 4249   0.935   2.098   0.480
 1306SOL    HW1 4250   0.887   2.139   0.402
 1306SOL    HW2 4251   1.034   2.096   0.461
 1307SOL     OW 4252   1.076   2.545   1.464
 1307SOL    HW1 4253   0.996   2.484   1.467
 1307SOL    HW2 4254   1.157   2.492   1.440
 1308SOL     OW 4255   1.227   3.432   0.793
 1308SOL    HW1 4256   1.248   3.506   0.728
 1308SOL    HW2 4257   1.295   3.432   0.866
 1309SOL     OW 4258   0.459   3.014   0.741
 1309SOL    HW1 4259   0.388   2.987   0.806
 1309SOL    HW2 4260   0.433   2.986   0.648
 1310SOL     OW 4261   1.271   3.659   0.591
 1310SOL    HW1 4262   1.315   3.723   0.527
 1310SOL    HW2 4263   1.221   3.711   0.661
 1311SOL     OW 4264   1.032   2.411   0.016
 1311SOL    HW1 4265   0.991   2.493  -0.023
 1311SOL    HW2 4266   1.096   2.437   0.089
 1312SOL     OW 4267   0.078   2.418   1.386
 1312SOL    HW1 4268   0.170   2.417   1.345
 1312SOL    HW2 4269   0.072   2.492   1.453
 1313SOL     OW 4270   0.561   2.084   1.147
 1313SOL    HW1 4271   0.599   2.000   1.184
 1313SOL    HW2 4272   0.473   2.103   1.191
 1314SOL     OW 4273   0.866   2.316   0.642
 1314SOL    HW1 4274   0.834   2.388   0.580
 1314SOL    HW2 4275   0.890   2.235   0.589
 1315SOL     OW 4276   1.017   1.901   0.753
 1315SOL    HW1 4277   0.945   1.906   0.684
 1315SOL    HW2 4278   0.993   1.832   0.822
 1316SOL     OW 4279   1.429   3.035   0.867
 1316SOL    HW1 4280   1.374   2.951   0.860
 1316SOL    HW2 4281   1.455   3.064   0.775
 1317SOL     OW 4282   1.466   2.452   0.992
 1317SOL    HW1 4283   1.436   2.357   0.999
 1317SOL    HW2 4284   1.539   2.468   1.058
 1318SOL     OW 4285   1.857   2.695   0.377
 1318SOL    HW1 4286   1.899   2.631   0.441
 1318SOL    HW2 4287   1.819   2.644   0.299
 1319SOL     OW 4288   0.488   3.247   0.174
 1319SOL    HW1 4289   0.401   3.232   0.221
 1319SOL    HW2 4290   0.471   3.273   0.079
 1320SOL     OW 4291   1.664   3.142   0.657
 1320SOL    HW1 4292   1.763   3.150   0.671
 1320SOL    HW2 4293   1.619   3.226   0.688
 1321SOL     OW 4294   1.390   2.437   0.078
 1321SOL    HW1 4295   1.336   2.416   0.159
 1321SOL    HW2 4296   1.481   2.396   0.087
 1322SOL     OW 4297   0.527   2.118   0.328
 1322SOL    HW1 4298   0.554   2.059   0.253
 1322SOL    HW2 4299   0.527   2.213   0.297
 1323SOL     OW 4300   1.754   3.085   1.588
 1323SOL    HW1 4301   1.845   3.046   1.575
 1323SOL    HW2 4302   1.762   3.181   1.612
 1324SOL     OW 4303   1.064   3.209   1.340
 1324SOL    HW1 4304   0.984   3.186   1.395
 1324SOL    HW2 4305   1.147   3.183   1.389
 1325SOL     OW 4306   1.592   3.491   1.625
 1325SOL    HW1 4307   1.619   3.525   1.535
 1325SOL    HW2 4308   1.671   3.453   1.671
 1326SOL     OW 4309   1.111   3.057   1.100
 1326SOL    HW1 4310   1.071   3.101   1.181
 1326SOL    HW2 4311   1.070   3.094   1.017
 1327SOL     OW 4312   1.638   2.961   1.079
 1327SOL    HW1 4313   1.643   3.042   1.138
 1327SOL    HW2 4314   1.552   2.963   1.028
 1328SOL     OW 4315   0.915   1.951   1.402
 1328SOL    HW1 4316   0.940   1.931   1.307
 1328SOL    HW2 4317   0.987   2.007   1.444
 1329SOL     OW 4318   0.980   2.978   1.719
 1329SOL    HW1 4319   0.881   2.984   1.729
 1329SOL    HW2 4320   1.003   2.898   1.663
 1330SOL     OW 4321   0.705   2.912   0.368
 1330SOL    HW1 4322   0.691   2.919   0.467
 1330SOL    HW2 4323   0.789   2.861   0.350
 1331SOL     OW 4324   0.410   2.675   1.251
 1331SOL    HW1 4325   0.496   2.687   1.301
 1331SOL    HW2 4326   0.368   2.588   1.278
 1332SOL     OW 4327   1.274   2.248   1.262
 1332SOL    HW1 4328   1.295   2.322   1.326
 1332SOL    HW2 4329   1.185   2.265   1.219
 1333SOL     OW 4330   0.064   3.426   1.331
 1333SOL    HW1 4331   0.018   3.508   1.297
 1333SOL    HW2 4332   0.162   3.445   1.340
 1334SOL     OW 4333   0.367   2.962   0.501
 1334SOL    HW1 4334   0.360   3.045   0.445
 1334SOL    HW2 4335   0.371   2.882   0.441
 1335SOL     OW 4336   0.566   2.399   0.865
 1335SOL    HW1 4337   0.578   2.465   0.791
 1335SOL    HW2 4338   0.612   2.433   0.948
 1336SOL     OW 4339   1.252   3.210   0.388
 1336SOL    HW1 4340   1.302   3.287   0.428
 1336SOL    HW2 4341   1.157   3.212   0.420
 1337SOL     OW 4342   1.272   3.307   1.142
 1337SOL    HW1 4343   1.319   3.320   1.229
 1337SOL    HW2 4344   1.206   3.233   1.151
 1338SOL     OW 4345   1.582   2.501   0.472
 1338SOL    HW1 4346   1.551   2.562   0.545
 1338SOL    HW2 4347   1.632   2.553   0.403
 1339SOL     OW 4348   0.354   3.372   1.329
 1339SOL    HW1 4349   0.333   3.328   1.242
 1339SOL    HW2 4350   0.451   3.398   1.332
 1340SOL     OW 4351   0.402   2.613   1.598
 1340SOL    HW1 4352   0.470   2.668   1.551
 1340SOL    HW2 4353   0.442   2.525   1.625
 1341SOL     OW 4354   1.587   2.641   1.670
 1341SOL    HW1 4355   1.495   2.679   1.665
 1341SOL    HW2 4356   1.647   2.688   1.605
 1342SOL     OW 4357   1.013   1.967   1.770
 1342SOL    HW1 4358   1.019   2.052   1.718
 1342SOL    HW2 4359   1.045   1.891   1.713
 1343SOL     OW 4360   0.504   1.912   1.740
 1343SOL    HW1 4361   0.462   1.855   1.670
 1343SOL    HW2 4362   0.438   1.981   1.772
 1344SOL     OW 4363   0.573   2.732   1.029
 1344SOL    HW1 4364   0.617   2.821   1.020
 1344SOL    HW2 4365   0.510   2.732   1.106
 1345SOL     OW 4366   1.360   2.724   1.045
 1345SOL    HW1 4367   1.285   2.724   0.979
 1345SOL    HW2 4368   1.397   2.632   1.054
 1346SOL     OW 4369   1.209   2.387   0.275
 1346SOL    HW1 4370   1.222   2.303   0.329
 1346SOL    HW2 4371   1.180   2.461   0.335
 1347SOL     OW 4372   0.307   2.075   1.231
 1347SOL    HW1 4373   0.284   2.112   1.321
 1347SOL    HW2 4374   0.277   1.980   1.225
 1348SOL     OW 4375   0.037   3.172   1.282
 1348SOL    HW1 4376   0.090   3.123   1.350
 1348SOL    HW2 4377   0.059   3.270   1.287
 1349SOL     OW 4378   0.732   2.496   1.064
 1349SOL    HW1 4379   0.791   2.470   0.988
 1349SOL    HW2 4380   0.704   2.592   1.053
 1350SOL     OW 4381   1.728   2.797   1.854
 1350SOL    HW1 4382   1.682   2.790   1.765
 1350SOL    HW2 4383   1.666   2.841   1.920
 1351SOL     OW 4384   0.307   1.925   0.618
 1351SOL    HW1 4385   0.296   2.019   0.651
 1351SOL    HW2 4386   0.302   1.862   0.695
 1352SOL     OW 4387   1.622   2.229   0.374
 1352SOL    HW1 4388   1.624   2.153   0.438
 1352SOL    HW2 4389   1.574   2.306   0.414
 1353SOL     OW 4390   1.023   2.628   0.966
 1353SOL    HW1 4391   1.038   2.649   1.062
 1353SOL    HW2 4392   0.993   2.533   0.957
 1354SOL     OW 4393   0.980   3.435   1.700
 1354SOL    HW1 4394   0.960   3.479   1.612
 1354SOL    HW2 4395   1.019   3.344   1.684
 1355SOL     OW 4396   1.859   3.380   1.605
 1355SOL    HW1 4397   1.873   3.407   1.510
 1355SOL    HW2 4398   1.942   3.402   1.658
 1356SOL     OW 4399   0.350   2.760   1.804
 1356SOL    HW1 4400   0.426   2.804   1.852
 1356SOL    HW2 4401   0.385   2.713   1.722
 1357SOL     OW 4402   1.540   2.136   0.125
 1357SOL    HW1 4403   1.479   2.061   0.148
 1357SOL    HW2 4404   1.562   2.188   0.208
 1358SOL     OW 4405   1.303   2.700   0.042
 1358SOL    HW1 4406   1.337   2.607   0.057
 1358SOL    HW2 4407   1.321   2.727  -0.053
 1359SOL     OW 4408   1.068   3.195   0.849
 1359SOL    HW1 4409   1.075   3.111   0.794
 1359SOL    HW2 4410   1.130   3.264   0.813
 1360SOL     OW 4411   0.319   2.672   0.949
 1360SOL    HW1 4412   0.412   2.708   0.954
 1360SOL    HW2 4413   0.313   2.587   1.001
 1361SOL     OW 4414   0.339   2.371   1.006
 1361SOL    HW1 4415   0.287   2.288   0.989
 1361SOL    HW2 4416   0.416   2.376   0.942
 1362SOL     OW 4417   1.138   2.242   1.678
 1362SOL    HW1 4418   1.093   2.305   1.742
 1362SOL    HW2 4419   1.231   2.273   1.661
 1363SOL     OW 4420   1.160   2.069   1.477
 1363SOL    HW1 4421   1.160   2.133   1.554
 1363SOL    HW2 4422   1.188   2.117   1.394
 1364SOL     OW 4423   0.008   3.188   0.200
 1364SOL    HW1 4424  -0.085   3.209   0.169
 1364SOL    HW2 4425   0.018   3.089   0.213
 1365SOL     OW 4426   0.088   3.663   0.927
 1365SOL    HW1 4427   0.046   3.577   0.900
 1365SOL    HW2 4428   0.182   3.666   0.893
 1366SOL     OW 4429   0.504   3.430   0.910
 1366SOL    HW1 4430   0.570   3.504   0.919
 1366SOL    HW2 4431   0.548   3.351   0.868
 1367SOL     OW 4432   1.002   2.658   1.238
 1367SOL    HW1 4433   1.043   2.626   1.324
 1367SOL    HW2 4434   0.906   2.631   1.235
 1368SOL     OW 4435   0.040   2.406   1.114
 1368SOL    HW1 4436   0.125   2.373   1.073
 1368SOL    HW2 4437   0.053   2.421   1.212
 1369SOL     OW 4438   0.189   2.382   1.722
 1369SOL    HW1 4439   0.248   2.342   1.652
 1369SOL    HW2 4440   0.131   2.453   1.681
 1370SOL     OW 4441   1.369   2.812   1.660
 1370SOL    HW1 4442   1.408   2.901   1.680
 1370SOL    HW2 4443   1.379   2.792   1.563
 1371SOL     OW 4444   0.815   2.434   0.325
 1371SOL    HW1 4445   0.822   2.345   0.279
 1371SOL    HW2 4446   0.721   2.468   0.317
 1372SOL     OW 4447   1.657   2.466   1.206
 1372SOL    HW1 4448   1.619   2.397   1.268
 1372SOL    HW2 4449   1.739   2.430   1.162
 1373SOL     OW 4450   0.252   3.426   1.744
 1373SOL    HW1 4451   0.222   3.483   1.820
 1373SOL    HW2 4452   0.245   3.329   1.770
 1374SOL     OW 4453   0.671   2.326   1.269
 1374SOL    HW1 4454   0.637   2.237   1.239
 1374SOL    HW2 4455   0.697   2.380   1.189
 1375SOL     OW 4456   0.930   3.540   1.465
 1375SOL    HW1 4457   0.906   3.522   1.370
 1375SOL    HW2 4458   0.960   3.634   1.475
 1376SOL     OW 4459   0.473   2.362   0.191
 1376SOL    HW1 4460   0.534   2.442   0.195
 1376SOL    HW2 4461   0.378   2.393   0.198
 1377SOL     OW 4462   0.159   2.999   1.466
 1377SOL    HW1 4463   0.181   2.938   1.542
 1377SOL    HW2 4464   0.169   2.950   1.380
 1378SOL     OW 4465   1.347   2.921   1.234
 1378SOL    HW1 4466   1.371   2.858   1.160
 1378SOL    HW2 4467   1.257   2.961   1.216
 1379SOL     OW 4468   1.302   2.717   0.309
 1379SOL    HW1 4469   1.216   2.686   0.351
 1379SOL    HW2 4470   1.298   2.703   0.210
 1380SOL     OW 4471   1.759   3.609   1.154
 1380SOL    HW1 4472   1.820   3.639   1.081
 1380SOL    HW2 4473   1.721   3.520   1.132
 1381SOL     OW 4474   1.252   3.593   1.128
 1381SOL    HW1 4475   1.336   3.598   1.074
 1381SOL    HW2 4476   1.229   3.497   1.146
 1382SOL     OW 4477   0.083   3.120   1.022
 1382SOL    HW1 4478   0.078   3.119   1.122
 1382SOL    HW2 4479   0.000   3.079   0.984
 1383SOL     OW 4480   0.688   3.524   1.716
 1383SOL    HW1 4481   0.632   3.605   1.725
 1383SOL    HW2 4482   0.740   3.528   1.630
 1384SOL     OW 4483   0.903   1.948   0.133
 1384SOL    HW1 4484   0.954   1.949   0.047
 1384SOL    HW2 4485   0.959   1.906   0.204
 1385SOL     OW 4486   1.726   1.997   0.523
 1385SOL    HW1 4487   1.799   1.980   0.456
 1385SOL    HW2 4488   1.695   1.910   0.561
 1386SOL     OW 4489   1.388   3.435   0.477
 1386SOL    HW1 4490   1.455   3.447   0.403
 1386SOL    HW2 4491   1.348   3.524   0.500
 1387SOL     OW 4492   0.130   3.656   1.851
 1387SOL    HW1 4493   0.089   3.582   1.904
 1387SOL    HW2 4494   0.194   3.707   1.909
 1388SOL     OW 4495   1.280   2.789   0.672
 1388SOL    HW1 4496   1.340   2.708   0.674
 1388SOL    HW2 4497   1.320   2.858   0.612
 1389SOL     OW 4498   0.830   3.135   1.422
 1389SOL    HW1 4499   0.825   3.168   1.517
 1389SOL    HW2 4500   0.744   3.154   1.376
 1390SOL     OW 4501   0.672   3.478   0.154
 1390SOL    HW1 4502   0.681   3.488   0.055
 1390SOL    HW2 4503   0.632   3.389   0.175
 1391SOL     OW 4504   1.650   3.582   1.394
 1391SOL    HW1 4505   1.703   3.592   1.310
 1391SOL    HW2 4506   1.623   3.672   1.428
 1392SOL     OW 4507   1.841   2.037   0.963
 1392SOL    HW1 4508   1.880   1.952   0.927
 1392SOL    HW2 4509   1.743   2.039   0.944
 1393SOL     OW 4510   0.263   2.188   0.720
 1393SOL    HW1 4511   0.184   2.239   0.686
 1393SOL    HW2 4512   0.254   2.173   0.818
 1394SOL     OW 4513   1.194   3.474   0.031
 1394SOL    HW1 4514   1.200   3.381   0.068
 1394SOL    HW2 4515   1.135   3.474  -0.049
 1395SOL     OW 4516   0.822   2.864   1.372
 1395SOL    HW1 4517   0.862   2.863   1.280
 1395SOL    HW2 4518   0.832   2.956   1.412
 1396SOL     OW 4519   0.916   2.772   0.291
 1396SOL    HW1 4520   0.979   2.810   0.223
 1396SOL    HW2 4521   0.956   2.689   0.330
 1397SOL     OW 4522   1.504   3.469   0.044
 1397SOL    HW1 4523   1.412   3.506   0.051
 1397SOL    HW2 4524   1.542   3.489  -0.046
 1398SOL     OW 4525   0.372   3.150   1.490
 1398SOL    HW1 4526   0.359   3.243   1.456
 1398SOL    HW2 4527   0.288   3.098   1.477
 1399SOL     OW 4528   1.614   3.154   1.289
 1399SOL    HW1 4529   1.674   3.157   1.369
 1399SOL    HW2 4530   1.539   3.218   1.302
 1400SOL     OW 4531   1.039   2.960   0.696
 1400SOL    HW1 4532   0.969   2.913   0.750
 1400SOL    HW2 4533   1.098   2.892   0.653
 1401SOL     OW 4534   1.014   2.098   0.971
 1401SOL    HW1 4535   1.006   2.062   0.878
 1401SOL    HW2 4536   1.012   2.022   1.036
 1402SOL     OW 4537   0.590   3.349   0.491
 1402SOL    HW1 4538   0.632   3.291   0.421
 1402SOL    HW2 4539   0.546   3.428   0.447
 1403SOL     OW 4540   1.709   2.247   1.381
 1403SOL    HW1 4541   1.782   2.316   1.385
 1403SOL    HW2 4542   1.737   2.172   1.322
 1404SOL     OW 4543   0.255   3.210   0.290
 1404SOL    HW1 4544   0.159   3.211   0.263
 1404SOL    HW2 4545   0.267   3.263   0.374
 1405SOL     OW 4546   0.105   2.875   1.726
 1405SOL    HW1 4547   0.028   2.842   1.780
 1405SOL    HW2 4548   0.190   2.845   1.768
 1406SOL     OW 4549   0.672   2.065   1.489
 1406SOL    HW1 4550   0.762   2.049   1.449
 1406SOL    HW2 4551   0.680   2.070   1.588
 1407SOL     OW 4552   0.075   2.207   0.033
 1407SOL    HW1 4553  -0.017   2.179   0.004
 1407SOL    HW2 4554   0.106   2.284  -0.023
 1408SOL     OW 4555   1.440   2.718   1.398
 1408SOL    HW1 4556   1.383   2.770   1.335
 1408SOL    HW2 4557   1.536   2.730   1.374
 1409SOL     OW 4558   0.072   2.028   0.318
 1409SOL    HW1 4559   0.055   2.111   0.264
 1409SOL    HW2 4560   0.162   1.991   0.296
 1410SOL     OW 4561   1.183   3.197   0.119
 1410SOL    HW1 4562   1.084   3.186   0.121
 1410SOL    HW2 4563   1.217   3.212   0.212
 1411SOL     OW 4564   0.613   2.704   1.431
 1411SOL    HW1 4565   0.669   2.785   1.414
 1411SOL    HW2 4566   0.672   2.624   1.434
 1412SOL     OW 4567   1.493   3.629   0.959
 1412SOL    HW1 4568   1.526   3.693   0.890
 1412SOL    HW2 4569   1.559   3.623   1.034
 1413SOL     OW 4570   0.716   2.427   1.708
 1413SOL    HW1 4571   0.735   2.492   1.782
 1413SOL    HW2 4572   0.776   2.347   1.717
 1414SOL     OW 4573   1.450   3.082   1.633
 1414SOL    HW1 4574   1.441   3.072   1.732
 1414SOL    HW2 4575   1.546   3.075   1.607
 1415SOL     OW 4576   0.390   3.603   1.560
 1415SOL    HW1 4577   0.299   3.644   1.558
 1415SOL    HW2 4578   0.383   3.509   1.592
 1416SOL     OW 4579   1.674   2.745   1.254
 1416SOL    HW1 4580   1.647   2.656   1.217
 1416SOL    HW2 4581   1.675   2.813   1.181
 1417SOL     OW 4582   1.225   2.187   0.449
 1417SOL    HW1 4583   1.290   2.113   0.438
 1417SOL    HW2 4584   1.245   2.237   0.533
 1418SOL     OW 4585   0.594   2.607   0.652
 1418SOL    HW1 4586   0.644   2.692   0.633
 1418SOL    HW2 4587   0.506   2.609   0.604
 1419SOL     OW 4588   1.777   2.204   1.642
 1419SOL    HW1 4589   1.760   2.235   1.548
 1419SOL    HW2 4590   1.693   2.167   1.680
 1420SOL     OW 4591   1.730   2.796   1.517
 1420SOL    HW1 4592   1.768   2.887   1.532
 1420SOL    HW2 4593   1.722   2.779   1.418
 1421SOL     OW 4594   0.859   3.236   0.016
 1421SOL    HW1 4595   0.813   3.251   0.104
 1421SOL    HW2 4596   0.903   3.321  -0.014
 1422SOL     OW 4597   0.661   3.652   0.953
 1422SOL    HW1 4598   0.615   3.740   0.940
 1422SOL    HW2 4599   0.760   3.664   0.946
 1423SOL     OW 4600   0.859   2.818   0.861
 1423SOL    HW1 4601   0.913   2.749   0.909
 1423SOL    HW2 4602   0.827   2.887   0.927
 1424SOL     OW 4603   1.083   2.846   0.087
 1424SOL    HW1 4604   1.060   2.899   0.005
 1424SOL    HW2 4605   1.164   2.790   0.068
 1425SOL     OW 4606   1.861   3.431   0.851
 1425SOL    HW1 4607   1.790   3.419   0.781
 1425SOL    HW2 4608   1.862   3.352   0.911
 1426SOL     OW 4609   0.221   3.176   1.844
 1426SOL    HW1 4610   0.156   3.103   1.823
 1426SOL    HW2 4611   0.225   3.190   1.942
 1427SOL     OW 4612   0.079   3.102   0.653
 1427SOL    HW1 4613   0.078   3.055   0.741
 1427SOL    HW2 4614   0.161   3.074   0.602
 1428SOL     OW 4615   0.672   3.253   1.624
 1428SOL    HW1 4616   0.594   3.203   1.662
 1428SOL    HW2 4617   0.669   3.348   1.655
 1429SOL     OW 4618   1.824   2.054   1.227
 1429SOL    HW1 4619   1.820   1.964   1.271
 1429SOL    HW2 4620   1.827   2.043   1.128
 1430SOL     OW 4621   0.428   2.286   0.520
 1430SOL    HW1 4622   0.458   2.214   0.458
 1430SOL    HW2 4623   0.389   2.246   0.603
 1431SOL     OW 4624   1.705   3.349   1.104
 1431SOL    HW1 4625   1.612   3.324   1.077
 1431SOL    HW2 4626   1.731   3.299   1.186
 1432SOL     OW 4627   0.317   2.409   1.280
 1432SOL    HW1 4628   0.355   2.350   1.352
 1432SOL    HW2 4629   0.357   2.383   1.192
 1433SOL     OW 4630   0.812   3.448   0.687
 1433SOL    HW1 4631   0.844   3.458   0.593
 1433SOL    HW2 4632   0.733   3.386   0.689
 1434SOL     OW 4633   1.424   2.076   1.112
 1434SOL    HW1 4634   1.476   2.011   1.167
 1434SOL    HW2 4635   1.375   2.139   1.173
 1435SOL     OW 4636   1.001   1.896   1.154
 1435SOL    HW1 4637   0.938   1.824   1.123
 1435SOL    HW2 4638   1.094   1.860   1.154
 1436SOL     OW 4639   0.770   3.192   0.301
 1436SOL    HW1 4640   0.724   3.105   0.318
 1436SOL    HW2 4641   0.861   3.189   0.342
 1437SOL     OW 4642   0.618   3.429   1.284
 1437SOL    HW1 4643   0.613   3.511   1.341
 1437SOL    HW2 4644   0.707   3.426   1.239
 1438SOL     OW 4645   1.352   1.914   0.168
 1438SOL    HW1 4646   1.387   1.873   0.084
 1438SOL    HW2 4647   1.262   1.876   0.188
 1439SOL     OW 4648   1.300   2.315   0.691
 1439SOL    HW1 4649   1.241   2.395   0.695
 1439SOL    HW2 4650   1.315   2.280   0.784
 1440SOL     OW 4651   1.593   2.083   0.882
 1440SOL    HW1 4652   1.509   2.082   0.936
 1440SOL    HW2 4653   1.595   2.166   0.826
 1441SOL     OW 4654   0.039   2.939   0.300
 1441SOL    HW1 4655   0.138   2.928   0.291
 1441SOL    HW2 4656  -0.001   2.853   0.332
 1442SOL     OW 4657   0.875   3.508   0.337
 1442SOL    HW1 4658   0.798   3.473   0.283
 1442SOL    HW2 4659   0.843   3.579   0.399
 1443SOL     OW 4660   0.230   2.490   1.975
 1443SOL    HW1 4661   0.137   2.488   2.012
 1443SOL    HW2 4662   0.231   2.451   1.883
 1444SOL     OW 4663   0.225   2.137   2.858
 1444SOL    HW1 4664   0.260   2.120   2.950
 1444SOL    HW2 4665   0.137   2.092   2.846
 1445SOL     OW 4666   0.019   2.230   2.509
 1445SOL    HW1 4667  -0.063   2.273   2.548
 1445SOL    HW2 4668  -0.009   2.157   2.446
 1446SOL     OW 4669   0.569   3.137   3.027
 1446SOL    HW1 4670   0.476   3.130   2.990
 1446SOL    HW2 4671   0.580   3.226   3.071
 1447SOL     OW 4672   1.555   3.373   2.565
 1447SOL    HW1 4673   1.498   3.357   2.646
 1447SOL    HW2 4674   1.496   3.383   2.485
 1448SOL     OW 4675   1.135   2.565   2.579
 1448SOL    HW1 4676   1.192   2.643   2.554
 1448SOL    HW2 4677   1.075   2.591   2.655
 1449SOL     OW 4678   1.755   2.469   2.093
 1449SOL    HW1 4679   1.743   2.456   1.994
 1449SOL    HW2 4680   1.725   2.388   2.142
 1450SOL     OW 4681   0.768   3.006   2.885
 1450SOL    HW1 4682   0.690   3.023   2.945
 1450SOL    HW2 4683   0.802   3.093   2.849
 1451SOL     OW 4684   0.850   2.660   3.685
 1451SOL    HW1 4685   0.846   2.736   3.750
 1451SOL    HW2 4686   0.872   2.696   3.594
 1452SOL     OW 4687   0.685   2.874   2.527
 1452SOL    HW1 4688   0.754   2.858   2.597
 1452SOL    HW2 4689   0.612   2.931   2.565
 1453SOL     OW 4690   0.686   3.023   3.665
 1453SOL    HW1 4691   0.746   3.102   3.679
 1453SOL    HW2 4692   0.600   3.054   3.624
 1454SOL     OW 4693   0.335   3.297   2.923
 1454SOL    HW1 4694   0.257   3.266   2.870
 1454SOL    HW2 4695   0.393   3.355   2.866
 1455SOL     OW 4696   1.460   3.367   3.201
 1455SOL    HW1 4697   1.484   3.461   3.227
 1455SOL    HW2 4698   1.444   3.313   3.283
 1456SOL     OW 4699   0.438   2.254   3.361
 1456SOL    HW1 4700   0.520   2.198   3.370
 1456SOL    HW2 4701   0.357   2.196   3.365
 1457SOL     OW 4702   1.603   2.309   2.599
 1457SOL    HW1 4703   1.529   2.355   2.549
 1457SOL    HW2 4704   1.654   2.377   2.652
 1458SOL     OW 4705   0.231   3.575   2.345
 1458SOL    HW1 4706   0.265   3.652   2.399
 1458SOL    HW2 4707   0.275   3.575   2.255
 1459SOL     OW 4708   1.127   3.203   3.552
 1459SOL    HW1 4709   1.174   3.203   3.640
 1459SOL    HW2 4710   1.079   3.116   3.541
 1460SOL     OW 4711   0.230   3.296   2.400
 1460SOL    HW1 4712   0.204   3.392   2.400
 1460SOL    HW2 4713   0.159   3.242   2.445
 1461SOL     OW 4714   0.240   2.953   2.748
 1461SOL    HW1 4715   0.254   2.869   2.800
 1461SOL    HW2 4716   0.185   3.017   2.803
 1462SOL     OW 4717   0.620   3.648   3.301
 1462SOL    HW1 4718   0.528   3.631   3.336
 1462SOL    HW2 4719   0.648   3.740   3.327
 1463SOL     OW 4720   0.606   2.826   1.985
 1463SOL    HW1 4721   0.613   2.910   1.931
 1463SOL    HW2 4722   0.652   2.839   2.073
 1464SOL     OW 4723   1.594   1.976   3.342
 1464SOL    HW1 4724   1.576   2.043   3.270
 1464SOL    HW2 4725   1.591   2.022   3.431
 1465SOL     OW 4726   0.122   2.505   2.425
 1465SOL    HW1 4727   0.077   2.417   2.442
 1465SOL    HW2 4728   0.121   2.559   2.509
 1466SOL     OW 4729   1.842   3.629   2.221
 1466SOL    HW1 4730   1.896   3.600   2.301
 1466SOL    HW2 4731   1.872   3.719   2.192
 1467SOL     OW 4732   0.027   3.458   1.979
 1467SOL    HW1 4733   0.008   3.362   2.000
 1467SOL    HW2 4734  -0.006   3.516   2.054
 1468SOL     OW 4735   1.689   2.784   2.474
 1468SOL    HW1 4736   1.784   2.755   2.482
 1468SOL    HW2 4737   1.681   2.849   2.399
 1469SOL     OW 4738   1.641   2.970   2.294
 1469SOL    HW1 4739   1.727   2.972   2.242
 1469SOL    HW2 4740   1.655   3.017   2.382
 1470SOL     OW 4741   0.113   2.599   3.459
 1470SOL    HW1 4742   0.201   2.586   3.504
 1470SOL    HW2 4743   0.100   2.696   3.437
 1471SOL     OW 4744   0.613   3.227   2.588
 1471SOL    HW1 4745   0.564   3.140   2.597
 1471SOL    HW2 4746   0.590   3.270   2.501
 1472SOL     OW 4747   1.293   3.090   3.285
 1472SOL    HW1 4748   1.330   3.017   3.227
 1472SOL    HW2 4749   1.345   3.095   3.370
 1473SOL     OW 4750   0.809   1.866   2.364
 1473SOL    HW1 4751   0.849   1.957   2.355
 1473SOL    HW2 4752   0.709   1.874   2.370
 1474SOL     OW 4753   0.197   2.838   3.126
 1474SOL    HW1 4754   0.286   2.793   3.112
 1474SOL    HW2 4755   0.124   2.773   3.107
 1475SOL     OW 4756   1.525   2.861   2.052
 1475SOL    HW1 4757   1.462   2.785   2.065
 1475SOL    HW2 4758   1.573   2.879   2.138
 1476SOL     OW 4759   1.187   3.654   3.478
 1476SOL    HW1 4760   1.211   3.714   3.402
 1476SOL    HW2 4761   1.194   3.559   3.448
 1477SOL     OW 4762   0.317   2.113   3.663
 1477SOL    HW1 4763   0.388   2.184   3.669
 1477SOL    HW2 4764   0.229   2.152   3.691
 1478SOL     OW 4765   1.466   3.279   2.815
 1478SOL    HW1 4766   1.407   3.285   2.895
 1478SOL    HW2 4767   1.451   3.191   2.769
 1479SOL     OW 4768   1.667   3.576   2.434
 1479SOL    HW1 4769   1.626   3.553   2.346
 1479SOL    HW2 4770   1.649   3.502   2.499
 1480SOL     OW 4771   0.598   2.591   2.132
 1480SOL    HW1 4772   0.622   2.660   2.064
 1480SOL    HW2 4773   0.520   2.624   2.186
 1481SOL     OW 4774   1.281   2.207   2.806
 1481SOL    HW1 4775   1.195   2.157   2.793
 1481SOL    HW2 4776   1.343   2.153   2.862
 1482SOL     OW 4777   1.576   3.524   2.169
 1482SOL    HW1 4778   1.665   3.570   2.172
 1482SOL    HW2 4779   1.555   3.500   2.074
 1483SOL     OW 4780   0.807   2.467   3.327
 1483SOL    HW1 4781   0.760   2.464   3.416
 1483SOL    HW2 4782   0.756   2.412   3.261
 1484SOL     OW 4783   1.394   2.331   3.536
 1484SOL    HW1 4784   1.374   2.374   3.624
 1484SOL    HW2 4785   1.472   2.269   3.545
 1485SOL     OW 4786   0.973   2.752   3.434
 1485SOL    HW1 4787   1.019   2.668   3.405
 1485SOL    HW2 4788   0.917   2.786   3.359
 1486SOL     OW 4789   0.991   2.272   3.104
 1486SOL    HW1 4790   0.914   2.306   3.158
 1486SOL    HW2 4791   0.957   2.221   3.025
 1487SOL     OW 4792   1.041   2.563   2.291
 1487SOL    HW1 4793   1.067   2.559   2.387
 1487SOL    HW2 4794   0.956   2.512   2.277
 1488SOL     OW 4795   0.076   2.673   2.651
 1488SOL    HW1 4796   0.175   2.661   2.660
 1488SOL    HW2 4797   0.052   2.768   2.672
 1489SOL     OW 4798   0.130   3.683   3.433
 1489SOL    HW1 4799   0.120   3.668   3.532
 1489SOL    HW2 4800   0.044   3.719   3.397
 1490SOL     OW 4801   0.865   2.210   2.057
 1490SOL    HW1 4802   0.924   2.273   2.008
 1490SOL    HW2 4803   0.884   2.116   2.028
 1491SOL     OW 4804   1.719   2.447   3.693
 1491SOL    HW1 4805   1.693   2.536   3.657
 1491SOL    HW2 4806   1.717   2.379   3.620
 1492SOL     OW 4807   1.362   3.006   2.407
 1492SOL    HW1 4808   1.445   2.977   2.359
 1492SOL    HW2 4809   1.313   3.073   2.351
 1493SOL     OW 4810   0.550   2.058   2.747
 1493SOL    HW1 4811   0.545   2.053   2.847
 1493SOL    HW2 4812   0.552   2.154   2.718
 1494SOL     OW 4813   1.008   3.318   2.339
 1494SOL    HW1 4814   0.962   3.390   2.287
 1494SOL    HW2 4815   1.004   3.338   2.437
 1495SOL     OW 4816   0.351   3.663   2.715
 1495SOL    HW1 4817   0.401   3.577   2.721
 1495SOL    HW2 4818   0.416   3.740   2.712
 1496SOL     OW 4819   1.795   2.928   2.735
 1496SOL    HW1 4820   1.733   2.913   2.659
 1496SOL    HW2 4821   1.743   2.939   2.820
 1497SOL     OW 4822   1.227   3.412   3.368
 1497SOL    HW1 4823   1.233   3.335   3.432
 1497SOL    HW2 4824   1.175   3.386   3.288
 1498SOL     OW 4825   0.321   2.805   2.104
 1498SOL    HW1 4826   0.403   2.844   2.062
 1498SOL    HW2 4827   0.294   2.723   2.055
 1499SOL     OW 4828   1.458   2.597   2.590
 1499SOL    HW1 4829   1.453   2.532   2.665
 1499SOL    HW2 4830   1.538   2.656   2.603
 1500SOL     OW 4831   0.461   3.128   3.589
 1500SOL    HW1 4832   0.411   3.129   3.503
 1500SOL    HW2 4833   0.398   3.110   3.665
 1501SOL     OW 4834   1.111   3.638   2.099
 1501SOL    HW1 4835   1.051   3.576   2.149
 1501SOL    HW2 4836   1.142   3.594   2.014
 1502SOL     OW 4837   0.202   2.147   3.360
 1502SOL    HW1 4838   0.122   2.207   3.347
 1502SOL    HW2 4839   0.192   2.098   3.446
 1503SOL     OW 4840   1.632   3.239   1.943
 1503SOL    HW1 4841   1.600   3.333   1.933
 1503SOL    HW2 4842   1.556   3.176   1.931
 1504SOL     OW 4843   0.464   3.605   2.185
 1504SOL    HW1 4844   0.497   3.644   2.271
 1504SOL    HW2 4845   0.540   3.598   2.120
 1505SOL     OW 4846   1.400   1.969   2.288
 1505SOL    HW1 4847   1.376   1.932   2.198
 1505SOL    HW2 4848   1.499   1.985   2.292
 1506SOL     OW 4849   0.249   3.647   3.103
 1506SOL    HW1 4850   0.306   3.582   3.153
 1506SOL    HW2 4851   0.233   3.614   3.010
 1507SOL     OW 4852   0.940   3.560   2.766
 1507SOL    HW1 4853   1.020   3.503   2.787
 1507SOL    HW2 4854   0.891   3.520   2.689
 1508SOL     OW 4855   0.382   2.562   2.342
 1508SOL    HW1 4856   0.427   2.472   2.339
 1508SOL    HW2 4857   0.288   2.551   2.375
 1509SOL     OW 4858   1.547   2.084   3.591
 1509SOL    HW1 4859   1.542   2.121   3.683
 1509SOL    HW2 4860   1.475   2.015   3.579
 1510SOL     OW 4861   0.614   1.984   1.979
 1510SOL    HW1 4862   0.712   1.962   1.986
 1510SOL    HW2 4863   0.583   1.967   1.886
 1511SOL     OW 4864   0.781   2.126   3.611
 1511SOL    HW1 4865   0.848   2.065   3.654
 1511SOL    HW2 4866   0.708   2.145   3.676
 1512SOL     OW 4867   0.888   3.376   3.057
 1512SOL    HW1 4868   0.865   3.351   2.963
 1512SOL    HW2 4869   0.949   3.307   3.096
 1513SOL     OW 4870   1.351   2.452   3.295
 1513SOL    HW1 4871   1.379   2.409   3.380
 1513SOL    HW2 4872   1.376   2.548   3.296
 1514SOL     OW 4873   0.803   3.264   2.786
 1514SOL    HW1 4874   0.893   3.278   2.744
 1514SOL    HW2 4875   0.732   3.266   2.715
 1515SOL     OW 4876   0.922   2.365   2.761
 1515SOL    HW1 4877   0.897   2.356   2.665
 1515SOL    HW2 4878   0.970   2.283   2.792
 1516SOL     OW 4879   0.539   1.926   2.374
 1516SOL    HW1 4880   0.458   1.927   2.432
 1516SOL    HW2 4881   0.542   2.009   2.319
 1517SOL     OW 4882   1.434   3.050   1.903
 1517SOL    HW1 4883   1.466   2.974   1.960
 1517SOL    HW2 4884   1.342   3.077   1.933
 1518SOL     OW 4885   0.297   1.897   2.033
 1518SOL    HW1 4886   0.346   1.981   2.012
 1518SOL    HW2 4887   0.359   1.832   2.078
 1519SOL     OW 4888   0.935   2.098   2.342
 1519SOL    HW1 4889   0.887   2.139   2.264
 1519SOL    HW2 4890   1.034   2.096   2.323
 1520SOL     OW 4891   1.076   2.545   3.326
 1520SOL    HW1 4892   0.996   2.484   3.329
 1520SOL    HW2 4893   1.157   2.492   3.302
 1521SOL     OW 4894   1.227   3.432   2.655
 1521SOL    HW1 4895   1.248   3.506   2.590
 1521SOL    HW2 4896   1.295   3.432   2.728
 1522SOL     OW 4897   0.459   3.014   2.603
 1522SOL    HW1 4898   0.388   2.987   2.668
 1522SOL    HW2 4899   0.433   2.986   2.510
 1523SOL     OW 4900   1.271   3.659   2.453
 1523SOL    HW1 4901   1.315   3.723   2.389
 1523SOL    HW2 4902   1.221   3.711   2.523
 1524SOL     OW 4903   1.032   2.411   1.878
 1524SOL    HW1 4904   0.991   2.493   1.839
 1524SOL    HW2 4905   1.096   2.437   1.951
 1525SOL     OW 4906   0.078   2.418   3.248
 1525SOL    HW1 4907   0.170   2.417   3.207
 1525SOL    HW2 4908   0.072   2.492   3.315
 1526SOL     OW 4909   0.561   2.084   3.009
 1526SOL    HW1 4910   0.599   2.000   3.046
 1526SOL    HW2 4911   0.473   2.103   3.053
 1527SOL     OW 4912   0.866   2.316   2.504
 1527SOL    HW1 4913   0.834   2.388   2.442
 1527SOL    HW2 4914   0.890   2.235   2.451
 1528SOL     OW 4915   1.017   1.901   2.615
 1528SOL    HW1 4916   0.945   1.906   2.546
 1528SOL    HW2 4917   0.993   1.832   2.684
 1529SOL     OW 4918   1.429   3.035   2.729
 1529SOL    HW1 4919   1.374   2.951   2.722
 1529SOL    HW2 4920   1.455   3.064   2.637
 1530SOL     OW 4921   1.466   2.452   2.854
 1530SOL    HW1 4922   1.436   2.357   2.861
 1530SOL    HW2 4923   1.539   2.468   2.920
 1531SOL     OW 4924   1.857   2.695   2.239
 1531SOL    HW1 4925   1.899   2.631   2.303
 1531SOL    HW2 4926   1.819   2.644   2.161
 1532SOL     OW 4927   0.488   3.247   2.036
 1532SOL    HW1 4928   0.401   3.232   2.083
 1532SOL    HW2 4929   0.471   3.273   1.941
 1533SOL     OW 4930   1.664   3.142   2.519
 1533SOL    HW1 4931   1.763   3.150   2.533
 1533SOL    HW2 4932   1.619   3.226   2.550
 1534SOL     OW 4933   1.390   2.437   1.940
 1534SOL    HW1 4934   1.336   2.416   2.021
 1534SOL    HW2 4935   1.481   2.396   1.949
 1535SOL     OW 4936   0.527   2.118   2.190
 1535SOL    HW1 4937   0.554   2.059   2.115
 1535SOL    HW2 4938   0.527   2.213   2.159
 1536SOL     OW 4939   1.754   3.085   3.450
 1536SOL    HW1 4940   1.845   3.046   3.437
 1536SOL    HW2 4941   1.762   3.181   3.474
 1537SOL     OW 4942   1.064   3.209   3.202
 1537SOL    HW1 4943   0.984   3.186   3.257
 1537SOL    HW2 4944   1.147   3.183   3.251
 1538SOL     OW 4945   1.592   3.491   3.487
 1538SOL    HW1 4946   1.619   3.525   3.397
 1538SOL    HW2 4947   1.671   3.453   3.533
 1539SOL     OW 4948   1.111   3.057   2.962
 1539SOL    HW1 4949   1.071   3.101   3.043
 1539SOL    HW2 4950   1.070   3.094   2.879
 1540SOL     OW 4951   1.638   2.961   2.941
 1540SOL    HW1 4952   1.643   3.042   3.000
 1540SOL    HW2 4953   1.552   2.963   2.890
 1541SOL     OW 4954   0.915   1.951   3.264
 1541SOL    HW1 4955   0.940   1.931   3.169
 1541SOL    HW2 4956   0.987   2.007   3.306
 1542SOL     OW 4957   0.980   2.978   3.581
 1542SOL    HW1 4958   0.881   2.984   3.591
 1542SOL    HW2 4959   1.003   2.898   3.525
 1543SOL     OW 4960   0.705   2.912   2.230
 1543SOL    HW1 4961   0.691   2.919   2.329
 1543SOL    HW2 4962   0.789   2.861   2.212
 1544SOL     OW 4963   0.410   2.675   3.113
 1544SOL    HW1 4964   0.496   2.687   3.163
 1544SOL    HW2 4965   0.368   2.588   3.140
 1545SOL     OW 4966   1.274   2.248   3.124
 1545SOL    HW1 4967   1.295   2.322   3.188
 1545SOL    HW2 4968   1.185   2.265   3.081
 1546SOL     OW 4969   0.064   3.426   3.193
 1546SOL    HW1 4970   0.018   3.508   3.159
 1546SOL    HW2 4971   0.162   3.445   3.202
 1547SOL     OW 4972   0.367   2.962   2.363
 1547SOL    HW1 4973   0.360   3.045   2.307
 1547SOL    HW2 4974   0.371   2.882   2.303
 1548SOL     OW 4975   0.566   2.399   2.727
 1548SOL    HW1 4976   0.578   2.465   2.653
 1548SOL    HW2 4977   0.612   2.433   2.810
 1549SOL     OW 4978   1.252   3.210   2.250
 1549SOL    HW1 4979   1.302   3.287   2.290
 1549SOL    HW2 4980   1.157   3.212   2.282
 1550SOL     OW 4981   1.272   3.307   3.004
 1550SOL    HW1 4982   1.319   3.320   3.091
 1550SOL    HW2 4983   1.206   3.233   3.013
 1551SOL     OW 4984   1.582   2.501   2.334
 1551SOL    HW1 4985   1.551   2.562   2.407
 1551SOL    HW2 4986   1.632   2.553   2.265
 1552SOL     OW 4987   0.354   3.372   3.191
 1552SOL    HW1 4988   0.333   3.328   3.104
 1552SOL    HW2 4989   0.451   3.398   3.194
 1553SOL     OW 4990   0.402   2.613   3.460
 1553SOL    HW1 4991   0.470   2.668   3.413
 1553SOL    HW2 4992   0.442   2.525   3.487
 1554SOL     OW 4993   1.587   2.641   3.532
 1554SOL    HW1 4994   1.495   2.679   3.527
 1554SOL    HW2 4995   1.647   2.688   3.467
 1555SOL     OW 4996   1.013   1.967   3.632
 1555SOL    HW1 4997   1.019   2.052   3.580
 1555SOL    HW2 4998   1.045   1.891   3.575
 1556SOL     OW 4999   0.504   1.912   3.602
 1556SOL    HW1 5000   0.462   1.855   3.532
 1556SOL    HW2 5001   0.438   1.981   3.634
 1557SOL     OW 5002   0.573   2.732   2.891
 1557SOL    HW1 5003   0.617   2.821   2.882
 1557SOL    HW2 5004   0.510   2.732   2.968
 1558SOL     OW 5005   1.360   2.724   2.907
 1558SOL    HW1 5006   1.285   2.724   2.841
 1558SOL    HW2 5007   1.397   2.632   2.916
 1559SOL     OW 5008   1.209   2.387   2.137
 1559SOL    HW1 5009   1.222   2.303   2.191
 1559SOL    HW2 5010   1.180   2.461   2.197
 1560SOL     OW 5011   0.307   2.075   3.093
 1560SOL    HW1 5012   0.284   2.112   3.183
 1560SOL    HW2 5013   0.277   1.980   3.087
 1561SOL     OW 5014   0.037   3.172   3.144
 1561SOL    HW1 5015   0.090   3.123   3.212
 1561SOL    HW2 5016   0.059   3.270   3.149
 1562SOL     OW 5017   0.732   2.496   2.926
 1562SOL    HW1 5018   0.791   2.470   2.850
 1562SOL    HW2 5019   0.704   2.592   2.915
 1563SOL     OW 5020   1.728   2.797   3.716
 1563SOL    HW1 5021   1.682   2.790   3.627
 1563SOL    HW2 5022   1.666   2.841   3.782
 1564SOL     OW 5023   0.307   1.925   2.480
 1564SOL    HW1 5024   0.296   2.019   2.513
 1564SOL    HW2 5025   0.302   1.862   2.557
 1565SOL     OW 5026   1.622   2.229   2.236
 1565SOL    HW1 5027   1.624   2.153   2.300
 1565SOL    HW2 5028   1.574   2.306   2.276
 1566SOL     OW 5029   1.023   2.628   2.828
 1566SOL    HW1 5030   1.038   2.649   2.924
 1566SOL    HW2 5031   0.993   2.533   2.819
 1567SOL     OW 5032   0.980   3.435   3.562
 1567SOL    HW1 5033   0.960   3.479   3.474
 1567SOL    HW2 5034   1.019   3.344   3.546
 1568SOL     OW 5035   1.859   3.380   3.467
 1568SOL    HW1 5036   1.873   3.407   3.372
 1568SOL    HW2 5037   1.942   3.402   3.520
 1569SOL     OW 5038   0.350   2.760   3.666
 1569SOL    HW1 5039   0.426   2.804   3.714
 1569SOL    HW2 5040   0.385   2.713   3.584
 1570SOL     OW 5041   1.540   2.136   1.987
 1570SOL    HW1 5042   1.479   2.061   2.010
 1570SOL    HW2 5043   1.562   2.188   2.070
 1571SOL     OW 5044   1.303   2.700   1.904
 1571SOL    HW1 5045   1.337   2.607   1.919
 1571SOL    HW2 5046   1.321   2.727   1.809
 1572SOL     OW 5047   1.068   3.195   2.711
 1572SOL    HW1 5048   1.075   3.111   2.656
 1572SOL    HW2 5049   1.130   3.264   2.675
 1573SOL     OW 5050   0.319   2.672   2.811
 1573SOL    HW1 5051   0.412   2.708   2.816
 1573SOL    HW2 5052   0.313   2.587   2.863
 1574SOL     OW 5053   0.339   2.371   2.868
 1574SOL    HW1 5054   0.287   2.288   2.851
 1574SOL    HW2 5055   0.416   2.376   2.804
 1575SOL     OW 5056   1.138   2.242   3.540
 1575SOL    HW1 5057   1.093   2.305   3.604
 1575SOL    HW2 5058   1.231   2.273   3.523
 1576SOL     OW 5059   1.160   2.069   3.339
 1576SOL    HW1 5060   1.160   2.133   3.416
 1576SOL    HW2 5061   1.188   2.117   3.256
 1577SOL     OW 5062   0.008   3.188   2.062
 1577SOL    HW1 5063  -0.085   3.209   2.031
 1577SOL    HW2 5064   0.018   3.089   2.075
 1578SOL     OW 5065   0.088   3.663   2.789
 1578SOL    HW1 5066   0.046   3.577   2.762
 1578SOL    HW2 5067   0.182   3.666   2.755
 1579SOL     OW 5068   0.504   3.430   2.772
 1579SOL    HW1 5069   0.570   3.504   2.781
 1579SOL    HW2 5070   0.548   3.351   2.730
 1580SOL     OW 5071   1.002   2.658   3.100
 1580SOL    HW1 5072   1.043   2.626   3.186
 1580SOL    HW2 5073   0.906   2.631   3.097
 1581SOL     OW 5074   0.040   2.406   2.976
 1581SOL    HW1 5075   0.125   2.373   2.935
 1581SOL    HW2 5076   0.053   2.421   3.074
 1582SOL     OW 5077   0.189   2.382   3.584
 1582SOL    HW1 5078   0.248   2.342   3.514
 1582SOL    HW2 5079   0.131   2.453   3.543
 1583SOL     OW 5080   1.369   2.812   3.522
 1583SOL    HW1 5081   1.408   2.901   3.542
 1583SOL    HW2 5082   1.379   2.792   3.425
 1584SOL     OW 5083   0.815   2.434   2.187
 1584SOL    HW1 5084   0.822   2.345   2.141
 1584SOL    HW2 5085   0.721   2.468   2.179
 1585SOL     OW 5086   1.657   2.466   3.068
 1585SOL    HW1 5087   1.619   2.397   3.130
 1585SOL    HW2 5088   1.739   2.430   3.024
 1586SOL     OW 5089   0.252   3.426   3.606
 1586SOL    HW1 5090   0.222   3.483   3.682
 1586SOL    HW2 5091   0.245   3.329   3.632
 1587SOL     OW 5092   0.671   2.326   3.131
 1587SOL    HW1 5093   0.637   2.237   3.101
 1587SOL    HW2 5094   0.697   2.380   3.051
 1588SOL     OW 5095   0.930   3.540   3.327
 1588SOL    HW1 5096   0.906   3.522   3.232
 1588SOL    HW2 5097   0.960   3.634   3.337
 1589SOL     OW 5098   0.473   2.362   2.053
 1589SOL    HW1 5099   0.534   2.442   2.057
 1589SOL    HW2 5100   0.378   2.393   2.060
 1590SOL     OW 5101   0.159   2.999   3.328
 1590SOL    HW1 5102   0.181   2.938   3.404
 1590SOL    HW2 5103   0.169   2.950   3.242
 1591SOL     OW 5104   1.347   2.921   3.096
 1591SOL    HW1 5105   1.371   2.858   3.022
 1591SOL    HW2 5106   1.257   2.961   3.078
 1592SOL     OW 5107   1.302   2.717   2.171
 1592SOL    HW1 5108   1.216   2.686   2.213
 1592SOL    HW2 5109   1.298   2.703   2.072
 1593SOL     OW 5110   1.759   3.609   3.016
 1593SOL    HW1 5111   1.820   3.639   2.943
 1593SOL    HW2 5112   1.721   3.520   2.994
 1594SOL     OW 5113   1.252   3.593   2.990
 1594SOL    HW1 5114   1.336   3.598   2.936
 1594SOL    HW2 5115   1.229   3.497   3.008
 1595SOL     OW 5116   0.083   3.120   2.884
 1595SOL    HW1 5117   0.078   3.119   2.984
 1595SOL    HW2 5118   0.000   3.079   2.846
 1596SOL     OW 5119   0.688   3.524   3.578
 1596SOL    HW1 5120   0.632   3.605   3.587
 1596SOL    HW2 5121   0.740   3.528   3.492
 1597SOL     OW 5122   1.726   1.997   2.385
 1597SOL    HW1 5123   1.799   1.980   2.318
 1597SOL    HW2 5124   1.695   1.910   2.423
 1598SOL     OW 5125   1.388   3.435   2.339
 1598SOL    HW1 5126   1.455   3.447   2.265
 1598SOL    HW2 5127   1.348   3.524   2.362
 1599SOL     OW 5128   0.130   3.656   3.713
 1599SOL    HW1 5129   0.089   3.582   3.766
 1599SOL    HW2 5130   0.194   3.707   3.771
 1600SOL     OW 5131   1.280   2.789   2.534
 1600SOL    HW1 5132   1.340   2.708   2.536
 1600SOL    HW2 5133   1.320   2.858   2.474
 1601SOL     OW 5134   0.830   3.135   3.284
 1601SOL    HW1 5135   0.825   3.168   3.379
 1601SOL    HW2 5136   0.744   3.154   3.238
 1602SOL     OW 5137   0.672   3.478   2.016
 1602SOL    HW1 5138   0.681   3.488   1.917
 1602SOL    HW2 5139   0.632   3.389   2.037
 1603SOL     OW 5140   1.650   3.582   3.256
 1603SOL    HW1 5141   1.703   3.592   3.172
 1603SOL    HW2 5142   1.623   3.672   3.290
 1604SOL     OW 5143   1.841   2.037   2.825
 1604SOL    HW1 5144   1.880   1.952   2.789
 1604SOL    HW2 5145   1.743   2.039   2.806
 1605SOL     OW 5146   0.263   2.188   2.582
 1605SOL    HW1 5147   0.184   2.239   2.548
 1605SOL    HW2 5148   0.254   2.173   2.680
 1606SOL     OW 5149   1.194   3.474   1.893
 1606SOL    HW1 5150   1.200   3.381   1.930
 1606SOL    HW2 5151   1.135   3.474   1.813
 1607SOL     OW 5152   0.822   2.864   3.234
 1607SOL    HW1 5153   0.862   2.863   3.142
 1607SOL    HW2 5154   0.832   2.956   3.274
 1608SOL     OW 5155   0.916   2.772   2.153
 1608SOL    HW1 5156   0.979   2.810   2.085
 1608SOL    HW2 5157   0.956   2.689   2.192
 1609SOL     OW 5158   1.504   3.469   1.906
 1609SOL    HW1 5159   1.412   3.506   1.913
 1609SOL    HW2 5160   1.542   3.489   1.816
 1610SOL     OW 5161   0.372   3.150   3.352
 1610SOL    HW1 5162   0.359   3.243   3.318
 1610SOL    HW2 5163   0.288   3.098   3.339
 1611SOL     OW 5164   1.614   3.154   3.151
 1611SOL    HW1 5165   1.674   3.157   3.231
 1611SOL    HW2 5166   1.539   3.218   3.164
 1612SOL     OW 5167   1.039   2.960   2.558
 1612SOL    HW1 5168   0.969   2.913   2.612
 1612SOL    HW2 5169   1.098   2.892   2.515
 1613SOL     OW 5170   1.014   2.098   2.833
 1613SOL    HW1 5171   1.006   2.062   2.740
 1613SOL    HW2 5172   1.012   2.022   2.898
 1614SOL     OW 5173   0.590   3.349   2.353
 1614SOL    HW1 5174   0.632   3.291   2.283
 1614SOL    HW2 5175   0.546   3.428   2.309
 1615SOL     OW 5176   1.709   2.247   3.243
 1615SOL    HW1 5177   1.782   2.316   3.247
 1615SOL    HW2 5178   1.737   2.172   3.184
 1616SOL     OW 5179   0.255   3.210   2.152
 1616SOL    HW1 5180   0.159   3.211   2.125
 1616SOL    HW2 5181   0.267   3.263   2.236
 1617SOL     OW 5182   0.105   2.875   3.588
 1617SOL    HW1 5183   0.028   2.842   3.642
 1617SOL    HW2 5184   0.190   2.845   3.630
 1618SOL     OW 5185   0.672   2.065   3.351
 1618SOL    HW1 5186   0.762   2.049   3.311
 1618SOL    HW2 5187   0.680   2.070   3.450
 1619SOL     OW 5188   0.075   2.207   1.895
 1619SOL    HW1 5189  -0.017   2.179   1.866
 1619SOL    HW2 5190   0.106   2.284   1.839
 1620SOL     OW 5191   1.440   2.718   3.260
 1620SOL    HW1 5192   1.383   2.770   3.197
 1620SOL    HW2 5193   1.536   2.730   3.236
 1621SOL     OW 5194   0.072   2.028   2.180
 1621SOL    HW1 5195   0.055   2.111   2.126
 1621SOL    HW2 5196   0.162   1.991   2.158
 1622SOL     OW 5197   1.183   3.197   1.981
 1622SOL    HW1 5198   1.084   3.186   1.983
 1622SOL    HW2 5199   1.217   3.212   2.074
 1623SOL     OW 5200   0.613   2.704   3.293
 1623SOL    HW1 5201   0.669   2.785   3.276
 1623SOL    HW2 5202   0.672   2.624   3.296
 1624SOL     OW 5203   1.493   3.629   2.821
 1624SOL    HW1 5204   1.526   3.693   2.752
 1624SOL    HW2 5205   1.559   3.623   2.896
 1625SOL     OW 5206   0.716   2.427   3.570
 1625SOL    HW1 5207   0.735   2.492   3.644
 1625SOL    HW2 5208   0.776   2.347   3.579
 1626SOL     OW 5209   1.450   3.082   3.495
 1626SOL    HW1 5210   1.441   3.072   3.594
 1626SOL    HW2 5211   1.546   3.075   3.469
 1627SOL     OW 5212   0.390   3.603   3.422
 1627SOL    HW1 5213   0.299   3.644   3.420
 1627SOL    HW2 5214   0.383   3.509   3.454
 1628SOL     OW 5215   1.674   2.745   3.116
 1628SOL    HW1 5216   1.647   2.656   3.079
 1628SOL    HW2 5217   1.675   2.813   3.043
 1629SOL     OW 5218   1.225   2.187   2.311
 1629SOL    HW1 5219   1.290   2.113   2.300
 1629SOL    HW2 5220   1.245   2.237   2.395
 1630SOL     OW 5221   0.594   2.607   2.514
 1630SOL    HW1 5222   0.644   2.692   2.495
 1630SOL    HW2 5223   0.506   2.609   2.466
 1631SOL     OW 5224   1.777   2.204   3.504
 1631SOL    HW1 5225   1.760   2.235   3.410
 1631SOL    HW2 5226   1.693   2.167   3.542
 1632SOL     OW 5227   1.730   2.796   3.379
 1632SOL    HW1 5228   1.768   2.887   3.394
 1632SOL    HW2 5229   1.722   2.779   3.280
 1633SOL     OW 5230   0.859   3.236   1.878
 1633SOL    HW1 5231   0.813   3.251   1.966
 1633SOL    HW2 5232   0.903   3.321   1.848
 1634SOL     OW 5233   0.661   3.652   2.815
 1634SOL    HW1 5234   0.615   3.740   2.802
 1634SOL    HW2 5235   0.760   3.664   2.808
 1635SOL     OW 5236   0.859   2.818   2.723
 1635SOL    HW1 5237   0.913   2.749   2.771
 1635SOL    HW2 5238   0.827   2.887   2.789
 1636SOL     OW 5239   1.083   2.846   1.949
 1636SOL    HW1 5240   1.060   2.899   1.867
 1636SOL    HW2 5241   1.164   2.790   1.930
 1637SOL     OW 5242   1.861   3.431   2.713
 1637SOL    HW1 5243   1.790   3.419   2.643
 1637SOL    HW2 5244   1.862   3.352   2.773
 1638SOL     OW 5245   0.221   3.176   3.706
 1638SOL    HW1 5246   0.156   3.103   3.685
 1638SOL    HW2 5247   0.225   3.190   3.804
 1639SOL     OW 5248   0.079   3.102   2.515
 1639SOL    HW1 5249   0.078   3.055   2.603
 1639SOL    HW2 5250   0.161   3.074   2.464
 1640SOL     OW 5251   0.672   3.253   3.486
 1640SOL    HW1 5252   0.594   3.203   3.524
 1640SOL    HW2 5253   0.669   3.348   3.517
 1641SOL     OW 5254   1.824   2.054   3.089
 1641SOL    HW1 5255   1.820   1.964   3.133
 1641SOL    HW2 5256   1.827   2.043   2.990
 1642SOL     OW 5257   0.428   2.286   2.382
 1642SOL    HW1 5258   0.458   2.214   2.320
 1642SOL    HW2 5259   0.389   2.246   2.465
 1643SOL     OW 5260   1.705   3.349   2.966
 1643SOL    HW1 5261   1.612   3.324   2.939
 1643SOL    HW2 5262   1.731   3.299   3.048
 1644SOL     OW 5263   0.317   2.409   3.142
 1644SOL    HW1 5264   0.355   2.350   3.214
 1644SOL    HW2 5265   0.357   2.383   3.054
 1645SOL     OW 5266   0.812   3.448   2.549
 1645SOL    HW1 5267   0.844   3.458   2.455
 1645SOL    HW2 5268   0.733   3.386   2.551
 1646SOL     OW 5269   1.424   2.076   2.974
 1646SOL    HW1 5270   1.476   2.011   3.029
 1646SOL    HW2 5271   1.375   2.139   3.035
 1647SOL     OW 5272   1.001   1.896   3.016
 1647SOL    HW1 5273   0.938   1.824   2.985
 1647SOL    HW2 5274   1.094   1.860   3.016
 1648SOL     OW 5275   0.770   3.192   2.163
 1648SOL    HW1 5276   0.724   3.105   2.180
 1648SOL    HW2 5277   0.861   3.189   2.204
 1649SOL     OW 5278   0.618   3.429   3.146
 1649SOL    HW1 5279   0.613   3.511   3.203
 1649SOL    HW2 5280   0.707   3.426   3.101
 1650SOL     OW 5281   1.352   1.914   2.030
 1650SOL    HW1 5282   1.387   1.873   1.946
 1650SOL    HW2 5283   1.262   1.876   2.050
 1651SOL     OW 5284   1.300   2.315   2.553
 1651SOL    HW1 5285   1.241   2.395   2.557
 1651SOL    HW2 5286   1.315   2.280   2.646
 1652SOL     OW 5287   1.593   2.083   2.744
 1652SOL    HW1 5288   1.509   2.082   2.798
 1652SOL    HW2 5289   1.595   2.166   2.688
 1653SOL     OW 5290   0.039   2.939   2.162
 1653SOL    HW1 5291   0.138   2.928   2.153
 1653SOL    HW2 5292  -0.001   2.853   2.194
 1654SOL     OW 5293   0.875   3.508   2.199
 1654SOL    HW1 5294   0.798   3.473   2.145
 1654SOL    HW2 5295   0.843   3.579   2.261
 1655SOL     OW 5296   0.230   2.490   3.837
 1655SOL    HW1 5297   0.137   2.488   3.874
 1655SOL    HW2 5298   0.231   2.451   3.745
 1656SOL     OW 5299   0.225   2.137   4.720
 1656SOL    HW1 5300   0.260   2.120   4.812
 1656SOL    HW2 5301   0.137   2.092   4.708
 1657SOL     OW 5302   0.019   2.230   4.371
 1657SOL    HW1 5303  -0.063   2.273   4.410
 1657SOL    HW2 5304  -0.009   2.157   4.308
 1658SOL     OW 5305   0.569   3.137   4.889
 1658SOL    HW1 5306   0.476   3.130   4.852
 1658SOL    HW2 5307   0.580   3.226   4.933
 1659SOL     OW 5308   1.555   3.373   4.427
 1659SOL    HW1 5309   1.498   3.357   4.508
 1659SOL    HW2 5310   1.496   3.383   4.347
 1660SOL     OW 5311   1.135   2.565   4.441
 1660SOL    HW1 5312   1.192   2.643   4.416
 1660SOL    HW2 5313   1.075   2.591   4.517
 1661SOL     OW 5314   1.755   2.469   3.955
 1661SOL    HW1 5315   1.743   2.456   3.856
 1661SOL    HW2 5316   1.725   2.388   4.004
 1662SOL     OW 5317   0.768   3.006   4.747
 1662SOL    HW1 5318   0.690   3.023   4.807
 1662SOL    HW2 5319   0.802   3.093   4.711
 1663SOL     OW 5320   0.850   2.660   5.547
 1663SOL    HW1 5321   0.846   2.736   5.612
 1663SOL    HW2 5322   0.872   2.696   5.456
 1664SOL     OW 5323   0.685   2.874   4.389
 1664SOL    HW1 5324   0.754   2.858   4.459
 1664SOL    HW2 5325   0.612   2.931   4.427
 1665SOL     OW 5326   0.686   3.023   5.527
 1665SOL    HW1 5327   0.746   3.102   5.541
 1665SOL    HW2 5328   0.600   3.054   5.486
 1666SOL     OW 5329   0.335   3.297   4.785
 1666SOL    HW1 5330   0.257   3.266   4.732
 1666SOL    HW2 5331   0.393   3.355   4.728
 1667SOL     OW 5332   1.460   3.367   5.063
 1667SOL    HW1 5333   1.484   3.461   5.089
 1667SOL    HW2 5334   1.444   3.313   5.145
 1668SOL     OW 5335   0.438   2.254   5.223
 1668SOL    HW1 5336   0.520   2.198   5.232
 1668SOL    HW2 5337   0.357   2.196   5.227
 1669SOL     OW 5338   1.603   2.309   4.461
 1669SOL    HW1 5339   1.529   2.355   4.411
 1669SOL    HW2 5340   1.654   2.377   4.514
 1670SOL     OW 5341   0.231   3.575   4.207
 1670SOL    HW1 5342   0.265   3.652   4.261
 1670SOL    HW2 5343   0.275   3.575   4.117
 1671SOL     OW 5344   1.127   3.203   5.414
 1671SOL    HW1 5345   1.174   3.203   5.502
 1671SOL    HW2 5346   1.079   3.116   5.403
 1672SOL     OW 5347   0.230   3.296   4.262
 1672SOL    HW1 5348   0.204   3.392   4.262
 1672SOL    HW2 5349   0.159   3.242   4.307
 1673SOL     OW 5350   0.240   2.953   4.610
 1673SOL    HW1 5351   0.254   2.869   4.662
 1673SOL    HW2 5352   0.185   3.017   4.665
 1674SOL     OW 5353   0.620   3.648   5.163
 1674SOL    HW1 5354   0.528   3.631   5.198
 1674SOL    HW2 5355   0.648   3.740   5.189
 1675SOL     OW 5356   0.606   2.826   3.847
 1675SOL    HW1 5357   0.613   2.910   3.793
 1675SOL    HW2 5358   0.652   2.839   3.935
 1676SOL     OW 5359   1.594   1.976   5.204
 1676SOL    HW1 5360   1.576   2.043   5.132
 1676SOL    HW2 5361   1.591   2.022   5.293
 1677SOL     OW 5362   0.122   2.505   4.287
 1677SOL    HW1 5363   0.077   2.417   4.304
 1677SOL    HW2 5364   0.121   2.559   4.371
 1678SOL     OW 5365   1.842   3.629   4.083
 1678SOL    HW1 5366   1.896   3.600   4.163
 1678SOL    HW2 5367   1.872   3.719   4.054
 1679SOL     OW 5368   0.027   3.458   3.841
 1679SOL    HW1 5369   0.008   3.362   3.862
 1679SOL    HW2 5370  -0.006   3.516   3.916
 1680SOL     OW 5371   1.689   2.784   4.336
 1680SOL    HW1 5372   1.784   2.755   4.344
 1680SOL    HW2 5373   1.681   2.849   4.261
 1681SOL     OW 5374   1.641   2.970   4.156
 1681SOL    HW1 5375   1.727   2.972   4.104
 1681SOL    HW2 5376   1.655   3.017   4.244
 1682SOL     OW 5377   0.113   2.599   5.321
 1682SOL    HW1 5378   0.201   2.586   5.366
 1682SOL    HW2 5379   0.100   2.696   5.299
 1683SOL     OW 5380   0.613   3.227   4.450
 1683SOL    HW1 5381   0.564   3.140   4.459
 1683SOL    HW2 5382   0.590   3.270   4.363
 1684SOL     OW 5383   1.293   3.090   5.147
 1684SOL    HW1 5384   1.330   3.017   5.089
 1684SOL    HW2 5385   1.345   3.095   5.232
 1685SOL     OW 5386   0.809   1.866   4.226
 1685SOL    HW1 5387   0.849   1.957   4.217
 1685SOL    HW2 5388   0.709   1.874   4.232
 1686SOL     OW 5389   0.197   2.838   4.988
 1686SOL    HW1 5390   0.286   2.793   4.974
 1686SOL    HW2 5391   0.124   2.773   4.969
 1687SOL     OW 5392   1.525   2.861   3.914
 1687SOL    HW1 5393   1.462   2.785   3.927
 1687SOL    HW2 5394   1.573   2.879   4.000
 1688SOL     OW 5395   1.187   3.654   5.340
 1688SOL    HW1 5396   1.211   3.714   5.264
 1688SOL    HW2 5397   1.194   3.559   5.310
 1689SOL     OW 5398   0.317   2.113   5.525
 1689SOL    HW1 5399   0.388   2.184   5.531
 1689SOL    HW2 5400   0.229   2.152   5.553
 1690SOL     OW 5401   1.466   3.279   4.677
 1690SOL    HW1 5402   1.407   3.285   4.757
 1690SOL    HW2 5403   1.451   3.191   4.631
 1691SOL     OW 5404   1.667   3.576   4.296
 1691SOL    HW1 5405   1.626   3.553   4.208
 1691SOL    HW2 5406   1.649   3.502   4.361
 1692SOL     OW 5407   0.598   2.591   3.994
 1692SOL    HW1 5408   0.622   2.660   3.926
 1692SOL    HW2 5409   0.520   2.624   4.048
 1693SOL     OW 5410   1.281   2.207   4.668
 1693SOL    HW1 5411   1.195   2.157   4.655
 1693SOL    HW2 5412   1.343   2.153   4.724
 1694SOL     OW 5413   1.576   3.524   4.031
 1694SOL    HW1 5414   1.665   3.570   4.034
 1694SOL    HW2 5415   1.555   3.500   3.936
 1695SOL     OW 5416   0.807   2.467   5.189
 1695SOL    HW1 5417   0.760   2.464   5.278
 1695SOL    HW2 5418   0.756   2.412   5.123
 1696SOL     OW 5419   1.394   2.331   5.398
 1696SOL    HW1 5420   1.374   2.374   5.486
 1696SOL    HW2 5421   1.472   2.269   5.407
 1697SOL     OW 5422   0.973   2.752   5.296
 1697SOL    HW1 5423   1.019   2.668   5.267
 1697SOL    HW2 5424   0.917   2.786   5.221
 1698SOL     OW 5425   0.991   2.272   4.966
 1698SOL    HW1 5426   0.914   2.306   5.020
 1698SOL    HW2 5427   0.957   2.221   4.887
 1699SOL     OW 5428   1.041   2.563   4.153
 1699SOL    HW1 5429   1.067   2.559   4.249
 1699SOL    HW2 5430   0.956   2.512   4.139
 1700SOL     OW 5431   0.076   2.673   4.513
 1700SOL    HW1 5432   0.175   2.661   4.522
 1700SOL    HW2 5433   0.052   2.768   4.534
 1701SOL     OW 5434   0.130   3.683   5.295
 1701SOL    HW1 5435   0.120   3.668   5.394
 1701SOL    HW2 5436   0.044   3.719   5.259
 1702SOL     OW 5437   0.865   2.210   3.919
 1702SOL    HW1 5438   0.924   2.273   3.870
 1702SOL    HW2 5439   0.884   2.116   3.890
 1703SOL     OW 5440   1.719   2.447   5.555
 1703SOL    HW1 5441   1.693   2.536   5.519
 1703SOL    HW2 5442   1.717   2.379   5.482
 1704SOL     OW 5443   1.362   3.006   4.269
 1704SOL    HW1 5444   1.445   2.977   4.221
 1704SOL    HW2 5445   1.313   3.073   4.213
 1705SOL     OW 5446   0.550   2.058   4.609
 1705SOL    HW1 5447   0.545   2.053   4.709
 1705SOL    HW2 5448   0.552   2.154   4.580
 1706SOL     OW 5449   1.008   3.318   4.201
 1706SOL    HW1 5450   0.962   3.390   4.149
 1706SOL    HW2 5451   1.004   3.338   4.299
 1707SOL     OW 5452   0.351   3.663   4.577
 1707SOL    HW1 5453   0.401   3.577   4.583
 1707SOL    HW2 5454   0.416   3.740   4.574
 1708SOL     OW 5455   1.795   2.928   4.597
 1708SOL    HW1 5456   1.733   2.913   4.521
 1708SOL    HW2 5457   1.743   2.939   4.682
 1709SOL     OW 5458   1.227   3.412   5.230
 1709SOL    HW1 5459   1.233   3.335   5.294
 1709SOL    HW2 5460   1.175   3.386   5.150
 1710SOL     OW 5461   0.321   2.805   3.966
 1710SOL    HW1 5462   0.403   2.844   3.924
 1710SOL    HW2 5463   0.294   2.723   3.917
 1711SOL     OW 5464   1.458   2.597   4.452
 1711SOL    HW1 5465   1.453   2.532   4.527
 1711SOL    HW2 5466   1.538   2.656   4.465
 1712SOL     OW 5467   0.461   3.128   5.451
 1712SOL    HW1 5468   0.411   3.129   5.365
 1712SOL    HW2 5469   0.398   3.110   5.527
 1713SOL     OW 5470   1.111   3.638   3.961
 1713SOL    HW1 5471   1.051   3.576   4.011
 1713SOL    HW2 5472   1.142   3.594   3.876
 1714SOL     OW 5473   0.202   2.147   5.222
 1714SOL    HW1 5474   0.122   2.207   5.209
 1714SOL    HW2 5475   0.192   2.098   5.308
 1715SOL     OW 5476   1.632   3.239   3.805
 1715SOL    HW1 5477   1.600   3.333   3.795
 1715SOL    HW2 5478   1.556   3.176   3.793
 1716SOL     OW 5479   0.464   3.605   4.047
 1716SOL    HW1 5480   0.497   3.644   4.133
 1716SOL    HW2 5481   0.540   3.598   3.982
 1717SOL     OW 5482   1.400   1.969   4.150
 1717SOL    HW1 5483   1.376   1.932   4.060
 1717SOL    HW2 5484   1.499   1.985   4.154
 1718SOL     OW 5485   0.249   3.647   4.965
 1718SOL    HW1 5486   0.306   3.582   5.015
 1718SOL    HW2 5487   0.233   3.614   4.872
 1719SOL     OW 5488   0.940   3.560   4.628
 1719SOL    HW1 5489   1.020   3.503   4.649
 1719SOL    HW2 5490   0.891   3.520   4.551
 1720SOL     OW 5491   0.382   2.562   4.204
 1720SOL    HW1 5492   0.427   2.472   4.201
 1720SOL    HW2 5493   0.288   2.551   4.237
 1721SOL     OW 5494   1.547   2.084   5.453
 1721SOL    HW1 5495   1.542   2.121   5.545
 1721SOL    HW2 5496   1.475   2.015   5.441
 1722SOL     OW 5497   0.614   1.984   3.841
 1722SOL    HW1 5498   0.712   1.962   3.848
 1722SOL    HW2 5499   0.583   1.967   3.748
 1723SOL     OW 5500   0.781   2.126   5.473
 1723SOL    HW1 5501   0.848   2.065   5.516
 1723SOL    HW2 5502   0.708   2.145   5.538
 1724SOL     OW 5503   0.888   3.376   4.919
 1724SOL    HW1 5504   0.865   3.351   4.825
 1724SOL    HW2 5505   0.949   3.307   4.958
 1725SOL     OW 5506   1.351   2.452   5.157
 1725SOL    HW1 5507   1.379   2.409   5.242
 1725SOL    HW2 5508   1.376   2.548   5.158
 1726SOL     OW 5509   0.803   3.264   4.648
 1726SOL    HW1 5510   0.893   3.278   4.606
 1726SOL    HW2 5511   0.732   3.266   4.577
 1727SOL     OW 5512   0.922   2.365   4.623
 1727SOL    HW1 5513   0.897   2.356   4.527
 1727SOL    HW2 5514   0.970   2.283   4.654
 1728SOL     OW 5515   0.539   1.926   4.236
 1728SOL    HW1 5516   0.458   1.927   4.294
 1728SOL    HW2 5517   0.542   2.009   4.181
 1729SOL     OW 5518   1.434   3.050   3.765
 1729SOL    HW1 5519   1.466   2.974   3.822
 1729SOL    HW2 5520   1.342   3.077   3.795
 1730SOL     OW 5521   0.297   1.897   3.895
 1730SOL    HW1 5522   0.346   1.981   3.874
 1730SOL    HW2 5523   0.359   1.832   3.940
 1731SOL     OW 5524   0.935   2.098   4.204
 1731SOL    HW1 5525   0.887   2.139   4.126
 1731SOL    HW2 5526   1.034   2.096   4.185
 1732SOL     OW 5527   1.076   2.545   5.188
 1732SOL    HW1 5528   0.996   2.484   5.191
 1732SOL    HW2 5529   1.157   2.492   5.164
 1733SOL     OW 5530   1.227   3.432   4.517
 1733SOL    HW1 5531   1.248   3.506   4.452
 1733SOL    HW2 5532   1.295   3.432   4.590
 1734SOL     OW 5533   0.459   3.014   4.465
 1734SOL    HW1 5534   0.388   2.987   4.530
 1734SOL    HW2 5535   0.433   2.986   4.372
 1735SOL     OW 5536   1.271   3.659   4.315
 1735SOL    HW1 5537   1.315   3.723   4.251
 1735SOL    HW2 5538   1.221   3.711   4.385
 1736SOL     OW 5539   1.032   2.411   3.740
 1736SOL    HW1 5540   0.991   2.493   3.701
 1736SOL    HW2 5541   1.096   2.437   3.813
 1737SOL     OW 5542   0.078   2.418   5.110
 1737SOL    HW1 5543   0.170   2.417   5.069
 1737SOL    HW2 5544   0.072   2.492   5.177
 1738SOL     OW 5545   0.561   2.084   4.871
 1738SOL    HW1 5546   0.599   2.000   4.908
 1738SOL    HW2 5547   0.473   2.103   4.915
 1739SOL     OW 5548   0.866   2.316   4.366
 1739SOL    HW1 5549   0.834   2.388   4.304
 1739SOL    HW2 5550   0.890   2.235   4.313
 1740SOL     OW 5551   1.017   1.901   4.477
 1740SOL    HW1 5552   0.945   1.906   4.408
 1740SOL    HW2 5553   0.993   1.832   4.546
 1741SOL     OW 5554   1.429   3.035   4.591
 1741SOL    HW1 5555   1.374   2.951   4.584
 1741SOL    HW2 5556   1.455   3.064   4.499
 1742SOL     OW 5557   1.466   2.452   4.716
 1742SOL    HW1 5558   1.436   2.357   4.723
 1742SOL    HW2 5559   1.539   2.468   4.782
 1743SOL     OW 5560   1.857   2.695   4.101
 1743SOL    HW1 5561   1.899   2.631   4.165
 1743SOL    HW2 5562   1.819   2.644   4.023
 1744SOL     OW 5563   0.488   3.247   3.898
 1744SOL    HW1 5564   0.401   3.232   3.945
 1744SOL    HW2 5565   0.471   3.273   3.803
 1745SOL     OW 5566   1.664   3.142   4.381
 1745SOL    HW1 5567   1.763   3.150   4.395
 1745SOL    HW2 5568   1.619   3.226   4.412
 1746SOL     OW 5569   1.390   2.437   3.802
 1746SOL    HW1 5570   1.336   2.416   3.883
 1746SOL    HW2 5571   1.481   2.396   3.811
 1747SOL     OW 5572   0.527   2.118   4.052
 1747SOL    HW1 5573   0.554   2.059   3.977
 1747SOL    HW2 5574   0.527   2.213   4.021
 1748SOL     OW 5575   1.754   3.085   5.312
 1748SOL    HW1 5576   1.845   3.046   5.299
 1748SOL    HW2 5577   1.762   3.181   5.336
 1749SOL     OW 5578   1.064   3.209   5.064
 1749SOL    HW1 5579   0.984   3.186   5.119
 1749SOL    HW2 5580   1.147   3.183   5.113
 1750SOL     OW 5581   1.592   3.491   5.349
 1750SOL    HW1 5582   1.619   3.525   5.259
 1750SOL    HW2 5583   1.671   3.453   5.395
 1751SOL     OW 5584   1.111   3.057   4.824
 1751SOL    HW1 5585   1.071   3.101   4.905
 1751SOL    HW2 5586   1.070   3.094   4.741
 1752SOL     OW 5587   1.638   2.961   4.803
 1752SOL    HW1 5588   1.643   3.042   4.862
 1752SOL    HW2 5589   1.552   2.963   4.752
 1753SOL     OW 5590   0.915   1.951   5.126
 1753SOL    HW1 5591   0.940   1.931   5.031
 1753SOL    HW2 5592   0.987   2.007   5.168
 1754SOL     OW 5593   0.980   2.978   5.443
 1754SOL    HW1 5594   0.881   2.984   5.453
 1754SOL    HW2 5595   1.003   2.898   5.387
 1755SOL     OW 5596   0.705   2.912   4.092
 1755SOL    HW1 5597   0.691   2.919   4.191
 1755SOL    HW2 5598   0.789   2.861   4.074
 1756SOL     OW 5599   0.410   2.675   4.975
 1756SOL    HW1 5600   0.496   2.687   5.025
 1756SOL    HW2 5601   0.368   2.588   5.002
 1757SOL     OW 5602   1.274   2.248   4.986
 1757SOL    HW1 5603   1.295   2.322   5.050
 1757SOL    HW2 5604   1.185   2.265   4.943
 1758SOL     OW 5605   0.064   3.426   5.055
 1758SOL    HW1 5606   0.018   3.508   5.021
 1758SOL    HW2 5607   0.162   3.445   5.064
 1759SOL     OW 5608   0.367   2.962   4.225
 1759SOL    HW1 5609   0.360   3.045   4.169
 1759SOL    HW2 5610   0.371   2.882   4.165
 1760SOL     OW 5611   0.566   2.399   4.589
 1760SOL    HW1 5612   0.578   2.465   4.515
 1760SOL    HW2 5613   0.612   2.433   4.672
 1761SOL     OW 5614   1.252   3.210   4.112
 1761SOL    HW1 5615   1.302   3.287   4.152
 1761SOL    HW2 5616   1.157   3.212   4.144
 1762SOL     OW 5617   1.272   3.307   4.866
 1762SOL    HW1 5618   1.319   3.320   4.953
 1762SOL    HW2 5619   1.206   3.233   4.875
 1763SOL     OW 5620   1.582   2.501   4.196
 1763SOL    HW1 5621   1.551   2.562   4.269
 1763SOL    HW2 5622   1.632   2.553   4.127
 1764SOL     OW 5623   0.354   3.372   5.053
 1764SOL    HW1 5624   0.333   3.328   4.966
 1764SOL    HW2 5625   0.451   3.398   5.056
 1765SOL     OW 5626   0.402   2.613   5.322
 1765SOL    HW1 5627   0.470   2.668   5.275
 1765SOL    HW2 5628   0.442   2.525   5.349
 1766SOL     OW 5629   1.587   2.641   5.394
 1766SOL    HW1 5630   1.495   2.679   5.389
 1766SOL    HW2 5631   1.647   2.688   5.329
 1767SOL     OW 5632   1.013   1.967   5.494
 1767SOL    HW1 5633   1.019   2.052   5.442
 1767SOL    HW2 5634   1.045   1.891   5.437
 1768SOL     OW 5635   0.504   1.912   5.464
 1768SOL    HW1 5636   0.462   1.855   5.394
 1768SOL    HW2 5637   0.438   1.981   5.496
 1769SOL     OW 5638   0.573   2.732   4.753
 1769SOL    HW1 5639   0.617   2.821   4.744
 1769SOL    HW2 5640   0.510   2.732   4.830
 1770SOL     OW 5641   1.360   2.724   4.769
 1770SOL    HW1 5642   1.285   2.724   4.703
 1770SOL    HW2 5643   1.397   2.632   4.778
 1771SOL     OW 5644   1.209   2.387   3.999
 1771SOL    HW1 5645   1.222   2.303   4.053
 1771SOL    HW2 5646   1.180   2.461   4.059
 1772SOL     OW 5647   0.307   2.075   4.955
 1772SOL    HW1 5648   0.284   2.112   5.045
 1772SOL    HW2 5649   0.277   1.980   4.949
 1773SOL     OW 5650   0.037   3.172   5.006
 1773SOL    HW1 5651   0.090   3.123   5.074
 1773SOL    HW2 5652   0.059   3.270   5.011
 1774SOL     OW 5653   0.732   2.496   4.788
 1774SOL    HW1 5654   0.791   2.470   4.712
 1774SOL    HW2 5655   0.704   2.592   4.777
 1775SOL     OW 5656   1.728   2.797   5.578
 1775SOL    HW1 5657   1.682   2.790   5.489
 1775SOL    HW2 5658   1.666   2.841   5.644
 1776SOL     OW 5659   0.307   1.925   4.342
 1776SOL    HW1 5660   0.296   2.019   4.375
 1776SOL    HW2 5661   0.302   1.862   4.419
 1777SOL     OW 5662   1.622   2.229   4.098
 1777SOL    HW1 5663   1.624   2.153   4.162
 1777SOL    HW2 5664   1.574   2.306   4.138
 1778SOL     OW 5665   1.023   2.628   4.690
 1778SOL    HW1 5666   1.038   2.649   4.786
 1778SOL    HW2 5667   0.993   2.533   4.681
 1779SOL     OW 5668   0.980   3.435   5.424
 1779SOL    HW1 5669   0.960   3.479   5.336
 1779SOL    HW2 5670   1.019   3.344   5.408
 1780SOL     OW 5671   1.859   3.380   5.329
 1780SOL    HW1 5672   1.873   3.407   5.234
 1780SOL    HW2 5673   1.942   3.402   5.382
 1781SOL     OW 5674   0.350   2.760   5.528
 1781SOL    HW1 5675   0.426   2.804   5.576
 1781SOL    HW2 5676   0.385   2.713   5.446
 1782SOL     OW 5677   1.540   2.136   3.849
 1782SOL    HW1 5678   1.479   2.061   3.872
 1782SOL    HW2 5679   1.562   2.188   3.932
 1783SOL     OW 5680   1.303   2.700   3.766
 1783SOL    HW1 5681   1.337   2.607   3.781
 1783SOL    HW2 5682   1.321   2.727   3.671
 1784SOL     OW 5683   1.068   3.195   4.573
 1784SOL    HW1 5684   1.075   3.111   4.518
 1784SOL    HW2 5685   1.130   3.264   4.537
 1785SOL     OW 5686   0.319   2.672   4.673
 1785SOL    HW1 5687   0.412   2.708   4.678
 1785SOL    HW2 5688   0.313   2.587   4.725
 1786SOL     OW 5689   0.339   2.371   4.730
 1786SOL    HW1 5690   0.287   2.288   4.713
 1786SOL    HW2 5691   0.416   2.376   4.666
 1787SOL     OW 5692   1.138   2.242   5.402
 1787SOL    HW1 5693   1.093   2.305   5.466
 1787SOL    HW2 5694   1.231   2.273   5.385
 1788SOL     OW 5695   1.160   2.069   5.201
 1788SOL    HW1 5696   1.160   2.133   5.278
 1788SOL    HW2 5697   1.188   2.117   5.118
 1789SOL     OW 5698   0.008   3.188   3.924
 1789SOL    HW1 5699  -0.085   3.209   3.893
 1789SOL    HW2 5700   0.018   3.089   3.937
 1790SOL     OW 5701   0.088   3.663   4.651
 1790SOL    HW1 5702   0.046   3.577   4.624
 1790SOL    HW2 5703   0.182   3.666   4.617
 1791SOL     OW 5704   0.504   3.430   4.634
 1791SOL    HW1 5705   0.570   3.504   4.643
 1791SOL    HW2 5706   0.548   3.351   4.592
 1792SOL     OW 5707   1.002   2.658   4.962
 1792SOL    HW1 5708   1.043   2.626   5.048
 1792SOL    HW2 5709   0.906   2.631   4.959
 1793SOL     OW 5710   0.040   2.406   4.838
 1793SOL    HW1 5711   0.125   2.373   4.797
 1793SOL    HW2 5712   0.053   2.421   4.936
 1794SOL     OW 5713   0.189   2.382   5.446
 1794SOL    HW1 5714   0.248   2.342   5.376
 1794SOL    HW2 5715   0.131   2.453   5.405
 1795SOL     OW 5716   1.369   2.812   5.384
 1795SOL    HW1 5717   1.408   2.901   5.404
 1795SOL    HW2 5718   1.379   2.792   5.287
 1796SOL     OW 5719   0.815   2.434   4.049
 1796SOL    HW1 5720   0.822   2.345   4.003
 1796SOL    HW2 5721   0.721   2.468   4.041
 1797SOL     OW 5722   1.657   2.466   4.930
 1797SOL    HW1 5723   1.619   2.397   4.992
 1797SOL    HW2 5724   1.739   2.430   4.886
 1798SOL     OW 5725   0.252   3.426   5.468
 1798SOL    HW1 5726   0.222   3.483   5.544
 1798SOL    HW2 5727   0.245   3.329   5.494
 1799SOL     OW 5728   0.671   2.326   4.993
 1799SOL    HW1 5729   0.637   2.237   4.963
 1799SOL    HW2 5730   0.697   2.380   4.913
 1800SOL     OW 5731   0.930   3.540   5.189
 1800SOL    HW1 5732   0.906   3.522   5.094
 1800SOL    HW2 5733   0.960   3.634   5.199
 1801SOL     OW 5734   0.473   2.362   3.915
 1801SOL    HW1 5735   0.534   2.442   3.919
 1801SOL    HW2 5736   0.378   2.393   3.922
 1802SOL     OW 5737   0.159   2.999   5.190
 1802SOL    HW1 5738   0.181   2.938   5.266
 1802SOL    HW2 5739   0.169   2.950   5.104
 1803SOL     OW 5740   1.347   2.921   4.958
 1803SOL    HW1 5741   1.371   2.858   4.884
 1803SOL    HW2 5742   1.257   2.961   4.940
 1804SOL     OW 5743   1.302   2.717   4.033
 1804SOL    HW1 5744   1.216   2.686   4.075
 1804SOL    HW2 5745   1.298   2.703   3.934
 1805SOL     OW 5746   1.759   3.609   4.878
 1805SOL    HW1 5747   1.820   3.639   4.805
 1805SOL    HW2 5748   1.721   3.520   4.856
 1806SOL     OW 5749   1.252   3.593   4.852
 1806SOL    HW1 5750   1.336   3.598   4.798
 1806SOL    HW2 5751   1.229   3.497   4.870
 1807SOL     OW 5752   0.083   3.120   4.746
 1807SOL    HW1 5753   0.078   3.119   4.846
 1807SOL    HW2 5754   0.000   3.079   4.708
 1808SOL     OW 5755   0.688   3.524   5.440
 1808SOL    HW1 5756   0.632   3.605   5.449
 1808SOL    HW2 5757   0.740   3.528   5.354
 1809SOL     OW 5758   1.726   1.997   4.247
 1809SOL    HW1 5759   1.799   1.980   4.180
 1809SOL    HW2 5760   1.695   1.910   4.285
 1810SOL     OW 5761   1.388   3.435   4.201
 1810SOL    HW1 5762   1.455   3.447   4.127
 1810SOL    HW2 5763   1.348   3.524   4.224
 1811SOL     OW 5764   0.130   3.656   5.575
 1811SOL    HW1 5765   0.089   3.582   5.628
 1811SOL    HW2 5766   0.194   3.707   5.633
 1812SOL     OW 5767   1.280   2.789   4.396
 1812SOL    HW1 5768   1.340   2.708   4.398
 1812SOL    HW2 5769   1.320   2.858   4.336
 1813SOL     OW 5770   0.830   3.135   5.146
 1813SOL    HW1 5771   0.825   3.168   5.241
 1813SOL    HW2 5772   0.744   3.154   5.100
 1814SOL     OW 5773   0.672   3.478   3.878
 1814SOL    HW1 5774   0.681   3.488   3.779
 1814SOL    HW2 5775   0.632   3.389   3.899
 1815SOL     OW 5776   1.650   3.582   5.118
 1815SOL    HW1 5777   1.703   3.592   5.034
 1815SOL    HW2 5778   1.623   3.672   5.152
 1816SOL     OW 5779   1.841   2.037   4.687
 1816SOL    HW1 5780   1.880   1.952   4.651
 1816SOL    HW2 5781   1.743   2.039   4.668
 1817SOL     OW 5782   0.263   2.188   4.444
 1817SOL    HW1 5783   0.184   2.239   4.410
 1817SOL    HW2 5784   0.254   2.173   4.542
 1818SOL     OW 5785   1.194   3.474   3.755
 1818SOL    HW1 5786   1.200   3.381   3.792
 1818SOL    HW2 5787   1.135   3.474   3.675
 1819SOL     OW 5788   0.822   2.864   5.096
 1819SOL    HW1 5789   0.862   2.863   5.004
 1819SOL    HW2 5790   0.832   2.956   5.136
 1820SOL     OW 5791   0.916   2.772   4.015
 1820SOL    HW1 5792   0.979   2.810   3.947
 1820SOL    HW2 5793   0.956   2.689   4.054
 1821SOL     OW 5794   1.504   3.469   3.768
 1821SOL    HW1 5795   1.412   3.506   3.775
 1821SOL    HW2 5796   1.542   3.489   3.678
 1822SOL     OW 5797   0.372   3.150   5.214
 1822SOL    HW1 5798   0.359   3.243   5.180
 1822SOL    HW2 5799   0.288   3.098   5.201
 1823SOL     OW 5800   1.614   3.154   5.013
 1823SOL    HW1 5801   1.674   3.157   5.093
 1823SOL    HW2 5802   1.539   3.218   5.026
 1824SOL     OW 5803   1.039   2.960   4.420
 1824SOL    HW1 5804   0.969   2.913   4.474
 1824SOL    HW2 5805   1.098   2.892   4.377
 1825SOL     OW 5806   1.014   2.098   4.695
 1825SOL    HW1 5807   1.006   2.062   4.602
 1825SOL    HW2 5808   1.012   2.022   4.760
 1826SOL     OW 5809   0.590   3.349   4.215
 1826SOL    HW1 5810   0.632   3.291   4.145
 1826SOL    HW2 5811   0.546   3.428   4.171
 1827SOL     OW 5812   1.709   2.247   5.105
 1827SOL    HW1 5813   1.782   2.316   5.109
 1827SOL    HW2 5814   1.737   2.172   5.046
 1828SOL     OW 5815   0.255   3.210   4.014
 1828SOL    HW1 5816   0.159   3.211   3.987
 1828SOL    HW2 5817   0.267   3.263   4.098
 1829SOL     OW 5818   0.105   2.875   5.450
 1829SOL    HW1 5819   0.028   2.842   5.504
 1829SOL    HW2 5820   0.190   2.845   5.492
 1830SOL     OW 5821   0.672   2.065   5.213
 1830SOL    HW1 5822   0.762   2.049   5.173
 1830SOL    HW2 5823   0.680   2.070   5.312
 1831SOL     OW 5824   0.075   2.207   3.757
 1831SOL    HW1 5825  -0.017   2.179   3.728
 1831SOL    HW2 5826   0.106   2.284   3.701
 1832SOL     OW 5827   1.440   2.718   5.122
 1832SOL    HW1 5828   1.383   2.770   5.059
 1832SOL    HW2 5829   1.536   2.730   5.098
 1833SOL     OW 5830   0.072   2.028   4.042
 1833SOL    HW1 5831   0.055   2.111   3.988
 1833SOL    HW2 5832   0.162   1.991   4.020
 1834SOL     OW 5833   1.183   3.197   3.843
 1834SOL    HW1 5834   1.084   3.186   3.845
 1834SOL    HW2 5835   1.217   3.212   3.936
 1835SOL     OW 5836   0.613   2.704   5.155
 1835SOL    HW1 5837   0.669   2.785   5.138
 1835SOL    HW2 5838   0.672   2.624   5.158
 1836SOL     OW 5839   1.493   3.629   4.683
 1836SOL    HW1 5840   1.526   3.693   4.614
 1836SOL    HW2 5841   1.559   3.623   4.758
 1837SOL     OW 5842   0.716   2.427   5.432
 1837SOL    HW1 5843   0.735   2.492   5.506
 1837SOL    HW2 5844   0.776   2.347   5.441
 1838SOL     OW 5845   1.450   3.082   5.357
 1838SOL    HW1 5846   1.441   3.072   5.456
 1838SOL    HW2 5847   1.546   3.075   5.331
 1839SOL     OW 5848   0.390   3.603   5.284
 1839SOL    HW1 5849   0.299   3.644   5.282
 1839SOL    HW2 5850   0.383   3.509   5.316
 1840SOL     OW 5851   1.674   2.745   4.978
 1840SOL    HW1 5852   1.647   2.656   4.941
 1840SOL    HW2 5853   1.675   2.813   4.905
 1841SOL     OW 5854   1.225   2.187   4.173
 1841SOL    HW1 5855   1.290   2.113   4.162
 1841SOL    HW2 5856   1.245   2.237   4.257
 1842SOL     OW 5857   0.594   2.607   4.376
 1842SOL    HW1 5858   0.644   2.692   4.357
 1842SOL    HW2 5859   0.506   2.609   4.328
 1843SOL     OW 5860   1.777   2.204   5.366
 1843SOL    HW1 5861   1.760   2.235   5.272
 1843SOL    HW2 5862   1.693   2.167   5.404
 1844SOL     OW 5863   1.730   2.796   5.241
 1844SOL    HW1 5864   1.768   2.887   5.256
 1844SOL    HW2 5865   1.722   2.779   5.142
 1845SOL     OW 5866   0.859   3.236   3.740
 1845SOL    HW1 5867   0.813   3.251   3.828
 1845SOL    HW2 5868   0.903   3.321   3.710
 1846SOL     OW 5869   0.661   3.652   4.677
 1846SOL    HW1 5870   0.615   3.740   4.664
 1846SOL    HW2 5871   0.760   3.664   4.670
 1847SOL     OW 5872   0.859   2.818   4.585
 1847SOL    HW1 5873   0.913   2.749   4.633
 1847SOL    HW2 5874   0.827   2.887   4.651
 1848SOL     OW 5875   1.083   2.846   3.811
 1848SOL    HW1 5876   1.060   2.899   3.729
 1848SOL    HW2 5877   1.164   2.790   3.792
 1849SOL     OW 5878   1.861   3.431   4.575
 1849SOL    HW1 5879   1.790   3.419   4.505
 1849SOL    HW2 5880   1.862   3.352   4.635
 1850SOL     OW 5881   0.221   3.176   5.568
 1850SOL    HW1 5882   0.156   3.103   5.547
 1850SOL    HW2 5883   0.225   3.190   5.666
 1851SOL     OW 5884   0.079   3.102   4.377
 1851SOL    HW1 5885   0.078   3.055   4.465
 1851SOL    HW2 5886   0.161   3.074   4.326
 1852SOL     OW 5887   0.672   3.253   5.348
 1852SOL    HW1 5888   0.594   3.203   5.386
 1852SOL    HW2 5889   0.669   3.348   5.379
 1853SOL     OW 5890   1.824   2.054   4.951
 1853SOL    HW1 5891   1.820   1.964   4.995
 1853SOL    HW2 5892   1.827   2.043   4.852
 1854SOL     OW 5893   0.428   2.286   4.244
 1854SOL    HW1 5894   0.458   2.214   4.182
 1854SOL    HW2 5895   0.389   2.246   4.327
 1855SOL     OW 5896   1.705   3.349   4.828
 1855SOL    HW1 5897   1.612   3.324   4.801
 1855SOL    HW2 5898   1.731   3.299   4.910
 1856SOL     OW 5899   0.317   2.409   5.004
 1856SOL    HW1 5900   0.355   2.350   5.076
 1856SOL    HW2 5901   0.357   2.383   4.916
 1857SOL     OW 5902   0.812   3.448   4.411
 1857SOL    HW1 5903   0.844   3.458   4.317
 1857SOL    HW2 5904   0.733   3.386   4.413
 1858SOL     OW 5905   1.424   2.076   4.836
 1858SOL    HW1 5906   1.476   2.011   4.891
 1858SOL    HW2 5907   1.375   2.139   4.897
 1859SOL     OW 5908   1.001   1.896   4.878
 1859SOL    HW1 5909   0.938   1.824   4.847
 1859SOL    HW2 5910   1.094   1.860   4.878
 1860SOL     OW 5911   0.770   3.192   4.025
 1860SOL    HW1 5912   0.724   3.105   4.042
 1860SOL    HW2 5913   0.861   3.189   4.066
 1861SOL     OW 5914   0.618   3.429   5.008
 1861SOL    HW1 5915   0.613   3.511   5.065
 1861SOL    HW2 5916   0.707   3.426   4.963
 1862SOL     OW 5917   1.352   1.914   3.892
 1862SOL    HW1 5918   1.387   1.873   3.808
 1862SOL    HW2 5919   1.262   1.876   3.912
 1863SOL     OW 5920   1.300   2.315   4.415
 1863SOL    HW1 5921   1.241   2.395   4.419
 1863SOL    HW2 5922   1.315   2.280   4.508
 1864SOL     OW 5923   1.593   2.083   4.606
 1864SOL    HW1 5924   1.509   2.082   4.660
 1864SOL    HW2 5925   1.595   2.166   4.550
 1865SOL     OW 5926   0.039   2.939   4.024
 1865SOL    HW1 5927   0.138   2.928   4.015
 1865SOL    HW2 5928  -0.001   2.853   4.056
 1866SOL     OW 5929   0.875   3.508   4.061
 1866SOL    HW1 5930   0.798   3.473   4.007
 1866SOL    HW2 5931   0.843   3.579   4.123
 1867SOL     OW 5932   0.230   2.490   5.699
 1867SOL    HW1 5933   0.137   2.488   5.736
 1867SOL    HW2 5934   0.231   2.451   5.607
 1868SOL     OW 5935   0.225   2.137   6.582
 1868SOL    HW1 5936   0.260   2.120   6.674
 1868SOL    HW2 5937   0.137   2.092   6.570
 1869SOL     OW 5938   0.019   2.230   6.233
 1869SOL    HW1 5939  -0.063   2.273   6.272
 1869SOL    HW2 5940  -0.009   2.157   6.170
 1870SOL     OW 5941   0.569   3.137   6.751
 1870SOL    HW1 5942   0.476   3.130   6.714
 1870SOL    HW2 5943   0.580   3.226   6.795
 1871SOL     OW 5944   1.555   3.373   6.289
 1871SOL    HW1 5945   1.498   3.357   6.370
 1871SOL    HW2 5946   1.496   3.383   6.209
 1872SOL     OW 5947   1.135   2.565   6.303
 1872SOL    HW1 5948   1.192   2.643   6.278
 1872SOL    HW2 5949   1.075   2.591   6.379
 1873SOL     OW 5950   1.755   2.469   5.817
 1873SOL    HW1 5951   1.743   2.456   5.718
 1873SOL    HW2 5952   1.725   2.388   5.866
 1874SOL     OW 5953   0.768   3.006   6.609
 1874SOL    HW1 5954   0.690   3.023   6.669
 1874SOL    HW2 5955   0.802   3.093   6.573
 1875SOL     OW 5956   0.850   2.660   7.409
 1875SOL    HW1 5957   0.846   2.736   7.474
 1875SOL    HW2 5958   0.872   2.696   7.318
 1876SOL     OW 5959   0.685   2.874   6.251
 1876SOL    HW1 5960   0.754   2.858   6.321
 1876SOL    HW2 5961   0.612   2.931   6.289
 1877SOL     OW 5962   0.686   3.023   7.389
 1877SOL    HW1 5963   0.746   3.102   7.403
 1877SOL    HW2 5964   0.600   3.054   7.348
 1878SOL     OW 5965   0.335   3.297   6.647
 1878SOL    HW1 5966   0.257   3.266   6.594
 1878SOL    HW2 5967   0.393   3.355   6.590
 1879SOL     OW 5968   1.460   3.367   6.925
 1879SOL    HW1 5969   1.484   3.461   6.951
 1879SOL    HW2 5970   1.444   3.313   7.007
 1880SOL     OW 5971   0.438   2.254   7.085
 1880SOL    HW1 5972   0.520   2.198   7.094
 1880SOL    HW2 5973   0.357   2.196   7.089
 1881SOL     OW 5974   1.603   2.309   6.323
 1881SOL    HW1 5975   1.529   2.355   6.273
 1881SOL    HW2 5976   1.654   2.377   6.376
 1882SOL     OW 5977   0.231   3.575   6.069
 1882SOL    HW1 5978   0.265   3.652   6.123
 1882SOL    HW2 5979   0.275   3.575   5.979
 1883SOL     OW 5980   1.127   3.203   7.276
 1883SOL    HW1 5981   1.174   3.203   7.364
 1883SOL    HW2 5982   1.079   3.116   7.265
 1884SOL     OW 5983   0.230   3.296   6.124
 1884SOL    HW1 5984   0.204   3.392   6.124
 1884SOL    HW2 5985   0.159   3.242   6.169
 1885SOL     OW 5986   0.240   2.953   6.472
 1885SOL    HW1 5987   0.254   2.869   6.524
 1885SOL    HW2 5988   0.185   3.017   6.527
 1886SOL     OW 5989   0.620   3.648   7.025
 1886SOL    HW1 5990   0.528   3.631   7.060
 1886SOL    HW2 5991   0.648   3.740   7.051
 1887SOL     OW 5992   0.606   2.826   5.709
 1887SOL    HW1 5993   0.613   2.910   5.655
 1887SOL    HW2 5994   0.652   2.839   5.797
 1888SOL     OW 5995   1.594   1.976   7.066
 1888SOL    HW1 5996   1.576   2.043   6.994
 1888SOL    HW2 5997   1.591   2.022   7.155
 1889SOL     OW 5998   0.122   2.505   6.149
 1889SOL    HW1 5999   0.077   2.417   6.166
 1889SOL    HW2 6000   0.121   2.559   6.233
 1890SOL     OW 6001   1.842   3.629   5.945
 1890SOL    HW1 6002   1.896   3.600   6.025
 1890SOL    HW2 6003   1.872   3.719   5.916
 1891SOL     OW 6004   0.027   3.458   5.703
 1891SOL    HW1 6005   0.008   3.362   5.724
 1891SOL    HW2 6006  -0.006   3.516   5.778
 1892SOL     OW 6007   1.689   2.784   6.198
 1892SOL    HW1 6008   1.784   2.755   6.206
 1892SOL    HW2 6009   1.681   2.849   6.123
 1893SOL     OW 6010   1.641   2.970   6.018
 1893SOL    HW1 6011   1.727   2.972   5.966
 1893SOL    HW2 6012   1.655   3.017   6.106
 1894SOL     OW 6013   0.113   2.599   7.183
 1894SOL    HW1 6014   0.201   2.586   7.228
 1894SOL    HW2 6015   0.100   2.696   7.161
 1895SOL     OW 6016   0.613   3.227   6.312
 1895SOL    HW1 6017   0.564   3.140   6.321
 1895SOL    HW2 6018   0.590   3.270   6.225
 1896SOL     OW 6019   1.293   3.090   7.009
 1896SOL    HW1 6020   1.330   3.017   6.951
 1896SOL    HW2 6021   1.345   3.095   7.094
 1897SOL     OW 6022   0.809   1.866   6.088
 1897SOL    HW1 6023   0.849   1.957   6.079
 1897SOL    HW2 6024   0.709   1.874   6.094
 1898SOL     OW 6025   0.197   2.838   6.850
 1898SOL    HW1 6026   0.286   2.793   6.836
 1898SOL    HW2 6027   0.124   2.773   6.831
 1899SOL     OW 6028   1.525   2.861   5.776
 1899SOL    HW1 6029   1.462   2.785   5.789
 1899SOL    HW2 6030   1.573   2.879   5.862
 1900SOL     OW 6031   1.187   3.654   7.202
 1900SOL    HW1 6032   1.211   3.714   7.126
 1900SOL    HW2 6033   1.194   3.559   7.172
 1901SOL     OW 6034   0.317   2.113   7.387
 1901SOL    HW1 6035   0.388   2.184   7.393
 1901SOL    HW2 6036   0.229   2.152   7.415
 1902SOL     OW 6037   1.466   3.279   6.539
 1902SOL    HW1 6038   1.407   3.285   6.619
 1902SOL    HW2 6039   1.451   3.191   6.493
 1903SOL     OW 6040   1.667   3.576   6.158
 1903SOL    HW1 6041   1.626   3.553   6.070
 1903SOL    HW2 6042   1.649   3.502   6.223
 1904SOL     OW 6043   0.598   2.591   5.856
 1904SOL    HW1 6044   0.622   2.660   5.788
 1904SOL    HW2 6045   0.520   2.624   5.910
 1905SOL     OW 6046   1.281   2.207   6.530
 1905SOL    HW1 6047   1.195   2.157   6.517
 1905SOL    HW2 6048   1.343   2.153   6.586
 1906SOL     OW 6049   1.576   3.524   5.893
 1906SOL    HW1 6050   1.665   3.570   5.896
 1906SOL    HW2 6051   1.555   3.500   5.798
 1907SOL     OW 6052   0.807   2.467   7.051
 1907SOL    HW1 6053   0.760   2.464   7.140
 1907SOL    HW2 6054   0.756   2.412   6.985
 1908SOL     OW 6055   1.394   2.331   7.260
 1908SOL    HW1 6056   1.374   2.374   7.348
 1908SOL    HW2 6057   1.472   2.269   7.269
 1909SOL     OW 6058   0.973   2.752   7.158
 1909SOL    HW1 6059   1.019   2.668   7.129
 1909SOL    HW2 6060   0.917   2.786   7.083
 1910SOL     OW 6061   0.991   2.272   6.828
 1910SOL    HW1 6062   0.914   2.306   6.882
 1910SOL    HW2 6063   0.957   2.221   6.749
 1911SOL     OW 6064   1.041   2.563   6.015
 1911SOL    HW1 6065   1.067   2.559   6.111
 1911SOL    HW2 6066   0.956   2.512   6.001
 1912SOL     OW 6067   0.076   2.673   6.375
 1912SOL    HW1 6068   0.175   2.661   6.384
 1912SOL    HW2 6069   0.052   2.768   6.396
 1913SOL     OW 6070   0.130   3.683   7.157
 1913SOL    HW1 6071   0.120   3.668   7.256
 1913SOL    HW2 6072   0.044   3.719   7.121
 1914SOL     OW 6073   0.865   2.210   5.781
 1914SOL    HW1 6074   0.924   2.273   5.732
 1914SOL    HW2 6075   0.884   2.116   5.752
 1915SOL     OW 6076   1.719   2.447   7.417
 1915SOL    HW1 6077   1.693   2.536   7.381
 1915SOL    HW2 6078   1.717   2.379   7.344
 1916SOL     OW 6079   1.362   3.006   6.131
 1916SOL    HW1 6080   1.445   2.977   6.083
 1916SOL    HW2 6081   1.313   3.073   6.075
 1917SOL     OW 6082   0.550   2.058   6.471
 1917SOL    HW1 6083   0.545   2.053   6.571
 1917SOL    HW2 6084   0.552   2.154   6.442
 1918SOL     OW 6085   1.008   3.318   6.063
 1918SOL    HW1 6086   0.962   3.390   6.011
 1918SOL    HW2 6087   1.004   3.338   6.161
 1919SOL     OW 6088   0.351   3.663   6.439
 1919SOL    HW1 6089   0.401   3.577   6.445
 1919SOL    HW2 6090   0.416   3.740   6.436
 1920SOL     OW 6091   1.795   2.928   6.459
 1920SOL    HW1 6092   1.733   2.913   6.383
 1920SOL    HW2 6093   1.743   2.939   6.544
 1921SOL     OW 6094   1.227   3.412   7.092
 1921SOL    HW1 6095   1.233   3.335   7.156
 1921SOL    HW2 6096   1.175   3.386   7.012
 1922SOL     OW 6097   0.321   2.805   5.828
 1922SOL    HW1 6098   0.403   2.844   5.786
 1922SOL    HW2 6099   0.294   2.723   5.779
 1923SOL     OW 6100   1.458   2.597   6.314
 1923SOL    HW1 6101   1.453   2.532   6.389
 1923SOL    HW2 6102   1.538   2.656   6.327
 1924SOL     OW 6103   0.461   3.128   7.313
 1924SOL    HW1 6104   0.411   3.129   7.227
 1924SOL    HW2 6105   0.398   3.110   7.389
 1925SOL     OW 6106   1.111   3.638   5.823
 1925SOL    HW1 6107   1.051   3.576   5.873
 1925SOL    HW2 6108   1.142   3.594   5.738
 1926SOL     OW 6109   0.202   2.147   7.084
 1926SOL    HW1 6110   0.122   2.207   7.071
 1926SOL    HW2 6111   0.192   2.098   7.170
 1927SOL     OW 6112   1.632   3.239   5.667
 1927SOL    HW1 6113   1.600   3.333   5.657
 1927SOL    HW2 6114   1.556   3.176   5.655
 1928SOL     OW 6115   0.464   3.605   5.909
 1928SOL    HW1 6116   0.497   3.644   5.995
 1928SOL    HW2 6117   0.540   3.598   5.844
 1929SOL     OW 6118   1.400   1.969   6.012
 1929SOL    HW1 6119   1.376   1.932   5.922
 1929SOL    HW2 6120   1.499   1.985   6.016
 1930SOL     OW 6121   0.249   3.647   6.827
 1930SOL    HW1 6122   0.306   3.582   6.877
 1930SOL    HW2 6123   0.233   3.614   6.734
 1931SOL     OW 6124   0.940   3.560   6.490
 1931SOL    HW1 6125   1.020   3.503   6.511
 1931SOL    HW2 6126   0.891   3.520   6.413
 1932SOL     OW 6127   0.382   2.562   6.066
 1932SOL    HW1 6128   0.427   2.472   6.063
 1932SOL    HW2 6129   0.288   2.551   6.099
 1933SOL     OW 6130   1.547   2.084   7.315
 1933SOL    HW1 6131   1.542   2.121   7.407
 1933SOL    HW2 6132   1.475   2.015   7.303
 1934SOL     OW 6133   0.614   1.984   5.703
 1934SOL    HW1 6134   0.712   1.962   5.710
 1934SOL    HW2 6135   0.583   1.967   5.610
 1935SOL     OW 6136   0.781   2.126   7.335
 1935SOL    HW1 6137   0.848   2.065   7.378
 1935SOL    HW2 6138   0.708   2.145   7.400
 1936SOL     OW 6139   0.888   3.376   6.781
 1936SOL    HW1 6140   0.865   3.351   6.687
 1936SOL    HW2 6141   0.949   3.307   6.820
 1937SOL     OW 6142   1.351   2.452   7.019
 1937SOL    HW1 6143   1.379   2.409   7.104
 1937SOL    HW2 6144   1.376   2.548   7.020
 1938SOL     OW 6145   0.803   3.264   6.510
 1938SOL    HW1 6146   0.893   3.278   6.468
 1938SOL    HW2 6147   0.732   3.266   6.439
 1939SOL     OW 6148   0.922   2.365   6.485
 1939SOL    HW1 6149   0.897   2.356   6.389
 1939SOL    HW2 6150   0.970   2.283   6.516
 1940SOL     OW 6151   0.539   1.926   6.098
 1940SOL    HW1 6152   0.458   1.927   6.156
 1940SOL    HW2 6153   0.542   2.009   6.043
 1941SOL     OW 6154   1.434   3.050   5.627
 1941SOL    HW1 6155   1.466   2.974   5.684
 1941SOL    HW2 6156   1.342   3.077   5.657
 1942SOL     OW 6157   0.297   1.897   5.757
 1942SOL    HW1 6158   0.346   1.981   5.736
 1942SOL    HW2 6159   0.359   1.832   5.802
 1943SOL     OW 6160   0.935   2.098   6.066
 1943SOL    HW1 6161   0.887   2.139   5.988
 1943SOL    HW2 6162   1.034   2.096   6.047
 1944SOL     OW 6163   1.076   2.545   7.050
 1944SOL    HW1 6164   0.996   2.484   7.053
 1944SOL    HW2 6165   1.157   2.492   7.026
 1945SOL     OW 6166   1.227   3.432   6.379
 1945SOL    HW1 6167   1.248   3.506   6.314
 1945SOL    HW2 6168   1.295   3.432   6.452
 1946SOL     OW 6169   0.459   3.014   6.327
 1946SOL    HW1 6170   0.388   2.987   6.392
 1946SOL    HW2 6171   0.433   2.986   6.234
 1947SOL     OW 6172   1.271   3.659   6.177
 1947SOL    HW1 6173   1.315   3.723   6.113
 1947SOL    HW2 6174   1.221   3.711   6.247
 1948SOL     OW 6175   1.032   2.411   5.602
 1948SOL    HW1 6176   0.991   2.493   5.563
 1948SOL    HW2 6177   1.096   2.437   5.675
 1949SOL     OW 6178   0.078   2.418   6.972
 1949SOL    HW1 6179   0.170   2.417   6.931
 1949SOL    HW2 6180   0.072   2.492   7.039
 1950SOL     OW 6181   0.561   2.084   6.733
 1950SOL    HW1 6182   0.599   2.000   6.770
 1950SOL    HW2 6183   0.473   2.103   6.777
 1951SOL     OW 6184   0.866   2.316   6.228
 1951SOL    HW1 6185   0.834   2.388   6.166
 1951SOL    HW2 6186   0.890   2.235   6.175
 1952SOL     OW 6187   1.017   1.901   6.339
 1952SOL    HW1 6188   0.945   1.906   6.270
 1952SOL    HW2 6189   0.993   1.832   6.408
 1953SOL     OW 6190   1.429   3.035   6.453
 1953SOL    HW1 6191   1.374   2.951   6.446
 1953SOL    HW2 6192   1.455   3.064   6.361
 1954SOL     OW 6193   1.466   2.452   6.578
 1954SOL    HW1 6194   1.436   2.357   6.585
 1954SOL    HW2 6195   1.539   2.468   6.644
 1955SOL     OW 6196   1.857   2.695   5.963
 1955SOL    HW1 6197   1.899   2.631   6.027
 1955SOL    HW2 6198   1.819   2.644   5.885
 1956SOL     OW 6199   0.488   3.247   5.760
 1956SOL    HW1 6200   0.401   3.232   5.807
 1956SOL    HW2 6201   0.471   3.273   5.665
 1957SOL     OW 6202   1.664   3.142   6.243
 1957SOL    HW1 6203   1.763   3.150   6.257
 1957SOL    HW2 6204   1.619   3.226   6.274
 1958SOL     OW 6205   1.390   2.437   5.664
 1958SOL    HW1 6206   1.336   2.416   5.745
 1958SOL    HW2 6207   1.481   2.396   5.673
 1959SOL     OW 6208   0.527   2.118   5.914
 1959SOL    HW1 6209   0.554   2.059   5.839
 1959SOL    HW2 6210   0.527   2.213   5.883
 1960SOL     OW 6211   1.754   3.085   7.174
 1960SOL    HW1 6212   1.845   3.046   7.161
 1960SOL    HW2 6213   1.762   3.181   7.198
 1961SOL     OW 6214   1.064   3.209   6.926
 1961SOL    HW1 6215   0.984   3.186   6.981
 1961SOL    HW2 6216   1.147   3.183   6.975
 1962SOL     OW 6217   1.592   3.491   7.211
 1962SOL    HW1 6218   1.619   3.525   7.121
 1962SOL    HW2 6219   1.671   3.453   7.257
 1963SOL     OW 6220   1.111   3.057   6.686
 1963SOL    HW1 6221   1.071   3.101   6.767
 1963SOL    HW2 6222   1.070   3.094   6.603
 1964SOL     OW 6223   1.638   2.961   6.665
 1964SOL    HW1 6224   1.643   3.042   6.724
 1964SOL    HW2 6225   1.552   2.963   6.614
 1965SOL     OW 6226   0.915   1.951   6.988
 1965SOL    HW1 6227   0.940   1.931   6.893
 1965SOL    HW2 6228   0.987   2.007   7.030
 1966SOL     OW 6229   0.980   2.978   7.305
 1966SOL    HW1 6230   0.881   2.984   7.315
 1966SOL    HW2 6231   1.003   2.898   7.249
 1967SOL     OW 6232   0.705   2.912   5.954
 1967SOL    HW1 6233   0.691   2.919   6.053
 1967SOL    HW2 6234   0.789   2.861   5.936
 1968SOL     OW 6235   0.410   2.675   6.837
 1968SOL    HW1 6236   0.496   2.687   6.887
 1968SOL    HW2 6237   0.368   2.588   6.864
 1969SOL     OW 6238   1.274   2.248   6.848
 1969SOL    HW1 6239   1.295   2.322   6.912
 1969SOL    HW2 6240   1.185   2.265   6.805
 1970SOL     OW 6241   0.064   3.426   6.917
 1970SOL    HW1 6242   0.018   3.508   6.883
 1970SOL    HW2 6243   0.162   3.445   6.926
 1971SOL     OW 6244   0.367   2.962   6.087
 1971SOL    HW1 6245   0.360   3.045   6.031
 1971SOL    HW2 6246   0.371   2.882   6.027
 1972SOL     OW 6247   0.566   2.399   6.451
 1972SOL    HW1 6248   0.578   2.465   6.377
 1972SOL    HW2 6249   0.612   2.433   6.534
 1973SOL     OW 6250   1.252   3.210   5.974
 1973SOL    HW1 6251   1.302   3.287   6.014
 1973SOL    HW2 6252   1.157   3.212   6.006
 1974SOL     OW 6253   1.272   3.307   6.728
 1974SOL    HW1 6254   1.319   3.320   6.815
 1974SOL    HW2 6255   1.206   3.233   6.737
 1975SOL     OW 6256   1.582   2.501   6.058
 1975SOL    HW1 6257   1.551   2.562   6.131
 1975SOL    HW2 6258   1.632   2.553   5.989
 1976SOL     OW 6259   0.354   3.372   6.915
 1976SOL    HW1 6260   0.333   3.328   6.828
 1976SOL    HW2 6261   0.451   3.398   6.918
 1977SOL     OW 6262   0.402   2.613   7.184
 1977SOL    HW1 6263   0.470   2.668   7.137
 1977SOL    HW2 6264   0.442   2.525   7.211
 1978SOL     OW 6265   1.587   2.641   7.256
 1978SOL    HW1 6266   1.495   2.679   7.251
 1978SOL    HW2 6267   1.647   2.688   7.191
 1979SOL     OW 6268   1.013   1.967   7.356
 1979SOL    HW1 6269   1.019   2.052   7.304
 1979SOL    HW2 6270   1.045   1.891   7.299
 1980SOL     OW 6271   0.504   1.912   7.326
 1980SOL    HW1 6272   0.462   1.855   7.256
 1980SOL    HW2 6273   0.438   1.981   7.358
 1981SOL     OW 6274   0.573   2.732   6.615
 1981SOL    HW1 6275   0.617   2.821   6.606
 1981SOL    HW2 6276   0.510   2.732   6.692
 1982SOL     OW 6277   1.360   2.724   6.631
 1982SOL    HW1 6278   1.285   2.724   6.565
 1982SOL    HW2 6279   1.397   2.632   6.640
 1983SOL     OW 6280   1.209   2.387   5.861
 1983SOL    HW1 6281   1.222   2.303   5.915
 1983SOL    HW2 6282   1.180   2.461   5.921
 1984SOL     OW 6283   0.307   2.075   6.817
 1984SOL    HW1 6284   0.284   2.112   6.907
 1984SOL    HW2 6285   0.277   1.980   6.811
 1985SOL     OW 6286   0.037   3.172   6.868
 1985SOL    HW1 6287   0.090   3.123   6.936
 1985SOL    HW2 6288   0.059   3.270   6.873
 1986SOL     OW 6289   0.732   2.496   6.650
 1986SOL    HW1 6290   0.791   2.470   6.574
 1986SOL    HW2 6291   0.704   2.592   6.639
 1987SOL     OW 6292   1.728   2.797   7.440
 1987SOL    HW1 6293   1.682   2.790   7.351
 1987SOL    HW2 6294   1.666   2.841   7.506
 1988SOL     OW 6295   0.307   1.925   6.204
 1988SOL    HW1 6296   0.296   2.019   6.237
 1988SOL    HW2 6297   0.302   1.862   6.281
 1989SOL     OW 6298   1.622   2.229   5.960
 1989SOL    HW1 6299   1.624   2.153   6.024
 1989SOL    HW2 6300   1.574   2.306   6.000
 1990SOL     OW 6301   1.023   2.628   6.552
 1990SOL    HW1 6302   1.038   2.649   6.648
 1990SOL    HW2 6303   0.993   2.533   6.543
 1991SOL     OW 6304   0.980   3.435   7.286
 1991SOL    HW1 6305   0.960   3.479   7.198
 1991SOL    HW2 6306   1.019   3.344   7.270
 1992SOL     OW 6307   1.859   3.380   7.191
 1992SOL    HW1 6308   1.873   3.407   7.096
 1992SOL    HW2 6309   1.942   3.402   7.244
 1993SOL     OW 6310   0.350   2.760   7.390
 1993SOL    HW1 6311   0.426   2.804   7.438
 1993SOL    HW2 6312   0.385   2.713   7.308
 1994SOL     OW 6313   1.540   2.136   5.711
 1994SOL    HW1 6314   1.479   2.061   5.734
 1994SOL    HW2 6315   1.562   2.188   5.794
 1995SOL     OW 6316   1.303   2.700   5.628
 1995SOL    HW1 6317   1.337   2.607   5.643
 1995SOL    HW2 6318   1.321   2.727   5.533
 1996SOL     OW 6319   1.068   3.195   6.435
 1996SOL    HW1 6320   1.075   3.111   6.380
 1996SOL    HW2 6321   1.130   3.264   6.399
 1997SOL     OW 6322   0.319   2.672   6.535
 1997SOL    HW1 6323   0.412   2.708   6.540
 1997SOL    HW2 6324   0.313   2.587   6.587
 1998SOL     OW 6325   0.339   2.371   6.592
 1998SOL    HW1 6326   0.287   2.288   6.575
 1998SOL    HW2 6327   0.416   2.376   6.528
 1999SOL     OW 6328   1.138   2.242   7.264
 1999SOL    HW1 6329   1.093   2.305   7.328
 1999SOL    HW2 6330   1.231   2.273   7.247
 2000SOL     OW 6331   1.160   2.069   7.063
 2000SOL    HW1 6332   1.160   2.133   7.140
 2000SOL    HW2 6333   1.188   2.117   6.980
 2001SOL     OW 6334   0.008   3.188   5.786
 2001SOL    HW1 6335  -0.085   3.209   5.755
 2001SOL    HW2 6336   0.018   3.089   5.799
 2002SOL     OW 6337   0.088   3.663   6.513
 2002SOL    HW1 6338   0.046   3.577   6.486
 2002SOL    HW2 6339   0.182   3.666   6.479
 2003SOL     OW 6340   0.504   3.430   6.496
 2003SOL    HW1 6341   0.570   3.504   6.505
 2003SOL    HW2 6342   0.548   3.351   6.454
 2004SOL     OW 6343   1.002   2.658   6.824
 2004SOL    HW1 6344   1.043   2.626   6.910
 2004SOL    HW2 6345   0.906   2.631   6.821
 2005SOL     OW 6346   0.040   2.406   6.700
 2005SOL    HW1 6347   0.125   2.373   6.659
 2005SOL    HW2 6348   0.053   2.421   6.798
 2006SOL     OW 6349   0.189   2.382   7.308
 2006SOL    HW1 6350   0.248   2.342   7.238
 2006SOL    HW2 6351   0.131   2.453   7.267
 2007SOL     OW 6352   1.369   2.812   7.246
 2007SOL    HW1 6353   1.408   2.901   7.266
 2007SOL    HW2 6354   1.379   2.792   7.149
 2008SOL     OW 6355   0.815   2.434   5.911
 2008SOL    HW1 6356   0.822   2.345   5.865
 2008SOL    HW2 6357   0.721   2.468   5.903
 2009SOL     OW 6358   1.657   2.466   6.792
 2009SOL    HW1 6359   1.619   2.397   6.854
 2009SOL    HW2 6360   1.739   2.430   6.748
 2010SOL     OW 6361   0.252   3.426   7.330
 2010SOL    HW1 6362   0.222   3.483   7.406
 2010SOL    HW2 6363   0.245   3.329   7.356
 2011SOL     OW 6364   0.671   2.326   6.855
 2011SOL    HW1 6365   0.637   2.237   6.825
 2011SOL    HW2 6366   0.697   2.380   6.775
 2012SOL     OW 6367   0.930   3.540   7.051
 2012SOL    HW1 6368   0.906   3.522   6.956
 2012SOL    HW2 6369   0.960   3.634   7.061
 2013SOL     OW 6370   0.473   2.362   5.777
 2013SOL    HW1 6371   0.534   2.442   5.781
 2013SOL    HW2 6372   0.378   2.393   5.784
 2014SOL     OW 6373   0.159   2.999   7.052
 2014SOL    HW1 6374   0.181   2.938   7.128
 2014SOL    HW2 6375   0.169   2.950   6.966
 2015SOL     OW 6376   1.347   2.921   6.820
 2015SOL    HW1 6377   1.371   2.858   6.746
 2015SOL    HW2 6378   1.257   2.961   6.802
 2016SOL     OW 6379   1.302   2.717   5.895
 2016SOL    HW1 6380   1.216   2.686   5.937
 2016SOL    HW2 6381   1.298   2.703   5.796
 2017SOL     OW 6382   1.759   3.609   6.740
 2017SOL    HW1 6383   1.820   3.639   6.667
 2017SOL    HW2 6384   1.721   3.520   6.718
 2018SOL     OW 6385   1.252   3.593   6.714
 2018SOL    HW1 6386   1.336   3.598   6.660
 2018SOL    HW2 6387   1.229   3.497   6.732
 2019SOL     OW 6388   0.083   3.120   6.608
 2019SOL    HW1 6389   0.078   3.119   6.708
 2019SOL    HW2 6390   0.000   3.079   6.570
 2020SOL     OW 6391   0.688   3.524   7.302
 2020SOL    HW1 6392   0.632   3.605   7.311
 2020SOL    HW2 6393   0.740   3.528   7.216
 2021SOL     OW 6394   1.726   1.997   6.109
 2021SOL    HW1 6395   1.799   1.980   6.042
 2021SOL    HW2 6396   1.695   1.910   6.147
 2022SOL     OW 6397   1.388   3.435   6.063
 2022SOL    HW1 6398   1.455   3.447   5.989
 2022SOL    HW2 6399   1.348   3.524   6.086
 2023SOL     OW 6400   0.130   3.656   7.437
 2023SOL    HW1 6401   0.089   3.582   7.490
 2023SOL    HW2 6402   0.194   3.707   7.495
 2024SOL     OW 6403   1.280   2.789   6.258
 2024SOL    HW1 6404   1.340   2.708   6.260
 2024SOL    HW2 6405   1.320   2.858   6.198
 2025SOL     OW 6406   0.830   3.135   7.008
 2025SOL    HW1 6407   0.825   3.168   7.103
 2025SOL    HW2 6408   0.744   3.154   6.962
 2026SOL     OW 6409   0.672   3.478   5.740
 2026SOL    HW1 6410   0.681   3.488   5.641
 2026SOL    HW2 6411   0.632   3.389   5.761
 2027SOL     OW 6412   1.650   3.582   6.980
 2027SOL    HW1 6413   1.703   3.592   6.896
 2027SOL    HW2 6414   1.623   3.672   7.014
 2028SOL     OW 6415   1.841   2.037   6.549
 2028SOL    HW1 6416   1.880   1.952   6.513
 2028SOL    HW2 6417   1.743   2.039   6.530
 2029SOL     OW 6418   0.263   2.188   6.306
 2029SOL    HW1 6419   0.184   2.239   6.272
 2029SOL    HW2 6420   0.254   2.173   6.404
 2030SOL     OW 6421   1.194   3.474   5.617
 2030SOL    HW1 6422   1.200   3.381   5.654
 2030SOL    HW2 6423   1.135   3.474   5.537
 2031SOL     OW 6424   0.822   2.864   6.958
 2031SOL    HW1 6425   0.862   2.863   6.866
 2031SOL    HW2 6426   0.832   2.956   6.998
 2032SOL     OW 6427   0.916   2.772   5.877
 2032SOL    HW1 6428   0.979   2.810   5.809
 2032SOL    HW2 6429   0.956   2.689   5.916
 2033SOL     OW 6430   1.504   3.469   5.630
 2033SOL    HW1 6431   1.412   3.506   5.637
 2033SOL    HW2 6432   1.542   3.489   5.540
 2034SOL     OW 6433   0.372   3.150   7.076
 2034SOL    HW1 6434   0.359   3.243   7.042
 2034SOL    HW2 6435   0.288   3.098   7.063
 2035SOL     OW 6436   1.614   3.154   6.875
 2035SOL    HW1 6437   1.674   3.157   6.955
 2035SOL    HW2 6438   1.539   3.218   6.888
 2036SOL     OW 6439   1.039   2.960   6.282
 2036SOL    HW1 6440   0.969   2.913   6.336
 2036SOL    HW2 6441   1.098   2.892   6.239
 2037SOL     OW 6442   1.014   2.098   6.557
 2037SOL    HW1 6443   1.006   2.062   6.464
 2037SOL    HW2 6444   1.012   2.022   6.622
 2038SOL     OW 6445   0.590   3.349   6.077
 2038SOL    HW1 6446   0.632   3.291   6.007
 2038SOL    HW2 6447   0.546   3.428   6.033
 2039SOL     OW 6448   1.709   2.247   6.967
 2039SOL    HW1 6449   1.782   2.316   6.971
 2039SOL    HW2 6450   1.737   2.172   6.908
 2040SOL     OW 6451   0.255   3.210   5.876
 2040SOL    HW1 6452   0.159   3.211   5.849
 2040SOL    HW2 6453   0.267   3.263   5.960
 2041SOL     OW 6454   0.105   2.875   7.312
 2041SOL    HW1 6455   0.028   2.842   7.366
 2041SOL    HW2 6456   0.190   2.845   7.354
 2042SOL     OW 6457   0.672   2.065   7.075
 2042SOL    HW1 6458   0.762   2.049   7.035
 2042SOL    HW2 6459   0.680   2.070   7.174
 2043SOL     OW 6460   0.075   2.207   5.619
 2043SOL    HW1 6461  -0.017   2.179   5.590
 2043SOL    HW2 6462   0.106   2.284   5.563
 2044SOL     OW 6463   1.440   2.718   6.984
 2044SOL    HW1 6464   1.383   2.770   6.921
 2044SOL    HW2 6465   1.536   2.730   6.960
 2045SOL     OW 6466   0.072   2.028   5.904
 2045SOL    HW1 6467   0.055   2.111   5.850
 2045SOL    HW2 6468   0.162   1.991   5.882
 2046SOL     OW 6469   1.183   3.197   5.705
 2046SOL    HW1 6470   1.084   3.186   5.707
 2046SOL    HW2 6471   1.217   3.212   5.798
 2047SOL     OW 6472   0.613   2.704   7.017
 2047SOL    HW1 6473   0.669   2.785   7.000
 2047SOL    HW2 6474   0.672   2.624   7.020
 2048SOL     OW 6475   1.493   3.629   6.545
 2048SOL    HW1 6476   1.526   3.693   6.476
 2048SOL    HW2 6477   1.559   3.623   6.620
 2049SOL     OW 6478   0.716   2.427   7.294
 2049SOL    HW1 6479   0.735   2.492   7.368
 2049SOL    HW2 6480   0.776   2.347   7.303
 2050SOL     OW 6481   1.450   3.082   7.219
 2050SOL    HW1 6482   1.441   3.072   7.318
 2050SOL    HW2 6483   1.546   3.075   7.193
 2051SOL     OW 6484   0.390   3.603   7.146
 2051SOL    HW1 6485   0.299   3.644   7.144
 2051SOL    HW2 6486   0.383   3.509   7.178
 2052SOL     OW 6487   1.674   2.745   6.840
 2052SOL    HW1 6488   1.647   2.656   6.803
 2052SOL    HW2 6489   1.675   2.813   6.767
 2053SOL     OW 6490   1.225   2.187   6.035
 2053SOL    HW1 6491   1.290   2.113   6.024
 2053SOL    HW2 6492   1.245   2.237   6.119
 2054SOL     OW 6493   0.594   2.607   6.238
 2054SOL    HW1 6494   0.644   2.692   6.219
 2054SOL    HW2 6495   0.506   2.609   6.190
 2055SOL     OW 6496   1.777   2.204   7.228
 2055SOL    HW1 6497   1.760   2.235   7.134
 2055SOL    HW2 6498   1.693   2.167   7.266
 2056SOL     OW 6499   1.730   2.796   7.103
 2056SOL    HW1 6500   1.768   2.887   7.118
 2056SOL    HW2 6501   1.722   2.779   7.004
 2057SOL     OW 6502   0.859   3.236   5.602
 2057SOL    HW1 6503   0.813   3.251   5.690
 2057SOL    HW2 6504   0.903   3.321   5.572
 2058SOL     OW 6505   0.661   3.652   6.539
 2058SOL    HW1 6506   0.615   3.740   6.526
 2058SOL    HW2 6507   0.760   3.664   6.532
 2059SOL     OW 6508   0.859   2.818   6.447
 2059SOL    HW1 6509   0.913   2.749   6.495
 2059SOL    HW2 6510   0.827   2.887   6.513
 2060SOL     OW 6511   1.083   2.846   5.673
 2060SOL    HW1 6512   1.060   2.899   5.591
 2060SOL    HW2 6513   1.164   2.790   5.654
 2061SOL     OW 6514   1.861   3.431   6.437
 2061SOL    HW1 6515   1.790   3.419   6.367
 2061SOL    HW2 6516   1.862   3.352   6.497
 2062SOL     OW 6517   0.221   3.176   7.430
 2062SOL    HW1 6518   0.156   3.103   7.409
 2062SOL    HW2 6519   0.225   3.190   7.528
 2063SOL     OW 6520   0.079   3.102   6.239
 2063SOL    HW1 6521   0.078   3.055   6.327
 2063SOL    HW2 6522   0.161   3.074   6.188
 2064SOL     OW 6523   0.672   3.253   7.210
 2064SOL    HW1 6524   0.594   3.203   7.248
 2064SOL    HW2 6525   0.669   3.348   7.241
 2065SOL     OW 6526   1.824   2.054   6.813
 2065SOL    HW1 6527   1.820   1.964   6.857
 2065SOL    HW2 6528   1.827   2.043   6.714
 2066SOL     OW 6529   0.428   2.286   6.106
 2066SOL    HW1 6530   0.458   2.214   6.044
 2066SOL    HW2 6531   0.389   2.246   6.189
 2067SOL     OW 6532   1.705   3.349   6.690
 2067SOL    HW1 6533   1.612   3.324   6.663
 2067SOL    HW2 6534   1.731   3.299   6.772
 2068SOL     OW 6535   0.317   2.409   6.866
 2068SOL    HW1 6536   0.355   2.350   6.938
 2068SOL    HW2 6537   0.357   2.383   6.778
 2069SOL     OW 6538   0.812   3.448   6.273
 2069SOL    HW1 6539   0.844   3.458   6.179
 2069SOL    HW2 6540   0.733   3.386   6.275
 2070SOL     OW 6541   1.424   2.076   6.698
 2070SOL    HW1 6542   1.476   2.011   6.753
 2070SOL    HW2 6543   1.375   2.139   6.759
 2071SOL     OW 6544   1.001   1.896   6.740
 2071SOL    HW1 6545   0.938   1.824   6.709
 2071SOL    HW2 6546   1.094   1.860   6.740
 2072SOL     OW 6547   0.770   3.192   5.887
 2072SOL    HW1 6548   0.724   3.105   5.904
 2072SOL    HW2 6549   0.861   3.189   5.928
 2073SOL     OW 6550   0.618   3.429   6.870
 2073SOL    HW1 6551   0.613   3.511   6.927
 2073SOL    HW2 6552   0.707   3.426   6.825
 2074SOL     OW 6553   1.352   1.914   5.754
 2074SOL    HW1 6554   1.387   1.873   5.670
 2074SOL    HW2 6555   1.262   1.876   5.774
 2075SOL     OW 6556   1.300   2.315   6.277
 2075SOL    HW1 6557   1.241   2.395   6.281
 2075SOL    HW2 6558   1.315   2.280   6.370
 2076SOL     OW 6559   1.593   2.083   6.468
 2076SOL    HW1 6560   1.509   2.082   6.522
 2076SOL    HW2 6561   1.595   2.166   6.412
 2077SOL     OW 6562   0.039   2.939   5.886
 2077SOL    HW1 6563   0.138   2.928   5.877
 2077SOL    HW2 6564  -0.001   2.853   5.918
 2078SOL     OW 6565   0.875   3.508   5.923
 2078SOL    HW1 6566   0.798   3.473   5.869
 2078SOL    HW2 6567   0.843   3.579   5.985
 2079SOL     OW 6568   0.230   2.490   7.561
 2079SOL    HW1 6569   0.137   2.488   7.598
 2079SOL    HW2 6570   0.231   2.451   7.469
 2080SOL     OW 6571   0.225   2.137   8.444
 2080SOL    HW1 6572   0.260   2.120   8.536
 2080SOL    HW2 6573   0.137   2.092   8.432
 2081SOL     OW 6574   0.019   2.230   8.095
 2081SOL    HW1 6575  -0.063   2.273   8.134
 2081SOL    HW2 6576  -0.009   2.157   8.032
 2082SOL     OW 6577   0.569   3.137   8.613
 2082SOL    HW1 6578   0.476   3.130   8.576
 2082SOL    HW2 6579   0.580   3.226   8.657
 2083SOL     OW 6580   1.555   3.373   8.151
 2083SOL    HW1 6581   1.498   3.357   8.232
 2083SOL    HW2 6582   1.496   3.383   8.071
 2084SOL     OW 6583   1.135   2.565   8.165
 2084SOL    HW1 6584   1.192   2.643   8.140
 2084SOL    HW2 6585   1.075   2.591   8.241
 2085SOL     OW 6586   1.755   2.469   7.679
 2085SOL    HW1 6587   1.743   2.456   7.580
 2085SOL    HW2 6588   1.725   2.388   7.728
 2086SOL     OW 6589   0.768   3.006   8.471
 2086SOL    HW1 6590   0.690   3.023   8.531
 2086SOL    HW2 6591   0.802   3.093   8.435
 2087SOL     OW 6592   0.850   2.660   9.271
 2087SOL    HW1 6593   0.846   2.736   9.336
 2087SOL    HW2 6594   0.872   2.696   9.180
 2088SOL     OW 6595   0.685   2.874   8.113
 2088SOL    HW1 6596   0.754   2.858   8.183
 2088SOL    HW2 6597   0.612   2.931   8.151
 2089SOL     OW 6598   0.686   3.023   9.251
 2089SOL    HW1 6599   0.746   3.102   9.265
 2089SOL    HW2 6600   0.600   3.054   9.210
 2090SOL     OW 6601   0.335   3.297   8.509
 2090SOL    HW1 6602   0.257   3.266   8.456
 2090SOL    HW2 6603   0.393   3.355   8.452
 2091SOL     OW 6604   1.460   3.367   8.787
 2091SOL    HW1 6605   1.484   3.461   8.813
 2091SOL    HW2 6606   1.444   3.313   8.869
 2092SOL     OW 6607   0.438   2.254   8.947
 2092SOL    HW1 6608   0.520   2.198   8.956
 2092SOL    HW2 6609   0.357   2.196   8.951
 2093SOL     OW 6610   1.603   2.309   8.185
 2093SOL    HW1 6611   1.529   2.355   8.135
 2093SOL    HW2 6612   1.654   2.377   8.238
 2094SOL     OW 6613   0.231   3.575   7.931
 2094SOL    HW1 6614   0.265   3.652   7.985
 2094SOL    HW2 6615   0.275   3.575   7.841
 2095SOL     OW 6616   1.127   3.203   9.138
 2095SOL    HW1 6617   1.174   3.203   9.226
 2095SOL    HW2 6618   1.079   3.116   9.127
 2096SOL     OW 6619   0.230   3.296   7.986
 2096SOL    HW1 6620   0.204   3.392   7.986
 2096SOL    HW2 6621   0.159   3.242   8.031
 2097SOL     OW 6622   0.240   2.953   8.334
 2097SOL    HW1 6623   0.254   2.869   8.386
 2097SOL    HW2 6624   0.185   3.017   8.389
 2098SOL     OW 6625   0.620   3.648   8.887
 2098SOL    HW1 6626   0.528   3.631   8.922
 2098SOL    HW2 6627   0.648   3.740   8.913
 2099SOL     OW 6628   0.606   2.826   7.571
 2099SOL    HW1 6629   0.613   2.910   7.517
 2099SOL    HW2 6630   0.652   2.839   7.659
 2100SOL     OW 6631   1.594   1.976   8.928
 2100SOL    HW1 6632   1.576   2.043   8.856
 2100SOL    HW2 6633   1.591   2.022   9.017
 2101SOL     OW 6634   0.122   2.505   8.011
 2101SOL    HW1 6635   0.077   2.417   8.028
 2101SOL    HW2 6636   0.121   2.559   8.095
 2102SOL     OW 6637   1.842   3.629   7.807
 2102SOL    HW1 6638   1.896   3.600   7.887
 2102SOL    HW2 6639   1.872   3.719   7.778
 2103SOL     OW 6640   0.027   3.458   7.565
 2103SOL    HW1 6641   0.008   3.362   7.586
 2103SOL    HW2 6642  -0.006   3.516   7.640
 2104SOL     OW 6643   1.689   2.784   8.060
 2104SOL    HW1 6644   1.784   2.755   8.068
 2104SOL    HW2 6645   1.681   2.849   7.985
 2105SOL     OW 6646   1.641   2.970   7.880
 2105SOL    HW1 6647   1.727   2.972   7.828
 2105SOL    HW2 6648   1.655   3.017   7.968
 2106SOL     OW 6649   0.113   2.599   9.045
 2106SOL    HW1 6650   0.201   2.586   9.090
 2106SOL    HW2 6651   0.100   2.696   9.023
 2107SOL     OW 6652   0.613   3.227   8.174
 2107SOL    HW1 6653   0.564   3.140   8.183
 2107SOL    HW2 6654   0.590   3.270   8.087
 2108SOL     OW 6655   1.293   3.090   8.871
 2108SOL    HW1 6656   1.330   3.017   8.813
 2108SOL    HW2 6657   1.345   3.095   8.956
 2109SOL     OW 6658   0.809   1.866   7.950
 2109SOL    HW1 6659   0.849   1.957   7.941
 2109SOL    HW2 6660   0.709   1.874   7.956
 2110SOL     OW 6661   0.197   2.838   8.712
 2110SOL    HW1 6662   0.286   2.793   8.698
 2110SOL    HW2 6663   0.124   2.773   8.693
 2111SOL     OW 6664   1.525   2.861   7.638
 2111SOL    HW1 6665   1.462   2.785   7.651
 2111SOL    HW2 6666   1.573   2.879   7.724
 2112SOL     OW 6667   1.187   3.654   9.064
 2112SOL    HW1 6668   1.211   3.714   8.988
 2112SOL    HW2 6669   1.194   3.559   9.034
 2113SOL     OW 6670   0.317   2.113   9.249
 2113SOL    HW1 6671   0.388   2.184   9.255
 2113SOL    HW2 6672   0.229   2.152   9.277
 2114SOL     OW 6673   1.466   3.279   8.401
 2114SOL    HW1 6674   1.407   3.285   8.481
 2114SOL    HW2 6675   1.451   3.191   8.355
 2115SOL     OW 6676   1.667   3.576   8.020
 2115SOL    HW1 6677   1.626   3.553   7.932
 2115SOL    HW2 6678   1.649   3.502   8.085
 2116SOL     OW 6679   0.598   2.591   7.718
 2116SOL    HW1 6680   0.622   2.660   7.650
 2116SOL    HW2 6681   0.520   2.624   7.772
 2117SOL     OW 6682   1.281   2.207   8.392
 2117SOL    HW1 6683   1.195   2.157   8.379
 2117SOL    HW2 6684   1.343   2.153   8.448
 2118SOL     OW 6685   1.576   3.524   7.755
 2118SOL    HW1 6686   1.665   3.570   7.758
 2118SOL    HW2 6687   1.555   3.500   7.660
 2119SOL     OW 6688   0.807   2.467   8.913
 2119SOL    HW1 6689   0.760   2.464   9.002
 2119SOL    HW2 6690   0.756   2.412   8.847
 2120SOL     OW 6691   1.394   2.331   9.122
 2120SOL    HW1 6692   1.374   2.374   9.210
 2120SOL    HW2 6693   1.472   2.269   9.131
 2121SOL     OW 6694   0.973   2.752   9.020
 2121SOL    HW1 6695   1.019   2.668   8.991
 2121SOL    HW2 6696   0.917   2.786   8.945
 2122SOL     OW 6697   0.991   2.272   8.690
 2122SOL    HW1 6698   0.914   2.306   8.744
 2122SOL    HW2 6699   0.957   2.221   8.611
 2123SOL     OW 6700   1.041   2.563   7.877
 2123SOL    HW1 6701   1.067   2.559   7.973
 2123SOL    HW2 6702   0.956   2.512   7.863
 2124SOL     OW 6703   0.076   2.673   8.237
 2124SOL    HW1 6704   0.175   2.661   8.246
 2124SOL    HW2 6705   0.052   2.768   8.258
 2125SOL     OW 6706   0.130   3.683   9.019
 2125SOL    HW1 6707   0.120   3.668   9.118
 2125SOL    HW2 6708   0.044   3.719   8.983
 2126SOL     OW 6709   0.865   2.210   7.643
 2126SOL    HW1 6710   0.924   2.273   7.594
 2126SOL    HW2 6711   0.884   2.116   7.614
 2127SOL     OW 6712   1.719   2.447   9.279
 2127SOL    HW1 6713   1.693   2.536   9.243
 2127SOL    HW2 6714   1.717   2.379   9.206
 2128SOL     OW 6715   1.362   3.006   7.993
 2128SOL    HW1 6716   1.445   2.977   7.945
 2128SOL    HW2 6717   1.313   3.073   7.937
 2129SOL     OW 6718   0.550   2.058   8.333
 2129SOL    HW1 6719   0.545   2.053   8.433
 2129SOL    HW2 6720   0.552   2.154   8.304
 2130SOL     OW 6721   1.008   3.318   7.925
 2130SOL    HW1 6722   0.962   3.390   7.873
 2130SOL    HW2 6723   1.004   3.338   8.023
 2131SOL     OW 6724   0.351   3.663   8.301
 2131SOL    HW1 6725   0.401   3.577   8.307
 2131SOL    HW2 6726   0.416   3.740   8.298
 2132SOL     OW 6727   1.795   2.928   8.321
 2132SOL    HW1 6728   1.733   2.913   8.245
 2132SOL    HW2 6729   1.743   2.939   8.406
 2133SOL     OW 6730   1.227   3.412   8.954
 2133SOL    HW1 6731   1.233   3.335   9.018
 2133SOL    HW2 6732   1.175   3.386   8.874
 2134SOL     OW 6733   0.321   2.805   7.690
 2134SOL    HW1 6734   0.403   2.844   7.648
 2134SOL    HW2 6735   0.294   2.723   7.641
 2135SOL     OW 6736   1.458   2.597   8.176
 2135SOL    HW1 6737   1.453   2.532   8.251
 2135SOL    HW2 6738   1.538   2.656   8.189
 2136SOL     OW 6739   0.461   3.128   9.175
 2136SOL    HW1 6740   0.411   3.129   9.089
 2136SOL    HW2 6741   0.398   3.110   9.251
 2137SOL     OW 6742   1.111   3.638   7.685
 2137SOL    HW1 6743   1.051   3.576   7.735
 2137SOL    HW2 6744   1.142   3.594   7.600
 2138SOL     OW 6745   0.202   2.147   8.946
 2138SOL    HW1 6746   0.122   2.207   8.933
 2138SOL    HW2 6747   0.192   2.098   9.032
 2139SOL     OW 6748   1.632   3.239   7.529
 2139SOL    HW1 6749   1.600   3.333   7.519
 2139SOL    HW2 6750   1.556   3.176   7.517
 2140SOL     OW 6751   0.464   3.605   7.771
 2140SOL    HW1 6752   0.497   3.644   7.857
 2140SOL    HW2 6753   0.540   3.598   7.706
 2141SOL     OW 6754   1.400   1.969   7.874
 2141SOL    HW1 6755   1.376   1.932   7.784
 2141SOL    HW2 6756   1.499   1.985   7.878
 2142SOL     OW 6757   0.249   3.647   8.689
 2142SOL    HW1 6758   0.306   3.582   8.739
 2142SOL    HW2 6759   0.233   3.614   8.596
 2143SOL     OW 6760   0.940   3.560   8.352
 2143SOL    HW1 6761   1.020   3.503   8.373
 2143SOL    HW2 6762   0.891   3.520   8.275
 2144SOL     OW 6763   0.382   2.562   7.928
 2144SOL    HW1 6764   0.427   2.472   7.925
 2144SOL    HW2 6765   0.288   2.551   7.961
 2145SOL     OW 6766   1.547   2.084   9.177
 2145SOL    HW1 6767   1.542   2.121   9.269
 2145SOL    HW2 6768   1.475   2.015   9.165
 2146SOL     OW 6769   0.614   1.984   7.565
 2146SOL    HW1 6770   0.712   1.962   7.572
 2146SOL    HW2 6771   0.583   1.967   7.472
 2147SOL     OW 6772   0.781   2.126   9.197
 2147SOL    HW1 6773   0.848   2.065   9.240
 2147SOL    HW2 6774   0.708   2.145   9.262
 2148SOL     OW 6775   0.888   3.376   8.643
 2148SOL    HW1 6776   0.865   3.351   8.549
 2148SOL    HW2 6777   0.949   3.307   8.682
 2149SOL     OW 6778   1.351   2.452   8.881
 2149SOL    HW1 6779   1.379   2.409   8.966
 2149SOL    HW2 6780   1.376   2.548   8.882
 2150SOL     OW 6781   0.803   3.264   8.372
 2150SOL    HW1 6782   0.893   3.278   8.330
 2150SOL    HW2 6783   0.732   3.266   8.301
 2151SOL     OW 6784   0.922   2.365   8.347
 2151SOL    HW1 6785   0.897   2.356   8.251
 2151SOL    HW2 6786   0.970   2.283   8.378
 2152SOL     OW 6787   0.539   1.926   7.960
 2152SOL    HW1 6788   0.458   1.927   8.018
 2152SOL    HW2 6789   0.542   2.009   7.905
 2153SOL     OW 6790   1.434   3.050   7.489
 2153SOL    HW1 6791   1.466   2.974   7.546
 2153SOL    HW2 6792   1.342   3.077   7.519
 2154SOL     OW 6793   0.297   1.897   7.619
 2154SOL    HW1 6794   0.346   1.981   7.598
 2154SOL    HW2 6795   0.359   1.832   7.664
 2155SOL     OW 6796   0.935   2.098   7.928
 2155SOL    HW1 6797   0.887   2.139   7.850
 2155SOL    HW2 6798   1.034   2.096   7.909
 2156SOL     OW 6799   1.076   2.545   8.912
 2156SOL    HW1 6800   0.996   2.484   8.915
 2156SOL    HW2 6801   1.157   2.492   8.888
 2157SOL     OW 6802   1.227   3.432   8.241
 2157SOL    HW1 6803   1.248   3.506   8.176
 2157SOL    HW2 6804   1.295   3.432   8.314
 2158SOL     OW 6805   0.459   3.014   8.189
 2158SOL    HW1 6806   0.388   2.987   8.254
 2158SOL    HW2 6807   0.433   2.986   8.096
 2159SOL     OW 6808   1.271   3.659   8.039
 2159SOL    HW1 6809   1.315   3.723   7.975
 2159SOL    HW2 6810   1.221   3.711   8.109
 2160SOL     OW 6811   1.032   2.411   7.464
 2160SOL    HW1 6812   0.991   2.493   7.425
 2160SOL    HW2 6813   1.096   2.437   7.537
 2161SOL     OW 6814   0.078   2.418   8.834
 2161SOL    HW1 6815   0.170   2.417   8.793
 2161SOL    HW2 6816   0.072   2.492   8.901
 2162SOL     OW 6817   0.561   2.084   8.595
 2162SOL    HW1 6818   0.599   2.000   8.632
 2162SOL    HW2 6819   0.473   2.103   8.639
 2163SOL     OW 6820   0.866   2.316   8.090
 2163SOL    HW1 6821   0.834   2.388   8.028
 2163SOL    HW2 6822   0.890   2.235   8.037
 2164SOL     OW 6823   1.017   1.901   8.201
 2164SOL    HW1 6824   0.945   1.906   8.132
 2164SOL    HW2 6825   0.993   1.832   8.270
 2165SOL     OW 6826   1.429   3.035   8.315
 2165SOL    HW1 6827   1.374   2.951   8.308
 2165SOL    HW2 6828   1.455   3.064   8.223
 2166SOL     OW 6829   1.466   2.452   8.440
 2166SOL    HW1 6830   1.436   2.357   8.447
 2166SOL    HW2 6831   1.539   2.468   8.506
 2167SOL     OW 6832   1.857   2.695   7.825
 2167SOL    HW1 6833   1.899   2.631   7.889
 2167SOL    HW2 6834   1.819   2.644   7.747
 2168SOL     OW 6835   0.488   3.247   7.622
 2168SOL    HW1 6836   0.401   3.232   7.669
 2168SOL    HW2 6837   0.471   3.273   7.527
 2169SOL     OW 6838   1.664   3.142   8.105
 2169SOL    HW1 6839   1.763   3.150   8.119
 2169SOL    HW2 6840   1.619   3.226   8.136
 2170SOL     OW 6841   1.390   2.437   7.526
 2170SOL    HW1 6842   1.336   2.416   7.607
 2170SOL    HW2 6843   1.481   2.396   7.535
 2171SOL     OW 6844   0.527   2.118   7.776
 2171SOL    HW1 6845   0.554   2.059   7.701
 2171SOL    HW2 6846   0.527   2.213   7.745
 2172SOL     OW 6847   1.754   3.085   9.036
 2172SOL    HW1 6848   1.845   3.046   9.023
 2172SOL    HW2 6849   1.762   3.181   9.060
 2173SOL     OW 6850   1.064   3.209   8.788
 2173SOL    HW1 6851   0.984   3.186   8.843
 2173SOL    HW2 6852   1.147   3.183   8.837
 2174SOL     OW 6853   1.592   3.491   9.073
 2174SOL    HW1 6854   1.619   3.525   8.983
 2174SOL    HW2 6855   1.671   3.453   9.119
 2175SOL     OW 6856   1.111   3.057   8.548
 2175SOL    HW1 6857   1.071   3.101   8.629
 2175SOL    HW2 6858   1.070   3.094   8.465
 2176SOL     OW 6859   1.638   2.961   8.527
 2176SOL    HW1 6860   1.643   3.042   8.586
 2176SOL    HW2 6861   1.552   2.963   8.476
 2177SOL     OW 6862   0.915   1.951   8.850
 2177SOL    HW1 6863   0.940   1.931   8.755
 2177SOL    HW2 6864   0.987   2.007   8.892
 2178SOL     OW 6865   0.980   2.978   9.167
 2178SOL    HW1 6866   0.881   2.984   9.177
 2178SOL    HW2 6867   1.003   2.898   9.111
 2179SOL     OW 6868   0.705   2.912   7.816
 2179SOL    HW1 6869   0.691   2.919   7.915
 2179SOL    HW2 6870   0.789   2.861   7.798
 2180SOL     OW 6871   0.410   2.675   8.699
 2180SOL    HW1 6872   0.496   2.687   8.749
 2180SOL    HW2 6873   0.368   2.588   8.726
 2181SOL     OW 6874   1.274   2.248   8.710
 2181SOL    HW1 6875   1.295   2.322   8.774
 2181SOL    HW2 6876   1.185   2.265   8.667
 2182SOL     OW 6877   0.064   3.426   8.779
 2182SOL    HW1 6878   0.018   3.508   8.745
 2182SOL    HW2 6879   0.162   3.445   8.788
 2183SOL     OW 6880   0.367   2.962   7.949
 2183SOL    HW1 6881   0.360   3.045   7.893
 2183SOL    HW2 6882   0.371   2.882   7.889
 2184SOL     OW 6883   0.566   2.399   8.313
 2184SOL    HW1 6884   0.578   2.465   8.239
 2184SOL    HW2 6885   0.612   2.433   8.396
 2185SOL     OW 6886   1.252   3.210   7.836
 2185SOL    HW1 6887   1.302   3.287   7.876
 2185SOL    HW2 6888   1.157   3.212   7.868
 2186SOL     OW 6889   1.272   3.307   8.590
 2186SOL    HW1 6890   1.319   3.320   8.677
 2186SOL    HW2 6891   1.206   3.233   8.599
 2187SOL     OW 6892   1.582   2.501   7.920
 2187SOL    HW1 6893   1.551   2.562   7.993
 2187SOL    HW2 6894   1.632   2.553   7.851
 2188SOL     OW 6895   0.354   3.372   8.777
 2188SOL    HW1 6896   0.333   3.328   8.690
 2188SOL    HW2 6897   0.451   3.398   8.780
 2189SOL     OW 6898   0.402   2.613   9.046
 2189SOL    HW1 6899   0.470   2.668   8.999
 2189SOL    HW2 6900   0.442   2.525   9.073
 2190SOL     OW 6901   1.587   2.641   9.118
 2190SOL    HW1 6902   1.495   2.679   9.113
 2190SOL    HW2 6903   1.647   2.688   9.053
 2191SOL     OW 6904   1.013   1.967   9.218
 2191SOL    HW1 6905   1.019   2.052   9.166
 2191SOL    HW2 6906   1.045   1.891   9.161
 2192SOL     OW 6907   0.504   1.912   9.188
 2192SOL    HW1 6908   0.462   1.855   9.118
 2192SOL    HW2 6909   0.438   1.981   9.220
 2193SOL     OW 6910   0.573   2.732   8.477
 2193SOL    HW1 6911   0.617   2.821   8.468
 2193SOL    HW2 6912   0.510   2.732   8.554
 2194SOL     OW 6913   1.360   2.724   8.493
 2194SOL    HW1 6914   1.285   2.724   8.427
 2194SOL    HW2 6915   1.397   2.632   8.502
 2195SOL     OW 6916   1.209   2.387   7.723
 2195SOL    HW1 6917   1.222   2.303   7.777
 2195SOL    HW2 6918   1.180   2.461   7.783
 2196SOL     OW 6919   0.307   2.075   8.679
 2196SOL    HW1 6920   0.284   2.112   8.769
 2196SOL    HW2 6921   0.277   1.980   8.673
 2197SOL     OW 6922   0.037   3.172   8.730
 2197SOL    HW1 6923   0.090   3.123   8.798
 2197SOL    HW2 6924   0.059   3.270   8.735
 2198SOL     OW 6925   0.732   2.496   8.512
 2198SOL    HW1 6926   0.791   2.470   8.436
 2198SOL    HW2 6927   0.704   2.592   8.501
 2199SOL     OW 6928   1.728   2.797   9.302
 2199SOL    HW1 6929   1.682   2.790   9.213
 2199SOL    HW2 6930   1.666   2.841   9.368
 2200SOL     OW 6931   0.307   1.925   8.066
 2200SOL    HW1 6932   0.296   2.019   8.099
 2200SOL    HW2 6933   0.302   1.862   8.143
 2201SOL     OW 6934   1.622   2.229   7.822
 2201SOL    HW1 6935   1.624   2.153   7.886
 2201SOL    HW2 6936   1.574   2.306   7.862
 2202SOL     OW 6937   1.023   2.628   8.414
 2202SOL    HW1 6938   1.038   2.649   8.510
 2202SOL    HW2 6939   0.993   2.533   8.405
 2203SOL     OW 6940   0.980   3.435   9.148
 2203SOL    HW1 6941   0.960   3.479   9.060
 2203SOL    HW2 6942   1.019   3.344   9.132
 2204SOL     OW 6943   1.859   3.380   9.053
 2204SOL    HW1 6944   1.873   3.407   8.958
 2204SOL    HW2 6945   1.942   3.402   9.106
 2205SOL     OW 6946   0.350   2.760   9.252
 2205SOL    HW1 6947   0.426   2.804   9.300
 2205SOL    HW2 6948   0.385   2.713   9.170
 2206SOL     OW 6949   1.540   2.136   7.573
 2206SOL    HW1 6950   1.479   2.061   7.596
 2206SOL    HW2 6951   1.562   2.188   7.656
 2207SOL     OW 6952   1.303   2.700   7.490
 2207SOL    HW1 6953   1.337   2.607   7.505
 2207SOL    HW2 6954   1.321   2.727   7.395
 2208SOL     OW 6955   1.068   3.195   8.297
 2208SOL    HW1 6956   1.075   3.111   8.242
 2208SOL    HW2 6957   1.130   3.264   8.261
 2209SOL     OW 6958   0.319   2.672   8.397
 2209SOL    HW1 6959   0.412   2.708   8.402
 2209SOL    HW2 6960   0.313   2.587   8.449
 2210SOL     OW 6961   0.339   2.371   8.454
 2210SOL    HW1 6962   0.287   2.288   8.437
 2210SOL    HW2 6963   0.416   2.376   8.390
 2211SOL     OW 6964   1.138   2.242   9.126
 2211SOL    HW1 6965   1.093   2.305   9.190
 2211SOL    HW2 6966   1.231   2.273   9.109
 2212SOL     OW 6967   1.160   2.069   8.925
 2212SOL    HW1 6968   1.160   2.133   9.002
 2212SOL    HW2 6969   1.188   2.117   8.842
 2213SOL     OW 6970   0.008   3.188   7.648
 2213SOL    HW1 6971  -0.085   3.209   7.617
 2213SOL    HW2 6972   0.018   3.089   7.661
 2214SOL     OW 6973   0.088   3.663   8.375
 2214SOL    HW1 6974   0.046   3.577   8.348
 2214SOL    HW2 6975   0.182   3.666   8.341
 2215SOL     OW 6976   0.504   3.430   8.358
 2215SOL    HW1 6977   0.570   3.504   8.367
 2215SOL    HW2 6978   0.548   3.351   8.316
 2216SOL     OW 6979   1.002   2.658   8.686
 2216SOL    HW1 6980   1.043   2.626   8.772
 2216SOL    HW2 6981   0.906   2.631   8.683
 2217SOL     OW 6982   0.040   2.406   8.562
 2217SOL    HW1 6983   0.125   2.373   8.521
 2217SOL    HW2 6984   0.053   2.421   8.660
 2218SOL     OW 6985   0.189   2.382   9.170
 2218SOL    HW1 6986   0.248   2.342   9.100
 2218SOL    HW2 6987   0.131   2.453   9.129
 2219SOL     OW 6988   1.369   2.812   9.108
 2219SOL    HW1 6989   1.408   2.901   9.128
 2219SOL    HW2 6990   1.379   2.792   9.011
 2220SOL     OW 6991   0.815   2.434   7.773
 2220SOL    HW1 6992   0.822   2.345   7.727
 2220SOL    HW2 6993   0.721   2.468   7.765
 2221SOL     OW 6994   1.657   2.466   8.654
 2221SOL    HW1 6995   1.619   2.397   8.716
 2221SOL    HW2 6996   1.739   2.430   8.610
 2222SOL     OW 6997   0.252   3.426   9.192
 2222SOL    HW1 6998   0.222   3.483   9.268
 2222SOL    HW2 6999   0.245   3.329   9.218
 2223SOL     OW 7000   0.671   2.326   8.717
 2223SOL    HW1 7001   0.637   2.237   8.687
 2223SOL    HW2 7002   0.697   2.380   8.637
 2224SOL     OW 7003   0.930   3.540   8.913
 2224SOL    HW1 7004   0.906   3.522   8.818
 2224SOL    HW2 7005   0.960   3.634   8.923
 2225SOL     OW 7006   0.473   2.362   7.639
 2225SOL    HW1 7007   0.534   2.442   7.643
 2225SOL    HW2 7008   0.378   2.393   7.646
 2226SOL     OW 7009   0.159   2.999   8.914
 2226SOL    HW1 7010   0.181   2.938   8.990
 2226SOL    HW2 7011   0.169   2.950   8.828
 2227SOL     OW 7012   1.347   2.921   8.682
 2227SOL    HW1 7013   1.371   2.858   8.608
 2227SOL    HW2 7014   1.257   2.961   8.664
 2228SOL     OW 7015   1.302   2.717   7.757
 2228SOL    HW1 7016   1.216   2.686   7.799
 2228SOL    HW2 7017   1.298   2.703   7.658
 2229SOL     OW 7018   1.759   3.609   8.602
 2229SOL    HW1 7019   1.820   3.639   8.529
 2229SOL    HW2 7020   1.721   3.520   8.580
 2230SOL     OW 7021   1.252   3.593   8.576
 2230SOL    HW1 7022   1.336   3.598   8.522
 2230SOL    HW2 7023   1.229   3.497   8.594
 2231SOL     OW 7024   0.083   3.120   8.470
 2231SOL    HW1 7025   0.078   3.119   8.570
 2231SOL    HW2 7026   0.000   3.079   8.432
 2232SOL     OW 7027   0.688   3.524   9.164
 2232SOL    HW1 7028   0.632   3.605   9.173
 2232SOL    HW2 7029   0.740   3.528   9.078
 2233SOL     OW 7030   1.726   1.997   7.971
 2233SOL    HW1 7031   1.799   1.980   7.904
 2233SOL    HW2 7032   1.695   1.910   8.009
 2234SOL     OW 7033   1.388   3.435   7.925
 2234SOL    HW1 7034   1.455   3.447   7.851
 2234SOL    HW2 7035   1.348   3.524   7.948
 2235SOL     OW 7036   0.130   3.656   9.299
 2235SOL    HW1 7037   0.089   3.582   9.352
 2235SOL    HW2 7038   0.194   3.707   9.357
 2236SOL     OW 7039   1.280   2.789   8.120
 2236SOL    HW1 7040   1.340   2.708   8.122
 2236SOL    HW2 7041   1.320   2.858   8.060
 2237SOL     OW 7042   0.830   3.135   8.870
 2237SOL    HW1 7043   0.825   3.168   8.965
 2237SOL    HW2 7044   0.744   3.154   8.824
 2238SOL     OW 7045   0.672   3.478   7.602
 2238SOL    HW1 7046   0.681   3.488   7.503
 2238SOL    HW2 7047   0.632   3.389   7.623
 2239SOL     OW 7048   1.650   3.582   8.842
 2239SOL    HW1 7049   1.703   3.592   8.758
 2239SOL    HW2 7050   1.623   3.672   8.876
 2240SOL     OW 7051   1.841   2.037   8.411
 2240SOL    HW1 7052   1.880   1.952   8.375
 2240SOL    HW2 7053   1.743   2.039   8.392
 2241SOL     OW 7054   0.263   2.188   8.168
 2241SOL    HW1 7055   0.184   2.239   8.134
 2241SOL    HW2 7056   0.254   2.173   8.266
 2242SOL     OW 7057   1.194   3.474   7.479
 2242SOL    HW1 7058   1.200   3.381   7.516
 2242SOL    HW2 7059   1.135   3.474   7.399
 2243SOL     OW 7060   0.822   2.864   8.820
 2243SOL    HW1 7061   0.862   2.863   8.728
 2243SOL    HW2 7062   0.832   2.956   8.860
 2244SOL     OW 7063   0.916   2.772   7.739
 2244SOL    HW1 7064   0.979   2.810   7.671
 2244SOL    HW2 7065   0.956   2.689   7.778
 2245SOL     OW 7066   1.504   3.469   7.492
 2245SOL    HW1 7067   1.412   3.506   7.499
 2245SOL    HW2 7068   1.542   3.489   7.402
 2246SOL     OW 7069   0.372   3.150   8.938
 2246SOL    HW1 7070   0.359   3.243   8.904
 2246SOL    HW2 7071   0.288   3.098   8.925
 2247SOL     OW 7072   1.614   3.154   8.737
 2247SOL    HW1 7073   1.674   3.157   8.817
 2247SOL    HW2 7074   1.539   3.218   8.750
 2248SOL     OW 7075   1.039   2.960   8.144
 2248SOL    HW1 7076   0.969   2.913   8.198
 2248SOL    HW2 7077   1.098   2.892   8.101
 2249SOL     OW 7078   1.014   2.098   8.419
 2249SOL    HW1 7079   1.006   2.062   8.326
 2249SOL    HW2 7080   1.012   2.022   8.484
 2250SOL     OW 7081   0.590   3.349   7.939
 2250SOL    HW1 7082   0.632   3.291   7.869
 2250SOL    HW2 7083   0.546   3.428   7.895
 2251SOL     OW 7084   1.709   2.247   8.829
 2251SOL    HW1 7085   1.782   2.316   8.833
 2251SOL    HW2 7086   1.737   2.172   8.770
 2252SOL     OW 7087   0.255   3.210   7.738
 2252SOL    HW1 7088   0.159   3.211   7.711
 2252SOL    HW2 7089   0.267   3.263   7.822
 2253SOL     OW 7090   0.105   2.875   9.174
 2253SOL    HW1 7091   0.028   2.842   9.228
 2253SOL    HW2 7092   0.190   2.845   9.216
 2254SOL     OW 7093   0.672   2.065   8.937
 2254SOL    HW1 7094   0.762   2.049   8.897
 2254SOL    HW2 7095   0.680   2.070   9.036
 2255SOL     OW 7096   0.075   2.207   7.481
 2255SOL    HW1 7097  -0.017   2.179   7.452
 2255SOL    HW2 7098   0.106   2.284   7.425
 2256SOL     OW 7099   1.440   2.718   8.846
 2256SOL    HW1 7100   1.383   2.770   8.783
 2256SOL    HW2 7101   1.536   2.730   8.822
 2257SOL     OW 7102   0.072   2.028   7.766
 2257SOL    HW1 7103   0.055   2.111   7.712
 2257SOL    HW2 7104   0.162   1.991   7.744
 2258SOL     OW 7105   1.183   3.197   7.567
 2258SOL    HW1 7106   1.084   3.186   7.569
 2258SOL    HW2 7107   1.217   3.212   7.660
 2259SOL     OW 7108   0.613   2.704   8.879
 2259SOL    HW1 7109   0.669   2.785   8.862
 2259SOL    HW2 7110   0.672   2.624   8.882
 2260SOL     OW 7111   1.493   3.629   8.407
 2260SOL    HW1 7112   1.526   3.693   8.338
 2260SOL    HW2 7113   1.559   3.623   8.482
 2261SOL     OW 7114   0.716   2.427   9.156
 2261SOL    HW1 7115   0.735   2.492   9.230
 2261SOL    HW2 7116   0.776   2.347   9.165
 2262SOL     OW 7117   1.450   3.082   9.081
 2262SOL    HW1 7118   1.441   3.072   9.180
 2262SOL    HW2 7119   1.546   3.075   9.055
 2263SOL     OW 7120   0.390   3.603   9.008
 2263SOL    HW1 7121   0.299   3.644   9.006
 2263SOL    HW2 7122   0.383   3.509   9.040
 2264SOL     OW 7123   1.674   2.745   8.702
 2264SOL    HW1 7124   1.647   2.656   8.665
 2264SOL    HW2 7125   1.675   2.813   8.629
 2265SOL     OW 7126   1.225   2.187   7.897
 2265SOL    HW1 7127   1.290   2.113   7.886
 2265SOL    HW2 7128   1.245   2.237   7.981
 2266SOL     OW 7129   0.594   2.607   8.100
 2266SOL    HW1 7130   0.644   2.692   8.081
 2266SOL    HW2 7131   0.506   2.609   8.052
 2267SOL     OW 7132   1.777   2.204   9.090
 2267SOL    HW1 7133   1.760   2.235   8.996
 2267SOL    HW2 7134   1.693   2.167   9.128
 2268SOL     OW 7135   1.730   2.796   8.965
 2268SOL    HW1 7136   1.768   2.887   8.980
 2268SOL    HW2 7137   1.722   2.779   8.866
 2269SOL     OW 7138   0.859   3.236   7.464
 2269SOL    HW1 7139   0.813   3.251   7.552
 2269SOL    HW2 7140   0.903   3.321   7.434
 2270SOL     OW 7141   0.661   3.652   8.401
 2270SOL    HW1 7142   0.615   3.740   8.388
 2270SOL    HW2 7143   0.760   3.664   8.394
 2271SOL     OW 7144   0.859   2.818   8.309
 2271SOL    HW1 7145   0.913   2.749   8.357
 2271SOL    HW2 7146   0.827   2.887   8.375
 2272SOL     OW 7147   1.083   2.846   7.535
 2272SOL    HW1 7148   1.060   2.899   7.453
 2272SOL    HW2 7149   1.164   2.790   7.516
 2273SOL     OW 7150   1.861   3.431   8.299
 2273SOL    HW1 7151   1.790   3.419   8.229
 2273SOL    HW2 7152   1.862   3.352   8.359
 2274SOL     OW 7153   0.221   3.176   9.292
 2274SOL    HW1 7154   0.156   3.103   9.271
 2274SOL    HW2 7155   0.225   3.190   9.390
 2275SOL     OW 7156   0.079   3.102   8.101
 2275SOL    HW1 7157   0.078   3.055   8.189
 2275SOL    HW2 7158   0.161   3.074   8.050
 2276SOL     OW 7159   0.672   3.253   9.072
 2276SOL    HW1 7160   0.594   3.203   9.110
 2276SOL    HW2 7161   0.669   3.348   9.103
 2277SOL     OW 7162   1.824   2.054   8.675
 2277SOL    HW1 7163   1.820   1.964   8.719
 2277SOL    HW2 7164   1.827   2.043   8.576
 2278SOL     OW 7165   0.428   2.286   7.968
 2278SOL    HW1 7166   0.458   2.214   7.906
 2278SOL    HW2 7167   0.389   2.246   8.051
 2279SOL     OW 7168   1.705   3.349   8.552
 2279SOL    HW1 7169   1.612   3.324   8.525
 2279SOL    HW2 7170   1.731   3.299   8.634
 2280SOL     OW 7171   0.317   2.409   8.728
 2280SOL    HW1 7172   0.355   2.350   8.800
 2280SOL    HW2 7173   0.357   2.383   8.640
 2281SOL     OW 7174   0.812   3.448   8.135
 2281SOL    HW1 7175   0.844   3.458   8.041
 2281SOL    HW2 7176   0.733   3.386   8.137
 2282SOL     OW 7177   1.424   2.076   8.560
 2282SOL    HW1 7178   1.476   2.011   8.615
 2282SOL    HW2 7179   1.375   2.139   8.621
 2283SOL     OW 7180   1.001   1.896   8.602
 2283SOL    HW1 7181   0.938   1.824   8.571
 2283SOL    HW2 7182   1.094   1.860   8.602
 2284SOL     OW 7183   0.770   3.192   7.749
 2284SOL    HW1 7184   0.724   3.105   7.766
 2284SOL    HW2 7185   0.861   3.189   7.790
 2285SOL     OW 7186   0.618   3.429   8.732
 2285SOL    HW1 7187   0.613   3.511   8.789
 2285SOL    HW2 7188   0.707   3.426   8.687
 2286SOL     OW 7189   1.352   1.914   7.616
 2286SOL    HW1 7190   1.387   1.873   7.532
 2286SOL    HW2 7191   1.262   1.876   7.636
 2287SOL     OW 7192   1.300   2.315   8.139
 2287SOL    HW1 7193   1.241   2.395   8.143
 2287SOL    HW2 7194   1.315   2.280   8.232
 2288SOL     OW 7195   1.593   2.083   8.330
 2288SOL    HW1 7196   1.509   2.082   8.384
 2288SOL    HW2 7197   1.595   2.166   8.274
 2289SOL     OW 7198   0.039   2.939   7.748
 2289SOL    HW1 7199   0.138   2.928   7.739
 2289SOL    HW2 7200  -0.001   2.853   7.780
 2290SOL     OW 7201   0.875   3.508   7.785
 2290SOL    HW1 7202   0.798   3.473   7.731
 2290SOL    HW2 7203   0.843   3.579   7.847
 2291SOL     OW 7204   0.230   2.490   9.423
 2291SOL    HW1 7205   0.137   2.488   9.460
 2291SOL    HW2 7206   0.231   2.451   9.331
 2292SOL     OW 7207   0.225   2.137  10.306
 2292SOL    HW1 7208   0.260   2.120  10.398
 2292SOL    HW2 7209   0.137   2.092  10.294
 2293SOL     OW 7210   0.019   2.230   9.957
 2293SOL    HW1 7211  -0.063   2.273   9.996
 2293SOL    HW2 7212  -0.009   2.157   9.894
 2294SOL     OW 7213   0.569   3.137  10.475
 2294SOL    HW1 7214   0.476   3.130  10.438
 2294SOL    HW2 7215   0.580   3.226  10.519
 2295SOL     OW 7216   1.555   3.373  10.013
 2295SOL    HW1 7217   1.498   3.357  10.094
 2295SOL    HW2 7218   1.496   3.383   9.933
 2296SOL     OW 7219   1.135   2.565  10.027
 2296SOL    HW1 7220   1.192   2.643  10.002
 2296SOL    HW2 7221   1.075   2.591  10.103
 2297SOL     OW 7222   1.755   2.469   9.541
 2297SOL    HW1 7223   1.743   2.456   9.442
 2297SOL    HW2 7224   1.725   2.388   9.590
 2298SOL     OW 7225   0.768   3.006  10.333
 2298SOL    HW1 7226   0.690   3.023  10.393
 2298SOL    HW2 7227   0.802   3.093  10.297
 2299SOL     OW 7228   0.685   2.874   9.975
 2299SOL    HW1 7229   0.754   2.858  10.045
 2299SOL    HW2 7230   0.612   2.931  10.013
 2300SOL     OW 7231   0.335   3.297  10.371
 2300SOL    HW1 7232   0.257   3.266  10.318
 2300SOL    HW2 7233   0.393   3.355  10.314
 2301SOL     OW 7234   0.438   2.254  10.809
 2301SOL    HW1 7235   0.520   2.198  10.818
 2301SOL    HW2 7236   0.357   2.196  10.813
 2302SOL     OW 7237   1.603   2.309  10.047
 2302SOL    HW1 7238   1.529   2.355   9.997
 2302SOL    HW2 7239   1.654   2.377  10.100
 2303SOL     OW 7240   0.231   3.575   9.793
 2303SOL    HW1 7241   0.265   3.652   9.847
 2303SOL    HW2 7242   0.275   3.575   9.703
 2304SOL     OW 7243   0.230   3.296   9.848
 2304SOL    HW1 7244   0.204   3.392   9.848
 2304SOL    HW2 7245   0.159   3.242   9.893
 2305SOL     OW 7246   0.240   2.953  10.196
 2305SOL    HW1 7247   0.254   2.869  10.248
 2305SOL    HW2 7248   0.185   3.017  10.251
 2306SOL     OW 7249   0.620   3.648  10.749
 2306SOL    HW1 7250   0.528   3.631  10.784
 2306SOL    HW2 7251   0.648   3.740  10.775
 2307SOL     OW 7252   0.606   2.826   9.433
 2307SOL    HW1 7253   0.613   2.910   9.379
 2307SOL    HW2 7254   0.652   2.839   9.521
 2308SOL     OW 7255   0.122   2.505   9.873
 2308SOL    HW1 7256   0.077   2.417   9.890
 2308SOL    HW2 7257   0.121   2.559   9.957
 2309SOL     OW 7258   1.842   3.629   9.669
 2309SOL    HW1 7259   1.896   3.600   9.749
 2309SOL    HW2 7260   1.872   3.719   9.640
 2310SOL     OW 7261   0.027   3.458   9.427
 2310SOL    HW1 7262   0.008   3.362   9.448
 2310SOL    HW2 7263  -0.006   3.516   9.502
 2311SOL     OW 7264   1.689   2.784   9.922
 2311SOL    HW1 7265   1.784   2.755   9.930
 2311SOL    HW2 7266   1.681   2.849   9.847
 2312SOL     OW 7267   1.641   2.970   9.742
 2312SOL    HW1 7268   1.727   2.972   9.690
 2312SOL    HW2 7269   1.655   3.017   9.830
 2313SOL     OW 7270   0.613   3.227  10.036
 2313SOL    HW1 7271   0.564   3.140  10.045
 2313SOL    HW2 7272   0.590   3.270   9.949
 2314SOL     OW 7273   0.809   1.866   9.812
 2314SOL    HW1 7274   0.849   1.957   9.803
 2314SOL    HW2 7275   0.709   1.874   9.818
 2315SOL     OW 7276   0.197   2.838  10.574
 2315SOL    HW1 7277   0.286   2.793  10.560
 2315SOL    HW2 7278   0.124   2.773  10.555
 2316SOL     OW 7279   1.525   2.861   9.500
 2316SOL    HW1 7280   1.462   2.785   9.513
 2316SOL    HW2 7281   1.573   2.879   9.586
 2317SOL     OW 7282   1.466   3.279  10.263
 2317SOL    HW1 7283   1.407   3.285  10.343
 2317SOL    HW2 7284   1.451   3.191  10.217
 2318SOL     OW 7285   1.667   3.576   9.882
 2318SOL    HW1 7286   1.626   3.553   9.794
 2318SOL    HW2 7287   1.649   3.502   9.947
 2319SOL     OW 7288   0.598   2.591   9.580
 2319SOL    HW1 7289   0.622   2.660   9.512
 2319SOL    HW2 7290   0.520   2.624   9.634
 2320SOL     OW 7291   1.281   2.207  10.254
 2320SOL    HW1 7292   1.195   2.157  10.241
 2320SOL    HW2 7293   1.343   2.153  10.310
 2321SOL     OW 7294   1.576   3.524   9.617
 2321SOL    HW1 7295   1.665   3.570   9.620
 2321SOL    HW2 7296   1.555   3.500   9.522
 2322SOL     OW 7297   0.807   2.467  10.775
 2322SOL    HW1 7298   0.760   2.464  10.864
 2322SOL    HW2 7299   0.756   2.412  10.709
 2323SOL     OW 7300   0.991   2.272  10.552
 2323SOL    HW1 7301   0.914   2.306  10.606
 2323SOL    HW2 7302   0.957   2.221  10.473
 2324SOL     OW 7303   1.041   2.563   9.739
 2324SOL    HW1 7304   1.067   2.559   9.835
 2324SOL    HW2 7305   0.956   2.512   9.725
 2325SOL     OW 7306   0.076   2.673  10.099
 2325SOL    HW1 7307   0.175   2.661  10.108
 2325SOL    HW2 7308   0.052   2.768  10.120
 2326SOL     OW 7309   0.130   3.683  10.881
 2326SOL    HW1 7310   0.120   3.668  10.980
 2326SOL    HW2 7311   0.044   3.719  10.845
 2327SOL     OW 7312   0.865   2.210   9.505
 2327SOL    HW1 7313   0.924   2.273   9.456
 2327SOL    HW2 7314   0.884   2.116   9.476
 2328SOL     OW 7315   1.362   3.006   9.855
 2328SOL    HW1 7316   1.445   2.977   9.807
 2328SOL    HW2 7317   1.313   3.073   9.799
 2329SOL     OW 7318   0.550   2.058  10.195
 2329SOL    HW1 7319   0.545   2.053  10.295
 2329SOL    HW2 7320   0.552   2.154  10.166
 2330SOL     OW 7321   1.008   3.318   9.787
 2330SOL    HW1 7322   0.962   3.390   9.735
 2330SOL    HW2 7323   1.004   3.338   9.885
 2331SOL     OW 7324   0.351   3.663  10.163
 2331SOL    HW1 7325   0.401   3.577  10.169
 2331SOL    HW2 7326   0.416   3.740  10.160
 2332SOL     OW 7327   1.795   2.928  10.183
 2332SOL    HW1 7328   1.733   2.913  10.107
 2332SOL    HW2 7329   1.743   2.939  10.268
 2333SOL     OW 7330   0.321   2.805   9.552
 2333SOL    HW1 7331   0.403   2.844   9.510
 2333SOL    HW2 7332   0.294   2.723   9.503
 2334SOL     OW 7333   1.458   2.597  10.038
 2334SOL    HW1 7334   1.453   2.532  10.113
 2334SOL    HW2 7335   1.538   2.656  10.051
 2335SOL     OW 7336   1.111   3.638   9.547
 2335SOL    HW1 7337   1.051   3.576   9.597
 2335SOL    HW2 7338   1.142   3.594   9.462
 2336SOL     OW 7339   1.632   3.239   9.391
 2336SOL    HW1 7340   1.600   3.333   9.381
 2336SOL    HW2 7341   1.556   3.176   9.379
 2337SOL     OW 7342   0.464   3.605   9.633
 2337SOL    HW1 7343   0.497   3.644   9.719
 2337SOL    HW2 7344   0.540   3.598   9.568
 2338SOL     OW 7345   1.400   1.969   9.736
 2338SOL    HW1 7346   1.376   1.932   9.646
 2338SOL    HW2 7347   1.499   1.985   9.740
 2339SOL     OW 7348   0.249   3.647  10.551
 2339SOL    HW1 7349   0.306   3.582  10.601
 2339SOL    HW2 7350   0.233   3.614  10.458
 2340SOL     OW 7351   0.940   3.560  10.214
 2340SOL    HW1 7352   1.020   3.503  10.235
 2340SOL    HW2 7353   0.891   3.520  10.137
 2341SOL     OW 7354   0.382   2.562   9.790
 2341SOL    HW1 7355   0.427   2.472   9.787
 2341SOL    HW2 7356   0.288   2.551   9.823
 2342SOL     OW 7357   0.614   1.984   9.427
 2342SOL    HW1 7358   0.712   1.962   9.434
 2342SOL    HW2 7359   0.583   1.967   9.334
 2343SOL     OW 7360   0.888   3.376  10.505
 2343SOL    HW1 7361   0.865   3.351  10.411
 2343SOL    HW2 7362   0.949   3.307  10.544
 2344SOL     OW 7363   0.803   3.264  10.234
 2344SOL    HW1 7364   0.893   3.278  10.192
 2344SOL    HW2 7365   0.732   3.266  10.163
 2345SOL     OW 7366   0.922   2.365  10.209
 2345SOL    HW1 7367   0.897   2.356  10.113
 2345SOL    HW2 7368   0.970   2.283  10.240
 2346SOL     OW 7369   0.539   1.926   9.822
 2346SOL    HW1 7370   0.458   1.927   9.880
 2346SOL    HW2 7371   0.542   2.009   9.767
 2347SOL     OW 7372   1.434   3.050   9.351
 2347SOL    HW1 7373   1.466   2.974   9.408
 2347SOL    HW2 7374   1.342   3.077   9.381
 2348SOL     OW 7375   0.297   1.897   9.481
 2348SOL    HW1 7376   0.346   1.981   9.460
 2348SOL    HW2 7377   0.359   1.832   9.526
 2349SOL     OW 7378   0.935   2.098   9.790
 2349SOL    HW1 7379   0.887   2.139   9.712
 2349SOL    HW2 7380   1.034   2.096   9.771
 2350SOL     OW 7381   1.227   3.432  10.103
 2350SOL    HW1 7382   1.248   3.506  10.038
 2350SOL    HW2 7383   1.295   3.432  10.176
 2351SOL     OW 7384   0.459   3.014  10.051
 2351SOL    HW1 7385   0.388   2.987  10.116
 2351SOL    HW2 7386   0.433   2.986   9.958
 2352SOL     OW 7387   1.271   3.659   9.901
 2352SOL    HW1 7388   1.315   3.723   9.837
 2352SOL    HW2 7389   1.221   3.711   9.971
 2353SOL     OW 7390   1.032   2.411   9.326
 2353SOL    HW1 7391   0.991   2.493   9.287
 2353SOL    HW2 7392   1.096   2.437   9.399
 2354SOL     OW 7393   0.078   2.418  10.696
 2354SOL    HW1 7394   0.170   2.417  10.655
 2354SOL    HW2 7395   0.072   2.492  10.763
 2355SOL     OW 7396   0.561   2.084  10.457
 2355SOL    HW1 7397   0.599   2.000  10.494
 2355SOL    HW2 7398   0.473   2.103  10.501
 2356SOL     OW 7399   0.866   2.316   9.952
 2356SOL    HW1 7400   0.834   2.388   9.890
 2356SOL    HW2 7401   0.890   2.235   9.899
 2357SOL     OW 7402   1.017   1.901  10.063
 2357SOL    HW1 7403   0.945   1.906   9.994
 2357SOL    HW2 7404   0.993   1.832  10.132
 2358SOL     OW 7405   1.429   3.035  10.177
 2358SOL    HW1 7406   1.374   2.951  10.170
 2358SOL    HW2 7407   1.455   3.064  10.085
 2359SOL     OW 7408   1.466   2.452  10.302
 2359SOL    HW1 7409   1.436   2.357  10.309
 2359SOL    HW2 7410   1.539   2.468  10.368
 2360SOL     OW 7411   1.857   2.695   9.687
 2360SOL    HW1 7412   1.899   2.631   9.751
 2360SOL    HW2 7413   1.819   2.644   9.609
 2361SOL     OW 7414   0.488   3.247   9.484
 2361SOL    HW1 7415   0.401   3.232   9.531
 2361SOL    HW2 7416   0.471   3.273   9.389
 2362SOL     OW 7417   1.664   3.142   9.967
 2362SOL    HW1 7418   1.763   3.150   9.981
 2362SOL    HW2 7419   1.619   3.226   9.998
 2363SOL     OW 7420   1.390   2.437   9.388
 2363SOL    HW1 7421   1.336   2.416   9.469
 2363SOL    HW2 7422   1.481   2.396   9.397
 2364SOL     OW 7423   0.527   2.118   9.638
 2364SOL    HW1 7424   0.554   2.059   9.563
 2364SOL    HW2 7425   0.527   2.213   9.607
 2365SOL     OW 7426   1.064   3.209  10.650
 2365SOL    HW1 7427   0.984   3.186  10.705
 2365SOL    HW2 7428   1.147   3.183  10.699
 2366SOL     OW 7429   1.111   3.057  10.410
 2366SOL    HW1 7430   1.071   3.101  10.491
 2366SOL    HW2 7431   1.070   3.094  10.327
 2367SOL     OW 7432   1.638   2.961  10.389
 2367SOL    HW1 7433   1.643   3.042  10.448
 2367SOL    HW2 7434   1.552   2.963  10.338
 2368SOL     OW 7435   0.705   2.912   9.678
 2368SOL    HW1 7436   0.691   2.919   9.777
 2368SOL    HW2 7437   0.789   2.861   9.660
 2369SOL     OW 7438   0.410   2.675  10.561
 2369SOL    HW1 7439   0.496   2.687  10.611
 2369SOL    HW2 7440   0.368   2.588  10.588
 2370SOL     OW 7441   1.274   2.248  10.572
 2370SOL    HW1 7442   1.295   2.322  10.636
 2370SOL    HW2 7443   1.185   2.265  10.529
 2371SOL     OW 7444   0.064   3.426  10.641
 2371SOL    HW1 7445   0.018   3.508  10.607
 2371SOL    HW2 7446   0.162   3.445  10.650
 2372SOL     OW 7447   0.367   2.962   9.811
 2372SOL    HW1 7448   0.360   3.045   9.755
 2372SOL    HW2 7449   0.371   2.882   9.751
 2373SOL     OW 7450   0.566   2.399  10.175
 2373SOL    HW1 7451   0.578   2.465  10.101
 2373SOL    HW2 7452   0.612   2.433  10.258
 2374SOL     OW 7453   1.252   3.210   9.698
 2374SOL    HW1 7454   1.302   3.287   9.738
 2374SOL    HW2 7455   1.157   3.212   9.730
 2375SOL     OW 7456   1.272   3.307  10.452
 2375SOL    HW1 7457   1.319   3.320  10.539
 2375SOL    HW2 7458   1.206   3.233  10.461
 2376SOL     OW 7459   1.582   2.501   9.782
 2376SOL    HW1 7460   1.551   2.562   9.855
 2376SOL    HW2 7461   1.632   2.553   9.713
 2377SOL     OW 7462   0.354   3.372  10.639
 2377SOL    HW1 7463   0.333   3.328  10.552
 2377SOL    HW2 7464   0.451   3.398  10.642
 2378SOL     OW 7465   0.402   2.613  10.908
 2378SOL    HW1 7466   0.470   2.668  10.861
 2378SOL    HW2 7467   0.442   2.525  10.935
 2379SOL     OW 7468   0.573   2.732  10.339
 2379SOL    HW1 7469   0.617   2.821  10.330
 2379SOL    HW2 7470   0.510   2.732  10.416
 2380SOL     OW 7471   1.360   2.724  10.355
 2380SOL    HW1 7472   1.285   2.724  10.289
 2380SOL    HW2 7473   1.397   2.632  10.364
 2381SOL     OW 7474   1.209   2.387   9.585
 2381SOL    HW1 7475   1.222   2.303   9.639
 2381SOL    HW2 7476   1.180   2.461   9.645
 2382SOL     OW 7477   0.307   2.075  10.541
 2382SOL    HW1 7478   0.284   2.112  10.631
 2382SOL    HW2 7479   0.277   1.980  10.535
 2383SOL     OW 7480   0.037   3.172  10.592
 2383SOL    HW1 7481   0.090   3.123  10.660
 2383SOL    HW2 7482   0.059   3.270  10.597
 2384SOL     OW 7483   0.732   2.496  10.374
 2384SOL    HW1 7484   0.791   2.470  10.298
 2384SOL    HW2 7485   0.704   2.592  10.363
 2385SOL     OW 7486   0.307   1.925   9.928
 2385SOL    HW1 7487   0.296   2.019   9.961
 2385SOL    HW2 7488   0.302   1.862  10.005
 2386SOL     OW 7489   1.622   2.229   9.684
 2386SOL    HW1 7490   1.624   2.153   9.748
 2386SOL    HW2 7491   1.574   2.306   9.724
 2387SOL     OW 7492   1.023   2.628  10.276
 2387SOL    HW1 7493   1.038   2.649  10.372
 2387SOL    HW2 7494   0.993   2.533  10.267
 2388SOL     OW 7495   0.980   3.435  11.010
 2388SOL    HW1 7496   0.960   3.479  10.922
 2388SOL    HW2 7497   1.019   3.344  10.994
 2389SOL     OW 7498   1.540   2.136   9.435
 2389SOL    HW1 7499   1.479   2.061   9.458
 2389SOL    HW2 7500   1.562   2.188   9.518
 2390SOL     OW 7501   1.303   2.700   9.352
 2390SOL    HW1 7502   1.337   2.607   9.367
 2390SOL    HW2 7503   1.321   2.727   9.257
 2391SOL     OW 7504   1.068   3.195  10.159
 2391SOL    HW1 7505   1.075   3.111  10.104
 2391SOL    HW2 7506   1.130   3.264  10.123
 2392SOL     OW 7507   0.319   2.672  10.259
 2392SOL    HW1 7508   0.412   2.708  10.264
 2392SOL    HW2 7509   0.313   2.587  10.311
 2393SOL     OW 7510   0.339   2.371  10.316
 2393SOL    HW1 7511   0.287   2.288  10.299
 2393SOL    HW2 7512   0.416   2.376  10.252
 2394SOL     OW 7513   1.160   2.069  10.787
 2394SOL    HW1 7514   1.160   2.133  10.864
 2394SOL    HW2 7515   1.188   2.117  10.704
 2395SOL     OW 7516   0.008   3.188   9.510
 2395SOL    HW1 7517  -0.085   3.209   9.479
 2395SOL    HW2 7518   0.018   3.089   9.523
 2396SOL     OW 7519   0.088   3.663  10.237
 2396SOL    HW1 7520   0.046   3.577  10.210
 2396SOL    HW2 7521   0.182   3.666  10.203
 2397SOL     OW 7522   0.504   3.430  10.220
 2397SOL    HW1 7523   0.570   3.504  10.229
 2397SOL    HW2 7524   0.548   3.351  10.178
 2398SOL     OW 7525   1.002   2.658  10.548
 2398SOL    HW1 7526   1.043   2.626  10.634
 2398SOL    HW2 7527   0.906   2.631  10.545
 2399SOL     OW 7528   0.040   2.406  10.424
 2399SOL    HW1 7529   0.125   2.373  10.383
 2399SOL    HW2 7530   0.053   2.421  10.522
 2400SOL     OW 7531   0.815   2.434   9.635
 2400SOL    HW1 7532   0.822   2.345   9.589
 2400SOL    HW2 7533   0.721   2.468   9.627
 2401SOL     OW 7534   1.657   2.466  10.516
 2401SOL    HW1 7535   1.619   2.397  10.578
 2401SOL    HW2 7536   1.739   2.430  10.472
 2402SOL     OW 7537   0.671   2.326  10.579
 2402SOL    HW1 7538   0.637   2.237  10.549
 2402SOL    HW2 7539   0.697   2.380  10.499
 2403SOL     OW 7540   0.930   3.540  10.775
 2403SOL    HW1 7541   0.906   3.522  10.680
 2403SOL    HW2 7542   0.960   3.634  10.785
 2404SOL     OW 7543   0.473   2.362   9.501
 2404SOL    HW1 7544   0.534   2.442   9.505
 2404SOL    HW2 7545   0.378   2.393   9.508
 2405SOL     OW 7546   0.159   2.999  10.776
 2405SOL    HW1 7547   0.181   2.938  10.852
 2405SOL    HW2 7548   0.169   2.950  10.690
 2406SOL     OW 7549   1.347   2.921  10.544
 2406SOL    HW1 7550   1.371   2.858  10.470
 2406SOL    HW2 7551   1.257   2.961  10.526
 2407SOL     OW 7552   1.302   2.717   9.619
 2407SOL    HW1 7553   1.216   2.686   9.661
 2407SOL    HW2 7554   1.298   2.703   9.520
 2408SOL     OW 7555   1.759   3.609  10.464
 2408SOL    HW1 7556   1.820   3.639  10.391
 2408SOL    HW2 7557   1.721   3.520  10.442
 2409SOL     OW 7558   1.252   3.593  10.438
 2409SOL    HW1 7559   1.336   3.598  10.384
 2409SOL    HW2 7560   1.229   3.497  10.456
 2410SOL     OW 7561   0.083   3.120  10.332
 2410SOL    HW1 7562   0.078   3.119  10.432
 2410SOL    HW2 7563   0.000   3.079  10.294
 2411SOL     OW 7564   1.726   1.997   9.833
 2411SOL    HW1 7565   1.799   1.980   9.766
 2411SOL    HW2 7566   1.695   1.910   9.871
 2412SOL     OW 7567   1.388   3.435   9.787
 2412SOL    HW1 7568   1.455   3.447   9.713
 2412SOL    HW2 7569   1.348   3.524   9.810
 2413SOL     OW 7570   1.280   2.789   9.982
 2413SOL    HW1 7571   1.340   2.708   9.984
 2413SOL    HW2 7572   1.320   2.858   9.922
 2414SOL     OW 7573   0.672   3.478   9.464
 2414SOL    HW1 7574   0.681   3.488   9.365
 2414SOL    HW2 7575   0.632   3.389   9.485
 2415SOL     OW 7576   1.650   3.582  10.704
 2415SOL    HW1 7577   1.703   3.592  10.620
 2415SOL    HW2 7578   1.623   3.672  10.738
 2416SOL     OW 7579   1.841   2.037  10.273
 2416SOL    HW1 7580   1.880   1.952  10.237
 2416SOL    HW2 7581   1.743   2.039  10.254
 2417SOL     OW 7582   0.263   2.188  10.030
 2417SOL    HW1 7583   0.184   2.239   9.996
 2417SOL    HW2 7584   0.254   2.173  10.128
 2418SOL     OW 7585   1.194   3.474   9.341
 2418SOL    HW1 7586   1.200   3.381   9.378
 2418SOL    HW2 7587   1.135   3.474   9.261
 2419SOL     OW 7588   0.822   2.864  10.682
 2419SOL    HW1 7589   0.862   2.863  10.590
 2419SOL    HW2 7590   0.832   2.956  10.722
 2420SOL     OW 7591   0.916   2.772   9.601
 2420SOL    HW1 7592   0.979   2.810   9.533
 2420SOL    HW2 7593   0.956   2.689   9.640
 2421SOL     OW 7594   1.504   3.469   9.354
 2421SOL    HW1 7595   1.412   3.506   9.361
 2421SOL    HW2 7596   1.542   3.489   9.264
 2422SOL     OW 7597   0.372   3.150  10.800
 2422SOL    HW1 7598   0.359   3.243  10.766
 2422SOL    HW2 7599   0.288   3.098  10.787
 2423SOL     OW 7600   1.614   3.154  10.599
 2423SOL    HW1 7601   1.674   3.157  10.679
 2423SOL    HW2 7602   1.539   3.218  10.612
 2424SOL     OW 7603   1.039   2.960  10.006
 2424SOL    HW1 7604   0.969   2.913  10.060
 2424SOL    HW2 7605   1.098   2.892   9.963
 2425SOL     OW 7606   1.014   2.098  10.281
 2425SOL    HW1 7607   1.006   2.062  10.188
 2425SOL    HW2 7608   1.012   2.022  10.346
 2426SOL     OW 7609   0.590   3.349   9.801
 2426SOL    HW1 7610   0.632   3.291   9.731
 2426SOL    HW2 7611   0.546   3.428   9.757
 2427SOL     OW 7612   1.709   2.247  10.691
 2427SOL    HW1 7613   1.782   2.316  10.695
 2427SOL    HW2 7614   1.737   2.172  10.632
 2428SOL     OW 7615   0.255   3.210   9.600
 2428SOL    HW1 7616   0.159   3.211   9.573
 2428SOL    HW2 7617   0.267   3.263   9.684
 2429SOL     OW 7618   0.672   2.065  10.799
 2429SOL    HW1 7619   0.762   2.049  10.759
 2429SOL    HW2 7620   0.680   2.070  10.898
 2430SOL     OW 7621   0.075   2.207   9.343
 2430SOL    HW1 7622  -0.017   2.179   9.314
 2430SOL    HW2 7623   0.106   2.284   9.287
 2431SOL     OW 7624   0.072   2.028   9.628
 2431SOL    HW1 7625   0.055   2.111   9.574
 2431SOL    HW2 7626   0.162   1.991   9.606
 2432SOL     OW 7627   1.183   3.197   9.429
 2432SOL    HW1 7628   1.084   3.186   9.431
 2432SOL    HW2 7629   1.217   3.212   9.522
 2433SOL     OW 7630   0.613   2.704  10.741
 2433SOL    HW1 7631   0.669   2.785  10.724
 2433SOL    HW2 7632   0.672   2.624  10.744
 2434SOL     OW 7633   1.493   3.629  10.269
 2434SOL    HW1 7634   1.526   3.693  10.200
 2434SOL    HW2 7635   1.559   3.623  10.344
 2435SOL     OW 7636   0.390   3.603  10.870
 2435SOL    HW1 7637   0.299   3.644  10.868
 2435SOL    HW2 7638   0.383   3.509  10.902
 2436SOL     OW 7639   1.674   2.745  10.564
 2436SOL    HW1 7640   1.647   2.656  10.527
 2436SOL    HW2 7641   1.675   2.813  10.491
 2437SOL     OW 7642   1.225   2.187   9.759
 2437SOL    HW1 7643   1.290   2.113   9.748
 2437SOL    HW2 7644   1.245   2.237   9.843
 2438SOL     OW 7645   0.594   2.607   9.962
 2438SOL    HW1 7646   0.644   2.692   9.943
 2438SOL    HW2 7647   0.506   2.609   9.914
 2439SOL     OW 7648   1.730   2.796  10.827
 2439SOL    HW1 7649   1.768   2.887  10.842
 2439SOL    HW2 7650   1.722   2.779  10.728
 2440SOL     OW 7651   0.859   3.236   9.326
 2440SOL    HW1 7652   0.813   3.251   9.414
 2440SOL    HW2 7653   0.903   3.321   9.296
 2441SOL     OW 7654   0.661   3.652  10.263
 2441SOL    HW1 7655   0.615   3.740  10.250
 2441SOL    HW2 7656   0.760   3.664  10.256
 2442SOL     OW 7657   0.859   2.818  10.171
 2442SOL    HW1 7658   0.913   2.749  10.219
 2442SOL    HW2 7659   0.827   2.887  10.237
 2443SOL     OW 7660   1.083   2.846   9.397
 2443SOL    HW1 7661   1.060   2.899   9.315
 2443SOL    HW2 7662   1.164   2.790   9.378
 2444SOL     OW 7663   1.861   3.431  10.161
 2444SOL    HW1 7664   1.790   3.419  10.091
 2444SOL    HW2 7665   1.862   3.352  10.221
 2445SOL     OW 7666   0.079   3.102   9.963
 2445SOL    HW1 7667   0.078   3.055  10.051
 2445SOL    HW2 7668   0.161   3.074   9.912
 2446SOL     OW 7669   1.824   2.054  10.537
 2446SOL    HW1 7670   1.820   1.964  10.581
 2446SOL    HW2 7671   1.827   2.043  10.438
 2447SOL     OW 7672   0.428   2.286   9.830
 2447SOL    HW1 7673   0.458   2.214   9.768
 2447SOL    HW2 7674   0.389   2.246   9.913
 2448SOL     OW 7675   1.705   3.349  10.414
 2448SOL    HW1 7676   1.612   3.324  10.387
 2448SOL    HW2 7677   1.731   3.299  10.496
 2449SOL     OW 7678   0.317   2.409  10.590
 2449SOL    HW1 7679   0.355   2.350  10.662
 2449SOL    HW2 7680   0.357   2.383  10.502
 2450SOL     OW 7681   0.812   3.448   9.997
 2450SOL    HW1 7682   0.844   3.458   9.903
 2450SOL    HW2 7683   0.733   3.386   9.999
 2451SOL     OW 7684   1.424   2.076  10.422
 2451SOL    HW1 7685   1.476   2.011  10.477
 2451SOL    HW2 7686   1.375   2.139  10.483
 2452SOL     OW 7687   1.001   1.896  10.464
 2452SOL    HW1 7688   0.938   1.824  10.433
 2452SOL    HW2 7689   1.094   1.860  10.464
 2453SOL     OW 7690   0.770   3.192   9.611
 2453SOL    HW1 7691   0.724   3.105   9.628
 2453SOL    HW2 7692   0.861   3.189   9.652
 2454SOL     OW 7693   0.618   3.429  10.594
 2454SOL    HW1 7694   0.613   3.511  10.651
 2454SOL    HW2 7695   0.707   3.426  10.549
 2455SOL     OW 7696   1.352   1.914   9.478
 2455SOL    HW1 7697   1.387   1.873   9.394
 2455SOL    HW2 7698   1.262   1.876   9.498
 2456SOL     OW 7699   1.300   2.315  10.001
 2456SOL    HW1 7700   1.241   2.395  10.005
 2456SOL    HW2 7701   1.315   2.280  10.094
 2457SOL     OW 7702   1.593   2.083  10.192
 2457SOL    HW1 7703   1.509   2.082  10.246
 2457SOL    HW2 7704   1.595   2.166  10.136
 2458SOL     OW 7705   0.039   2.939   9.610
 2458SOL    HW1 7706   0.138   2.928   9.601
 2458SOL    HW2 7707  -0.001   2.853   9.642
 2459SOL     OW 7708   0.875   3.508   9.647
 2459SOL    HW1 7709   0.798   3.473   9.593
 2459SOL    HW2 7710   0.843   3.579   9.709
 2460SOL     OW 7711   0.230   4.352   0.113
 2460SOL    HW1 7712   0.137   4.350   0.150
 2460SOL    HW2 7713   0.231   4.313   0.021
 2461SOL     OW 7714   0.225   3.999   0.996
 2461SOL    HW1 7715   0.260   3.982   1.088
 2461SOL    HW2 7716   0.137   3.954   0.984
 2462SOL     OW 7717   0.019   4.092   0.647
 2462SOL    HW1 7718  -0.063   4.135   0.686
 2462SOL    HW2 7719  -0.009   4.019   0.584
 2463SOL     OW 7720   1.135   4.427   0.717
 2463SOL    HW1 7721   1.192   4.505   0.692
 2463SOL    HW2 7722   1.075   4.453   0.793
 2464SOL     OW 7723   1.755   4.331   0.231
 2464SOL    HW1 7724   1.743   4.318   0.132
 2464SOL    HW2 7725   1.725   4.250   0.280
 2465SOL     OW 7726   0.768   4.868   1.023
 2465SOL    HW1 7727   0.690   4.885   1.083
 2465SOL    HW2 7728   0.802   4.955   0.987
 2466SOL     OW 7729   0.850   4.522   1.823
 2466SOL    HW1 7730   0.846   4.598   1.888
 2466SOL    HW2 7731   0.872   4.558   1.732
 2467SOL     OW 7732   0.685   4.736   0.665
 2467SOL    HW1 7733   0.754   4.720   0.735
 2467SOL    HW2 7734   0.612   4.793   0.703
 2468SOL     OW 7735   0.686   4.885   1.803
 2468SOL    HW1 7736   0.746   4.964   1.817
 2468SOL    HW2 7737   0.600   4.916   1.762
 2469SOL     OW 7738   0.438   4.116   1.499
 2469SOL    HW1 7739   0.520   4.060   1.508
 2469SOL    HW2 7740   0.357   4.058   1.503
 2470SOL     OW 7741   1.603   4.171   0.737
 2470SOL    HW1 7742   1.529   4.217   0.687
 2470SOL    HW2 7743   1.654   4.239   0.790
 2471SOL     OW 7744   0.240   4.815   0.886
 2471SOL    HW1 7745   0.254   4.731   0.938
 2471SOL    HW2 7746   0.185   4.879   0.941
 2472SOL     OW 7747   0.606   4.688   0.123
 2472SOL    HW1 7748   0.613   4.772   0.069
 2472SOL    HW2 7749   0.652   4.701   0.211
 2473SOL     OW 7750   1.594   3.838   1.480
 2473SOL    HW1 7751   1.576   3.905   1.408
 2473SOL    HW2 7752   1.591   3.884   1.569
 2474SOL     OW 7753   0.122   4.367   0.563
 2474SOL    HW1 7754   0.077   4.279   0.580
 2474SOL    HW2 7755   0.121   4.421   0.647
 2475SOL     OW 7756   1.689   4.646   0.612
 2475SOL    HW1 7757   1.784   4.617   0.620
 2475SOL    HW2 7758   1.681   4.711   0.537
 2476SOL     OW 7759   1.641   4.832   0.432
 2476SOL    HW1 7760   1.727   4.834   0.380
 2476SOL    HW2 7761   1.655   4.879   0.520
 2477SOL     OW 7762   0.113   4.461   1.597
 2477SOL    HW1 7763   0.201   4.448   1.642
 2477SOL    HW2 7764   0.100   4.558   1.575
 2478SOL     OW 7765   1.293   4.952   1.423
 2478SOL    HW1 7766   1.330   4.879   1.365
 2478SOL    HW2 7767   1.345   4.957   1.508
 2479SOL     OW 7768   0.809   3.728   0.502
 2479SOL    HW1 7769   0.849   3.819   0.493
 2479SOL    HW2 7770   0.709   3.736   0.508
 2480SOL     OW 7771   0.197   4.700   1.264
 2480SOL    HW1 7772   0.286   4.655   1.250
 2480SOL    HW2 7773   0.124   4.635   1.245
 2481SOL     OW 7774   1.525   4.723   0.190
 2481SOL    HW1 7775   1.462   4.647   0.203
 2481SOL    HW2 7776   1.573   4.741   0.276
 2482SOL     OW 7777   0.317   3.975   1.801
 2482SOL    HW1 7778   0.388   4.046   1.807
 2482SOL    HW2 7779   0.229   4.014   1.829
 2483SOL     OW 7780   0.598   4.453   0.270
 2483SOL    HW1 7781   0.622   4.522   0.202
 2483SOL    HW2 7782   0.520   4.486   0.324
 2484SOL     OW 7783   1.281   4.069   0.944
 2484SOL    HW1 7784   1.195   4.019   0.931
 2484SOL    HW2 7785   1.343   4.015   1.000
 2485SOL     OW 7786   0.807   4.329   1.465
 2485SOL    HW1 7787   0.760   4.326   1.554
 2485SOL    HW2 7788   0.756   4.274   1.399
 2486SOL     OW 7789   1.394   4.193   1.674
 2486SOL    HW1 7790   1.374   4.236   1.762
 2486SOL    HW2 7791   1.472   4.131   1.683
 2487SOL     OW 7792   0.973   4.614   1.572
 2487SOL    HW1 7793   1.019   4.530   1.543
 2487SOL    HW2 7794   0.917   4.648   1.497
 2488SOL     OW 7795   0.991   4.134   1.242
 2488SOL    HW1 7796   0.914   4.168   1.296
 2488SOL    HW2 7797   0.957   4.083   1.163
 2489SOL     OW 7798   1.041   4.425   0.429
 2489SOL    HW1 7799   1.067   4.421   0.525
 2489SOL    HW2 7800   0.956   4.374   0.415
 2490SOL     OW 7801   0.076   4.535   0.789
 2490SOL    HW1 7802   0.175   4.523   0.798
 2490SOL    HW2 7803   0.052   4.630   0.810
 2491SOL     OW 7804   0.865   4.072   0.195
 2491SOL    HW1 7805   0.924   4.135   0.146
 2491SOL    HW2 7806   0.884   3.978   0.166
 2492SOL     OW 7807   1.719   4.309   1.831
 2492SOL    HW1 7808   1.693   4.398   1.795
 2492SOL    HW2 7809   1.717   4.241   1.758
 2493SOL     OW 7810   1.362   4.868   0.545
 2493SOL    HW1 7811   1.445   4.839   0.497
 2493SOL    HW2 7812   1.313   4.935   0.489
 2494SOL     OW 7813   0.550   3.920   0.885
 2494SOL    HW1 7814   0.545   3.915   0.985
 2494SOL    HW2 7815   0.552   4.016   0.856
 2495SOL     OW 7816   1.795   4.790   0.873
 2495SOL    HW1 7817   1.733   4.775   0.797
 2495SOL    HW2 7818   1.743   4.801   0.958
 2496SOL     OW 7819   0.321   4.667   0.242
 2496SOL    HW1 7820   0.403   4.706   0.200
 2496SOL    HW2 7821   0.294   4.585   0.193
 2497SOL     OW 7822   1.458   4.459   0.728
 2497SOL    HW1 7823   1.453   4.394   0.803
 2497SOL    HW2 7824   1.538   4.518   0.741
 2498SOL     OW 7825   0.202   4.009   1.498
 2498SOL    HW1 7826   0.122   4.069   1.485
 2498SOL    HW2 7827   0.192   3.960   1.584
 2499SOL     OW 7828   1.400   3.831   0.426
 2499SOL    HW1 7829   1.376   3.794   0.336
 2499SOL    HW2 7830   1.499   3.847   0.430
 2500SOL     OW 7831   0.382   4.424   0.480
 2500SOL    HW1 7832   0.427   4.334   0.477
 2500SOL    HW2 7833   0.288   4.413   0.513
 2501SOL     OW 7834   1.547   3.946   1.729
 2501SOL    HW1 7835   1.542   3.983   1.821
 2501SOL    HW2 7836   1.475   3.877   1.717
 2502SOL     OW 7837   0.781   3.988   1.749
 2502SOL    HW1 7838   0.848   3.927   1.792
 2502SOL    HW2 7839   0.708   4.007   1.814
 2503SOL     OW 7840   1.351   4.314   1.433
 2503SOL    HW1 7841   1.379   4.271   1.518
 2503SOL    HW2 7842   1.376   4.410   1.434
 2504SOL     OW 7843   0.922   4.227   0.899
 2504SOL    HW1 7844   0.897   4.218   0.803
 2504SOL    HW2 7845   0.970   4.145   0.930
 2505SOL     OW 7846   0.539   3.788   0.512
 2505SOL    HW1 7847   0.458   3.789   0.570
 2505SOL    HW2 7848   0.542   3.871   0.457
 2506SOL     OW 7849   0.297   3.759   0.171
 2506SOL    HW1 7850   0.346   3.843   0.150
 2506SOL    HW2 7851   0.359   3.694   0.216
 2507SOL     OW 7852   0.935   3.960   0.480
 2507SOL    HW1 7853   0.887   4.001   0.402
 2507SOL    HW2 7854   1.034   3.958   0.461
 2508SOL     OW 7855   1.076   4.407   1.464
 2508SOL    HW1 7856   0.996   4.346   1.467
 2508SOL    HW2 7857   1.157   4.354   1.440
 2509SOL     OW 7858   0.459   4.876   0.741
 2509SOL    HW1 7859   0.388   4.849   0.806
 2509SOL    HW2 7860   0.433   4.848   0.648
 2510SOL     OW 7861   1.032   4.273   0.016
 2510SOL    HW1 7862   0.991   4.355  -0.023
 2510SOL    HW2 7863   1.096   4.299   0.089
 2511SOL     OW 7864   0.078   4.280   1.386
 2511SOL    HW1 7865   0.170   4.279   1.345
 2511SOL    HW2 7866   0.072   4.354   1.453
 2512SOL     OW 7867   0.561   3.946   1.147
 2512SOL    HW1 7868   0.599   3.862   1.184
 2512SOL    HW2 7869   0.473   3.965   1.191
 2513SOL     OW 7870   0.866   4.178   0.642
 2513SOL    HW1 7871   0.834   4.250   0.580
 2513SOL    HW2 7872   0.890   4.097   0.589
 2514SOL     OW 7873   1.017   3.763   0.753
 2514SOL    HW1 7874   0.945   3.768   0.684
 2514SOL    HW2 7875   0.993   3.694   0.822
 2515SOL     OW 7876   1.429   4.897   0.867
 2515SOL    HW1 7877   1.374   4.813   0.860
 2515SOL    HW2 7878   1.455   4.926   0.775
 2516SOL     OW 7879   1.466   4.314   0.992
 2516SOL    HW1 7880   1.436   4.219   0.999
 2516SOL    HW2 7881   1.539   4.330   1.058
 2517SOL     OW 7882   1.857   4.557   0.377
 2517SOL    HW1 7883   1.899   4.493   0.441
 2517SOL    HW2 7884   1.819   4.506   0.299
 2518SOL     OW 7885   1.390   4.299   0.078
 2518SOL    HW1 7886   1.336   4.278   0.159
 2518SOL    HW2 7887   1.481   4.258   0.087
 2519SOL     OW 7888   0.527   3.980   0.328
 2519SOL    HW1 7889   0.554   3.921   0.253
 2519SOL    HW2 7890   0.527   4.075   0.297
 2520SOL     OW 7891   1.754   4.947   1.588
 2520SOL    HW1 7892   1.845   4.908   1.575
 2520SOL    HW2 7893   1.762   5.043   1.612
 2521SOL     OW 7894   1.638   4.823   1.079
 2521SOL    HW1 7895   1.643   4.904   1.138
 2521SOL    HW2 7896   1.552   4.825   1.028
 2522SOL     OW 7897   0.915   3.813   1.402
 2522SOL    HW1 7898   0.940   3.793   1.307
 2522SOL    HW2 7899   0.987   3.869   1.444
 2523SOL     OW 7900   0.980   4.840   1.719
 2523SOL    HW1 7901   0.881   4.846   1.729
 2523SOL    HW2 7902   1.003   4.760   1.663
 2524SOL     OW 7903   0.705   4.774   0.368
 2524SOL    HW1 7904   0.691   4.781   0.467
 2524SOL    HW2 7905   0.789   4.723   0.350
 2525SOL     OW 7906   0.410   4.537   1.251
 2525SOL    HW1 7907   0.496   4.549   1.301
 2525SOL    HW2 7908   0.368   4.450   1.278
 2526SOL     OW 7909   1.274   4.110   1.262
 2526SOL    HW1 7910   1.295   4.184   1.326
 2526SOL    HW2 7911   1.185   4.127   1.219
 2527SOL     OW 7912   0.367   4.824   0.501
 2527SOL    HW1 7913   0.360   4.907   0.445
 2527SOL    HW2 7914   0.371   4.744   0.441
 2528SOL     OW 7915   0.566   4.261   0.865
 2528SOL    HW1 7916   0.578   4.327   0.791
 2528SOL    HW2 7917   0.612   4.295   0.948
 2529SOL     OW 7918   1.582   4.363   0.472
 2529SOL    HW1 7919   1.551   4.424   0.545
 2529SOL    HW2 7920   1.632   4.415   0.403
 2530SOL     OW 7921   0.402   4.475   1.598
 2530SOL    HW1 7922   0.470   4.530   1.551
 2530SOL    HW2 7923   0.442   4.387   1.625
 2531SOL     OW 7924   1.587   4.503   1.670
 2531SOL    HW1 7925   1.495   4.541   1.665
 2531SOL    HW2 7926   1.647   4.550   1.605
 2532SOL     OW 7927   1.013   3.829   1.770
 2532SOL    HW1 7928   1.019   3.914   1.718
 2532SOL    HW2 7929   1.045   3.753   1.713
 2533SOL     OW 7930   0.504   3.774   1.740
 2533SOL    HW1 7931   0.462   3.717   1.670
 2533SOL    HW2 7932   0.438   3.843   1.772
 2534SOL     OW 7933   0.573   4.594   1.029
 2534SOL    HW1 7934   0.617   4.683   1.020
 2534SOL    HW2 7935   0.510   4.594   1.106
 2535SOL     OW 7936   1.360   4.586   1.045
 2535SOL    HW1 7937   1.285   4.586   0.979
 2535SOL    HW2 7938   1.397   4.494   1.054
 2536SOL     OW 7939   1.209   4.249   0.275
 2536SOL    HW1 7940   1.222   4.165   0.329
 2536SOL    HW2 7941   1.180   4.323   0.335
 2537SOL     OW 7942   0.307   3.937   1.231
 2537SOL    HW1 7943   0.284   3.974   1.321
 2537SOL    HW2 7944   0.277   3.842   1.225
 2538SOL     OW 7945   0.037   5.034   1.282
 2538SOL    HW1 7946   0.090   4.985   1.350
 2538SOL    HW2 7947   0.059   5.132   1.287
 2539SOL     OW 7948   0.732   4.358   1.064
 2539SOL    HW1 7949   0.791   4.332   0.988
 2539SOL    HW2 7950   0.704   4.454   1.053
 2540SOL     OW 7951   1.728   4.659   1.854
 2540SOL    HW1 7952   1.682   4.652   1.765
 2540SOL    HW2 7953   1.666   4.703   1.920
 2541SOL     OW 7954   0.307   3.787   0.618
 2541SOL    HW1 7955   0.296   3.881   0.651
 2541SOL    HW2 7956   0.302   3.724   0.695
 2542SOL     OW 7957   1.622   4.091   0.374
 2542SOL    HW1 7958   1.624   4.015   0.438
 2542SOL    HW2 7959   1.574   4.168   0.414
 2543SOL     OW 7960   1.023   4.490   0.966
 2543SOL    HW1 7961   1.038   4.511   1.062
 2543SOL    HW2 7962   0.993   4.395   0.957
 2544SOL     OW 7963   0.350   4.622   1.804
 2544SOL    HW1 7964   0.426   4.666   1.852
 2544SOL    HW2 7965   0.385   4.575   1.722
 2545SOL     OW 7966   1.540   3.998   0.125
 2545SOL    HW1 7967   1.479   3.923   0.148
 2545SOL    HW2 7968   1.562   4.050   0.208
 2546SOL     OW 7969   1.303   4.562   0.042
 2546SOL    HW1 7970   1.337   4.469   0.057
 2546SOL    HW2 7971   1.321   4.589  -0.053
 2547SOL     OW 7972   0.319   4.534   0.949
 2547SOL    HW1 7973   0.412   4.570   0.954
 2547SOL    HW2 7974   0.313   4.449   1.001
 2548SOL     OW 7975   0.339   4.233   1.006
 2548SOL    HW1 7976   0.287   4.150   0.989
 2548SOL    HW2 7977   0.416   4.238   0.942
 2549SOL     OW 7978   1.138   4.104   1.678
 2549SOL    HW1 7979   1.093   4.167   1.742
 2549SOL    HW2 7980   1.231   4.135   1.661
 2550SOL     OW 7981   1.160   3.931   1.477
 2550SOL    HW1 7982   1.160   3.995   1.554
 2550SOL    HW2 7983   1.188   3.979   1.394
 2551SOL     OW 7984   0.008   5.050   0.200
 2551SOL    HW1 7985  -0.085   5.071   0.169
 2551SOL    HW2 7986   0.018   4.951   0.213
 2552SOL     OW 7987   1.002   4.520   1.238
 2552SOL    HW1 7988   1.043   4.488   1.324
 2552SOL    HW2 7989   0.906   4.493   1.235
 2553SOL     OW 7990   0.040   4.268   1.114
 2553SOL    HW1 7991   0.125   4.235   1.073
 2553SOL    HW2 7992   0.053   4.283   1.212
 2554SOL     OW 7993   0.189   4.244   1.722
 2554SOL    HW1 7994   0.248   4.204   1.652
 2554SOL    HW2 7995   0.131   4.315   1.681
 2555SOL     OW 7996   1.369   4.674   1.660
 2555SOL    HW1 7997   1.408   4.763   1.680
 2555SOL    HW2 7998   1.379   4.654   1.563
 2556SOL     OW 7999   0.815   4.296   0.325
 2556SOL    HW1 8000   0.822   4.207   0.279
 2556SOL    HW2 8001   0.721   4.330   0.317
 2557SOL     OW 8002   1.657   4.328   1.206
 2557SOL    HW1 8003   1.619   4.259   1.268
 2557SOL    HW2 8004   1.739   4.292   1.162
 2558SOL     OW 8005   0.671   4.188   1.269
 2558SOL    HW1 8006   0.637   4.099   1.239
 2558SOL    HW2 8007   0.697   4.242   1.189
 2559SOL     OW 8008   0.473   4.224   0.191
 2559SOL    HW1 8009   0.534   4.304   0.195
 2559SOL    HW2 8010   0.378   4.255   0.198
 2560SOL     OW 8011   0.159   4.861   1.466
 2560SOL    HW1 8012   0.181   4.800   1.542
 2560SOL    HW2 8013   0.169   4.812   1.380
 2561SOL     OW 8014   1.347   4.783   1.234
 2561SOL    HW1 8015   1.371   4.720   1.160
 2561SOL    HW2 8016   1.257   4.823   1.216
 2562SOL     OW 8017   1.302   4.579   0.309
 2562SOL    HW1 8018   1.216   4.548   0.351
 2562SOL    HW2 8019   1.298   4.565   0.210
 2563SOL     OW 8020   0.083   4.982   1.022
 2563SOL    HW1 8021   0.078   4.981   1.122
 2563SOL    HW2 8022   0.000   4.941   0.984
 2564SOL     OW 8023   0.903   3.810   0.133
 2564SOL    HW1 8024   0.954   3.811   0.047
 2564SOL    HW2 8025   0.959   3.768   0.204
 2565SOL     OW 8026   1.726   3.859   0.523
 2565SOL    HW1 8027   1.799   3.842   0.456
 2565SOL    HW2 8028   1.695   3.772   0.561
 2566SOL     OW 8029   1.280   4.651   0.672
 2566SOL    HW1 8030   1.340   4.570   0.674
 2566SOL    HW2 8031   1.320   4.720   0.612
 2567SOL     OW 8032   1.841   3.899   0.963
 2567SOL    HW1 8033   1.880   3.814   0.927
 2567SOL    HW2 8034   1.743   3.901   0.944
 2568SOL     OW 8035   0.263   4.050   0.720
 2568SOL    HW1 8036   0.184   4.101   0.686
 2568SOL    HW2 8037   0.254   4.035   0.818
 2569SOL     OW 8038   0.822   4.726   1.372
 2569SOL    HW1 8039   0.862   4.725   1.280
 2569SOL    HW2 8040   0.832   4.818   1.412
 2570SOL     OW 8041   0.916   4.634   0.291
 2570SOL    HW1 8042   0.979   4.672   0.223
 2570SOL    HW2 8043   0.956   4.551   0.330
 2571SOL     OW 8044   0.372   5.012   1.490
 2571SOL    HW1 8045   0.359   5.105   1.456
 2571SOL    HW2 8046   0.288   4.960   1.477
 2572SOL     OW 8047   1.614   5.016   1.289
 2572SOL    HW1 8048   1.674   5.019   1.369
 2572SOL    HW2 8049   1.539   5.080   1.302
 2573SOL     OW 8050   1.039   4.822   0.696
 2573SOL    HW1 8051   0.969   4.775   0.750
 2573SOL    HW2 8052   1.098   4.754   0.653
 2574SOL     OW 8053   1.014   3.960   0.971
 2574SOL    HW1 8054   1.006   3.924   0.878
 2574SOL    HW2 8055   1.012   3.884   1.036
 2575SOL     OW 8056   1.709   4.109   1.381
 2575SOL    HW1 8057   1.782   4.178   1.385
 2575SOL    HW2 8058   1.737   4.034   1.322
 2576SOL     OW 8059   0.105   4.737   1.726
 2576SOL    HW1 8060   0.028   4.704   1.780
 2576SOL    HW2 8061   0.190   4.707   1.768
 2577SOL     OW 8062   0.672   3.927   1.489
 2577SOL    HW1 8063   0.762   3.911   1.449
 2577SOL    HW2 8064   0.680   3.932   1.588
 2578SOL     OW 8065   0.075   4.069   0.033
 2578SOL    HW1 8066  -0.017   4.041   0.004
 2578SOL    HW2 8067   0.106   4.146  -0.023
 2579SOL     OW 8068   1.440   4.580   1.398
 2579SOL    HW1 8069   1.383   4.632   1.335
 2579SOL    HW2 8070   1.536   4.592   1.374
 2580SOL     OW 8071   0.072   3.890   0.318
 2580SOL    HW1 8072   0.055   3.973   0.264
 2580SOL    HW2 8073   0.162   3.853   0.296
 2581SOL     OW 8074   0.613   4.566   1.431
 2581SOL    HW1 8075   0.669   4.647   1.414
 2581SOL    HW2 8076   0.672   4.486   1.434
 2582SOL     OW 8077   0.716   4.289   1.708
 2582SOL    HW1 8078   0.735   4.354   1.782
 2582SOL    HW2 8079   0.776   4.209   1.717
 2583SOL     OW 8080   1.450   4.944   1.633
 2583SOL    HW1 8081   1.441   4.934   1.732
 2583SOL    HW2 8082   1.546   4.937   1.607
 2584SOL     OW 8083   1.674   4.607   1.254
 2584SOL    HW1 8084   1.647   4.518   1.217
 2584SOL    HW2 8085   1.675   4.675   1.181
 2585SOL     OW 8086   1.225   4.049   0.449
 2585SOL    HW1 8087   1.290   3.975   0.438
 2585SOL    HW2 8088   1.245   4.099   0.533
 2586SOL     OW 8089   0.594   4.469   0.652
 2586SOL    HW1 8090   0.644   4.554   0.633
 2586SOL    HW2 8091   0.506   4.471   0.604
 2587SOL     OW 8092   1.777   4.066   1.642
 2587SOL    HW1 8093   1.760   4.097   1.548
 2587SOL    HW2 8094   1.693   4.029   1.680
 2588SOL     OW 8095   1.730   4.658   1.517
 2588SOL    HW1 8096   1.768   4.749   1.532
 2588SOL    HW2 8097   1.722   4.641   1.418
 2589SOL     OW 8098   0.859   4.680   0.861
 2589SOL    HW1 8099   0.913   4.611   0.909
 2589SOL    HW2 8100   0.827   4.749   0.927
 2590SOL     OW 8101   1.083   4.708   0.087
 2590SOL    HW1 8102   1.060   4.761   0.005
 2590SOL    HW2 8103   1.164   4.652   0.068
 2591SOL     OW 8104   0.079   4.964   0.653
 2591SOL    HW1 8105   0.078   4.917   0.741
 2591SOL    HW2 8106   0.161   4.936   0.602
 2592SOL     OW 8107   1.824   3.916   1.227
 2592SOL    HW1 8108   1.820   3.826   1.271
 2592SOL    HW2 8109   1.827   3.905   1.128
 2593SOL     OW 8110   0.428   4.148   0.520
 2593SOL    HW1 8111   0.458   4.076   0.458
 2593SOL    HW2 8112   0.389   4.108   0.603
 2594SOL     OW 8113   0.317   4.271   1.280
 2594SOL    HW1 8114   0.355   4.212   1.352
 2594SOL    HW2 8115   0.357   4.245   1.192
 2595SOL     OW 8116   1.424   3.938   1.112
 2595SOL    HW1 8117   1.476   3.873   1.167
 2595SOL    HW2 8118   1.375   4.001   1.173
 2596SOL     OW 8119   1.001   3.758   1.154
 2596SOL    HW1 8120   0.938   3.686   1.123
 2596SOL    HW2 8121   1.094   3.722   1.154
 2597SOL     OW 8122   0.770   5.054   0.301
 2597SOL    HW1 8123   0.724   4.967   0.318
 2597SOL    HW2 8124   0.861   5.051   0.342
 2598SOL     OW 8125   1.352   3.776   0.168
 2598SOL    HW1 8126   1.387   3.735   0.084
 2598SOL    HW2 8127   1.262   3.738   0.188
 2599SOL     OW 8128   1.300   4.177   0.691
 2599SOL    HW1 8129   1.241   4.257   0.695
 2599SOL    HW2 8130   1.315   4.142   0.784
 2600SOL     OW 8131   1.593   3.945   0.882
 2600SOL    HW1 8132   1.509   3.944   0.936
 2600SOL    HW2 8133   1.595   4.028   0.826
 2601SOL     OW 8134   0.039   4.801   0.300
 2601SOL    HW1 8135   0.138   4.790   0.291
 2601SOL    HW2 8136  -0.001   4.715   0.332
 2602SOL     OW 8137   0.230   4.352   1.975
 2602SOL    HW1 8138   0.137   4.350   2.012
 2602SOL    HW2 8139   0.231   4.313   1.883
 2603SOL     OW 8140   0.225   3.999   2.858
 2603SOL    HW1 8141   0.260   3.982   2.950
 2603SOL    HW2 8142   0.137   3.954   2.846
 2604SOL     OW 8143   0.019   4.092   2.509
 2604SOL    HW1 8144  -0.063   4.135   2.548
 2604SOL    HW2 8145  -0.009   4.019   2.446
 2605SOL     OW 8146   1.135   4.427   2.579
 2605SOL    HW1 8147   1.192   4.505   2.554
 2605SOL    HW2 8148   1.075   4.453   2.655
 2606SOL     OW 8149   1.755   4.331   2.093
 2606SOL    HW1 8150   1.743   4.318   1.994
 2606SOL    HW2 8151   1.725   4.250   2.142
 2607SOL     OW 8152   0.768   4.868   2.885
 2607SOL    HW1 8153   0.690   4.885   2.945
 2607SOL    HW2 8154   0.802   4.955   2.849
 2608SOL     OW 8155   0.850   4.522   3.685
 2608SOL    HW1 8156   0.846   4.598   3.750
 2608SOL    HW2 8157   0.872   4.558   3.594
 2609SOL     OW 8158   0.685   4.736   2.527
 2609SOL    HW1 8159   0.754   4.720   2.597
 2609SOL    HW2 8160   0.612   4.793   2.565
 2610SOL     OW 8161   0.686   4.885   3.665
 2610SOL    HW1 8162   0.746   4.964   3.679
 2610SOL    HW2 8163   0.600   4.916   3.624
 2611SOL     OW 8164   0.438   4.116   3.361
 2611SOL    HW1 8165   0.520   4.060   3.370
 2611SOL    HW2 8166   0.357   4.058   3.365
 2612SOL     OW 8167   1.603   4.171   2.599
 2612SOL    HW1 8168   1.529   4.217   2.549
 2612SOL    HW2 8169   1.654   4.239   2.652
 2613SOL     OW 8170   0.240   4.815   2.748
 2613SOL    HW1 8171   0.254   4.731   2.800
 2613SOL    HW2 8172   0.185   4.879   2.803
 2614SOL     OW 8173   0.606   4.688   1.985
 2614SOL    HW1 8174   0.613   4.772   1.931
 2614SOL    HW2 8175   0.652   4.701   2.073
 2615SOL     OW 8176   1.594   3.838   3.342
 2615SOL    HW1 8177   1.576   3.905   3.270
 2615SOL    HW2 8178   1.591   3.884   3.431
 2616SOL     OW 8179   0.122   4.367   2.425
 2616SOL    HW1 8180   0.077   4.279   2.442
 2616SOL    HW2 8181   0.121   4.421   2.509
 2617SOL     OW 8182   1.689   4.646   2.474
 2617SOL    HW1 8183   1.784   4.617   2.482
 2617SOL    HW2 8184   1.681   4.711   2.399
 2618SOL     OW 8185   1.641   4.832   2.294
 2618SOL    HW1 8186   1.727   4.834   2.242
 2618SOL    HW2 8187   1.655   4.879   2.382
 2619SOL     OW 8188   0.113   4.461   3.459
 2619SOL    HW1 8189   0.201   4.448   3.504
 2619SOL    HW2 8190   0.100   4.558   3.437
 2620SOL     OW 8191   1.293   4.952   3.285
 2620SOL    HW1 8192   1.330   4.879   3.227
 2620SOL    HW2 8193   1.345   4.957   3.370
 2621SOL     OW 8194   0.809   3.728   2.364
 2621SOL    HW1 8195   0.849   3.819   2.355
 2621SOL    HW2 8196   0.709   3.736   2.370
 2622SOL     OW 8197   0.197   4.700   3.126
 2622SOL    HW1 8198   0.286   4.655   3.112
 2622SOL    HW2 8199   0.124   4.635   3.107
 2623SOL     OW 8200   1.525   4.723   2.052
 2623SOL    HW1 8201   1.462   4.647   2.065
 2623SOL    HW2 8202   1.573   4.741   2.138
 2624SOL     OW 8203   0.317   3.975   3.663
 2624SOL    HW1 8204   0.388   4.046   3.669
 2624SOL    HW2 8205   0.229   4.014   3.691
 2625SOL     OW 8206   0.598   4.453   2.132
 2625SOL    HW1 8207   0.622   4.522   2.064
 2625SOL    HW2 8208   0.520   4.486   2.186
 2626SOL     OW 8209   1.281   4.069   2.806
 2626SOL    HW1 8210   1.195   4.019   2.793
 2626SOL    HW2 8211   1.343   4.015   2.862
 2627SOL     OW 8212   0.807   4.329   3.327
 2627SOL    HW1 8213   0.760   4.326   3.416
 2627SOL    HW2 8214   0.756   4.274   3.261
 2628SOL     OW 8215   1.394   4.193   3.536
 2628SOL    HW1 8216   1.374   4.236   3.624
 2628SOL    HW2 8217   1.472   4.131   3.545
 2629SOL     OW 8218   0.973   4.614   3.434
 2629SOL    HW1 8219   1.019   4.530   3.405
 2629SOL    HW2 8220   0.917   4.648   3.359
 2630SOL     OW 8221   0.991   4.134   3.104
 2630SOL    HW1 8222   0.914   4.168   3.158
 2630SOL    HW2 8223   0.957   4.083   3.025
 2631SOL     OW 8224   1.041   4.425   2.291
 2631SOL    HW1 8225   1.067   4.421   2.387
 2631SOL    HW2 8226   0.956   4.374   2.277
 2632SOL     OW 8227   0.076   4.535   2.651
 2632SOL    HW1 8228   0.175   4.523   2.660
 2632SOL    HW2 8229   0.052   4.630   2.672
 2633SOL     OW 8230   0.865   4.072   2.057
 2633SOL    HW1 8231   0.924   4.135   2.008
 2633SOL    HW2 8232   0.884   3.978   2.028
 2634SOL     OW 8233   1.719   4.309   3.693
 2634SOL    HW1 8234   1.693   4.398   3.657
 2634SOL    HW2 8235   1.717   4.241   3.620
 2635SOL     OW 8236   1.362   4.868   2.407
 2635SOL    HW1 8237   1.445   4.839   2.359
 2635SOL    HW2 8238   1.313   4.935   2.351
 2636SOL     OW 8239   0.550   3.920   2.747
 2636SOL    HW1 8240   0.545   3.915   2.847
 2636SOL    HW2 8241   0.552   4.016   2.718
 2637SOL     OW 8242   1.795   4.790   2.735
 2637SOL    HW1 8243   1.733   4.775   2.659
 2637SOL    HW2 8244   1.743   4.801   2.820
 2638SOL     OW 8245   0.321   4.667   2.104
 2638SOL    HW1 8246   0.403   4.706   2.062
 2638SOL    HW2 8247   0.294   4.585   2.055
 2639SOL     OW 8248   1.458   4.459   2.590
 2639SOL    HW1 8249   1.453   4.394   2.665
 2639SOL    HW2 8250   1.538   4.518   2.603
 2640SOL     OW 8251   0.202   4.009   3.360
 2640SOL    HW1 8252   0.122   4.069   3.347
 2640SOL    HW2 8253   0.192   3.960   3.446
 2641SOL     OW 8254   1.400   3.831   2.288
 2641SOL    HW1 8255   1.376   3.794   2.198
 2641SOL    HW2 8256   1.499   3.847   2.292
 2642SOL     OW 8257   0.382   4.424   2.342
 2642SOL    HW1 8258   0.427   4.334   2.339
 2642SOL    HW2 8259   0.288   4.413   2.375
 2643SOL     OW 8260   1.547   3.946   3.591
 2643SOL    HW1 8261   1.542   3.983   3.683
 2643SOL    HW2 8262   1.475   3.877   3.579
 2644SOL     OW 8263   0.614   3.846   1.979
 2644SOL    HW1 8264   0.712   3.824   1.986
 2644SOL    HW2 8265   0.583   3.829   1.886
 2645SOL     OW 8266   0.781   3.988   3.611
 2645SOL    HW1 8267   0.848   3.927   3.654
 2645SOL    HW2 8268   0.708   4.007   3.676
 2646SOL     OW 8269   1.351   4.314   3.295
 2646SOL    HW1 8270   1.379   4.271   3.380
 2646SOL    HW2 8271   1.376   4.410   3.296
 2647SOL     OW 8272   0.922   4.227   2.761
 2647SOL    HW1 8273   0.897   4.218   2.665
 2647SOL    HW2 8274   0.970   4.145   2.792
 2648SOL     OW 8275   0.539   3.788   2.374
 2648SOL    HW1 8276   0.458   3.789   2.432
 2648SOL    HW2 8277   0.542   3.871   2.319
 2649SOL     OW 8278   0.297   3.759   2.033
 2649SOL    HW1 8279   0.346   3.843   2.012
 2649SOL    HW2 8280   0.359   3.694   2.078
 2650SOL     OW 8281   0.935   3.960   2.342
 2650SOL    HW1 8282   0.887   4.001   2.264
 2650SOL    HW2 8283   1.034   3.958   2.323
 2651SOL     OW 8284   1.076   4.407   3.326
 2651SOL    HW1 8285   0.996   4.346   3.329
 2651SOL    HW2 8286   1.157   4.354   3.302
 2652SOL     OW 8287   0.459   4.876   2.603
 2652SOL    HW1 8288   0.388   4.849   2.668
 2652SOL    HW2 8289   0.433   4.848   2.510
 2653SOL     OW 8290   1.032   4.273   1.878
 2653SOL    HW1 8291   0.991   4.355   1.839
 2653SOL    HW2 8292   1.096   4.299   1.951
 2654SOL     OW 8293   0.078   4.280   3.248
 2654SOL    HW1 8294   0.170   4.279   3.207
 2654SOL    HW2 8295   0.072   4.354   3.315
 2655SOL     OW 8296   0.561   3.946   3.009
 2655SOL    HW1 8297   0.599   3.862   3.046
 2655SOL    HW2 8298   0.473   3.965   3.053
 2656SOL     OW 8299   0.866   4.178   2.504
 2656SOL    HW1 8300   0.834   4.250   2.442
 2656SOL    HW2 8301   0.890   4.097   2.451
 2657SOL     OW 8302   1.017   3.763   2.615
 2657SOL    HW1 8303   0.945   3.768   2.546
 2657SOL    HW2 8304   0.993   3.694   2.684
 2658SOL     OW 8305   1.429   4.897   2.729
 2658SOL    HW1 8306   1.374   4.813   2.722
 2658SOL    HW2 8307   1.455   4.926   2.637
 2659SOL     OW 8308   1.466   4.314   2.854
 2659SOL    HW1 8309   1.436   4.219   2.861
 2659SOL    HW2 8310   1.539   4.330   2.920
 2660SOL     OW 8311   1.857   4.557   2.239
 2660SOL    HW1 8312   1.899   4.493   2.303
 2660SOL    HW2 8313   1.819   4.506   2.161
 2661SOL     OW 8314   1.390   4.299   1.940
 2661SOL    HW1 8315   1.336   4.278   2.021
 2661SOL    HW2 8316   1.481   4.258   1.949
 2662SOL     OW 8317   0.527   3.980   2.190
 2662SOL    HW1 8318   0.554   3.921   2.115
 2662SOL    HW2 8319   0.527   4.075   2.159
 2663SOL     OW 8320   1.754   4.947   3.450
 2663SOL    HW1 8321   1.845   4.908   3.437
 2663SOL    HW2 8322   1.762   5.043   3.474
 2664SOL     OW 8323   1.638   4.823   2.941
 2664SOL    HW1 8324   1.643   4.904   3.000
 2664SOL    HW2 8325   1.552   4.825   2.890
 2665SOL     OW 8326   0.915   3.813   3.264
 2665SOL    HW1 8327   0.940   3.793   3.169
 2665SOL    HW2 8328   0.987   3.869   3.306
 2666SOL     OW 8329   0.980   4.840   3.581
 2666SOL    HW1 8330   0.881   4.846   3.591
 2666SOL    HW2 8331   1.003   4.760   3.525
 2667SOL     OW 8332   0.705   4.774   2.230
 2667SOL    HW1 8333   0.691   4.781   2.329
 2667SOL    HW2 8334   0.789   4.723   2.212
 2668SOL     OW 8335   0.410   4.537   3.113
 2668SOL    HW1 8336   0.496   4.549   3.163
 2668SOL    HW2 8337   0.368   4.450   3.140
 2669SOL     OW 8338   1.274   4.110   3.124
 2669SOL    HW1 8339   1.295   4.184   3.188
 2669SOL    HW2 8340   1.185   4.127   3.081
 2670SOL     OW 8341   0.367   4.824   2.363
 2670SOL    HW1 8342   0.360   4.907   2.307
 2670SOL    HW2 8343   0.371   4.744   2.303
 2671SOL     OW 8344   0.566   4.261   2.727
 2671SOL    HW1 8345   0.578   4.327   2.653
 2671SOL    HW2 8346   0.612   4.295   2.810
 2672SOL     OW 8347   1.582   4.363   2.334
 2672SOL    HW1 8348   1.551   4.424   2.407
 2672SOL    HW2 8349   1.632   4.415   2.265
 2673SOL     OW 8350   0.402   4.475   3.460
 2673SOL    HW1 8351   0.470   4.530   3.413
 2673SOL    HW2 8352   0.442   4.387   3.487
 2674SOL     OW 8353   1.587   4.503   3.532
 2674SOL    HW1 8354   1.495   4.541   3.527
 2674SOL    HW2 8355   1.647   4.550   3.467
 2675SOL     OW 8356   1.013   3.829   3.632
 2675SOL    HW1 8357   1.019   3.914   3.580
 2675SOL    HW2 8358   1.045   3.753   3.575
 2676SOL     OW 8359   0.504   3.774   3.602
 2676SOL    HW1 8360   0.462   3.717   3.532
 2676SOL    HW2 8361   0.438   3.843   3.634
 2677SOL     OW 8362   0.573   4.594   2.891
 2677SOL    HW1 8363   0.617   4.683   2.882
 2677SOL    HW2 8364   0.510   4.594   2.968
 2678SOL     OW 8365   1.360   4.586   2.907
 2678SOL    HW1 8366   1.285   4.586   2.841
 2678SOL    HW2 8367   1.397   4.494   2.916
 2679SOL     OW 8368   1.209   4.249   2.137
 2679SOL    HW1 8369   1.222   4.165   2.191
 2679SOL    HW2 8370   1.180   4.323   2.197
 2680SOL     OW 8371   0.307   3.937   3.093
 2680SOL    HW1 8372   0.284   3.974   3.183
 2680SOL    HW2 8373   0.277   3.842   3.087
 2681SOL     OW 8374   0.037   5.034   3.144
 2681SOL    HW1 8375   0.090   4.985   3.212
 2681SOL    HW2 8376   0.059   5.132   3.149
 2682SOL     OW 8377   0.732   4.358   2.926
 2682SOL    HW1 8378   0.791   4.332   2.850
 2682SOL    HW2 8379   0.704   4.454   2.915
 2683SOL     OW 8380   1.728   4.659   3.716
 2683SOL    HW1 8381   1.682   4.652   3.627
 2683SOL    HW2 8382   1.666   4.703   3.782
 2684SOL     OW 8383   0.307   3.787   2.480
 2684SOL    HW1 8384   0.296   3.881   2.513
 2684SOL    HW2 8385   0.302   3.724   2.557
 2685SOL     OW 8386   1.622   4.091   2.236
 2685SOL    HW1 8387   1.624   4.015   2.300
 2685SOL    HW2 8388   1.574   4.168   2.276
 2686SOL     OW 8389   1.023   4.490   2.828
 2686SOL    HW1 8390   1.038   4.511   2.924
 2686SOL    HW2 8391   0.993   4.395   2.819
 2687SOL     OW 8392   0.350   4.622   3.666
 2687SOL    HW1 8393   0.426   4.666   3.714
 2687SOL    HW2 8394   0.385   4.575   3.584
 2688SOL     OW 8395   1.540   3.998   1.987
 2688SOL    HW1 8396   1.479   3.923   2.010
 2688SOL    HW2 8397   1.562   4.050   2.070
 2689SOL     OW 8398   1.303   4.562   1.904
 2689SOL    HW1 8399   1.337   4.469   1.919
 2689SOL    HW2 8400   1.321   4.589   1.809
 2690SOL     OW 8401   0.319   4.534   2.811
 2690SOL    HW1 8402   0.412   4.570   2.816
 2690SOL    HW2 8403   0.313   4.449   2.863
 2691SOL     OW 8404   0.339   4.233   2.868
 2691SOL    HW1 8405   0.287   4.150   2.851
 2691SOL    HW2 8406   0.416   4.238   2.804
 2692SOL     OW 8407   1.138   4.104   3.540
 2692SOL    HW1 8408   1.093   4.167   3.604
 2692SOL    HW2 8409   1.231   4.135   3.523
 2693SOL     OW 8410   1.160   3.931   3.339
 2693SOL    HW1 8411   1.160   3.995   3.416
 2693SOL    HW2 8412   1.188   3.979   3.256
 2694SOL     OW 8413   0.008   5.050   2.062
 2694SOL    HW1 8414  -0.085   5.071   2.031
 2694SOL    HW2 8415   0.018   4.951   2.075
 2695SOL     OW 8416   1.002   4.520   3.100
 2695SOL    HW1 8417   1.043   4.488   3.186
 2695SOL    HW2 8418   0.906   4.493   3.097
 2696SOL     OW 8419   0.040   4.268   2.976
 2696SOL    HW1 8420   0.125   4.235   2.935
 2696SOL    HW2 8421   0.053   4.283   3.074
 2697SOL     OW 8422   0.189   4.244   3.584
 2697SOL    HW1 8423   0.248   4.204   3.514
 2697SOL    HW2 8424   0.131   4.315   3.543
 2698SOL     OW 8425   1.369   4.674   3.522
 2698SOL    HW1 8426   1.408   4.763   3.542
 2698SOL    HW2 8427   1.379   4.654   3.425
 2699SOL     OW 8428   0.815   4.296   2.187
 2699SOL    HW1 8429   0.822   4.207   2.141
 2699SOL    HW2 8430   0.721   4.330   2.179
 2700SOL     OW 8431   1.657   4.328   3.068
 2700SOL    HW1 8432   1.619   4.259   3.130
 2700SOL    HW2 8433   1.739   4.292   3.024
 2701SOL     OW 8434   0.671   4.188   3.131
 2701SOL    HW1 8435   0.637   4.099   3.101
 2701SOL    HW2 8436   0.697   4.242   3.051
 2702SOL     OW 8437   0.473   4.224   2.053
 2702SOL    HW1 8438   0.534   4.304   2.057
 2702SOL    HW2 8439   0.378   4.255   2.060
 2703SOL     OW 8440   0.159   4.861   3.328
 2703SOL    HW1 8441   0.181   4.800   3.404
 2703SOL    HW2 8442   0.169   4.812   3.242
 2704SOL     OW 8443   1.347   4.783   3.096
 2704SOL    HW1 8444   1.371   4.720   3.022
 2704SOL    HW2 8445   1.257   4.823   3.078
 2705SOL     OW 8446   1.302   4.579   2.171
 2705SOL    HW1 8447   1.216   4.548   2.213
 2705SOL    HW2 8448   1.298   4.565   2.072
 2706SOL     OW 8449   0.083   4.982   2.884
 2706SOL    HW1 8450   0.078   4.981   2.984
 2706SOL    HW2 8451   0.000   4.941   2.846
 2707SOL     OW 8452   1.726   3.859   2.385
 2707SOL    HW1 8453   1.799   3.842   2.318
 2707SOL    HW2 8454   1.695   3.772   2.423
 2708SOL     OW 8455   1.280   4.651   2.534
 2708SOL    HW1 8456   1.340   4.570   2.536
 2708SOL    HW2 8457   1.320   4.720   2.474
 2709SOL     OW 8458   1.841   3.899   2.825
 2709SOL    HW1 8459   1.880   3.814   2.789
 2709SOL    HW2 8460   1.743   3.901   2.806
 2710SOL     OW 8461   0.263   4.050   2.582
 2710SOL    HW1 8462   0.184   4.101   2.548
 2710SOL    HW2 8463   0.254   4.035   2.680
 2711SOL     OW 8464   0.822   4.726   3.234
 2711SOL    HW1 8465   0.862   4.725   3.142
 2711SOL    HW2 8466   0.832   4.818   3.274
 2712SOL     OW 8467   0.916   4.634   2.153
 2712SOL    HW1 8468   0.979   4.672   2.085
 2712SOL    HW2 8469   0.956   4.551   2.192
 2713SOL     OW 8470   0.372   5.012   3.352
 2713SOL    HW1 8471   0.359   5.105   3.318
 2713SOL    HW2 8472   0.288   4.960   3.339
 2714SOL     OW 8473   1.614   5.016   3.151
 2714SOL    HW1 8474   1.674   5.019   3.231
 2714SOL    HW2 8475   1.539   5.080   3.164
 2715SOL     OW 8476   1.039   4.822   2.558
 2715SOL    HW1 8477   0.969   4.775   2.612
 2715SOL    HW2 8478   1.098   4.754   2.515
 2716SOL     OW 8479   1.014   3.960   2.833
 2716SOL    HW1 8480   1.006   3.924   2.740
 2716SOL    HW2 8481   1.012   3.884   2.898
 2717SOL     OW 8482   1.709   4.109   3.243
 2717SOL    HW1 8483   1.782   4.178   3.247
 2717SOL    HW2 8484   1.737   4.034   3.184
 2718SOL     OW 8485   0.105   4.737   3.588
 2718SOL    HW1 8486   0.028   4.704   3.642
 2718SOL    HW2 8487   0.190   4.707   3.630
 2719SOL     OW 8488   0.672   3.927   3.351
 2719SOL    HW1 8489   0.762   3.911   3.311
 2719SOL    HW2 8490   0.680   3.932   3.450
 2720SOL     OW 8491   0.075   4.069   1.895
 2720SOL    HW1 8492  -0.017   4.041   1.866
 2720SOL    HW2 8493   0.106   4.146   1.839
 2721SOL     OW 8494   1.440   4.580   3.260
 2721SOL    HW1 8495   1.383   4.632   3.197
 2721SOL    HW2 8496   1.536   4.592   3.236
 2722SOL     OW 8497   0.072   3.890   2.180
 2722SOL    HW1 8498   0.055   3.973   2.126
 2722SOL    HW2 8499   0.162   3.853   2.158
 2723SOL     OW 8500   0.613   4.566   3.293
 2723SOL    HW1 8501   0.669   4.647   3.276
 2723SOL    HW2 8502   0.672   4.486   3.296
 2724SOL     OW 8503   0.716   4.289   3.570
 2724SOL    HW1 8504   0.735   4.354   3.644
 2724SOL    HW2 8505   0.776   4.209   3.579
 2725SOL     OW 8506   1.450   4.944   3.495
 2725SOL    HW1 8507   1.441   4.934   3.594
 2725SOL    HW2 8508   1.546   4.937   3.469
 2726SOL     OW 8509   1.674   4.607   3.116
 2726SOL    HW1 8510   1.647   4.518   3.079
 2726SOL    HW2 8511   1.675   4.675   3.043
 2727SOL     OW 8512   1.225   4.049   2.311
 2727SOL    HW1 8513   1.290   3.975   2.300
 2727SOL    HW2 8514   1.245   4.099   2.395
 2728SOL     OW 8515   0.594   4.469   2.514
 2728SOL    HW1 8516   0.644   4.554   2.495
 2728SOL    HW2 8517   0.506   4.471   2.466
 2729SOL     OW 8518   1.777   4.066   3.504
 2729SOL    HW1 8519   1.760   4.097   3.410
 2729SOL    HW2 8520   1.693   4.029   3.542
 2730SOL     OW 8521   1.730   4.658   3.379
 2730SOL    HW1 8522   1.768   4.749   3.394
 2730SOL    HW2 8523   1.722   4.641   3.280
 2731SOL     OW 8524   0.859   4.680   2.723
 2731SOL    HW1 8525   0.913   4.611   2.771
 2731SOL    HW2 8526   0.827   4.749   2.789
 2732SOL     OW 8527   1.083   4.708   1.949
 2732SOL    HW1 8528   1.060   4.761   1.867
 2732SOL    HW2 8529   1.164   4.652   1.930
 2733SOL     OW 8530   0.079   4.964   2.515
 2733SOL    HW1 8531   0.078   4.917   2.603
 2733SOL    HW2 8532   0.161   4.936   2.464
 2734SOL     OW 8533   1.824   3.916   3.089
 2734SOL    HW1 8534   1.820   3.826   3.133
 2734SOL    HW2 8535   1.827   3.905   2.990
 2735SOL     OW 8536   0.428   4.148   2.382
 2735SOL    HW1 8537   0.458   4.076   2.320
 2735SOL    HW2 8538   0.389   4.108   2.465
 2736SOL     OW 8539   0.317   4.271   3.142
 2736SOL    HW1 8540   0.355   4.212   3.214
 2736SOL    HW2 8541   0.357   4.245   3.054
 2737SOL     OW 8542   1.424   3.938   2.974
 2737SOL    HW1 8543   1.476   3.873   3.029
 2737SOL    HW2 8544   1.375   4.001   3.035
 2738SOL     OW 8545   1.001   3.758   3.016
 2738SOL    HW1 8546   0.938   3.686   2.985
 2738SOL    HW2 8547   1.094   3.722   3.016
 2739SOL     OW 8548   0.770   5.054   2.163
 2739SOL    HW1 8549   0.724   4.967   2.180
 2739SOL    HW2 8550   0.861   5.051   2.204
 2740SOL     OW 8551   1.352   3.776   2.030
 2740SOL    HW1 8552   1.387   3.735   1.946
 2740SOL    HW2 8553   1.262   3.738   2.050
 2741SOL     OW 8554   1.300   4.177   2.553
 2741SOL    HW1 8555   1.241   4.257   2.557
 2741SOL    HW2 8556   1.315   4.142   2.646
 2742SOL     OW 8557   1.593   3.945   2.744
 2742SOL    HW1 8558   1.509   3.944   2.798
 2742SOL    HW2 8559   1.595   4.028   2.688
 2743SOL     OW 8560   0.039   4.801   2.162
 2743SOL    HW1 8561   0.138   4.790   2.153
 2743SOL    HW2 8562  -0.001   4.715   2.194
 2744SOL     OW 8563   0.230   4.352   3.837
 2744SOL    HW1 8564   0.137   4.350   3.874
 2744SOL    HW2 8565   0.231   4.313   3.745
 2745SOL     OW 8566   0.225   3.999   4.720
 2745SOL    HW1 8567   0.260   3.982   4.812
 2745SOL    HW2 8568   0.137   3.954   4.708
 2746SOL     OW 8569   0.019   4.092   4.371
 2746SOL    HW1 8570  -0.063   4.135   4.410
 2746SOL    HW2 8571  -0.009   4.019   4.308
 2747SOL     OW 8572   1.135   4.427   4.441
 2747SOL    HW1 8573   1.192   4.505   4.416
 2747SOL    HW2 8574   1.075   4.453   4.517
 2748SOL     OW 8575   1.755   4.331   3.955
 2748SOL    HW1 8576   1.743   4.318   3.856
 2748SOL    HW2 8577   1.725   4.250   4.004
 2749SOL     OW 8578   0.768   4.868   4.747
 2749SOL    HW1 8579   0.690   4.885   4.807
 2749SOL    HW2 8580   0.802   4.955   4.711
 2750SOL     OW 8581   0.850   4.522   5.547
 2750SOL    HW1 8582   0.846   4.598   5.612
 2750SOL    HW2 8583   0.872   4.558   5.456
 2751SOL     OW 8584   0.685   4.736   4.389
 2751SOL    HW1 8585   0.754   4.720   4.459
 2751SOL    HW2 8586   0.612   4.793   4.427
 2752SOL     OW 8587   0.686   4.885   5.527
 2752SOL    HW1 8588   0.746   4.964   5.541
 2752SOL    HW2 8589   0.600   4.916   5.486
 2753SOL     OW 8590   0.438   4.116   5.223
 2753SOL    HW1 8591   0.520   4.060   5.232
 2753SOL    HW2 8592   0.357   4.058   5.227
 2754SOL     OW 8593   1.603   4.171   4.461
 2754SOL    HW1 8594   1.529   4.217   4.411
 2754SOL    HW2 8595   1.654   4.239   4.514
 2755SOL     OW 8596   0.240   4.815   4.610
 2755SOL    HW1 8597   0.254   4.731   4.662
 2755SOL    HW2 8598   0.185   4.879   4.665
 2756SOL     OW 8599   0.606   4.688   3.847
 2756SOL    HW1 8600   0.613   4.772   3.793
 2756SOL    HW2 8601   0.652   4.701   3.935
 2757SOL     OW 8602   1.594   3.838   5.204
 2757SOL    HW1 8603   1.576   3.905   5.132
 2757SOL    HW2 8604   1.591   3.884   5.293
 2758SOL     OW 8605   0.122   4.367   4.287
 2758SOL    HW1 8606   0.077   4.279   4.304
 2758SOL    HW2 8607   0.121   4.421   4.371
 2759SOL     OW 8608   1.689   4.646   4.336
 2759SOL    HW1 8609   1.784   4.617   4.344
 2759SOL    HW2 8610   1.681   4.711   4.261
 2760SOL     OW 8611   1.641   4.832   4.156
 2760SOL    HW1 8612   1.727   4.834   4.104
 2760SOL    HW2 8613   1.655   4.879   4.244
 2761SOL     OW 8614   0.113   4.461   5.321
 2761SOL    HW1 8615   0.201   4.448   5.366
 2761SOL    HW2 8616   0.100   4.558   5.299
 2762SOL     OW 8617   1.293   4.952   5.147
 2762SOL    HW1 8618   1.330   4.879   5.089
 2762SOL    HW2 8619   1.345   4.957   5.232
 2763SOL     OW 8620   0.809   3.728   4.226
 2763SOL    HW1 8621   0.849   3.819   4.217
 2763SOL    HW2 8622   0.709   3.736   4.232
 2764SOL     OW 8623   0.197   4.700   4.988
 2764SOL    HW1 8624   0.286   4.655   4.974
 2764SOL    HW2 8625   0.124   4.635   4.969
 2765SOL     OW 8626   1.525   4.723   3.914
 2765SOL    HW1 8627   1.462   4.647   3.927
 2765SOL    HW2 8628   1.573   4.741   4.000
 2766SOL     OW 8629   0.317   3.975   5.525
 2766SOL    HW1 8630   0.388   4.046   5.531
 2766SOL    HW2 8631   0.229   4.014   5.553
 2767SOL     OW 8632   0.598   4.453   3.994
 2767SOL    HW1 8633   0.622   4.522   3.926
 2767SOL    HW2 8634   0.520   4.486   4.048
 2768SOL     OW 8635   1.281   4.069   4.668
 2768SOL    HW1 8636   1.195   4.019   4.655
 2768SOL    HW2 8637   1.343   4.015   4.724
 2769SOL     OW 8638   0.807   4.329   5.189
 2769SOL    HW1 8639   0.760   4.326   5.278
 2769SOL    HW2 8640   0.756   4.274   5.123
 2770SOL     OW 8641   1.394   4.193   5.398
 2770SOL    HW1 8642   1.374   4.236   5.486
 2770SOL    HW2 8643   1.472   4.131   5.407
 2771SOL     OW 8644   0.973   4.614   5.296
 2771SOL    HW1 8645   1.019   4.530   5.267
 2771SOL    HW2 8646   0.917   4.648   5.221
 2772SOL     OW 8647   0.991   4.134   4.966
 2772SOL    HW1 8648   0.914   4.168   5.020
 2772SOL    HW2 8649   0.957   4.083   4.887
 2773SOL     OW 8650   1.041   4.425   4.153
 2773SOL    HW1 8651   1.067   4.421   4.249
 2773SOL    HW2 8652   0.956   4.374   4.139
 2774SOL     OW 8653   0.076   4.535   4.513
 2774SOL    HW1 8654   0.175   4.523   4.522
 2774SOL    HW2 8655   0.052   4.630   4.534
 2775SOL     OW 8656   0.865   4.072   3.919
 2775SOL    HW1 8657   0.924   4.135   3.870
 2775SOL    HW2 8658   0.884   3.978   3.890
 2776SOL     OW 8659   1.719   4.309   5.555
 2776SOL    HW1 8660   1.693   4.398   5.519
 2776SOL    HW2 8661   1.717   4.241   5.482
 2777SOL     OW 8662   1.362   4.868   4.269
 2777SOL    HW1 8663   1.445   4.839   4.221
 2777SOL    HW2 8664   1.313   4.935   4.213
 2778SOL     OW 8665   0.550   3.920   4.609
 2778SOL    HW1 8666   0.545   3.915   4.709
 2778SOL    HW2 8667   0.552   4.016   4.580
 2779SOL     OW 8668   1.795   4.790   4.597
 2779SOL    HW1 8669   1.733   4.775   4.521
 2779SOL    HW2 8670   1.743   4.801   4.682
 2780SOL     OW 8671   0.321   4.667   3.966
 2780SOL    HW1 8672   0.403   4.706   3.924
 2780SOL    HW2 8673   0.294   4.585   3.917
 2781SOL     OW 8674   1.458   4.459   4.452
 2781SOL    HW1 8675   1.453   4.394   4.527
 2781SOL    HW2 8676   1.538   4.518   4.465
 2782SOL     OW 8677   0.202   4.009   5.222
 2782SOL    HW1 8678   0.122   4.069   5.209
 2782SOL    HW2 8679   0.192   3.960   5.308
 2783SOL     OW 8680   1.400   3.831   4.150
 2783SOL    HW1 8681   1.376   3.794   4.060
 2783SOL    HW2 8682   1.499   3.847   4.154
 2784SOL     OW 8683   0.382   4.424   4.204
 2784SOL    HW1 8684   0.427   4.334   4.201
 2784SOL    HW2 8685   0.288   4.413   4.237
 2785SOL     OW 8686   1.547   3.946   5.453
 2785SOL    HW1 8687   1.542   3.983   5.545
 2785SOL    HW2 8688   1.475   3.877   5.441
 2786SOL     OW 8689   0.614   3.846   3.841
 2786SOL    HW1 8690   0.712   3.824   3.848
 2786SOL    HW2 8691   0.583   3.829   3.748
 2787SOL     OW 8692   0.781   3.988   5.473
 2787SOL    HW1 8693   0.848   3.927   5.516
 2787SOL    HW2 8694   0.708   4.007   5.538
 2788SOL     OW 8695   1.351   4.314   5.157
 2788SOL    HW1 8696   1.379   4.271   5.242
 2788SOL    HW2 8697   1.376   4.410   5.158
 2789SOL     OW 8698   0.922   4.227   4.623
 2789SOL    HW1 8699   0.897   4.218   4.527
 2789SOL    HW2 8700   0.970   4.145   4.654
 2790SOL     OW 8701   0.539   3.788   4.236
 2790SOL    HW1 8702   0.458   3.789   4.294
 2790SOL    HW2 8703   0.542   3.871   4.181
 2791SOL     OW 8704   0.297   3.759   3.895
 2791SOL    HW1 8705   0.346   3.843   3.874
 2791SOL    HW2 8706   0.359   3.694   3.940
 2792SOL     OW 8707   0.935   3.960   4.204
 2792SOL    HW1 8708   0.887   4.001   4.126
 2792SOL    HW2 8709   1.034   3.958   4.185
 2793SOL     OW 8710   1.076   4.407   5.188
 2793SOL    HW1 8711   0.996   4.346   5.191
 2793SOL    HW2 8712   1.157   4.354   5.164
 2794SOL     OW 8713   0.459   4.876   4.465
 2794SOL    HW1 8714   0.388   4.849   4.530
 2794SOL    HW2 8715   0.433   4.848   4.372
 2795SOL     OW 8716   1.032   4.273   3.740
 2795SOL    HW1 8717   0.991   4.355   3.701
 2795SOL    HW2 8718   1.096   4.299   3.813
 2796SOL     OW 8719   0.078   4.280   5.110
 2796SOL    HW1 8720   0.170   4.279   5.069
 2796SOL    HW2 8721   0.072   4.354   5.177
 2797SOL     OW 8722   0.561   3.946   4.871
 2797SOL    HW1 8723   0.599   3.862   4.908
 2797SOL    HW2 8724   0.473   3.965   4.915
 2798SOL     OW 8725   0.866   4.178   4.366
 2798SOL    HW1 8726   0.834   4.250   4.304
 2798SOL    HW2 8727   0.890   4.097   4.313
 2799SOL     OW 8728   1.017   3.763   4.477
 2799SOL    HW1 8729   0.945   3.768   4.408
 2799SOL    HW2 8730   0.993   3.694   4.546
 2800SOL     OW 8731   1.429   4.897   4.591
 2800SOL    HW1 8732   1.374   4.813   4.584
 2800SOL    HW2 8733   1.455   4.926   4.499
 2801SOL     OW 8734   1.466   4.314   4.716
 2801SOL    HW1 8735   1.436   4.219   4.723
 2801SOL    HW2 8736   1.539   4.330   4.782
 2802SOL     OW 8737   1.857   4.557   4.101
 2802SOL    HW1 8738   1.899   4.493   4.165
 2802SOL    HW2 8739   1.819   4.506   4.023
 2803SOL     OW 8740   1.390   4.299   3.802
 2803SOL    HW1 8741   1.336   4.278   3.883
 2803SOL    HW2 8742   1.481   4.258   3.811
 2804SOL     OW 8743   0.527   3.980   4.052
 2804SOL    HW1 8744   0.554   3.921   3.977
 2804SOL    HW2 8745   0.527   4.075   4.021
 2805SOL     OW 8746   1.754   4.947   5.312
 2805SOL    HW1 8747   1.845   4.908   5.299
 2805SOL    HW2 8748   1.762   5.043   5.336
 2806SOL     OW 8749   1.638   4.823   4.803
 2806SOL    HW1 8750   1.643   4.904   4.862
 2806SOL    HW2 8751   1.552   4.825   4.752
 2807SOL     OW 8752   0.915   3.813   5.126
 2807SOL    HW1 8753   0.940   3.793   5.031
 2807SOL    HW2 8754   0.987   3.869   5.168
 2808SOL     OW 8755   0.980   4.840   5.443
 2808SOL    HW1 8756   0.881   4.846   5.453
 2808SOL    HW2 8757   1.003   4.760   5.387
 2809SOL     OW 8758   0.705   4.774   4.092
 2809SOL    HW1 8759   0.691   4.781   4.191
 2809SOL    HW2 8760   0.789   4.723   4.074
 2810SOL     OW 8761   0.410   4.537   4.975
 2810SOL    HW1 8762   0.496   4.549   5.025
 2810SOL    HW2 8763   0.368   4.450   5.002
 2811SOL     OW 8764   1.274   4.110   4.986
 2811SOL    HW1 8765   1.295   4.184   5.050
 2811SOL    HW2 8766   1.185   4.127   4.943
 2812SOL     OW 8767   0.367   4.824   4.225
 2812SOL    HW1 8768   0.360   4.907   4.169
 2812SOL    HW2 8769   0.371   4.744   4.165
 2813SOL     OW 8770   0.566   4.261   4.589
 2813SOL    HW1 8771   0.578   4.327   4.515
 2813SOL    HW2 8772   0.612   4.295   4.672
 2814SOL     OW 8773   1.582   4.363   4.196
 2814SOL    HW1 8774   1.551   4.424   4.269
 2814SOL    HW2 8775   1.632   4.415   4.127
 2815SOL     OW 8776   0.402   4.475   5.322
 2815SOL    HW1 8777   0.470   4.530   5.275
 2815SOL    HW2 8778   0.442   4.387   5.349
 2816SOL     OW 8779   1.587   4.503   5.394
 2816SOL    HW1 8780   1.495   4.541   5.389
 2816SOL    HW2 8781   1.647   4.550   5.329
 2817SOL     OW 8782   1.013   3.829   5.494
 2817SOL    HW1 8783   1.019   3.914   5.442
 2817SOL    HW2 8784   1.045   3.753   5.437
 2818SOL     OW 8785   0.504   3.774   5.464
 2818SOL    HW1 8786   0.462   3.717   5.394
 2818SOL    HW2 8787   0.438   3.843   5.496
 2819SOL     OW 8788   0.573   4.594   4.753
 2819SOL    HW1 8789   0.617   4.683   4.744
 2819SOL    HW2 8790   0.510   4.594   4.830
 2820SOL     OW 8791   1.360   4.586   4.769
 2820SOL    HW1 8792   1.285   4.586   4.703
 2820SOL    HW2 8793   1.397   4.494   4.778
 2821SOL     OW 8794   1.209   4.249   3.999
 2821SOL    HW1 8795   1.222   4.165   4.053
 2821SOL    HW2 8796   1.180   4.323   4.059
 2822SOL     OW 8797   0.307   3.937   4.955
 2822SOL    HW1 8798   0.284   3.974   5.045
 2822SOL    HW2 8799   0.277   3.842   4.949
 2823SOL     OW 8800   0.037   5.034   5.006
 2823SOL    HW1 8801   0.090   4.985   5.074
 2823SOL    HW2 8802   0.059   5.132   5.011
 2824SOL     OW 8803   0.732   4.358   4.788
 2824SOL    HW1 8804   0.791   4.332   4.712
 2824SOL    HW2 8805   0.704   4.454   4.777
 2825SOL     OW 8806   1.728   4.659   5.578
 2825SOL    HW1 8807   1.682   4.652   5.489
 2825SOL    HW2 8808   1.666   4.703   5.644
 2826SOL     OW 8809   0.307   3.787   4.342
 2826SOL    HW1 8810   0.296   3.881   4.375
 2826SOL    HW2 8811   0.302   3.724   4.419
 2827SOL     OW 8812   1.622   4.091   4.098
 2827SOL    HW1 8813   1.624   4.015   4.162
 2827SOL    HW2 8814   1.574   4.168   4.138
 2828SOL     OW 8815   1.023   4.490   4.690
 2828SOL    HW1 8816   1.038   4.511   4.786
 2828SOL    HW2 8817   0.993   4.395   4.681
 2829SOL     OW 8818   0.350   4.622   5.528
 2829SOL    HW1 8819   0.426   4.666   5.576
 2829SOL    HW2 8820   0.385   4.575   5.446
 2830SOL     OW 8821   1.540   3.998   3.849
 2830SOL    HW1 8822   1.479   3.923   3.872
 2830SOL    HW2 8823   1.562   4.050   3.932
 2831SOL     OW 8824   1.303   4.562   3.766
 2831SOL    HW1 8825   1.337   4.469   3.781
 2831SOL    HW2 8826   1.321   4.589   3.671
 2832SOL     OW 8827   0.319   4.534   4.673
 2832SOL    HW1 8828   0.412   4.570   4.678
 2832SOL    HW2 8829   0.313   4.449   4.725
 2833SOL     OW 8830   0.339   4.233   4.730
 2833SOL    HW1 8831   0.287   4.150   4.713
 2833SOL    HW2 8832   0.416   4.238   4.666
 2834SOL     OW 8833   1.138   4.104   5.402
 2834SOL    HW1 8834   1.093   4.167   5.466
 2834SOL    HW2 8835   1.231   4.135   5.385
 2835SOL     OW 8836   1.160   3.931   5.201
 2835SOL    HW1 8837   1.160   3.995   5.278
 2835SOL    HW2 8838   1.188   3.979   5.118
 2836SOL     OW 8839   0.008   5.050   3.924
 2836SOL    HW1 8840  -0.085   5.071   3.893
 2836SOL    HW2 8841   0.018   4.951   3.937
 2837SOL     OW 8842   1.002   4.520   4.962
 2837SOL    HW1 8843   1.043   4.488   5.048
 2837SOL    HW2 8844   0.906   4.493   4.959
 2838SOL     OW 8845   0.040   4.268   4.838
 2838SOL    HW1 8846   0.125   4.235   4.797
 2838SOL    HW2 8847   0.053   4.283   4.936
 2839SOL     OW 8848   0.189   4.244   5.446
 2839SOL    HW1 8849   0.248   4.204   5.376
 2839SOL    HW2 8850   0.131   4.315   5.405
 2840SOL     OW 8851   1.369   4.674   5.384
 2840SOL    HW1 8852   1.408   4.763   5.404
 2840SOL    HW2 8853   1.379   4.654   5.287
 2841SOL     OW 8854   0.815   4.296   4.049
 2841SOL    HW1 8855   0.822   4.207   4.003
 2841SOL    HW2 8856   0.721   4.330   4.041
 2842SOL     OW 8857   1.657   4.328   4.930
 2842SOL    HW1 8858   1.619   4.259   4.992
 2842SOL    HW2 8859   1.739   4.292   4.886
 2843SOL     OW 8860   0.671   4.188   4.993
 2843SOL    HW1 8861   0.637   4.099   4.963
 2843SOL    HW2 8862   0.697   4.242   4.913
 2844SOL     OW 8863   0.473   4.224   3.915
 2844SOL    HW1 8864   0.534   4.304   3.919
 2844SOL    HW2 8865   0.378   4.255   3.922
 2845SOL     OW 8866   0.159   4.861   5.190
 2845SOL    HW1 8867   0.181   4.800   5.266
 2845SOL    HW2 8868   0.169   4.812   5.104
 2846SOL     OW 8869   1.347   4.783   4.958
 2846SOL    HW1 8870   1.371   4.720   4.884
 2846SOL    HW2 8871   1.257   4.823   4.940
 2847SOL     OW 8872   1.302   4.579   4.033
 2847SOL    HW1 8873   1.216   4.548   4.075
 2847SOL    HW2 8874   1.298   4.565   3.934
 2848SOL     OW 8875   0.083   4.982   4.746
 2848SOL    HW1 8876   0.078   4.981   4.846
 2848SOL    HW2 8877   0.000   4.941   4.708
 2849SOL     OW 8878   1.726   3.859   4.247
 2849SOL    HW1 8879   1.799   3.842   4.180
 2849SOL    HW2 8880   1.695   3.772   4.285
 2850SOL     OW 8881   1.280   4.651   4.396
 2850SOL    HW1 8882   1.340   4.570   4.398
 2850SOL    HW2 8883   1.320   4.720   4.336
 2851SOL     OW 8884   1.841   3.899   4.687
 2851SOL    HW1 8885   1.880   3.814   4.651
 2851SOL    HW2 8886   1.743   3.901   4.668
 2852SOL     OW 8887   0.263   4.050   4.444
 2852SOL    HW1 8888   0.184   4.101   4.410
 2852SOL    HW2 8889   0.254   4.035   4.542
 2853SOL     OW 8890   0.822   4.726   5.096
 2853SOL    HW1 8891   0.862   4.725   5.004
 2853SOL    HW2 8892   0.832   4.818   5.136
 2854SOL     OW 8893   0.916   4.634   4.015
 2854SOL    HW1 8894   0.979   4.672   3.947
 2854SOL    HW2 8895   0.956   4.551   4.054
 2855SOL     OW 8896   0.372   5.012   5.214
 2855SOL    HW1 8897   0.359   5.105   5.180
 2855SOL    HW2 8898   0.288   4.960   5.201
 2856SOL     OW 8899   1.614   5.016   5.013
 2856SOL    HW1 8900   1.674   5.019   5.093
 2856SOL    HW2 8901   1.539   5.080   5.026
 2857SOL     OW 8902   1.039   4.822   4.420
 2857SOL    HW1 8903   0.969   4.775   4.474
 2857SOL    HW2 8904   1.098   4.754   4.377
 2858SOL     OW 8905   1.014   3.960   4.695
 2858SOL    HW1 8906   1.006   3.924   4.602
 2858SOL    HW2 8907   1.012   3.884   4.760
 2859SOL     OW 8908   1.709   4.109   5.105
 2859SOL    HW1 8909   1.782   4.178   5.109
 2859SOL    HW2 8910   1.737   4.034   5.046
 2860SOL     OW 8911   0.105   4.737   5.450
 2860SOL    HW1 8912   0.028   4.704   5.504
 2860SOL    HW2 8913   0.190   4.707   5.492
 2861SOL     OW 8914   0.672   3.927   5.213
 2861SOL    HW1 8915   0.762   3.911   5.173
 2861SOL    HW2 8916   0.680   3.932   5.312
 2862SOL     OW 8917   0.075   4.069   3.757
 2862SOL    HW1 8918  -0.017   4.041   3.728
 2862SOL    HW2 8919   0.106   4.146   3.701
 2863SOL     OW 8920   1.440   4.580   5.122
 2863SOL    HW1 8921   1.383   4.632   5.059
 2863SOL    HW2 8922   1.536   4.592   5.098
 2864SOL     OW 8923   0.072   3.890   4.042
 2864SOL    HW1 8924   0.055   3.973   3.988
 2864SOL    HW2 8925   0.162   3.853   4.020
 2865SOL     OW 8926   0.613   4.566   5.155
 2865SOL    HW1 8927   0.669   4.647   5.138
 2865SOL    HW2 8928   0.672   4.486   5.158
 2866SOL     OW 8929   0.716   4.289   5.432
 2866SOL    HW1 8930   0.735   4.354   5.506
 2866SOL    HW2 8931   0.776   4.209   5.441
 2867SOL     OW 8932   1.450   4.944   5.357
 2867SOL    HW1 8933   1.441   4.934   5.456
 2867SOL    HW2 8934   1.546   4.937   5.331
 2868SOL     OW 8935   1.674   4.607   4.978
 2868SOL    HW1 8936   1.647   4.518   4.941
 2868SOL    HW2 8937   1.675   4.675   4.905
 2869SOL     OW 8938   1.225   4.049   4.173
 2869SOL    HW1 8939   1.290   3.975   4.162
 2869SOL    HW2 8940   1.245   4.099   4.257
 2870SOL     OW 8941   0.594   4.469   4.376
 2870SOL    HW1 8942   0.644   4.554   4.357
 2870SOL    HW2 8943   0.506   4.471   4.328
 2871SOL     OW 8944   1.777   4.066   5.366
 2871SOL    HW1 8945   1.760   4.097   5.272
 2871SOL    HW2 8946   1.693   4.029   5.404
 2872SOL     OW 8947   1.730   4.658   5.241
 2872SOL    HW1 8948   1.768   4.749   5.256
 2872SOL    HW2 8949   1.722   4.641   5.142
 2873SOL     OW 8950   0.859   4.680   4.585
 2873SOL    HW1 8951   0.913   4.611   4.633
 2873SOL    HW2 8952   0.827   4.749   4.651
 2874SOL     OW 8953   1.083   4.708   3.811
 2874SOL    HW1 8954   1.060   4.761   3.729
 2874SOL    HW2 8955   1.164   4.652   3.792
 2875SOL     OW 8956   0.079   4.964   4.377
 2875SOL    HW1 8957   0.078   4.917   4.465
 2875SOL    HW2 8958   0.161   4.936   4.326
 2876SOL     OW 8959   1.824   3.916   4.951
 2876SOL    HW1 8960   1.820   3.826   4.995
 2876SOL    HW2 8961   1.827   3.905   4.852
 2877SOL     OW 8962   0.428   4.148   4.244
 2877SOL    HW1 8963   0.458   4.076   4.182
 2877SOL    HW2 8964   0.389   4.108   4.327
 2878SOL     OW 8965   0.317   4.271   5.004
 2878SOL    HW1 8966   0.355   4.212   5.076
 2878SOL    HW2 8967   0.357   4.245   4.916
 2879SOL     OW 8968   1.424   3.938   4.836
 2879SOL    HW1 8969   1.476   3.873   4.891
 2879SOL    HW2 8970   1.375   4.001   4.897
 2880SOL     OW 8971   1.001   3.758   4.878
 2880SOL    HW1 8972   0.938   3.686   4.847
 2880SOL    HW2 8973   1.094   3.722   4.878
 2881SOL     OW 8974   0.770   5.054   4.025
 2881SOL    HW1 8975   0.724   4.967   4.042
 2881SOL    HW2 8976   0.861   5.051   4.066
 2882SOL     OW 8977   1.352   3.776   3.892
 2882SOL    HW1 8978   1.387   3.735   3.808
 2882SOL    HW2 8979   1.262   3.738   3.912
 2883SOL     OW 8980   1.300   4.177   4.415
 2883SOL    HW1 8981   1.241   4.257   4.419
 2883SOL    HW2 8982   1.315   4.142   4.508
 2884SOL     OW 8983   1.593   3.945   4.606
 2884SOL    HW1 8984   1.509   3.944   4.660
 2884SOL    HW2 8985   1.595   4.028   4.550
 2885SOL     OW 8986   0.039   4.801   4.024
 2885SOL    HW1 8987   0.138   4.790   4.015
 2885SOL    HW2 8988  -0.001   4.715   4.056
 2886SOL     OW 8989   0.230   4.352   5.699
 2886SOL    HW1 8990   0.137   4.350   5.736
 2886SOL    HW2 8991   0.231   4.313   5.607
 2887SOL     OW 8992   0.225   3.999   6.582
 2887SOL    HW1 8993   0.260   3.982   6.674
 2887SOL    HW2 8994   0.137   3.954   6.570
 2888SOL     OW 8995   0.019   4.092   6.233
 2888SOL    HW1 8996  -0.063   4.135   6.272
 2888SOL    HW2 8997  -0.009   4.019   6.170
 2889SOL     OW 8998   1.135   4.427   6.303
 2889SOL    HW1 8999   1.192   4.505   6.278
 2889SOL    HW2 9000   1.075   4.453   6.379
 2890SOL     OW 9001   1.755   4.331   5.817
 2890SOL    HW1 9002   1.743   4.318   5.718
 2890SOL    HW2 9003   1.725   4.250   5.866
 2891SOL     OW 9004   0.768   4.868   6.609
 2891SOL    HW1 9005   0.690   4.885   6.669
 2891SOL    HW2 9006   0.802   4.955   6.573
 2892SOL     OW 9007   0.850   4.522   7.409
 2892SOL    HW1 9008   0.846   4.598   7.474
 2892SOL    HW2 9009   0.872   4.558   7.318
 2893SOL     OW 9010   0.685   4.736   6.251
 2893SOL    HW1 9011   0.754   4.720   6.321
 2893SOL    HW2 9012   0.612   4.793   6.289
 2894SOL     OW 9013   0.686   4.885   7.389
 2894SOL    HW1 9014   0.746   4.964   7.403
 2894SOL    HW2 9015   0.600   4.916   7.348
 2895SOL     OW 9016   0.438   4.116   7.085
 2895SOL    HW1 9017   0.520   4.060   7.094
 2895SOL    HW2 9018   0.357   4.058   7.089
 2896SOL     OW 9019   1.603   4.171   6.323
 2896SOL    HW1 9020   1.529   4.217   6.273
 2896SOL    HW2 9021   1.654   4.239   6.376
 2897SOL     OW 9022   0.240   4.815   6.472
 2897SOL    HW1 9023   0.254   4.731   6.524
 2897SOL    HW2 9024   0.185   4.879   6.527
 2898SOL     OW 9025   0.606   4.688   5.709
 2898SOL    HW1 9026   0.613   4.772   5.655
 2898SOL    HW2 9027   0.652   4.701   5.797
 2899SOL     OW 9028   1.594   3.838   7.066
 2899SOL    HW1 9029   1.576   3.905   6.994
 2899SOL    HW2 9030   1.591   3.884   7.155
 2900SOL     OW 9031   0.122   4.367   6.149
 2900SOL    HW1 9032   0.077   4.279   6.166
 2900SOL    HW2 9033   0.121   4.421   6.233
 2901SOL     OW 9034   1.689   4.646   6.198
 2901SOL    HW1 9035   1.784   4.617   6.206
 2901SOL    HW2 9036   1.681   4.711   6.123
 2902SOL     OW 9037   1.641   4.832   6.018
 2902SOL    HW1 9038   1.727   4.834   5.966
 2902SOL    HW2 9039   1.655   4.879   6.106
 2903SOL     OW 9040   0.113   4.461   7.183
 2903SOL    HW1 9041   0.201   4.448   7.228
 2903SOL    HW2 9042   0.100   4.558   7.161
 2904SOL     OW 9043   1.293   4.952   7.009
 2904SOL    HW1 9044   1.330   4.879   6.951
 2904SOL    HW2 9045   1.345   4.957   7.094
 2905SOL     OW 9046   0.809   3.728   6.088
 2905SOL    HW1 9047   0.849   3.819   6.079
 2905SOL    HW2 9048   0.709   3.736   6.094
 2906SOL     OW 9049   0.197   4.700   6.850
 2906SOL    HW1 9050   0.286   4.655   6.836
 2906SOL    HW2 9051   0.124   4.635   6.831
 2907SOL     OW 9052   1.525   4.723   5.776
 2907SOL    HW1 9053   1.462   4.647   5.789
 2907SOL    HW2 9054   1.573   4.741   5.862
 2908SOL     OW 9055   0.317   3.975   7.387
 2908SOL    HW1 9056   0.388   4.046   7.393
 2908SOL    HW2 9057   0.229   4.014   7.415
 2909SOL     OW 9058   0.598   4.453   5.856
 2909SOL    HW1 9059   0.622   4.522   5.788
 2909SOL    HW2 9060   0.520   4.486   5.910
 2910SOL     OW 9061   1.281   4.069   6.530
 2910SOL    HW1 9062   1.195   4.019   6.517
 2910SOL    HW2 9063   1.343   4.015   6.586
 2911SOL     OW 9064   0.807   4.329   7.051
 2911SOL    HW1 9065   0.760   4.326   7.140
 2911SOL    HW2 9066   0.756   4.274   6.985
 2912SOL     OW 9067   1.394   4.193   7.260
 2912SOL    HW1 9068   1.374   4.236   7.348
 2912SOL    HW2 9069   1.472   4.131   7.269
 2913SOL     OW 9070   0.973   4.614   7.158
 2913SOL    HW1 9071   1.019   4.530   7.129
 2913SOL    HW2 9072   0.917   4.648   7.083
 2914SOL     OW 9073   0.991   4.134   6.828
 2914SOL    HW1 9074   0.914   4.168   6.882
 2914SOL    HW2 9075   0.957   4.083   6.749
 2915SOL     OW 9076   1.041   4.425   6.015
 2915SOL    HW1 9077   1.067   4.421   6.111
 2915SOL    HW2 9078   0.956   4.374   6.001
 2916SOL     OW 9079   0.076   4.535   6.375
 2916SOL    HW1 9080   0.175   4.523   6.384
 2916SOL    HW2 9081   0.052   4.630   6.396
 2917SOL     OW 9082   0.865   4.072   5.781
 2917SOL    HW1 9083   0.924   4.135   5.732
 2917SOL    HW2 9084   0.884   3.978   5.752
 2918SOL     OW 9085   1.719   4.309   7.417
 2918SOL    HW1 9086   1.693   4.398   7.381
 2918SOL    HW2 9087   1.717   4.241   7.344
 2919SOL     OW 9088   1.362   4.868   6.131
 2919SOL    HW1 9089   1.445   4.839   6.083
 2919SOL    HW2 9090   1.313   4.935   6.075
 2920SOL     OW 9091   0.550   3.920   6.471
 2920SOL    HW1 9092   0.545   3.915   6.571
 2920SOL    HW2 9093   0.552   4.016   6.442
 2921SOL     OW 9094   1.795   4.790   6.459
 2921SOL    HW1 9095   1.733   4.775   6.383
 2921SOL    HW2 9096   1.743   4.801   6.544
 2922SOL     OW 9097   0.321   4.667   5.828
 2922SOL    HW1 9098   0.403   4.706   5.786
 2922SOL    HW2 9099   0.294   4.585   5.779
 2923SOL     OW 9100   1.458   4.459   6.314
 2923SOL    HW1 9101   1.453   4.394   6.389
 2923SOL    HW2 9102   1.538   4.518   6.327
 2924SOL     OW 9103   0.202   4.009   7.084
 2924SOL    HW1 9104   0.122   4.069   7.071
 2924SOL    HW2 9105   0.192   3.960   7.170
 2925SOL     OW 9106   1.400   3.831   6.012
 2925SOL    HW1 9107   1.376   3.794   5.922
 2925SOL    HW2 9108   1.499   3.847   6.016
 2926SOL     OW 9109   0.382   4.424   6.066
 2926SOL    HW1 9110   0.427   4.334   6.063
 2926SOL    HW2 9111   0.288   4.413   6.099
 2927SOL     OW 9112   1.547   3.946   7.315
 2927SOL    HW1 9113   1.542   3.983   7.407
 2927SOL    HW2 9114   1.475   3.877   7.303
 2928SOL     OW 9115   0.614   3.846   5.703
 2928SOL    HW1 9116   0.712   3.824   5.710
 2928SOL    HW2 9117   0.583   3.829   5.610
 2929SOL     OW 9118   0.781   3.988   7.335
 2929SOL    HW1 9119   0.848   3.927   7.378
 2929SOL    HW2 9120   0.708   4.007   7.400
 2930SOL     OW 9121   1.351   4.314   7.019
 2930SOL    HW1 9122   1.379   4.271   7.104
 2930SOL    HW2 9123   1.376   4.410   7.020
 2931SOL     OW 9124   0.922   4.227   6.485
 2931SOL    HW1 9125   0.897   4.218   6.389
 2931SOL    HW2 9126   0.970   4.145   6.516
 2932SOL     OW 9127   0.539   3.788   6.098
 2932SOL    HW1 9128   0.458   3.789   6.156
 2932SOL    HW2 9129   0.542   3.871   6.043
 2933SOL     OW 9130   0.297   3.759   5.757
 2933SOL    HW1 9131   0.346   3.843   5.736
 2933SOL    HW2 9132   0.359   3.694   5.802
 2934SOL     OW 9133   0.935   3.960   6.066
 2934SOL    HW1 9134   0.887   4.001   5.988
 2934SOL    HW2 9135   1.034   3.958   6.047
 2935SOL     OW 9136   1.076   4.407   7.050
 2935SOL    HW1 9137   0.996   4.346   7.053
 2935SOL    HW2 9138   1.157   4.354   7.026
 2936SOL     OW 9139   0.459   4.876   6.327
 2936SOL    HW1 9140   0.388   4.849   6.392
 2936SOL    HW2 9141   0.433   4.848   6.234
 2937SOL     OW 9142   1.032   4.273   5.602
 2937SOL    HW1 9143   0.991   4.355   5.563
 2937SOL    HW2 9144   1.096   4.299   5.675
 2938SOL     OW 9145   0.078   4.280   6.972
 2938SOL    HW1 9146   0.170   4.279   6.931
 2938SOL    HW2 9147   0.072   4.354   7.039
 2939SOL     OW 9148   0.561   3.946   6.733
 2939SOL    HW1 9149   0.599   3.862   6.770
 2939SOL    HW2 9150   0.473   3.965   6.777
 2940SOL     OW 9151   0.866   4.178   6.228
 2940SOL    HW1 9152   0.834   4.250   6.166
 2940SOL    HW2 9153   0.890   4.097   6.175
 2941SOL     OW 9154   1.017   3.763   6.339
 2941SOL    HW1 9155   0.945   3.768   6.270
 2941SOL    HW2 9156   0.993   3.694   6.408
 2942SOL     OW 9157   1.429   4.897   6.453
 2942SOL    HW1 9158   1.374   4.813   6.446
 2942SOL    HW2 9159   1.455   4.926   6.361
 2943SOL     OW 9160   1.466   4.314   6.578
 2943SOL    HW1 9161   1.436   4.219   6.585
 2943SOL    HW2 9162   1.539   4.330   6.644
 2944SOL     OW 9163   1.857   4.557   5.963
 2944SOL    HW1 9164   1.899   4.493   6.027
 2944SOL    HW2 9165   1.819   4.506   5.885
 2945SOL     OW 9166   1.390   4.299   5.664
 2945SOL    HW1 9167   1.336   4.278   5.745
 2945SOL    HW2 9168   1.481   4.258   5.673
 2946SOL     OW 9169   0.527   3.980   5.914
 2946SOL    HW1 9170   0.554   3.921   5.839
 2946SOL    HW2 9171   0.527   4.075   5.883
 2947SOL     OW 9172   1.754   4.947   7.174
 2947SOL    HW1 9173   1.845   4.908   7.161
 2947SOL    HW2 9174   1.762   5.043   7.198
 2948SOL     OW 9175   1.638   4.823   6.665
 2948SOL    HW1 9176   1.643   4.904   6.724
 2948SOL    HW2 9177   1.552   4.825   6.614
 2949SOL     OW 9178   0.915   3.813   6.988
 2949SOL    HW1 9179   0.940   3.793   6.893
 2949SOL    HW2 9180   0.987   3.869   7.030
 2950SOL     OW 9181   0.980   4.840   7.305
 2950SOL    HW1 9182   0.881   4.846   7.315
 2950SOL    HW2 9183   1.003   4.760   7.249
 2951SOL     OW 9184   0.705   4.774   5.954
 2951SOL    HW1 9185   0.691   4.781   6.053
 2951SOL    HW2 9186   0.789   4.723   5.936
 2952SOL     OW 9187   0.410   4.537   6.837
 2952SOL    HW1 9188   0.496   4.549   6.887
 2952SOL    HW2 9189   0.368   4.450   6.864
 2953SOL     OW 9190   1.274   4.110   6.848
 2953SOL    HW1 9191   1.295   4.184   6.912
 2953SOL    HW2 9192   1.185   4.127   6.805
 2954SOL     OW 9193   0.367   4.824   6.087
 2954SOL    HW1 9194   0.360   4.907   6.031
 2954SOL    HW2 9195   0.371   4.744   6.027
 2955SOL     OW 9196   0.566   4.261   6.451
 2955SOL    HW1 9197   0.578   4.327   6.377
 2955SOL    HW2 9198   0.612   4.295   6.534
 2956SOL     OW 9199   1.582   4.363   6.058
 2956SOL    HW1 9200   1.551   4.424   6.131
 2956SOL    HW2 9201   1.632   4.415   5.989
 2957SOL     OW 9202   0.402   4.475   7.184
 2957SOL    HW1 9203   0.470   4.530   7.137
 2957SOL    HW2 9204   0.442   4.387   7.211
 2958SOL     OW 9205   1.587   4.503   7.256
 2958SOL    HW1 9206   1.495   4.541   7.251
 2958SOL    HW2 9207   1.647   4.550   7.191
 2959SOL     OW 9208   1.013   3.829   7.356
 2959SOL    HW1 9209   1.019   3.914   7.304
 2959SOL    HW2 9210   1.045   3.753   7.299
 2960SOL     OW 9211   0.504   3.774   7.326
 2960SOL    HW1 9212   0.462   3.717   7.256
 2960SOL    HW2 9213   0.438   3.843   7.358
 2961SOL     OW 9214   0.573   4.594   6.615
 2961SOL    HW1 9215   0.617   4.683   6.606
 2961SOL    HW2 9216   0.510   4.594   6.692
 2962SOL     OW 9217   1.360   4.586   6.631
 2962SOL    HW1 9218   1.285   4.586   6.565
 2962SOL    HW2 9219   1.397   4.494   6.640
 2963SOL     OW 9220   1.209   4.249   5.861
 2963SOL    HW1 9221   1.222   4.165   5.915
 2963SOL    HW2 9222   1.180   4.323   5.921
 2964SOL     OW 9223   0.307   3.937   6.817
 2964SOL    HW1 9224   0.284   3.974   6.907
 2964SOL    HW2 9225   0.277   3.842   6.811
 2965SOL     OW 9226   0.037   5.034   6.868
 2965SOL    HW1 9227   0.090   4.985   6.936
 2965SOL    HW2 9228   0.059   5.132   6.873
 2966SOL     OW 9229   0.732   4.358   6.650
 2966SOL    HW1 9230   0.791   4.332   6.574
 2966SOL    HW2 9231   0.704   4.454   6.639
 2967SOL     OW 9232   1.728   4.659   7.440
 2967SOL    HW1 9233   1.682   4.652   7.351
 2967SOL    HW2 9234   1.666   4.703   7.506
 2968SOL     OW 9235   0.307   3.787   6.204
 2968SOL    HW1 9236   0.296   3.881   6.237
 2968SOL    HW2 9237   0.302   3.724   6.281
 2969SOL     OW 9238   1.622   4.091   5.960
 2969SOL    HW1 9239   1.624   4.015   6.024
 2969SOL    HW2 9240   1.574   4.168   6.000
 2970SOL     OW 9241   1.023   4.490   6.552
 2970SOL    HW1 9242   1.038   4.511   6.648
 2970SOL    HW2 9243   0.993   4.395   6.543
 2971SOL     OW 9244   0.350   4.622   7.390
 2971SOL    HW1 9245   0.426   4.666   7.438
 2971SOL    HW2 9246   0.385   4.575   7.308
 2972SOL     OW 9247   1.540   3.998   5.711
 2972SOL    HW1 9248   1.479   3.923   5.734
 2972SOL    HW2 9249   1.562   4.050   5.794
 2973SOL     OW 9250   1.303   4.562   5.628
 2973SOL    HW1 9251   1.337   4.469   5.643
 2973SOL    HW2 9252   1.321   4.589   5.533
 2974SOL     OW 9253   0.319   4.534   6.535
 2974SOL    HW1 9254   0.412   4.570   6.540
 2974SOL    HW2 9255   0.313   4.449   6.587
 2975SOL     OW 9256   0.339   4.233   6.592
 2975SOL    HW1 9257   0.287   4.150   6.575
 2975SOL    HW2 9258   0.416   4.238   6.528
 2976SOL     OW 9259   1.138   4.104   7.264
 2976SOL    HW1 9260   1.093   4.167   7.328
 2976SOL    HW2 9261   1.231   4.135   7.247
 2977SOL     OW 9262   1.160   3.931   7.063
 2977SOL    HW1 9263   1.160   3.995   7.140
 2977SOL    HW2 9264   1.188   3.979   6.980
 2978SOL     OW 9265   0.008   5.050   5.786
 2978SOL    HW1 9266  -0.085   5.071   5.755
 2978SOL    HW2 9267   0.018   4.951   5.799
 2979SOL     OW 9268   1.002   4.520   6.824
 2979SOL    HW1 9269   1.043   4.488   6.910
 2979SOL    HW2 9270   0.906   4.493   6.821
 2980SOL     OW 9271   0.040   4.268   6.700
 2980SOL    HW1 9272   0.125   4.235   6.659
 2980SOL    HW2 9273   0.053   4.283   6.798
 2981SOL     OW 9274   0.189   4.244   7.308
 2981SOL    HW1 9275   0.248   4.204   7.238
 2981SOL    HW2 9276   0.131   4.315   7.267
 2982SOL     OW 9277   1.369   4.674   7.246
 2982SOL    HW1 9278   1.408   4.763   7.266
 2982SOL    HW2 9279   1.379   4.654   7.149
 2983SOL     OW 9280   0.815   4.296   5.911
 2983SOL    HW1 9281   0.822   4.207   5.865
 2983SOL    HW2 9282   0.721   4.330   5.903
 2984SOL     OW 9283   1.657   4.328   6.792
 2984SOL    HW1 9284   1.619   4.259   6.854
 2984SOL    HW2 9285   1.739   4.292   6.748
 2985SOL     OW 9286   0.671   4.188   6.855
 2985SOL    HW1 9287   0.637   4.099   6.825
 2985SOL    HW2 9288   0.697   4.242   6.775
 2986SOL     OW 9289   0.473   4.224   5.777
 2986SOL    HW1 9290   0.534   4.304   5.781
 2986SOL    HW2 9291   0.378   4.255   5.784
 2987SOL     OW 9292   0.159   4.861   7.052
 2987SOL    HW1 9293   0.181   4.800   7.128
 2987SOL    HW2 9294   0.169   4.812   6.966
 2988SOL     OW 9295   1.347   4.783   6.820
 2988SOL    HW1 9296   1.371   4.720   6.746
 2988SOL    HW2 9297   1.257   4.823   6.802
 2989SOL     OW 9298   1.302   4.579   5.895
 2989SOL    HW1 9299   1.216   4.548   5.937
 2989SOL    HW2 9300   1.298   4.565   5.796
 2990SOL     OW 9301   0.083   4.982   6.608
 2990SOL    HW1 9302   0.078   4.981   6.708
 2990SOL    HW2 9303   0.000   4.941   6.570
 2991SOL     OW 9304   1.726   3.859   6.109
 2991SOL    HW1 9305   1.799   3.842   6.042
 2991SOL    HW2 9306   1.695   3.772   6.147
 2992SOL     OW 9307   1.280   4.651   6.258
 2992SOL    HW1 9308   1.340   4.570   6.260
 2992SOL    HW2 9309   1.320   4.720   6.198
 2993SOL     OW 9310   1.841   3.899   6.549
 2993SOL    HW1 9311   1.880   3.814   6.513
 2993SOL    HW2 9312   1.743   3.901   6.530
 2994SOL     OW 9313   0.263   4.050   6.306
 2994SOL    HW1 9314   0.184   4.101   6.272
 2994SOL    HW2 9315   0.254   4.035   6.404
 2995SOL     OW 9316   0.822   4.726   6.958
 2995SOL    HW1 9317   0.862   4.725   6.866
 2995SOL    HW2 9318   0.832   4.818   6.998
 2996SOL     OW 9319   0.916   4.634   5.877
 2996SOL    HW1 9320   0.979   4.672   5.809
 2996SOL    HW2 9321   0.956   4.551   5.916
 2997SOL     OW 9322   0.372   5.012   7.076
 2997SOL    HW1 9323   0.359   5.105   7.042
 2997SOL    HW2 9324   0.288   4.960   7.063
 2998SOL     OW 9325   1.614   5.016   6.875
 2998SOL    HW1 9326   1.674   5.019   6.955
 2998SOL    HW2 9327   1.539   5.080   6.888
 2999SOL     OW 9328   1.039   4.822   6.282
 2999SOL    HW1 9329   0.969   4.775   6.336
 2999SOL    HW2 9330   1.098   4.754   6.239
 3000SOL     OW 9331   1.014   3.960   6.557
 3000SOL    HW1 9332   1.006   3.924   6.464
 3000SOL    HW2 9333   1.012   3.884   6.622
 3001SOL     OW 9334   1.709   4.109   6.967
 3001SOL    HW1 9335   1.782   4.178   6.971
 3001SOL    HW2 9336   1.737   4.034   6.908
 3002SOL     OW 9337   0.105   4.737   7.312
 3002SOL    HW1 9338   0.028   4.704   7.366
 3002SOL    HW2 9339   0.190   4.707   7.354
 3003SOL     OW 9340   0.672   3.927   7.075
 3003SOL    HW1 9341   0.762   3.911   7.035
 3003SOL    HW2 9342   0.680   3.932   7.174
 3004SOL     OW 9343   0.075   4.069   5.619
 3004SOL    HW1 9344  -0.017   4.041   5.590
 3004SOL    HW2 9345   0.106   4.146   5.563
 3005SOL     OW 9346   1.440   4.580   6.984
 3005SOL    HW1 9347   1.383   4.632   6.921
 3005SOL    HW2 9348   1.536   4.592   6.960
 3006SOL     OW 9349   0.072   3.890   5.904
 3006SOL    HW1 9350   0.055   3.973   5.850
 3006SOL    HW2 9351   0.162   3.853   5.882
 3007SOL     OW 9352   0.613   4.566   7.017
 3007SOL    HW1 9353   0.669   4.647   7.000
 3007SOL    HW2 9354   0.672   4.486   7.020
 3008SOL     OW 9355   0.716   4.289   7.294
 3008SOL    HW1 9356   0.735   4.354   7.368
 3008SOL    HW2 9357   0.776   4.209   7.303
 3009SOL     OW 9358   1.450   4.944   7.219
 3009SOL    HW1 9359   1.441   4.934   7.318
 3009SOL    HW2 9360   1.546   4.937   7.193
 3010SOL     OW 9361   1.674   4.607   6.840
 3010SOL    HW1 9362   1.647   4.518   6.803
 3010SOL    HW2 9363   1.675   4.675   6.767
 3011SOL     OW 9364   1.225   4.049   6.035
 3011SOL    HW1 9365   1.290   3.975   6.024
 3011SOL    HW2 9366   1.245   4.099   6.119
 3012SOL     OW 9367   0.594   4.469   6.238
 3012SOL    HW1 9368   0.644   4.554   6.219
 3012SOL    HW2 9369   0.506   4.471   6.190
 3013SOL     OW 9370   1.777   4.066   7.228
 3013SOL    HW1 9371   1.760   4.097   7.134
 3013SOL    HW2 9372   1.693   4.029   7.266
 3014SOL     OW 9373   1.730   4.658   7.103
 3014SOL    HW1 9374   1.768   4.749   7.118
 3014SOL    HW2 9375   1.722   4.641   7.004
 3015SOL     OW 9376   0.859   4.680   6.447
 3015SOL    HW1 9377   0.913   4.611   6.495
 3015SOL    HW2 9378   0.827   4.749   6.513
 3016SOL     OW 9379   1.083   4.708   5.673
 3016SOL    HW1 9380   1.060   4.761   5.591
 3016SOL    HW2 9381   1.164   4.652   5.654
 3017SOL     OW 9382   0.079   4.964   6.239
 3017SOL    HW1 9383   0.078   4.917   6.327
 3017SOL    HW2 9384   0.161   4.936   6.188
 3018SOL     OW 9385   1.824   3.916   6.813
 3018SOL    HW1 9386   1.820   3.826   6.857
 3018SOL    HW2 9387   1.827   3.905   6.714
 3019SOL     OW 9388   0.428   4.148   6.106
 3019SOL    HW1 9389   0.458   4.076   6.044
 3019SOL    HW2 9390   0.389   4.108   6.189
 3020SOL     OW 9391   0.317   4.271   6.866
 3020SOL    HW1 9392   0.355   4.212   6.938
 3020SOL    HW2 9393   0.357   4.245   6.778
 3021SOL     OW 9394   1.424   3.938   6.698
 3021SOL    HW1 9395   1.476   3.873   6.753
 3021SOL    HW2 9396   1.375   4.001   6.759
 3022SOL     OW 9397   1.001   3.758   6.740
 3022SOL    HW1 9398   0.938   3.686   6.709
 3022SOL    HW2 9399   1.094   3.722   6.740
 3023SOL     OW 9400   0.770   5.054   5.887
 3023SOL    HW1 9401   0.724   4.967   5.904
 3023SOL    HW2 9402   0.861   5.051   5.928
 3024SOL     OW 9403   1.352   3.776   5.754
 3024SOL    HW1 9404   1.387   3.735   5.670
 3024SOL    HW2 9405   1.262   3.738   5.774
 3025SOL     OW 9406   1.300   4.177   6.277
 3025SOL    HW1 9407   1.241   4.257   6.281
 3025SOL    HW2 9408   1.315   4.142   6.370
 3026SOL     OW 9409   1.593   3.945   6.468
 3026SOL    HW1 9410   1.509   3.944   6.522
 3026SOL    HW2 9411   1.595   4.028   6.412
 3027SOL     OW 9412   0.039   4.801   5.886
 3027SOL    HW1 9413   0.138   4.790   5.877
 3027SOL    HW2 9414  -0.001   4.715   5.918
 3028SOL     OW 9415   0.230   4.352   7.561
 3028SOL    HW1 9416   0.137   4.350   7.598
 3028SOL    HW2 9417   0.231   4.313   7.469
 3029SOL     OW 9418   0.225   3.999   8.444
 3029SOL    HW1 9419   0.260   3.982   8.536
 3029SOL    HW2 9420   0.137   3.954   8.432
 3030SOL     OW 9421   0.019   4.092   8.095
 3030SOL    HW1 9422  -0.063   4.135   8.134
 3030SOL    HW2 9423  -0.009   4.019   8.032
 3031SOL     OW 9424   1.135   4.427   8.165
 3031SOL    HW1 9425   1.192   4.505   8.140
 3031SOL    HW2 9426   1.075   4.453   8.241
 3032SOL     OW 9427   1.755   4.331   7.679
 3032SOL    HW1 9428   1.743   4.318   7.580
 3032SOL    HW2 9429   1.725   4.250   7.728
 3033SOL     OW 9430   0.768   4.868   8.471
 3033SOL    HW1 9431   0.690   4.885   8.531
 3033SOL    HW2 9432   0.802   4.955   8.435
 3034SOL     OW 9433   0.850   4.522   9.271
 3034SOL    HW1 9434   0.846   4.598   9.336
 3034SOL    HW2 9435   0.872   4.558   9.180
 3035SOL     OW 9436   0.685   4.736   8.113
 3035SOL    HW1 9437   0.754   4.720   8.183
 3035SOL    HW2 9438   0.612   4.793   8.151
 3036SOL     OW 9439   0.686   4.885   9.251
 3036SOL    HW1 9440   0.746   4.964   9.265
 3036SOL    HW2 9441   0.600   4.916   9.210
 3037SOL     OW 9442   0.438   4.116   8.947
 3037SOL    HW1 9443   0.520   4.060   8.956
 3037SOL    HW2 9444   0.357   4.058   8.951
 3038SOL     OW 9445   1.603   4.171   8.185
 3038SOL    HW1 9446   1.529   4.217   8.135
 3038SOL    HW2 9447   1.654   4.239   8.238
 3039SOL     OW 9448   0.240   4.815   8.334
 3039SOL    HW1 9449   0.254   4.731   8.386
 3039SOL    HW2 9450   0.185   4.879   8.389
 3040SOL     OW 9451   0.606   4.688   7.571
 3040SOL    HW1 9452   0.613   4.772   7.517
 3040SOL    HW2 9453   0.652   4.701   7.659
 3041SOL     OW 9454   1.594   3.838   8.928
 3041SOL    HW1 9455   1.576   3.905   8.856
 3041SOL    HW2 9456   1.591   3.884   9.017
 3042SOL     OW 9457   0.122   4.367   8.011
 3042SOL    HW1 9458   0.077   4.279   8.028
 3042SOL    HW2 9459   0.121   4.421   8.095
 3043SOL     OW 9460   1.689   4.646   8.060
 3043SOL    HW1 9461   1.784   4.617   8.068
 3043SOL    HW2 9462   1.681   4.711   7.985
 3044SOL     OW 9463   1.641   4.832   7.880
 3044SOL    HW1 9464   1.727   4.834   7.828
 3044SOL    HW2 9465   1.655   4.879   7.968
 3045SOL     OW 9466   0.113   4.461   9.045
 3045SOL    HW1 9467   0.201   4.448   9.090
 3045SOL    HW2 9468   0.100   4.558   9.023
 3046SOL     OW 9469   1.293   4.952   8.871
 3046SOL    HW1 9470   1.330   4.879   8.813
 3046SOL    HW2 9471   1.345   4.957   8.956
 3047SOL     OW 9472   0.809   3.728   7.950
 3047SOL    HW1 9473   0.849   3.819   7.941
 3047SOL    HW2 9474   0.709   3.736   7.956
 3048SOL     OW 9475   0.197   4.700   8.712
 3048SOL    HW1 9476   0.286   4.655   8.698
 3048SOL    HW2 9477   0.124   4.635   8.693
 3049SOL     OW 9478   1.525   4.723   7.638
 3049SOL    HW1 9479   1.462   4.647   7.651
 3049SOL    HW2 9480   1.573   4.741   7.724
 3050SOL     OW 9481   0.317   3.975   9.249
 3050SOL    HW1 9482   0.388   4.046   9.255
 3050SOL    HW2 9483   0.229   4.014   9.277
 3051SOL     OW 9484   0.598   4.453   7.718
 3051SOL    HW1 9485   0.622   4.522   7.650
 3051SOL    HW2 9486   0.520   4.486   7.772
 3052SOL     OW 9487   1.281   4.069   8.392
 3052SOL    HW1 9488   1.195   4.019   8.379
 3052SOL    HW2 9489   1.343   4.015   8.448
 3053SOL     OW 9490   0.807   4.329   8.913
 3053SOL    HW1 9491   0.760   4.326   9.002
 3053SOL    HW2 9492   0.756   4.274   8.847
 3054SOL     OW 9493   1.394   4.193   9.122
 3054SOL    HW1 9494   1.374   4.236   9.210
 3054SOL    HW2 9495   1.472   4.131   9.131
 3055SOL     OW 9496   0.973   4.614   9.020
 3055SOL    HW1 9497   1.019   4.530   8.991
 3055SOL    HW2 9498   0.917   4.648   8.945
 3056SOL     OW 9499   0.991   4.134   8.690
 3056SOL    HW1 9500   0.914   4.168   8.744
 3056SOL    HW2 9501   0.957   4.083   8.611
 3057SOL     OW 9502   1.041   4.425   7.877
 3057SOL    HW1 9503   1.067   4.421   7.973
 3057SOL    HW2 9504   0.956   4.374   7.863
 3058SOL     OW 9505   0.076   4.535   8.237
 3058SOL    HW1 9506   0.175   4.523   8.246
 3058SOL    HW2 9507   0.052   4.630   8.258
 3059SOL     OW 9508   0.865   4.072   7.643
 3059SOL    HW1 9509   0.924   4.135   7.594
 3059SOL    HW2 9510   0.884   3.978   7.614
 3060SOL     OW 9511   1.719   4.309   9.279
 3060SOL    HW1 9512   1.693   4.398   9.243
 3060SOL    HW2 9513   1.717   4.241   9.206
 3061SOL     OW 9514   1.362   4.868   7.993
 3061SOL    HW1 9515   1.445   4.839   7.945
 3061SOL    HW2 9516   1.313   4.935   7.937
 3062SOL     OW 9517   0.550   3.920   8.333
 3062SOL    HW1 9518   0.545   3.915   8.433
 3062SOL    HW2 9519   0.552   4.016   8.304
 3063SOL     OW 9520   1.795   4.790   8.321
 3063SOL    HW1 9521   1.733   4.775   8.245
 3063SOL    HW2 9522   1.743   4.801   8.406
 3064SOL     OW 9523   0.321   4.667   7.690
 3064SOL    HW1 9524   0.403   4.706   7.648
 3064SOL    HW2 9525   0.294   4.585   7.641
 3065SOL     OW 9526   1.458   4.459   8.176
 3065SOL    HW1 9527   1.453   4.394   8.251
 3065SOL    HW2 9528   1.538   4.518   8.189
 3066SOL     OW 9529   0.202   4.009   8.946
 3066SOL    HW1 9530   0.122   4.069   8.933
 3066SOL    HW2 9531   0.192   3.960   9.032
 3067SOL     OW 9532   1.400   3.831   7.874
 3067SOL    HW1 9533   1.376   3.794   7.784
 3067SOL    HW2 9534   1.499   3.847   7.878
 3068SOL     OW 9535   0.382   4.424   7.928
 3068SOL    HW1 9536   0.427   4.334   7.925
 3068SOL    HW2 9537   0.288   4.413   7.961
 3069SOL     OW 9538   1.547   3.946   9.177
 3069SOL    HW1 9539   1.542   3.983   9.269
 3069SOL    HW2 9540   1.475   3.877   9.165
 3070SOL     OW 9541   0.614   3.846   7.565
 3070SOL    HW1 9542   0.712   3.824   7.572
 3070SOL    HW2 9543   0.583   3.829   7.472
 3071SOL     OW 9544   0.781   3.988   9.197
 3071SOL    HW1 9545   0.848   3.927   9.240
 3071SOL    HW2 9546   0.708   4.007   9.262
 3072SOL     OW 9547   1.351   4.314   8.881
 3072SOL    HW1 9548   1.379   4.271   8.966
 3072SOL    HW2 9549   1.376   4.410   8.882
 3073SOL     OW 9550   0.922   4.227   8.347
 3073SOL    HW1 9551   0.897   4.218   8.251
 3073SOL    HW2 9552   0.970   4.145   8.378
 3074SOL     OW 9553   0.539   3.788   7.960
 3074SOL    HW1 9554   0.458   3.789   8.018
 3074SOL    HW2 9555   0.542   3.871   7.905
 3075SOL     OW 9556   0.297   3.759   7.619
 3075SOL    HW1 9557   0.346   3.843   7.598
 3075SOL    HW2 9558   0.359   3.694   7.664
 3076SOL     OW 9559   0.935   3.960   7.928
 3076SOL    HW1 9560   0.887   4.001   7.850
 3076SOL    HW2 9561   1.034   3.958   7.909
 3077SOL     OW 9562   1.076   4.407   8.912
 3077SOL    HW1 9563   0.996   4.346   8.915
 3077SOL    HW2 9564   1.157   4.354   8.888
 3078SOL     OW 9565   0.459   4.876   8.189
 3078SOL    HW1 9566   0.388   4.849   8.254
 3078SOL    HW2 9567   0.433   4.848   8.096
 3079SOL     OW 9568   1.032   4.273   7.464
 3079SOL    HW1 9569   0.991   4.355   7.425
 3079SOL    HW2 9570   1.096   4.299   7.537
 3080SOL     OW 9571   0.078   4.280   8.834
 3080SOL    HW1 9572   0.170   4.279   8.793
 3080SOL    HW2 9573   0.072   4.354   8.901
 3081SOL     OW 9574   0.561   3.946   8.595
 3081SOL    HW1 9575   0.599   3.862   8.632
 3081SOL    HW2 9576   0.473   3.965   8.639
 3082SOL     OW 9577   0.866   4.178   8.090
 3082SOL    HW1 9578   0.834   4.250   8.028
 3082SOL    HW2 9579   0.890   4.097   8.037
 3083SOL     OW 9580   1.017   3.763   8.201
 3083SOL    HW1 9581   0.945   3.768   8.132
 3083SOL    HW2 9582   0.993   3.694   8.270
 3084SOL     OW 9583   1.429   4.897   8.315
 3084SOL    HW1 9584   1.374   4.813   8.308
 3084SOL    HW2 9585   1.455   4.926   8.223
 3085SOL     OW 9586   1.466   4.314   8.440
 3085SOL    HW1 9587   1.436   4.219   8.447
 3085SOL    HW2 9588   1.539   4.330   8.506
 3086SOL     OW 9589   1.857   4.557   7.825
 3086SOL    HW1 9590   1.899   4.493   7.889
 3086SOL    HW2 9591   1.819   4.506   7.747
 3087SOL     OW 9592   1.390   4.299   7.526
 3087SOL    HW1 9593   1.336   4.278   7.607
 3087SOL    HW2 9594   1.481   4.258   7.535
 3088SOL     OW 9595   0.527   3.980   7.776
 3088SOL    HW1 9596   0.554   3.921   7.701
 3088SOL    HW2 9597   0.527   4.075   7.745
 3089SOL     OW 9598   1.754   4.947   9.036
 3089SOL    HW1 9599   1.845   4.908   9.023
 3089SOL    HW2 9600   1.762   5.043   9.060
 3090SOL     OW 9601   1.638   4.823   8.527
 3090SOL    HW1 9602   1.643   4.904   8.586
 3090SOL    HW2 9603   1.552   4.825   8.476
 3091SOL     OW 9604   0.915   3.813   8.850
 3091SOL    HW1 9605   0.940   3.793   8.755
 3091SOL    HW2 9606   0.987   3.869   8.892
 3092SOL     OW 9607   0.980   4.840   9.167
 3092SOL    HW1 9608   0.881   4.846   9.177
 3092SOL    HW2 9609   1.003   4.760   9.111
 3093SOL     OW 9610   0.705   4.774   7.816
 3093SOL    HW1 9611   0.691   4.781   7.915
 3093SOL    HW2 9612   0.789   4.723   7.798
 3094SOL     OW 9613   0.410   4.537   8.699
 3094SOL    HW1 9614   0.496   4.549   8.749
 3094SOL    HW2 9615   0.368   4.450   8.726
 3095SOL     OW 9616   1.274   4.110   8.710
 3095SOL    HW1 9617   1.295   4.184   8.774
 3095SOL    HW2 9618   1.185   4.127   8.667
 3096SOL     OW 9619   0.367   4.824   7.949
 3096SOL    HW1 9620   0.360   4.907   7.893
 3096SOL    HW2 9621   0.371   4.744   7.889
 3097SOL     OW 9622   0.566   4.261   8.313
 3097SOL    HW1 9623   0.578   4.327   8.239
 3097SOL    HW2 9624   0.612   4.295   8.396
 3098SOL     OW 9625   1.582   4.363   7.920
 3098SOL    HW1 9626   1.551   4.424   7.993
 3098SOL    HW2 9627   1.632   4.415   7.851
 3099SOL     OW 9628   0.402   4.475   9.046
 3099SOL    HW1 9629   0.470   4.530   8.999
 3099SOL    HW2 9630   0.442   4.387   9.073
 3100SOL     OW 9631   1.587   4.503   9.118
 3100SOL    HW1 9632   1.495   4.541   9.113
 3100SOL    HW2 9633   1.647   4.550   9.053
 3101SOL     OW 9634   1.013   3.829   9.218
 3101SOL    HW1 9635   1.019   3.914   9.166
 3101SOL    HW2 9636   1.045   3.753   9.161
 3102SOL     OW 9637   0.504   3.774   9.188
 3102SOL    HW1 9638   0.462   3.717   9.118
 3102SOL    HW2 9639   0.438   3.843   9.220
 3103SOL     OW 9640   0.573   4.594   8.477
 3103SOL    HW1 9641   0.617   4.683   8.468
 3103SOL    HW2 9642   0.510   4.594   8.554
 3104SOL     OW 9643   1.360   4.586   8.493
 3104SOL    HW1 9644   1.285   4.586   8.427
 3104SOL    HW2 9645   1.397   4.494   8.502
 3105SOL     OW 9646   1.209   4.249   7.723
 3105SOL    HW1 9647   1.222   4.165   7.777
 3105SOL    HW2 9648   1.180   4.323   7.783
 3106SOL     OW 9649   0.307   3.937   8.679
 3106SOL    HW1 9650   0.284   3.974   8.769
 3106SOL    HW2 9651   0.277   3.842   8.673
 3107SOL     OW 9652   0.037   5.034   8.730
 3107SOL    HW1 9653   0.090   4.985   8.798
 3107SOL    HW2 9654   0.059   5.132   8.735
 3108SOL     OW 9655   0.732   4.358   8.512
 3108SOL    HW1 9656   0.791   4.332   8.436
 3108SOL    HW2 9657   0.704   4.454   8.501
 3109SOL     OW 9658   1.728   4.659   9.302
 3109SOL    HW1 9659   1.682   4.652   9.213
 3109SOL    HW2 9660   1.666   4.703   9.368
 3110SOL     OW 9661   0.307   3.787   8.066
 3110SOL    HW1 9662   0.296   3.881   8.099
 3110SOL    HW2 9663   0.302   3.724   8.143
 3111SOL     OW 9664   1.622   4.091   7.822
 3111SOL    HW1 9665   1.624   4.015   7.886
 3111SOL    HW2 9666   1.574   4.168   7.862
 3112SOL     OW 9667   1.023   4.490   8.414
 3112SOL    HW1 9668   1.038   4.511   8.510
 3112SOL    HW2 9669   0.993   4.395   8.405
 3113SOL     OW 9670   0.350   4.622   9.252
 3113SOL    HW1 9671   0.426   4.666   9.300
 3113SOL    HW2 9672   0.385   4.575   9.170
 3114SOL     OW 9673   1.540   3.998   7.573
 3114SOL    HW1 9674   1.479   3.923   7.596
 3114SOL    HW2 9675   1.562   4.050   7.656
 3115SOL     OW 9676   1.303   4.562   7.490
 3115SOL    HW1 9677   1.337   4.469   7.505
 3115SOL    HW2 9678   1.321   4.589   7.395
 3116SOL     OW 9679   0.319   4.534   8.397
 3116SOL    HW1 9680   0.412   4.570   8.402
 3116SOL    HW2 9681   0.313   4.449   8.449
 3117SOL     OW 9682   0.339   4.233   8.454
 3117SOL    HW1 9683   0.287   4.150   8.437
 3117SOL    HW2 9684   0.416   4.238   8.390
 3118SOL     OW 9685   1.138   4.104   9.126
 3118SOL    HW1 9686   1.093   4.167   9.190
 3118SOL    HW2 9687   1.231   4.135   9.109
 3119SOL     OW 9688   1.160   3.931   8.925
 3119SOL    HW1 9689   1.160   3.995   9.002
 3119SOL    HW2 9690   1.188   3.979   8.842
 3120SOL     OW 9691   0.008   5.050   7.648
 3120SOL    HW1 9692  -0.085   5.071   7.617
 3120SOL    HW2 9693   0.018   4.951   7.661
 3121SOL     OW 9694   1.002   4.520   8.686
 3121SOL    HW1 9695   1.043   4.488   8.772
 3121SOL    HW2 9696   0.906   4.493   8.683
 3122SOL     OW 9697   0.040   4.268   8.562
 3122SOL    HW1 9698   0.125   4.235   8.521
 3122SOL    HW2 9699   0.053   4.283   8.660
 3123SOL     OW 9700   0.189   4.244   9.170
 3123SOL    HW1 9701   0.248   4.204   9.100
 3123SOL    HW2 9702   0.131   4.315   9.129
 3124SOL     OW 9703   1.369   4.674   9.108
 3124SOL    HW1 9704   1.408   4.763   9.128
 3124SOL    HW2 9705   1.379   4.654   9.011
 3125SOL     OW 9706   0.815   4.296   7.773
 3125SOL    HW1 9707   0.822   4.207   7.727
 3125SOL    HW2 9708   0.721   4.330   7.765
 3126SOL     OW 9709   1.657   4.328   8.654
 3126SOL    HW1 9710   1.619   4.259   8.716
 3126SOL    HW2 9711   1.739   4.292   8.610
 3127SOL     OW 9712   0.671   4.188   8.717
 3127SOL    HW1 9713   0.637   4.099   8.687
 3127SOL    HW2 9714   0.697   4.242   8.637
 3128SOL     OW 9715   0.473   4.224   7.639
 3128SOL    HW1 9716   0.534   4.304   7.643
 3128SOL    HW2 9717   0.378   4.255   7.646
 3129SOL     OW 9718   0.159   4.861   8.914
 3129SOL    HW1 9719   0.181   4.800   8.990
 3129SOL    HW2 9720   0.169   4.812   8.828
 3130SOL     OW 9721   1.347   4.783   8.682
 3130SOL    HW1 9722   1.371   4.720   8.608
 3130SOL    HW2 9723   1.257   4.823   8.664
 3131SOL     OW 9724   1.302   4.579   7.757
 3131SOL    HW1 9725   1.216   4.548   7.799
 3131SOL    HW2 9726   1.298   4.565   7.658
 3132SOL     OW 9727   0.083   4.982   8.470
 3132SOL    HW1 9728   0.078   4.981   8.570
 3132SOL    HW2 9729   0.000   4.941   8.432
 3133SOL     OW 9730   1.726   3.859   7.971
 3133SOL    HW1 9731   1.799   3.842   7.904
 3133SOL    HW2 9732   1.695   3.772   8.009
 3134SOL     OW 9733   1.280   4.651   8.120
 3134SOL    HW1 9734   1.340   4.570   8.122
 3134SOL    HW2 9735   1.320   4.720   8.060
 3135SOL     OW 9736   1.841   3.899   8.411
 3135SOL    HW1 9737   1.880   3.814   8.375
 3135SOL    HW2 9738   1.743   3.901   8.392
 3136SOL     OW 9739   0.263   4.050   8.168
 3136SOL    HW1 9740   0.184   4.101   8.134
 3136SOL    HW2 9741   0.254   4.035   8.266
 3137SOL     OW 9742   0.822   4.726   8.820
 3137SOL    HW1 9743   0.862   4.725   8.728
 3137SOL    HW2 9744   0.832   4.818   8.860
 3138SOL     OW 9745   0.916   4.634   7.739
 3138SOL    HW1 9746   0.979   4.672   7.671
 3138SOL    HW2 9747   0.956   4.551   7.778
 3139SOL     OW 9748   0.372   5.012   8.938
 3139SOL    HW1 9749   0.359   5.105   8.904
 3139SOL    HW2 9750   0.288   4.960   8.925
 3140SOL     OW 9751   1.614   5.016   8.737
 3140SOL    HW1 9752   1.674   5.019   8.817
 3140SOL    HW2 9753   1.539   5.080   8.750
 3141SOL     OW 9754   1.039   4.822   8.144
 3141SOL    HW1 9755   0.969   4.775   8.198
 3141SOL    HW2 9756   1.098   4.754   8.101
 3142SOL     OW 9757   1.014   3.960   8.419
 3142SOL    HW1 9758   1.006   3.924   8.326
 3142SOL    HW2 9759   1.012   3.884   8.484
 3143SOL     OW 9760   1.709   4.109   8.829
 3143SOL    HW1 9761   1.782   4.178   8.833
 3143SOL    HW2 9762   1.737   4.034   8.770
 3144SOL     OW 9763   0.105   4.737   9.174
 3144SOL    HW1 9764   0.028   4.704   9.228
 3144SOL    HW2 9765   0.190   4.707   9.216
 3145SOL     OW 9766   0.672   3.927   8.937
 3145SOL    HW1 9767   0.762   3.911   8.897
 3145SOL    HW2 9768   0.680   3.932   9.036
 3146SOL     OW 9769   0.075   4.069   7.481
 3146SOL    HW1 9770  -0.017   4.041   7.452
 3146SOL    HW2 9771   0.106   4.146   7.425
 3147SOL     OW 9772   1.440   4.580   8.846
 3147SOL    HW1 9773   1.383   4.632   8.783
 3147SOL    HW2 9774   1.536   4.592   8.822
 3148SOL     OW 9775   0.072   3.890   7.766
 3148SOL    HW1 9776   0.055   3.973   7.712
 3148SOL    HW2 9777   0.162   3.853   7.744
 3149SOL     OW 9778   0.613   4.566   8.879
 3149SOL    HW1 9779   0.669   4.647   8.862
 3149SOL    HW2 9780   0.672   4.486   8.882
 3150SOL     OW 9781   0.716   4.289   9.156
 3150SOL    HW1 9782   0.735   4.354   9.230
 3150SOL    HW2 9783   0.776   4.209   9.165
 3151SOL     OW 9784   1.450   4.944   9.081
 3151SOL    HW1 9785   1.441   4.934   9.180
 3151SOL    HW2 9786   1.546   4.937   9.055
 3152SOL     OW 9787   1.674   4.607   8.702
 3152SOL    HW1 9788   1.647   4.518   8.665
 3152SOL    HW2 9789   1.675   4.675   8.629
 3153SOL     OW 9790   1.225   4.049   7.897
 3153SOL    HW1 9791   1.290   3.975   7.886
 3153SOL    HW2 9792   1.245   4.099   7.981
 3154SOL     OW 9793   0.594   4.469   8.100
 3154SOL    HW1 9794   0.644   4.554   8.081
 3154SOL    HW2 9795   0.506   4.471   8.052
 3155SOL     OW 9796   1.777   4.066   9.090
 3155SOL    HW1 9797   1.760   4.097   8.996
 3155SOL    HW2 9798   1.693   4.029   9.128
 3156SOL     OW 9799   1.730   4.658   8.965
 3156SOL    HW1 9800   1.768   4.749   8.980
 3156SOL    HW2 9801   1.722   4.641   8.866
 3157SOL     OW 9802   0.859   4.680   8.309
 3157SOL    HW1 9803   0.913   4.611   8.357
 3157SOL    HW2 9804   0.827   4.749   8.375
 3158SOL     OW 9805   1.083   4.708   7.535
 3158SOL    HW1 9806   1.060   4.761   7.453
 3158SOL    HW2 9807   1.164   4.652   7.516
 3159SOL     OW 9808   0.079   4.964   8.101
 3159SOL    HW1 9809   0.078   4.917   8.189
 3159SOL    HW2 9810   0.161   4.936   8.050
 3160SOL     OW 9811   1.824   3.916   8.675
 3160SOL    HW1 9812   1.820   3.826   8.719
 3160SOL    HW2 9813   1.827   3.905   8.576
 3161SOL     OW 9814   0.428   4.148   7.968
 3161SOL    HW1 9815   0.458   4.076   7.906
 3161SOL    HW2 9816   0.389   4.108   8.051
 3162SOL     OW 9817   0.317   4.271   8.728
 3162SOL    HW1 9818   0.355   4.212   8.800
 3162SOL    HW2 9819   0.357   4.245   8.640
 3163SOL     OW 9820   1.424   3.938   8.560
 3163SOL    HW1 9821   1.476   3.873   8.615
 3163SOL    HW2 9822   1.375   4.001   8.621
 3164SOL     OW 9823   1.001   3.758   8.602
 3164SOL    HW1 9824   0.938   3.686   8.571
 3164SOL    HW2 9825   1.094   3.722   8.602
 3165SOL     OW 9826   0.770   5.054   7.749
 3165SOL    HW1 9827   0.724   4.967   7.766
 3165SOL    HW2 9828   0.861   5.051   7.790
 3166SOL     OW 9829   1.352   3.776   7.616
 3166SOL    HW1 9830   1.387   3.735   7.532
 3166SOL    HW2 9831   1.262   3.738   7.636
 3167SOL     OW 9832   1.300   4.177   8.139
 3167SOL    HW1 9833   1.241   4.257   8.143
 3167SOL    HW2 9834   1.315   4.142   8.232
 3168SOL     OW 9835   1.593   3.945   8.330
 3168SOL    HW1 9836   1.509   3.944   8.384
 3168SOL    HW2 9837   1.595   4.028   8.274
 3169SOL     OW 9838   0.039   4.801   7.748
 3169SOL    HW1 9839   0.138   4.790   7.739
 3169SOL    HW2 9840  -0.001   4.715   7.780
 3170SOL     OW 9841   0.230   4.352   9.423
 3170SOL    HW1 9842   0.137   4.350   9.460
 3170SOL    HW2 9843   0.231   4.313   9.331
 3171SOL     OW 9844   0.225   3.999  10.306
 3171SOL    HW1 9845   0.260   3.982  10.398
 3171SOL    HW2 9846   0.137   3.954  10.294
 3172SOL     OW 9847   0.019   4.092   9.957
 3172SOL    HW1 9848  -0.063   4.135   9.996
 3172SOL    HW2 9849  -0.009   4.019   9.894
 3173SOL     OW 9850   1.135   4.427  10.027
 3173SOL    HW1 9851   1.192   4.505  10.002
 3173SOL    HW2 9852   1.075   4.453  10.103
 3174SOL     OW 9853   1.755   4.331   9.541
 3174SOL    HW1 9854   1.743   4.318   9.442
 3174SOL    HW2 9855   1.725   4.250   9.590
 3175SOL     OW 9856   0.768   4.868  10.333
 3175SOL    HW1 9857   0.690   4.885  10.393
 3175SOL    HW2 9858   0.802   4.955  10.297
 3176SOL     OW 9859   0.685   4.736   9.975
 3176SOL    HW1 9860   0.754   4.720  10.045
 3176SOL    HW2 9861   0.612   4.793  10.013
 3177SOL     OW 9862   1.460   5.229  10.649
 3177SOL    HW1 9863   1.484   5.323  10.675
 3177SOL    HW2 9864   1.444   5.175  10.731
 3178SOL     OW 9865   0.438   4.116  10.809
 3178SOL    HW1 9866   0.520   4.060  10.818
 3178SOL    HW2 9867   0.357   4.058  10.813
 3179SOL     OW 9868   1.603   4.171  10.047
 3179SOL    HW1 9869   1.529   4.217   9.997
 3179SOL    HW2 9870   1.654   4.239  10.100
 3180SOL     OW 9871   0.240   4.815  10.196
 3180SOL    HW1 9872   0.254   4.731  10.248
 3180SOL    HW2 9873   0.185   4.879  10.251
 3181SOL     OW 9874   0.606   4.688   9.433
 3181SOL    HW1 9875   0.613   4.772   9.379
 3181SOL    HW2 9876   0.652   4.701   9.521
 3182SOL     OW 9877   0.122   4.367   9.873
 3182SOL    HW1 9878   0.077   4.279   9.890
 3182SOL    HW2 9879   0.121   4.421   9.957
 3183SOL     OW 9880   1.689   4.646   9.922
 3183SOL    HW1 9881   1.784   4.617   9.930
 3183SOL    HW2 9882   1.681   4.711   9.847
 3184SOL     OW 9883   1.641   4.832   9.742
 3184SOL    HW1 9884   1.727   4.834   9.690
 3184SOL    HW2 9885   1.655   4.879   9.830
 3185SOL     OW 9886   0.809   3.728   9.812
 3185SOL    HW1 9887   0.849   3.819   9.803
 3185SOL    HW2 9888   0.709   3.736   9.818
 3186SOL     OW 9889   0.197   4.700  10.574
 3186SOL    HW1 9890   0.286   4.655  10.560
 3186SOL    HW2 9891   0.124   4.635  10.555
 3187SOL     OW 9892   1.525   4.723   9.500
 3187SOL    HW1 9893   1.462   4.647   9.513
 3187SOL    HW2 9894   1.573   4.741   9.586
 3188SOL     OW 9895   0.598   4.453   9.580
 3188SOL    HW1 9896   0.622   4.522   9.512
 3188SOL    HW2 9897   0.520   4.486   9.634
 3189SOL     OW 9898   1.281   4.069  10.254
 3189SOL    HW1 9899   1.195   4.019  10.241
 3189SOL    HW2 9900   1.343   4.015  10.310
 3190SOL     OW 9901   0.807   4.329  10.775
 3190SOL    HW1 9902   0.760   4.326  10.864
 3190SOL    HW2 9903   0.756   4.274  10.709
 3191SOL     OW 9904   0.991   4.134  10.552
 3191SOL    HW1 9905   0.914   4.168  10.606
 3191SOL    HW2 9906   0.957   4.083  10.473
 3192SOL     OW 9907   1.041   4.425   9.739
 3192SOL    HW1 9908   1.067   4.421   9.835
 3192SOL    HW2 9909   0.956   4.374   9.725
 3193SOL     OW 9910   0.076   4.535  10.099
 3193SOL    HW1 9911   0.175   4.523  10.108
 3193SOL    HW2 9912   0.052   4.630  10.120
 3194SOL     OW 9913   0.865   4.072   9.505
 3194SOL    HW1 9914   0.924   4.135   9.456
 3194SOL    HW2 9915   0.884   3.978   9.476
 3195SOL     OW 9916   1.362   4.868   9.855
 3195SOL    HW1 9917   1.445   4.839   9.807
 3195SOL    HW2 9918   1.313   4.935   9.799
 3196SOL     OW 9919   0.550   3.920  10.195
 3196SOL    HW1 9920   0.545   3.915  10.295
 3196SOL    HW2 9921   0.552   4.016  10.166
 3197SOL     OW 9922   1.795   4.790  10.183
 3197SOL    HW1 9923   1.733   4.775  10.107
 3197SOL    HW2 9924   1.743   4.801  10.268
 3198SOL     OW 9925   0.321   4.667   9.552
 3198SOL    HW1 9926   0.403   4.706   9.510
 3198SOL    HW2 9927   0.294   4.585   9.503
 3199SOL     OW 9928   1.458   4.459  10.038
 3199SOL    HW1 9929   1.453   4.394  10.113
 3199SOL    HW2 9930   1.538   4.518  10.051
 3200SOL     OW 9931   1.400   3.831   9.736
 3200SOL    HW1 9932   1.376   3.794   9.646
 3200SOL    HW2 9933   1.499   3.847   9.740
 3201SOL     OW 9934   0.382   4.424   9.790
 3201SOL    HW1 9935   0.427   4.334   9.787
 3201SOL    HW2 9936   0.288   4.413   9.823
 3202SOL     OW 9937   0.614   3.846   9.427
 3202SOL    HW1 9938   0.712   3.824   9.434
 3202SOL    HW2 9939   0.583   3.829   9.334
 3203SOL     OW 9940   0.922   4.227  10.209
 3203SOL    HW1 9941   0.897   4.218  10.113
 3203SOL    HW2 9942   0.970   4.145  10.240
 3204SOL     OW 9943   0.539   3.788   9.822
 3204SOL    HW1 9944   0.458   3.789   9.880
 3204SOL    HW2 9945   0.542   3.871   9.767
 3205SOL     OW 9946   0.297   3.759   9.481
 3205SOL    HW1 9947   0.346   3.843   9.460
 3205SOL    HW2 9948   0.359   3.694   9.526
 3206SOL     OW 9949   0.935   3.960   9.790
 3206SOL    HW1 9950   0.887   4.001   9.712
 3206SOL    HW2 9951   1.034   3.958   9.771
 3207SOL     OW 9952   0.459   4.876  10.051
 3207SOL    HW1 9953   0.388   4.849  10.116
 3207SOL    HW2 9954   0.433   4.848   9.958
 3208SOL     OW 9955   1.032   4.273   9.326
 3208SOL    HW1 9956   0.991   4.355   9.287
 3208SOL    HW2 9957   1.096   4.299   9.399
 3209SOL     OW 9958   0.078   4.280  10.696
 3209SOL    HW1 9959   0.170   4.279  10.655
 3209SOL    HW2 9960   0.072   4.354  10.763
 3210SOL     OW 9961   0.561   3.946  10.457
 3210SOL    HW1 9962   0.599   3.862  10.494
 3210SOL    HW2 9963   0.473   3.965  10.501
 3211SOL     OW 9964   0.866   4.178   9.952
 3211SOL    HW1 9965   0.834   4.250   9.890
 3211SOL    HW2 9966   0.890   4.097   9.899
 3212SOL     OW 9967   1.017   3.763  10.063
 3212SOL    HW1 9968   0.945   3.768   9.994
 3212SOL    HW2 9969   0.993   3.694  10.132
 3213SOL     OW 9970   1.429   4.897  10.177
 3213SOL    HW1 9971   1.374   4.813  10.170
 3213SOL    HW2 9972   1.455   4.926  10.085
 3214SOL     OW 9973   1.466   4.314  10.302
 3214SOL    HW1 9974   1.436   4.219  10.309
 3214SOL    HW2 9975   1.539   4.330  10.368
 3215SOL     OW 9976   1.857   4.557   9.687
 3215SOL    HW1 9977   1.899   4.493   9.751
 3215SOL    HW2 9978   1.819   4.506   9.609
 3216SOL     OW 9979   1.390   4.299   9.388
 3216SOL    HW1 9980   1.336   4.278   9.469
 3216SOL    HW2 9981   1.481   4.258   9.397
 3217SOL     OW 9982   0.527   3.980   9.638
 3217SOL    HW1 9983   0.554   3.921   9.563
 3217SOL    HW2 9984   0.527   4.075   9.607
 3218SOL     OW 9985   1.064   5.071  10.650
 3218SOL    HW1 9986   0.984   5.048  10.705
 3218SOL    HW2 9987   1.147   5.045  10.699
 3219SOL     OW 9988   1.638   4.823  10.389
 3219SOL    HW1 9989   1.643   4.904  10.448
 3219SOL    HW2 9990   1.552   4.825  10.338
 3220SOL     OW 9991   0.705   4.774   9.678
 3220SOL    HW1 9992   0.691   4.781   9.777
 3220SOL    HW2 9993   0.789   4.723   9.660
 3221SOL     OW 9994   0.410   4.537  10.561
 3221SOL    HW1 9995   0.496   4.549  10.611
 3221SOL    HW2 9996   0.368   4.450  10.588
 3222SOL     OW 9997   1.274   4.110  10.572
 3222SOL    HW1 9998   1.295   4.184  10.636
 3222SOL    HW2 9999   1.185   4.127  10.529
 3223SOL     OW10000   0.367   4.824   9.811
 3223SOL    HW110001   0.360   4.907   9.755
 3223SOL    HW210002   0.371   4.744   9.751
 3224SOL     OW10003   0.566   4.261  10.175
 3224SOL    HW110004   0.578   4.327  10.101
 3224SOL    HW210005   0.612   4.295  10.258
 3225SOL     OW10006   1.582   4.363   9.782
 3225SOL    HW110007   1.551   4.424   9.855
 3225SOL    HW210008   1.632   4.415   9.713
 3226SOL     OW10009   0.402   4.475  10.908
 3226SOL    HW110010   0.470   4.530  10.861
 3226SOL    HW210011   0.442   4.387  10.935
 3227SOL     OW10012   0.573   4.594  10.339
 3227SOL    HW110013   0.617   4.683  10.330
 3227SOL    HW210014   0.510   4.594  10.416
 3228SOL     OW10015   1.360   4.586  10.355
 3228SOL    HW110016   1.285   4.586  10.289
 3228SOL    HW210017   1.397   4.494  10.364
 3229SOL     OW10018   1.209   4.249   9.585
 3229SOL    HW110019   1.222   4.165   9.639
 3229SOL    HW210020   1.180   4.323   9.645
 3230SOL     OW10021   0.307   3.937  10.541
 3230SOL    HW110022   0.284   3.974  10.631
 3230SOL    HW210023   0.277   3.842  10.535
 3231SOL     OW10024   0.037   5.034  10.592
 3231SOL    HW110025   0.090   4.985  10.660
 3231SOL    HW210026   0.059   5.132  10.597
 3232SOL     OW10027   0.732   4.358  10.374
 3232SOL    HW110028   0.791   4.332  10.298
 3232SOL    HW210029   0.704   4.454  10.363
 3233SOL     OW10030   0.307   3.787   9.928
 3233SOL    HW110031   0.296   3.881   9.961
 3233SOL    HW210032   0.302   3.724  10.005
 3234SOL     OW10033   1.622   4.091   9.684
 3234SOL    HW110034   1.624   4.015   9.748
 3234SOL    HW210035   1.574   4.168   9.724
 3235SOL     OW10036   1.023   4.490  10.276
 3235SOL    HW110037   1.038   4.511  10.372
 3235SOL    HW210038   0.993   4.395  10.267
 3236SOL     OW10039   1.540   3.998   9.435
 3236SOL    HW110040   1.479   3.923   9.458
 3236SOL    HW210041   1.562   4.050   9.518
 3237SOL     OW10042   1.303   4.562   9.352
 3237SOL    HW110043   1.337   4.469   9.367
 3237SOL    HW210044   1.321   4.589   9.257
 3238SOL     OW10045   0.319   4.534  10.259
 3238SOL    HW110046   0.412   4.570  10.264
 3238SOL    HW210047   0.313   4.449  10.311
 3239SOL     OW10048   0.339   4.233  10.316
 3239SOL    HW110049   0.287   4.150  10.299
 3239SOL    HW210050   0.416   4.238  10.252
 3240SOL     OW10051   1.160   3.931  10.787
 3240SOL    HW110052   1.160   3.995  10.864
 3240SOL    HW210053   1.188   3.979  10.704
 3241SOL     OW10054   0.008   5.050   9.510
 3241SOL    HW110055  -0.085   5.071   9.479
 3241SOL    HW210056   0.018   4.951   9.523
 3242SOL     OW10057   1.002   4.520  10.548
 3242SOL    HW110058   1.043   4.488  10.634
 3242SOL    HW210059   0.906   4.493  10.545
 3243SOL     OW10060   0.040   4.268  10.424
 3243SOL    HW110061   0.125   4.235  10.383
 3243SOL    HW210062   0.053   4.283  10.522
 3244SOL     OW10063   0.815   4.296   9.635
 3244SOL    HW110064   0.822   4.207   9.589
 3244SOL    HW210065   0.721   4.330   9.627
 3245SOL     OW10066   1.657   4.328  10.516
 3245SOL    HW110067   1.619   4.259  10.578
 3245SOL    HW210068   1.739   4.292  10.472
 3246SOL     OW10069   0.671   4.188  10.579
 3246SOL    HW110070   0.637   4.099  10.549
 3246SOL    HW210071   0.697   4.242  10.499
 3247SOL     OW10072   0.473   4.224   9.501
 3247SOL    HW110073   0.534   4.304   9.505
 3247SOL    HW210074   0.378   4.255   9.508
 3248SOL     OW10075   0.159   4.861  10.776
 3248SOL    HW110076   0.181   4.800  10.852
 3248SOL    HW210077   0.169   4.812  10.690
 3249SOL     OW10078   1.347   4.783  10.544
 3249SOL    HW110079   1.371   4.720  10.470
 3249SOL    HW210080   1.257   4.823  10.526
 3250SOL     OW10081   1.302   4.579   9.619
 3250SOL    HW110082   1.216   4.548   9.661
 3250SOL    HW210083   1.298   4.565   9.520
 3251SOL     OW10084   0.083   4.982  10.332
 3251SOL    HW110085   0.078   4.981  10.432
 3251SOL    HW210086   0.000   4.941  10.294
 3252SOL     OW10087   1.726   3.859   9.833
 3252SOL    HW110088   1.799   3.842   9.766
 3252SOL    HW210089   1.695   3.772   9.871
 3253SOL     OW10090   1.280   4.651   9.982
 3253SOL    HW110091   1.340   4.570   9.984
 3253SOL    HW210092   1.320   4.720   9.922
 3254SOL     OW10093   0.830   4.997  10.732
 3254SOL    HW110094   0.825   5.030  10.827
 3254SOL    HW210095   0.744   5.016  10.686
 3255SOL     OW10096   1.841   3.899  10.273
 3255SOL    HW110097   1.880   3.814  10.237
 3255SOL    HW210098   1.743   3.901  10.254
 3256SOL     OW10099   0.263   4.050  10.030
 3256SOL    HW110100   0.184   4.101   9.996
 3256SOL    HW210101   0.254   4.035  10.128
 3257SOL     OW10102   0.822   4.726  10.682
 3257SOL    HW110103   0.862   4.725  10.590
 3257SOL    HW210104   0.832   4.818  10.722
 3258SOL     OW10105   0.916   4.634   9.601
 3258SOL    HW110106   0.979   4.672   9.533
 3258SOL    HW210107   0.956   4.551   9.640
 3259SOL     OW10108   0.372   5.012  10.800
 3259SOL    HW110109   0.359   5.105  10.766
 3259SOL    HW210110   0.288   4.960  10.787
 3260SOL     OW10111   1.614   5.016  10.599
 3260SOL    HW110112   1.674   5.019  10.679
 3260SOL    HW210113   1.539   5.080  10.612
 3261SOL     OW10114   1.039   4.822  10.006
 3261SOL    HW110115   0.969   4.775  10.060
 3261SOL    HW210116   1.098   4.754   9.963
 3262SOL     OW10117   1.014   3.960  10.281
 3262SOL    HW110118   1.006   3.924  10.188
 3262SOL    HW210119   1.012   3.884  10.346
 3263SOL     OW10120   1.709   4.109  10.691
 3263SOL    HW110121   1.782   4.178  10.695
 3263SOL    HW210122   1.737   4.034  10.632
 3264SOL     OW10123   0.672   3.927  10.799
 3264SOL    HW110124   0.762   3.911  10.759
 3264SOL    HW210125   0.680   3.932  10.898
 3265SOL     OW10126   0.075   4.069   9.343
 3265SOL    HW110127  -0.017   4.041   9.314
 3265SOL    HW210128   0.106   4.146   9.287
 3266SOL     OW10129   0.072   3.890   9.628
 3266SOL    HW110130   0.055   3.973   9.574
 3266SOL    HW210131   0.162   3.853   9.606
 3267SOL     OW10132   0.613   4.566  10.741
 3267SOL    HW110133   0.669   4.647  10.724
 3267SOL    HW210134   0.672   4.486  10.744
 3268SOL     OW10135   1.674   4.607  10.564
 3268SOL    HW110136   1.647   4.518  10.527
 3268SOL    HW210137   1.675   4.675  10.491
 3269SOL     OW10138   1.225   4.049   9.759
 3269SOL    HW110139   1.290   3.975   9.748
 3269SOL    HW210140   1.245   4.099   9.843
 3270SOL     OW10141   0.594   4.469   9.962
 3270SOL    HW110142   0.644   4.554   9.943
 3270SOL    HW210143   0.506   4.471   9.914
 3271SOL     OW10144   1.730   4.658  10.827
 3271SOL    HW110145   1.768   4.749  10.842
 3271SOL    HW210146   1.722   4.641  10.728
 3272SOL     OW10147   0.859   4.680  10.171
 3272SOL    HW110148   0.913   4.611  10.219
 3272SOL    HW210149   0.827   4.749  10.237
 3273SOL     OW10150   1.083   4.708   9.397
 3273SOL    HW110151   1.060   4.761   9.315
 3273SOL    HW210152   1.164   4.652   9.378
 3274SOL     OW10153   0.079   4.964   9.963
 3274SOL    HW110154   0.078   4.917  10.051
 3274SOL    HW210155   0.161   4.936   9.912
 3275SOL     OW10156   1.824   3.916  10.537
 3275SOL    HW110157   1.820   3.826  10.581
 3275SOL    HW210158   1.827   3.905  10.438
 3276SOL     OW10159   0.428   4.148   9.830
 3276SOL    HW110160   0.458   4.076   9.768
 3276SOL    HW210161   0.389   4.108   9.913
 3277SOL     OW10162   0.317   4.271  10.590
 3277SOL    HW110163   0.355   4.212  10.662
 3277SOL    HW210164   0.357   4.245  10.502
 3278SOL     OW10165   1.424   3.938  10.422
 3278SOL    HW110166   1.476   3.873  10.477
 3278SOL    HW210167   1.375   4.001  10.483
 3279SOL     OW10168   1.001   3.758  10.464
 3279SOL    HW110169   0.938   3.686  10.433
 3279SOL    HW210170   1.094   3.722  10.464
 3280SOL     OW10171   0.770   5.054   9.611
 3280SOL    HW110172   0.724   4.967   9.628
 3280SOL    HW210173   0.861   5.051   9.652
 3281SOL     OW10174   1.352   3.776   9.478
 3281SOL    HW110175   1.387   3.735   9.394
 3281SOL    HW210176   1.262   3.738   9.498
 3282SOL     OW10177   1.300   4.177  10.001
 3282SOL    HW110178   1.241   4.257  10.005
 3282SOL    HW210179   1.315   4.142  10.094
 3283SOL     OW10180   1.593   3.945  10.192
 3283SOL    HW110181   1.509   3.944  10.246
 3283SOL    HW210182   1.595   4.028  10.136
 3284SOL     OW10183   0.039   4.801   9.610
 3284SOL    HW110184   0.138   4.790   9.601
 3284SOL    HW210185  -0.001   4.715   9.642
 3285SOL     OW10186   2.092   0.628   0.113
 3285SOL    HW110187   1.999   0.626   0.150
 3285SOL    HW210188   2.093   0.589   0.021
 3286SOL     OW10189   2.087   0.275   0.996
 3286SOL    HW110190   2.122   0.258   1.088
 3286SOL    HW210191   1.999   0.230   0.984
 3287SOL     OW10192   1.881   0.368   0.647
 3287SOL    HW110193   1.799   0.411   0.686
 3287SOL    HW210194   1.853   0.295   0.584
 3288SOL     OW10195   2.431   1.275   1.165
 3288SOL    HW110196   2.338   1.268   1.128
 3288SOL    HW210197   2.442   1.364   1.209
 3289SOL     OW10198   3.417   1.511   0.703
 3289SOL    HW110199   3.360   1.495   0.784
 3289SOL    HW210200   3.358   1.521   0.623
 3290SOL     OW10201   2.997   0.703   0.717
 3290SOL    HW110202   3.054   0.781   0.692
 3290SOL    HW210203   2.937   0.729   0.793
 3291SOL     OW10204   3.617   0.607   0.231
 3291SOL    HW110205   3.605   0.594   0.132
 3291SOL    HW210206   3.587   0.526   0.280
 3292SOL     OW10207   2.630   1.144   1.023
 3292SOL    HW110208   2.552   1.161   1.083
 3292SOL    HW210209   2.664   1.231   0.987
 3293SOL     OW10210   2.712   0.798   1.823
 3293SOL    HW110211   2.708   0.874   1.888
 3293SOL    HW210212   2.734   0.834   1.732
 3294SOL     OW10213   2.547   1.012   0.665
 3294SOL    HW110214   2.616   0.996   0.735
 3294SOL    HW210215   2.474   1.069   0.703
 3295SOL     OW10216   2.548   1.161   1.803
 3295SOL    HW110217   2.608   1.240   1.817
 3295SOL    HW210218   2.462   1.192   1.762
 3296SOL     OW10219   2.197   1.435   1.061
 3296SOL    HW110220   2.119   1.404   1.008
 3296SOL    HW210221   2.255   1.493   1.004
 3297SOL     OW10222   3.322   1.505   1.339
 3297SOL    HW110223   3.346   1.599   1.365
 3297SOL    HW210224   3.306   1.451   1.421
 3298SOL     OW10225   2.300   0.392   1.499
 3298SOL    HW110226   2.382   0.336   1.508
 3298SOL    HW210227   2.219   0.334   1.503
 3299SOL     OW10228   3.465   0.447   0.737
 3299SOL    HW110229   3.391   0.493   0.687
 3299SOL    HW210230   3.516   0.515   0.790
 3300SOL     OW10231   2.093   1.713   0.483
 3300SOL    HW110232   2.127   1.790   0.537
 3300SOL    HW210233   2.137   1.713   0.393
 3301SOL     OW10234   2.989   1.341   1.690
 3301SOL    HW110235   3.036   1.341   1.778
 3301SOL    HW210236   2.941   1.254   1.679
 3302SOL     OW10237   2.092   1.434   0.538
 3302SOL    HW110238   2.066   1.530   0.538
 3302SOL    HW210239   2.021   1.380   0.583
 3303SOL     OW10240   2.102   1.091   0.886
 3303SOL    HW110241   2.116   1.007   0.938
 3303SOL    HW210242   2.047   1.155   0.941
 3304SOL     OW10243   2.482   1.786   1.439
 3304SOL    HW110244   2.390   1.769   1.474
 3304SOL    HW210245   2.510   1.878   1.465
 3305SOL     OW10246   2.468   0.964   0.123
 3305SOL    HW110247   2.475   1.048   0.069
 3305SOL    HW210248   2.514   0.977   0.211
 3306SOL     OW10249   3.456   0.114   1.480
 3306SOL    HW110250   3.438   0.181   1.408
 3306SOL    HW210251   3.453   0.160   1.569
 3307SOL     OW10252   1.984   0.643   0.563
 3307SOL    HW110253   1.939   0.555   0.580
 3307SOL    HW210254   1.983   0.697   0.647
 3308SOL     OW10255   3.704   1.767   0.359
 3308SOL    HW110256   3.758   1.738   0.439
 3308SOL    HW210257   3.734   1.857   0.330
 3309SOL     OW10258   1.889   1.596   0.117
 3309SOL    HW110259   1.870   1.500   0.138
 3309SOL    HW210260   1.856   1.654   0.192
 3310SOL     OW10261   3.551   0.922   0.612
 3310SOL    HW110262   3.646   0.893   0.620
 3310SOL    HW210263   3.543   0.987   0.537
 3311SOL     OW10264   3.503   1.108   0.432
 3311SOL    HW110265   3.589   1.110   0.380
 3311SOL    HW210266   3.517   1.155   0.520
 3312SOL     OW10267   1.975   0.737   1.597
 3312SOL    HW110268   2.063   0.724   1.642
 3312SOL    HW210269   1.962   0.834   1.575
 3313SOL     OW10270   2.475   1.365   0.726
 3313SOL    HW110271   2.426   1.278   0.735
 3313SOL    HW210272   2.452   1.408   0.639
 3314SOL     OW10273   3.155   1.228   1.423
 3314SOL    HW110274   3.192   1.155   1.365
 3314SOL    HW210275   3.207   1.233   1.508
 3315SOL     OW10276   2.671   0.004   0.502
 3315SOL    HW110277   2.711   0.095   0.493
 3315SOL    HW210278   2.571   0.012   0.508
 3316SOL     OW10279   2.059   0.976   1.264
 3316SOL    HW110280   2.148   0.931   1.250
 3316SOL    HW210281   1.986   0.911   1.245
 3317SOL     OW10282   3.387   0.999   0.190
 3317SOL    HW110283   3.324   0.923   0.203
 3317SOL    HW210284   3.435   1.017   0.276
 3318SOL     OW10285   3.049   1.792   1.616
 3318SOL    HW110286   3.073   1.852   1.540
 3318SOL    HW210287   3.056   1.697   1.586
 3319SOL     OW10288   2.179   0.251   1.801
 3319SOL    HW110289   2.250   0.322   1.807
 3319SOL    HW210290   2.091   0.290   1.829
 3320SOL     OW10291   3.328   1.417   0.953
 3320SOL    HW110292   3.269   1.423   1.033
 3320SOL    HW210293   3.313   1.329   0.907
 3321SOL     OW10294   3.529   1.714   0.572
 3321SOL    HW110295   3.488   1.691   0.484
 3321SOL    HW210296   3.511   1.640   0.637
 3322SOL     OW10297   2.460   0.729   0.270
 3322SOL    HW110298   2.484   0.798   0.202
 3322SOL    HW210299   2.382   0.762   0.324
 3323SOL     OW10300   3.143   0.345   0.944
 3323SOL    HW110301   3.057   0.295   0.931
 3323SOL    HW210302   3.205   0.291   1.000
 3324SOL     OW10303   3.438   1.662   0.307
 3324SOL    HW110304   3.527   1.708   0.310
 3324SOL    HW210305   3.417   1.638   0.212
 3325SOL     OW10306   2.669   0.605   1.465
 3325SOL    HW110307   2.622   0.602   1.554
 3325SOL    HW210308   2.618   0.550   1.399
 3326SOL     OW10309   3.256   0.469   1.674
 3326SOL    HW110310   3.236   0.512   1.762
 3326SOL    HW210311   3.334   0.407   1.683
 3327SOL     OW10312   2.835   0.890   1.572
 3327SOL    HW110313   2.881   0.806   1.543
 3327SOL    HW210314   2.779   0.924   1.497
 3328SOL     OW10315   2.853   0.410   1.242
 3328SOL    HW110316   2.776   0.444   1.296
 3328SOL    HW210317   2.819   0.359   1.163
 3329SOL     OW10318   2.903   0.701   0.429
 3329SOL    HW110319   2.929   0.697   0.525
 3329SOL    HW210320   2.818   0.650   0.415
 3330SOL     OW10321   1.938   0.811   0.789
 3330SOL    HW110322   2.037   0.799   0.798
 3330SOL    HW210323   1.914   0.906   0.810
 3331SOL     OW10324   1.992   1.821   1.571
 3331SOL    HW110325   1.982   1.806   1.670
 3331SOL    HW210326   1.906   1.857   1.535
 3332SOL     OW10327   2.727   0.348   0.195
 3332SOL    HW110328   2.786   0.411   0.146
 3332SOL    HW210329   2.746   0.254   0.166
 3333SOL     OW10330   3.581   0.585   1.831
 3333SOL    HW110331   3.555   0.674   1.795
 3333SOL    HW210332   3.579   0.517   1.758
 3334SOL     OW10333   3.224   1.144   0.545
 3334SOL    HW110334   3.307   1.115   0.497
 3334SOL    HW210335   3.175   1.211   0.489
 3335SOL     OW10336   2.412   0.196   0.885
 3335SOL    HW110337   2.407   0.191   0.985
 3335SOL    HW210338   2.414   0.292   0.856
 3336SOL     OW10339   2.870   1.456   0.477
 3336SOL    HW110340   2.824   1.528   0.425
 3336SOL    HW210341   2.866   1.476   0.575
 3337SOL     OW10342   2.213   1.801   0.853
 3337SOL    HW110343   2.263   1.715   0.859
 3337SOL    HW210344   2.278   1.878   0.850
 3338SOL     OW10345   3.657   1.066   0.873
 3338SOL    HW110346   3.595   1.051   0.797
 3338SOL    HW210347   3.605   1.077   0.958
 3339SOL     OW10348   3.089   1.550   1.506
 3339SOL    HW110349   3.095   1.473   1.570
 3339SOL    HW210350   3.037   1.524   1.426
 3340SOL     OW10351   2.183   0.943   0.242
 3340SOL    HW110352   2.265   0.982   0.200
 3340SOL    HW210353   2.156   0.861   0.193
 3341SOL     OW10354   3.320   0.735   0.728
 3341SOL    HW110355   3.315   0.670   0.803
 3341SOL    HW210356   3.400   0.794   0.741
 3342SOL     OW10357   2.323   1.266   1.727
 3342SOL    HW110358   2.273   1.267   1.641
 3342SOL    HW210359   2.260   1.248   1.803
 3343SOL     OW10360   2.973   1.776   0.237
 3343SOL    HW110361   2.913   1.714   0.287
 3343SOL    HW210362   3.004   1.732   0.152
 3344SOL     OW10363   2.064   0.285   1.498
 3344SOL    HW110364   1.984   0.345   1.485
 3344SOL    HW210365   2.054   0.236   1.584
 3345SOL     OW10366   3.494   1.377   0.081
 3345SOL    HW110367   3.462   1.471   0.071
 3345SOL    HW210368   3.418   1.314   0.069
 3346SOL     OW10369   2.326   1.743   0.323
 3346SOL    HW110370   2.359   1.782   0.409
 3346SOL    HW210371   2.402   1.736   0.258
 3347SOL     OW10372   3.262   0.107   0.426
 3347SOL    HW110373   3.238   0.070   0.336
 3347SOL    HW210374   3.361   0.123   0.430
 3348SOL     OW10375   2.111   1.785   1.241
 3348SOL    HW110376   2.168   1.720   1.291
 3348SOL    HW210377   2.095   1.752   1.148
 3349SOL     OW10378   2.802   1.698   0.904
 3349SOL    HW110379   2.882   1.641   0.925
 3349SOL    HW210380   2.753   1.658   0.827
 3350SOL     OW10381   2.244   0.700   0.480
 3350SOL    HW110382   2.289   0.610   0.477
 3350SOL    HW210383   2.150   0.689   0.513
 3351SOL     OW10384   3.409   0.222   1.729
 3351SOL    HW110385   3.404   0.259   1.821
 3351SOL    HW210386   3.337   0.153   1.717
 3352SOL     OW10387   2.476   0.122   0.117
 3352SOL    HW110388   2.574   0.100   0.124
 3352SOL    HW210389   2.445   0.105   0.024
 3353SOL     OW10390   2.643   0.264   1.749
 3353SOL    HW110391   2.710   0.203   1.792
 3353SOL    HW210392   2.570   0.283   1.814
 3354SOL     OW10393   2.750   1.514   1.195
 3354SOL    HW110394   2.727   1.489   1.101
 3354SOL    HW210395   2.811   1.445   1.234
 3355SOL     OW10396   3.213   0.590   1.433
 3355SOL    HW110397   3.241   0.547   1.518
 3355SOL    HW210398   3.238   0.686   1.434
 3356SOL     OW10399   2.665   1.402   0.924
 3356SOL    HW110400   2.755   1.416   0.882
 3356SOL    HW210401   2.594   1.404   0.853
 3357SOL     OW10402   2.784   0.503   0.899
 3357SOL    HW110403   2.759   0.494   0.803
 3357SOL    HW210404   2.832   0.421   0.930
 3358SOL     OW10405   2.401   0.064   0.512
 3358SOL    HW110406   2.320   0.065   0.570
 3358SOL    HW210407   2.404   0.147   0.457
 3359SOL     OW10408   3.296   1.188   0.041
 3359SOL    HW110409   3.328   1.112   0.098
 3359SOL    HW210410   3.204   1.215   0.071
 3360SOL     OW10411   2.159   0.035   0.171
 3360SOL    HW110412   2.208   0.119   0.150
 3360SOL    HW210413   2.221  -0.030   0.216
 3361SOL     OW10414   2.797   0.236   0.480
 3361SOL    HW110415   2.749   0.277   0.402
 3361SOL    HW210416   2.896   0.234   0.461
 3362SOL     OW10417   2.938   0.683   1.464
 3362SOL    HW110418   2.858   0.622   1.467
 3362SOL    HW210419   3.019   0.630   1.440
 3363SOL     OW10420   3.089   1.570   0.793
 3363SOL    HW110421   3.110   1.644   0.728
 3363SOL    HW210422   3.157   1.570   0.866
 3364SOL     OW10423   2.321   1.152   0.741
 3364SOL    HW110424   2.250   1.125   0.806
 3364SOL    HW210425   2.295   1.124   0.648
 3365SOL     OW10426   3.133   1.797   0.591
 3365SOL    HW110427   3.177   1.861   0.527
 3365SOL    HW210428   3.083   1.849   0.661
 3366SOL     OW10429   2.894   0.549   0.016
 3366SOL    HW110430   2.853   0.631  -0.023
 3366SOL    HW210431   2.958   0.575   0.089
 3367SOL     OW10432   1.940   0.556   1.386
 3367SOL    HW110433   2.032   0.555   1.345
 3367SOL    HW210434   1.934   0.630   1.453
 3368SOL     OW10435   2.423   0.222   1.147
 3368SOL    HW110436   2.461   0.138   1.184
 3368SOL    HW210437   2.335   0.241   1.191
 3369SOL     OW10438   2.728   0.454   0.642
 3369SOL    HW110439   2.696   0.526   0.580
 3369SOL    HW210440   2.752   0.373   0.589
 3370SOL     OW10441   2.879   0.039   0.753
 3370SOL    HW110442   2.807   0.044   0.684
 3370SOL    HW210443   2.855  -0.030   0.822
 3371SOL     OW10444   3.291   1.173   0.867
 3371SOL    HW110445   3.236   1.089   0.860
 3371SOL    HW210446   3.317   1.202   0.775
 3372SOL     OW10447   3.328   0.590   0.992
 3372SOL    HW110448   3.298   0.495   0.999
 3372SOL    HW210449   3.401   0.606   1.058
 3373SOL     OW10450   3.719   0.833   0.377
 3373SOL    HW110451   3.761   0.769   0.441
 3373SOL    HW210452   3.681   0.782   0.299
 3374SOL     OW10453   2.350   1.385   0.174
 3374SOL    HW110454   2.263   1.370   0.221
 3374SOL    HW210455   2.333   1.411   0.079
 3375SOL     OW10456   3.526   1.280   0.657
 3375SOL    HW110457   3.625   1.288   0.671
 3375SOL    HW210458   3.481   1.364   0.688
 3376SOL     OW10459   3.252   0.575   0.078
 3376SOL    HW110460   3.198   0.554   0.159
 3376SOL    HW210461   3.343   0.534   0.087
 3377SOL     OW10462   2.389   0.256   0.328
 3377SOL    HW110463   2.416   0.197   0.253
 3377SOL    HW210464   2.389   0.351   0.297
 3378SOL     OW10465   3.616   1.223   1.588
 3378SOL    HW110466   3.707   1.184   1.575
 3378SOL    HW210467   3.624   1.319   1.612
 3379SOL     OW10468   2.926   1.347   1.340
 3379SOL    HW110469   2.846   1.324   1.395
 3379SOL    HW210470   3.009   1.321   1.389
 3380SOL     OW10471   3.454   1.629   1.625
 3380SOL    HW110472   3.481   1.663   1.535
 3380SOL    HW210473   3.533   1.591   1.671
 3381SOL     OW10474   2.973   1.195   1.100
 3381SOL    HW110475   2.933   1.239   1.181
 3381SOL    HW210476   2.932   1.232   1.017
 3382SOL     OW10477   3.500   1.099   1.079
 3382SOL    HW110478   3.505   1.180   1.138
 3382SOL    HW210479   3.414   1.101   1.028
 3383SOL     OW10480   2.777   0.089   1.402
 3383SOL    HW110481   2.802   0.069   1.307
 3383SOL    HW210482   2.849   0.145   1.444
 3384SOL     OW10483   2.842   1.116   1.719
 3384SOL    HW110484   2.743   1.122   1.729
 3384SOL    HW210485   2.865   1.036   1.663
 3385SOL     OW10486   2.567   1.050   0.368
 3385SOL    HW110487   2.553   1.057   0.467
 3385SOL    HW210488   2.651   0.999   0.350
 3386SOL     OW10489   2.272   0.813   1.251
 3386SOL    HW110490   2.358   0.825   1.301
 3386SOL    HW210491   2.230   0.726   1.278
 3387SOL     OW10492   3.136   0.386   1.262
 3387SOL    HW110493   3.157   0.460   1.326
 3387SOL    HW210494   3.047   0.403   1.219
 3388SOL     OW10495   1.926   1.564   1.331
 3388SOL    HW110496   1.880   1.646   1.297
 3388SOL    HW210497   2.024   1.583   1.340
 3389SOL     OW10498   2.229   1.100   0.501
 3389SOL    HW110499   2.222   1.183   0.445
 3389SOL    HW210500   2.233   1.020   0.441
 3390SOL     OW10501   2.428   0.537   0.865
 3390SOL    HW110502   2.440   0.603   0.791
 3390SOL    HW210503   2.474   0.571   0.948
 3391SOL     OW10504   3.114   1.348   0.388
 3391SOL    HW110505   3.164   1.425   0.428
 3391SOL    HW210506   3.019   1.350   0.420
 3392SOL     OW10507   3.134   1.445   1.142
 3392SOL    HW110508   3.181   1.458   1.229
 3392SOL    HW210509   3.068   1.371   1.151
 3393SOL     OW10510   3.444   0.639   0.472
 3393SOL    HW110511   3.413   0.700   0.545
 3393SOL    HW210512   3.494   0.691   0.403
 3394SOL     OW10513   2.216   1.510   1.329
 3394SOL    HW110514   2.195   1.466   1.242
 3394SOL    HW210515   2.313   1.536   1.332
 3395SOL     OW10516   2.264   0.751   1.598
 3395SOL    HW110517   2.332   0.806   1.551
 3395SOL    HW210518   2.304   0.663   1.625
 3396SOL     OW10519   3.449   0.779   1.670
 3396SOL    HW110520   3.357   0.817   1.665
 3396SOL    HW210521   3.509   0.826   1.605
 3397SOL     OW10522   2.875   0.105   1.770
 3397SOL    HW110523   2.881   0.190   1.718
 3397SOL    HW210524   2.907   0.029   1.713
 3398SOL     OW10525   2.366   0.050   1.740
 3398SOL    HW110526   2.324  -0.007   1.670
 3398SOL    HW210527   2.300   0.119   1.772
 3399SOL     OW10528   2.435   0.870   1.029
 3399SOL    HW110529   2.479   0.959   1.020
 3399SOL    HW210530   2.372   0.870   1.106
 3400SOL     OW10531   3.222   0.862   1.045
 3400SOL    HW110532   3.147   0.862   0.979
 3400SOL    HW210533   3.259   0.770   1.054
 3401SOL     OW10534   3.071   0.525   0.275
 3401SOL    HW110535   3.084   0.441   0.329
 3401SOL    HW210536   3.042   0.599   0.335
 3402SOL     OW10537   2.169   0.213   1.231
 3402SOL    HW110538   2.146   0.250   1.321
 3402SOL    HW210539   2.139   0.118   1.225
 3403SOL     OW10540   1.899   1.310   1.282
 3403SOL    HW110541   1.952   1.261   1.350
 3403SOL    HW210542   1.921   1.408   1.287
 3404SOL     OW10543   2.594   0.634   1.064
 3404SOL    HW110544   2.653   0.608   0.988
 3404SOL    HW210545   2.566   0.730   1.053
 3405SOL     OW10546   3.590   0.935   1.854
 3405SOL    HW110547   3.544   0.928   1.765
 3405SOL    HW210548   3.528   0.979   1.920
 3406SOL     OW10549   2.169   0.063   0.618
 3406SOL    HW110550   2.158   0.157   0.651
 3406SOL    HW210551   2.164   0.000   0.695
 3407SOL     OW10552   3.484   0.367   0.374
 3407SOL    HW110553   3.486   0.291   0.438
 3407SOL    HW210554   3.436   0.444   0.414
 3408SOL     OW10555   2.885   0.766   0.966
 3408SOL    HW110556   2.900   0.787   1.062
 3408SOL    HW210557   2.855   0.671   0.957
 3409SOL     OW10558   2.842   1.573   1.700
 3409SOL    HW110559   2.822   1.617   1.612
 3409SOL    HW210560   2.881   1.482   1.684
 3410SOL     OW10561   3.721   1.518   1.605
 3410SOL    HW110562   3.735   1.545   1.510
 3410SOL    HW210563   3.804   1.540   1.658
 3411SOL     OW10564   2.212   0.898   1.804
 3411SOL    HW110565   2.288   0.942   1.852
 3411SOL    HW210566   2.247   0.851   1.722
 3412SOL     OW10567   3.402   0.274   0.125
 3412SOL    HW110568   3.341   0.199   0.148
 3412SOL    HW210569   3.424   0.326   0.208
 3413SOL     OW10570   3.165   0.838   0.042
 3413SOL    HW110571   3.199   0.745   0.057
 3413SOL    HW210572   3.183   0.865  -0.053
 3414SOL     OW10573   2.930   1.333   0.849
 3414SOL    HW110574   2.937   1.249   0.794
 3414SOL    HW210575   2.992   1.402   0.813
 3415SOL     OW10576   2.181   0.810   0.949
 3415SOL    HW110577   2.274   0.846   0.954
 3415SOL    HW210578   2.175   0.725   1.001
 3416SOL     OW10579   2.201   0.509   1.006
 3416SOL    HW110580   2.149   0.426   0.989
 3416SOL    HW210581   2.278   0.514   0.942
 3417SOL     OW10582   3.000   0.380   1.678
 3417SOL    HW110583   2.955   0.443   1.742
 3417SOL    HW210584   3.093   0.411   1.661
 3418SOL     OW10585   3.022   0.207   1.477
 3418SOL    HW110586   3.022   0.271   1.554
 3418SOL    HW210587   3.050   0.255   1.394
 3419SOL     OW10588   1.870   1.326   0.200
 3419SOL    HW110589   1.777   1.347   0.169
 3419SOL    HW210590   1.880   1.227   0.213
 3420SOL     OW10591   1.950   1.801   0.927
 3420SOL    HW110592   1.908   1.715   0.900
 3420SOL    HW210593   2.044   1.804   0.893
 3421SOL     OW10594   2.366   1.568   0.910
 3421SOL    HW110595   2.432   1.642   0.919
 3421SOL    HW210596   2.410   1.489   0.868
 3422SOL     OW10597   2.864   0.796   1.238
 3422SOL    HW110598   2.905   0.764   1.324
 3422SOL    HW210599   2.768   0.769   1.235
 3423SOL     OW10600   1.902   0.544   1.114
 3423SOL    HW110601   1.987   0.511   1.073
 3423SOL    HW210602   1.915   0.559   1.212
 3424SOL     OW10603   2.051   0.520   1.722
 3424SOL    HW110604   2.110   0.480   1.652
 3424SOL    HW210605   1.993   0.591   1.681
 3425SOL     OW10606   3.231   0.950   1.660
 3425SOL    HW110607   3.270   1.039   1.680
 3425SOL    HW210608   3.241   0.930   1.563
 3426SOL     OW10609   2.677   0.572   0.325
 3426SOL    HW110610   2.684   0.483   0.279
 3426SOL    HW210611   2.583   0.606   0.317
 3427SOL     OW10612   3.519   0.604   1.206
 3427SOL    HW110613   3.481   0.535   1.268
 3427SOL    HW210614   3.601   0.568   1.162
 3428SOL     OW10615   2.114   1.564   1.744
 3428SOL    HW110616   2.084   1.621   1.820
 3428SOL    HW210617   2.107   1.467   1.770
 3429SOL     OW10618   2.533   0.464   1.269
 3429SOL    HW110619   2.499   0.375   1.239
 3429SOL    HW210620   2.559   0.518   1.189
 3430SOL     OW10621   2.792   1.678   1.465
 3430SOL    HW110622   2.768   1.660   1.370
 3430SOL    HW210623   2.822   1.772   1.475
 3431SOL     OW10624   2.335   0.500   0.191
 3431SOL    HW110625   2.396   0.580   0.195
 3431SOL    HW210626   2.240   0.531   0.198
 3432SOL     OW10627   2.021   1.137   1.466
 3432SOL    HW110628   2.043   1.076   1.542
 3432SOL    HW210629   2.031   1.088   1.380
 3433SOL     OW10630   3.209   1.059   1.234
 3433SOL    HW110631   3.233   0.996   1.160
 3433SOL    HW210632   3.119   1.099   1.216
 3434SOL     OW10633   3.164   0.855   0.309
 3434SOL    HW110634   3.078   0.824   0.351
 3434SOL    HW210635   3.160   0.841   0.210
 3435SOL     OW10636   3.621   1.747   1.154
 3435SOL    HW110637   3.682   1.777   1.081
 3435SOL    HW210638   3.583   1.658   1.132
 3436SOL     OW10639   3.114   1.731   1.128
 3436SOL    HW110640   3.198   1.736   1.074
 3436SOL    HW210641   3.091   1.635   1.146
 3437SOL     OW10642   1.945   1.258   1.022
 3437SOL    HW110643   1.940   1.257   1.122
 3437SOL    HW210644   1.862   1.217   0.984
 3438SOL     OW10645   2.550   1.662   1.716
 3438SOL    HW110646   2.494   1.743   1.725
 3438SOL    HW210647   2.602   1.666   1.630
 3439SOL     OW10648   2.765   0.086   0.133
 3439SOL    HW110649   2.816   0.087   0.047
 3439SOL    HW210650   2.821   0.044   0.204
 3440SOL     OW10651   3.588   0.135   0.523
 3440SOL    HW110652   3.661   0.118   0.456
 3440SOL    HW210653   3.557   0.048   0.561
 3441SOL     OW10654   3.250   1.573   0.477
 3441SOL    HW110655   3.317   1.585   0.403
 3441SOL    HW210656   3.210   1.662   0.500
 3442SOL     OW10657   1.992   1.794   1.851
 3442SOL    HW110658   1.951   1.720   1.904
 3442SOL    HW210659   2.056   1.845   1.909
 3443SOL     OW10660   3.142   0.927   0.672
 3443SOL    HW110661   3.202   0.846   0.674
 3443SOL    HW210662   3.182   0.996   0.612
 3444SOL     OW10663   2.692   1.273   1.422
 3444SOL    HW110664   2.687   1.306   1.517
 3444SOL    HW210665   2.606   1.292   1.376
 3445SOL     OW10666   2.534   1.616   0.154
 3445SOL    HW110667   2.543   1.626   0.055
 3445SOL    HW210668   2.494   1.527   0.175
 3446SOL     OW10669   3.512   1.720   1.394
 3446SOL    HW110670   3.565   1.730   1.310
 3446SOL    HW210671   3.485   1.810   1.428
 3447SOL     OW10672   3.703   0.175   0.963
 3447SOL    HW110673   3.742   0.090   0.927
 3447SOL    HW210674   3.605   0.177   0.944
 3448SOL     OW10675   2.125   0.326   0.720
 3448SOL    HW110676   2.046   0.377   0.686
 3448SOL    HW210677   2.116   0.311   0.818
 3449SOL     OW10678   3.056   1.612   0.031
 3449SOL    HW110679   3.062   1.519   0.068
 3449SOL    HW210680   2.997   1.612  -0.049
 3450SOL     OW10681   2.684   1.002   1.372
 3450SOL    HW110682   2.724   1.001   1.280
 3450SOL    HW210683   2.694   1.094   1.412
 3451SOL     OW10684   2.778   0.910   0.291
 3451SOL    HW110685   2.841   0.948   0.223
 3451SOL    HW210686   2.818   0.827   0.330
 3452SOL     OW10687   3.366   1.607   0.044
 3452SOL    HW110688   3.274   1.644   0.051
 3452SOL    HW210689   3.404   1.627  -0.046
 3453SOL     OW10690   2.234   1.288   1.490
 3453SOL    HW110691   2.221   1.381   1.456
 3453SOL    HW210692   2.150   1.236   1.477
 3454SOL     OW10693   3.476   1.292   1.289
 3454SOL    HW110694   3.536   1.295   1.369
 3454SOL    HW210695   3.401   1.356   1.302
 3455SOL     OW10696   2.901   1.098   0.696
 3455SOL    HW110697   2.831   1.051   0.750
 3455SOL    HW210698   2.960   1.030   0.653
 3456SOL     OW10699   2.876   0.236   0.971
 3456SOL    HW110700   2.868   0.200   0.878
 3456SOL    HW210701   2.874   0.160   1.036
 3457SOL     OW10702   2.452   1.487   0.491
 3457SOL    HW110703   2.494   1.429   0.421
 3457SOL    HW210704   2.408   1.566   0.447
 3458SOL     OW10705   3.571   0.385   1.381
 3458SOL    HW110706   3.644   0.454   1.385
 3458SOL    HW210707   3.599   0.310   1.322
 3459SOL     OW10708   2.117   1.348   0.290
 3459SOL    HW110709   2.021   1.349   0.263
 3459SOL    HW210710   2.129   1.401   0.374
 3460SOL     OW10711   1.967   1.013   1.726
 3460SOL    HW110712   1.890   0.980   1.780
 3460SOL    HW210713   2.052   0.983   1.768
 3461SOL     OW10714   2.534   0.203   1.489
 3461SOL    HW110715   2.624   0.187   1.449
 3461SOL    HW210716   2.542   0.208   1.588
 3462SOL     OW10717   1.937   0.345   0.033
 3462SOL    HW110718   1.845   0.317   0.004
 3462SOL    HW210719   1.968   0.422  -0.023
 3463SOL     OW10720   3.302   0.856   1.398
 3463SOL    HW110721   3.245   0.908   1.335
 3463SOL    HW210722   3.398   0.868   1.374
 3464SOL     OW10723   1.934   0.166   0.318
 3464SOL    HW110724   1.917   0.249   0.264
 3464SOL    HW210725   2.024   0.129   0.296
 3465SOL     OW10726   3.045   1.335   0.119
 3465SOL    HW110727   2.946   1.324   0.121
 3465SOL    HW210728   3.079   1.350   0.212
 3466SOL     OW10729   2.475   0.842   1.431
 3466SOL    HW110730   2.531   0.923   1.414
 3466SOL    HW210731   2.534   0.762   1.434
 3467SOL     OW10732   3.355   1.767   0.959
 3467SOL    HW110733   3.388   1.831   0.890
 3467SOL    HW210734   3.421   1.761   1.034
 3468SOL     OW10735   2.578   0.565   1.708
 3468SOL    HW110736   2.597   0.630   1.782
 3468SOL    HW210737   2.638   0.485   1.717
 3469SOL     OW10738   3.312   1.220   1.633
 3469SOL    HW110739   3.303   1.210   1.732
 3469SOL    HW210740   3.408   1.213   1.607
 3470SOL     OW10741   2.252   1.741   1.560
 3470SOL    HW110742   2.161   1.782   1.558
 3470SOL    HW210743   2.245   1.647   1.592
 3471SOL     OW10744   3.536   0.883   1.254
 3471SOL    HW110745   3.509   0.794   1.217
 3471SOL    HW210746   3.537   0.951   1.181
 3472SOL     OW10747   3.087   0.325   0.449
 3472SOL    HW110748   3.152   0.251   0.438
 3472SOL    HW210749   3.107   0.375   0.533
 3473SOL     OW10750   2.456   0.745   0.652
 3473SOL    HW110751   2.506   0.830   0.633
 3473SOL    HW210752   2.368   0.747   0.604
 3474SOL     OW10753   3.639   0.342   1.642
 3474SOL    HW110754   3.622   0.373   1.548
 3474SOL    HW210755   3.555   0.305   1.680
 3475SOL     OW10756   3.592   0.934   1.517
 3475SOL    HW110757   3.630   1.025   1.532
 3475SOL    HW210758   3.584   0.917   1.418
 3476SOL     OW10759   2.721   1.374   0.016
 3476SOL    HW110760   2.675   1.389   0.104
 3476SOL    HW210761   2.765   1.459  -0.014
 3477SOL     OW10762   2.523   1.790   0.953
 3477SOL    HW110763   2.477   1.878   0.940
 3477SOL    HW210764   2.622   1.802   0.946
 3478SOL     OW10765   2.721   0.956   0.861
 3478SOL    HW110766   2.775   0.887   0.909
 3478SOL    HW210767   2.689   1.025   0.927
 3479SOL     OW10768   2.945   0.984   0.087
 3479SOL    HW110769   2.922   1.037   0.005
 3479SOL    HW210770   3.026   0.928   0.068
 3480SOL     OW10771   3.723   1.569   0.851
 3480SOL    HW110772   3.652   1.557   0.781
 3480SOL    HW210773   3.724   1.490   0.911
 3481SOL     OW10774   2.083   1.314   1.844
 3481SOL    HW110775   2.018   1.241   1.823
 3481SOL    HW210776   2.087   1.328   1.942
 3482SOL     OW10777   1.941   1.240   0.653
 3482SOL    HW110778   1.940   1.193   0.741
 3482SOL    HW210779   2.023   1.212   0.602
 3483SOL     OW10780   2.534   1.391   1.624
 3483SOL    HW110781   2.456   1.341   1.662
 3483SOL    HW210782   2.531   1.486   1.655
 3484SOL     OW10783   3.686   0.192   1.227
 3484SOL    HW110784   3.682   0.102   1.271
 3484SOL    HW210785   3.689   0.181   1.128
 3485SOL     OW10786   2.290   0.424   0.520
 3485SOL    HW110787   2.320   0.352   0.458
 3485SOL    HW210788   2.251   0.384   0.603
 3486SOL     OW10789   3.567   1.487   1.104
 3486SOL    HW110790   3.474   1.462   1.077
 3486SOL    HW210791   3.593   1.437   1.186
 3487SOL     OW10792   2.179   0.547   1.280
 3487SOL    HW110793   2.217   0.488   1.352
 3487SOL    HW210794   2.219   0.521   1.192
 3488SOL     OW10795   2.674   1.586   0.687
 3488SOL    HW110796   2.706   1.596   0.593
 3488SOL    HW210797   2.595   1.524   0.689
 3489SOL     OW10798   3.286   0.214   1.112
 3489SOL    HW110799   3.338   0.149   1.167
 3489SOL    HW210800   3.237   0.277   1.173
 3490SOL     OW10801   2.863   0.034   1.154
 3490SOL    HW110802   2.800  -0.038   1.123
 3490SOL    HW210803   2.956  -0.002   1.154
 3491SOL     OW10804   2.632   1.330   0.301
 3491SOL    HW110805   2.586   1.243   0.318
 3491SOL    HW210806   2.723   1.327   0.342
 3492SOL     OW10807   2.480   1.567   1.284
 3492SOL    HW110808   2.475   1.649   1.341
 3492SOL    HW210809   2.569   1.564   1.239
 3493SOL     OW10810   3.214   0.052   0.168
 3493SOL    HW110811   3.249   0.011   0.084
 3493SOL    HW210812   3.124   0.014   0.188
 3494SOL     OW10813   3.162   0.453   0.691
 3494SOL    HW110814   3.103   0.533   0.695
 3494SOL    HW210815   3.177   0.418   0.784
 3495SOL     OW10816   3.455   0.221   0.882
 3495SOL    HW110817   3.371   0.220   0.936
 3495SOL    HW210818   3.457   0.304   0.826
 3496SOL     OW10819   1.901   1.077   0.300
 3496SOL    HW110820   2.000   1.066   0.291
 3496SOL    HW210821   1.861   0.991   0.332
 3497SOL     OW10822   2.737   1.646   0.337
 3497SOL    HW110823   2.660   1.611   0.283
 3497SOL    HW210824   2.705   1.717   0.399
 3498SOL     OW10825   2.092   0.628   1.975
 3498SOL    HW110826   1.999   0.626   2.012
 3498SOL    HW210827   2.093   0.589   1.883
 3499SOL     OW10828   2.087   0.275   2.858
 3499SOL    HW110829   2.122   0.258   2.950
 3499SOL    HW210830   1.999   0.230   2.846
 3500SOL     OW10831   1.881   0.368   2.509
 3500SOL    HW110832   1.799   0.411   2.548
 3500SOL    HW210833   1.853   0.295   2.446
 3501SOL     OW10834   2.431   1.275   3.027
 3501SOL    HW110835   2.338   1.268   2.990
 3501SOL    HW210836   2.442   1.364   3.071
 3502SOL     OW10837   3.417   1.511   2.565
 3502SOL    HW110838   3.360   1.495   2.646
 3502SOL    HW210839   3.358   1.521   2.485
 3503SOL     OW10840   2.997   0.703   2.579
 3503SOL    HW110841   3.054   0.781   2.554
 3503SOL    HW210842   2.937   0.729   2.655
 3504SOL     OW10843   3.617   0.607   2.093
 3504SOL    HW110844   3.605   0.594   1.994
 3504SOL    HW210845   3.587   0.526   2.142
 3505SOL     OW10846   2.630   1.144   2.885
 3505SOL    HW110847   2.552   1.161   2.945
 3505SOL    HW210848   2.664   1.231   2.849
 3506SOL     OW10849   2.712   0.798   3.685
 3506SOL    HW110850   2.708   0.874   3.750
 3506SOL    HW210851   2.734   0.834   3.594
 3507SOL     OW10852   2.547   1.012   2.527
 3507SOL    HW110853   2.616   0.996   2.597
 3507SOL    HW210854   2.474   1.069   2.565
 3508SOL     OW10855   2.548   1.161   3.665
 3508SOL    HW110856   2.608   1.240   3.679
 3508SOL    HW210857   2.462   1.192   3.624
 3509SOL     OW10858   2.197   1.435   2.923
 3509SOL    HW110859   2.119   1.404   2.870
 3509SOL    HW210860   2.255   1.493   2.866
 3510SOL     OW10861   3.322   1.505   3.201
 3510SOL    HW110862   3.346   1.599   3.227
 3510SOL    HW210863   3.306   1.451   3.283
 3511SOL     OW10864   2.300   0.392   3.361
 3511SOL    HW110865   2.382   0.336   3.370
 3511SOL    HW210866   2.219   0.334   3.365
 3512SOL     OW10867   3.465   0.447   2.599
 3512SOL    HW110868   3.391   0.493   2.549
 3512SOL    HW210869   3.516   0.515   2.652
 3513SOL     OW10870   2.093   1.713   2.345
 3513SOL    HW110871   2.127   1.790   2.399
 3513SOL    HW210872   2.137   1.713   2.255
 3514SOL     OW10873   2.989   1.341   3.552
 3514SOL    HW110874   3.036   1.341   3.640
 3514SOL    HW210875   2.941   1.254   3.541
 3515SOL     OW10876   2.092   1.434   2.400
 3515SOL    HW110877   2.066   1.530   2.400
 3515SOL    HW210878   2.021   1.380   2.445
 3516SOL     OW10879   2.102   1.091   2.748
 3516SOL    HW110880   2.116   1.007   2.800
 3516SOL    HW210881   2.047   1.155   2.803
 3517SOL     OW10882   2.482   1.786   3.301
 3517SOL    HW110883   2.390   1.769   3.336
 3517SOL    HW210884   2.510   1.878   3.327
 3518SOL     OW10885   2.468   0.964   1.985
 3518SOL    HW110886   2.475   1.048   1.931
 3518SOL    HW210887   2.514   0.977   2.073
 3519SOL     OW10888   3.456   0.114   3.342
 3519SOL    HW110889   3.438   0.181   3.270
 3519SOL    HW210890   3.453   0.160   3.431
 3520SOL     OW10891   1.984   0.643   2.425
 3520SOL    HW110892   1.939   0.555   2.442
 3520SOL    HW210893   1.983   0.697   2.509
 3521SOL     OW10894   3.704   1.767   2.221
 3521SOL    HW110895   3.758   1.738   2.301
 3521SOL    HW210896   3.734   1.857   2.192
 3522SOL     OW10897   1.889   1.596   1.979
 3522SOL    HW110898   1.870   1.500   2.000
 3522SOL    HW210899   1.856   1.654   2.054
 3523SOL     OW10900   3.551   0.922   2.474
 3523SOL    HW110901   3.646   0.893   2.482
 3523SOL    HW210902   3.543   0.987   2.399
 3524SOL     OW10903   3.503   1.108   2.294
 3524SOL    HW110904   3.589   1.110   2.242
 3524SOL    HW210905   3.517   1.155   2.382
 3525SOL     OW10906   1.975   0.737   3.459
 3525SOL    HW110907   2.063   0.724   3.504
 3525SOL    HW210908   1.962   0.834   3.437
 3526SOL     OW10909   2.475   1.365   2.588
 3526SOL    HW110910   2.426   1.278   2.597
 3526SOL    HW210911   2.452   1.408   2.501
 3527SOL     OW10912   3.155   1.228   3.285
 3527SOL    HW110913   3.192   1.155   3.227
 3527SOL    HW210914   3.207   1.233   3.370
 3528SOL     OW10915   2.671   0.004   2.364
 3528SOL    HW110916   2.711   0.095   2.355
 3528SOL    HW210917   2.571   0.012   2.370
 3529SOL     OW10918   2.059   0.976   3.126
 3529SOL    HW110919   2.148   0.931   3.112
 3529SOL    HW210920   1.986   0.911   3.107
 3530SOL     OW10921   3.387   0.999   2.052
 3530SOL    HW110922   3.324   0.923   2.065
 3530SOL    HW210923   3.435   1.017   2.138
 3531SOL     OW10924   3.049   1.792   3.478
 3531SOL    HW110925   3.073   1.852   3.402
 3531SOL    HW210926   3.056   1.697   3.448
 3532SOL     OW10927   2.179   0.251   3.663
 3532SOL    HW110928   2.250   0.322   3.669
 3532SOL    HW210929   2.091   0.290   3.691
 3533SOL     OW10930   3.328   1.417   2.815
 3533SOL    HW110931   3.269   1.423   2.895
 3533SOL    HW210932   3.313   1.329   2.769
 3534SOL     OW10933   3.529   1.714   2.434
 3534SOL    HW110934   3.488   1.691   2.346
 3534SOL    HW210935   3.511   1.640   2.499
 3535SOL     OW10936   2.460   0.729   2.132
 3535SOL    HW110937   2.484   0.798   2.064
 3535SOL    HW210938   2.382   0.762   2.186
 3536SOL     OW10939   3.143   0.345   2.806
 3536SOL    HW110940   3.057   0.295   2.793
 3536SOL    HW210941   3.205   0.291   2.862
 3537SOL     OW10942   3.438   1.662   2.169
 3537SOL    HW110943   3.527   1.708   2.172
 3537SOL    HW210944   3.417   1.638   2.074
 3538SOL     OW10945   2.669   0.605   3.327
 3538SOL    HW110946   2.622   0.602   3.416
 3538SOL    HW210947   2.618   0.550   3.261
 3539SOL     OW10948   3.256   0.469   3.536
 3539SOL    HW110949   3.236   0.512   3.624
 3539SOL    HW210950   3.334   0.407   3.545
 3540SOL     OW10951   2.835   0.890   3.434
 3540SOL    HW110952   2.881   0.806   3.405
 3540SOL    HW210953   2.779   0.924   3.359
 3541SOL     OW10954   2.853   0.410   3.104
 3541SOL    HW110955   2.776   0.444   3.158
 3541SOL    HW210956   2.819   0.359   3.025
 3542SOL     OW10957   2.903   0.701   2.291
 3542SOL    HW110958   2.929   0.697   2.387
 3542SOL    HW210959   2.818   0.650   2.277
 3543SOL     OW10960   1.938   0.811   2.651
 3543SOL    HW110961   2.037   0.799   2.660
 3543SOL    HW210962   1.914   0.906   2.672
 3544SOL     OW10963   1.992   1.821   3.433
 3544SOL    HW110964   1.982   1.806   3.532
 3544SOL    HW210965   1.906   1.857   3.397
 3545SOL     OW10966   2.727   0.348   2.057
 3545SOL    HW110967   2.786   0.411   2.008
 3545SOL    HW210968   2.746   0.254   2.028
 3546SOL     OW10969   3.581   0.585   3.693
 3546SOL    HW110970   3.555   0.674   3.657
 3546SOL    HW210971   3.579   0.517   3.620
 3547SOL     OW10972   3.224   1.144   2.407
 3547SOL    HW110973   3.307   1.115   2.359
 3547SOL    HW210974   3.175   1.211   2.351
 3548SOL     OW10975   2.412   0.196   2.747
 3548SOL    HW110976   2.407   0.191   2.847
 3548SOL    HW210977   2.414   0.292   2.718
 3549SOL     OW10978   2.870   1.456   2.339
 3549SOL    HW110979   2.824   1.528   2.287
 3549SOL    HW210980   2.866   1.476   2.437
 3550SOL     OW10981   2.213   1.801   2.715
 3550SOL    HW110982   2.263   1.715   2.721
 3550SOL    HW210983   2.278   1.878   2.712
 3551SOL     OW10984   3.657   1.066   2.735
 3551SOL    HW110985   3.595   1.051   2.659
 3551SOL    HW210986   3.605   1.077   2.820
 3552SOL     OW10987   3.089   1.550   3.368
 3552SOL    HW110988   3.095   1.473   3.432
 3552SOL    HW210989   3.037   1.524   3.288
 3553SOL     OW10990   2.183   0.943   2.104
 3553SOL    HW110991   2.265   0.982   2.062
 3553SOL    HW210992   2.156   0.861   2.055
 3554SOL     OW10993   3.320   0.735   2.590
 3554SOL    HW110994   3.315   0.670   2.665
 3554SOL    HW210995   3.400   0.794   2.603
 3555SOL     OW10996   2.323   1.266   3.589
 3555SOL    HW110997   2.273   1.267   3.503
 3555SOL    HW210998   2.260   1.248   3.665
 3556SOL     OW10999   2.973   1.776   2.099
 3556SOL    HW111000   2.913   1.714   2.149
 3556SOL    HW211001   3.004   1.732   2.014
 3557SOL     OW11002   2.064   0.285   3.360
 3557SOL    HW111003   1.984   0.345   3.347
 3557SOL    HW211004   2.054   0.236   3.446
 3558SOL     OW11005   3.494   1.377   1.943
 3558SOL    HW111006   3.462   1.471   1.933
 3558SOL    HW211007   3.418   1.314   1.931
 3559SOL     OW11008   2.326   1.743   2.185
 3559SOL    HW111009   2.359   1.782   2.271
 3559SOL    HW211010   2.402   1.736   2.120
 3560SOL     OW11011   3.262   0.107   2.288
 3560SOL    HW111012   3.238   0.070   2.198
 3560SOL    HW211013   3.361   0.123   2.292
 3561SOL     OW11014   2.111   1.785   3.103
 3561SOL    HW111015   2.168   1.720   3.153
 3561SOL    HW211016   2.095   1.752   3.010
 3562SOL     OW11017   2.802   1.698   2.766
 3562SOL    HW111018   2.882   1.641   2.787
 3562SOL    HW211019   2.753   1.658   2.689
 3563SOL     OW11020   2.244   0.700   2.342
 3563SOL    HW111021   2.289   0.610   2.339
 3563SOL    HW211022   2.150   0.689   2.375
 3564SOL     OW11023   3.409   0.222   3.591
 3564SOL    HW111024   3.404   0.259   3.683
 3564SOL    HW211025   3.337   0.153   3.579
 3565SOL     OW11026   2.476   0.122   1.979
 3565SOL    HW111027   2.574   0.100   1.986
 3565SOL    HW211028   2.445   0.105   1.886
 3566SOL     OW11029   2.643   0.264   3.611
 3566SOL    HW111030   2.710   0.203   3.654
 3566SOL    HW211031   2.570   0.283   3.676
 3567SOL     OW11032   2.750   1.514   3.057
 3567SOL    HW111033   2.727   1.489   2.963
 3567SOL    HW211034   2.811   1.445   3.096
 3568SOL     OW11035   3.213   0.590   3.295
 3568SOL    HW111036   3.241   0.547   3.380
 3568SOL    HW211037   3.238   0.686   3.296
 3569SOL     OW11038   2.665   1.402   2.786
 3569SOL    HW111039   2.755   1.416   2.744
 3569SOL    HW211040   2.594   1.404   2.715
 3570SOL     OW11041   2.784   0.503   2.761
 3570SOL    HW111042   2.759   0.494   2.665
 3570SOL    HW211043   2.832   0.421   2.792
 3571SOL     OW11044   2.401   0.064   2.374
 3571SOL    HW111045   2.320   0.065   2.432
 3571SOL    HW211046   2.404   0.147   2.319
 3572SOL     OW11047   3.296   1.188   1.903
 3572SOL    HW111048   3.328   1.112   1.960
 3572SOL    HW211049   3.204   1.215   1.933
 3573SOL     OW11050   2.159   0.035   2.033
 3573SOL    HW111051   2.208   0.119   2.012
 3573SOL    HW211052   2.221  -0.030   2.078
 3574SOL     OW11053   2.797   0.236   2.342
 3574SOL    HW111054   2.749   0.277   2.264
 3574SOL    HW211055   2.896   0.234   2.323
 3575SOL     OW11056   2.938   0.683   3.326
 3575SOL    HW111057   2.858   0.622   3.329
 3575SOL    HW211058   3.019   0.630   3.302
 3576SOL     OW11059   3.089   1.570   2.655
 3576SOL    HW111060   3.110   1.644   2.590
 3576SOL    HW211061   3.157   1.570   2.728
 3577SOL     OW11062   2.321   1.152   2.603
 3577SOL    HW111063   2.250   1.125   2.668
 3577SOL    HW211064   2.295   1.124   2.510
 3578SOL     OW11065   3.133   1.797   2.453
 3578SOL    HW111066   3.177   1.861   2.389
 3578SOL    HW211067   3.083   1.849   2.523
 3579SOL     OW11068   2.894   0.549   1.878
 3579SOL    HW111069   2.853   0.631   1.839
 3579SOL    HW211070   2.958   0.575   1.951
 3580SOL     OW11071   1.940   0.556   3.248
 3580SOL    HW111072   2.032   0.555   3.207
 3580SOL    HW211073   1.934   0.630   3.315
 3581SOL     OW11074   2.423   0.222   3.009
 3581SOL    HW111075   2.461   0.138   3.046
 3581SOL    HW211076   2.335   0.241   3.053
 3582SOL     OW11077   2.728   0.454   2.504
 3582SOL    HW111078   2.696   0.526   2.442
 3582SOL    HW211079   2.752   0.373   2.451
 3583SOL     OW11080   2.879   0.039   2.615
 3583SOL    HW111081   2.807   0.044   2.546
 3583SOL    HW211082   2.855  -0.030   2.684
 3584SOL     OW11083   3.291   1.173   2.729
 3584SOL    HW111084   3.236   1.089   2.722
 3584SOL    HW211085   3.317   1.202   2.637
 3585SOL     OW11086   3.328   0.590   2.854
 3585SOL    HW111087   3.298   0.495   2.861
 3585SOL    HW211088   3.401   0.606   2.920
 3586SOL     OW11089   3.719   0.833   2.239
 3586SOL    HW111090   3.761   0.769   2.303
 3586SOL    HW211091   3.681   0.782   2.161
 3587SOL     OW11092   2.350   1.385   2.036
 3587SOL    HW111093   2.263   1.370   2.083
 3587SOL    HW211094   2.333   1.411   1.941
 3588SOL     OW11095   3.526   1.280   2.519
 3588SOL    HW111096   3.625   1.288   2.533
 3588SOL    HW211097   3.481   1.364   2.550
 3589SOL     OW11098   3.252   0.575   1.940
 3589SOL    HW111099   3.198   0.554   2.021
 3589SOL    HW211100   3.343   0.534   1.949
 3590SOL     OW11101   2.389   0.256   2.190
 3590SOL    HW111102   2.416   0.197   2.115
 3590SOL    HW211103   2.389   0.351   2.159
 3591SOL     OW11104   3.616   1.223   3.450
 3591SOL    HW111105   3.707   1.184   3.437
 3591SOL    HW211106   3.624   1.319   3.474
 3592SOL     OW11107   2.926   1.347   3.202
 3592SOL    HW111108   2.846   1.324   3.257
 3592SOL    HW211109   3.009   1.321   3.251
 3593SOL     OW11110   3.454   1.629   3.487
 3593SOL    HW111111   3.481   1.663   3.397
 3593SOL    HW211112   3.533   1.591   3.533
 3594SOL     OW11113   2.973   1.195   2.962
 3594SOL    HW111114   2.933   1.239   3.043
 3594SOL    HW211115   2.932   1.232   2.879
 3595SOL     OW11116   3.500   1.099   2.941
 3595SOL    HW111117   3.505   1.180   3.000
 3595SOL    HW211118   3.414   1.101   2.890
 3596SOL     OW11119   2.777   0.089   3.264
 3596SOL    HW111120   2.802   0.069   3.169
 3596SOL    HW211121   2.849   0.145   3.306
 3597SOL     OW11122   2.842   1.116   3.581
 3597SOL    HW111123   2.743   1.122   3.591
 3597SOL    HW211124   2.865   1.036   3.525
 3598SOL     OW11125   2.567   1.050   2.230
 3598SOL    HW111126   2.553   1.057   2.329
 3598SOL    HW211127   2.651   0.999   2.212
 3599SOL     OW11128   2.272   0.813   3.113
 3599SOL    HW111129   2.358   0.825   3.163
 3599SOL    HW211130   2.230   0.726   3.140
 3600SOL     OW11131   3.136   0.386   3.124
 3600SOL    HW111132   3.157   0.460   3.188
 3600SOL    HW211133   3.047   0.403   3.081
 3601SOL     OW11134   1.926   1.564   3.193
 3601SOL    HW111135   1.880   1.646   3.159
 3601SOL    HW211136   2.024   1.583   3.202
 3602SOL     OW11137   2.229   1.100   2.363
 3602SOL    HW111138   2.222   1.183   2.307
 3602SOL    HW211139   2.233   1.020   2.303
 3603SOL     OW11140   2.428   0.537   2.727
 3603SOL    HW111141   2.440   0.603   2.653
 3603SOL    HW211142   2.474   0.571   2.810
 3604SOL     OW11143   3.114   1.348   2.250
 3604SOL    HW111144   3.164   1.425   2.290
 3604SOL    HW211145   3.019   1.350   2.282
 3605SOL     OW11146   3.134   1.445   3.004
 3605SOL    HW111147   3.181   1.458   3.091
 3605SOL    HW211148   3.068   1.371   3.013
 3606SOL     OW11149   3.444   0.639   2.334
 3606SOL    HW111150   3.413   0.700   2.407
 3606SOL    HW211151   3.494   0.691   2.265
 3607SOL     OW11152   2.216   1.510   3.191
 3607SOL    HW111153   2.195   1.466   3.104
 3607SOL    HW211154   2.313   1.536   3.194
 3608SOL     OW11155   2.264   0.751   3.460
 3608SOL    HW111156   2.332   0.806   3.413
 3608SOL    HW211157   2.304   0.663   3.487
 3609SOL     OW11158   3.449   0.779   3.532
 3609SOL    HW111159   3.357   0.817   3.527
 3609SOL    HW211160   3.509   0.826   3.467
 3610SOL     OW11161   2.875   0.105   3.632
 3610SOL    HW111162   2.881   0.190   3.580
 3610SOL    HW211163   2.907   0.029   3.575
 3611SOL     OW11164   2.366   0.050   3.602
 3611SOL    HW111165   2.324  -0.007   3.532
 3611SOL    HW211166   2.300   0.119   3.634
 3612SOL     OW11167   2.435   0.870   2.891
 3612SOL    HW111168   2.479   0.959   2.882
 3612SOL    HW211169   2.372   0.870   2.968
 3613SOL     OW11170   3.222   0.862   2.907
 3613SOL    HW111171   3.147   0.862   2.841
 3613SOL    HW211172   3.259   0.770   2.916
 3614SOL     OW11173   3.071   0.525   2.137
 3614SOL    HW111174   3.084   0.441   2.191
 3614SOL    HW211175   3.042   0.599   2.197
 3615SOL     OW11176   2.169   0.213   3.093
 3615SOL    HW111177   2.146   0.250   3.183
 3615SOL    HW211178   2.139   0.118   3.087
 3616SOL     OW11179   1.899   1.310   3.144
 3616SOL    HW111180   1.952   1.261   3.212
 3616SOL    HW211181   1.921   1.408   3.149
 3617SOL     OW11182   2.594   0.634   2.926
 3617SOL    HW111183   2.653   0.608   2.850
 3617SOL    HW211184   2.566   0.730   2.915
 3618SOL     OW11185   3.590   0.935   3.716
 3618SOL    HW111186   3.544   0.928   3.627
 3618SOL    HW211187   3.528   0.979   3.782
 3619SOL     OW11188   2.169   0.063   2.480
 3619SOL    HW111189   2.158   0.157   2.513
 3619SOL    HW211190   2.164   0.000   2.557
 3620SOL     OW11191   3.484   0.367   2.236
 3620SOL    HW111192   3.486   0.291   2.300
 3620SOL    HW211193   3.436   0.444   2.276
 3621SOL     OW11194   2.885   0.766   2.828
 3621SOL    HW111195   2.900   0.787   2.924
 3621SOL    HW211196   2.855   0.671   2.819
 3622SOL     OW11197   2.842   1.573   3.562
 3622SOL    HW111198   2.822   1.617   3.474
 3622SOL    HW211199   2.881   1.482   3.546
 3623SOL     OW11200   3.721   1.518   3.467
 3623SOL    HW111201   3.735   1.545   3.372
 3623SOL    HW211202   3.804   1.540   3.520
 3624SOL     OW11203   2.212   0.898   3.666
 3624SOL    HW111204   2.288   0.942   3.714
 3624SOL    HW211205   2.247   0.851   3.584
 3625SOL     OW11206   3.402   0.274   1.987
 3625SOL    HW111207   3.341   0.199   2.010
 3625SOL    HW211208   3.424   0.326   2.070
 3626SOL     OW11209   3.165   0.838   1.904
 3626SOL    HW111210   3.199   0.745   1.919
 3626SOL    HW211211   3.183   0.865   1.809
 3627SOL     OW11212   2.930   1.333   2.711
 3627SOL    HW111213   2.937   1.249   2.656
 3627SOL    HW211214   2.992   1.402   2.675
 3628SOL     OW11215   2.181   0.810   2.811
 3628SOL    HW111216   2.274   0.846   2.816
 3628SOL    HW211217   2.175   0.725   2.863
 3629SOL     OW11218   2.201   0.509   2.868
 3629SOL    HW111219   2.149   0.426   2.851
 3629SOL    HW211220   2.278   0.514   2.804
 3630SOL     OW11221   3.000   0.380   3.540
 3630SOL    HW111222   2.955   0.443   3.604
 3630SOL    HW211223   3.093   0.411   3.523
 3631SOL     OW11224   3.022   0.207   3.339
 3631SOL    HW111225   3.022   0.271   3.416
 3631SOL    HW211226   3.050   0.255   3.256
 3632SOL     OW11227   1.870   1.326   2.062
 3632SOL    HW111228   1.777   1.347   2.031
 3632SOL    HW211229   1.880   1.227   2.075
 3633SOL     OW11230   1.950   1.801   2.789
 3633SOL    HW111231   1.908   1.715   2.762
 3633SOL    HW211232   2.044   1.804   2.755
 3634SOL     OW11233   2.366   1.568   2.772
 3634SOL    HW111234   2.432   1.642   2.781
 3634SOL    HW211235   2.410   1.489   2.730
 3635SOL     OW11236   2.864   0.796   3.100
 3635SOL    HW111237   2.905   0.764   3.186
 3635SOL    HW211238   2.768   0.769   3.097
 3636SOL     OW11239   1.902   0.544   2.976
 3636SOL    HW111240   1.987   0.511   2.935
 3636SOL    HW211241   1.915   0.559   3.074
 3637SOL     OW11242   2.051   0.520   3.584
 3637SOL    HW111243   2.110   0.480   3.514
 3637SOL    HW211244   1.993   0.591   3.543
 3638SOL     OW11245   3.231   0.950   3.522
 3638SOL    HW111246   3.270   1.039   3.542
 3638SOL    HW211247   3.241   0.930   3.425
 3639SOL     OW11248   2.677   0.572   2.187
 3639SOL    HW111249   2.684   0.483   2.141
 3639SOL    HW211250   2.583   0.606   2.179
 3640SOL     OW11251   3.519   0.604   3.068
 3640SOL    HW111252   3.481   0.535   3.130
 3640SOL    HW211253   3.601   0.568   3.024
 3641SOL     OW11254   2.114   1.564   3.606
 3641SOL    HW111255   2.084   1.621   3.682
 3641SOL    HW211256   2.107   1.467   3.632
 3642SOL     OW11257   2.533   0.464   3.131
 3642SOL    HW111258   2.499   0.375   3.101
 3642SOL    HW211259   2.559   0.518   3.051
 3643SOL     OW11260   2.792   1.678   3.327
 3643SOL    HW111261   2.768   1.660   3.232
 3643SOL    HW211262   2.822   1.772   3.337
 3644SOL     OW11263   2.335   0.500   2.053
 3644SOL    HW111264   2.396   0.580   2.057
 3644SOL    HW211265   2.240   0.531   2.060
 3645SOL     OW11266   2.021   1.137   3.328
 3645SOL    HW111267   2.043   1.076   3.404
 3645SOL    HW211268   2.031   1.088   3.242
 3646SOL     OW11269   3.209   1.059   3.096
 3646SOL    HW111270   3.233   0.996   3.022
 3646SOL    HW211271   3.119   1.099   3.078
 3647SOL     OW11272   3.164   0.855   2.171
 3647SOL    HW111273   3.078   0.824   2.213
 3647SOL    HW211274   3.160   0.841   2.072
 3648SOL     OW11275   3.621   1.747   3.016
 3648SOL    HW111276   3.682   1.777   2.943
 3648SOL    HW211277   3.583   1.658   2.994
 3649SOL     OW11278   3.114   1.731   2.990
 3649SOL    HW111279   3.198   1.736   2.936
 3649SOL    HW211280   3.091   1.635   3.008
 3650SOL     OW11281   1.945   1.258   2.884
 3650SOL    HW111282   1.940   1.257   2.984
 3650SOL    HW211283   1.862   1.217   2.846
 3651SOL     OW11284   2.550   1.662   3.578
 3651SOL    HW111285   2.494   1.743   3.587
 3651SOL    HW211286   2.602   1.666   3.492
 3652SOL     OW11287   3.588   0.135   2.385
 3652SOL    HW111288   3.661   0.118   2.318
 3652SOL    HW211289   3.557   0.048   2.423
 3653SOL     OW11290   3.250   1.573   2.339
 3653SOL    HW111291   3.317   1.585   2.265
 3653SOL    HW211292   3.210   1.662   2.362
 3654SOL     OW11293   1.992   1.794   3.713
 3654SOL    HW111294   1.951   1.720   3.766
 3654SOL    HW211295   2.056   1.845   3.771
 3655SOL     OW11296   3.142   0.927   2.534
 3655SOL    HW111297   3.202   0.846   2.536
 3655SOL    HW211298   3.182   0.996   2.474
 3656SOL     OW11299   2.692   1.273   3.284
 3656SOL    HW111300   2.687   1.306   3.379
 3656SOL    HW211301   2.606   1.292   3.238
 3657SOL     OW11302   2.534   1.616   2.016
 3657SOL    HW111303   2.543   1.626   1.917
 3657SOL    HW211304   2.494   1.527   2.037
 3658SOL     OW11305   3.512   1.720   3.256
 3658SOL    HW111306   3.565   1.730   3.172
 3658SOL    HW211307   3.485   1.810   3.290
 3659SOL     OW11308   3.703   0.175   2.825
 3659SOL    HW111309   3.742   0.090   2.789
 3659SOL    HW211310   3.605   0.177   2.806
 3660SOL     OW11311   2.125   0.326   2.582
 3660SOL    HW111312   2.046   0.377   2.548
 3660SOL    HW211313   2.116   0.311   2.680
 3661SOL     OW11314   3.056   1.612   1.893
 3661SOL    HW111315   3.062   1.519   1.930
 3661SOL    HW211316   2.997   1.612   1.813
 3662SOL     OW11317   2.684   1.002   3.234
 3662SOL    HW111318   2.724   1.001   3.142
 3662SOL    HW211319   2.694   1.094   3.274
 3663SOL     OW11320   2.778   0.910   2.153
 3663SOL    HW111321   2.841   0.948   2.085
 3663SOL    HW211322   2.818   0.827   2.192
 3664SOL     OW11323   3.366   1.607   1.906
 3664SOL    HW111324   3.274   1.644   1.913
 3664SOL    HW211325   3.404   1.627   1.816
 3665SOL     OW11326   2.234   1.288   3.352
 3665SOL    HW111327   2.221   1.381   3.318
 3665SOL    HW211328   2.150   1.236   3.339
 3666SOL     OW11329   3.476   1.292   3.151
 3666SOL    HW111330   3.536   1.295   3.231
 3666SOL    HW211331   3.401   1.356   3.164
 3667SOL     OW11332   2.901   1.098   2.558
 3667SOL    HW111333   2.831   1.051   2.612
 3667SOL    HW211334   2.960   1.030   2.515
 3668SOL     OW11335   2.876   0.236   2.833
 3668SOL    HW111336   2.868   0.200   2.740
 3668SOL    HW211337   2.874   0.160   2.898
 3669SOL     OW11338   2.452   1.487   2.353
 3669SOL    HW111339   2.494   1.429   2.283
 3669SOL    HW211340   2.408   1.566   2.309
 3670SOL     OW11341   3.571   0.385   3.243
 3670SOL    HW111342   3.644   0.454   3.247
 3670SOL    HW211343   3.599   0.310   3.184
 3671SOL     OW11344   2.117   1.348   2.152
 3671SOL    HW111345   2.021   1.349   2.125
 3671SOL    HW211346   2.129   1.401   2.236
 3672SOL     OW11347   1.967   1.013   3.588
 3672SOL    HW111348   1.890   0.980   3.642
 3672SOL    HW211349   2.052   0.983   3.630
 3673SOL     OW11350   2.534   0.203   3.351
 3673SOL    HW111351   2.624   0.187   3.311
 3673SOL    HW211352   2.542   0.208   3.450
 3674SOL     OW11353   1.937   0.345   1.895
 3674SOL    HW111354   1.845   0.317   1.866
 3674SOL    HW211355   1.968   0.422   1.839
 3675SOL     OW11356   3.302   0.856   3.260
 3675SOL    HW111357   3.245   0.908   3.197
 3675SOL    HW211358   3.398   0.868   3.236
 3676SOL     OW11359   1.934   0.166   2.180
 3676SOL    HW111360   1.917   0.249   2.126
 3676SOL    HW211361   2.024   0.129   2.158
 3677SOL     OW11362   3.045   1.335   1.981
 3677SOL    HW111363   2.946   1.324   1.983
 3677SOL    HW211364   3.079   1.350   2.074
 3678SOL     OW11365   2.475   0.842   3.293
 3678SOL    HW111366   2.531   0.923   3.276
 3678SOL    HW211367   2.534   0.762   3.296
 3679SOL     OW11368   3.355   1.767   2.821
 3679SOL    HW111369   3.388   1.831   2.752
 3679SOL    HW211370   3.421   1.761   2.896
 3680SOL     OW11371   2.578   0.565   3.570
 3680SOL    HW111372   2.597   0.630   3.644
 3680SOL    HW211373   2.638   0.485   3.579
 3681SOL     OW11374   3.312   1.220   3.495
 3681SOL    HW111375   3.303   1.210   3.594
 3681SOL    HW211376   3.408   1.213   3.469
 3682SOL     OW11377   2.252   1.741   3.422
 3682SOL    HW111378   2.161   1.782   3.420
 3682SOL    HW211379   2.245   1.647   3.454
 3683SOL     OW11380   3.536   0.883   3.116
 3683SOL    HW111381   3.509   0.794   3.079
 3683SOL    HW211382   3.537   0.951   3.043
 3684SOL     OW11383   3.087   0.325   2.311
 3684SOL    HW111384   3.152   0.251   2.300
 3684SOL    HW211385   3.107   0.375   2.395
 3685SOL     OW11386   2.456   0.745   2.514
 3685SOL    HW111387   2.506   0.830   2.495
 3685SOL    HW211388   2.368   0.747   2.466
 3686SOL     OW11389   3.639   0.342   3.504
 3686SOL    HW111390   3.622   0.373   3.410
 3686SOL    HW211391   3.555   0.305   3.542
 3687SOL     OW11392   3.592   0.934   3.379
 3687SOL    HW111393   3.630   1.025   3.394
 3687SOL    HW211394   3.584   0.917   3.280
 3688SOL     OW11395   2.721   1.374   1.878
 3688SOL    HW111396   2.675   1.389   1.966
 3688SOL    HW211397   2.765   1.459   1.848
 3689SOL     OW11398   2.523   1.790   2.815
 3689SOL    HW111399   2.477   1.878   2.802
 3689SOL    HW211400   2.622   1.802   2.808
 3690SOL     OW11401   2.721   0.956   2.723
 3690SOL    HW111402   2.775   0.887   2.771
 3690SOL    HW211403   2.689   1.025   2.789
 3691SOL     OW11404   2.945   0.984   1.949
 3691SOL    HW111405   2.922   1.037   1.867
 3691SOL    HW211406   3.026   0.928   1.930
 3692SOL     OW11407   3.723   1.569   2.713
 3692SOL    HW111408   3.652   1.557   2.643
 3692SOL    HW211409   3.724   1.490   2.773
 3693SOL     OW11410   2.083   1.314   3.706
 3693SOL    HW111411   2.018   1.241   3.685
 3693SOL    HW211412   2.087   1.328   3.804
 3694SOL     OW11413   1.941   1.240   2.515
 3694SOL    HW111414   1.940   1.193   2.603
 3694SOL    HW211415   2.023   1.212   2.464
 3695SOL     OW11416   2.534   1.391   3.486
 3695SOL    HW111417   2.456   1.341   3.524
 3695SOL    HW211418   2.531   1.486   3.517
 3696SOL     OW11419   3.686   0.192   3.089
 3696SOL    HW111420   3.682   0.102   3.133
 3696SOL    HW211421   3.689   0.181   2.990
 3697SOL     OW11422   2.290   0.424   2.382
 3697SOL    HW111423   2.320   0.352   2.320
 3697SOL    HW211424   2.251   0.384   2.465
 3698SOL     OW11425   3.567   1.487   2.966
 3698SOL    HW111426   3.474   1.462   2.939
 3698SOL    HW211427   3.593   1.437   3.048
 3699SOL     OW11428   2.179   0.547   3.142
 3699SOL    HW111429   2.217   0.488   3.214
 3699SOL    HW211430   2.219   0.521   3.054
 3700SOL     OW11431   2.674   1.586   2.549
 3700SOL    HW111432   2.706   1.596   2.455
 3700SOL    HW211433   2.595   1.524   2.551
 3701SOL     OW11434   3.286   0.214   2.974
 3701SOL    HW111435   3.338   0.149   3.029
 3701SOL    HW211436   3.237   0.277   3.035
 3702SOL     OW11437   2.863   0.034   3.016
 3702SOL    HW111438   2.800  -0.038   2.985
 3702SOL    HW211439   2.956  -0.002   3.016
 3703SOL     OW11440   2.632   1.330   2.163
 3703SOL    HW111441   2.586   1.243   2.180
 3703SOL    HW211442   2.723   1.327   2.204
 3704SOL     OW11443   2.480   1.567   3.146
 3704SOL    HW111444   2.475   1.649   3.203
 3704SOL    HW211445   2.569   1.564   3.101
 3705SOL     OW11446   3.214   0.052   2.030
 3705SOL    HW111447   3.249   0.011   1.946
 3705SOL    HW211448   3.124   0.014   2.050
 3706SOL     OW11449   3.162   0.453   2.553
 3706SOL    HW111450   3.103   0.533   2.557
 3706SOL    HW211451   3.177   0.418   2.646
 3707SOL     OW11452   3.455   0.221   2.744
 3707SOL    HW111453   3.371   0.220   2.798
 3707SOL    HW211454   3.457   0.304   2.688
 3708SOL     OW11455   1.901   1.077   2.162
 3708SOL    HW111456   2.000   1.066   2.153
 3708SOL    HW211457   1.861   0.991   2.194
 3709SOL     OW11458   2.737   1.646   2.199
 3709SOL    HW111459   2.660   1.611   2.145
 3709SOL    HW211460   2.705   1.717   2.261
 3710SOL     OW11461   2.092   0.628   3.837
 3710SOL    HW111462   1.999   0.626   3.874
 3710SOL    HW211463   2.093   0.589   3.745
 3711SOL     OW11464   2.087   0.275   4.720
 3711SOL    HW111465   2.122   0.258   4.812
 3711SOL    HW211466   1.999   0.230   4.708
 3712SOL     OW11467   1.881   0.368   4.371
 3712SOL    HW111468   1.799   0.411   4.410
 3712SOL    HW211469   1.853   0.295   4.308
 3713SOL     OW11470   2.431   1.275   4.889
 3713SOL    HW111471   2.338   1.268   4.852
 3713SOL    HW211472   2.442   1.364   4.933
 3714SOL     OW11473   3.417   1.511   4.427
 3714SOL    HW111474   3.360   1.495   4.508
 3714SOL    HW211475   3.358   1.521   4.347
 3715SOL     OW11476   2.997   0.703   4.441
 3715SOL    HW111477   3.054   0.781   4.416
 3715SOL    HW211478   2.937   0.729   4.517
 3716SOL     OW11479   3.617   0.607   3.955
 3716SOL    HW111480   3.605   0.594   3.856
 3716SOL    HW211481   3.587   0.526   4.004
 3717SOL     OW11482   2.630   1.144   4.747
 3717SOL    HW111483   2.552   1.161   4.807
 3717SOL    HW211484   2.664   1.231   4.711
 3718SOL     OW11485   2.712   0.798   5.547
 3718SOL    HW111486   2.708   0.874   5.612
 3718SOL    HW211487   2.734   0.834   5.456
 3719SOL     OW11488   2.547   1.012   4.389
 3719SOL    HW111489   2.616   0.996   4.459
 3719SOL    HW211490   2.474   1.069   4.427
 3720SOL     OW11491   2.548   1.161   5.527
 3720SOL    HW111492   2.608   1.240   5.541
 3720SOL    HW211493   2.462   1.192   5.486
 3721SOL     OW11494   2.197   1.435   4.785
 3721SOL    HW111495   2.119   1.404   4.732
 3721SOL    HW211496   2.255   1.493   4.728
 3722SOL     OW11497   3.322   1.505   5.063
 3722SOL    HW111498   3.346   1.599   5.089
 3722SOL    HW211499   3.306   1.451   5.145
 3723SOL     OW11500   2.300   0.392   5.223
 3723SOL    HW111501   2.382   0.336   5.232
 3723SOL    HW211502   2.219   0.334   5.227
 3724SOL     OW11503   3.465   0.447   4.461
 3724SOL    HW111504   3.391   0.493   4.411
 3724SOL    HW211505   3.516   0.515   4.514
 3725SOL     OW11506   2.093   1.713   4.207
 3725SOL    HW111507   2.127   1.790   4.261
 3725SOL    HW211508   2.137   1.713   4.117
 3726SOL     OW11509   2.989   1.341   5.414
 3726SOL    HW111510   3.036   1.341   5.502
 3726SOL    HW211511   2.941   1.254   5.403
 3727SOL     OW11512   2.092   1.434   4.262
 3727SOL    HW111513   2.066   1.530   4.262
 3727SOL    HW211514   2.021   1.380   4.307
 3728SOL     OW11515   2.102   1.091   4.610
 3728SOL    HW111516   2.116   1.007   4.662
 3728SOL    HW211517   2.047   1.155   4.665
 3729SOL     OW11518   2.468   0.964   3.847
 3729SOL    HW111519   2.475   1.048   3.793
 3729SOL    HW211520   2.514   0.977   3.935
 3730SOL     OW11521   3.456   0.114   5.204
 3730SOL    HW111522   3.438   0.181   5.132
 3730SOL    HW211523   3.453   0.160   5.293
 3731SOL     OW11524   1.984   0.643   4.287
 3731SOL    HW111525   1.939   0.555   4.304
 3731SOL    HW211526   1.983   0.697   4.371
 3732SOL     OW11527   3.704   1.767   4.083
 3732SOL    HW111528   3.758   1.738   4.163
 3732SOL    HW211529   3.734   1.857   4.054
 3733SOL     OW11530   1.889   1.596   3.841
 3733SOL    HW111531   1.870   1.500   3.862
 3733SOL    HW211532   1.856   1.654   3.916
 3734SOL     OW11533   3.551   0.922   4.336
 3734SOL    HW111534   3.646   0.893   4.344
 3734SOL    HW211535   3.543   0.987   4.261
 3735SOL     OW11536   3.503   1.108   4.156
 3735SOL    HW111537   3.589   1.110   4.104
 3735SOL    HW211538   3.517   1.155   4.244
 3736SOL     OW11539   1.975   0.737   5.321
 3736SOL    HW111540   2.063   0.724   5.366
 3736SOL    HW211541   1.962   0.834   5.299
 3737SOL     OW11542   2.475   1.365   4.450
 3737SOL    HW111543   2.426   1.278   4.459
 3737SOL    HW211544   2.452   1.408   4.363
 3738SOL     OW11545   3.155   1.228   5.147
 3738SOL    HW111546   3.192   1.155   5.089
 3738SOL    HW211547   3.207   1.233   5.232
 3739SOL     OW11548   2.671   0.004   4.226
 3739SOL    HW111549   2.711   0.095   4.217
 3739SOL    HW211550   2.571   0.012   4.232
 3740SOL     OW11551   2.059   0.976   4.988
 3740SOL    HW111552   2.148   0.931   4.974
 3740SOL    HW211553   1.986   0.911   4.969
 3741SOL     OW11554   3.387   0.999   3.914
 3741SOL    HW111555   3.324   0.923   3.927
 3741SOL    HW211556   3.435   1.017   4.000
 3742SOL     OW11557   3.049   1.792   5.340
 3742SOL    HW111558   3.073   1.852   5.264
 3742SOL    HW211559   3.056   1.697   5.310
 3743SOL     OW11560   2.179   0.251   5.525
 3743SOL    HW111561   2.250   0.322   5.531
 3743SOL    HW211562   2.091   0.290   5.553
 3744SOL     OW11563   3.328   1.417   4.677
 3744SOL    HW111564   3.269   1.423   4.757
 3744SOL    HW211565   3.313   1.329   4.631
 3745SOL     OW11566   3.529   1.714   4.296
 3745SOL    HW111567   3.488   1.691   4.208
 3745SOL    HW211568   3.511   1.640   4.361
 3746SOL     OW11569   2.460   0.729   3.994
 3746SOL    HW111570   2.484   0.798   3.926
 3746SOL    HW211571   2.382   0.762   4.048
 3747SOL     OW11572   3.143   0.345   4.668
 3747SOL    HW111573   3.057   0.295   4.655
 3747SOL    HW211574   3.205   0.291   4.724
 3748SOL     OW11575   3.438   1.662   4.031
 3748SOL    HW111576   3.527   1.708   4.034
 3748SOL    HW211577   3.417   1.638   3.936
 3749SOL     OW11578   2.669   0.605   5.189
 3749SOL    HW111579   2.622   0.602   5.278
 3749SOL    HW211580   2.618   0.550   5.123
 3750SOL     OW11581   3.256   0.469   5.398
 3750SOL    HW111582   3.236   0.512   5.486
 3750SOL    HW211583   3.334   0.407   5.407
 3751SOL     OW11584   2.835   0.890   5.296
 3751SOL    HW111585   2.881   0.806   5.267
 3751SOL    HW211586   2.779   0.924   5.221
 3752SOL     OW11587   2.853   0.410   4.966
 3752SOL    HW111588   2.776   0.444   5.020
 3752SOL    HW211589   2.819   0.359   4.887
 3753SOL     OW11590   2.903   0.701   4.153
 3753SOL    HW111591   2.929   0.697   4.249
 3753SOL    HW211592   2.818   0.650   4.139
 3754SOL     OW11593   1.938   0.811   4.513
 3754SOL    HW111594   2.037   0.799   4.522
 3754SOL    HW211595   1.914   0.906   4.534
 3755SOL     OW11596   1.992   1.821   5.295
 3755SOL    HW111597   1.982   1.806   5.394
 3755SOL    HW211598   1.906   1.857   5.259
 3756SOL     OW11599   2.727   0.348   3.919
 3756SOL    HW111600   2.786   0.411   3.870
 3756SOL    HW211601   2.746   0.254   3.890
 3757SOL     OW11602   3.581   0.585   5.555
 3757SOL    HW111603   3.555   0.674   5.519
 3757SOL    HW211604   3.579   0.517   5.482
 3758SOL     OW11605   3.224   1.144   4.269
 3758SOL    HW111606   3.307   1.115   4.221
 3758SOL    HW211607   3.175   1.211   4.213
 3759SOL     OW11608   2.412   0.196   4.609
 3759SOL    HW111609   2.407   0.191   4.709
 3759SOL    HW211610   2.414   0.292   4.580
 3760SOL     OW11611   2.870   1.456   4.201
 3760SOL    HW111612   2.824   1.528   4.149
 3760SOL    HW211613   2.866   1.476   4.299
 3761SOL     OW11614   2.213   1.801   4.577
 3761SOL    HW111615   2.263   1.715   4.583
 3761SOL    HW211616   2.278   1.878   4.574
 3762SOL     OW11617   3.657   1.066   4.597
 3762SOL    HW111618   3.595   1.051   4.521
 3762SOL    HW211619   3.605   1.077   4.682
 3763SOL     OW11620   3.089   1.550   5.230
 3763SOL    HW111621   3.095   1.473   5.294
 3763SOL    HW211622   3.037   1.524   5.150
 3764SOL     OW11623   2.183   0.943   3.966
 3764SOL    HW111624   2.265   0.982   3.924
 3764SOL    HW211625   2.156   0.861   3.917
 3765SOL     OW11626   3.320   0.735   4.452
 3765SOL    HW111627   3.315   0.670   4.527
 3765SOL    HW211628   3.400   0.794   4.465
 3766SOL     OW11629   2.323   1.266   5.451
 3766SOL    HW111630   2.273   1.267   5.365
 3766SOL    HW211631   2.260   1.248   5.527
 3767SOL     OW11632   2.973   1.776   3.961
 3767SOL    HW111633   2.913   1.714   4.011
 3767SOL    HW211634   3.004   1.732   3.876
 3768SOL     OW11635   2.064   0.285   5.222
 3768SOL    HW111636   1.984   0.345   5.209
 3768SOL    HW211637   2.054   0.236   5.308
 3769SOL     OW11638   3.494   1.377   3.805
 3769SOL    HW111639   3.462   1.471   3.795
 3769SOL    HW211640   3.418   1.314   3.793
 3770SOL     OW11641   2.326   1.743   4.047
 3770SOL    HW111642   2.359   1.782   4.133
 3770SOL    HW211643   2.402   1.736   3.982
 3771SOL     OW11644   3.262   0.107   4.150
 3771SOL    HW111645   3.238   0.070   4.060
 3771SOL    HW211646   3.361   0.123   4.154
 3772SOL     OW11647   2.111   1.785   4.965
 3772SOL    HW111648   2.168   1.720   5.015
 3772SOL    HW211649   2.095   1.752   4.872
 3773SOL     OW11650   2.802   1.698   4.628
 3773SOL    HW111651   2.882   1.641   4.649
 3773SOL    HW211652   2.753   1.658   4.551
 3774SOL     OW11653   2.244   0.700   4.204
 3774SOL    HW111654   2.289   0.610   4.201
 3774SOL    HW211655   2.150   0.689   4.237
 3775SOL     OW11656   3.409   0.222   5.453
 3775SOL    HW111657   3.404   0.259   5.545
 3775SOL    HW211658   3.337   0.153   5.441
 3776SOL     OW11659   2.476   0.122   3.841
 3776SOL    HW111660   2.574   0.100   3.848
 3776SOL    HW211661   2.445   0.105   3.748
 3777SOL     OW11662   2.643   0.264   5.473
 3777SOL    HW111663   2.710   0.203   5.516
 3777SOL    HW211664   2.570   0.283   5.538
 3778SOL     OW11665   2.750   1.514   4.919
 3778SOL    HW111666   2.727   1.489   4.825
 3778SOL    HW211667   2.811   1.445   4.958
 3779SOL     OW11668   3.213   0.590   5.157
 3779SOL    HW111669   3.241   0.547   5.242
 3779SOL    HW211670   3.238   0.686   5.158
 3780SOL     OW11671   2.665   1.402   4.648
 3780SOL    HW111672   2.755   1.416   4.606
 3780SOL    HW211673   2.594   1.404   4.577
 3781SOL     OW11674   2.784   0.503   4.623
 3781SOL    HW111675   2.759   0.494   4.527
 3781SOL    HW211676   2.832   0.421   4.654
 3782SOL     OW11677   2.401   0.064   4.236
 3782SOL    HW111678   2.320   0.065   4.294
 3782SOL    HW211679   2.404   0.147   4.181
 3783SOL     OW11680   3.296   1.188   3.765
 3783SOL    HW111681   3.328   1.112   3.822
 3783SOL    HW211682   3.204   1.215   3.795
 3784SOL     OW11683   2.159   0.035   3.895
 3784SOL    HW111684   2.208   0.119   3.874
 3784SOL    HW211685   2.221  -0.030   3.940
 3785SOL     OW11686   2.797   0.236   4.204
 3785SOL    HW111687   2.749   0.277   4.126
 3785SOL    HW211688   2.896   0.234   4.185
 3786SOL     OW11689   2.938   0.683   5.188
 3786SOL    HW111690   2.858   0.622   5.191
 3786SOL    HW211691   3.019   0.630   5.164
 3787SOL     OW11692   3.089   1.570   4.517
 3787SOL    HW111693   3.110   1.644   4.452
 3787SOL    HW211694   3.157   1.570   4.590
 3788SOL     OW11695   2.321   1.152   4.465
 3788SOL    HW111696   2.250   1.125   4.530
 3788SOL    HW211697   2.295   1.124   4.372
 3789SOL     OW11698   3.133   1.797   4.315
 3789SOL    HW111699   3.177   1.861   4.251
 3789SOL    HW211700   3.083   1.849   4.385
 3790SOL     OW11701   2.894   0.549   3.740
 3790SOL    HW111702   2.853   0.631   3.701
 3790SOL    HW211703   2.958   0.575   3.813
 3791SOL     OW11704   1.940   0.556   5.110
 3791SOL    HW111705   2.032   0.555   5.069
 3791SOL    HW211706   1.934   0.630   5.177
 3792SOL     OW11707   2.423   0.222   4.871
 3792SOL    HW111708   2.461   0.138   4.908
 3792SOL    HW211709   2.335   0.241   4.915
 3793SOL     OW11710   2.728   0.454   4.366
 3793SOL    HW111711   2.696   0.526   4.304
 3793SOL    HW211712   2.752   0.373   4.313
 3794SOL     OW11713   2.879   0.039   4.477
 3794SOL    HW111714   2.807   0.044   4.408
 3794SOL    HW211715   2.855  -0.030   4.546
 3795SOL     OW11716   3.291   1.173   4.591
 3795SOL    HW111717   3.236   1.089   4.584
 3795SOL    HW211718   3.317   1.202   4.499
 3796SOL     OW11719   3.328   0.590   4.716
 3796SOL    HW111720   3.298   0.495   4.723
 3796SOL    HW211721   3.401   0.606   4.782
 3797SOL     OW11722   3.719   0.833   4.101
 3797SOL    HW111723   3.761   0.769   4.165
 3797SOL    HW211724   3.681   0.782   4.023
 3798SOL     OW11725   2.350   1.385   3.898
 3798SOL    HW111726   2.263   1.370   3.945
 3798SOL    HW211727   2.333   1.411   3.803
 3799SOL     OW11728   3.526   1.280   4.381
 3799SOL    HW111729   3.625   1.288   4.395
 3799SOL    HW211730   3.481   1.364   4.412
 3800SOL     OW11731   3.252   0.575   3.802
 3800SOL    HW111732   3.198   0.554   3.883
 3800SOL    HW211733   3.343   0.534   3.811
 3801SOL     OW11734   2.389   0.256   4.052
 3801SOL    HW111735   2.416   0.197   3.977
 3801SOL    HW211736   2.389   0.351   4.021
 3802SOL     OW11737   3.616   1.223   5.312
 3802SOL    HW111738   3.707   1.184   5.299
 3802SOL    HW211739   3.624   1.319   5.336
 3803SOL     OW11740   2.926   1.347   5.064
 3803SOL    HW111741   2.846   1.324   5.119
 3803SOL    HW211742   3.009   1.321   5.113
 3804SOL     OW11743   3.454   1.629   5.349
 3804SOL    HW111744   3.481   1.663   5.259
 3804SOL    HW211745   3.533   1.591   5.395
 3805SOL     OW11746   2.973   1.195   4.824
 3805SOL    HW111747   2.933   1.239   4.905
 3805SOL    HW211748   2.932   1.232   4.741
 3806SOL     OW11749   3.500   1.099   4.803
 3806SOL    HW111750   3.505   1.180   4.862
 3806SOL    HW211751   3.414   1.101   4.752
 3807SOL     OW11752   2.777   0.089   5.126
 3807SOL    HW111753   2.802   0.069   5.031
 3807SOL    HW211754   2.849   0.145   5.168
 3808SOL     OW11755   2.842   1.116   5.443
 3808SOL    HW111756   2.743   1.122   5.453
 3808SOL    HW211757   2.865   1.036   5.387
 3809SOL     OW11758   2.567   1.050   4.092
 3809SOL    HW111759   2.553   1.057   4.191
 3809SOL    HW211760   2.651   0.999   4.074
 3810SOL     OW11761   2.272   0.813   4.975
 3810SOL    HW111762   2.358   0.825   5.025
 3810SOL    HW211763   2.230   0.726   5.002
 3811SOL     OW11764   3.136   0.386   4.986
 3811SOL    HW111765   3.157   0.460   5.050
 3811SOL    HW211766   3.047   0.403   4.943
 3812SOL     OW11767   1.926   1.564   5.055
 3812SOL    HW111768   1.880   1.646   5.021
 3812SOL    HW211769   2.024   1.583   5.064
 3813SOL     OW11770   2.229   1.100   4.225
 3813SOL    HW111771   2.222   1.183   4.169
 3813SOL    HW211772   2.233   1.020   4.165
 3814SOL     OW11773   2.428   0.537   4.589
 3814SOL    HW111774   2.440   0.603   4.515
 3814SOL    HW211775   2.474   0.571   4.672
 3815SOL     OW11776   3.114   1.348   4.112
 3815SOL    HW111777   3.164   1.425   4.152
 3815SOL    HW211778   3.019   1.350   4.144
 3816SOL     OW11779   3.134   1.445   4.866
 3816SOL    HW111780   3.181   1.458   4.953
 3816SOL    HW211781   3.068   1.371   4.875
 3817SOL     OW11782   3.444   0.639   4.196
 3817SOL    HW111783   3.413   0.700   4.269
 3817SOL    HW211784   3.494   0.691   4.127
 3818SOL     OW11785   2.216   1.510   5.053
 3818SOL    HW111786   2.195   1.466   4.966
 3818SOL    HW211787   2.313   1.536   5.056
 3819SOL     OW11788   2.264   0.751   5.322
 3819SOL    HW111789   2.332   0.806   5.275
 3819SOL    HW211790   2.304   0.663   5.349
 3820SOL     OW11791   3.449   0.779   5.394
 3820SOL    HW111792   3.357   0.817   5.389
 3820SOL    HW211793   3.509   0.826   5.329
 3821SOL     OW11794   2.875   0.105   5.494
 3821SOL    HW111795   2.881   0.190   5.442
 3821SOL    HW211796   2.907   0.029   5.437
 3822SOL     OW11797   2.366   0.050   5.464
 3822SOL    HW111798   2.324  -0.007   5.394
 3822SOL    HW211799   2.300   0.119   5.496
 3823SOL     OW11800   2.435   0.870   4.753
 3823SOL    HW111801   2.479   0.959   4.744
 3823SOL    HW211802   2.372   0.870   4.830
 3824SOL     OW11803   3.222   0.862   4.769
 3824SOL    HW111804   3.147   0.862   4.703
 3824SOL    HW211805   3.259   0.770   4.778
 3825SOL     OW11806   3.071   0.525   3.999
 3825SOL    HW111807   3.084   0.441   4.053
 3825SOL    HW211808   3.042   0.599   4.059
 3826SOL     OW11809   2.169   0.213   4.955
 3826SOL    HW111810   2.146   0.250   5.045
 3826SOL    HW211811   2.139   0.118   4.949
 3827SOL     OW11812   1.899   1.310   5.006
 3827SOL    HW111813   1.952   1.261   5.074
 3827SOL    HW211814   1.921   1.408   5.011
 3828SOL     OW11815   2.594   0.634   4.788
 3828SOL    HW111816   2.653   0.608   4.712
 3828SOL    HW211817   2.566   0.730   4.777
 3829SOL     OW11818   3.590   0.935   5.578
 3829SOL    HW111819   3.544   0.928   5.489
 3829SOL    HW211820   3.528   0.979   5.644
 3830SOL     OW11821   2.169   0.063   4.342
 3830SOL    HW111822   2.158   0.157   4.375
 3830SOL    HW211823   2.164   0.000   4.419
 3831SOL     OW11824   3.484   0.367   4.098
 3831SOL    HW111825   3.486   0.291   4.162
 3831SOL    HW211826   3.436   0.444   4.138
 3832SOL     OW11827   2.885   0.766   4.690
 3832SOL    HW111828   2.900   0.787   4.786
 3832SOL    HW211829   2.855   0.671   4.681
 3833SOL     OW11830   2.842   1.573   5.424
 3833SOL    HW111831   2.822   1.617   5.336
 3833SOL    HW211832   2.881   1.482   5.408
 3834SOL     OW11833   3.721   1.518   5.329
 3834SOL    HW111834   3.735   1.545   5.234
 3834SOL    HW211835   3.804   1.540   5.382
 3835SOL     OW11836   2.212   0.898   5.528
 3835SOL    HW111837   2.288   0.942   5.576
 3835SOL    HW211838   2.247   0.851   5.446
 3836SOL     OW11839   3.402   0.274   3.849
 3836SOL    HW111840   3.341   0.199   3.872
 3836SOL    HW211841   3.424   0.326   3.932
 3837SOL     OW11842   3.165   0.838   3.766
 3837SOL    HW111843   3.199   0.745   3.781
 3837SOL    HW211844   3.183   0.865   3.671
 3838SOL     OW11845   2.930   1.333   4.573
 3838SOL    HW111846   2.937   1.249   4.518
 3838SOL    HW211847   2.992   1.402   4.537
 3839SOL     OW11848   2.181   0.810   4.673
 3839SOL    HW111849   2.274   0.846   4.678
 3839SOL    HW211850   2.175   0.725   4.725
 3840SOL     OW11851   2.201   0.509   4.730
 3840SOL    HW111852   2.149   0.426   4.713
 3840SOL    HW211853   2.278   0.514   4.666
 3841SOL     OW11854   3.000   0.380   5.402
 3841SOL    HW111855   2.955   0.443   5.466
 3841SOL    HW211856   3.093   0.411   5.385
 3842SOL     OW11857   3.022   0.207   5.201
 3842SOL    HW111858   3.022   0.271   5.278
 3842SOL    HW211859   3.050   0.255   5.118
 3843SOL     OW11860   1.870   1.326   3.924
 3843SOL    HW111861   1.777   1.347   3.893
 3843SOL    HW211862   1.880   1.227   3.937
 3844SOL     OW11863   1.950   1.801   4.651
 3844SOL    HW111864   1.908   1.715   4.624
 3844SOL    HW211865   2.044   1.804   4.617
 3845SOL     OW11866   2.366   1.568   4.634
 3845SOL    HW111867   2.432   1.642   4.643
 3845SOL    HW211868   2.410   1.489   4.592
 3846SOL     OW11869   2.864   0.796   4.962
 3846SOL    HW111870   2.905   0.764   5.048
 3846SOL    HW211871   2.768   0.769   4.959
 3847SOL     OW11872   1.902   0.544   4.838
 3847SOL    HW111873   1.987   0.511   4.797
 3847SOL    HW211874   1.915   0.559   4.936
 3848SOL     OW11875   2.051   0.520   5.446
 3848SOL    HW111876   2.110   0.480   5.376
 3848SOL    HW211877   1.993   0.591   5.405
 3849SOL     OW11878   3.231   0.950   5.384
 3849SOL    HW111879   3.270   1.039   5.404
 3849SOL    HW211880   3.241   0.930   5.287
 3850SOL     OW11881   2.677   0.572   4.049
 3850SOL    HW111882   2.684   0.483   4.003
 3850SOL    HW211883   2.583   0.606   4.041
 3851SOL     OW11884   3.519   0.604   4.930
 3851SOL    HW111885   3.481   0.535   4.992
 3851SOL    HW211886   3.601   0.568   4.886
 3852SOL     OW11887   2.114   1.564   5.468
 3852SOL    HW111888   2.084   1.621   5.544
 3852SOL    HW211889   2.107   1.467   5.494
 3853SOL     OW11890   2.533   0.464   4.993
 3853SOL    HW111891   2.499   0.375   4.963
 3853SOL    HW211892   2.559   0.518   4.913
 3854SOL     OW11893   2.792   1.678   5.189
 3854SOL    HW111894   2.768   1.660   5.094
 3854SOL    HW211895   2.822   1.772   5.199
 3855SOL     OW11896   2.335   0.500   3.915
 3855SOL    HW111897   2.396   0.580   3.919
 3855SOL    HW211898   2.240   0.531   3.922
 3856SOL     OW11899   2.021   1.137   5.190
 3856SOL    HW111900   2.043   1.076   5.266
 3856SOL    HW211901   2.031   1.088   5.104
 3857SOL     OW11902   3.209   1.059   4.958
 3857SOL    HW111903   3.233   0.996   4.884
 3857SOL    HW211904   3.119   1.099   4.940
 3858SOL     OW11905   3.164   0.855   4.033
 3858SOL    HW111906   3.078   0.824   4.075
 3858SOL    HW211907   3.160   0.841   3.934
 3859SOL     OW11908   3.621   1.747   4.878
 3859SOL    HW111909   3.682   1.777   4.805
 3859SOL    HW211910   3.583   1.658   4.856
 3860SOL     OW11911   3.114   1.731   4.852
 3860SOL    HW111912   3.198   1.736   4.798
 3860SOL    HW211913   3.091   1.635   4.870
 3861SOL     OW11914   1.945   1.258   4.746
 3861SOL    HW111915   1.940   1.257   4.846
 3861SOL    HW211916   1.862   1.217   4.708
 3862SOL     OW11917   2.550   1.662   5.440
 3862SOL    HW111918   2.494   1.743   5.449
 3862SOL    HW211919   2.602   1.666   5.354
 3863SOL     OW11920   3.588   0.135   4.247
 3863SOL    HW111921   3.661   0.118   4.180
 3863SOL    HW211922   3.557   0.048   4.285
 3864SOL     OW11923   3.250   1.573   4.201
 3864SOL    HW111924   3.317   1.585   4.127
 3864SOL    HW211925   3.210   1.662   4.224
 3865SOL     OW11926   1.992   1.794   5.575
 3865SOL    HW111927   1.951   1.720   5.628
 3865SOL    HW211928   2.056   1.845   5.633
 3866SOL     OW11929   3.142   0.927   4.396
 3866SOL    HW111930   3.202   0.846   4.398
 3866SOL    HW211931   3.182   0.996   4.336
 3867SOL     OW11932   2.692   1.273   5.146
 3867SOL    HW111933   2.687   1.306   5.241
 3867SOL    HW211934   2.606   1.292   5.100
 3868SOL     OW11935   2.534   1.616   3.878
 3868SOL    HW111936   2.543   1.626   3.779
 3868SOL    HW211937   2.494   1.527   3.899
 3869SOL     OW11938   3.512   1.720   5.118
 3869SOL    HW111939   3.565   1.730   5.034
 3869SOL    HW211940   3.485   1.810   5.152
 3870SOL     OW11941   3.703   0.175   4.687
 3870SOL    HW111942   3.742   0.090   4.651
 3870SOL    HW211943   3.605   0.177   4.668
 3871SOL     OW11944   2.125   0.326   4.444
 3871SOL    HW111945   2.046   0.377   4.410
 3871SOL    HW211946   2.116   0.311   4.542
 3872SOL     OW11947   3.056   1.612   3.755
 3872SOL    HW111948   3.062   1.519   3.792
 3872SOL    HW211949   2.997   1.612   3.675
 3873SOL     OW11950   2.684   1.002   5.096
 3873SOL    HW111951   2.724   1.001   5.004
 3873SOL    HW211952   2.694   1.094   5.136
 3874SOL     OW11953   2.778   0.910   4.015
 3874SOL    HW111954   2.841   0.948   3.947
 3874SOL    HW211955   2.818   0.827   4.054
 3875SOL     OW11956   3.366   1.607   3.768
 3875SOL    HW111957   3.274   1.644   3.775
 3875SOL    HW211958   3.404   1.627   3.678
 3876SOL     OW11959   2.234   1.288   5.214
 3876SOL    HW111960   2.221   1.381   5.180
 3876SOL    HW211961   2.150   1.236   5.201
 3877SOL     OW11962   3.476   1.292   5.013
 3877SOL    HW111963   3.536   1.295   5.093
 3877SOL    HW211964   3.401   1.356   5.026
 3878SOL     OW11965   2.901   1.098   4.420
 3878SOL    HW111966   2.831   1.051   4.474
 3878SOL    HW211967   2.960   1.030   4.377
 3879SOL     OW11968   2.876   0.236   4.695
 3879SOL    HW111969   2.868   0.200   4.602
 3879SOL    HW211970   2.874   0.160   4.760
 3880SOL     OW11971   2.452   1.487   4.215
 3880SOL    HW111972   2.494   1.429   4.145
 3880SOL    HW211973   2.408   1.566   4.171
 3881SOL     OW11974   3.571   0.385   5.105
 3881SOL    HW111975   3.644   0.454   5.109
 3881SOL    HW211976   3.599   0.310   5.046
 3882SOL     OW11977   2.117   1.348   4.014
 3882SOL    HW111978   2.021   1.349   3.987
 3882SOL    HW211979   2.129   1.401   4.098
 3883SOL     OW11980   1.967   1.013   5.450
 3883SOL    HW111981   1.890   0.980   5.504
 3883SOL    HW211982   2.052   0.983   5.492
 3884SOL     OW11983   2.534   0.203   5.213
 3884SOL    HW111984   2.624   0.187   5.173
 3884SOL    HW211985   2.542   0.208   5.312
 3885SOL     OW11986   1.937   0.345   3.757
 3885SOL    HW111987   1.845   0.317   3.728
 3885SOL    HW211988   1.968   0.422   3.701
 3886SOL     OW11989   3.302   0.856   5.122
 3886SOL    HW111990   3.245   0.908   5.059
 3886SOL    HW211991   3.398   0.868   5.098
 3887SOL     OW11992   1.934   0.166   4.042
 3887SOL    HW111993   1.917   0.249   3.988
 3887SOL    HW211994   2.024   0.129   4.020
 3888SOL     OW11995   3.045   1.335   3.843
 3888SOL    HW111996   2.946   1.324   3.845
 3888SOL    HW211997   3.079   1.350   3.936
 3889SOL     OW11998   2.475   0.842   5.155
 3889SOL    HW111999   2.531   0.923   5.138
 3889SOL    HW212000   2.534   0.762   5.158
 3890SOL     OW12001   3.355   1.767   4.683
 3890SOL    HW112002   3.388   1.831   4.614
 3890SOL    HW212003   3.421   1.761   4.758
 3891SOL     OW12004   2.578   0.565   5.432
 3891SOL    HW112005   2.597   0.630   5.506
 3891SOL    HW212006   2.638   0.485   5.441
 3892SOL     OW12007   3.312   1.220   5.357
 3892SOL    HW112008   3.303   1.210   5.456
 3892SOL    HW212009   3.408   1.213   5.331
 3893SOL     OW12010   2.252   1.741   5.284
 3893SOL    HW112011   2.161   1.782   5.282
 3893SOL    HW212012   2.245   1.647   5.316
 3894SOL     OW12013   3.536   0.883   4.978
 3894SOL    HW112014   3.509   0.794   4.941
 3894SOL    HW212015   3.537   0.951   4.905
 3895SOL     OW12016   3.087   0.325   4.173
 3895SOL    HW112017   3.152   0.251   4.162
 3895SOL    HW212018   3.107   0.375   4.257
 3896SOL     OW12019   2.456   0.745   4.376
 3896SOL    HW112020   2.506   0.830   4.357
 3896SOL    HW212021   2.368   0.747   4.328
 3897SOL     OW12022   3.639   0.342   5.366
 3897SOL    HW112023   3.622   0.373   5.272
 3897SOL    HW212024   3.555   0.305   5.404
 3898SOL     OW12025   3.592   0.934   5.241
 3898SOL    HW112026   3.630   1.025   5.256
 3898SOL    HW212027   3.584   0.917   5.142
 3899SOL     OW12028   2.721   1.374   3.740
 3899SOL    HW112029   2.675   1.389   3.828
 3899SOL    HW212030   2.765   1.459   3.710
 3900SOL     OW12031   2.523   1.790   4.677
 3900SOL    HW112032   2.477   1.878   4.664
 3900SOL    HW212033   2.622   1.802   4.670
 3901SOL     OW12034   2.721   0.956   4.585
 3901SOL    HW112035   2.775   0.887   4.633
 3901SOL    HW212036   2.689   1.025   4.651
 3902SOL     OW12037   2.945   0.984   3.811
 3902SOL    HW112038   2.922   1.037   3.729
 3902SOL    HW212039   3.026   0.928   3.792
 3903SOL     OW12040   3.723   1.569   4.575
 3903SOL    HW112041   3.652   1.557   4.505
 3903SOL    HW212042   3.724   1.490   4.635
 3904SOL     OW12043   2.083   1.314   5.568
 3904SOL    HW112044   2.018   1.241   5.547
 3904SOL    HW212045   2.087   1.328   5.666
 3905SOL     OW12046   1.941   1.240   4.377
 3905SOL    HW112047   1.940   1.193   4.465
 3905SOL    HW212048   2.023   1.212   4.326
 3906SOL     OW12049   2.534   1.391   5.348
 3906SOL    HW112050   2.456   1.341   5.386
 3906SOL    HW212051   2.531   1.486   5.379
 3907SOL     OW12052   3.686   0.192   4.951
 3907SOL    HW112053   3.682   0.102   4.995
 3907SOL    HW212054   3.689   0.181   4.852
 3908SOL     OW12055   2.290   0.424   4.244
 3908SOL    HW112056   2.320   0.352   4.182
 3908SOL    HW212057   2.251   0.384   4.327
 3909SOL     OW12058   3.567   1.487   4.828
 3909SOL    HW112059   3.474   1.462   4.801
 3909SOL    HW212060   3.593   1.437   4.910
 3910SOL     OW12061   2.179   0.547   5.004
 3910SOL    HW112062   2.217   0.488   5.076
 3910SOL    HW212063   2.219   0.521   4.916
 3911SOL     OW12064   2.674   1.586   4.411
 3911SOL    HW112065   2.706   1.596   4.317
 3911SOL    HW212066   2.595   1.524   4.413
 3912SOL     OW12067   3.286   0.214   4.836
 3912SOL    HW112068   3.338   0.149   4.891
 3912SOL    HW212069   3.237   0.277   4.897
 3913SOL     OW12070   2.863   0.034   4.878
 3913SOL    HW112071   2.800  -0.038   4.847
 3913SOL    HW212072   2.956  -0.002   4.878
 3914SOL     OW12073   2.632   1.330   4.025
 3914SOL    HW112074   2.586   1.243   4.042
 3914SOL    HW212075   2.723   1.327   4.066
 3915SOL     OW12076   2.480   1.567   5.008
 3915SOL    HW112077   2.475   1.649   5.065
 3915SOL    HW212078   2.569   1.564   4.963
 3916SOL     OW12079   3.214   0.052   3.892
 3916SOL    HW112080   3.249   0.011   3.808
 3916SOL    HW212081   3.124   0.014   3.912
 3917SOL     OW12082   3.162   0.453   4.415
 3917SOL    HW112083   3.103   0.533   4.419
 3917SOL    HW212084   3.177   0.418   4.508
 3918SOL     OW12085   3.455   0.221   4.606
 3918SOL    HW112086   3.371   0.220   4.660
 3918SOL    HW212087   3.457   0.304   4.550
 3919SOL     OW12088   1.901   1.077   4.024
 3919SOL    HW112089   2.000   1.066   4.015
 3919SOL    HW212090   1.861   0.991   4.056
 3920SOL     OW12091   2.737   1.646   4.061
 3920SOL    HW112092   2.660   1.611   4.007
 3920SOL    HW212093   2.705   1.717   4.123
 3921SOL     OW12094   2.092   0.628   5.699
 3921SOL    HW112095   1.999   0.626   5.736
 3921SOL    HW212096   2.093   0.589   5.607
 3922SOL     OW12097   2.087   0.275   6.582
 3922SOL    HW112098   2.122   0.258   6.674
 3922SOL    HW212099   1.999   0.230   6.570
 3923SOL     OW12100   1.881   0.368   6.233
 3923SOL    HW112101   1.799   0.411   6.272
 3923SOL    HW212102   1.853   0.295   6.170
 3924SOL     OW12103   2.431   1.275   6.751
 3924SOL    HW112104   2.338   1.268   6.714
 3924SOL    HW212105   2.442   1.364   6.795
 3925SOL     OW12106   3.417   1.511   6.289
 3925SOL    HW112107   3.360   1.495   6.370
 3925SOL    HW212108   3.358   1.521   6.209
 3926SOL     OW12109   2.997   0.703   6.303
 3926SOL    HW112110   3.054   0.781   6.278
 3926SOL    HW212111   2.937   0.729   6.379
 3927SOL     OW12112   3.617   0.607   5.817
 3927SOL    HW112113   3.605   0.594   5.718
 3927SOL    HW212114   3.587   0.526   5.866
 3928SOL     OW12115   2.630   1.144   6.609
 3928SOL    HW112116   2.552   1.161   6.669
 3928SOL    HW212117   2.664   1.231   6.573
 3929SOL     OW12118   2.712   0.798   7.409
 3929SOL    HW112119   2.708   0.874   7.474
 3929SOL    HW212120   2.734   0.834   7.318
 3930SOL     OW12121   2.547   1.012   6.251
 3930SOL    HW112122   2.616   0.996   6.321
 3930SOL    HW212123   2.474   1.069   6.289
 3931SOL     OW12124   2.548   1.161   7.389
 3931SOL    HW112125   2.608   1.240   7.403
 3931SOL    HW212126   2.462   1.192   7.348
 3932SOL     OW12127   2.197   1.435   6.647
 3932SOL    HW112128   2.119   1.404   6.594
 3932SOL    HW212129   2.255   1.493   6.590
 3933SOL     OW12130   3.322   1.505   6.925
 3933SOL    HW112131   3.346   1.599   6.951
 3933SOL    HW212132   3.306   1.451   7.007
 3934SOL     OW12133   2.300   0.392   7.085
 3934SOL    HW112134   2.382   0.336   7.094
 3934SOL    HW212135   2.219   0.334   7.089
 3935SOL     OW12136   3.465   0.447   6.323
 3935SOL    HW112137   3.391   0.493   6.273
 3935SOL    HW212138   3.516   0.515   6.376
 3936SOL     OW12139   2.093   1.713   6.069
 3936SOL    HW112140   2.127   1.790   6.123
 3936SOL    HW212141   2.137   1.713   5.979
 3937SOL     OW12142   2.989   1.341   7.276
 3937SOL    HW112143   3.036   1.341   7.364
 3937SOL    HW212144   2.941   1.254   7.265
 3938SOL     OW12145   2.092   1.434   6.124
 3938SOL    HW112146   2.066   1.530   6.124
 3938SOL    HW212147   2.021   1.380   6.169
 3939SOL     OW12148   2.102   1.091   6.472
 3939SOL    HW112149   2.116   1.007   6.524
 3939SOL    HW212150   2.047   1.155   6.527
 3940SOL     OW12151   2.482   1.786   7.025
 3940SOL    HW112152   2.390   1.769   7.060
 3940SOL    HW212153   2.510   1.878   7.051
 3941SOL     OW12154   2.468   0.964   5.709
 3941SOL    HW112155   2.475   1.048   5.655
 3941SOL    HW212156   2.514   0.977   5.797
 3942SOL     OW12157   3.456   0.114   7.066
 3942SOL    HW112158   3.438   0.181   6.994
 3942SOL    HW212159   3.453   0.160   7.155
 3943SOL     OW12160   1.984   0.643   6.149
 3943SOL    HW112161   1.939   0.555   6.166
 3943SOL    HW212162   1.983   0.697   6.233
 3944SOL     OW12163   3.704   1.767   5.945
 3944SOL    HW112164   3.758   1.738   6.025
 3944SOL    HW212165   3.734   1.857   5.916
 3945SOL     OW12166   1.889   1.596   5.703
 3945SOL    HW112167   1.870   1.500   5.724
 3945SOL    HW212168   1.856   1.654   5.778
 3946SOL     OW12169   3.551   0.922   6.198
 3946SOL    HW112170   3.646   0.893   6.206
 3946SOL    HW212171   3.543   0.987   6.123
 3947SOL     OW12172   3.503   1.108   6.018
 3947SOL    HW112173   3.589   1.110   5.966
 3947SOL    HW212174   3.517   1.155   6.106
 3948SOL     OW12175   1.975   0.737   7.183
 3948SOL    HW112176   2.063   0.724   7.228
 3948SOL    HW212177   1.962   0.834   7.161
 3949SOL     OW12178   2.475   1.365   6.312
 3949SOL    HW112179   2.426   1.278   6.321
 3949SOL    HW212180   2.452   1.408   6.225
 3950SOL     OW12181   3.155   1.228   7.009
 3950SOL    HW112182   3.192   1.155   6.951
 3950SOL    HW212183   3.207   1.233   7.094
 3951SOL     OW12184   2.671   0.004   6.088
 3951SOL    HW112185   2.711   0.095   6.079
 3951SOL    HW212186   2.571   0.012   6.094
 3952SOL     OW12187   2.059   0.976   6.850
 3952SOL    HW112188   2.148   0.931   6.836
 3952SOL    HW212189   1.986   0.911   6.831
 3953SOL     OW12190   3.387   0.999   5.776
 3953SOL    HW112191   3.324   0.923   5.789
 3953SOL    HW212192   3.435   1.017   5.862
 3954SOL     OW12193   3.049   1.792   7.202
 3954SOL    HW112194   3.073   1.852   7.126
 3954SOL    HW212195   3.056   1.697   7.172
 3955SOL     OW12196   2.179   0.251   7.387
 3955SOL    HW112197   2.250   0.322   7.393
 3955SOL    HW212198   2.091   0.290   7.415
 3956SOL     OW12199   3.328   1.417   6.539
 3956SOL    HW112200   3.269   1.423   6.619
 3956SOL    HW212201   3.313   1.329   6.493
 3957SOL     OW12202   3.529   1.714   6.158
 3957SOL    HW112203   3.488   1.691   6.070
 3957SOL    HW212204   3.511   1.640   6.223
 3958SOL     OW12205   2.460   0.729   5.856
 3958SOL    HW112206   2.484   0.798   5.788
 3958SOL    HW212207   2.382   0.762   5.910
 3959SOL     OW12208   3.143   0.345   6.530
 3959SOL    HW112209   3.057   0.295   6.517
 3959SOL    HW212210   3.205   0.291   6.586
 3960SOL     OW12211   3.438   1.662   5.893
 3960SOL    HW112212   3.527   1.708   5.896
 3960SOL    HW212213   3.417   1.638   5.798
 3961SOL     OW12214   2.669   0.605   7.051
 3961SOL    HW112215   2.622   0.602   7.140
 3961SOL    HW212216   2.618   0.550   6.985
 3962SOL     OW12217   3.256   0.469   7.260
 3962SOL    HW112218   3.236   0.512   7.348
 3962SOL    HW212219   3.334   0.407   7.269
 3963SOL     OW12220   2.835   0.890   7.158
 3963SOL    HW112221   2.881   0.806   7.129
 3963SOL    HW212222   2.779   0.924   7.083
 3964SOL     OW12223   2.853   0.410   6.828
 3964SOL    HW112224   2.776   0.444   6.882
 3964SOL    HW212225   2.819   0.359   6.749
 3965SOL     OW12226   2.903   0.701   6.015
 3965SOL    HW112227   2.929   0.697   6.111
 3965SOL    HW212228   2.818   0.650   6.001
 3966SOL     OW12229   1.938   0.811   6.375
 3966SOL    HW112230   2.037   0.799   6.384
 3966SOL    HW212231   1.914   0.906   6.396
 3967SOL     OW12232   1.992   1.821   7.157
 3967SOL    HW112233   1.982   1.806   7.256
 3967SOL    HW212234   1.906   1.857   7.121
 3968SOL     OW12235   2.727   0.348   5.781
 3968SOL    HW112236   2.786   0.411   5.732
 3968SOL    HW212237   2.746   0.254   5.752
 3969SOL     OW12238   3.581   0.585   7.417
 3969SOL    HW112239   3.555   0.674   7.381
 3969SOL    HW212240   3.579   0.517   7.344
 3970SOL     OW12241   3.224   1.144   6.131
 3970SOL    HW112242   3.307   1.115   6.083
 3970SOL    HW212243   3.175   1.211   6.075
 3971SOL     OW12244   2.412   0.196   6.471
 3971SOL    HW112245   2.407   0.191   6.571
 3971SOL    HW212246   2.414   0.292   6.442
 3972SOL     OW12247   2.870   1.456   6.063
 3972SOL    HW112248   2.824   1.528   6.011
 3972SOL    HW212249   2.866   1.476   6.161
 3973SOL     OW12250   2.213   1.801   6.439
 3973SOL    HW112251   2.263   1.715   6.445
 3973SOL    HW212252   2.278   1.878   6.436
 3974SOL     OW12253   3.657   1.066   6.459
 3974SOL    HW112254   3.595   1.051   6.383
 3974SOL    HW212255   3.605   1.077   6.544
 3975SOL     OW12256   3.089   1.550   7.092
 3975SOL    HW112257   3.095   1.473   7.156
 3975SOL    HW212258   3.037   1.524   7.012
 3976SOL     OW12259   2.183   0.943   5.828
 3976SOL    HW112260   2.265   0.982   5.786
 3976SOL    HW212261   2.156   0.861   5.779
 3977SOL     OW12262   3.320   0.735   6.314
 3977SOL    HW112263   3.315   0.670   6.389
 3977SOL    HW212264   3.400   0.794   6.327
 3978SOL     OW12265   2.323   1.266   7.313
 3978SOL    HW112266   2.273   1.267   7.227
 3978SOL    HW212267   2.260   1.248   7.389
 3979SOL     OW12268   2.973   1.776   5.823
 3979SOL    HW112269   2.913   1.714   5.873
 3979SOL    HW212270   3.004   1.732   5.738
 3980SOL     OW12271   2.064   0.285   7.084
 3980SOL    HW112272   1.984   0.345   7.071
 3980SOL    HW212273   2.054   0.236   7.170
 3981SOL     OW12274   3.494   1.377   5.667
 3981SOL    HW112275   3.462   1.471   5.657
 3981SOL    HW212276   3.418   1.314   5.655
 3982SOL     OW12277   2.326   1.743   5.909
 3982SOL    HW112278   2.359   1.782   5.995
 3982SOL    HW212279   2.402   1.736   5.844
 3983SOL     OW12280   3.262   0.107   6.012
 3983SOL    HW112281   3.238   0.070   5.922
 3983SOL    HW212282   3.361   0.123   6.016
 3984SOL     OW12283   2.111   1.785   6.827
 3984SOL    HW112284   2.168   1.720   6.877
 3984SOL    HW212285   2.095   1.752   6.734
 3985SOL     OW12286   2.802   1.698   6.490
 3985SOL    HW112287   2.882   1.641   6.511
 3985SOL    HW212288   2.753   1.658   6.413
 3986SOL     OW12289   2.244   0.700   6.066
 3986SOL    HW112290   2.289   0.610   6.063
 3986SOL    HW212291   2.150   0.689   6.099
 3987SOL     OW12292   3.409   0.222   7.315
 3987SOL    HW112293   3.404   0.259   7.407
 3987SOL    HW212294   3.337   0.153   7.303
 3988SOL     OW12295   2.476   0.122   5.703
 3988SOL    HW112296   2.574   0.100   5.710
 3988SOL    HW212297   2.445   0.105   5.610
 3989SOL     OW12298   2.643   0.264   7.335
 3989SOL    HW112299   2.710   0.203   7.378
 3989SOL    HW212300   2.570   0.283   7.400
 3990SOL     OW12301   2.750   1.514   6.781
 3990SOL    HW112302   2.727   1.489   6.687
 3990SOL    HW212303   2.811   1.445   6.820
 3991SOL     OW12304   3.213   0.590   7.019
 3991SOL    HW112305   3.241   0.547   7.104
 3991SOL    HW212306   3.238   0.686   7.020
 3992SOL     OW12307   2.665   1.402   6.510
 3992SOL    HW112308   2.755   1.416   6.468
 3992SOL    HW212309   2.594   1.404   6.439
 3993SOL     OW12310   2.784   0.503   6.485
 3993SOL    HW112311   2.759   0.494   6.389
 3993SOL    HW212312   2.832   0.421   6.516
 3994SOL     OW12313   2.401   0.064   6.098
 3994SOL    HW112314   2.320   0.065   6.156
 3994SOL    HW212315   2.404   0.147   6.043
 3995SOL     OW12316   3.296   1.188   5.627
 3995SOL    HW112317   3.328   1.112   5.684
 3995SOL    HW212318   3.204   1.215   5.657
 3996SOL     OW12319   2.159   0.035   5.757
 3996SOL    HW112320   2.208   0.119   5.736
 3996SOL    HW212321   2.221  -0.030   5.802
 3997SOL     OW12322   2.797   0.236   6.066
 3997SOL    HW112323   2.749   0.277   5.988
 3997SOL    HW212324   2.896   0.234   6.047
 3998SOL     OW12325   2.938   0.683   7.050
 3998SOL    HW112326   2.858   0.622   7.053
 3998SOL    HW212327   3.019   0.630   7.026
 3999SOL     OW12328   3.089   1.570   6.379
 3999SOL    HW112329   3.110   1.644   6.314
 3999SOL    HW212330   3.157   1.570   6.452
 4000SOL     OW12331   2.321   1.152   6.327
 4000SOL    HW112332   2.250   1.125   6.392
 4000SOL    HW212333   2.295   1.124   6.234
 4001SOL     OW12334   3.133   1.797   6.177
 4001SOL    HW112335   3.177   1.861   6.113
 4001SOL    HW212336   3.083   1.849   6.247
 4002SOL     OW12337   2.894   0.549   5.602
 4002SOL    HW112338   2.853   0.631   5.563
 4002SOL    HW212339   2.958   0.575   5.675
 4003SOL     OW12340   1.940   0.556   6.972
 4003SOL    HW112341   2.032   0.555   6.931
 4003SOL    HW212342   1.934   0.630   7.039
 4004SOL     OW12343   2.423   0.222   6.733
 4004SOL    HW112344   2.461   0.138   6.770
 4004SOL    HW212345   2.335   0.241   6.777
 4005SOL     OW12346   2.728   0.454   6.228
 4005SOL    HW112347   2.696   0.526   6.166
 4005SOL    HW212348   2.752   0.373   6.175
 4006SOL     OW12349   2.879   0.039   6.339
 4006SOL    HW112350   2.807   0.044   6.270
 4006SOL    HW212351   2.855  -0.030   6.408
 4007SOL     OW12352   3.291   1.173   6.453
 4007SOL    HW112353   3.236   1.089   6.446
 4007SOL    HW212354   3.317   1.202   6.361
 4008SOL     OW12355   3.328   0.590   6.578
 4008SOL    HW112356   3.298   0.495   6.585
 4008SOL    HW212357   3.401   0.606   6.644
 4009SOL     OW12358   3.719   0.833   5.963
 4009SOL    HW112359   3.761   0.769   6.027
 4009SOL    HW212360   3.681   0.782   5.885
 4010SOL     OW12361   2.350   1.385   5.760
 4010SOL    HW112362   2.263   1.370   5.807
 4010SOL    HW212363   2.333   1.411   5.665
 4011SOL     OW12364   3.526   1.280   6.243
 4011SOL    HW112365   3.625   1.288   6.257
 4011SOL    HW212366   3.481   1.364   6.274
 4012SOL     OW12367   3.252   0.575   5.664
 4012SOL    HW112368   3.198   0.554   5.745
 4012SOL    HW212369   3.343   0.534   5.673
 4013SOL     OW12370   2.389   0.256   5.914
 4013SOL    HW112371   2.416   0.197   5.839
 4013SOL    HW212372   2.389   0.351   5.883
 4014SOL     OW12373   3.616   1.223   7.174
 4014SOL    HW112374   3.707   1.184   7.161
 4014SOL    HW212375   3.624   1.319   7.198
 4015SOL     OW12376   2.926   1.347   6.926
 4015SOL    HW112377   2.846   1.324   6.981
 4015SOL    HW212378   3.009   1.321   6.975
 4016SOL     OW12379   3.454   1.629   7.211
 4016SOL    HW112380   3.481   1.663   7.121
 4016SOL    HW212381   3.533   1.591   7.257
 4017SOL     OW12382   2.973   1.195   6.686
 4017SOL    HW112383   2.933   1.239   6.767
 4017SOL    HW212384   2.932   1.232   6.603
 4018SOL     OW12385   3.500   1.099   6.665
 4018SOL    HW112386   3.505   1.180   6.724
 4018SOL    HW212387   3.414   1.101   6.614
 4019SOL     OW12388   2.777   0.089   6.988
 4019SOL    HW112389   2.802   0.069   6.893
 4019SOL    HW212390   2.849   0.145   7.030
 4020SOL     OW12391   2.842   1.116   7.305
 4020SOL    HW112392   2.743   1.122   7.315
 4020SOL    HW212393   2.865   1.036   7.249
 4021SOL     OW12394   2.567   1.050   5.954
 4021SOL    HW112395   2.553   1.057   6.053
 4021SOL    HW212396   2.651   0.999   5.936
 4022SOL     OW12397   2.272   0.813   6.837
 4022SOL    HW112398   2.358   0.825   6.887
 4022SOL    HW212399   2.230   0.726   6.864
 4023SOL     OW12400   3.136   0.386   6.848
 4023SOL    HW112401   3.157   0.460   6.912
 4023SOL    HW212402   3.047   0.403   6.805
 4024SOL     OW12403   1.926   1.564   6.917
 4024SOL    HW112404   1.880   1.646   6.883
 4024SOL    HW212405   2.024   1.583   6.926
 4025SOL     OW12406   2.229   1.100   6.087
 4025SOL    HW112407   2.222   1.183   6.031
 4025SOL    HW212408   2.233   1.020   6.027
 4026SOL     OW12409   2.428   0.537   6.451
 4026SOL    HW112410   2.440   0.603   6.377
 4026SOL    HW212411   2.474   0.571   6.534
 4027SOL     OW12412   3.114   1.348   5.974
 4027SOL    HW112413   3.164   1.425   6.014
 4027SOL    HW212414   3.019   1.350   6.006
 4028SOL     OW12415   3.134   1.445   6.728
 4028SOL    HW112416   3.181   1.458   6.815
 4028SOL    HW212417   3.068   1.371   6.737
 4029SOL     OW12418   3.444   0.639   6.058
 4029SOL    HW112419   3.413   0.700   6.131
 4029SOL    HW212420   3.494   0.691   5.989
 4030SOL     OW12421   2.216   1.510   6.915
 4030SOL    HW112422   2.195   1.466   6.828
 4030SOL    HW212423   2.313   1.536   6.918
 4031SOL     OW12424   2.264   0.751   7.184
 4031SOL    HW112425   2.332   0.806   7.137
 4031SOL    HW212426   2.304   0.663   7.211
 4032SOL     OW12427   3.449   0.779   7.256
 4032SOL    HW112428   3.357   0.817   7.251
 4032SOL    HW212429   3.509   0.826   7.191
 4033SOL     OW12430   2.875   0.105   7.356
 4033SOL    HW112431   2.881   0.190   7.304
 4033SOL    HW212432   2.907   0.029   7.299
 4034SOL     OW12433   2.366   0.050   7.326
 4034SOL    HW112434   2.324  -0.007   7.256
 4034SOL    HW212435   2.300   0.119   7.358
 4035SOL     OW12436   2.435   0.870   6.615
 4035SOL    HW112437   2.479   0.959   6.606
 4035SOL    HW212438   2.372   0.870   6.692
 4036SOL     OW12439   3.222   0.862   6.631
 4036SOL    HW112440   3.147   0.862   6.565
 4036SOL    HW212441   3.259   0.770   6.640
 4037SOL     OW12442   3.071   0.525   5.861
 4037SOL    HW112443   3.084   0.441   5.915
 4037SOL    HW212444   3.042   0.599   5.921
 4038SOL     OW12445   2.169   0.213   6.817
 4038SOL    HW112446   2.146   0.250   6.907
 4038SOL    HW212447   2.139   0.118   6.811
 4039SOL     OW12448   1.899   1.310   6.868
 4039SOL    HW112449   1.952   1.261   6.936
 4039SOL    HW212450   1.921   1.408   6.873
 4040SOL     OW12451   2.594   0.634   6.650
 4040SOL    HW112452   2.653   0.608   6.574
 4040SOL    HW212453   2.566   0.730   6.639
 4041SOL     OW12454   3.590   0.935   7.440
 4041SOL    HW112455   3.544   0.928   7.351
 4041SOL    HW212456   3.528   0.979   7.506
 4042SOL     OW12457   2.169   0.063   6.204
 4042SOL    HW112458   2.158   0.157   6.237
 4042SOL    HW212459   2.164   0.000   6.281
 4043SOL     OW12460   3.484   0.367   5.960
 4043SOL    HW112461   3.486   0.291   6.024
 4043SOL    HW212462   3.436   0.444   6.000
 4044SOL     OW12463   2.885   0.766   6.552
 4044SOL    HW112464   2.900   0.787   6.648
 4044SOL    HW212465   2.855   0.671   6.543
 4045SOL     OW12466   2.842   1.573   7.286
 4045SOL    HW112467   2.822   1.617   7.198
 4045SOL    HW212468   2.881   1.482   7.270
 4046SOL     OW12469   3.721   1.518   7.191
 4046SOL    HW112470   3.735   1.545   7.096
 4046SOL    HW212471   3.804   1.540   7.244
 4047SOL     OW12472   2.212   0.898   7.390
 4047SOL    HW112473   2.288   0.942   7.438
 4047SOL    HW212474   2.247   0.851   7.308
 4048SOL     OW12475   3.402   0.274   5.711
 4048SOL    HW112476   3.341   0.199   5.734
 4048SOL    HW212477   3.424   0.326   5.794
 4049SOL     OW12478   3.165   0.838   5.628
 4049SOL    HW112479   3.199   0.745   5.643
 4049SOL    HW212480   3.183   0.865   5.533
 4050SOL     OW12481   2.930   1.333   6.435
 4050SOL    HW112482   2.937   1.249   6.380
 4050SOL    HW212483   2.992   1.402   6.399
 4051SOL     OW12484   2.181   0.810   6.535
 4051SOL    HW112485   2.274   0.846   6.540
 4051SOL    HW212486   2.175   0.725   6.587
 4052SOL     OW12487   2.201   0.509   6.592
 4052SOL    HW112488   2.149   0.426   6.575
 4052SOL    HW212489   2.278   0.514   6.528
 4053SOL     OW12490   3.000   0.380   7.264
 4053SOL    HW112491   2.955   0.443   7.328
 4053SOL    HW212492   3.093   0.411   7.247
 4054SOL     OW12493   3.022   0.207   7.063
 4054SOL    HW112494   3.022   0.271   7.140
 4054SOL    HW212495   3.050   0.255   6.980
 4055SOL     OW12496   1.870   1.326   5.786
 4055SOL    HW112497   1.777   1.347   5.755
 4055SOL    HW212498   1.880   1.227   5.799
 4056SOL     OW12499   1.950   1.801   6.513
 4056SOL    HW112500   1.908   1.715   6.486
 4056SOL    HW212501   2.044   1.804   6.479
 4057SOL     OW12502   2.366   1.568   6.496
 4057SOL    HW112503   2.432   1.642   6.505
 4057SOL    HW212504   2.410   1.489   6.454
 4058SOL     OW12505   2.864   0.796   6.824
 4058SOL    HW112506   2.905   0.764   6.910
 4058SOL    HW212507   2.768   0.769   6.821
 4059SOL     OW12508   1.902   0.544   6.700
 4059SOL    HW112509   1.987   0.511   6.659
 4059SOL    HW212510   1.915   0.559   6.798
 4060SOL     OW12511   2.051   0.520   7.308
 4060SOL    HW112512   2.110   0.480   7.238
 4060SOL    HW212513   1.993   0.591   7.267
 4061SOL     OW12514   3.231   0.950   7.246
 4061SOL    HW112515   3.270   1.039   7.266
 4061SOL    HW212516   3.241   0.930   7.149
 4062SOL     OW12517   2.677   0.572   5.911
 4062SOL    HW112518   2.684   0.483   5.865
 4062SOL    HW212519   2.583   0.606   5.903
 4063SOL     OW12520   3.519   0.604   6.792
 4063SOL    HW112521   3.481   0.535   6.854
 4063SOL    HW212522   3.601   0.568   6.748
 4064SOL     OW12523   2.114   1.564   7.330
 4064SOL    HW112524   2.084   1.621   7.406
 4064SOL    HW212525   2.107   1.467   7.356
 4065SOL     OW12526   2.533   0.464   6.855
 4065SOL    HW112527   2.499   0.375   6.825
 4065SOL    HW212528   2.559   0.518   6.775
 4066SOL     OW12529   2.792   1.678   7.051
 4066SOL    HW112530   2.768   1.660   6.956
 4066SOL    HW212531   2.822   1.772   7.061
 4067SOL     OW12532   2.335   0.500   5.777
 4067SOL    HW112533   2.396   0.580   5.781
 4067SOL    HW212534   2.240   0.531   5.784
 4068SOL     OW12535   2.021   1.137   7.052
 4068SOL    HW112536   2.043   1.076   7.128
 4068SOL    HW212537   2.031   1.088   6.966
 4069SOL     OW12538   3.209   1.059   6.820
 4069SOL    HW112539   3.233   0.996   6.746
 4069SOL    HW212540   3.119   1.099   6.802
 4070SOL     OW12541   3.164   0.855   5.895
 4070SOL    HW112542   3.078   0.824   5.937
 4070SOL    HW212543   3.160   0.841   5.796
 4071SOL     OW12544   3.621   1.747   6.740
 4071SOL    HW112545   3.682   1.777   6.667
 4071SOL    HW212546   3.583   1.658   6.718
 4072SOL     OW12547   3.114   1.731   6.714
 4072SOL    HW112548   3.198   1.736   6.660
 4072SOL    HW212549   3.091   1.635   6.732
 4073SOL     OW12550   1.945   1.258   6.608
 4073SOL    HW112551   1.940   1.257   6.708
 4073SOL    HW212552   1.862   1.217   6.570
 4074SOL     OW12553   2.550   1.662   7.302
 4074SOL    HW112554   2.494   1.743   7.311
 4074SOL    HW212555   2.602   1.666   7.216
 4075SOL     OW12556   3.588   0.135   6.109
 4075SOL    HW112557   3.661   0.118   6.042
 4075SOL    HW212558   3.557   0.048   6.147
 4076SOL     OW12559   3.250   1.573   6.063
 4076SOL    HW112560   3.317   1.585   5.989
 4076SOL    HW212561   3.210   1.662   6.086
 4077SOL     OW12562   1.992   1.794   7.437
 4077SOL    HW112563   1.951   1.720   7.490
 4077SOL    HW212564   2.056   1.845   7.495
 4078SOL     OW12565   3.142   0.927   6.258
 4078SOL    HW112566   3.202   0.846   6.260
 4078SOL    HW212567   3.182   0.996   6.198
 4079SOL     OW12568   2.692   1.273   7.008
 4079SOL    HW112569   2.687   1.306   7.103
 4079SOL    HW212570   2.606   1.292   6.962
 4080SOL     OW12571   2.534   1.616   5.740
 4080SOL    HW112572   2.543   1.626   5.641
 4080SOL    HW212573   2.494   1.527   5.761
 4081SOL     OW12574   3.512   1.720   6.980
 4081SOL    HW112575   3.565   1.730   6.896
 4081SOL    HW212576   3.485   1.810   7.014
 4082SOL     OW12577   3.703   0.175   6.549
 4082SOL    HW112578   3.742   0.090   6.513
 4082SOL    HW212579   3.605   0.177   6.530
 4083SOL     OW12580   2.125   0.326   6.306
 4083SOL    HW112581   2.046   0.377   6.272
 4083SOL    HW212582   2.116   0.311   6.404
 4084SOL     OW12583   3.056   1.612   5.617
 4084SOL    HW112584   3.062   1.519   5.654
 4084SOL    HW212585   2.997   1.612   5.537
 4085SOL     OW12586   2.684   1.002   6.958
 4085SOL    HW112587   2.724   1.001   6.866
 4085SOL    HW212588   2.694   1.094   6.998
 4086SOL     OW12589   2.778   0.910   5.877
 4086SOL    HW112590   2.841   0.948   5.809
 4086SOL    HW212591   2.818   0.827   5.916
 4087SOL     OW12592   3.366   1.607   5.630
 4087SOL    HW112593   3.274   1.644   5.637
 4087SOL    HW212594   3.404   1.627   5.540
 4088SOL     OW12595   2.234   1.288   7.076
 4088SOL    HW112596   2.221   1.381   7.042
 4088SOL    HW212597   2.150   1.236   7.063
 4089SOL     OW12598   3.476   1.292   6.875
 4089SOL    HW112599   3.536   1.295   6.955
 4089SOL    HW212600   3.401   1.356   6.888
 4090SOL     OW12601   2.901   1.098   6.282
 4090SOL    HW112602   2.831   1.051   6.336
 4090SOL    HW212603   2.960   1.030   6.239
 4091SOL     OW12604   2.876   0.236   6.557
 4091SOL    HW112605   2.868   0.200   6.464
 4091SOL    HW212606   2.874   0.160   6.622
 4092SOL     OW12607   2.452   1.487   6.077
 4092SOL    HW112608   2.494   1.429   6.007
 4092SOL    HW212609   2.408   1.566   6.033
 4093SOL     OW12610   3.571   0.385   6.967
 4093SOL    HW112611   3.644   0.454   6.971
 4093SOL    HW212612   3.599   0.310   6.908
 4094SOL     OW12613   2.117   1.348   5.876
 4094SOL    HW112614   2.021   1.349   5.849
 4094SOL    HW212615   2.129   1.401   5.960
 4095SOL     OW12616   1.967   1.013   7.312
 4095SOL    HW112617   1.890   0.980   7.366
 4095SOL    HW212618   2.052   0.983   7.354
 4096SOL     OW12619   2.534   0.203   7.075
 4096SOL    HW112620   2.624   0.187   7.035
 4096SOL    HW212621   2.542   0.208   7.174
 4097SOL     OW12622   1.937   0.345   5.619
 4097SOL    HW112623   1.845   0.317   5.590
 4097SOL    HW212624   1.968   0.422   5.563
 4098SOL     OW12625   3.302   0.856   6.984
 4098SOL    HW112626   3.245   0.908   6.921
 4098SOL    HW212627   3.398   0.868   6.960
 4099SOL     OW12628   1.934   0.166   5.904
 4099SOL    HW112629   1.917   0.249   5.850
 4099SOL    HW212630   2.024   0.129   5.882
 4100SOL     OW12631   3.045   1.335   5.705
 4100SOL    HW112632   2.946   1.324   5.707
 4100SOL    HW212633   3.079   1.350   5.798
 4101SOL     OW12634   2.475   0.842   7.017
 4101SOL    HW112635   2.531   0.923   7.000
 4101SOL    HW212636   2.534   0.762   7.020
 4102SOL     OW12637   3.355   1.767   6.545
 4102SOL    HW112638   3.388   1.831   6.476
 4102SOL    HW212639   3.421   1.761   6.620
 4103SOL     OW12640   2.578   0.565   7.294
 4103SOL    HW112641   2.597   0.630   7.368
 4103SOL    HW212642   2.638   0.485   7.303
 4104SOL     OW12643   3.312   1.220   7.219
 4104SOL    HW112644   3.303   1.210   7.318
 4104SOL    HW212645   3.408   1.213   7.193
 4105SOL     OW12646   2.252   1.741   7.146
 4105SOL    HW112647   2.161   1.782   7.144
 4105SOL    HW212648   2.245   1.647   7.178
 4106SOL     OW12649   3.536   0.883   6.840
 4106SOL    HW112650   3.509   0.794   6.803
 4106SOL    HW212651   3.537   0.951   6.767
 4107SOL     OW12652   3.087   0.325   6.035
 4107SOL    HW112653   3.152   0.251   6.024
 4107SOL    HW212654   3.107   0.375   6.119
 4108SOL     OW12655   2.456   0.745   6.238
 4108SOL    HW112656   2.506   0.830   6.219
 4108SOL    HW212657   2.368   0.747   6.190
 4109SOL     OW12658   3.639   0.342   7.228
 4109SOL    HW112659   3.622   0.373   7.134
 4109SOL    HW212660   3.555   0.305   7.266
 4110SOL     OW12661   3.592   0.934   7.103
 4110SOL    HW112662   3.630   1.025   7.118
 4110SOL    HW212663   3.584   0.917   7.004
 4111SOL     OW12664   2.721   1.374   5.602
 4111SOL    HW112665   2.675   1.389   5.690
 4111SOL    HW212666   2.765   1.459   5.572
 4112SOL     OW12667   2.523   1.790   6.539
 4112SOL    HW112668   2.477   1.878   6.526
 4112SOL    HW212669   2.622   1.802   6.532
 4113SOL     OW12670   2.721   0.956   6.447
 4113SOL    HW112671   2.775   0.887   6.495
 4113SOL    HW212672   2.689   1.025   6.513
 4114SOL     OW12673   2.945   0.984   5.673
 4114SOL    HW112674   2.922   1.037   5.591
 4114SOL    HW212675   3.026   0.928   5.654
 4115SOL     OW12676   3.723   1.569   6.437
 4115SOL    HW112677   3.652   1.557   6.367
 4115SOL    HW212678   3.724   1.490   6.497
 4116SOL     OW12679   2.083   1.314   7.430
 4116SOL    HW112680   2.018   1.241   7.409
 4116SOL    HW212681   2.087   1.328   7.528
 4117SOL     OW12682   1.941   1.240   6.239
 4117SOL    HW112683   1.940   1.193   6.327
 4117SOL    HW212684   2.023   1.212   6.188
 4118SOL     OW12685   2.534   1.391   7.210
 4118SOL    HW112686   2.456   1.341   7.248
 4118SOL    HW212687   2.531   1.486   7.241
 4119SOL     OW12688   3.686   0.192   6.813
 4119SOL    HW112689   3.682   0.102   6.857
 4119SOL    HW212690   3.689   0.181   6.714
 4120SOL     OW12691   2.290   0.424   6.106
 4120SOL    HW112692   2.320   0.352   6.044
 4120SOL    HW212693   2.251   0.384   6.189
 4121SOL     OW12694   3.567   1.487   6.690
 4121SOL    HW112695   3.474   1.462   6.663
 4121SOL    HW212696   3.593   1.437   6.772
 4122SOL     OW12697   2.179   0.547   6.866
 4122SOL    HW112698   2.217   0.488   6.938
 4122SOL    HW212699   2.219   0.521   6.778
 4123SOL     OW12700   2.674   1.586   6.273
 4123SOL    HW112701   2.706   1.596   6.179
 4123SOL    HW212702   2.595   1.524   6.275
 4124SOL     OW12703   3.286   0.214   6.698
 4124SOL    HW112704   3.338   0.149   6.753
 4124SOL    HW212705   3.237   0.277   6.759
 4125SOL     OW12706   2.863   0.034   6.740
 4125SOL    HW112707   2.800  -0.038   6.709
 4125SOL    HW212708   2.956  -0.002   6.740
 4126SOL     OW12709   2.632   1.330   5.887
 4126SOL    HW112710   2.586   1.243   5.904
 4126SOL    HW212711   2.723   1.327   5.928
 4127SOL     OW12712   2.480   1.567   6.870
 4127SOL    HW112713   2.475   1.649   6.927
 4127SOL    HW212714   2.569   1.564   6.825
 4128SOL     OW12715   3.214   0.052   5.754
 4128SOL    HW112716   3.249   0.011   5.670
 4128SOL    HW212717   3.124   0.014   5.774
 4129SOL     OW12718   3.162   0.453   6.277
 4129SOL    HW112719   3.103   0.533   6.281
 4129SOL    HW212720   3.177   0.418   6.370
 4130SOL     OW12721   3.455   0.221   6.468
 4130SOL    HW112722   3.371   0.220   6.522
 4130SOL    HW212723   3.457   0.304   6.412
 4131SOL     OW12724   1.901   1.077   5.886
 4131SOL    HW112725   2.000   1.066   5.877
 4131SOL    HW212726   1.861   0.991   5.918
 4132SOL     OW12727   2.737   1.646   5.923
 4132SOL    HW112728   2.660   1.611   5.869
 4132SOL    HW212729   2.705   1.717   5.985
 4133SOL     OW12730   2.092   0.628   7.561
 4133SOL    HW112731   1.999   0.626   7.598
 4133SOL    HW212732   2.093   0.589   7.469
 4134SOL     OW12733   2.087   0.275   8.444
 4134SOL    HW112734   2.122   0.258   8.536
 4134SOL    HW212735   1.999   0.230   8.432
 4135SOL     OW12736   1.881   0.368   8.095
 4135SOL    HW112737   1.799   0.411   8.134
 4135SOL    HW212738   1.853   0.295   8.032
 4136SOL     OW12739   2.431   1.275   8.613
 4136SOL    HW112740   2.338   1.268   8.576
 4136SOL    HW212741   2.442   1.364   8.657
 4137SOL     OW12742   3.417   1.511   8.151
 4137SOL    HW112743   3.360   1.495   8.232
 4137SOL    HW212744   3.358   1.521   8.071
 4138SOL     OW12745   2.997   0.703   8.165
 4138SOL    HW112746   3.054   0.781   8.140
 4138SOL    HW212747   2.937   0.729   8.241
 4139SOL     OW12748   3.617   0.607   7.679
 4139SOL    HW112749   3.605   0.594   7.580
 4139SOL    HW212750   3.587   0.526   7.728
 4140SOL     OW12751   2.630   1.144   8.471
 4140SOL    HW112752   2.552   1.161   8.531
 4140SOL    HW212753   2.664   1.231   8.435
 4141SOL     OW12754   2.712   0.798   9.271
 4141SOL    HW112755   2.708   0.874   9.336
 4141SOL    HW212756   2.734   0.834   9.180
 4142SOL     OW12757   2.547   1.012   8.113
 4142SOL    HW112758   2.616   0.996   8.183
 4142SOL    HW212759   2.474   1.069   8.151
 4143SOL     OW12760   2.548   1.161   9.251
 4143SOL    HW112761   2.608   1.240   9.265
 4143SOL    HW212762   2.462   1.192   9.210
 4144SOL     OW12763   2.197   1.435   8.509
 4144SOL    HW112764   2.119   1.404   8.456
 4144SOL    HW212765   2.255   1.493   8.452
 4145SOL     OW12766   3.322   1.505   8.787
 4145SOL    HW112767   3.346   1.599   8.813
 4145SOL    HW212768   3.306   1.451   8.869
 4146SOL     OW12769   2.300   0.392   8.947
 4146SOL    HW112770   2.382   0.336   8.956
 4146SOL    HW212771   2.219   0.334   8.951
 4147SOL     OW12772   3.465   0.447   8.185
 4147SOL    HW112773   3.391   0.493   8.135
 4147SOL    HW212774   3.516   0.515   8.238
 4148SOL     OW12775   2.093   1.713   7.931
 4148SOL    HW112776   2.127   1.790   7.985
 4148SOL    HW212777   2.137   1.713   7.841
 4149SOL     OW12778   2.989   1.341   9.138
 4149SOL    HW112779   3.036   1.341   9.226
 4149SOL    HW212780   2.941   1.254   9.127
 4150SOL     OW12781   2.092   1.434   7.986
 4150SOL    HW112782   2.066   1.530   7.986
 4150SOL    HW212783   2.021   1.380   8.031
 4151SOL     OW12784   2.102   1.091   8.334
 4151SOL    HW112785   2.116   1.007   8.386
 4151SOL    HW212786   2.047   1.155   8.389
 4152SOL     OW12787   2.482   1.786   8.887
 4152SOL    HW112788   2.390   1.769   8.922
 4152SOL    HW212789   2.510   1.878   8.913
 4153SOL     OW12790   2.468   0.964   7.571
 4153SOL    HW112791   2.475   1.048   7.517
 4153SOL    HW212792   2.514   0.977   7.659
 4154SOL     OW12793   3.456   0.114   8.928
 4154SOL    HW112794   3.438   0.181   8.856
 4154SOL    HW212795   3.453   0.160   9.017
 4155SOL     OW12796   1.984   0.643   8.011
 4155SOL    HW112797   1.939   0.555   8.028
 4155SOL    HW212798   1.983   0.697   8.095
 4156SOL     OW12799   3.704   1.767   7.807
 4156SOL    HW112800   3.758   1.738   7.887
 4156SOL    HW212801   3.734   1.857   7.778
 4157SOL     OW12802   1.889   1.596   7.565
 4157SOL    HW112803   1.870   1.500   7.586
 4157SOL    HW212804   1.856   1.654   7.640
 4158SOL     OW12805   3.551   0.922   8.060
 4158SOL    HW112806   3.646   0.893   8.068
 4158SOL    HW212807   3.543   0.987   7.985
 4159SOL     OW12808   3.503   1.108   7.880
 4159SOL    HW112809   3.589   1.110   7.828
 4159SOL    HW212810   3.517   1.155   7.968
 4160SOL     OW12811   1.975   0.737   9.045
 4160SOL    HW112812   2.063   0.724   9.090
 4160SOL    HW212813   1.962   0.834   9.023
 4161SOL     OW12814   2.475   1.365   8.174
 4161SOL    HW112815   2.426   1.278   8.183
 4161SOL    HW212816   2.452   1.408   8.087
 4162SOL     OW12817   3.155   1.228   8.871
 4162SOL    HW112818   3.192   1.155   8.813
 4162SOL    HW212819   3.207   1.233   8.956
 4163SOL     OW12820   2.671   0.004   7.950
 4163SOL    HW112821   2.711   0.095   7.941
 4163SOL    HW212822   2.571   0.012   7.956
 4164SOL     OW12823   2.059   0.976   8.712
 4164SOL    HW112824   2.148   0.931   8.698
 4164SOL    HW212825   1.986   0.911   8.693
 4165SOL     OW12826   3.387   0.999   7.638
 4165SOL    HW112827   3.324   0.923   7.651
 4165SOL    HW212828   3.435   1.017   7.724
 4166SOL     OW12829   3.049   1.792   9.064
 4166SOL    HW112830   3.073   1.852   8.988
 4166SOL    HW212831   3.056   1.697   9.034
 4167SOL     OW12832   2.179   0.251   9.249
 4167SOL    HW112833   2.250   0.322   9.255
 4167SOL    HW212834   2.091   0.290   9.277
 4168SOL     OW12835   3.328   1.417   8.401
 4168SOL    HW112836   3.269   1.423   8.481
 4168SOL    HW212837   3.313   1.329   8.355
 4169SOL     OW12838   3.529   1.714   8.020
 4169SOL    HW112839   3.488   1.691   7.932
 4169SOL    HW212840   3.511   1.640   8.085
 4170SOL     OW12841   2.460   0.729   7.718
 4170SOL    HW112842   2.484   0.798   7.650
 4170SOL    HW212843   2.382   0.762   7.772
 4171SOL     OW12844   3.143   0.345   8.392
 4171SOL    HW112845   3.057   0.295   8.379
 4171SOL    HW212846   3.205   0.291   8.448
 4172SOL     OW12847   3.438   1.662   7.755
 4172SOL    HW112848   3.527   1.708   7.758
 4172SOL    HW212849   3.417   1.638   7.660
 4173SOL     OW12850   2.669   0.605   8.913
 4173SOL    HW112851   2.622   0.602   9.002
 4173SOL    HW212852   2.618   0.550   8.847
 4174SOL     OW12853   3.256   0.469   9.122
 4174SOL    HW112854   3.236   0.512   9.210
 4174SOL    HW212855   3.334   0.407   9.131
 4175SOL     OW12856   2.835   0.890   9.020
 4175SOL    HW112857   2.881   0.806   8.991
 4175SOL    HW212858   2.779   0.924   8.945
 4176SOL     OW12859   2.853   0.410   8.690
 4176SOL    HW112860   2.776   0.444   8.744
 4176SOL    HW212861   2.819   0.359   8.611
 4177SOL     OW12862   2.903   0.701   7.877
 4177SOL    HW112863   2.929   0.697   7.973
 4177SOL    HW212864   2.818   0.650   7.863
 4178SOL     OW12865   1.938   0.811   8.237
 4178SOL    HW112866   2.037   0.799   8.246
 4178SOL    HW212867   1.914   0.906   8.258
 4179SOL     OW12868   1.992   1.821   9.019
 4179SOL    HW112869   1.982   1.806   9.118
 4179SOL    HW212870   1.906   1.857   8.983
 4180SOL     OW12871   2.727   0.348   7.643
 4180SOL    HW112872   2.786   0.411   7.594
 4180SOL    HW212873   2.746   0.254   7.614
 4181SOL     OW12874   3.581   0.585   9.279
 4181SOL    HW112875   3.555   0.674   9.243
 4181SOL    HW212876   3.579   0.517   9.206
 4182SOL     OW12877   3.224   1.144   7.993
 4182SOL    HW112878   3.307   1.115   7.945
 4182SOL    HW212879   3.175   1.211   7.937
 4183SOL     OW12880   2.412   0.196   8.333
 4183SOL    HW112881   2.407   0.191   8.433
 4183SOL    HW212882   2.414   0.292   8.304
 4184SOL     OW12883   2.870   1.456   7.925
 4184SOL    HW112884   2.824   1.528   7.873
 4184SOL    HW212885   2.866   1.476   8.023
 4185SOL     OW12886   2.213   1.801   8.301
 4185SOL    HW112887   2.263   1.715   8.307
 4185SOL    HW212888   2.278   1.878   8.298
 4186SOL     OW12889   3.657   1.066   8.321
 4186SOL    HW112890   3.595   1.051   8.245
 4186SOL    HW212891   3.605   1.077   8.406
 4187SOL     OW12892   3.089   1.550   8.954
 4187SOL    HW112893   3.095   1.473   9.018
 4187SOL    HW212894   3.037   1.524   8.874
 4188SOL     OW12895   2.183   0.943   7.690
 4188SOL    HW112896   2.265   0.982   7.648
 4188SOL    HW212897   2.156   0.861   7.641
 4189SOL     OW12898   3.320   0.735   8.176
 4189SOL    HW112899   3.315   0.670   8.251
 4189SOL    HW212900   3.400   0.794   8.189
 4190SOL     OW12901   2.323   1.266   9.175
 4190SOL    HW112902   2.273   1.267   9.089
 4190SOL    HW212903   2.260   1.248   9.251
 4191SOL     OW12904   2.973   1.776   7.685
 4191SOL    HW112905   2.913   1.714   7.735
 4191SOL    HW212906   3.004   1.732   7.600
 4192SOL     OW12907   2.064   0.285   8.946
 4192SOL    HW112908   1.984   0.345   8.933
 4192SOL    HW212909   2.054   0.236   9.032
 4193SOL     OW12910   3.494   1.377   7.529
 4193SOL    HW112911   3.462   1.471   7.519
 4193SOL    HW212912   3.418   1.314   7.517
 4194SOL     OW12913   2.326   1.743   7.771
 4194SOL    HW112914   2.359   1.782   7.857
 4194SOL    HW212915   2.402   1.736   7.706
 4195SOL     OW12916   3.262   0.107   7.874
 4195SOL    HW112917   3.238   0.070   7.784
 4195SOL    HW212918   3.361   0.123   7.878
 4196SOL     OW12919   2.111   1.785   8.689
 4196SOL    HW112920   2.168   1.720   8.739
 4196SOL    HW212921   2.095   1.752   8.596
 4197SOL     OW12922   2.802   1.698   8.352
 4197SOL    HW112923   2.882   1.641   8.373
 4197SOL    HW212924   2.753   1.658   8.275
 4198SOL     OW12925   2.244   0.700   7.928
 4198SOL    HW112926   2.289   0.610   7.925
 4198SOL    HW212927   2.150   0.689   7.961
 4199SOL     OW12928   3.409   0.222   9.177
 4199SOL    HW112929   3.404   0.259   9.269
 4199SOL    HW212930   3.337   0.153   9.165
 4200SOL     OW12931   2.476   0.122   7.565
 4200SOL    HW112932   2.574   0.100   7.572
 4200SOL    HW212933   2.445   0.105   7.472
 4201SOL     OW12934   2.643   0.264   9.197
 4201SOL    HW112935   2.710   0.203   9.240
 4201SOL    HW212936   2.570   0.283   9.262
 4202SOL     OW12937   2.750   1.514   8.643
 4202SOL    HW112938   2.727   1.489   8.549
 4202SOL    HW212939   2.811   1.445   8.682
 4203SOL     OW12940   3.213   0.590   8.881
 4203SOL    HW112941   3.241   0.547   8.966
 4203SOL    HW212942   3.238   0.686   8.882
 4204SOL     OW12943   2.665   1.402   8.372
 4204SOL    HW112944   2.755   1.416   8.330
 4204SOL    HW212945   2.594   1.404   8.301
 4205SOL     OW12946   2.784   0.503   8.347
 4205SOL    HW112947   2.759   0.494   8.251
 4205SOL    HW212948   2.832   0.421   8.378
 4206SOL     OW12949   2.401   0.064   7.960
 4206SOL    HW112950   2.320   0.065   8.018
 4206SOL    HW212951   2.404   0.147   7.905
 4207SOL     OW12952   3.296   1.188   7.489
 4207SOL    HW112953   3.328   1.112   7.546
 4207SOL    HW212954   3.204   1.215   7.519
 4208SOL     OW12955   2.159   0.035   7.619
 4208SOL    HW112956   2.208   0.119   7.598
 4208SOL    HW212957   2.221  -0.030   7.664
 4209SOL     OW12958   2.797   0.236   7.928
 4209SOL    HW112959   2.749   0.277   7.850
 4209SOL    HW212960   2.896   0.234   7.909
 4210SOL     OW12961   2.938   0.683   8.912
 4210SOL    HW112962   2.858   0.622   8.915
 4210SOL    HW212963   3.019   0.630   8.888
 4211SOL     OW12964   3.089   1.570   8.241
 4211SOL    HW112965   3.110   1.644   8.176
 4211SOL    HW212966   3.157   1.570   8.314
 4212SOL     OW12967   2.321   1.152   8.189
 4212SOL    HW112968   2.250   1.125   8.254
 4212SOL    HW212969   2.295   1.124   8.096
 4213SOL     OW12970   3.133   1.797   8.039
 4213SOL    HW112971   3.177   1.861   7.975
 4213SOL    HW212972   3.083   1.849   8.109
 4214SOL     OW12973   2.894   0.549   7.464
 4214SOL    HW112974   2.853   0.631   7.425
 4214SOL    HW212975   2.958   0.575   7.537
 4215SOL     OW12976   1.940   0.556   8.834
 4215SOL    HW112977   2.032   0.555   8.793
 4215SOL    HW212978   1.934   0.630   8.901
 4216SOL     OW12979   2.423   0.222   8.595
 4216SOL    HW112980   2.461   0.138   8.632
 4216SOL    HW212981   2.335   0.241   8.639
 4217SOL     OW12982   2.728   0.454   8.090
 4217SOL    HW112983   2.696   0.526   8.028
 4217SOL    HW212984   2.752   0.373   8.037
 4218SOL     OW12985   2.879   0.039   8.201
 4218SOL    HW112986   2.807   0.044   8.132
 4218SOL    HW212987   2.855  -0.030   8.270
 4219SOL     OW12988   3.291   1.173   8.315
 4219SOL    HW112989   3.236   1.089   8.308
 4219SOL    HW212990   3.317   1.202   8.223
 4220SOL     OW12991   3.328   0.590   8.440
 4220SOL    HW112992   3.298   0.495   8.447
 4220SOL    HW212993   3.401   0.606   8.506
 4221SOL     OW12994   3.719   0.833   7.825
 4221SOL    HW112995   3.761   0.769   7.889
 4221SOL    HW212996   3.681   0.782   7.747
 4222SOL     OW12997   2.350   1.385   7.622
 4222SOL    HW112998   2.263   1.370   7.669
 4222SOL    HW212999   2.333   1.411   7.527
 4223SOL     OW13000   3.526   1.280   8.105
 4223SOL    HW113001   3.625   1.288   8.119
 4223SOL    HW213002   3.481   1.364   8.136
 4224SOL     OW13003   3.252   0.575   7.526
 4224SOL    HW113004   3.198   0.554   7.607
 4224SOL    HW213005   3.343   0.534   7.535
 4225SOL     OW13006   2.389   0.256   7.776
 4225SOL    HW113007   2.416   0.197   7.701
 4225SOL    HW213008   2.389   0.351   7.745
 4226SOL     OW13009   3.616   1.223   9.036
 4226SOL    HW113010   3.707   1.184   9.023
 4226SOL    HW213011   3.624   1.319   9.060
 4227SOL     OW13012   2.926   1.347   8.788
 4227SOL    HW113013   2.846   1.324   8.843
 4227SOL    HW213014   3.009   1.321   8.837
 4228SOL     OW13015   3.454   1.629   9.073
 4228SOL    HW113016   3.481   1.663   8.983
 4228SOL    HW213017   3.533   1.591   9.119
 4229SOL     OW13018   2.973   1.195   8.548
 4229SOL    HW113019   2.933   1.239   8.629
 4229SOL    HW213020   2.932   1.232   8.465
 4230SOL     OW13021   3.500   1.099   8.527
 4230SOL    HW113022   3.505   1.180   8.586
 4230SOL    HW213023   3.414   1.101   8.476
 4231SOL     OW13024   2.777   0.089   8.850
 4231SOL    HW113025   2.802   0.069   8.755
 4231SOL    HW213026   2.849   0.145   8.892
 4232SOL     OW13027   2.842   1.116   9.167
 4232SOL    HW113028   2.743   1.122   9.177
 4232SOL    HW213029   2.865   1.036   9.111
 4233SOL     OW13030   2.567   1.050   7.816
 4233SOL    HW113031   2.553   1.057   7.915
 4233SOL    HW213032   2.651   0.999   7.798
 4234SOL     OW13033   2.272   0.813   8.699
 4234SOL    HW113034   2.358   0.825   8.749
 4234SOL    HW213035   2.230   0.726   8.726
 4235SOL     OW13036   3.136   0.386   8.710
 4235SOL    HW113037   3.157   0.460   8.774
 4235SOL    HW213038   3.047   0.403   8.667
 4236SOL     OW13039   1.926   1.564   8.779
 4236SOL    HW113040   1.880   1.646   8.745
 4236SOL    HW213041   2.024   1.583   8.788
 4237SOL     OW13042   2.229   1.100   7.949
 4237SOL    HW113043   2.222   1.183   7.893
 4237SOL    HW213044   2.233   1.020   7.889
 4238SOL     OW13045   2.428   0.537   8.313
 4238SOL    HW113046   2.440   0.603   8.239
 4238SOL    HW213047   2.474   0.571   8.396
 4239SOL     OW13048   3.114   1.348   7.836
 4239SOL    HW113049   3.164   1.425   7.876
 4239SOL    HW213050   3.019   1.350   7.868
 4240SOL     OW13051   3.134   1.445   8.590
 4240SOL    HW113052   3.181   1.458   8.677
 4240SOL    HW213053   3.068   1.371   8.599
 4241SOL     OW13054   3.444   0.639   7.920
 4241SOL    HW113055   3.413   0.700   7.993
 4241SOL    HW213056   3.494   0.691   7.851
 4242SOL     OW13057   2.216   1.510   8.777
 4242SOL    HW113058   2.195   1.466   8.690
 4242SOL    HW213059   2.313   1.536   8.780
 4243SOL     OW13060   2.264   0.751   9.046
 4243SOL    HW113061   2.332   0.806   8.999
 4243SOL    HW213062   2.304   0.663   9.073
 4244SOL     OW13063   3.449   0.779   9.118
 4244SOL    HW113064   3.357   0.817   9.113
 4244SOL    HW213065   3.509   0.826   9.053
 4245SOL     OW13066   2.875   0.105   9.218
 4245SOL    HW113067   2.881   0.190   9.166
 4245SOL    HW213068   2.907   0.029   9.161
 4246SOL     OW13069   2.366   0.050   9.188
 4246SOL    HW113070   2.324  -0.007   9.118
 4246SOL    HW213071   2.300   0.119   9.220
 4247SOL     OW13072   2.435   0.870   8.477
 4247SOL    HW113073   2.479   0.959   8.468
 4247SOL    HW213074   2.372   0.870   8.554
 4248SOL     OW13075   3.222   0.862   8.493
 4248SOL    HW113076   3.147   0.862   8.427
 4248SOL    HW213077   3.259   0.770   8.502
 4249SOL     OW13078   3.071   0.525   7.723
 4249SOL    HW113079   3.084   0.441   7.777
 4249SOL    HW213080   3.042   0.599   7.783
 4250SOL     OW13081   2.169   0.213   8.679
 4250SOL    HW113082   2.146   0.250   8.769
 4250SOL    HW213083   2.139   0.118   8.673
 4251SOL     OW13084   1.899   1.310   8.730
 4251SOL    HW113085   1.952   1.261   8.798
 4251SOL    HW213086   1.921   1.408   8.735
 4252SOL     OW13087   2.594   0.634   8.512
 4252SOL    HW113088   2.653   0.608   8.436
 4252SOL    HW213089   2.566   0.730   8.501
 4253SOL     OW13090   3.590   0.935   9.302
 4253SOL    HW113091   3.544   0.928   9.213
 4253SOL    HW213092   3.528   0.979   9.368
 4254SOL     OW13093   2.169   0.063   8.066
 4254SOL    HW113094   2.158   0.157   8.099
 4254SOL    HW213095   2.164   0.000   8.143
 4255SOL     OW13096   3.484   0.367   7.822
 4255SOL    HW113097   3.486   0.291   7.886
 4255SOL    HW213098   3.436   0.444   7.862
 4256SOL     OW13099   2.885   0.766   8.414
 4256SOL    HW113100   2.900   0.787   8.510
 4256SOL    HW213101   2.855   0.671   8.405
 4257SOL     OW13102   2.842   1.573   9.148
 4257SOL    HW113103   2.822   1.617   9.060
 4257SOL    HW213104   2.881   1.482   9.132
 4258SOL     OW13105   3.721   1.518   9.053
 4258SOL    HW113106   3.735   1.545   8.958
 4258SOL    HW213107   3.804   1.540   9.106
 4259SOL     OW13108   2.212   0.898   9.252
 4259SOL    HW113109   2.288   0.942   9.300
 4259SOL    HW213110   2.247   0.851   9.170
 4260SOL     OW13111   3.402   0.274   7.573
 4260SOL    HW113112   3.341   0.199   7.596
 4260SOL    HW213113   3.424   0.326   7.656
 4261SOL     OW13114   3.165   0.838   7.490
 4261SOL    HW113115   3.199   0.745   7.505
 4261SOL    HW213116   3.183   0.865   7.395
 4262SOL     OW13117   2.930   1.333   8.297
 4262SOL    HW113118   2.937   1.249   8.242
 4262SOL    HW213119   2.992   1.402   8.261
 4263SOL     OW13120   2.181   0.810   8.397
 4263SOL    HW113121   2.274   0.846   8.402
 4263SOL    HW213122   2.175   0.725   8.449
 4264SOL     OW13123   2.201   0.509   8.454
 4264SOL    HW113124   2.149   0.426   8.437
 4264SOL    HW213125   2.278   0.514   8.390
 4265SOL     OW13126   3.000   0.380   9.126
 4265SOL    HW113127   2.955   0.443   9.190
 4265SOL    HW213128   3.093   0.411   9.109
 4266SOL     OW13129   3.022   0.207   8.925
 4266SOL    HW113130   3.022   0.271   9.002
 4266SOL    HW213131   3.050   0.255   8.842
 4267SOL     OW13132   1.870   1.326   7.648
 4267SOL    HW113133   1.777   1.347   7.617
 4267SOL    HW213134   1.880   1.227   7.661
 4268SOL     OW13135   1.950   1.801   8.375
 4268SOL    HW113136   1.908   1.715   8.348
 4268SOL    HW213137   2.044   1.804   8.341
 4269SOL     OW13138   2.366   1.568   8.358
 4269SOL    HW113139   2.432   1.642   8.367
 4269SOL    HW213140   2.410   1.489   8.316
 4270SOL     OW13141   2.864   0.796   8.686
 4270SOL    HW113142   2.905   0.764   8.772
 4270SOL    HW213143   2.768   0.769   8.683
 4271SOL     OW13144   1.902   0.544   8.562
 4271SOL    HW113145   1.987   0.511   8.521
 4271SOL    HW213146   1.915   0.559   8.660
 4272SOL     OW13147   2.051   0.520   9.170
 4272SOL    HW113148   2.110   0.480   9.100
 4272SOL    HW213149   1.993   0.591   9.129
 4273SOL     OW13150   3.231   0.950   9.108
 4273SOL    HW113151   3.270   1.039   9.128
 4273SOL    HW213152   3.241   0.930   9.011
 4274SOL     OW13153   2.677   0.572   7.773
 4274SOL    HW113154   2.684   0.483   7.727
 4274SOL    HW213155   2.583   0.606   7.765
 4275SOL     OW13156   3.519   0.604   8.654
 4275SOL    HW113157   3.481   0.535   8.716
 4275SOL    HW213158   3.601   0.568   8.610
 4276SOL     OW13159   2.114   1.564   9.192
 4276SOL    HW113160   2.084   1.621   9.268
 4276SOL    HW213161   2.107   1.467   9.218
 4277SOL     OW13162   2.533   0.464   8.717
 4277SOL    HW113163   2.499   0.375   8.687
 4277SOL    HW213164   2.559   0.518   8.637
 4278SOL     OW13165   2.792   1.678   8.913
 4278SOL    HW113166   2.768   1.660   8.818
 4278SOL    HW213167   2.822   1.772   8.923
 4279SOL     OW13168   2.335   0.500   7.639
 4279SOL    HW113169   2.396   0.580   7.643
 4279SOL    HW213170   2.240   0.531   7.646
 4280SOL     OW13171   2.021   1.137   8.914
 4280SOL    HW113172   2.043   1.076   8.990
 4280SOL    HW213173   2.031   1.088   8.828
 4281SOL     OW13174   3.209   1.059   8.682
 4281SOL    HW113175   3.233   0.996   8.608
 4281SOL    HW213176   3.119   1.099   8.664
 4282SOL     OW13177   3.164   0.855   7.757
 4282SOL    HW113178   3.078   0.824   7.799
 4282SOL    HW213179   3.160   0.841   7.658
 4283SOL     OW13180   3.621   1.747   8.602
 4283SOL    HW113181   3.682   1.777   8.529
 4283SOL    HW213182   3.583   1.658   8.580
 4284SOL     OW13183   3.114   1.731   8.576
 4284SOL    HW113184   3.198   1.736   8.522
 4284SOL    HW213185   3.091   1.635   8.594
 4285SOL     OW13186   1.945   1.258   8.470
 4285SOL    HW113187   1.940   1.257   8.570
 4285SOL    HW213188   1.862   1.217   8.432
 4286SOL     OW13189   2.550   1.662   9.164
 4286SOL    HW113190   2.494   1.743   9.173
 4286SOL    HW213191   2.602   1.666   9.078
 4287SOL     OW13192   3.588   0.135   7.971
 4287SOL    HW113193   3.661   0.118   7.904
 4287SOL    HW213194   3.557   0.048   8.009
 4288SOL     OW13195   3.250   1.573   7.925
 4288SOL    HW113196   3.317   1.585   7.851
 4288SOL    HW213197   3.210   1.662   7.948
 4289SOL     OW13198   1.992   1.794   9.299
 4289SOL    HW113199   1.951   1.720   9.352
 4289SOL    HW213200   2.056   1.845   9.357
 4290SOL     OW13201   3.142   0.927   8.120
 4290SOL    HW113202   3.202   0.846   8.122
 4290SOL    HW213203   3.182   0.996   8.060
 4291SOL     OW13204   2.692   1.273   8.870
 4291SOL    HW113205   2.687   1.306   8.965
 4291SOL    HW213206   2.606   1.292   8.824
 4292SOL     OW13207   2.534   1.616   7.602
 4292SOL    HW113208   2.543   1.626   7.503
 4292SOL    HW213209   2.494   1.527   7.623
 4293SOL     OW13210   3.512   1.720   8.842
 4293SOL    HW113211   3.565   1.730   8.758
 4293SOL    HW213212   3.485   1.810   8.876
 4294SOL     OW13213   3.703   0.175   8.411
 4294SOL    HW113214   3.742   0.090   8.375
 4294SOL    HW213215   3.605   0.177   8.392
 4295SOL     OW13216   2.125   0.326   8.168
 4295SOL    HW113217   2.046   0.377   8.134
 4295SOL    HW213218   2.116   0.311   8.266
 4296SOL     OW13219   3.056   1.612   7.479
 4296SOL    HW113220   3.062   1.519   7.516
 4296SOL    HW213221   2.997   1.612   7.399
 4297SOL     OW13222   2.684   1.002   8.820
 4297SOL    HW113223   2.724   1.001   8.728
 4297SOL    HW213224   2.694   1.094   8.860
 4298SOL     OW13225   2.778   0.910   7.739
 4298SOL    HW113226   2.841   0.948   7.671
 4298SOL    HW213227   2.818   0.827   7.778
 4299SOL     OW13228   3.366   1.607   7.492
 4299SOL    HW113229   3.274   1.644   7.499
 4299SOL    HW213230   3.404   1.627   7.402
 4300SOL     OW13231   2.234   1.288   8.938
 4300SOL    HW113232   2.221   1.381   8.904
 4300SOL    HW213233   2.150   1.236   8.925
 4301SOL     OW13234   3.476   1.292   8.737
 4301SOL    HW113235   3.536   1.295   8.817
 4301SOL    HW213236   3.401   1.356   8.750
 4302SOL     OW13237   2.901   1.098   8.144
 4302SOL    HW113238   2.831   1.051   8.198
 4302SOL    HW213239   2.960   1.030   8.101
 4303SOL     OW13240   2.876   0.236   8.419
 4303SOL    HW113241   2.868   0.200   8.326
 4303SOL    HW213242   2.874   0.160   8.484
 4304SOL     OW13243   2.452   1.487   7.939
 4304SOL    HW113244   2.494   1.429   7.869
 4304SOL    HW213245   2.408   1.566   7.895
 4305SOL     OW13246   3.571   0.385   8.829
 4305SOL    HW113247   3.644   0.454   8.833
 4305SOL    HW213248   3.599   0.310   8.770
 4306SOL     OW13249   2.117   1.348   7.738
 4306SOL    HW113250   2.021   1.349   7.711
 4306SOL    HW213251   2.129   1.401   7.822
 4307SOL     OW13252   1.967   1.013   9.174
 4307SOL    HW113253   1.890   0.980   9.228
 4307SOL    HW213254   2.052   0.983   9.216
 4308SOL     OW13255   2.534   0.203   8.937
 4308SOL    HW113256   2.624   0.187   8.897
 4308SOL    HW213257   2.542   0.208   9.036
 4309SOL     OW13258   1.937   0.345   7.481
 4309SOL    HW113259   1.845   0.317   7.452
 4309SOL    HW213260   1.968   0.422   7.425
 4310SOL     OW13261   3.302   0.856   8.846
 4310SOL    HW113262   3.245   0.908   8.783
 4310SOL    HW213263   3.398   0.868   8.822
 4311SOL     OW13264   1.934   0.166   7.766
 4311SOL    HW113265   1.917   0.249   7.712
 4311SOL    HW213266   2.024   0.129   7.744
 4312SOL     OW13267   3.045   1.335   7.567
 4312SOL    HW113268   2.946   1.324   7.569
 4312SOL    HW213269   3.079   1.350   7.660
 4313SOL     OW13270   2.475   0.842   8.879
 4313SOL    HW113271   2.531   0.923   8.862
 4313SOL    HW213272   2.534   0.762   8.882
 4314SOL     OW13273   3.355   1.767   8.407
 4314SOL    HW113274   3.388   1.831   8.338
 4314SOL    HW213275   3.421   1.761   8.482
 4315SOL     OW13276   2.578   0.565   9.156
 4315SOL    HW113277   2.597   0.630   9.230
 4315SOL    HW213278   2.638   0.485   9.165
 4316SOL     OW13279   3.312   1.220   9.081
 4316SOL    HW113280   3.303   1.210   9.180
 4316SOL    HW213281   3.408   1.213   9.055
 4317SOL     OW13282   2.252   1.741   9.008
 4317SOL    HW113283   2.161   1.782   9.006
 4317SOL    HW213284   2.245   1.647   9.040
 4318SOL     OW13285   3.536   0.883   8.702
 4318SOL    HW113286   3.509   0.794   8.665
 4318SOL    HW213287   3.537   0.951   8.629
 4319SOL     OW13288   3.087   0.325   7.897
 4319SOL    HW113289   3.152   0.251   7.886
 4319SOL    HW213290   3.107   0.375   7.981
 4320SOL     OW13291   2.456   0.745   8.100
 4320SOL    HW113292   2.506   0.830   8.081
 4320SOL    HW213293   2.368   0.747   8.052
 4321SOL     OW13294   3.639   0.342   9.090
 4321SOL    HW113295   3.622   0.373   8.996
 4321SOL    HW213296   3.555   0.305   9.128
 4322SOL     OW13297   3.592   0.934   8.965
 4322SOL    HW113298   3.630   1.025   8.980
 4322SOL    HW213299   3.584   0.917   8.866
 4323SOL     OW13300   2.721   1.374   7.464
 4323SOL    HW113301   2.675   1.389   7.552
 4323SOL    HW213302   2.765   1.459   7.434
 4324SOL     OW13303   2.523   1.790   8.401
 4324SOL    HW113304   2.477   1.878   8.388
 4324SOL    HW213305   2.622   1.802   8.394
 4325SOL     OW13306   2.721   0.956   8.309
 4325SOL    HW113307   2.775   0.887   8.357
 4325SOL    HW213308   2.689   1.025   8.375
 4326SOL     OW13309   2.945   0.984   7.535
 4326SOL    HW113310   2.922   1.037   7.453
 4326SOL    HW213311   3.026   0.928   7.516
 4327SOL     OW13312   3.723   1.569   8.299
 4327SOL    HW113313   3.652   1.557   8.229
 4327SOL    HW213314   3.724   1.490   8.359
 4328SOL     OW13315   2.083   1.314   9.292
 4328SOL    HW113316   2.018   1.241   9.271
 4328SOL    HW213317   2.087   1.328   9.390
 4329SOL     OW13318   1.941   1.240   8.101
 4329SOL    HW113319   1.940   1.193   8.189
 4329SOL    HW213320   2.023   1.212   8.050
 4330SOL     OW13321   2.534   1.391   9.072
 4330SOL    HW113322   2.456   1.341   9.110
 4330SOL    HW213323   2.531   1.486   9.103
 4331SOL     OW13324   3.686   0.192   8.675
 4331SOL    HW113325   3.682   0.102   8.719
 4331SOL    HW213326   3.689   0.181   8.576
 4332SOL     OW13327   2.290   0.424   7.968
 4332SOL    HW113328   2.320   0.352   7.906
 4332SOL    HW213329   2.251   0.384   8.051
 4333SOL     OW13330   3.567   1.487   8.552
 4333SOL    HW113331   3.474   1.462   8.525
 4333SOL    HW213332   3.593   1.437   8.634
 4334SOL     OW13333   2.179   0.547   8.728
 4334SOL    HW113334   2.217   0.488   8.800
 4334SOL    HW213335   2.219   0.521   8.640
 4335SOL     OW13336   2.674   1.586   8.135
 4335SOL    HW113337   2.706   1.596   8.041
 4335SOL    HW213338   2.595   1.524   8.137
 4336SOL     OW13339   3.286   0.214   8.560
 4336SOL    HW113340   3.338   0.149   8.615
 4336SOL    HW213341   3.237   0.277   8.621
 4337SOL     OW13342   2.863   0.034   8.602
 4337SOL    HW113343   2.800  -0.038   8.571
 4337SOL    HW213344   2.956  -0.002   8.602
 4338SOL     OW13345   2.632   1.330   7.749
 4338SOL    HW113346   2.586   1.243   7.766
 4338SOL    HW213347   2.723   1.327   7.790
 4339SOL     OW13348   2.480   1.567   8.732
 4339SOL    HW113349   2.475   1.649   8.789
 4339SOL    HW213350   2.569   1.564   8.687
 4340SOL     OW13351   3.214   0.052   7.616
 4340SOL    HW113352   3.249   0.011   7.532
 4340SOL    HW213353   3.124   0.014   7.636
 4341SOL     OW13354   3.162   0.453   8.139
 4341SOL    HW113355   3.103   0.533   8.143
 4341SOL    HW213356   3.177   0.418   8.232
 4342SOL     OW13357   3.455   0.221   8.330
 4342SOL    HW113358   3.371   0.220   8.384
 4342SOL    HW213359   3.457   0.304   8.274
 4343SOL     OW13360   1.901   1.077   7.748
 4343SOL    HW113361   2.000   1.066   7.739
 4343SOL    HW213362   1.861   0.991   7.780
 4344SOL     OW13363   2.737   1.646   7.785
 4344SOL    HW113364   2.660   1.611   7.731
 4344SOL    HW213365   2.705   1.717   7.847
 4345SOL     OW13366   2.092   0.628   9.423
 4345SOL    HW113367   1.999   0.626   9.460
 4345SOL    HW213368   2.093   0.589   9.331
 4346SOL     OW13369   2.087   0.275  10.306
 4346SOL    HW113370   2.122   0.258  10.398
 4346SOL    HW213371   1.999   0.230  10.294
 4347SOL     OW13372   1.881   0.368   9.957
 4347SOL    HW113373   1.799   0.411   9.996
 4347SOL    HW213374   1.853   0.295   9.894
 4348SOL     OW13375   2.431   1.275  10.475
 4348SOL    HW113376   2.338   1.268  10.438
 4348SOL    HW213377   2.442   1.364  10.519
 4349SOL     OW13378   3.417   1.511  10.013
 4349SOL    HW113379   3.360   1.495  10.094
 4349SOL    HW213380   3.358   1.521   9.933
 4350SOL     OW13381   2.997   0.703  10.027
 4350SOL    HW113382   3.054   0.781  10.002
 4350SOL    HW213383   2.937   0.729  10.103
 4351SOL     OW13384   3.617   0.607   9.541
 4351SOL    HW113385   3.605   0.594   9.442
 4351SOL    HW213386   3.587   0.526   9.590
 4352SOL     OW13387   2.630   1.144  10.333
 4352SOL    HW113388   2.552   1.161  10.393
 4352SOL    HW213389   2.664   1.231  10.297
 4353SOL     OW13390   2.547   1.012   9.975
 4353SOL    HW113391   2.616   0.996  10.045
 4353SOL    HW213392   2.474   1.069  10.013
 4354SOL     OW13393   2.197   1.435  10.371
 4354SOL    HW113394   2.119   1.404  10.318
 4354SOL    HW213395   2.255   1.493  10.314
 4355SOL     OW13396   2.300   0.392  10.809
 4355SOL    HW113397   2.382   0.336  10.818
 4355SOL    HW213398   2.219   0.334  10.813
 4356SOL     OW13399   3.465   0.447  10.047
 4356SOL    HW113400   3.391   0.493   9.997
 4356SOL    HW213401   3.516   0.515  10.100
 4357SOL     OW13402   2.093   1.713   9.793
 4357SOL    HW113403   2.127   1.790   9.847
 4357SOL    HW213404   2.137   1.713   9.703
 4358SOL     OW13405   2.092   1.434   9.848
 4358SOL    HW113406   2.066   1.530   9.848
 4358SOL    HW213407   2.021   1.380   9.893
 4359SOL     OW13408   2.102   1.091  10.196
 4359SOL    HW113409   2.116   1.007  10.248
 4359SOL    HW213410   2.047   1.155  10.251
 4360SOL     OW13411   2.482   1.786  10.749
 4360SOL    HW113412   2.390   1.769  10.784
 4360SOL    HW213413   2.510   1.878  10.775
 4361SOL     OW13414   2.468   0.964   9.433
 4361SOL    HW113415   2.475   1.048   9.379
 4361SOL    HW213416   2.514   0.977   9.521
 4362SOL     OW13417   1.984   0.643   9.873
 4362SOL    HW113418   1.939   0.555   9.890
 4362SOL    HW213419   1.983   0.697   9.957
 4363SOL     OW13420   3.704   1.767   9.669
 4363SOL    HW113421   3.758   1.738   9.749
 4363SOL    HW213422   3.734   1.857   9.640
 4364SOL     OW13423   1.889   1.596   9.427
 4364SOL    HW113424   1.870   1.500   9.448
 4364SOL    HW213425   1.856   1.654   9.502
 4365SOL     OW13426   3.551   0.922   9.922
 4365SOL    HW113427   3.646   0.893   9.930
 4365SOL    HW213428   3.543   0.987   9.847
 4366SOL     OW13429   3.503   1.108   9.742
 4366SOL    HW113430   3.589   1.110   9.690
 4366SOL    HW213431   3.517   1.155   9.830
 4367SOL     OW13432   2.475   1.365  10.036
 4367SOL    HW113433   2.426   1.278  10.045
 4367SOL    HW213434   2.452   1.408   9.949
 4368SOL     OW13435   2.671   0.004   9.812
 4368SOL    HW113436   2.711   0.095   9.803
 4368SOL    HW213437   2.571   0.012   9.818
 4369SOL     OW13438   2.059   0.976  10.574
 4369SOL    HW113439   2.148   0.931  10.560
 4369SOL    HW213440   1.986   0.911  10.555
 4370SOL     OW13441   3.387   0.999   9.500
 4370SOL    HW113442   3.324   0.923   9.513
 4370SOL    HW213443   3.435   1.017   9.586
 4371SOL     OW13444   3.328   1.417  10.263
 4371SOL    HW113445   3.269   1.423  10.343
 4371SOL    HW213446   3.313   1.329  10.217
 4372SOL     OW13447   3.529   1.714   9.882
 4372SOL    HW113448   3.488   1.691   9.794
 4372SOL    HW213449   3.511   1.640   9.947
 4373SOL     OW13450   2.460   0.729   9.580
 4373SOL    HW113451   2.484   0.798   9.512
 4373SOL    HW213452   2.382   0.762   9.634
 4374SOL     OW13453   3.143   0.345  10.254
 4374SOL    HW113454   3.057   0.295  10.241
 4374SOL    HW213455   3.205   0.291  10.310
 4375SOL     OW13456   3.438   1.662   9.617
 4375SOL    HW113457   3.527   1.708   9.620
 4375SOL    HW213458   3.417   1.638   9.522
 4376SOL     OW13459   2.669   0.605  10.775
 4376SOL    HW113460   2.622   0.602  10.864
 4376SOL    HW213461   2.618   0.550  10.709
 4377SOL     OW13462   2.853   0.410  10.552
 4377SOL    HW113463   2.776   0.444  10.606
 4377SOL    HW213464   2.819   0.359  10.473
 4378SOL     OW13465   2.903   0.701   9.739
 4378SOL    HW113466   2.929   0.697   9.835
 4378SOL    HW213467   2.818   0.650   9.725
 4379SOL     OW13468   1.938   0.811  10.099
 4379SOL    HW113469   2.037   0.799  10.108
 4379SOL    HW213470   1.914   0.906  10.120
 4380SOL     OW13471   1.992   1.821  10.881
 4380SOL    HW113472   1.982   1.806  10.980
 4380SOL    HW213473   1.906   1.857  10.845
 4381SOL     OW13474   2.727   0.348   9.505
 4381SOL    HW113475   2.786   0.411   9.456
 4381SOL    HW213476   2.746   0.254   9.476
 4382SOL     OW13477   3.224   1.144   9.855
 4382SOL    HW113478   3.307   1.115   9.807
 4382SOL    HW213479   3.175   1.211   9.799
 4383SOL     OW13480   2.412   0.196  10.195
 4383SOL    HW113481   2.407   0.191  10.295
 4383SOL    HW213482   2.414   0.292  10.166
 4384SOL     OW13483   2.870   1.456   9.787
 4384SOL    HW113484   2.824   1.528   9.735
 4384SOL    HW213485   2.866   1.476   9.885
 4385SOL     OW13486   2.213   1.801  10.163
 4385SOL    HW113487   2.263   1.715  10.169
 4385SOL    HW213488   2.278   1.878  10.160
 4386SOL     OW13489   3.657   1.066  10.183
 4386SOL    HW113490   3.595   1.051  10.107
 4386SOL    HW213491   3.605   1.077  10.268
 4387SOL     OW13492   2.183   0.943   9.552
 4387SOL    HW113493   2.265   0.982   9.510
 4387SOL    HW213494   2.156   0.861   9.503
 4388SOL     OW13495   3.320   0.735  10.038
 4388SOL    HW113496   3.315   0.670  10.113
 4388SOL    HW213497   3.400   0.794  10.051
 4389SOL     OW13498   2.973   1.776   9.547
 4389SOL    HW113499   2.913   1.714   9.597
 4389SOL    HW213500   3.004   1.732   9.462
 4390SOL     OW13501   3.494   1.377   9.391
 4390SOL    HW113502   3.462   1.471   9.381
 4390SOL    HW213503   3.418   1.314   9.379
 4391SOL     OW13504   2.326   1.743   9.633
 4391SOL    HW113505   2.359   1.782   9.719
 4391SOL    HW213506   2.402   1.736   9.568
 4392SOL     OW13507   3.262   0.107   9.736
 4392SOL    HW113508   3.238   0.070   9.646
 4392SOL    HW213509   3.361   0.123   9.740
 4393SOL     OW13510   2.111   1.785  10.551
 4393SOL    HW113511   2.168   1.720  10.601
 4393SOL    HW213512   2.095   1.752  10.458
 4394SOL     OW13513   2.802   1.698  10.214
 4394SOL    HW113514   2.882   1.641  10.235
 4394SOL    HW213515   2.753   1.658  10.137
 4395SOL     OW13516   2.244   0.700   9.790
 4395SOL    HW113517   2.289   0.610   9.787
 4395SOL    HW213518   2.150   0.689   9.823
 4396SOL     OW13519   2.476   0.122   9.427
 4396SOL    HW113520   2.574   0.100   9.434
 4396SOL    HW213521   2.445   0.105   9.334
 4397SOL     OW13522   2.750   1.514  10.505
 4397SOL    HW113523   2.727   1.489  10.411
 4397SOL    HW213524   2.811   1.445  10.544
 4398SOL     OW13525   2.665   1.402  10.234
 4398SOL    HW113526   2.755   1.416  10.192
 4398SOL    HW213527   2.594   1.404  10.163
 4399SOL     OW13528   2.784   0.503  10.209
 4399SOL    HW113529   2.759   0.494  10.113
 4399SOL    HW213530   2.832   0.421  10.240
 4400SOL     OW13531   2.401   0.064   9.822
 4400SOL    HW113532   2.320   0.065   9.880
 4400SOL    HW213533   2.404   0.147   9.767
 4401SOL     OW13534   3.296   1.188   9.351
 4401SOL    HW113535   3.328   1.112   9.408
 4401SOL    HW213536   3.204   1.215   9.381
 4402SOL     OW13537   2.159   0.035   9.481
 4402SOL    HW113538   2.208   0.119   9.460
 4402SOL    HW213539   2.221  -0.030   9.526
 4403SOL     OW13540   2.797   0.236   9.790
 4403SOL    HW113541   2.749   0.277   9.712
 4403SOL    HW213542   2.896   0.234   9.771
 4404SOL     OW13543   3.089   1.570  10.103
 4404SOL    HW113544   3.110   1.644  10.038
 4404SOL    HW213545   3.157   1.570  10.176
 4405SOL     OW13546   2.321   1.152  10.051
 4405SOL    HW113547   2.250   1.125  10.116
 4405SOL    HW213548   2.295   1.124   9.958
 4406SOL     OW13549   3.133   1.797   9.901
 4406SOL    HW113550   3.177   1.861   9.837
 4406SOL    HW213551   3.083   1.849   9.971
 4407SOL     OW13552   2.894   0.549   9.326
 4407SOL    HW113553   2.853   0.631   9.287
 4407SOL    HW213554   2.958   0.575   9.399
 4408SOL     OW13555   1.940   0.556  10.696
 4408SOL    HW113556   2.032   0.555  10.655
 4408SOL    HW213557   1.934   0.630  10.763
 4409SOL     OW13558   2.423   0.222  10.457
 4409SOL    HW113559   2.461   0.138  10.494
 4409SOL    HW213560   2.335   0.241  10.501
 4410SOL     OW13561   2.728   0.454   9.952
 4410SOL    HW113562   2.696   0.526   9.890
 4410SOL    HW213563   2.752   0.373   9.899
 4411SOL     OW13564   2.879   0.039  10.063
 4411SOL    HW113565   2.807   0.044   9.994
 4411SOL    HW213566   2.855  -0.030  10.132
 4412SOL     OW13567   3.291   1.173  10.177
 4412SOL    HW113568   3.236   1.089  10.170
 4412SOL    HW213569   3.317   1.202  10.085
 4413SOL     OW13570   3.328   0.590  10.302
 4413SOL    HW113571   3.298   0.495  10.309
 4413SOL    HW213572   3.401   0.606  10.368
 4414SOL     OW13573   3.719   0.833   9.687
 4414SOL    HW113574   3.761   0.769   9.751
 4414SOL    HW213575   3.681   0.782   9.609
 4415SOL     OW13576   2.350   1.385   9.484
 4415SOL    HW113577   2.263   1.370   9.531
 4415SOL    HW213578   2.333   1.411   9.389
 4416SOL     OW13579   3.526   1.280   9.967
 4416SOL    HW113580   3.625   1.288   9.981
 4416SOL    HW213581   3.481   1.364   9.998
 4417SOL     OW13582   3.252   0.575   9.388
 4417SOL    HW113583   3.198   0.554   9.469
 4417SOL    HW213584   3.343   0.534   9.397
 4418SOL     OW13585   2.389   0.256   9.638
 4418SOL    HW113586   2.416   0.197   9.563
 4418SOL    HW213587   2.389   0.351   9.607
 4419SOL     OW13588   2.926   1.347  10.650
 4419SOL    HW113589   2.846   1.324  10.705
 4419SOL    HW213590   3.009   1.321  10.699
 4420SOL     OW13591   2.973   1.195  10.410
 4420SOL    HW113592   2.933   1.239  10.491
 4420SOL    HW213593   2.932   1.232  10.327
 4421SOL     OW13594   3.500   1.099  10.389
 4421SOL    HW113595   3.505   1.180  10.448
 4421SOL    HW213596   3.414   1.101  10.338
 4422SOL     OW13597   2.567   1.050   9.678
 4422SOL    HW113598   2.553   1.057   9.777
 4422SOL    HW213599   2.651   0.999   9.660
 4423SOL     OW13600   2.272   0.813  10.561
 4423SOL    HW113601   2.358   0.825  10.611
 4423SOL    HW213602   2.230   0.726  10.588
 4424SOL     OW13603   3.136   0.386  10.572
 4424SOL    HW113604   3.157   0.460  10.636
 4424SOL    HW213605   3.047   0.403  10.529
 4425SOL     OW13606   1.926   1.564  10.641
 4425SOL    HW113607   1.880   1.646  10.607
 4425SOL    HW213608   2.024   1.583  10.650
 4426SOL     OW13609   2.229   1.100   9.811
 4426SOL    HW113610   2.222   1.183   9.755
 4426SOL    HW213611   2.233   1.020   9.751
 4427SOL     OW13612   2.428   0.537  10.175
 4427SOL    HW113613   2.440   0.603  10.101
 4427SOL    HW213614   2.474   0.571  10.258
 4428SOL     OW13615   3.114   1.348   9.698
 4428SOL    HW113616   3.164   1.425   9.738
 4428SOL    HW213617   3.019   1.350   9.730
 4429SOL     OW13618   3.134   1.445  10.452
 4429SOL    HW113619   3.181   1.458  10.539
 4429SOL    HW213620   3.068   1.371  10.461
 4430SOL     OW13621   3.444   0.639   9.782
 4430SOL    HW113622   3.413   0.700   9.855
 4430SOL    HW213623   3.494   0.691   9.713
 4431SOL     OW13624   2.216   1.510  10.639
 4431SOL    HW113625   2.195   1.466  10.552
 4431SOL    HW213626   2.313   1.536  10.642
 4432SOL     OW13627   2.264   0.751  10.908
 4432SOL    HW113628   2.332   0.806  10.861
 4432SOL    HW213629   2.304   0.663  10.935
 4433SOL     OW13630   2.435   0.870  10.339
 4433SOL    HW113631   2.479   0.959  10.330
 4433SOL    HW213632   2.372   0.870  10.416
 4434SOL     OW13633   3.222   0.862  10.355
 4434SOL    HW113634   3.147   0.862  10.289
 4434SOL    HW213635   3.259   0.770  10.364
 4435SOL     OW13636   3.071   0.525   9.585
 4435SOL    HW113637   3.084   0.441   9.639
 4435SOL    HW213638   3.042   0.599   9.645
 4436SOL     OW13639   2.169   0.213  10.541
 4436SOL    HW113640   2.146   0.250  10.631
 4436SOL    HW213641   2.139   0.118  10.535
 4437SOL     OW13642   1.899   1.310  10.592
 4437SOL    HW113643   1.952   1.261  10.660
 4437SOL    HW213644   1.921   1.408  10.597
 4438SOL     OW13645   2.594   0.634  10.374
 4438SOL    HW113646   2.653   0.608  10.298
 4438SOL    HW213647   2.566   0.730  10.363
 4439SOL     OW13648   2.169   0.063   9.928
 4439SOL    HW113649   2.158   0.157   9.961
 4439SOL    HW213650   2.164   0.000  10.005
 4440SOL     OW13651   3.484   0.367   9.684
 4440SOL    HW113652   3.486   0.291   9.748
 4440SOL    HW213653   3.436   0.444   9.724
 4441SOL     OW13654   2.885   0.766  10.276
 4441SOL    HW113655   2.900   0.787  10.372
 4441SOL    HW213656   2.855   0.671  10.267
 4442SOL     OW13657   2.842   1.573  11.010
 4442SOL    HW113658   2.822   1.617  10.922
 4442SOL    HW213659   2.881   1.482  10.994
 4443SOL     OW13660   3.402   0.274   9.435
 4443SOL    HW113661   3.341   0.199   9.458
 4443SOL    HW213662   3.424   0.326   9.518
 4444SOL     OW13663   3.165   0.838   9.352
 4444SOL    HW113664   3.199   0.745   9.367
 4444SOL    HW213665   3.183   0.865   9.257
 4445SOL     OW13666   2.930   1.333  10.159
 4445SOL    HW113667   2.937   1.249  10.104
 4445SOL    HW213668   2.992   1.402  10.123
 4446SOL     OW13669   2.181   0.810  10.259
 4446SOL    HW113670   2.274   0.846  10.264
 4446SOL    HW213671   2.175   0.725  10.311
 4447SOL     OW13672   2.201   0.509  10.316
 4447SOL    HW113673   2.149   0.426  10.299
 4447SOL    HW213674   2.278   0.514  10.252
 4448SOL     OW13675   3.022   0.207  10.787
 4448SOL    HW113676   3.022   0.271  10.864
 4448SOL    HW213677   3.050   0.255  10.704
 4449SOL     OW13678   1.870   1.326   9.510
 4449SOL    HW113679   1.777   1.347   9.479
 4449SOL    HW213680   1.880   1.227   9.523
 4450SOL     OW13681   1.950   1.801  10.237
 4450SOL    HW113682   1.908   1.715  10.210
 4450SOL    HW213683   2.044   1.804  10.203
 4451SOL     OW13684   2.366   1.568  10.220
 4451SOL    HW113685   2.432   1.642  10.229
 4451SOL    HW213686   2.410   1.489  10.178
 4452SOL     OW13687   2.864   0.796  10.548
 4452SOL    HW113688   2.905   0.764  10.634
 4452SOL    HW213689   2.768   0.769  10.545
 4453SOL     OW13690   1.902   0.544  10.424
 4453SOL    HW113691   1.987   0.511  10.383
 4453SOL    HW213692   1.915   0.559  10.522
 4454SOL     OW13693   2.677   0.572   9.635
 4454SOL    HW113694   2.684   0.483   9.589
 4454SOL    HW213695   2.583   0.606   9.627
 4455SOL     OW13696   3.519   0.604  10.516
 4455SOL    HW113697   3.481   0.535  10.578
 4455SOL    HW213698   3.601   0.568  10.472
 4456SOL     OW13699   2.533   0.464  10.579
 4456SOL    HW113700   2.499   0.375  10.549
 4456SOL    HW213701   2.559   0.518  10.499
 4457SOL     OW13702   2.792   1.678  10.775
 4457SOL    HW113703   2.768   1.660  10.680
 4457SOL    HW213704   2.822   1.772  10.785
 4458SOL     OW13705   2.335   0.500   9.501
 4458SOL    HW113706   2.396   0.580   9.505
 4458SOL    HW213707   2.240   0.531   9.508
 4459SOL     OW13708   2.021   1.137  10.776
 4459SOL    HW113709   2.043   1.076  10.852
 4459SOL    HW213710   2.031   1.088  10.690
 4460SOL     OW13711   3.209   1.059  10.544
 4460SOL    HW113712   3.233   0.996  10.470
 4460SOL    HW213713   3.119   1.099  10.526
 4461SOL     OW13714   3.164   0.855   9.619
 4461SOL    HW113715   3.078   0.824   9.661
 4461SOL    HW213716   3.160   0.841   9.520
 4462SOL     OW13717   3.621   1.747  10.464
 4462SOL    HW113718   3.682   1.777  10.391
 4462SOL    HW213719   3.583   1.658  10.442
 4463SOL     OW13720   3.114   1.731  10.438
 4463SOL    HW113721   3.198   1.736  10.384
 4463SOL    HW213722   3.091   1.635  10.456
 4464SOL     OW13723   1.945   1.258  10.332
 4464SOL    HW113724   1.940   1.257  10.432
 4464SOL    HW213725   1.862   1.217  10.294
 4465SOL     OW13726   3.588   0.135   9.833
 4465SOL    HW113727   3.661   0.118   9.766
 4465SOL    HW213728   3.557   0.048   9.871
 4466SOL     OW13729   3.250   1.573   9.787
 4466SOL    HW113730   3.317   1.585   9.713
 4466SOL    HW213731   3.210   1.662   9.810
 4467SOL     OW13732   3.142   0.927   9.982
 4467SOL    HW113733   3.202   0.846   9.984
 4467SOL    HW213734   3.182   0.996   9.922
 4468SOL     OW13735   2.534   1.616   9.464
 4468SOL    HW113736   2.543   1.626   9.365
 4468SOL    HW213737   2.494   1.527   9.485
 4469SOL     OW13738   3.512   1.720  10.704
 4469SOL    HW113739   3.565   1.730  10.620
 4469SOL    HW213740   3.485   1.810  10.738
 4470SOL     OW13741   3.703   0.175  10.273
 4470SOL    HW113742   3.742   0.090  10.237
 4470SOL    HW213743   3.605   0.177  10.254
 4471SOL     OW13744   2.125   0.326  10.030
 4471SOL    HW113745   2.046   0.377   9.996
 4471SOL    HW213746   2.116   0.311  10.128
 4472SOL     OW13747   3.056   1.612   9.341
 4472SOL    HW113748   3.062   1.519   9.378
 4472SOL    HW213749   2.997   1.612   9.261
 4473SOL     OW13750   2.684   1.002  10.682
 4473SOL    HW113751   2.724   1.001  10.590
 4473SOL    HW213752   2.694   1.094  10.722
 4474SOL     OW13753   2.778   0.910   9.601
 4474SOL    HW113754   2.841   0.948   9.533
 4474SOL    HW213755   2.818   0.827   9.640
 4475SOL     OW13756   3.366   1.607   9.354
 4475SOL    HW113757   3.274   1.644   9.361
 4475SOL    HW213758   3.404   1.627   9.264
 4476SOL     OW13759   2.234   1.288  10.800
 4476SOL    HW113760   2.221   1.381  10.766
 4476SOL    HW213761   2.150   1.236  10.787
 4477SOL     OW13762   3.476   1.292  10.599
 4477SOL    HW113763   3.536   1.295  10.679
 4477SOL    HW213764   3.401   1.356  10.612
 4478SOL     OW13765   2.901   1.098  10.006
 4478SOL    HW113766   2.831   1.051  10.060
 4478SOL    HW213767   2.960   1.030   9.963
 4479SOL     OW13768   2.876   0.236  10.281
 4479SOL    HW113769   2.868   0.200  10.188
 4479SOL    HW213770   2.874   0.160  10.346
 4480SOL     OW13771   2.452   1.487   9.801
 4480SOL    HW113772   2.494   1.429   9.731
 4480SOL    HW213773   2.408   1.566   9.757
 4481SOL     OW13774   3.571   0.385  10.691
 4481SOL    HW113775   3.644   0.454  10.695
 4481SOL    HW213776   3.599   0.310  10.632
 4482SOL     OW13777   2.117   1.348   9.600
 4482SOL    HW113778   2.021   1.349   9.573
 4482SOL    HW213779   2.129   1.401   9.684
 4483SOL     OW13780   1.937   0.345   9.343
 4483SOL    HW113781   1.845   0.317   9.314
 4483SOL    HW213782   1.968   0.422   9.287
 4484SOL     OW13783   1.934   0.166   9.628
 4484SOL    HW113784   1.917   0.249   9.574
 4484SOL    HW213785   2.024   0.129   9.606
 4485SOL     OW13786   3.045   1.335   9.429
 4485SOL    HW113787   2.946   1.324   9.431
 4485SOL    HW213788   3.079   1.350   9.522
 4486SOL     OW13789   2.475   0.842  10.741
 4486SOL    HW113790   2.531   0.923  10.724
 4486SOL    HW213791   2.534   0.762  10.744
 4487SOL     OW13792   3.355   1.767  10.269
 4487SOL    HW113793   3.388   1.831  10.200
 4487SOL    HW213794   3.421   1.761  10.344
 4488SOL     OW13795   2.252   1.741  10.870
 4488SOL    HW113796   2.161   1.782  10.868
 4488SOL    HW213797   2.245   1.647  10.902
 4489SOL     OW13798   3.536   0.883  10.564
 4489SOL    HW113799   3.509   0.794  10.527
 4489SOL    HW213800   3.537   0.951  10.491
 4490SOL     OW13801   3.087   0.325   9.759
 4490SOL    HW113802   3.152   0.251   9.748
 4490SOL    HW213803   3.107   0.375   9.843
 4491SOL     OW13804   2.456   0.745   9.962
 4491SOL    HW113805   2.506   0.830   9.943
 4491SOL    HW213806   2.368   0.747   9.914
 4492SOL     OW13807   3.592   0.934  10.827
 4492SOL    HW113808   3.630   1.025  10.842
 4492SOL    HW213809   3.584   0.917  10.728
 4493SOL     OW13810   2.721   1.374   9.326
 4493SOL    HW113811   2.675   1.389   9.414
 4493SOL    HW213812   2.765   1.459   9.296
 4494SOL     OW13813   2.523   1.790  10.263
 4494SOL    HW113814   2.477   1.878  10.250
 4494SOL    HW213815   2.622   1.802  10.256
 4495SOL     OW13816   2.721   0.956  10.171
 4495SOL    HW113817   2.775   0.887  10.219
 4495SOL    HW213818   2.689   1.025  10.237
 4496SOL     OW13819   2.945   0.984   9.397
 4496SOL    HW113820   2.922   1.037   9.315
 4496SOL    HW213821   3.026   0.928   9.378
 4497SOL     OW13822   3.723   1.569  10.161
 4497SOL    HW113823   3.652   1.557  10.091
 4497SOL    HW213824   3.724   1.490  10.221
 4498SOL     OW13825   1.941   1.240   9.963
 4498SOL    HW113826   1.940   1.193  10.051
 4498SOL    HW213827   2.023   1.212   9.912
 4499SOL     OW13828   3.686   0.192  10.537
 4499SOL    HW113829   3.682   0.102  10.581
 4499SOL    HW213830   3.689   0.181  10.438
 4500SOL     OW13831   2.290   0.424   9.830
 4500SOL    HW113832   2.320   0.352   9.768
 4500SOL    HW213833   2.251   0.384   9.913
 4501SOL     OW13834   3.567   1.487  10.414
 4501SOL    HW113835   3.474   1.462  10.387
 4501SOL    HW213836   3.593   1.437  10.496
 4502SOL     OW13837   2.179   0.547  10.590
 4502SOL    HW113838   2.217   0.488  10.662
 4502SOL    HW213839   2.219   0.521  10.502
 4503SOL     OW13840   2.674   1.586   9.997
 4503SOL    HW113841   2.706   1.596   9.903
 4503SOL    HW213842   2.595   1.524   9.999
 4504SOL     OW13843   3.286   0.214  10.422
 4504SOL    HW113844   3.338   0.149  10.477
 4504SOL    HW213845   3.237   0.277  10.483
 4505SOL     OW13846   2.863   0.034  10.464
 4505SOL    HW113847   2.800  -0.038  10.433
 4505SOL    HW213848   2.956  -0.002  10.464
 4506SOL     OW13849   2.632   1.330   9.611
 4506SOL    HW113850   2.586   1.243   9.628
 4506SOL    HW213851   2.723   1.327   9.652
 4507SOL     OW13852   2.480   1.567  10.594
 4507SOL    HW113853   2.475   1.649  10.651
 4507SOL    HW213854   2.569   1.564  10.549
 4508SOL     OW13855   3.214   0.052   9.478
 4508SOL    HW113856   3.249   0.011   9.394
 4508SOL    HW213857   3.124   0.014   9.498
 4509SOL     OW13858   3.162   0.453  10.001
 4509SOL    HW113859   3.103   0.533  10.005
 4509SOL    HW213860   3.177   0.418  10.094
 4510SOL     OW13861   3.455   0.221  10.192
 4510SOL    HW113862   3.371   0.220  10.246
 4510SOL    HW213863   3.457   0.304  10.136
 4511SOL     OW13864   1.901   1.077   9.610
 4511SOL    HW113865   2.000   1.066   9.601
 4511SOL    HW213866   1.861   0.991   9.642
 4512SOL     OW13867   2.737   1.646   9.647
 4512SOL    HW113868   2.660   1.611   9.593
 4512SOL    HW213869   2.705   1.717   9.709
 4513SOL     OW13870   2.092   2.490   0.113
 4513SOL    HW113871   1.999   2.488   0.150
 4513SOL    HW213872   2.093   2.451   0.021
 4514SOL     OW13873   2.087   2.137   0.996
 4514SOL    HW113874   2.122   2.120   1.088
 4514SOL    HW213875   1.999   2.092   0.984
 4515SOL     OW13876   1.881   2.230   0.647
 4515SOL    HW113877   1.799   2.273   0.686
 4515SOL    HW213878   1.853   2.157   0.584
 4516SOL     OW13879   2.431   3.137   1.165
 4516SOL    HW113880   2.338   3.130   1.128
 4516SOL    HW213881   2.442   3.226   1.209
 4517SOL     OW13882   3.417   3.373   0.703
 4517SOL    HW113883   3.360   3.357   0.784
 4517SOL    HW213884   3.358   3.383   0.623
 4518SOL     OW13885   2.997   2.565   0.717
 4518SOL    HW113886   3.054   2.643   0.692
 4518SOL    HW213887   2.937   2.591   0.793
 4519SOL     OW13888   3.617   2.469   0.231
 4519SOL    HW113889   3.605   2.456   0.132
 4519SOL    HW213890   3.587   2.388   0.280
 4520SOL     OW13891   2.630   3.006   1.023
 4520SOL    HW113892   2.552   3.023   1.083
 4520SOL    HW213893   2.664   3.093   0.987
 4521SOL     OW13894   2.712   2.660   1.823
 4521SOL    HW113895   2.708   2.736   1.888
 4521SOL    HW213896   2.734   2.696   1.732
 4522SOL     OW13897   2.547   2.874   0.665
 4522SOL    HW113898   2.616   2.858   0.735
 4522SOL    HW213899   2.474   2.931   0.703
 4523SOL     OW13900   2.548   3.023   1.803
 4523SOL    HW113901   2.608   3.102   1.817
 4523SOL    HW213902   2.462   3.054   1.762
 4524SOL     OW13903   2.197   3.297   1.061
 4524SOL    HW113904   2.119   3.266   1.008
 4524SOL    HW213905   2.255   3.355   1.004
 4525SOL     OW13906   3.322   3.367   1.339
 4525SOL    HW113907   3.346   3.461   1.365
 4525SOL    HW213908   3.306   3.313   1.421
 4526SOL     OW13909   2.300   2.254   1.499
 4526SOL    HW113910   2.382   2.198   1.508
 4526SOL    HW213911   2.219   2.196   1.503
 4527SOL     OW13912   3.465   2.309   0.737
 4527SOL    HW113913   3.391   2.355   0.687
 4527SOL    HW213914   3.516   2.377   0.790
 4528SOL     OW13915   2.093   3.575   0.483
 4528SOL    HW113916   2.127   3.652   0.537
 4528SOL    HW213917   2.137   3.575   0.393
 4529SOL     OW13918   2.989   3.203   1.690
 4529SOL    HW113919   3.036   3.203   1.778
 4529SOL    HW213920   2.941   3.116   1.679
 4530SOL     OW13921   2.092   3.296   0.538
 4530SOL    HW113922   2.066   3.392   0.538
 4530SOL    HW213923   2.021   3.242   0.583
 4531SOL     OW13924   2.102   2.953   0.886
 4531SOL    HW113925   2.116   2.869   0.938
 4531SOL    HW213926   2.047   3.017   0.941
 4532SOL     OW13927   2.482   3.648   1.439
 4532SOL    HW113928   2.390   3.631   1.474
 4532SOL    HW213929   2.510   3.740   1.465
 4533SOL     OW13930   2.468   2.826   0.123
 4533SOL    HW113931   2.475   2.910   0.069
 4533SOL    HW213932   2.514   2.839   0.211
 4534SOL     OW13933   3.456   1.976   1.480
 4534SOL    HW113934   3.438   2.043   1.408
 4534SOL    HW213935   3.453   2.022   1.569
 4535SOL     OW13936   1.984   2.505   0.563
 4535SOL    HW113937   1.939   2.417   0.580
 4535SOL    HW213938   1.983   2.559   0.647
 4536SOL     OW13939   3.704   3.629   0.359
 4536SOL    HW113940   3.758   3.600   0.439
 4536SOL    HW213941   3.734   3.719   0.330
 4537SOL     OW13942   1.889   3.458   0.117
 4537SOL    HW113943   1.870   3.362   0.138
 4537SOL    HW213944   1.856   3.516   0.192
 4538SOL     OW13945   3.551   2.784   0.612
 4538SOL    HW113946   3.646   2.755   0.620
 4538SOL    HW213947   3.543   2.849   0.537
 4539SOL     OW13948   3.503   2.970   0.432
 4539SOL    HW113949   3.589   2.972   0.380
 4539SOL    HW213950   3.517   3.017   0.520
 4540SOL     OW13951   1.975   2.599   1.597
 4540SOL    HW113952   2.063   2.586   1.642
 4540SOL    HW213953   1.962   2.696   1.575
 4541SOL     OW13954   2.475   3.227   0.726
 4541SOL    HW113955   2.426   3.140   0.735
 4541SOL    HW213956   2.452   3.270   0.639
 4542SOL     OW13957   3.155   3.090   1.423
 4542SOL    HW113958   3.192   3.017   1.365
 4542SOL    HW213959   3.207   3.095   1.508
 4543SOL     OW13960   2.671   1.866   0.502
 4543SOL    HW113961   2.711   1.957   0.493
 4543SOL    HW213962   2.571   1.874   0.508
 4544SOL     OW13963   2.059   2.838   1.264
 4544SOL    HW113964   2.148   2.793   1.250
 4544SOL    HW213965   1.986   2.773   1.245
 4545SOL     OW13966   3.387   2.861   0.190
 4545SOL    HW113967   3.324   2.785   0.203
 4545SOL    HW213968   3.435   2.879   0.276
 4546SOL     OW13969   3.049   3.654   1.616
 4546SOL    HW113970   3.073   3.714   1.540
 4546SOL    HW213971   3.056   3.559   1.586
 4547SOL     OW13972   2.179   2.113   1.801
 4547SOL    HW113973   2.250   2.184   1.807
 4547SOL    HW213974   2.091   2.152   1.829
 4548SOL     OW13975   3.328   3.279   0.953
 4548SOL    HW113976   3.269   3.285   1.033
 4548SOL    HW213977   3.313   3.191   0.907
 4549SOL     OW13978   3.529   3.576   0.572
 4549SOL    HW113979   3.488   3.553   0.484
 4549SOL    HW213980   3.511   3.502   0.637
 4550SOL     OW13981   3.143   2.207   0.944
 4550SOL    HW113982   3.057   2.157   0.931
 4550SOL    HW213983   3.205   2.153   1.000
 4551SOL     OW13984   3.438   3.524   0.307
 4551SOL    HW113985   3.527   3.570   0.310
 4551SOL    HW213986   3.417   3.500   0.212
 4552SOL     OW13987   3.256   2.331   1.674
 4552SOL    HW113988   3.236   2.374   1.762
 4552SOL    HW213989   3.334   2.269   1.683
 4553SOL     OW13990   2.835   2.752   1.572
 4553SOL    HW113991   2.881   2.668   1.543
 4553SOL    HW213992   2.779   2.786   1.497
 4554SOL     OW13993   2.853   2.272   1.242
 4554SOL    HW113994   2.776   2.306   1.296
 4554SOL    HW213995   2.819   2.221   1.163
 4555SOL     OW13996   2.903   2.563   0.429
 4555SOL    HW113997   2.929   2.559   0.525
 4555SOL    HW213998   2.818   2.512   0.415
 4556SOL     OW13999   1.938   2.673   0.789
 4556SOL    HW114000   2.037   2.661   0.798
 4556SOL    HW214001   1.914   2.768   0.810
 4557SOL     OW14002   1.992   3.683   1.571
 4557SOL    HW114003   1.982   3.668   1.670
 4557SOL    HW214004   1.906   3.719   1.535
 4558SOL     OW14005   2.727   2.210   0.195
 4558SOL    HW114006   2.786   2.273   0.146
 4558SOL    HW214007   2.746   2.116   0.166
 4559SOL     OW14008   3.581   2.447   1.831
 4559SOL    HW114009   3.555   2.536   1.795
 4559SOL    HW214010   3.579   2.379   1.758
 4560SOL     OW14011   3.224   3.006   0.545
 4560SOL    HW114012   3.307   2.977   0.497
 4560SOL    HW214013   3.175   3.073   0.489
 4561SOL     OW14014   2.412   2.058   0.885
 4561SOL    HW114015   2.407   2.053   0.985
 4561SOL    HW214016   2.414   2.154   0.856
 4562SOL     OW14017   2.870   3.318   0.477
 4562SOL    HW114018   2.824   3.390   0.425
 4562SOL    HW214019   2.866   3.338   0.575
 4563SOL     OW14020   2.213   3.663   0.853
 4563SOL    HW114021   2.263   3.577   0.859
 4563SOL    HW214022   2.278   3.740   0.850
 4564SOL     OW14023   3.657   2.928   0.873
 4564SOL    HW114024   3.595   2.913   0.797
 4564SOL    HW214025   3.605   2.939   0.958
 4565SOL     OW14026   3.089   3.412   1.506
 4565SOL    HW114027   3.095   3.335   1.570
 4565SOL    HW214028   3.037   3.386   1.426
 4566SOL     OW14029   2.183   2.805   0.242
 4566SOL    HW114030   2.265   2.844   0.200
 4566SOL    HW214031   2.156   2.723   0.193
 4567SOL     OW14032   3.320   2.597   0.728
 4567SOL    HW114033   3.315   2.532   0.803
 4567SOL    HW214034   3.400   2.656   0.741
 4568SOL     OW14035   2.323   3.128   1.727
 4568SOL    HW114036   2.273   3.129   1.641
 4568SOL    HW214037   2.260   3.110   1.803
 4569SOL     OW14038   2.973   3.638   0.237
 4569SOL    HW114039   2.913   3.576   0.287
 4569SOL    HW214040   3.004   3.594   0.152
 4570SOL     OW14041   2.064   2.147   1.498
 4570SOL    HW114042   1.984   2.207   1.485
 4570SOL    HW214043   2.054   2.098   1.584
 4571SOL     OW14044   3.494   3.239   0.081
 4571SOL    HW114045   3.462   3.333   0.071
 4571SOL    HW214046   3.418   3.176   0.069
 4572SOL     OW14047   2.326   3.605   0.323
 4572SOL    HW114048   2.359   3.644   0.409
 4572SOL    HW214049   2.402   3.598   0.258
 4573SOL     OW14050   3.262   1.969   0.426
 4573SOL    HW114051   3.238   1.932   0.336
 4573SOL    HW214052   3.361   1.985   0.430
 4574SOL     OW14053   2.111   3.647   1.241
 4574SOL    HW114054   2.168   3.582   1.291
 4574SOL    HW214055   2.095   3.614   1.148
 4575SOL     OW14056   2.802   3.560   0.904
 4575SOL    HW114057   2.882   3.503   0.925
 4575SOL    HW214058   2.753   3.520   0.827
 4576SOL     OW14059   3.409   2.084   1.729
 4576SOL    HW114060   3.404   2.121   1.821
 4576SOL    HW214061   3.337   2.015   1.717
 4577SOL     OW14062   2.643   2.126   1.749
 4577SOL    HW114063   2.710   2.065   1.792
 4577SOL    HW214064   2.570   2.145   1.814
 4578SOL     OW14065   2.750   3.376   1.195
 4578SOL    HW114066   2.727   3.351   1.101
 4578SOL    HW214067   2.811   3.307   1.234
 4579SOL     OW14068   3.213   2.452   1.433
 4579SOL    HW114069   3.241   2.409   1.518
 4579SOL    HW214070   3.238   2.548   1.434
 4580SOL     OW14071   2.665   3.264   0.924
 4580SOL    HW114072   2.755   3.278   0.882
 4580SOL    HW214073   2.594   3.266   0.853
 4581SOL     OW14074   2.784   2.365   0.899
 4581SOL    HW114075   2.759   2.356   0.803
 4581SOL    HW214076   2.832   2.283   0.930
 4582SOL     OW14077   2.401   1.926   0.512
 4582SOL    HW114078   2.320   1.927   0.570
 4582SOL    HW214079   2.404   2.009   0.457
 4583SOL     OW14080   3.296   3.050   0.041
 4583SOL    HW114081   3.328   2.974   0.098
 4583SOL    HW214082   3.204   3.077   0.071
 4584SOL     OW14083   2.159   1.897   0.171
 4584SOL    HW114084   2.208   1.981   0.150
 4584SOL    HW214085   2.221   1.832   0.216
 4585SOL     OW14086   2.797   2.098   0.480
 4585SOL    HW114087   2.749   2.139   0.402
 4585SOL    HW214088   2.896   2.096   0.461
 4586SOL     OW14089   2.938   2.545   1.464
 4586SOL    HW114090   2.858   2.484   1.467
 4586SOL    HW214091   3.019   2.492   1.440
 4587SOL     OW14092   3.089   3.432   0.793
 4587SOL    HW114093   3.110   3.506   0.728
 4587SOL    HW214094   3.157   3.432   0.866
 4588SOL     OW14095   2.321   3.014   0.741
 4588SOL    HW114096   2.250   2.987   0.806
 4588SOL    HW214097   2.295   2.986   0.648
 4589SOL     OW14098   3.133   3.659   0.591
 4589SOL    HW114099   3.177   3.723   0.527
 4589SOL    HW214100   3.083   3.711   0.661
 4590SOL     OW14101   2.894   2.411   0.016
 4590SOL    HW114102   2.853   2.493  -0.023
 4590SOL    HW214103   2.958   2.437   0.089
 4591SOL     OW14104   1.940   2.418   1.386
 4591SOL    HW114105   2.032   2.417   1.345
 4591SOL    HW214106   1.934   2.492   1.453
 4592SOL     OW14107   2.423   2.084   1.147
 4592SOL    HW114108   2.461   2.000   1.184
 4592SOL    HW214109   2.335   2.103   1.191
 4593SOL     OW14110   2.879   1.901   0.753
 4593SOL    HW114111   2.807   1.906   0.684
 4593SOL    HW214112   2.855   1.832   0.822
 4594SOL     OW14113   3.291   3.035   0.867
 4594SOL    HW114114   3.236   2.951   0.860
 4594SOL    HW214115   3.317   3.064   0.775
 4595SOL     OW14116   3.328   2.452   0.992
 4595SOL    HW114117   3.298   2.357   0.999
 4595SOL    HW214118   3.401   2.468   1.058
 4596SOL     OW14119   3.719   2.695   0.377
 4596SOL    HW114120   3.761   2.631   0.441
 4596SOL    HW214121   3.681   2.644   0.299
 4597SOL     OW14122   2.350   3.247   0.174
 4597SOL    HW114123   2.263   3.232   0.221
 4597SOL    HW214124   2.333   3.273   0.079
 4598SOL     OW14125   3.526   3.142   0.657
 4598SOL    HW114126   3.625   3.150   0.671
 4598SOL    HW214127   3.481   3.226   0.688
 4599SOL     OW14128   3.252   2.437   0.078
 4599SOL    HW114129   3.198   2.416   0.159
 4599SOL    HW214130   3.343   2.396   0.087
 4600SOL     OW14131   2.389   2.118   0.328
 4600SOL    HW114132   2.416   2.059   0.253
 4600SOL    HW214133   2.389   2.213   0.297
 4601SOL     OW14134   3.616   3.085   1.588
 4601SOL    HW114135   3.707   3.046   1.575
 4601SOL    HW214136   3.624   3.181   1.612
 4602SOL     OW14137   2.926   3.209   1.340
 4602SOL    HW114138   2.846   3.186   1.395
 4602SOL    HW214139   3.009   3.183   1.389
 4603SOL     OW14140   3.454   3.491   1.625
 4603SOL    HW114141   3.481   3.525   1.535
 4603SOL    HW214142   3.533   3.453   1.671
 4604SOL     OW14143   2.973   3.057   1.100
 4604SOL    HW114144   2.933   3.101   1.181
 4604SOL    HW214145   2.932   3.094   1.017
 4605SOL     OW14146   3.500   2.961   1.079
 4605SOL    HW114147   3.505   3.042   1.138
 4605SOL    HW214148   3.414   2.963   1.028
 4606SOL     OW14149   2.777   1.951   1.402
 4606SOL    HW114150   2.802   1.931   1.307
 4606SOL    HW214151   2.849   2.007   1.444
 4607SOL     OW14152   2.842   2.978   1.719
 4607SOL    HW114153   2.743   2.984   1.729
 4607SOL    HW214154   2.865   2.898   1.663
 4608SOL     OW14155   2.567   2.912   0.368
 4608SOL    HW114156   2.553   2.919   0.467
 4608SOL    HW214157   2.651   2.861   0.350
 4609SOL     OW14158   2.272   2.675   1.251
 4609SOL    HW114159   2.358   2.687   1.301
 4609SOL    HW214160   2.230   2.588   1.278
 4610SOL     OW14161   3.136   2.248   1.262
 4610SOL    HW114162   3.157   2.322   1.326
 4610SOL    HW214163   3.047   2.265   1.219
 4611SOL     OW14164   1.926   3.426   1.331
 4611SOL    HW114165   1.880   3.508   1.297
 4611SOL    HW214166   2.024   3.445   1.340
 4612SOL     OW14167   2.229   2.962   0.501
 4612SOL    HW114168   2.222   3.045   0.445
 4612SOL    HW214169   2.233   2.882   0.441
 4613SOL     OW14170   3.114   3.210   0.388
 4613SOL    HW114171   3.164   3.287   0.428
 4613SOL    HW214172   3.019   3.212   0.420
 4614SOL     OW14173   3.134   3.307   1.142
 4614SOL    HW114174   3.181   3.320   1.229
 4614SOL    HW214175   3.068   3.233   1.151
 4615SOL     OW14176   3.444   2.501   0.472
 4615SOL    HW114177   3.413   2.562   0.545
 4615SOL    HW214178   3.494   2.553   0.403
 4616SOL     OW14179   2.216   3.372   1.329
 4616SOL    HW114180   2.195   3.328   1.242
 4616SOL    HW214181   2.313   3.398   1.332
 4617SOL     OW14182   3.449   2.641   1.670
 4617SOL    HW114183   3.357   2.679   1.665
 4617SOL    HW214184   3.509   2.688   1.605
 4618SOL     OW14185   2.875   1.967   1.770
 4618SOL    HW114186   2.881   2.052   1.718
 4618SOL    HW214187   2.907   1.891   1.713
 4619SOL     OW14188   2.366   1.912   1.740
 4619SOL    HW114189   2.324   1.855   1.670
 4619SOL    HW214190   2.300   1.981   1.772
 4620SOL     OW14191   2.435   2.732   1.029
 4620SOL    HW114192   2.479   2.821   1.020
 4620SOL    HW214193   2.372   2.732   1.106
 4621SOL     OW14194   3.222   2.724   1.045
 4621SOL    HW114195   3.147   2.724   0.979
 4621SOL    HW214196   3.259   2.632   1.054
 4622SOL     OW14197   3.071   2.387   0.275
 4622SOL    HW114198   3.084   2.303   0.329
 4622SOL    HW214199   3.042   2.461   0.335
 4623SOL     OW14200   2.169   2.075   1.231
 4623SOL    HW114201   2.146   2.112   1.321
 4623SOL    HW214202   2.139   1.980   1.225
 4624SOL     OW14203   1.899   3.172   1.282
 4624SOL    HW114204   1.952   3.123   1.350
 4624SOL    HW214205   1.921   3.270   1.287
 4625SOL     OW14206   3.590   2.797   1.854
 4625SOL    HW114207   3.544   2.790   1.765
 4625SOL    HW214208   3.528   2.841   1.920
 4626SOL     OW14209   2.169   1.925   0.618
 4626SOL    HW114210   2.158   2.019   0.651
 4626SOL    HW214211   2.164   1.862   0.695
 4627SOL     OW14212   3.484   2.229   0.374
 4627SOL    HW114213   3.486   2.153   0.438
 4627SOL    HW214214   3.436   2.306   0.414
 4628SOL     OW14215   2.885   2.628   0.966
 4628SOL    HW114216   2.900   2.649   1.062
 4628SOL    HW214217   2.855   2.533   0.957
 4629SOL     OW14218   2.842   3.435   1.700
 4629SOL    HW114219   2.822   3.479   1.612
 4629SOL    HW214220   2.881   3.344   1.684
 4630SOL     OW14221   3.721   3.380   1.605
 4630SOL    HW114222   3.735   3.407   1.510
 4630SOL    HW214223   3.804   3.402   1.658
 4631SOL     OW14224   2.212   2.760   1.804
 4631SOL    HW114225   2.288   2.804   1.852
 4631SOL    HW214226   2.247   2.713   1.722
 4632SOL     OW14227   3.402   2.136   0.125
 4632SOL    HW114228   3.341   2.061   0.148
 4632SOL    HW214229   3.424   2.188   0.208
 4633SOL     OW14230   3.165   2.700   0.042
 4633SOL    HW114231   3.199   2.607   0.057
 4633SOL    HW214232   3.183   2.727  -0.053
 4634SOL     OW14233   2.930   3.195   0.849
 4634SOL    HW114234   2.937   3.111   0.794
 4634SOL    HW214235   2.992   3.264   0.813
 4635SOL     OW14236   2.181   2.672   0.949
 4635SOL    HW114237   2.274   2.708   0.954
 4635SOL    HW214238   2.175   2.587   1.001
 4636SOL     OW14239   2.201   2.371   1.006
 4636SOL    HW114240   2.149   2.288   0.989
 4636SOL    HW214241   2.278   2.376   0.942
 4637SOL     OW14242   3.000   2.242   1.678
 4637SOL    HW114243   2.955   2.305   1.742
 4637SOL    HW214244   3.093   2.273   1.661
 4638SOL     OW14245   3.022   2.069   1.477
 4638SOL    HW114246   3.022   2.133   1.554
 4638SOL    HW214247   3.050   2.117   1.394
 4639SOL     OW14248   1.870   3.188   0.200
 4639SOL    HW114249   1.777   3.209   0.169
 4639SOL    HW214250   1.880   3.089   0.213
 4640SOL     OW14251   1.950   3.663   0.927
 4640SOL    HW114252   1.908   3.577   0.900
 4640SOL    HW214253   2.044   3.666   0.893
 4641SOL     OW14254   2.366   3.430   0.910
 4641SOL    HW114255   2.432   3.504   0.919
 4641SOL    HW214256   2.410   3.351   0.868
 4642SOL     OW14257   2.864   2.658   1.238
 4642SOL    HW114258   2.905   2.626   1.324
 4642SOL    HW214259   2.768   2.631   1.235
 4643SOL     OW14260   1.902   2.406   1.114
 4643SOL    HW114261   1.987   2.373   1.073
 4643SOL    HW214262   1.915   2.421   1.212
 4644SOL     OW14263   2.051   2.382   1.722
 4644SOL    HW114264   2.110   2.342   1.652
 4644SOL    HW214265   1.993   2.453   1.681
 4645SOL     OW14266   3.231   2.812   1.660
 4645SOL    HW114267   3.270   2.901   1.680
 4645SOL    HW214268   3.241   2.792   1.563
 4646SOL     OW14269   3.519   2.466   1.206
 4646SOL    HW114270   3.481   2.397   1.268
 4646SOL    HW214271   3.601   2.430   1.162
 4647SOL     OW14272   2.114   3.426   1.744
 4647SOL    HW114273   2.084   3.483   1.820
 4647SOL    HW214274   2.107   3.329   1.770
 4648SOL     OW14275   2.792   3.540   1.465
 4648SOL    HW114276   2.768   3.522   1.370
 4648SOL    HW214277   2.822   3.634   1.475
 4649SOL     OW14278   2.021   2.999   1.466
 4649SOL    HW114279   2.043   2.938   1.542
 4649SOL    HW214280   2.031   2.950   1.380
 4650SOL     OW14281   3.209   2.921   1.234
 4650SOL    HW114282   3.233   2.858   1.160
 4650SOL    HW214283   3.119   2.961   1.216
 4651SOL     OW14284   3.164   2.717   0.309
 4651SOL    HW114285   3.078   2.686   0.351
 4651SOL    HW214286   3.160   2.703   0.210
 4652SOL     OW14287   3.621   3.609   1.154
 4652SOL    HW114288   3.682   3.639   1.081
 4652SOL    HW214289   3.583   3.520   1.132
 4653SOL     OW14290   3.114   3.593   1.128
 4653SOL    HW114291   3.198   3.598   1.074
 4653SOL    HW214292   3.091   3.497   1.146
 4654SOL     OW14293   1.945   3.120   1.022
 4654SOL    HW114294   1.940   3.119   1.122
 4654SOL    HW214295   1.862   3.079   0.984
 4655SOL     OW14296   2.550   3.524   1.716
 4655SOL    HW114297   2.494   3.605   1.725
 4655SOL    HW214298   2.602   3.528   1.630
 4656SOL     OW14299   2.765   1.948   0.133
 4656SOL    HW114300   2.816   1.949   0.047
 4656SOL    HW214301   2.821   1.906   0.204
 4657SOL     OW14302   3.588   1.997   0.523
 4657SOL    HW114303   3.661   1.980   0.456
 4657SOL    HW214304   3.557   1.910   0.561
 4658SOL     OW14305   3.250   3.435   0.477
 4658SOL    HW114306   3.317   3.447   0.403
 4658SOL    HW214307   3.210   3.524   0.500
 4659SOL     OW14308   1.992   3.656   1.851
 4659SOL    HW114309   1.951   3.582   1.904
 4659SOL    HW214310   2.056   3.707   1.909
 4660SOL     OW14311   3.142   2.789   0.672
 4660SOL    HW114312   3.202   2.708   0.674
 4660SOL    HW214313   3.182   2.858   0.612
 4661SOL     OW14314   2.692   3.135   1.422
 4661SOL    HW114315   2.687   3.168   1.517
 4661SOL    HW214316   2.606   3.154   1.376
 4662SOL     OW14317   2.534   3.478   0.154
 4662SOL    HW114318   2.543   3.488   0.055
 4662SOL    HW214319   2.494   3.389   0.175
 4663SOL     OW14320   3.512   3.582   1.394
 4663SOL    HW114321   3.565   3.592   1.310
 4663SOL    HW214322   3.485   3.672   1.428
 4664SOL     OW14323   3.703   2.037   0.963
 4664SOL    HW114324   3.742   1.952   0.927
 4664SOL    HW214325   3.605   2.039   0.944
 4665SOL     OW14326   2.125   2.188   0.720
 4665SOL    HW114327   2.046   2.239   0.686
 4665SOL    HW214328   2.116   2.173   0.818
 4666SOL     OW14329   3.056   3.474   0.031
 4666SOL    HW114330   3.062   3.381   0.068
 4666SOL    HW214331   2.997   3.474  -0.049
 4667SOL     OW14332   2.684   2.864   1.372
 4667SOL    HW114333   2.724   2.863   1.280
 4667SOL    HW214334   2.694   2.956   1.412
 4668SOL     OW14335   2.778   2.772   0.291
 4668SOL    HW114336   2.841   2.810   0.223
 4668SOL    HW214337   2.818   2.689   0.330
 4669SOL     OW14338   3.366   3.469   0.044
 4669SOL    HW114339   3.274   3.506   0.051
 4669SOL    HW214340   3.404   3.489  -0.046
 4670SOL     OW14341   2.234   3.150   1.490
 4670SOL    HW114342   2.221   3.243   1.456
 4670SOL    HW214343   2.150   3.098   1.477
 4671SOL     OW14344   3.476   3.154   1.289
 4671SOL    HW114345   3.536   3.157   1.369
 4671SOL    HW214346   3.401   3.218   1.302
 4672SOL     OW14347   2.901   2.960   0.696
 4672SOL    HW114348   2.831   2.913   0.750
 4672SOL    HW214349   2.960   2.892   0.653
 4673SOL     OW14350   2.876   2.098   0.971
 4673SOL    HW114351   2.868   2.062   0.878
 4673SOL    HW214352   2.874   2.022   1.036
 4674SOL     OW14353   2.452   3.349   0.491
 4674SOL    HW114354   2.494   3.291   0.421
 4674SOL    HW214355   2.408   3.428   0.447
 4675SOL     OW14356   3.571   2.247   1.381
 4675SOL    HW114357   3.644   2.316   1.385
 4675SOL    HW214358   3.599   2.172   1.322
 4676SOL     OW14359   2.117   3.210   0.290
 4676SOL    HW114360   2.021   3.211   0.263
 4676SOL    HW214361   2.129   3.263   0.374
 4677SOL     OW14362   1.967   2.875   1.726
 4677SOL    HW114363   1.890   2.842   1.780
 4677SOL    HW214364   2.052   2.845   1.768
 4678SOL     OW14365   2.534   2.065   1.489
 4678SOL    HW114366   2.624   2.049   1.449
 4678SOL    HW214367   2.542   2.070   1.588
 4679SOL     OW14368   1.937   2.207   0.033
 4679SOL    HW114369   1.845   2.179   0.004
 4679SOL    HW214370   1.968   2.284  -0.023
 4680SOL     OW14371   3.302   2.718   1.398
 4680SOL    HW114372   3.245   2.770   1.335
 4680SOL    HW214373   3.398   2.730   1.374
 4681SOL     OW14374   1.934   2.028   0.318
 4681SOL    HW114375   1.917   2.111   0.264
 4681SOL    HW214376   2.024   1.991   0.296
 4682SOL     OW14377   3.045   3.197   0.119
 4682SOL    HW114378   2.946   3.186   0.121
 4682SOL    HW214379   3.079   3.212   0.212
 4683SOL     OW14380   3.355   3.629   0.959
 4683SOL    HW114381   3.388   3.693   0.890
 4683SOL    HW214382   3.421   3.623   1.034
 4684SOL     OW14383   3.312   3.082   1.633
 4684SOL    HW114384   3.303   3.072   1.732
 4684SOL    HW214385   3.408   3.075   1.607
 4685SOL     OW14386   2.252   3.603   1.560
 4685SOL    HW114387   2.161   3.644   1.558
 4685SOL    HW214388   2.245   3.509   1.592
 4686SOL     OW14389   3.536   2.745   1.254
 4686SOL    HW114390   3.509   2.656   1.217
 4686SOL    HW214391   3.537   2.813   1.181
 4687SOL     OW14392   3.087   2.187   0.449
 4687SOL    HW114393   3.152   2.113   0.438
 4687SOL    HW214394   3.107   2.237   0.533
 4688SOL     OW14395   3.639   2.204   1.642
 4688SOL    HW114396   3.622   2.235   1.548
 4688SOL    HW214397   3.555   2.167   1.680
 4689SOL     OW14398   3.592   2.796   1.517
 4689SOL    HW114399   3.630   2.887   1.532
 4689SOL    HW214400   3.584   2.779   1.418
 4690SOL     OW14401   2.721   3.236   0.016
 4690SOL    HW114402   2.675   3.251   0.104
 4690SOL    HW214403   2.765   3.321  -0.014
 4691SOL     OW14404   2.523   3.652   0.953
 4691SOL    HW114405   2.477   3.740   0.940
 4691SOL    HW214406   2.622   3.664   0.946
 4692SOL     OW14407   2.721   2.818   0.861
 4692SOL    HW114408   2.775   2.749   0.909
 4692SOL    HW214409   2.689   2.887   0.927
 4693SOL     OW14410   2.945   2.846   0.087
 4693SOL    HW114411   2.922   2.899   0.005
 4693SOL    HW214412   3.026   2.790   0.068
 4694SOL     OW14413   3.723   3.431   0.851
 4694SOL    HW114414   3.652   3.419   0.781
 4694SOL    HW214415   3.724   3.352   0.911
 4695SOL     OW14416   2.083   3.176   1.844
 4695SOL    HW114417   2.018   3.103   1.823
 4695SOL    HW214418   2.087   3.190   1.942
 4696SOL     OW14419   1.941   3.102   0.653
 4696SOL    HW114420   1.940   3.055   0.741
 4696SOL    HW214421   2.023   3.074   0.602
 4697SOL     OW14422   2.534   3.253   1.624
 4697SOL    HW114423   2.456   3.203   1.662
 4697SOL    HW214424   2.531   3.348   1.655
 4698SOL     OW14425   3.686   2.054   1.227
 4698SOL    HW114426   3.682   1.964   1.271
 4698SOL    HW214427   3.689   2.043   1.128
 4699SOL     OW14428   2.290   2.286   0.520
 4699SOL    HW114429   2.320   2.214   0.458
 4699SOL    HW214430   2.251   2.246   0.603
 4700SOL     OW14431   3.567   3.349   1.104
 4700SOL    HW114432   3.474   3.324   1.077
 4700SOL    HW214433   3.593   3.299   1.186
 4701SOL     OW14434   2.179   2.409   1.280
 4701SOL    HW114435   2.217   2.350   1.352
 4701SOL    HW214436   2.219   2.383   1.192
 4702SOL     OW14437   2.674   3.448   0.687
 4702SOL    HW114438   2.706   3.458   0.593
 4702SOL    HW214439   2.595   3.386   0.689
 4703SOL     OW14440   3.286   2.076   1.112
 4703SOL    HW114441   3.338   2.011   1.167
 4703SOL    HW214442   3.237   2.139   1.173
 4704SOL     OW14443   2.863   1.896   1.154
 4704SOL    HW114444   2.800   1.824   1.123
 4704SOL    HW214445   2.956   1.860   1.154
 4705SOL     OW14446   2.632   3.192   0.301
 4705SOL    HW114447   2.586   3.105   0.318
 4705SOL    HW214448   2.723   3.189   0.342
 4706SOL     OW14449   2.480   3.429   1.284
 4706SOL    HW114450   2.475   3.511   1.341
 4706SOL    HW214451   2.569   3.426   1.239
 4707SOL     OW14452   3.214   1.914   0.168
 4707SOL    HW114453   3.249   1.873   0.084
 4707SOL    HW214454   3.124   1.876   0.188
 4708SOL     OW14455   3.162   2.315   0.691
 4708SOL    HW114456   3.103   2.395   0.695
 4708SOL    HW214457   3.177   2.280   0.784
 4709SOL     OW14458   3.455   2.083   0.882
 4709SOL    HW114459   3.371   2.082   0.936
 4709SOL    HW214460   3.457   2.166   0.826
 4710SOL     OW14461   1.901   2.939   0.300
 4710SOL    HW114462   2.000   2.928   0.291
 4710SOL    HW214463   1.861   2.853   0.332
 4711SOL     OW14464   2.737   3.508   0.337
 4711SOL    HW114465   2.660   3.473   0.283
 4711SOL    HW214466   2.705   3.579   0.399
 4712SOL     OW14467   2.092   2.490   1.975
 4712SOL    HW114468   1.999   2.488   2.012
 4712SOL    HW214469   2.093   2.451   1.883
 4713SOL     OW14470   2.087   2.137   2.858
 4713SOL    HW114471   2.122   2.120   2.950
 4713SOL    HW214472   1.999   2.092   2.846
 4714SOL     OW14473   1.881   2.230   2.509
 4714SOL    HW114474   1.799   2.273   2.548
 4714SOL    HW214475   1.853   2.157   2.446
 4715SOL     OW14476   2.431   3.137   3.027
 4715SOL    HW114477   2.338   3.130   2.990
 4715SOL    HW214478   2.442   3.226   3.071
 4716SOL     OW14479   3.417   3.373   2.565
 4716SOL    HW114480   3.360   3.357   2.646
 4716SOL    HW214481   3.358   3.383   2.485
 4717SOL     OW14482   2.997   2.565   2.579
 4717SOL    HW114483   3.054   2.643   2.554
 4717SOL    HW214484   2.937   2.591   2.655
 4718SOL     OW14485   3.617   2.469   2.093
 4718SOL    HW114486   3.605   2.456   1.994
 4718SOL    HW214487   3.587   2.388   2.142
 4719SOL     OW14488   2.630   3.006   2.885
 4719SOL    HW114489   2.552   3.023   2.945
 4719SOL    HW214490   2.664   3.093   2.849
 4720SOL     OW14491   2.712   2.660   3.685
 4720SOL    HW114492   2.708   2.736   3.750
 4720SOL    HW214493   2.734   2.696   3.594
 4721SOL     OW14494   2.547   2.874   2.527
 4721SOL    HW114495   2.616   2.858   2.597
 4721SOL    HW214496   2.474   2.931   2.565
 4722SOL     OW14497   2.548   3.023   3.665
 4722SOL    HW114498   2.608   3.102   3.679
 4722SOL    HW214499   2.462   3.054   3.624
 4723SOL     OW14500   2.197   3.297   2.923
 4723SOL    HW114501   2.119   3.266   2.870
 4723SOL    HW214502   2.255   3.355   2.866
 4724SOL     OW14503   3.322   3.367   3.201
 4724SOL    HW114504   3.346   3.461   3.227
 4724SOL    HW214505   3.306   3.313   3.283
 4725SOL     OW14506   2.300   2.254   3.361
 4725SOL    HW114507   2.382   2.198   3.370
 4725SOL    HW214508   2.219   2.196   3.365
 4726SOL     OW14509   3.465   2.309   2.599
 4726SOL    HW114510   3.391   2.355   2.549
 4726SOL    HW214511   3.516   2.377   2.652
 4727SOL     OW14512   2.093   3.575   2.345
 4727SOL    HW114513   2.127   3.652   2.399
 4727SOL    HW214514   2.137   3.575   2.255
 4728SOL     OW14515   2.989   3.203   3.552
 4728SOL    HW114516   3.036   3.203   3.640
 4728SOL    HW214517   2.941   3.116   3.541
 4729SOL     OW14518   2.092   3.296   2.400
 4729SOL    HW114519   2.066   3.392   2.400
 4729SOL    HW214520   2.021   3.242   2.445
 4730SOL     OW14521   2.102   2.953   2.748
 4730SOL    HW114522   2.116   2.869   2.800
 4730SOL    HW214523   2.047   3.017   2.803
 4731SOL     OW14524   2.482   3.648   3.301
 4731SOL    HW114525   2.390   3.631   3.336
 4731SOL    HW214526   2.510   3.740   3.327
 4732SOL     OW14527   2.468   2.826   1.985
 4732SOL    HW114528   2.475   2.910   1.931
 4732SOL    HW214529   2.514   2.839   2.073
 4733SOL     OW14530   3.456   1.976   3.342
 4733SOL    HW114531   3.438   2.043   3.270
 4733SOL    HW214532   3.453   2.022   3.431
 4734SOL     OW14533   1.984   2.505   2.425
 4734SOL    HW114534   1.939   2.417   2.442
 4734SOL    HW214535   1.983   2.559   2.509
 4735SOL     OW14536   3.704   3.629   2.221
 4735SOL    HW114537   3.758   3.600   2.301
 4735SOL    HW214538   3.734   3.719   2.192
 4736SOL     OW14539   1.889   3.458   1.979
 4736SOL    HW114540   1.870   3.362   2.000
 4736SOL    HW214541   1.856   3.516   2.054
 4737SOL     OW14542   3.551   2.784   2.474
 4737SOL    HW114543   3.646   2.755   2.482
 4737SOL    HW214544   3.543   2.849   2.399
 4738SOL     OW14545   3.503   2.970   2.294
 4738SOL    HW114546   3.589   2.972   2.242
 4738SOL    HW214547   3.517   3.017   2.382
 4739SOL     OW14548   1.975   2.599   3.459
 4739SOL    HW114549   2.063   2.586   3.504
 4739SOL    HW214550   1.962   2.696   3.437
 4740SOL     OW14551   2.475   3.227   2.588
 4740SOL    HW114552   2.426   3.140   2.597
 4740SOL    HW214553   2.452   3.270   2.501
 4741SOL     OW14554   3.155   3.090   3.285
 4741SOL    HW114555   3.192   3.017   3.227
 4741SOL    HW214556   3.207   3.095   3.370
 4742SOL     OW14557   2.671   1.866   2.364
 4742SOL    HW114558   2.711   1.957   2.355
 4742SOL    HW214559   2.571   1.874   2.370
 4743SOL     OW14560   2.059   2.838   3.126
 4743SOL    HW114561   2.148   2.793   3.112
 4743SOL    HW214562   1.986   2.773   3.107
 4744SOL     OW14563   3.387   2.861   2.052
 4744SOL    HW114564   3.324   2.785   2.065
 4744SOL    HW214565   3.435   2.879   2.138
 4745SOL     OW14566   3.049   3.654   3.478
 4745SOL    HW114567   3.073   3.714   3.402
 4745SOL    HW214568   3.056   3.559   3.448
 4746SOL     OW14569   2.179   2.113   3.663
 4746SOL    HW114570   2.250   2.184   3.669
 4746SOL    HW214571   2.091   2.152   3.691
 4747SOL     OW14572   3.328   3.279   2.815
 4747SOL    HW114573   3.269   3.285   2.895
 4747SOL    HW214574   3.313   3.191   2.769
 4748SOL     OW14575   3.529   3.576   2.434
 4748SOL    HW114576   3.488   3.553   2.346
 4748SOL    HW214577   3.511   3.502   2.499
 4749SOL     OW14578   3.143   2.207   2.806
 4749SOL    HW114579   3.057   2.157   2.793
 4749SOL    HW214580   3.205   2.153   2.862
 4750SOL     OW14581   3.438   3.524   2.169
 4750SOL    HW114582   3.527   3.570   2.172
 4750SOL    HW214583   3.417   3.500   2.074
 4751SOL     OW14584   3.256   2.331   3.536
 4751SOL    HW114585   3.236   2.374   3.624
 4751SOL    HW214586   3.334   2.269   3.545
 4752SOL     OW14587   2.835   2.752   3.434
 4752SOL    HW114588   2.881   2.668   3.405
 4752SOL    HW214589   2.779   2.786   3.359
 4753SOL     OW14590   2.853   2.272   3.104
 4753SOL    HW114591   2.776   2.306   3.158
 4753SOL    HW214592   2.819   2.221   3.025
 4754SOL     OW14593   2.903   2.563   2.291
 4754SOL    HW114594   2.929   2.559   2.387
 4754SOL    HW214595   2.818   2.512   2.277
 4755SOL     OW14596   1.938   2.673   2.651
 4755SOL    HW114597   2.037   2.661   2.660
 4755SOL    HW214598   1.914   2.768   2.672
 4756SOL     OW14599   1.992   3.683   3.433
 4756SOL    HW114600   1.982   3.668   3.532
 4756SOL    HW214601   1.906   3.719   3.397
 4757SOL     OW14602   2.727   2.210   2.057
 4757SOL    HW114603   2.786   2.273   2.008
 4757SOL    HW214604   2.746   2.116   2.028
 4758SOL     OW14605   3.581   2.447   3.693
 4758SOL    HW114606   3.555   2.536   3.657
 4758SOL    HW214607   3.579   2.379   3.620
 4759SOL     OW14608   3.224   3.006   2.407
 4759SOL    HW114609   3.307   2.977   2.359
 4759SOL    HW214610   3.175   3.073   2.351
 4760SOL     OW14611   2.412   2.058   2.747
 4760SOL    HW114612   2.407   2.053   2.847
 4760SOL    HW214613   2.414   2.154   2.718
 4761SOL     OW14614   2.870   3.318   2.339
 4761SOL    HW114615   2.824   3.390   2.287
 4761SOL    HW214616   2.866   3.338   2.437
 4762SOL     OW14617   2.213   3.663   2.715
 4762SOL    HW114618   2.263   3.577   2.721
 4762SOL    HW214619   2.278   3.740   2.712
 4763SOL     OW14620   3.657   2.928   2.735
 4763SOL    HW114621   3.595   2.913   2.659
 4763SOL    HW214622   3.605   2.939   2.820
 4764SOL     OW14623   3.089   3.412   3.368
 4764SOL    HW114624   3.095   3.335   3.432
 4764SOL    HW214625   3.037   3.386   3.288
 4765SOL     OW14626   2.183   2.805   2.104
 4765SOL    HW114627   2.265   2.844   2.062
 4765SOL    HW214628   2.156   2.723   2.055
 4766SOL     OW14629   3.320   2.597   2.590
 4766SOL    HW114630   3.315   2.532   2.665
 4766SOL    HW214631   3.400   2.656   2.603
 4767SOL     OW14632   2.323   3.128   3.589
 4767SOL    HW114633   2.273   3.129   3.503
 4767SOL    HW214634   2.260   3.110   3.665
 4768SOL     OW14635   2.973   3.638   2.099
 4768SOL    HW114636   2.913   3.576   2.149
 4768SOL    HW214637   3.004   3.594   2.014
 4769SOL     OW14638   2.064   2.147   3.360
 4769SOL    HW114639   1.984   2.207   3.347
 4769SOL    HW214640   2.054   2.098   3.446
 4770SOL     OW14641   3.494   3.239   1.943
 4770SOL    HW114642   3.462   3.333   1.933
 4770SOL    HW214643   3.418   3.176   1.931
 4771SOL     OW14644   2.326   3.605   2.185
 4771SOL    HW114645   2.359   3.644   2.271
 4771SOL    HW214646   2.402   3.598   2.120
 4772SOL     OW14647   3.262   1.969   2.288
 4772SOL    HW114648   3.238   1.932   2.198
 4772SOL    HW214649   3.361   1.985   2.292
 4773SOL     OW14650   2.111   3.647   3.103
 4773SOL    HW114651   2.168   3.582   3.153
 4773SOL    HW214652   2.095   3.614   3.010
 4774SOL     OW14653   2.802   3.560   2.766
 4774SOL    HW114654   2.882   3.503   2.787
 4774SOL    HW214655   2.753   3.520   2.689
 4775SOL     OW14656   3.409   2.084   3.591
 4775SOL    HW114657   3.404   2.121   3.683
 4775SOL    HW214658   3.337   2.015   3.579
 4776SOL     OW14659   2.476   1.984   1.979
 4776SOL    HW114660   2.574   1.962   1.986
 4776SOL    HW214661   2.445   1.967   1.886
 4777SOL     OW14662   2.643   2.126   3.611
 4777SOL    HW114663   2.710   2.065   3.654
 4777SOL    HW214664   2.570   2.145   3.676
 4778SOL     OW14665   2.750   3.376   3.057
 4778SOL    HW114666   2.727   3.351   2.963
 4778SOL    HW214667   2.811   3.307   3.096
 4779SOL     OW14668   3.213   2.452   3.295
 4779SOL    HW114669   3.241   2.409   3.380
 4779SOL    HW214670   3.238   2.548   3.296
 4780SOL     OW14671   2.665   3.264   2.786
 4780SOL    HW114672   2.755   3.278   2.744
 4780SOL    HW214673   2.594   3.266   2.715
 4781SOL     OW14674   2.784   2.365   2.761
 4781SOL    HW114675   2.759   2.356   2.665
 4781SOL    HW214676   2.832   2.283   2.792
 4782SOL     OW14677   2.401   1.926   2.374
 4782SOL    HW114678   2.320   1.927   2.432
 4782SOL    HW214679   2.404   2.009   2.319
 4783SOL     OW14680   3.296   3.050   1.903
 4783SOL    HW114681   3.328   2.974   1.960
 4783SOL    HW214682   3.204   3.077   1.933
 4784SOL     OW14683   2.159   1.897   2.033
 4784SOL    HW114684   2.208   1.981   2.012
 4784SOL    HW214685   2.221   1.832   2.078
 4785SOL     OW14686   2.797   2.098   2.342
 4785SOL    HW114687   2.749   2.139   2.264
 4785SOL    HW214688   2.896   2.096   2.323
 4786SOL     OW14689   2.938   2.545   3.326
 4786SOL    HW114690   2.858   2.484   3.329
 4786SOL    HW214691   3.019   2.492   3.302
 4787SOL     OW14692   3.089   3.432   2.655
 4787SOL    HW114693   3.110   3.506   2.590
 4787SOL    HW214694   3.157   3.432   2.728
 4788SOL     OW14695   2.321   3.014   2.603
 4788SOL    HW114696   2.250   2.987   2.668
 4788SOL    HW214697   2.295   2.986   2.510
 4789SOL     OW14698   3.133   3.659   2.453
 4789SOL    HW114699   3.177   3.723   2.389
 4789SOL    HW214700   3.083   3.711   2.523
 4790SOL     OW14701   2.894   2.411   1.878
 4790SOL    HW114702   2.853   2.493   1.839
 4790SOL    HW214703   2.958   2.437   1.951
 4791SOL     OW14704   1.940   2.418   3.248
 4791SOL    HW114705   2.032   2.417   3.207
 4791SOL    HW214706   1.934   2.492   3.315
 4792SOL     OW14707   2.423   2.084   3.009
 4792SOL    HW114708   2.461   2.000   3.046
 4792SOL    HW214709   2.335   2.103   3.053
 4793SOL     OW14710   2.728   2.316   2.504
 4793SOL    HW114711   2.696   2.388   2.442
 4793SOL    HW214712   2.752   2.235   2.451
 4794SOL     OW14713   2.879   1.901   2.615
 4794SOL    HW114714   2.807   1.906   2.546
 4794SOL    HW214715   2.855   1.832   2.684
 4795SOL     OW14716   3.291   3.035   2.729
 4795SOL    HW114717   3.236   2.951   2.722
 4795SOL    HW214718   3.317   3.064   2.637
 4796SOL     OW14719   3.328   2.452   2.854
 4796SOL    HW114720   3.298   2.357   2.861
 4796SOL    HW214721   3.401   2.468   2.920
 4797SOL     OW14722   3.719   2.695   2.239
 4797SOL    HW114723   3.761   2.631   2.303
 4797SOL    HW214724   3.681   2.644   2.161
 4798SOL     OW14725   2.350   3.247   2.036
 4798SOL    HW114726   2.263   3.232   2.083
 4798SOL    HW214727   2.333   3.273   1.941
 4799SOL     OW14728   3.526   3.142   2.519
 4799SOL    HW114729   3.625   3.150   2.533
 4799SOL    HW214730   3.481   3.226   2.550
 4800SOL     OW14731   3.252   2.437   1.940
 4800SOL    HW114732   3.198   2.416   2.021
 4800SOL    HW214733   3.343   2.396   1.949
 4801SOL     OW14734   2.389   2.118   2.190
 4801SOL    HW114735   2.416   2.059   2.115
 4801SOL    HW214736   2.389   2.213   2.159
 4802SOL     OW14737   3.616   3.085   3.450
 4802SOL    HW114738   3.707   3.046   3.437
 4802SOL    HW214739   3.624   3.181   3.474
 4803SOL     OW14740   2.926   3.209   3.202
 4803SOL    HW114741   2.846   3.186   3.257
 4803SOL    HW214742   3.009   3.183   3.251
 4804SOL     OW14743   3.454   3.491   3.487
 4804SOL    HW114744   3.481   3.525   3.397
 4804SOL    HW214745   3.533   3.453   3.533
 4805SOL     OW14746   2.973   3.057   2.962
 4805SOL    HW114747   2.933   3.101   3.043
 4805SOL    HW214748   2.932   3.094   2.879
 4806SOL     OW14749   3.500   2.961   2.941
 4806SOL    HW114750   3.505   3.042   3.000
 4806SOL    HW214751   3.414   2.963   2.890
 4807SOL     OW14752   2.777   1.951   3.264
 4807SOL    HW114753   2.802   1.931   3.169
 4807SOL    HW214754   2.849   2.007   3.306
 4808SOL     OW14755   2.842   2.978   3.581
 4808SOL    HW114756   2.743   2.984   3.591
 4808SOL    HW214757   2.865   2.898   3.525
 4809SOL     OW14758   2.567   2.912   2.230
 4809SOL    HW114759   2.553   2.919   2.329
 4809SOL    HW214760   2.651   2.861   2.212
 4810SOL     OW14761   2.272   2.675   3.113
 4810SOL    HW114762   2.358   2.687   3.163
 4810SOL    HW214763   2.230   2.588   3.140
 4811SOL     OW14764   3.136   2.248   3.124
 4811SOL    HW114765   3.157   2.322   3.188
 4811SOL    HW214766   3.047   2.265   3.081
 4812SOL     OW14767   1.926   3.426   3.193
 4812SOL    HW114768   1.880   3.508   3.159
 4812SOL    HW214769   2.024   3.445   3.202
 4813SOL     OW14770   2.229   2.962   2.363
 4813SOL    HW114771   2.222   3.045   2.307
 4813SOL    HW214772   2.233   2.882   2.303
 4814SOL     OW14773   3.114   3.210   2.250
 4814SOL    HW114774   3.164   3.287   2.290
 4814SOL    HW214775   3.019   3.212   2.282
 4815SOL     OW14776   3.134   3.307   3.004
 4815SOL    HW114777   3.181   3.320   3.091
 4815SOL    HW214778   3.068   3.233   3.013
 4816SOL     OW14779   3.444   2.501   2.334
 4816SOL    HW114780   3.413   2.562   2.407
 4816SOL    HW214781   3.494   2.553   2.265
 4817SOL     OW14782   2.216   3.372   3.191
 4817SOL    HW114783   2.195   3.328   3.104
 4817SOL    HW214784   2.313   3.398   3.194
 4818SOL     OW14785   3.449   2.641   3.532
 4818SOL    HW114786   3.357   2.679   3.527
 4818SOL    HW214787   3.509   2.688   3.467
 4819SOL     OW14788   2.875   1.967   3.632
 4819SOL    HW114789   2.881   2.052   3.580
 4819SOL    HW214790   2.907   1.891   3.575
 4820SOL     OW14791   2.366   1.912   3.602
 4820SOL    HW114792   2.324   1.855   3.532
 4820SOL    HW214793   2.300   1.981   3.634
 4821SOL     OW14794   2.435   2.732   2.891
 4821SOL    HW114795   2.479   2.821   2.882
 4821SOL    HW214796   2.372   2.732   2.968
 4822SOL     OW14797   3.222   2.724   2.907
 4822SOL    HW114798   3.147   2.724   2.841
 4822SOL    HW214799   3.259   2.632   2.916
 4823SOL     OW14800   3.071   2.387   2.137
 4823SOL    HW114801   3.084   2.303   2.191
 4823SOL    HW214802   3.042   2.461   2.197
 4824SOL     OW14803   2.169   2.075   3.093
 4824SOL    HW114804   2.146   2.112   3.183
 4824SOL    HW214805   2.139   1.980   3.087
 4825SOL     OW14806   1.899   3.172   3.144
 4825SOL    HW114807   1.952   3.123   3.212
 4825SOL    HW214808   1.921   3.270   3.149
 4826SOL     OW14809   3.590   2.797   3.716
 4826SOL    HW114810   3.544   2.790   3.627
 4826SOL    HW214811   3.528   2.841   3.782
 4827SOL     OW14812   2.169   1.925   2.480
 4827SOL    HW114813   2.158   2.019   2.513
 4827SOL    HW214814   2.164   1.862   2.557
 4828SOL     OW14815   3.484   2.229   2.236
 4828SOL    HW114816   3.486   2.153   2.300
 4828SOL    HW214817   3.436   2.306   2.276
 4829SOL     OW14818   2.885   2.628   2.828
 4829SOL    HW114819   2.900   2.649   2.924
 4829SOL    HW214820   2.855   2.533   2.819
 4830SOL     OW14821   2.842   3.435   3.562
 4830SOL    HW114822   2.822   3.479   3.474
 4830SOL    HW214823   2.881   3.344   3.546
 4831SOL     OW14824   3.721   3.380   3.467
 4831SOL    HW114825   3.735   3.407   3.372
 4831SOL    HW214826   3.804   3.402   3.520
 4832SOL     OW14827   2.212   2.760   3.666
 4832SOL    HW114828   2.288   2.804   3.714
 4832SOL    HW214829   2.247   2.713   3.584
 4833SOL     OW14830   3.402   2.136   1.987
 4833SOL    HW114831   3.341   2.061   2.010
 4833SOL    HW214832   3.424   2.188   2.070
 4834SOL     OW14833   3.165   2.700   1.904
 4834SOL    HW114834   3.199   2.607   1.919
 4834SOL    HW214835   3.183   2.727   1.809
 4835SOL     OW14836   2.930   3.195   2.711
 4835SOL    HW114837   2.937   3.111   2.656
 4835SOL    HW214838   2.992   3.264   2.675
 4836SOL     OW14839   2.181   2.672   2.811
 4836SOL    HW114840   2.274   2.708   2.816
 4836SOL    HW214841   2.175   2.587   2.863
 4837SOL     OW14842   2.201   2.371   2.868
 4837SOL    HW114843   2.149   2.288   2.851
 4837SOL    HW214844   2.278   2.376   2.804
 4838SOL     OW14845   3.000   2.242   3.540
 4838SOL    HW114846   2.955   2.305   3.604
 4838SOL    HW214847   3.093   2.273   3.523
 4839SOL     OW14848   3.022   2.069   3.339
 4839SOL    HW114849   3.022   2.133   3.416
 4839SOL    HW214850   3.050   2.117   3.256
 4840SOL     OW14851   1.870   3.188   2.062
 4840SOL    HW114852   1.777   3.209   2.031
 4840SOL    HW214853   1.880   3.089   2.075
 4841SOL     OW14854   1.950   3.663   2.789
 4841SOL    HW114855   1.908   3.577   2.762
 4841SOL    HW214856   2.044   3.666   2.755
 4842SOL     OW14857   2.366   3.430   2.772
 4842SOL    HW114858   2.432   3.504   2.781
 4842SOL    HW214859   2.410   3.351   2.730
 4843SOL     OW14860   2.864   2.658   3.100
 4843SOL    HW114861   2.905   2.626   3.186
 4843SOL    HW214862   2.768   2.631   3.097
 4844SOL     OW14863   1.902   2.406   2.976
 4844SOL    HW114864   1.987   2.373   2.935
 4844SOL    HW214865   1.915   2.421   3.074
 4845SOL     OW14866   2.051   2.382   3.584
 4845SOL    HW114867   2.110   2.342   3.514
 4845SOL    HW214868   1.993   2.453   3.543
 4846SOL     OW14869   3.231   2.812   3.522
 4846SOL    HW114870   3.270   2.901   3.542
 4846SOL    HW214871   3.241   2.792   3.425
 4847SOL     OW14872   3.519   2.466   3.068
 4847SOL    HW114873   3.481   2.397   3.130
 4847SOL    HW214874   3.601   2.430   3.024
 4848SOL     OW14875   2.114   3.426   3.606
 4848SOL    HW114876   2.084   3.483   3.682
 4848SOL    HW214877   2.107   3.329   3.632
 4849SOL     OW14878   2.792   3.540   3.327
 4849SOL    HW114879   2.768   3.522   3.232
 4849SOL    HW214880   2.822   3.634   3.337
 4850SOL     OW14881   2.021   2.999   3.328
 4850SOL    HW114882   2.043   2.938   3.404
 4850SOL    HW214883   2.031   2.950   3.242
 4851SOL     OW14884   3.209   2.921   3.096
 4851SOL    HW114885   3.233   2.858   3.022
 4851SOL    HW214886   3.119   2.961   3.078
 4852SOL     OW14887   3.164   2.717   2.171
 4852SOL    HW114888   3.078   2.686   2.213
 4852SOL    HW214889   3.160   2.703   2.072
 4853SOL     OW14890   3.621   3.609   3.016
 4853SOL    HW114891   3.682   3.639   2.943
 4853SOL    HW214892   3.583   3.520   2.994
 4854SOL     OW14893   3.114   3.593   2.990
 4854SOL    HW114894   3.198   3.598   2.936
 4854SOL    HW214895   3.091   3.497   3.008
 4855SOL     OW14896   1.945   3.120   2.884
 4855SOL    HW114897   1.940   3.119   2.984
 4855SOL    HW214898   1.862   3.079   2.846
 4856SOL     OW14899   2.550   3.524   3.578
 4856SOL    HW114900   2.494   3.605   3.587
 4856SOL    HW214901   2.602   3.528   3.492
 4857SOL     OW14902   3.588   1.997   2.385
 4857SOL    HW114903   3.661   1.980   2.318
 4857SOL    HW214904   3.557   1.910   2.423
 4858SOL     OW14905   3.250   3.435   2.339
 4858SOL    HW114906   3.317   3.447   2.265
 4858SOL    HW214907   3.210   3.524   2.362
 4859SOL     OW14908   1.992   3.656   3.713
 4859SOL    HW114909   1.951   3.582   3.766
 4859SOL    HW214910   2.056   3.707   3.771
 4860SOL     OW14911   3.142   2.789   2.534
 4860SOL    HW114912   3.202   2.708   2.536
 4860SOL    HW214913   3.182   2.858   2.474
 4861SOL     OW14914   2.692   3.135   3.284
 4861SOL    HW114915   2.687   3.168   3.379
 4861SOL    HW214916   2.606   3.154   3.238
 4862SOL     OW14917   2.534   3.478   2.016
 4862SOL    HW114918   2.543   3.488   1.917
 4862SOL    HW214919   2.494   3.389   2.037
 4863SOL     OW14920   3.512   3.582   3.256
 4863SOL    HW114921   3.565   3.592   3.172
 4863SOL    HW214922   3.485   3.672   3.290
 4864SOL     OW14923   3.703   2.037   2.825
 4864SOL    HW114924   3.742   1.952   2.789
 4864SOL    HW214925   3.605   2.039   2.806
 4865SOL     OW14926   2.125   2.188   2.582
 4865SOL    HW114927   2.046   2.239   2.548
 4865SOL    HW214928   2.116   2.173   2.680
 4866SOL     OW14929   3.056   3.474   1.893
 4866SOL    HW114930   3.062   3.381   1.930
 4866SOL    HW214931   2.997   3.474   1.813
 4867SOL     OW14932   2.684   2.864   3.234
 4867SOL    HW114933   2.724   2.863   3.142
 4867SOL    HW214934   2.694   2.956   3.274
 4868SOL     OW14935   2.778   2.772   2.153
 4868SOL    HW114936   2.841   2.810   2.085
 4868SOL    HW214937   2.818   2.689   2.192
 4869SOL     OW14938   3.366   3.469   1.906
 4869SOL    HW114939   3.274   3.506   1.913
 4869SOL    HW214940   3.404   3.489   1.816
 4870SOL     OW14941   2.234   3.150   3.352
 4870SOL    HW114942   2.221   3.243   3.318
 4870SOL    HW214943   2.150   3.098   3.339
 4871SOL     OW14944   3.476   3.154   3.151
 4871SOL    HW114945   3.536   3.157   3.231
 4871SOL    HW214946   3.401   3.218   3.164
 4872SOL     OW14947   2.901   2.960   2.558
 4872SOL    HW114948   2.831   2.913   2.612
 4872SOL    HW214949   2.960   2.892   2.515
 4873SOL     OW14950   2.876   2.098   2.833
 4873SOL    HW114951   2.868   2.062   2.740
 4873SOL    HW214952   2.874   2.022   2.898
 4874SOL     OW14953   2.452   3.349   2.353
 4874SOL    HW114954   2.494   3.291   2.283
 4874SOL    HW214955   2.408   3.428   2.309
 4875SOL     OW14956   3.571   2.247   3.243
 4875SOL    HW114957   3.644   2.316   3.247
 4875SOL    HW214958   3.599   2.172   3.184
 4876SOL     OW14959   2.117   3.210   2.152
 4876SOL    HW114960   2.021   3.211   2.125
 4876SOL    HW214961   2.129   3.263   2.236
 4877SOL     OW14962   1.967   2.875   3.588
 4877SOL    HW114963   1.890   2.842   3.642
 4877SOL    HW214964   2.052   2.845   3.630
 4878SOL     OW14965   2.534   2.065   3.351
 4878SOL    HW114966   2.624   2.049   3.311
 4878SOL    HW214967   2.542   2.070   3.450
 4879SOL     OW14968   1.937   2.207   1.895
 4879SOL    HW114969   1.845   2.179   1.866
 4879SOL    HW214970   1.968   2.284   1.839
 4880SOL     OW14971   3.302   2.718   3.260
 4880SOL    HW114972   3.245   2.770   3.197
 4880SOL    HW214973   3.398   2.730   3.236
 4881SOL     OW14974   1.934   2.028   2.180
 4881SOL    HW114975   1.917   2.111   2.126
 4881SOL    HW214976   2.024   1.991   2.158
 4882SOL     OW14977   3.045   3.197   1.981
 4882SOL    HW114978   2.946   3.186   1.983
 4882SOL    HW214979   3.079   3.212   2.074
 4883SOL     OW14980   3.355   3.629   2.821
 4883SOL    HW114981   3.388   3.693   2.752
 4883SOL    HW214982   3.421   3.623   2.896
 4884SOL     OW14983   3.312   3.082   3.495
 4884SOL    HW114984   3.303   3.072   3.594
 4884SOL    HW214985   3.408   3.075   3.469
 4885SOL     OW14986   2.252   3.603   3.422
 4885SOL    HW114987   2.161   3.644   3.420
 4885SOL    HW214988   2.245   3.509   3.454
 4886SOL     OW14989   3.536   2.745   3.116
 4886SOL    HW114990   3.509   2.656   3.079
 4886SOL    HW214991   3.537   2.813   3.043
 4887SOL     OW14992   3.087   2.187   2.311
 4887SOL    HW114993   3.152   2.113   2.300
 4887SOL    HW214994   3.107   2.237   2.395
 4888SOL     OW14995   3.639   2.204   3.504
 4888SOL    HW114996   3.622   2.235   3.410
 4888SOL    HW214997   3.555   2.167   3.542
 4889SOL     OW14998   3.592   2.796   3.379
 4889SOL    HW114999   3.630   2.887   3.394
 4889SOL    HW215000   3.584   2.779   3.280
 4890SOL     OW15001   2.721   3.236   1.878
 4890SOL    HW115002   2.675   3.251   1.966
 4890SOL    HW215003   2.765   3.321   1.848
 4891SOL     OW15004   2.523   3.652   2.815
 4891SOL    HW115005   2.477   3.740   2.802
 4891SOL    HW215006   2.622   3.664   2.808
 4892SOL     OW15007   2.721   2.818   2.723
 4892SOL    HW115008   2.775   2.749   2.771
 4892SOL    HW215009   2.689   2.887   2.789
 4893SOL     OW15010   2.945   2.846   1.949
 4893SOL    HW115011   2.922   2.899   1.867
 4893SOL    HW215012   3.026   2.790   1.930
 4894SOL     OW15013   3.723   3.431   2.713
 4894SOL    HW115014   3.652   3.419   2.643
 4894SOL    HW215015   3.724   3.352   2.773
 4895SOL     OW15016   2.083   3.176   3.706
 4895SOL    HW115017   2.018   3.103   3.685
 4895SOL    HW215018   2.087   3.190   3.804
 4896SOL     OW15019   1.941   3.102   2.515
 4896SOL    HW115020   1.940   3.055   2.603
 4896SOL    HW215021   2.023   3.074   2.464
 4897SOL     OW15022   2.534   3.253   3.486
 4897SOL    HW115023   2.456   3.203   3.524
 4897SOL    HW215024   2.531   3.348   3.517
 4898SOL     OW15025   3.686   2.054   3.089
 4898SOL    HW115026   3.682   1.964   3.133
 4898SOL    HW215027   3.689   2.043   2.990
 4899SOL     OW15028   2.290   2.286   2.382
 4899SOL    HW115029   2.320   2.214   2.320
 4899SOL    HW215030   2.251   2.246   2.465
 4900SOL     OW15031   3.567   3.349   2.966
 4900SOL    HW115032   3.474   3.324   2.939
 4900SOL    HW215033   3.593   3.299   3.048
 4901SOL     OW15034   2.179   2.409   3.142
 4901SOL    HW115035   2.217   2.350   3.214
 4901SOL    HW215036   2.219   2.383   3.054
 4902SOL     OW15037   2.674   3.448   2.549
 4902SOL    HW115038   2.706   3.458   2.455
 4902SOL    HW215039   2.595   3.386   2.551
 4903SOL     OW15040   3.286   2.076   2.974
 4903SOL    HW115041   3.338   2.011   3.029
 4903SOL    HW215042   3.237   2.139   3.035
 4904SOL     OW15043   2.863   1.896   3.016
 4904SOL    HW115044   2.800   1.824   2.985
 4904SOL    HW215045   2.956   1.860   3.016
 4905SOL     OW15046   2.632   3.192   2.163
 4905SOL    HW115047   2.586   3.105   2.180
 4905SOL    HW215048   2.723   3.189   2.204
 4906SOL     OW15049   2.480   3.429   3.146
 4906SOL    HW115050   2.475   3.511   3.203
 4906SOL    HW215051   2.569   3.426   3.101
 4907SOL     OW15052   3.214   1.914   2.030
 4907SOL    HW115053   3.249   1.873   1.946
 4907SOL    HW215054   3.124   1.876   2.050
 4908SOL     OW15055   3.162   2.315   2.553
 4908SOL    HW115056   3.103   2.395   2.557
 4908SOL    HW215057   3.177   2.280   2.646
 4909SOL     OW15058   3.455   2.083   2.744
 4909SOL    HW115059   3.371   2.082   2.798
 4909SOL    HW215060   3.457   2.166   2.688
 4910SOL     OW15061   1.901   2.939   2.162
 4910SOL    HW115062   2.000   2.928   2.153
 4910SOL    HW215063   1.861   2.853   2.194
 4911SOL     OW15064   2.737   3.508   2.199
 4911SOL    HW115065   2.660   3.473   2.145
 4911SOL    HW215066   2.705   3.579   2.261
 4912SOL     OW15067   2.092   2.490   3.837
 4912SOL    HW115068   1.999   2.488   3.874
 4912SOL    HW215069   2.093   2.451   3.745
 4913SOL     OW15070   2.087   2.137   4.720
 4913SOL    HW115071   2.122   2.120   4.812
 4913SOL    HW215072   1.999   2.092   4.708
 4914SOL     OW15073   1.881   2.230   4.371
 4914SOL    HW115074   1.799   2.273   4.410
 4914SOL    HW215075   1.853   2.157   4.308
 4915SOL     OW15076   2.431   3.137   4.889
 4915SOL    HW115077   2.338   3.130   4.852
 4915SOL    HW215078   2.442   3.226   4.933
 4916SOL     OW15079   3.417   3.373   4.427
 4916SOL    HW115080   3.360   3.357   4.508
 4916SOL    HW215081   3.358   3.383   4.347
 4917SOL     OW15082   2.997   2.565   4.441
 4917SOL    HW115083   3.054   2.643   4.416
 4917SOL    HW215084   2.937   2.591   4.517
 4918SOL     OW15085   3.617   2.469   3.955
 4918SOL    HW115086   3.605   2.456   3.856
 4918SOL    HW215087   3.587   2.388   4.004
 4919SOL     OW15088   2.630   3.006   4.747
 4919SOL    HW115089   2.552   3.023   4.807
 4919SOL    HW215090   2.664   3.093   4.711
 4920SOL     OW15091   2.547   2.874   4.389
 4920SOL    HW115092   2.616   2.858   4.459
 4920SOL    HW215093   2.474   2.931   4.427
 4921SOL     OW15094   2.197   3.297   4.785
 4921SOL    HW115095   2.119   3.266   4.732
 4921SOL    HW215096   2.255   3.355   4.728
 4922SOL     OW15097   3.322   3.367   5.063
 4922SOL    HW115098   3.346   3.461   5.089
 4922SOL    HW215099   3.306   3.313   5.145
 4923SOL     OW15100   3.465   2.309   4.461
 4923SOL    HW115101   3.391   2.355   4.411
 4923SOL    HW215102   3.516   2.377   4.514
 4924SOL     OW15103   2.093   3.575   4.207
 4924SOL    HW115104   2.127   3.652   4.261
 4924SOL    HW215105   2.137   3.575   4.117
 4925SOL     OW15106   2.989   3.203   5.414
 4925SOL    HW115107   3.036   3.203   5.502
 4925SOL    HW215108   2.941   3.116   5.403
 4926SOL     OW15109   2.092   3.296   4.262
 4926SOL    HW115110   2.066   3.392   4.262
 4926SOL    HW215111   2.021   3.242   4.307
 4927SOL     OW15112   2.102   2.953   4.610
 4927SOL    HW115113   2.116   2.869   4.662
 4927SOL    HW215114   2.047   3.017   4.665
 4928SOL     OW15115   2.482   3.648   5.163
 4928SOL    HW115116   2.390   3.631   5.198
 4928SOL    HW215117   2.510   3.740   5.189
 4929SOL     OW15118   2.468   2.826   3.847
 4929SOL    HW115119   2.475   2.910   3.793
 4929SOL    HW215120   2.514   2.839   3.935
 4930SOL     OW15121   3.456   1.976   5.204
 4930SOL    HW115122   3.438   2.043   5.132
 4930SOL    HW215123   3.453   2.022   5.293
 4931SOL     OW15124   1.984   2.505   4.287
 4931SOL    HW115125   1.939   2.417   4.304
 4931SOL    HW215126   1.983   2.559   4.371
 4932SOL     OW15127   3.704   3.629   4.083
 4932SOL    HW115128   3.758   3.600   4.163
 4932SOL    HW215129   3.734   3.719   4.054
 4933SOL     OW15130   1.889   3.458   3.841
 4933SOL    HW115131   1.870   3.362   3.862
 4933SOL    HW215132   1.856   3.516   3.916
 4934SOL     OW15133   3.551   2.784   4.336
 4934SOL    HW115134   3.646   2.755   4.344
 4934SOL    HW215135   3.543   2.849   4.261
 4935SOL     OW15136   3.503   2.970   4.156
 4935SOL    HW115137   3.589   2.972   4.104
 4935SOL    HW215138   3.517   3.017   4.244
 4936SOL     OW15139   2.475   3.227   4.450
 4936SOL    HW115140   2.426   3.140   4.459
 4936SOL    HW215141   2.452   3.270   4.363
 4937SOL     OW15142   3.155   3.090   5.147
 4937SOL    HW115143   3.192   3.017   5.089
 4937SOL    HW215144   3.207   3.095   5.232
 4938SOL     OW15145   2.671   1.866   4.226
 4938SOL    HW115146   2.711   1.957   4.217
 4938SOL    HW215147   2.571   1.874   4.232
 4939SOL     OW15148   3.387   2.861   3.914
 4939SOL    HW115149   3.324   2.785   3.927
 4939SOL    HW215150   3.435   2.879   4.000
 4940SOL     OW15151   3.049   3.654   5.340
 4940SOL    HW115152   3.073   3.714   5.264
 4940SOL    HW215153   3.056   3.559   5.310
 4941SOL     OW15154   3.328   3.279   4.677
 4941SOL    HW115155   3.269   3.285   4.757
 4941SOL    HW215156   3.313   3.191   4.631
 4942SOL     OW15157   3.529   3.576   4.296
 4942SOL    HW115158   3.488   3.553   4.208
 4942SOL    HW215159   3.511   3.502   4.361
 4943SOL     OW15160   3.143   2.207   4.668
 4943SOL    HW115161   3.057   2.157   4.655
 4943SOL    HW215162   3.205   2.153   4.724
 4944SOL     OW15163   3.438   3.524   4.031
 4944SOL    HW115164   3.527   3.570   4.034
 4944SOL    HW215165   3.417   3.500   3.936
 4945SOL     OW15166   2.853   2.272   4.966
 4945SOL    HW115167   2.776   2.306   5.020
 4945SOL    HW215168   2.819   2.221   4.887
 4946SOL     OW15169   2.903   2.563   4.153
 4946SOL    HW115170   2.929   2.559   4.249
 4946SOL    HW215171   2.818   2.512   4.139
 4947SOL     OW15172   1.938   2.673   4.513
 4947SOL    HW115173   2.037   2.661   4.522
 4947SOL    HW215174   1.914   2.768   4.534
 4948SOL     OW15175   1.992   3.683   5.295
 4948SOL    HW115176   1.982   3.668   5.394
 4948SOL    HW215177   1.906   3.719   5.259
 4949SOL     OW15178   2.727   2.210   3.919
 4949SOL    HW115179   2.786   2.273   3.870
 4949SOL    HW215180   2.746   2.116   3.890
 4950SOL     OW15181   3.581   2.447   5.555
 4950SOL    HW115182   3.555   2.536   5.519
 4950SOL    HW215183   3.579   2.379   5.482
 4951SOL     OW15184   3.224   3.006   4.269
 4951SOL    HW115185   3.307   2.977   4.221
 4951SOL    HW215186   3.175   3.073   4.213
 4952SOL     OW15187   2.412   2.058   4.609
 4952SOL    HW115188   2.407   2.053   4.709
 4952SOL    HW215189   2.414   2.154   4.580
 4953SOL     OW15190   2.870   3.318   4.201
 4953SOL    HW115191   2.824   3.390   4.149
 4953SOL    HW215192   2.866   3.338   4.299
 4954SOL     OW15193   2.213   3.663   4.577
 4954SOL    HW115194   2.263   3.577   4.583
 4954SOL    HW215195   2.278   3.740   4.574
 4955SOL     OW15196   3.657   2.928   4.597
 4955SOL    HW115197   3.595   2.913   4.521
 4955SOL    HW215198   3.605   2.939   4.682
 4956SOL     OW15199   3.089   3.412   5.230
 4956SOL    HW115200   3.095   3.335   5.294
 4956SOL    HW215201   3.037   3.386   5.150
 4957SOL     OW15202   2.183   2.805   3.966
 4957SOL    HW115203   2.265   2.844   3.924
 4957SOL    HW215204   2.156   2.723   3.917
 4958SOL     OW15205   3.320   2.597   4.452
 4958SOL    HW115206   3.315   2.532   4.527
 4958SOL    HW215207   3.400   2.656   4.465
 4959SOL     OW15208   2.973   3.638   3.961
 4959SOL    HW115209   2.913   3.576   4.011
 4959SOL    HW215210   3.004   3.594   3.876
 4960SOL     OW15211   3.494   3.239   3.805
 4960SOL    HW115212   3.462   3.333   3.795
 4960SOL    HW215213   3.418   3.176   3.793
 4961SOL     OW15214   2.326   3.605   4.047
 4961SOL    HW115215   2.359   3.644   4.133
 4961SOL    HW215216   2.402   3.598   3.982
 4962SOL     OW15217   3.262   1.969   4.150
 4962SOL    HW115218   3.238   1.932   4.060
 4962SOL    HW215219   3.361   1.985   4.154
 4963SOL     OW15220   2.111   3.647   4.965
 4963SOL    HW115221   2.168   3.582   5.015
 4963SOL    HW215222   2.095   3.614   4.872
 4964SOL     OW15223   2.802   3.560   4.628
 4964SOL    HW115224   2.882   3.503   4.649
 4964SOL    HW215225   2.753   3.520   4.551
 4965SOL     OW15226   3.409   2.084   5.453
 4965SOL    HW115227   3.404   2.121   5.545
 4965SOL    HW215228   3.337   2.015   5.441
 4966SOL     OW15229   2.476   1.984   3.841
 4966SOL    HW115230   2.574   1.962   3.848
 4966SOL    HW215231   2.445   1.967   3.748
 4967SOL     OW15232   2.750   3.376   4.919
 4967SOL    HW115233   2.727   3.351   4.825
 4967SOL    HW215234   2.811   3.307   4.958
 4968SOL     OW15235   2.665   3.264   4.648
 4968SOL    HW115236   2.755   3.278   4.606
 4968SOL    HW215237   2.594   3.266   4.577
 4969SOL     OW15238   2.784   2.365   4.623
 4969SOL    HW115239   2.759   2.356   4.527
 4969SOL    HW215240   2.832   2.283   4.654
 4970SOL     OW15241   2.401   1.926   4.236
 4970SOL    HW115242   2.320   1.927   4.294
 4970SOL    HW215243   2.404   2.009   4.181
 4971SOL     OW15244   3.296   3.050   3.765
 4971SOL    HW115245   3.328   2.974   3.822
 4971SOL    HW215246   3.204   3.077   3.795
 4972SOL     OW15247   2.159   1.897   3.895
 4972SOL    HW115248   2.208   1.981   3.874
 4972SOL    HW215249   2.221   1.832   3.940
 4973SOL     OW15250   2.797   2.098   4.204
 4973SOL    HW115251   2.749   2.139   4.126
 4973SOL    HW215252   2.896   2.096   4.185
 4974SOL     OW15253   3.089   3.432   4.517
 4974SOL    HW115254   3.110   3.506   4.452
 4974SOL    HW215255   3.157   3.432   4.590
 4975SOL     OW15256   2.321   3.014   4.465
 4975SOL    HW115257   2.250   2.987   4.530
 4975SOL    HW215258   2.295   2.986   4.372
 4976SOL     OW15259   3.133   3.659   4.315
 4976SOL    HW115260   3.177   3.723   4.251
 4976SOL    HW215261   3.083   3.711   4.385
 4977SOL     OW15262   2.894   2.411   3.740
 4977SOL    HW115263   2.853   2.493   3.701
 4977SOL    HW215264   2.958   2.437   3.813
 4978SOL     OW15265   2.423   2.084   4.871
 4978SOL    HW115266   2.461   2.000   4.908
 4978SOL    HW215267   2.335   2.103   4.915
 4979SOL     OW15268   2.728   2.316   4.366
 4979SOL    HW115269   2.696   2.388   4.304
 4979SOL    HW215270   2.752   2.235   4.313
 4980SOL     OW15271   2.879   1.901   4.477
 4980SOL    HW115272   2.807   1.906   4.408
 4980SOL    HW215273   2.855   1.832   4.546
 4981SOL     OW15274   3.291   3.035   4.591
 4981SOL    HW115275   3.236   2.951   4.584
 4981SOL    HW215276   3.317   3.064   4.499
 4982SOL     OW15277   3.328   2.452   4.716
 4982SOL    HW115278   3.298   2.357   4.723
 4982SOL    HW215279   3.401   2.468   4.782
 4983SOL     OW15280   3.719   2.695   4.101
 4983SOL    HW115281   3.761   2.631   4.165
 4983SOL    HW215282   3.681   2.644   4.023
 4984SOL     OW15283   2.350   3.247   3.898
 4984SOL    HW115284   2.263   3.232   3.945
 4984SOL    HW215285   2.333   3.273   3.803
 4985SOL     OW15286   3.526   3.142   4.381
 4985SOL    HW115287   3.625   3.150   4.395
 4985SOL    HW215288   3.481   3.226   4.412
 4986SOL     OW15289   3.252   2.437   3.802
 4986SOL    HW115290   3.198   2.416   3.883
 4986SOL    HW215291   3.343   2.396   3.811
 4987SOL     OW15292   2.389   2.118   4.052
 4987SOL    HW115293   2.416   2.059   3.977
 4987SOL    HW215294   2.389   2.213   4.021
 4988SOL     OW15295   3.616   3.085   5.312
 4988SOL    HW115296   3.707   3.046   5.299
 4988SOL    HW215297   3.624   3.181   5.336
 4989SOL     OW15298   2.926   3.209   5.064
 4989SOL    HW115299   2.846   3.186   5.119
 4989SOL    HW215300   3.009   3.183   5.113
 4990SOL     OW15301   3.454   3.491   5.349
 4990SOL    HW115302   3.481   3.525   5.259
 4990SOL    HW215303   3.533   3.453   5.395
 4991SOL     OW15304   2.973   3.057   4.824
 4991SOL    HW115305   2.933   3.101   4.905
 4991SOL    HW215306   2.932   3.094   4.741
 4992SOL     OW15307   3.500   2.961   4.803
 4992SOL    HW115308   3.505   3.042   4.862
 4992SOL    HW215309   3.414   2.963   4.752
 4993SOL     OW15310   2.567   2.912   4.092
 4993SOL    HW115311   2.553   2.919   4.191
 4993SOL    HW215312   2.651   2.861   4.074
 4994SOL     OW15313   2.272   2.675   4.975
 4994SOL    HW115314   2.358   2.687   5.025
 4994SOL    HW215315   2.230   2.588   5.002
 4995SOL     OW15316   3.136   2.248   4.986
 4995SOL    HW115317   3.157   2.322   5.050
 4995SOL    HW215318   3.047   2.265   4.943
 4996SOL     OW15319   1.926   3.426   5.055
 4996SOL    HW115320   1.880   3.508   5.021
 4996SOL    HW215321   2.024   3.445   5.064
 4997SOL     OW15322   2.229   2.962   4.225
 4997SOL    HW115323   2.222   3.045   4.169
 4997SOL    HW215324   2.233   2.882   4.165
 4998SOL     OW15325   3.114   3.210   4.112
 4998SOL    HW115326   3.164   3.287   4.152
 4998SOL    HW215327   3.019   3.212   4.144
 4999SOL     OW15328   3.134   3.307   4.866
 4999SOL    HW115329   3.181   3.320   4.953
 4999SOL    HW215330   3.068   3.233   4.875
 5000SOL     OW15331   3.444   2.501   4.196
 5000SOL    HW115332   3.413   2.562   4.269
 5000SOL    HW215333   3.494   2.553   4.127
 5001SOL     OW15334   2.216   3.372   5.053
 5001SOL    HW115335   2.195   3.328   4.966
 5001SOL    HW215336   2.313   3.398   5.056
 5002SOL     OW15337   3.449   2.641   5.394
 5002SOL    HW115338   3.357   2.679   5.389
 5002SOL    HW215339   3.509   2.688   5.329
 5003SOL     OW15340   2.435   2.732   4.753
 5003SOL    HW115341   2.479   2.821   4.744
 5003SOL    HW215342   2.372   2.732   4.830
 5004SOL     OW15343   3.222   2.724   4.769
 5004SOL    HW115344   3.147   2.724   4.703
 5004SOL    HW215345   3.259   2.632   4.778
 5005SOL     OW15346   3.071   2.387   3.999
 5005SOL    HW115347   3.084   2.303   4.053
 5005SOL    HW215348   3.042   2.461   4.059
 5006SOL     OW15349   1.899   3.172   5.006
 5006SOL    HW115350   1.952   3.123   5.074
 5006SOL    HW215351   1.921   3.270   5.011
 5007SOL     OW15352   3.590   2.797   5.578
 5007SOL    HW115353   3.544   2.790   5.489
 5007SOL    HW215354   3.528   2.841   5.644
 5008SOL     OW15355   2.169   1.925   4.342
 5008SOL    HW115356   2.158   2.019   4.375
 5008SOL    HW215357   2.164   1.862   4.419
 5009SOL     OW15358   3.484   2.229   4.098
 5009SOL    HW115359   3.486   2.153   4.162
 5009SOL    HW215360   3.436   2.306   4.138
 5010SOL     OW15361   2.885   2.628   4.690
 5010SOL    HW115362   2.900   2.649   4.786
 5010SOL    HW215363   2.855   2.533   4.681
 5011SOL     OW15364   2.842   3.435   5.424
 5011SOL    HW115365   2.822   3.479   5.336
 5011SOL    HW215366   2.881   3.344   5.408
 5012SOL     OW15367   3.721   3.380   5.329
 5012SOL    HW115368   3.735   3.407   5.234
 5012SOL    HW215369   3.804   3.402   5.382
 5013SOL     OW15370   3.402   2.136   3.849
 5013SOL    HW115371   3.341   2.061   3.872
 5013SOL    HW215372   3.424   2.188   3.932
 5014SOL     OW15373   3.165   2.700   3.766
 5014SOL    HW115374   3.199   2.607   3.781
 5014SOL    HW215375   3.183   2.727   3.671
 5015SOL     OW15376   2.930   3.195   4.573
 5015SOL    HW115377   2.937   3.111   4.518
 5015SOL    HW215378   2.992   3.264   4.537
 5016SOL     OW15379   2.181   2.672   4.673
 5016SOL    HW115380   2.274   2.708   4.678
 5016SOL    HW215381   2.175   2.587   4.725
 5017SOL     OW15382   2.201   2.371   4.730
 5017SOL    HW115383   2.149   2.288   4.713
 5017SOL    HW215384   2.278   2.376   4.666
 5018SOL     OW15385   1.870   3.188   3.924
 5018SOL    HW115386   1.777   3.209   3.893
 5018SOL    HW215387   1.880   3.089   3.937
 5019SOL     OW15388   1.950   3.663   4.651
 5019SOL    HW115389   1.908   3.577   4.624
 5019SOL    HW215390   2.044   3.666   4.617
 5020SOL     OW15391   2.366   3.430   4.634
 5020SOL    HW115392   2.432   3.504   4.643
 5020SOL    HW215393   2.410   3.351   4.592
 5021SOL     OW15394   2.864   2.658   4.962
 5021SOL    HW115395   2.905   2.626   5.048
 5021SOL    HW215396   2.768   2.631   4.959
 5022SOL     OW15397   1.902   2.406   4.838
 5022SOL    HW115398   1.987   2.373   4.797
 5022SOL    HW215399   1.915   2.421   4.936
 5023SOL     OW15400   3.231   2.812   5.384
 5023SOL    HW115401   3.270   2.901   5.404
 5023SOL    HW215402   3.241   2.792   5.287
 5024SOL     OW15403   3.519   2.466   4.930
 5024SOL    HW115404   3.481   2.397   4.992
 5024SOL    HW215405   3.601   2.430   4.886
 5025SOL     OW15406   2.114   3.426   5.468
 5025SOL    HW115407   2.084   3.483   5.544
 5025SOL    HW215408   2.107   3.329   5.494
 5026SOL     OW15409   2.792   3.540   5.189
 5026SOL    HW115410   2.768   3.522   5.094
 5026SOL    HW215411   2.822   3.634   5.199
 5027SOL     OW15412   2.021   2.999   5.190
 5027SOL    HW115413   2.043   2.938   5.266
 5027SOL    HW215414   2.031   2.950   5.104
 5028SOL     OW15415   3.209   2.921   4.958
 5028SOL    HW115416   3.233   2.858   4.884
 5028SOL    HW215417   3.119   2.961   4.940
 5029SOL     OW15418   3.164   2.717   4.033
 5029SOL    HW115419   3.078   2.686   4.075
 5029SOL    HW215420   3.160   2.703   3.934
 5030SOL     OW15421   3.621   3.609   4.878
 5030SOL    HW115422   3.682   3.639   4.805
 5030SOL    HW215423   3.583   3.520   4.856
 5031SOL     OW15424   3.114   3.593   4.852
 5031SOL    HW115425   3.198   3.598   4.798
 5031SOL    HW215426   3.091   3.497   4.870
 5032SOL     OW15427   1.945   3.120   4.746
 5032SOL    HW115428   1.940   3.119   4.846
 5032SOL    HW215429   1.862   3.079   4.708
 5033SOL     OW15430   2.550   3.524   5.440
 5033SOL    HW115431   2.494   3.605   5.449
 5033SOL    HW215432   2.602   3.528   5.354
 5034SOL     OW15433   3.588   1.997   4.247
 5034SOL    HW115434   3.661   1.980   4.180
 5034SOL    HW215435   3.557   1.910   4.285
 5035SOL     OW15436   3.250   3.435   4.201
 5035SOL    HW115437   3.317   3.447   4.127
 5035SOL    HW215438   3.210   3.524   4.224
 5036SOL     OW15439   1.992   3.656   5.575
 5036SOL    HW115440   1.951   3.582   5.628
 5036SOL    HW215441   2.056   3.707   5.633
 5037SOL     OW15442   3.142   2.789   4.396
 5037SOL    HW115443   3.202   2.708   4.398
 5037SOL    HW215444   3.182   2.858   4.336
 5038SOL     OW15445   2.534   3.478   3.878
 5038SOL    HW115446   2.543   3.488   3.779
 5038SOL    HW215447   2.494   3.389   3.899
 5039SOL     OW15448   3.512   3.582   5.118
 5039SOL    HW115449   3.565   3.592   5.034
 5039SOL    HW215450   3.485   3.672   5.152
 5040SOL     OW15451   3.703   2.037   4.687
 5040SOL    HW115452   3.742   1.952   4.651
 5040SOL    HW215453   3.605   2.039   4.668
 5041SOL     OW15454   2.125   2.188   4.444
 5041SOL    HW115455   2.046   2.239   4.410
 5041SOL    HW215456   2.116   2.173   4.542
 5042SOL     OW15457   3.056   3.474   3.755
 5042SOL    HW115458   3.062   3.381   3.792
 5042SOL    HW215459   2.997   3.474   3.675
 5043SOL     OW15460   2.778   2.772   4.015
 5043SOL    HW115461   2.841   2.810   3.947
 5043SOL    HW215462   2.818   2.689   4.054
 5044SOL     OW15463   3.366   3.469   3.768
 5044SOL    HW115464   3.274   3.506   3.775
 5044SOL    HW215465   3.404   3.489   3.678
 5045SOL     OW15466   3.476   3.154   5.013
 5045SOL    HW115467   3.536   3.157   5.093
 5045SOL    HW215468   3.401   3.218   5.026
 5046SOL     OW15469   2.901   2.960   4.420
 5046SOL    HW115470   2.831   2.913   4.474
 5046SOL    HW215471   2.960   2.892   4.377
 5047SOL     OW15472   2.876   2.098   4.695
 5047SOL    HW115473   2.868   2.062   4.602
 5047SOL    HW215474   2.874   2.022   4.760
 5048SOL     OW15475   2.452   3.349   4.215
 5048SOL    HW115476   2.494   3.291   4.145
 5048SOL    HW215477   2.408   3.428   4.171
 5049SOL     OW15478   3.571   2.247   5.105
 5049SOL    HW115479   3.644   2.316   5.109
 5049SOL    HW215480   3.599   2.172   5.046
 5050SOL     OW15481   2.117   3.210   4.014
 5050SOL    HW115482   2.021   3.211   3.987
 5050SOL    HW215483   2.129   3.263   4.098
 5051SOL     OW15484   1.937   2.207   3.757
 5051SOL    HW115485   1.845   2.179   3.728
 5051SOL    HW215486   1.968   2.284   3.701
 5052SOL     OW15487   3.302   2.718   5.122
 5052SOL    HW115488   3.245   2.770   5.059
 5052SOL    HW215489   3.398   2.730   5.098
 5053SOL     OW15490   1.934   2.028   4.042
 5053SOL    HW115491   1.917   2.111   3.988
 5053SOL    HW215492   2.024   1.991   4.020
 5054SOL     OW15493   3.045   3.197   3.843
 5054SOL    HW115494   2.946   3.186   3.845
 5054SOL    HW215495   3.079   3.212   3.936
 5055SOL     OW15496   3.355   3.629   4.683
 5055SOL    HW115497   3.388   3.693   4.614
 5055SOL    HW215498   3.421   3.623   4.758
 5056SOL     OW15499   3.312   3.082   5.357
 5056SOL    HW115500   3.303   3.072   5.456
 5056SOL    HW215501   3.408   3.075   5.331
 5057SOL     OW15502   2.252   3.603   5.284
 5057SOL    HW115503   2.161   3.644   5.282
 5057SOL    HW215504   2.245   3.509   5.316
 5058SOL     OW15505   3.536   2.745   4.978
 5058SOL    HW115506   3.509   2.656   4.941
 5058SOL    HW215507   3.537   2.813   4.905
 5059SOL     OW15508   3.087   2.187   4.173
 5059SOL    HW115509   3.152   2.113   4.162
 5059SOL    HW215510   3.107   2.237   4.257
 5060SOL     OW15511   3.639   2.204   5.366
 5060SOL    HW115512   3.622   2.235   5.272
 5060SOL    HW215513   3.555   2.167   5.404
 5061SOL     OW15514   3.592   2.796   5.241
 5061SOL    HW115515   3.630   2.887   5.256
 5061SOL    HW215516   3.584   2.779   5.142
 5062SOL     OW15517   2.721   3.236   3.740
 5062SOL    HW115518   2.675   3.251   3.828
 5062SOL    HW215519   2.765   3.321   3.710
 5063SOL     OW15520   2.523   3.652   4.677
 5063SOL    HW115521   2.477   3.740   4.664
 5063SOL    HW215522   2.622   3.664   4.670
 5064SOL     OW15523   2.721   2.818   4.585
 5064SOL    HW115524   2.775   2.749   4.633
 5064SOL    HW215525   2.689   2.887   4.651
 5065SOL     OW15526   2.945   2.846   3.811
 5065SOL    HW115527   2.922   2.899   3.729
 5065SOL    HW215528   3.026   2.790   3.792
 5066SOL     OW15529   3.723   3.431   4.575
 5066SOL    HW115530   3.652   3.419   4.505
 5066SOL    HW215531   3.724   3.352   4.635
 5067SOL     OW15532   2.083   3.176   5.568
 5067SOL    HW115533   2.018   3.103   5.547
 5067SOL    HW215534   2.087   3.190   5.666
 5068SOL     OW15535   1.941   3.102   4.377
 5068SOL    HW115536   1.940   3.055   4.465
 5068SOL    HW215537   2.023   3.074   4.326
 5069SOL     OW15538   2.534   3.253   5.348
 5069SOL    HW115539   2.456   3.203   5.386
 5069SOL    HW215540   2.531   3.348   5.379
 5070SOL     OW15541   3.686   2.054   4.951
 5070SOL    HW115542   3.682   1.964   4.995
 5070SOL    HW215543   3.689   2.043   4.852
 5071SOL     OW15544   2.290   2.286   4.244
 5071SOL    HW115545   2.320   2.214   4.182
 5071SOL    HW215546   2.251   2.246   4.327
 5072SOL     OW15547   3.567   3.349   4.828
 5072SOL    HW115548   3.474   3.324   4.801
 5072SOL    HW215549   3.593   3.299   4.910
 5073SOL     OW15550   2.179   2.409   5.004
 5073SOL    HW115551   2.217   2.350   5.076
 5073SOL    HW215552   2.219   2.383   4.916
 5074SOL     OW15553   2.674   3.448   4.411
 5074SOL    HW115554   2.706   3.458   4.317
 5074SOL    HW215555   2.595   3.386   4.413
 5075SOL     OW15556   3.286   2.076   4.836
 5075SOL    HW115557   3.338   2.011   4.891
 5075SOL    HW215558   3.237   2.139   4.897
 5076SOL     OW15559   2.863   1.896   4.878
 5076SOL    HW115560   2.800   1.824   4.847
 5076SOL    HW215561   2.956   1.860   4.878
 5077SOL     OW15562   2.632   3.192   4.025
 5077SOL    HW115563   2.586   3.105   4.042
 5077SOL    HW215564   2.723   3.189   4.066
 5078SOL     OW15565   2.480   3.429   5.008
 5078SOL    HW115566   2.475   3.511   5.065
 5078SOL    HW215567   2.569   3.426   4.963
 5079SOL     OW15568   3.214   1.914   3.892
 5079SOL    HW115569   3.249   1.873   3.808
 5079SOL    HW215570   3.124   1.876   3.912
 5080SOL     OW15571   3.162   2.315   4.415
 5080SOL    HW115572   3.103   2.395   4.419
 5080SOL    HW215573   3.177   2.280   4.508
 5081SOL     OW15574   3.455   2.083   4.606
 5081SOL    HW115575   3.371   2.082   4.660
 5081SOL    HW215576   3.457   2.166   4.550
 5082SOL     OW15577   1.901   2.939   4.024
 5082SOL    HW115578   2.000   2.928   4.015
 5082SOL    HW215579   1.861   2.853   4.056
 5083SOL     OW15580   2.737   3.508   4.061
 5083SOL    HW115581   2.660   3.473   4.007
 5083SOL    HW215582   2.705   3.579   4.123
 5084SOL     OW15583   2.087   2.137   6.582
 5084SOL    HW115584   2.122   2.120   6.674
 5084SOL    HW215585   1.999   2.092   6.570
 5085SOL     OW15586   1.881   2.230   6.233
 5085SOL    HW115587   1.799   2.273   6.272
 5085SOL    HW215588   1.853   2.157   6.170
 5086SOL     OW15589   2.431   3.137   6.751
 5086SOL    HW115590   2.338   3.130   6.714
 5086SOL    HW215591   2.442   3.226   6.795
 5087SOL     OW15592   3.417   3.373   6.289
 5087SOL    HW115593   3.360   3.357   6.370
 5087SOL    HW215594   3.358   3.383   6.209
 5088SOL     OW15595   2.997   2.565   6.303
 5088SOL    HW115596   3.054   2.643   6.278
 5088SOL    HW215597   2.937   2.591   6.379
 5089SOL     OW15598   3.617   2.469   5.817
 5089SOL    HW115599   3.605   2.456   5.718
 5089SOL    HW215600   3.587   2.388   5.866
 5090SOL     OW15601   2.630   3.006   6.609
 5090SOL    HW115602   2.552   3.023   6.669
 5090SOL    HW215603   2.664   3.093   6.573
 5091SOL     OW15604   2.712   2.660   7.409
 5091SOL    HW115605   2.708   2.736   7.474
 5091SOL    HW215606   2.734   2.696   7.318
 5092SOL     OW15607   2.547   2.874   6.251
 5092SOL    HW115608   2.616   2.858   6.321
 5092SOL    HW215609   2.474   2.931   6.289
 5093SOL     OW15610   2.548   3.023   7.389
 5093SOL    HW115611   2.608   3.102   7.403
 5093SOL    HW215612   2.462   3.054   7.348
 5094SOL     OW15613   2.197   3.297   6.647
 5094SOL    HW115614   2.119   3.266   6.594
 5094SOL    HW215615   2.255   3.355   6.590
 5095SOL     OW15616   3.322   3.367   6.925
 5095SOL    HW115617   3.346   3.461   6.951
 5095SOL    HW215618   3.306   3.313   7.007
 5096SOL     OW15619   2.300   2.254   7.085
 5096SOL    HW115620   2.382   2.198   7.094
 5096SOL    HW215621   2.219   2.196   7.089
 5097SOL     OW15622   3.465   2.309   6.323
 5097SOL    HW115623   3.391   2.355   6.273
 5097SOL    HW215624   3.516   2.377   6.376
 5098SOL     OW15625   2.093   3.575   6.069
 5098SOL    HW115626   2.127   3.652   6.123
 5098SOL    HW215627   2.137   3.575   5.979
 5099SOL     OW15628   2.989   3.203   7.276
 5099SOL    HW115629   3.036   3.203   7.364
 5099SOL    HW215630   2.941   3.116   7.265
 5100SOL     OW15631   2.092   3.296   6.124
 5100SOL    HW115632   2.066   3.392   6.124
 5100SOL    HW215633   2.021   3.242   6.169
 5101SOL     OW15634   2.102   2.953   6.472
 5101SOL    HW115635   2.116   2.869   6.524
 5101SOL    HW215636   2.047   3.017   6.527
 5102SOL     OW15637   2.482   3.648   7.025
 5102SOL    HW115638   2.390   3.631   7.060
 5102SOL    HW215639   2.510   3.740   7.051
 5103SOL     OW15640   3.456   1.976   7.066
 5103SOL    HW115641   3.438   2.043   6.994
 5103SOL    HW215642   3.453   2.022   7.155
 5104SOL     OW15643   1.984   2.505   6.149
 5104SOL    HW115644   1.939   2.417   6.166
 5104SOL    HW215645   1.983   2.559   6.233
 5105SOL     OW15646   3.704   3.629   5.945
 5105SOL    HW115647   3.758   3.600   6.025
 5105SOL    HW215648   3.734   3.719   5.916
 5106SOL     OW15649   1.889   3.458   5.703
 5106SOL    HW115650   1.870   3.362   5.724
 5106SOL    HW215651   1.856   3.516   5.778
 5107SOL     OW15652   3.551   2.784   6.198
 5107SOL    HW115653   3.646   2.755   6.206
 5107SOL    HW215654   3.543   2.849   6.123
 5108SOL     OW15655   3.503   2.970   6.018
 5108SOL    HW115656   3.589   2.972   5.966
 5108SOL    HW215657   3.517   3.017   6.106
 5109SOL     OW15658   1.975   2.599   7.183
 5109SOL    HW115659   2.063   2.586   7.228
 5109SOL    HW215660   1.962   2.696   7.161
 5110SOL     OW15661   2.475   3.227   6.312
 5110SOL    HW115662   2.426   3.140   6.321
 5110SOL    HW215663   2.452   3.270   6.225
 5111SOL     OW15664   3.155   3.090   7.009
 5111SOL    HW115665   3.192   3.017   6.951
 5111SOL    HW215666   3.207   3.095   7.094
 5112SOL     OW15667   2.671   1.866   6.088
 5112SOL    HW115668   2.711   1.957   6.079
 5112SOL    HW215669   2.571   1.874   6.094
 5113SOL     OW15670   2.059   2.838   6.850
 5113SOL    HW115671   2.148   2.793   6.836
 5113SOL    HW215672   1.986   2.773   6.831
 5114SOL     OW15673   3.387   2.861   5.776
 5114SOL    HW115674   3.324   2.785   5.789
 5114SOL    HW215675   3.435   2.879   5.862
 5115SOL     OW15676   3.049   3.654   7.202
 5115SOL    HW115677   3.073   3.714   7.126
 5115SOL    HW215678   3.056   3.559   7.172
 5116SOL     OW15679   2.179   2.113   7.387
 5116SOL    HW115680   2.250   2.184   7.393
 5116SOL    HW215681   2.091   2.152   7.415
 5117SOL     OW15682   3.328   3.279   6.539
 5117SOL    HW115683   3.269   3.285   6.619
 5117SOL    HW215684   3.313   3.191   6.493
 5118SOL     OW15685   3.529   3.576   6.158
 5118SOL    HW115686   3.488   3.553   6.070
 5118SOL    HW215687   3.511   3.502   6.223
 5119SOL     OW15688   3.143   2.207   6.530
 5119SOL    HW115689   3.057   2.157   6.517
 5119SOL    HW215690   3.205   2.153   6.586
 5120SOL     OW15691   3.438   3.524   5.893
 5120SOL    HW115692   3.527   3.570   5.896
 5120SOL    HW215693   3.417   3.500   5.798
 5121SOL     OW15694   3.256   2.331   7.260
 5121SOL    HW115695   3.236   2.374   7.348
 5121SOL    HW215696   3.334   2.269   7.269
 5122SOL     OW15697   2.835   2.752   7.158
 5122SOL    HW115698   2.881   2.668   7.129
 5122SOL    HW215699   2.779   2.786   7.083
 5123SOL     OW15700   2.853   2.272   6.828
 5123SOL    HW115701   2.776   2.306   6.882
 5123SOL    HW215702   2.819   2.221   6.749
 5124SOL     OW15703   2.903   2.563   6.015
 5124SOL    HW115704   2.929   2.559   6.111
 5124SOL    HW215705   2.818   2.512   6.001
 5125SOL     OW15706   1.938   2.673   6.375
 5125SOL    HW115707   2.037   2.661   6.384
 5125SOL    HW215708   1.914   2.768   6.396
 5126SOL     OW15709   1.992   3.683   7.157
 5126SOL    HW115710   1.982   3.668   7.256
 5126SOL    HW215711   1.906   3.719   7.121
 5127SOL     OW15712   3.581   2.447   7.417
 5127SOL    HW115713   3.555   2.536   7.381
 5127SOL    HW215714   3.579   2.379   7.344
 5128SOL     OW15715   3.224   3.006   6.131
 5128SOL    HW115716   3.307   2.977   6.083
 5128SOL    HW215717   3.175   3.073   6.075
 5129SOL     OW15718   2.412   2.058   6.471
 5129SOL    HW115719   2.407   2.053   6.571
 5129SOL    HW215720   2.414   2.154   6.442
 5130SOL     OW15721   2.870   3.318   6.063
 5130SOL    HW115722   2.824   3.390   6.011
 5130SOL    HW215723   2.866   3.338   6.161
 5131SOL     OW15724   2.213   3.663   6.439
 5131SOL    HW115725   2.263   3.577   6.445
 5131SOL    HW215726   2.278   3.740   6.436
 5132SOL     OW15727   3.657   2.928   6.459
 5132SOL    HW115728   3.595   2.913   6.383
 5132SOL    HW215729   3.605   2.939   6.544
 5133SOL     OW15730   3.089   3.412   7.092
 5133SOL    HW115731   3.095   3.335   7.156
 5133SOL    HW215732   3.037   3.386   7.012
 5134SOL     OW15733   3.320   2.597   6.314
 5134SOL    HW115734   3.315   2.532   6.389
 5134SOL    HW215735   3.400   2.656   6.327
 5135SOL     OW15736   2.323   3.128   7.313
 5135SOL    HW115737   2.273   3.129   7.227
 5135SOL    HW215738   2.260   3.110   7.389
 5136SOL     OW15739   2.973   3.638   5.823
 5136SOL    HW115740   2.913   3.576   5.873
 5136SOL    HW215741   3.004   3.594   5.738
 5137SOL     OW15742   2.064   2.147   7.084
 5137SOL    HW115743   1.984   2.207   7.071
 5137SOL    HW215744   2.054   2.098   7.170
 5138SOL     OW15745   3.494   3.239   5.667
 5138SOL    HW115746   3.462   3.333   5.657
 5138SOL    HW215747   3.418   3.176   5.655
 5139SOL     OW15748   2.326   3.605   5.909
 5139SOL    HW115749   2.359   3.644   5.995
 5139SOL    HW215750   2.402   3.598   5.844
 5140SOL     OW15751   3.262   1.969   6.012
 5140SOL    HW115752   3.238   1.932   5.922
 5140SOL    HW215753   3.361   1.985   6.016
 5141SOL     OW15754   2.111   3.647   6.827
 5141SOL    HW115755   2.168   3.582   6.877
 5141SOL    HW215756   2.095   3.614   6.734
 5142SOL     OW15757   2.802   3.560   6.490
 5142SOL    HW115758   2.882   3.503   6.511
 5142SOL    HW215759   2.753   3.520   6.413
 5143SOL     OW15760   3.409   2.084   7.315
 5143SOL    HW115761   3.404   2.121   7.407
 5143SOL    HW215762   3.337   2.015   7.303
 5144SOL     OW15763   2.643   2.126   7.335
 5144SOL    HW115764   2.710   2.065   7.378
 5144SOL    HW215765   2.570   2.145   7.400
 5145SOL     OW15766   2.750   3.376   6.781
 5145SOL    HW115767   2.727   3.351   6.687
 5145SOL    HW215768   2.811   3.307   6.820
 5146SOL     OW15769   3.213   2.452   7.019
 5146SOL    HW115770   3.241   2.409   7.104
 5146SOL    HW215771   3.238   2.548   7.020
 5147SOL     OW15772   2.665   3.264   6.510
 5147SOL    HW115773   2.755   3.278   6.468
 5147SOL    HW215774   2.594   3.266   6.439
 5148SOL     OW15775   2.784   2.365   6.485
 5148SOL    HW115776   2.759   2.356   6.389
 5148SOL    HW215777   2.832   2.283   6.516
 5149SOL     OW15778   2.401   1.926   6.098
 5149SOL    HW115779   2.320   1.927   6.156
 5149SOL    HW215780   2.404   2.009   6.043
 5150SOL     OW15781   3.296   3.050   5.627
 5150SOL    HW115782   3.328   2.974   5.684
 5150SOL    HW215783   3.204   3.077   5.657
 5151SOL     OW15784   2.159   1.897   5.757
 5151SOL    HW115785   2.208   1.981   5.736
 5151SOL    HW215786   2.221   1.832   5.802
 5152SOL     OW15787   2.797   2.098   6.066
 5152SOL    HW115788   2.749   2.139   5.988
 5152SOL    HW215789   2.896   2.096   6.047
 5153SOL     OW15790   2.938   2.545   7.050
 5153SOL    HW115791   2.858   2.484   7.053
 5153SOL    HW215792   3.019   2.492   7.026
 5154SOL     OW15793   3.089   3.432   6.379
 5154SOL    HW115794   3.110   3.506   6.314
 5154SOL    HW215795   3.157   3.432   6.452
 5155SOL     OW15796   2.321   3.014   6.327
 5155SOL    HW115797   2.250   2.987   6.392
 5155SOL    HW215798   2.295   2.986   6.234
 5156SOL     OW15799   3.133   3.659   6.177
 5156SOL    HW115800   3.177   3.723   6.113
 5156SOL    HW215801   3.083   3.711   6.247
 5157SOL     OW15802   1.940   2.418   6.972
 5157SOL    HW115803   2.032   2.417   6.931
 5157SOL    HW215804   1.934   2.492   7.039
 5158SOL     OW15805   2.423   2.084   6.733
 5158SOL    HW115806   2.461   2.000   6.770
 5158SOL    HW215807   2.335   2.103   6.777
 5159SOL     OW15808   2.728   2.316   6.228
 5159SOL    HW115809   2.696   2.388   6.166
 5159SOL    HW215810   2.752   2.235   6.175
 5160SOL     OW15811   2.879   1.901   6.339
 5160SOL    HW115812   2.807   1.906   6.270
 5160SOL    HW215813   2.855   1.832   6.408
 5161SOL     OW15814   3.291   3.035   6.453
 5161SOL    HW115815   3.236   2.951   6.446
 5161SOL    HW215816   3.317   3.064   6.361
 5162SOL     OW15817   3.328   2.452   6.578
 5162SOL    HW115818   3.298   2.357   6.585
 5162SOL    HW215819   3.401   2.468   6.644
 5163SOL     OW15820   3.719   2.695   5.963
 5163SOL    HW115821   3.761   2.631   6.027
 5163SOL    HW215822   3.681   2.644   5.885
 5164SOL     OW15823   2.350   3.247   5.760
 5164SOL    HW115824   2.263   3.232   5.807
 5164SOL    HW215825   2.333   3.273   5.665
 5165SOL     OW15826   3.526   3.142   6.243
 5165SOL    HW115827   3.625   3.150   6.257
 5165SOL    HW215828   3.481   3.226   6.274
 5166SOL     OW15829   3.252   2.437   5.664
 5166SOL    HW115830   3.198   2.416   5.745
 5166SOL    HW215831   3.343   2.396   5.673
 5167SOL     OW15832   2.389   2.118   5.914
 5167SOL    HW115833   2.416   2.059   5.839
 5167SOL    HW215834   2.389   2.213   5.883
 5168SOL     OW15835   3.616   3.085   7.174
 5168SOL    HW115836   3.707   3.046   7.161
 5168SOL    HW215837   3.624   3.181   7.198
 5169SOL     OW15838   2.926   3.209   6.926
 5169SOL    HW115839   2.846   3.186   6.981
 5169SOL    HW215840   3.009   3.183   6.975
 5170SOL     OW15841   3.454   3.491   7.211
 5170SOL    HW115842   3.481   3.525   7.121
 5170SOL    HW215843   3.533   3.453   7.257
 5171SOL     OW15844   2.973   3.057   6.686
 5171SOL    HW115845   2.933   3.101   6.767
 5171SOL    HW215846   2.932   3.094   6.603
 5172SOL     OW15847   3.500   2.961   6.665
 5172SOL    HW115848   3.505   3.042   6.724
 5172SOL    HW215849   3.414   2.963   6.614
 5173SOL     OW15850   2.777   1.951   6.988
 5173SOL    HW115851   2.802   1.931   6.893
 5173SOL    HW215852   2.849   2.007   7.030
 5174SOL     OW15853   2.842   2.978   7.305
 5174SOL    HW115854   2.743   2.984   7.315
 5174SOL    HW215855   2.865   2.898   7.249
 5175SOL     OW15856   2.567   2.912   5.954
 5175SOL    HW115857   2.553   2.919   6.053
 5175SOL    HW215858   2.651   2.861   5.936
 5176SOL     OW15859   2.272   2.675   6.837
 5176SOL    HW115860   2.358   2.687   6.887
 5176SOL    HW215861   2.230   2.588   6.864
 5177SOL     OW15862   3.136   2.248   6.848
 5177SOL    HW115863   3.157   2.322   6.912
 5177SOL    HW215864   3.047   2.265   6.805
 5178SOL     OW15865   1.926   3.426   6.917
 5178SOL    HW115866   1.880   3.508   6.883
 5178SOL    HW215867   2.024   3.445   6.926
 5179SOL     OW15868   2.229   2.962   6.087
 5179SOL    HW115869   2.222   3.045   6.031
 5179SOL    HW215870   2.233   2.882   6.027
 5180SOL     OW15871   3.114   3.210   5.974
 5180SOL    HW115872   3.164   3.287   6.014
 5180SOL    HW215873   3.019   3.212   6.006
 5181SOL     OW15874   3.134   3.307   6.728
 5181SOL    HW115875   3.181   3.320   6.815
 5181SOL    HW215876   3.068   3.233   6.737
 5182SOL     OW15877   3.444   2.501   6.058
 5182SOL    HW115878   3.413   2.562   6.131
 5182SOL    HW215879   3.494   2.553   5.989
 5183SOL     OW15880   2.216   3.372   6.915
 5183SOL    HW115881   2.195   3.328   6.828
 5183SOL    HW215882   2.313   3.398   6.918
 5184SOL     OW15883   2.264   2.613   7.184
 5184SOL    HW115884   2.332   2.668   7.137
 5184SOL    HW215885   2.304   2.525   7.211
 5185SOL     OW15886   3.449   2.641   7.256
 5185SOL    HW115887   3.357   2.679   7.251
 5185SOL    HW215888   3.509   2.688   7.191
 5186SOL     OW15889   2.875   1.967   7.356
 5186SOL    HW115890   2.881   2.052   7.304
 5186SOL    HW215891   2.907   1.891   7.299
 5187SOL     OW15892   2.366   1.912   7.326
 5187SOL    HW115893   2.324   1.855   7.256
 5187SOL    HW215894   2.300   1.981   7.358
 5188SOL     OW15895   3.222   2.724   6.631
 5188SOL    HW115896   3.147   2.724   6.565
 5188SOL    HW215897   3.259   2.632   6.640
 5189SOL     OW15898   3.071   2.387   5.861
 5189SOL    HW115899   3.084   2.303   5.915
 5189SOL    HW215900   3.042   2.461   5.921
 5190SOL     OW15901   2.169   2.075   6.817
 5190SOL    HW115902   2.146   2.112   6.907
 5190SOL    HW215903   2.139   1.980   6.811
 5191SOL     OW15904   1.899   3.172   6.868
 5191SOL    HW115905   1.952   3.123   6.936
 5191SOL    HW215906   1.921   3.270   6.873
 5192SOL     OW15907   3.590   2.797   7.440
 5192SOL    HW115908   3.544   2.790   7.351
 5192SOL    HW215909   3.528   2.841   7.506
 5193SOL     OW15910   2.169   1.925   6.204
 5193SOL    HW115911   2.158   2.019   6.237
 5193SOL    HW215912   2.164   1.862   6.281
 5194SOL     OW15913   3.484   2.229   5.960
 5194SOL    HW115914   3.486   2.153   6.024
 5194SOL    HW215915   3.436   2.306   6.000
 5195SOL     OW15916   2.885   2.628   6.552
 5195SOL    HW115917   2.900   2.649   6.648
 5195SOL    HW215918   2.855   2.533   6.543
 5196SOL     OW15919   2.842   3.435   7.286
 5196SOL    HW115920   2.822   3.479   7.198
 5196SOL    HW215921   2.881   3.344   7.270
 5197SOL     OW15922   3.721   3.380   7.191
 5197SOL    HW115923   3.735   3.407   7.096
 5197SOL    HW215924   3.804   3.402   7.244
 5198SOL     OW15925   2.212   2.760   7.390
 5198SOL    HW115926   2.288   2.804   7.438
 5198SOL    HW215927   2.247   2.713   7.308
 5199SOL     OW15928   3.402   2.136   5.711
 5199SOL    HW115929   3.341   2.061   5.734
 5199SOL    HW215930   3.424   2.188   5.794
 5200SOL     OW15931   3.165   2.700   5.628
 5200SOL    HW115932   3.199   2.607   5.643
 5200SOL    HW215933   3.183   2.727   5.533
 5201SOL     OW15934   2.930   3.195   6.435
 5201SOL    HW115935   2.937   3.111   6.380
 5201SOL    HW215936   2.992   3.264   6.399
 5202SOL     OW15937   2.181   2.672   6.535
 5202SOL    HW115938   2.274   2.708   6.540
 5202SOL    HW215939   2.175   2.587   6.587
 5203SOL     OW15940   2.201   2.371   6.592
 5203SOL    HW115941   2.149   2.288   6.575
 5203SOL    HW215942   2.278   2.376   6.528
 5204SOL     OW15943   3.000   2.242   7.264
 5204SOL    HW115944   2.955   2.305   7.328
 5204SOL    HW215945   3.093   2.273   7.247
 5205SOL     OW15946   3.022   2.069   7.063
 5205SOL    HW115947   3.022   2.133   7.140
 5205SOL    HW215948   3.050   2.117   6.980
 5206SOL     OW15949   1.870   3.188   5.786
 5206SOL    HW115950   1.777   3.209   5.755
 5206SOL    HW215951   1.880   3.089   5.799
 5207SOL     OW15952   1.950   3.663   6.513
 5207SOL    HW115953   1.908   3.577   6.486
 5207SOL    HW215954   2.044   3.666   6.479
 5208SOL     OW15955   2.366   3.430   6.496
 5208SOL    HW115956   2.432   3.504   6.505
 5208SOL    HW215957   2.410   3.351   6.454
 5209SOL     OW15958   2.864   2.658   6.824
 5209SOL    HW115959   2.905   2.626   6.910
 5209SOL    HW215960   2.768   2.631   6.821
 5210SOL     OW15961   1.902   2.406   6.700
 5210SOL    HW115962   1.987   2.373   6.659
 5210SOL    HW215963   1.915   2.421   6.798
 5211SOL     OW15964   2.051   2.382   7.308
 5211SOL    HW115965   2.110   2.342   7.238
 5211SOL    HW215966   1.993   2.453   7.267
 5212SOL     OW15967   3.231   2.812   7.246
 5212SOL    HW115968   3.270   2.901   7.266
 5212SOL    HW215969   3.241   2.792   7.149
 5213SOL     OW15970   3.519   2.466   6.792
 5213SOL    HW115971   3.481   2.397   6.854
 5213SOL    HW215972   3.601   2.430   6.748
 5214SOL     OW15973   2.114   3.426   7.330
 5214SOL    HW115974   2.084   3.483   7.406
 5214SOL    HW215975   2.107   3.329   7.356
 5215SOL     OW15976   2.792   3.540   7.051
 5215SOL    HW115977   2.768   3.522   6.956
 5215SOL    HW215978   2.822   3.634   7.061
 5216SOL     OW15979   2.021   2.999   7.052
 5216SOL    HW115980   2.043   2.938   7.128
 5216SOL    HW215981   2.031   2.950   6.966
 5217SOL     OW15982   3.209   2.921   6.820
 5217SOL    HW115983   3.233   2.858   6.746
 5217SOL    HW215984   3.119   2.961   6.802
 5218SOL     OW15985   3.164   2.717   5.895
 5218SOL    HW115986   3.078   2.686   5.937
 5218SOL    HW215987   3.160   2.703   5.796
 5219SOL     OW15988   3.621   3.609   6.740
 5219SOL    HW115989   3.682   3.639   6.667
 5219SOL    HW215990   3.583   3.520   6.718
 5220SOL     OW15991   3.114   3.593   6.714
 5220SOL    HW115992   3.198   3.598   6.660
 5220SOL    HW215993   3.091   3.497   6.732
 5221SOL     OW15994   1.945   3.120   6.608
 5221SOL    HW115995   1.940   3.119   6.708
 5221SOL    HW215996   1.862   3.079   6.570
 5222SOL     OW15997   2.550   3.524   7.302
 5222SOL    HW115998   2.494   3.605   7.311
 5222SOL    HW215999   2.602   3.528   7.216
 5223SOL     OW16000   3.588   1.997   6.109
 5223SOL    HW116001   3.661   1.980   6.042
 5223SOL    HW216002   3.557   1.910   6.147
 5224SOL     OW16003   3.250   3.435   6.063
 5224SOL    HW116004   3.317   3.447   5.989
 5224SOL    HW216005   3.210   3.524   6.086
 5225SOL     OW16006   1.992   3.656   7.437
 5225SOL    HW116007   1.951   3.582   7.490
 5225SOL    HW216008   2.056   3.707   7.495
 5226SOL     OW16009   3.142   2.789   6.258
 5226SOL    HW116010   3.202   2.708   6.260
 5226SOL    HW216011   3.182   2.858   6.198
 5227SOL     OW16012   2.692   3.135   7.008
 5227SOL    HW116013   2.687   3.168   7.103
 5227SOL    HW216014   2.606   3.154   6.962
 5228SOL     OW16015   2.534   3.478   5.740
 5228SOL    HW116016   2.543   3.488   5.641
 5228SOL    HW216017   2.494   3.389   5.761
 5229SOL     OW16018   3.512   3.582   6.980
 5229SOL    HW116019   3.565   3.592   6.896
 5229SOL    HW216020   3.485   3.672   7.014
 5230SOL     OW16021   3.703   2.037   6.549
 5230SOL    HW116022   3.742   1.952   6.513
 5230SOL    HW216023   3.605   2.039   6.530
 5231SOL     OW16024   2.125   2.188   6.306
 5231SOL    HW116025   2.046   2.239   6.272
 5231SOL    HW216026   2.116   2.173   6.404
 5232SOL     OW16027   3.056   3.474   5.617
 5232SOL    HW116028   3.062   3.381   5.654
 5232SOL    HW216029   2.997   3.474   5.537
 5233SOL     OW16030   2.684   2.864   6.958
 5233SOL    HW116031   2.724   2.863   6.866
 5233SOL    HW216032   2.694   2.956   6.998
 5234SOL     OW16033   2.778   2.772   5.877
 5234SOL    HW116034   2.841   2.810   5.809
 5234SOL    HW216035   2.818   2.689   5.916
 5235SOL     OW16036   3.366   3.469   5.630
 5235SOL    HW116037   3.274   3.506   5.637
 5235SOL    HW216038   3.404   3.489   5.540
 5236SOL     OW16039   2.234   3.150   7.076
 5236SOL    HW116040   2.221   3.243   7.042
 5236SOL    HW216041   2.150   3.098   7.063
 5237SOL     OW16042   3.476   3.154   6.875
 5237SOL    HW116043   3.536   3.157   6.955
 5237SOL    HW216044   3.401   3.218   6.888
 5238SOL     OW16045   2.901   2.960   6.282
 5238SOL    HW116046   2.831   2.913   6.336
 5238SOL    HW216047   2.960   2.892   6.239
 5239SOL     OW16048   2.876   2.098   6.557
 5239SOL    HW116049   2.868   2.062   6.464
 5239SOL    HW216050   2.874   2.022   6.622
 5240SOL     OW16051   2.452   3.349   6.077
 5240SOL    HW116052   2.494   3.291   6.007
 5240SOL    HW216053   2.408   3.428   6.033
 5241SOL     OW16054   3.571   2.247   6.967
 5241SOL    HW116055   3.644   2.316   6.971
 5241SOL    HW216056   3.599   2.172   6.908
 5242SOL     OW16057   2.117   3.210   5.876
 5242SOL    HW116058   2.021   3.211   5.849
 5242SOL    HW216059   2.129   3.263   5.960
 5243SOL     OW16060   1.967   2.875   7.312
 5243SOL    HW116061   1.890   2.842   7.366
 5243SOL    HW216062   2.052   2.845   7.354
 5244SOL     OW16063   2.534   2.065   7.075
 5244SOL    HW116064   2.624   2.049   7.035
 5244SOL    HW216065   2.542   2.070   7.174
 5245SOL     OW16066   3.302   2.718   6.984
 5245SOL    HW116067   3.245   2.770   6.921
 5245SOL    HW216068   3.398   2.730   6.960
 5246SOL     OW16069   1.934   2.028   5.904
 5246SOL    HW116070   1.917   2.111   5.850
 5246SOL    HW216071   2.024   1.991   5.882
 5247SOL     OW16072   3.045   3.197   5.705
 5247SOL    HW116073   2.946   3.186   5.707
 5247SOL    HW216074   3.079   3.212   5.798
 5248SOL     OW16075   3.355   3.629   6.545
 5248SOL    HW116076   3.388   3.693   6.476
 5248SOL    HW216077   3.421   3.623   6.620
 5249SOL     OW16078   3.312   3.082   7.219
 5249SOL    HW116079   3.303   3.072   7.318
 5249SOL    HW216080   3.408   3.075   7.193
 5250SOL     OW16081   2.252   3.603   7.146
 5250SOL    HW116082   2.161   3.644   7.144
 5250SOL    HW216083   2.245   3.509   7.178
 5251SOL     OW16084   3.536   2.745   6.840
 5251SOL    HW116085   3.509   2.656   6.803
 5251SOL    HW216086   3.537   2.813   6.767
 5252SOL     OW16087   3.087   2.187   6.035
 5252SOL    HW116088   3.152   2.113   6.024
 5252SOL    HW216089   3.107   2.237   6.119
 5253SOL     OW16090   3.639   2.204   7.228
 5253SOL    HW116091   3.622   2.235   7.134
 5253SOL    HW216092   3.555   2.167   7.266
 5254SOL     OW16093   3.592   2.796   7.103
 5254SOL    HW116094   3.630   2.887   7.118
 5254SOL    HW216095   3.584   2.779   7.004
 5255SOL     OW16096   2.721   3.236   5.602
 5255SOL    HW116097   2.675   3.251   5.690
 5255SOL    HW216098   2.765   3.321   5.572
 5256SOL     OW16099   2.523   3.652   6.539
 5256SOL    HW116100   2.477   3.740   6.526
 5256SOL    HW216101   2.622   3.664   6.532
 5257SOL     OW16102   2.721   2.818   6.447
 5257SOL    HW116103   2.775   2.749   6.495
 5257SOL    HW216104   2.689   2.887   6.513
 5258SOL     OW16105   3.723   3.431   6.437
 5258SOL    HW116106   3.652   3.419   6.367
 5258SOL    HW216107   3.724   3.352   6.497
 5259SOL     OW16108   2.083   3.176   7.430
 5259SOL    HW116109   2.018   3.103   7.409
 5259SOL    HW216110   2.087   3.190   7.528
 5260SOL     OW16111   1.941   3.102   6.239
 5260SOL    HW116112   1.940   3.055   6.327
 5260SOL    HW216113   2.023   3.074   6.188
 5261SOL     OW16114   2.534   3.253   7.210
 5261SOL    HW116115   2.456   3.203   7.248
 5261SOL    HW216116   2.531   3.348   7.241
 5262SOL     OW16117   3.686   2.054   6.813
 5262SOL    HW116118   3.682   1.964   6.857
 5262SOL    HW216119   3.689   2.043   6.714
 5263SOL     OW16120   2.290   2.286   6.106
 5263SOL    HW116121   2.320   2.214   6.044
 5263SOL    HW216122   2.251   2.246   6.189
 5264SOL     OW16123   3.567   3.349   6.690
 5264SOL    HW116124   3.474   3.324   6.663
 5264SOL    HW216125   3.593   3.299   6.772
 5265SOL     OW16126   2.179   2.409   6.866
 5265SOL    HW116127   2.217   2.350   6.938
 5265SOL    HW216128   2.219   2.383   6.778
 5266SOL     OW16129   2.674   3.448   6.273
 5266SOL    HW116130   2.706   3.458   6.179
 5266SOL    HW216131   2.595   3.386   6.275
 5267SOL     OW16132   3.286   2.076   6.698
 5267SOL    HW116133   3.338   2.011   6.753
 5267SOL    HW216134   3.237   2.139   6.759
 5268SOL     OW16135   2.863   1.896   6.740
 5268SOL    HW116136   2.800   1.824   6.709
 5268SOL    HW216137   2.956   1.860   6.740
 5269SOL     OW16138   2.632   3.192   5.887
 5269SOL    HW116139   2.586   3.105   5.904
 5269SOL    HW216140   2.723   3.189   5.928
 5270SOL     OW16141   2.480   3.429   6.870
 5270SOL    HW116142   2.475   3.511   6.927
 5270SOL    HW216143   2.569   3.426   6.825
 5271SOL     OW16144   3.214   1.914   5.754
 5271SOL    HW116145   3.249   1.873   5.670
 5271SOL    HW216146   3.124   1.876   5.774
 5272SOL     OW16147   3.162   2.315   6.277
 5272SOL    HW116148   3.103   2.395   6.281
 5272SOL    HW216149   3.177   2.280   6.370
 5273SOL     OW16150   3.455   2.083   6.468
 5273SOL    HW116151   3.371   2.082   6.522
 5273SOL    HW216152   3.457   2.166   6.412
 5274SOL     OW16153   1.901   2.939   5.886
 5274SOL    HW116154   2.000   2.928   5.877
 5274SOL    HW216155   1.861   2.853   5.918
 5275SOL     OW16156   2.737   3.508   5.923
 5275SOL    HW116157   2.660   3.473   5.869
 5275SOL    HW216158   2.705   3.579   5.985
 5276SOL     OW16159   2.092   2.490   7.561
 5276SOL    HW116160   1.999   2.488   7.598
 5276SOL    HW216161   2.093   2.451   7.469
 5277SOL     OW16162   2.087   2.137   8.444
 5277SOL    HW116163   2.122   2.120   8.536
 5277SOL    HW216164   1.999   2.092   8.432
 5278SOL     OW16165   1.881   2.230   8.095
 5278SOL    HW116166   1.799   2.273   8.134
 5278SOL    HW216167   1.853   2.157   8.032
 5279SOL     OW16168   2.431   3.137   8.613
 5279SOL    HW116169   2.338   3.130   8.576
 5279SOL    HW216170   2.442   3.226   8.657
 5280SOL     OW16171   3.417   3.373   8.151
 5280SOL    HW116172   3.360   3.357   8.232
 5280SOL    HW216173   3.358   3.383   8.071
 5281SOL     OW16174   2.997   2.565   8.165
 5281SOL    HW116175   3.054   2.643   8.140
 5281SOL    HW216176   2.937   2.591   8.241
 5282SOL     OW16177   3.617   2.469   7.679
 5282SOL    HW116178   3.605   2.456   7.580
 5282SOL    HW216179   3.587   2.388   7.728
 5283SOL     OW16180   2.630   3.006   8.471
 5283SOL    HW116181   2.552   3.023   8.531
 5283SOL    HW216182   2.664   3.093   8.435
 5284SOL     OW16183   2.712   2.660   9.271
 5284SOL    HW116184   2.708   2.736   9.336
 5284SOL    HW216185   2.734   2.696   9.180
 5285SOL     OW16186   2.547   2.874   8.113
 5285SOL    HW116187   2.616   2.858   8.183
 5285SOL    HW216188   2.474   2.931   8.151
 5286SOL     OW16189   2.548   3.023   9.251
 5286SOL    HW116190   2.608   3.102   9.265
 5286SOL    HW216191   2.462   3.054   9.210
 5287SOL     OW16192   2.197   3.297   8.509
 5287SOL    HW116193   2.119   3.266   8.456
 5287SOL    HW216194   2.255   3.355   8.452
 5288SOL     OW16195   3.322   3.367   8.787
 5288SOL    HW116196   3.346   3.461   8.813
 5288SOL    HW216197   3.306   3.313   8.869
 5289SOL     OW16198   2.300   2.254   8.947
 5289SOL    HW116199   2.382   2.198   8.956
 5289SOL    HW216200   2.219   2.196   8.951
 5290SOL     OW16201   3.465   2.309   8.185
 5290SOL    HW116202   3.391   2.355   8.135
 5290SOL    HW216203   3.516   2.377   8.238
 5291SOL     OW16204   2.093   3.575   7.931
 5291SOL    HW116205   2.127   3.652   7.985
 5291SOL    HW216206   2.137   3.575   7.841
 5292SOL     OW16207   2.989   3.203   9.138
 5292SOL    HW116208   3.036   3.203   9.226
 5292SOL    HW216209   2.941   3.116   9.127
 5293SOL     OW16210   2.092   3.296   7.986
 5293SOL    HW116211   2.066   3.392   7.986
 5293SOL    HW216212   2.021   3.242   8.031
 5294SOL     OW16213   2.102   2.953   8.334
 5294SOL    HW116214   2.116   2.869   8.386
 5294SOL    HW216215   2.047   3.017   8.389
 5295SOL     OW16216   2.482   3.648   8.887
 5295SOL    HW116217   2.390   3.631   8.922
 5295SOL    HW216218   2.510   3.740   8.913
 5296SOL     OW16219   2.468   2.826   7.571
 5296SOL    HW116220   2.475   2.910   7.517
 5296SOL    HW216221   2.514   2.839   7.659
 5297SOL     OW16222   3.456   1.976   8.928
 5297SOL    HW116223   3.438   2.043   8.856
 5297SOL    HW216224   3.453   2.022   9.017
 5298SOL     OW16225   1.984   2.505   8.011
 5298SOL    HW116226   1.939   2.417   8.028
 5298SOL    HW216227   1.983   2.559   8.095
 5299SOL     OW16228   3.704   3.629   7.807
 5299SOL    HW116229   3.758   3.600   7.887
 5299SOL    HW216230   3.734   3.719   7.778
 5300SOL     OW16231   1.889   3.458   7.565
 5300SOL    HW116232   1.870   3.362   7.586
 5300SOL    HW216233   1.856   3.516   7.640
 5301SOL     OW16234   3.551   2.784   8.060
 5301SOL    HW116235   3.646   2.755   8.068
 5301SOL    HW216236   3.543   2.849   7.985
 5302SOL     OW16237   3.503   2.970   7.880
 5302SOL    HW116238   3.589   2.972   7.828
 5302SOL    HW216239   3.517   3.017   7.968
 5303SOL     OW16240   1.975   2.599   9.045
 5303SOL    HW116241   2.063   2.586   9.090
 5303SOL    HW216242   1.962   2.696   9.023
 5304SOL     OW16243   2.475   3.227   8.174
 5304SOL    HW116244   2.426   3.140   8.183
 5304SOL    HW216245   2.452   3.270   8.087
 5305SOL     OW16246   3.155   3.090   8.871
 5305SOL    HW116247   3.192   3.017   8.813
 5305SOL    HW216248   3.207   3.095   8.956
 5306SOL     OW16249   2.671   1.866   7.950
 5306SOL    HW116250   2.711   1.957   7.941
 5306SOL    HW216251   2.571   1.874   7.956
 5307SOL     OW16252   2.059   2.838   8.712
 5307SOL    HW116253   2.148   2.793   8.698
 5307SOL    HW216254   1.986   2.773   8.693
 5308SOL     OW16255   3.387   2.861   7.638
 5308SOL    HW116256   3.324   2.785   7.651
 5308SOL    HW216257   3.435   2.879   7.724
 5309SOL     OW16258   3.049   3.654   9.064
 5309SOL    HW116259   3.073   3.714   8.988
 5309SOL    HW216260   3.056   3.559   9.034
 5310SOL     OW16261   2.179   2.113   9.249
 5310SOL    HW116262   2.250   2.184   9.255
 5310SOL    HW216263   2.091   2.152   9.277
 5311SOL     OW16264   3.328   3.279   8.401
 5311SOL    HW116265   3.269   3.285   8.481
 5311SOL    HW216266   3.313   3.191   8.355
 5312SOL     OW16267   3.529   3.576   8.020
 5312SOL    HW116268   3.488   3.553   7.932
 5312SOL    HW216269   3.511   3.502   8.085
 5313SOL     OW16270   3.143   2.207   8.392
 5313SOL    HW116271   3.057   2.157   8.379
 5313SOL    HW216272   3.205   2.153   8.448
 5314SOL     OW16273   3.438   3.524   7.755
 5314SOL    HW116274   3.527   3.570   7.758
 5314SOL    HW216275   3.417   3.500   7.660
 5315SOL     OW16276   3.256   2.331   9.122
 5315SOL    HW116277   3.236   2.374   9.210
 5315SOL    HW216278   3.334   2.269   9.131
 5316SOL     OW16279   2.835   2.752   9.020
 5316SOL    HW116280   2.881   2.668   8.991
 5316SOL    HW216281   2.779   2.786   8.945
 5317SOL     OW16282   2.853   2.272   8.690
 5317SOL    HW116283   2.776   2.306   8.744
 5317SOL    HW216284   2.819   2.221   8.611
 5318SOL     OW16285   2.903   2.563   7.877
 5318SOL    HW116286   2.929   2.559   7.973
 5318SOL    HW216287   2.818   2.512   7.863
 5319SOL     OW16288   1.938   2.673   8.237
 5319SOL    HW116289   2.037   2.661   8.246
 5319SOL    HW216290   1.914   2.768   8.258
 5320SOL     OW16291   1.992   3.683   9.019
 5320SOL    HW116292   1.982   3.668   9.118
 5320SOL    HW216293   1.906   3.719   8.983
 5321SOL     OW16294   2.727   2.210   7.643
 5321SOL    HW116295   2.786   2.273   7.594
 5321SOL    HW216296   2.746   2.116   7.614
 5322SOL     OW16297   3.581   2.447   9.279
 5322SOL    HW116298   3.555   2.536   9.243
 5322SOL    HW216299   3.579   2.379   9.206
 5323SOL     OW16300   3.224   3.006   7.993
 5323SOL    HW116301   3.307   2.977   7.945
 5323SOL    HW216302   3.175   3.073   7.937
 5324SOL     OW16303   2.412   2.058   8.333
 5324SOL    HW116304   2.407   2.053   8.433
 5324SOL    HW216305   2.414   2.154   8.304
 5325SOL     OW16306   2.870   3.318   7.925
 5325SOL    HW116307   2.824   3.390   7.873
 5325SOL    HW216308   2.866   3.338   8.023
 5326SOL     OW16309   2.213   3.663   8.301
 5326SOL    HW116310   2.263   3.577   8.307
 5326SOL    HW216311   2.278   3.740   8.298
 5327SOL     OW16312   3.657   2.928   8.321
 5327SOL    HW116313   3.595   2.913   8.245
 5327SOL    HW216314   3.605   2.939   8.406
 5328SOL     OW16315   3.089   3.412   8.954
 5328SOL    HW116316   3.095   3.335   9.018
 5328SOL    HW216317   3.037   3.386   8.874
 5329SOL     OW16318   2.183   2.805   7.690
 5329SOL    HW116319   2.265   2.844   7.648
 5329SOL    HW216320   2.156   2.723   7.641
 5330SOL     OW16321   3.320   2.597   8.176
 5330SOL    HW116322   3.315   2.532   8.251
 5330SOL    HW216323   3.400   2.656   8.189
 5331SOL     OW16324   2.323   3.128   9.175
 5331SOL    HW116325   2.273   3.129   9.089
 5331SOL    HW216326   2.260   3.110   9.251
 5332SOL     OW16327   2.973   3.638   7.685
 5332SOL    HW116328   2.913   3.576   7.735
 5332SOL    HW216329   3.004   3.594   7.600
 5333SOL     OW16330   2.064   2.147   8.946
 5333SOL    HW116331   1.984   2.207   8.933
 5333SOL    HW216332   2.054   2.098   9.032
 5334SOL     OW16333   3.494   3.239   7.529
 5334SOL    HW116334   3.462   3.333   7.519
 5334SOL    HW216335   3.418   3.176   7.517
 5335SOL     OW16336   2.326   3.605   7.771
 5335SOL    HW116337   2.359   3.644   7.857
 5335SOL    HW216338   2.402   3.598   7.706
 5336SOL     OW16339   3.262   1.969   7.874
 5336SOL    HW116340   3.238   1.932   7.784
 5336SOL    HW216341   3.361   1.985   7.878
 5337SOL     OW16342   2.111   3.647   8.689
 5337SOL    HW116343   2.168   3.582   8.739
 5337SOL    HW216344   2.095   3.614   8.596
 5338SOL     OW16345   2.802   3.560   8.352
 5338SOL    HW116346   2.882   3.503   8.373
 5338SOL    HW216347   2.753   3.520   8.275
 5339SOL     OW16348   2.244   2.562   7.928
 5339SOL    HW116349   2.289   2.472   7.925
 5339SOL    HW216350   2.150   2.551   7.961
 5340SOL     OW16351   3.409   2.084   9.177
 5340SOL    HW116352   3.404   2.121   9.269
 5340SOL    HW216353   3.337   2.015   9.165
 5341SOL     OW16354   2.476   1.984   7.565
 5341SOL    HW116355   2.574   1.962   7.572
 5341SOL    HW216356   2.445   1.967   7.472
 5342SOL     OW16357   2.643   2.126   9.197
 5342SOL    HW116358   2.710   2.065   9.240
 5342SOL    HW216359   2.570   2.145   9.262
 5343SOL     OW16360   2.750   3.376   8.643
 5343SOL    HW116361   2.727   3.351   8.549
 5343SOL    HW216362   2.811   3.307   8.682
 5344SOL     OW16363   3.213   2.452   8.881
 5344SOL    HW116364   3.241   2.409   8.966
 5344SOL    HW216365   3.238   2.548   8.882
 5345SOL     OW16366   2.665   3.264   8.372
 5345SOL    HW116367   2.755   3.278   8.330
 5345SOL    HW216368   2.594   3.266   8.301
 5346SOL     OW16369   2.784   2.365   8.347
 5346SOL    HW116370   2.759   2.356   8.251
 5346SOL    HW216371   2.832   2.283   8.378
 5347SOL     OW16372   2.401   1.926   7.960
 5347SOL    HW116373   2.320   1.927   8.018
 5347SOL    HW216374   2.404   2.009   7.905
 5348SOL     OW16375   3.296   3.050   7.489
 5348SOL    HW116376   3.328   2.974   7.546
 5348SOL    HW216377   3.204   3.077   7.519
 5349SOL     OW16378   2.159   1.897   7.619
 5349SOL    HW116379   2.208   1.981   7.598
 5349SOL    HW216380   2.221   1.832   7.664
 5350SOL     OW16381   2.797   2.098   7.928
 5350SOL    HW116382   2.749   2.139   7.850
 5350SOL    HW216383   2.896   2.096   7.909
 5351SOL     OW16384   2.938   2.545   8.912
 5351SOL    HW116385   2.858   2.484   8.915
 5351SOL    HW216386   3.019   2.492   8.888
 5352SOL     OW16387   3.089   3.432   8.241
 5352SOL    HW116388   3.110   3.506   8.176
 5352SOL    HW216389   3.157   3.432   8.314
 5353SOL     OW16390   2.321   3.014   8.189
 5353SOL    HW116391   2.250   2.987   8.254
 5353SOL    HW216392   2.295   2.986   8.096
 5354SOL     OW16393   3.133   3.659   8.039
 5354SOL    HW116394   3.177   3.723   7.975
 5354SOL    HW216395   3.083   3.711   8.109
 5355SOL     OW16396   2.894   2.411   7.464
 5355SOL    HW116397   2.853   2.493   7.425
 5355SOL    HW216398   2.958   2.437   7.537
 5356SOL     OW16399   1.940   2.418   8.834
 5356SOL    HW116400   2.032   2.417   8.793
 5356SOL    HW216401   1.934   2.492   8.901
 5357SOL     OW16402   2.423   2.084   8.595
 5357SOL    HW116403   2.461   2.000   8.632
 5357SOL    HW216404   2.335   2.103   8.639
 5358SOL     OW16405   2.728   2.316   8.090
 5358SOL    HW116406   2.696   2.388   8.028
 5358SOL    HW216407   2.752   2.235   8.037
 5359SOL     OW16408   2.879   1.901   8.201
 5359SOL    HW116409   2.807   1.906   8.132
 5359SOL    HW216410   2.855   1.832   8.270
 5360SOL     OW16411   3.291   3.035   8.315
 5360SOL    HW116412   3.236   2.951   8.308
 5360SOL    HW216413   3.317   3.064   8.223
 5361SOL     OW16414   3.328   2.452   8.440
 5361SOL    HW116415   3.298   2.357   8.447
 5361SOL    HW216416   3.401   2.468   8.506
 5362SOL     OW16417   3.719   2.695   7.825
 5362SOL    HW116418   3.761   2.631   7.889
 5362SOL    HW216419   3.681   2.644   7.747
 5363SOL     OW16420   2.350   3.247   7.622
 5363SOL    HW116421   2.263   3.232   7.669
 5363SOL    HW216422   2.333   3.273   7.527
 5364SOL     OW16423   3.526   3.142   8.105
 5364SOL    HW116424   3.625   3.150   8.119
 5364SOL    HW216425   3.481   3.226   8.136
 5365SOL     OW16426   3.252   2.437   7.526
 5365SOL    HW116427   3.198   2.416   7.607
 5365SOL    HW216428   3.343   2.396   7.535
 5366SOL     OW16429   2.389   2.118   7.776
 5366SOL    HW116430   2.416   2.059   7.701
 5366SOL    HW216431   2.389   2.213   7.745
 5367SOL     OW16432   3.616   3.085   9.036
 5367SOL    HW116433   3.707   3.046   9.023
 5367SOL    HW216434   3.624   3.181   9.060
 5368SOL     OW16435   2.926   3.209   8.788
 5368SOL    HW116436   2.846   3.186   8.843
 5368SOL    HW216437   3.009   3.183   8.837
 5369SOL     OW16438   3.454   3.491   9.073
 5369SOL    HW116439   3.481   3.525   8.983
 5369SOL    HW216440   3.533   3.453   9.119
 5370SOL     OW16441   2.973   3.057   8.548
 5370SOL    HW116442   2.933   3.101   8.629
 5370SOL    HW216443   2.932   3.094   8.465
 5371SOL     OW16444   3.500   2.961   8.527
 5371SOL    HW116445   3.505   3.042   8.586
 5371SOL    HW216446   3.414   2.963   8.476
 5372SOL     OW16447   2.777   1.951   8.850
 5372SOL    HW116448   2.802   1.931   8.755
 5372SOL    HW216449   2.849   2.007   8.892
 5373SOL     OW16450   2.842   2.978   9.167
 5373SOL    HW116451   2.743   2.984   9.177
 5373SOL    HW216452   2.865   2.898   9.111
 5374SOL     OW16453   2.567   2.912   7.816
 5374SOL    HW116454   2.553   2.919   7.915
 5374SOL    HW216455   2.651   2.861   7.798
 5375SOL     OW16456   2.272   2.675   8.699
 5375SOL    HW116457   2.358   2.687   8.749
 5375SOL    HW216458   2.230   2.588   8.726
 5376SOL     OW16459   3.136   2.248   8.710
 5376SOL    HW116460   3.157   2.322   8.774
 5376SOL    HW216461   3.047   2.265   8.667
 5377SOL     OW16462   1.926   3.426   8.779
 5377SOL    HW116463   1.880   3.508   8.745
 5377SOL    HW216464   2.024   3.445   8.788
 5378SOL     OW16465   2.229   2.962   7.949
 5378SOL    HW116466   2.222   3.045   7.893
 5378SOL    HW216467   2.233   2.882   7.889
 5379SOL     OW16468   3.114   3.210   7.836
 5379SOL    HW116469   3.164   3.287   7.876
 5379SOL    HW216470   3.019   3.212   7.868
 5380SOL     OW16471   3.134   3.307   8.590
 5380SOL    HW116472   3.181   3.320   8.677
 5380SOL    HW216473   3.068   3.233   8.599
 5381SOL     OW16474   3.444   2.501   7.920
 5381SOL    HW116475   3.413   2.562   7.993
 5381SOL    HW216476   3.494   2.553   7.851
 5382SOL     OW16477   2.216   3.372   8.777
 5382SOL    HW116478   2.195   3.328   8.690
 5382SOL    HW216479   2.313   3.398   8.780
 5383SOL     OW16480   3.449   2.641   9.118
 5383SOL    HW116481   3.357   2.679   9.113
 5383SOL    HW216482   3.509   2.688   9.053
 5384SOL     OW16483   2.875   1.967   9.218
 5384SOL    HW116484   2.881   2.052   9.166
 5384SOL    HW216485   2.907   1.891   9.161
 5385SOL     OW16486   2.366   1.912   9.188
 5385SOL    HW116487   2.324   1.855   9.118
 5385SOL    HW216488   2.300   1.981   9.220
 5386SOL     OW16489   2.435   2.732   8.477
 5386SOL    HW116490   2.479   2.821   8.468
 5386SOL    HW216491   2.372   2.732   8.554
 5387SOL     OW16492   3.222   2.724   8.493
 5387SOL    HW116493   3.147   2.724   8.427
 5387SOL    HW216494   3.259   2.632   8.502
 5388SOL     OW16495   3.071   2.387   7.723
 5388SOL    HW116496   3.084   2.303   7.777
 5388SOL    HW216497   3.042   2.461   7.783
 5389SOL     OW16498   2.169   2.075   8.679
 5389SOL    HW116499   2.146   2.112   8.769
 5389SOL    HW216500   2.139   1.980   8.673
 5390SOL     OW16501   1.899   3.172   8.730
 5390SOL    HW116502   1.952   3.123   8.798
 5390SOL    HW216503   1.921   3.270   8.735
 5391SOL     OW16504   3.590   2.797   9.302
 5391SOL    HW116505   3.544   2.790   9.213
 5391SOL    HW216506   3.528   2.841   9.368
 5392SOL     OW16507   2.169   1.925   8.066
 5392SOL    HW116508   2.158   2.019   8.099
 5392SOL    HW216509   2.164   1.862   8.143
 5393SOL     OW16510   3.484   2.229   7.822
 5393SOL    HW116511   3.486   2.153   7.886
 5393SOL    HW216512   3.436   2.306   7.862
 5394SOL     OW16513   2.885   2.628   8.414
 5394SOL    HW116514   2.900   2.649   8.510
 5394SOL    HW216515   2.855   2.533   8.405
 5395SOL     OW16516   2.842   3.435   9.148
 5395SOL    HW116517   2.822   3.479   9.060
 5395SOL    HW216518   2.881   3.344   9.132
 5396SOL     OW16519   3.721   3.380   9.053
 5396SOL    HW116520   3.735   3.407   8.958
 5396SOL    HW216521   3.804   3.402   9.106
 5397SOL     OW16522   2.212   2.760   9.252
 5397SOL    HW116523   2.288   2.804   9.300
 5397SOL    HW216524   2.247   2.713   9.170
 5398SOL     OW16525   3.402   2.136   7.573
 5398SOL    HW116526   3.341   2.061   7.596
 5398SOL    HW216527   3.424   2.188   7.656
 5399SOL     OW16528   3.165   2.700   7.490
 5399SOL    HW116529   3.199   2.607   7.505
 5399SOL    HW216530   3.183   2.727   7.395
 5400SOL     OW16531   2.930   3.195   8.297
 5400SOL    HW116532   2.937   3.111   8.242
 5400SOL    HW216533   2.992   3.264   8.261
 5401SOL     OW16534   2.181   2.672   8.397
 5401SOL    HW116535   2.274   2.708   8.402
 5401SOL    HW216536   2.175   2.587   8.449
 5402SOL     OW16537   2.201   2.371   8.454
 5402SOL    HW116538   2.149   2.288   8.437
 5402SOL    HW216539   2.278   2.376   8.390
 5403SOL     OW16540   3.000   2.242   9.126
 5403SOL    HW116541   2.955   2.305   9.190
 5403SOL    HW216542   3.093   2.273   9.109
 5404SOL     OW16543   3.022   2.069   8.925
 5404SOL    HW116544   3.022   2.133   9.002
 5404SOL    HW216545   3.050   2.117   8.842
 5405SOL     OW16546   1.870   3.188   7.648
 5405SOL    HW116547   1.777   3.209   7.617
 5405SOL    HW216548   1.880   3.089   7.661
 5406SOL     OW16549   1.950   3.663   8.375
 5406SOL    HW116550   1.908   3.577   8.348
 5406SOL    HW216551   2.044   3.666   8.341
 5407SOL     OW16552   2.366   3.430   8.358
 5407SOL    HW116553   2.432   3.504   8.367
 5407SOL    HW216554   2.410   3.351   8.316
 5408SOL     OW16555   2.864   2.658   8.686
 5408SOL    HW116556   2.905   2.626   8.772
 5408SOL    HW216557   2.768   2.631   8.683
 5409SOL     OW16558   1.902   2.406   8.562
 5409SOL    HW116559   1.987   2.373   8.521
 5409SOL    HW216560   1.915   2.421   8.660
 5410SOL     OW16561   2.051   2.382   9.170
 5410SOL    HW116562   2.110   2.342   9.100
 5410SOL    HW216563   1.993   2.453   9.129
 5411SOL     OW16564   3.231   2.812   9.108
 5411SOL    HW116565   3.270   2.901   9.128
 5411SOL    HW216566   3.241   2.792   9.011
 5412SOL     OW16567   3.519   2.466   8.654
 5412SOL    HW116568   3.481   2.397   8.716
 5412SOL    HW216569   3.601   2.430   8.610
 5413SOL     OW16570   2.114   3.426   9.192
 5413SOL    HW116571   2.084   3.483   9.268
 5413SOL    HW216572   2.107   3.329   9.218
 5414SOL     OW16573   2.792   3.540   8.913
 5414SOL    HW116574   2.768   3.522   8.818
 5414SOL    HW216575   2.822   3.634   8.923
 5415SOL     OW16576   2.021   2.999   8.914
 5415SOL    HW116577   2.043   2.938   8.990
 5415SOL    HW216578   2.031   2.950   8.828
 5416SOL     OW16579   3.209   2.921   8.682
 5416SOL    HW116580   3.233   2.858   8.608
 5416SOL    HW216581   3.119   2.961   8.664
 5417SOL     OW16582   3.164   2.717   7.757
 5417SOL    HW116583   3.078   2.686   7.799
 5417SOL    HW216584   3.160   2.703   7.658
 5418SOL     OW16585   3.621   3.609   8.602
 5418SOL    HW116586   3.682   3.639   8.529
 5418SOL    HW216587   3.583   3.520   8.580
 5419SOL     OW16588   3.114   3.593   8.576
 5419SOL    HW116589   3.198   3.598   8.522
 5419SOL    HW216590   3.091   3.497   8.594
 5420SOL     OW16591   1.945   3.120   8.470
 5420SOL    HW116592   1.940   3.119   8.570
 5420SOL    HW216593   1.862   3.079   8.432
 5421SOL     OW16594   2.550   3.524   9.164
 5421SOL    HW116595   2.494   3.605   9.173
 5421SOL    HW216596   2.602   3.528   9.078
 5422SOL     OW16597   3.588   1.997   7.971
 5422SOL    HW116598   3.661   1.980   7.904
 5422SOL    HW216599   3.557   1.910   8.009
 5423SOL     OW16600   3.250   3.435   7.925
 5423SOL    HW116601   3.317   3.447   7.851
 5423SOL    HW216602   3.210   3.524   7.948
 5424SOL     OW16603   1.992   3.656   9.299
 5424SOL    HW116604   1.951   3.582   9.352
 5424SOL    HW216605   2.056   3.707   9.357
 5425SOL     OW16606   3.142   2.789   8.120
 5425SOL    HW116607   3.202   2.708   8.122
 5425SOL    HW216608   3.182   2.858   8.060
 5426SOL     OW16609   2.692   3.135   8.870
 5426SOL    HW116610   2.687   3.168   8.965
 5426SOL    HW216611   2.606   3.154   8.824
 5427SOL     OW16612   2.534   3.478   7.602
 5427SOL    HW116613   2.543   3.488   7.503
 5427SOL    HW216614   2.494   3.389   7.623
 5428SOL     OW16615   3.512   3.582   8.842
 5428SOL    HW116616   3.565   3.592   8.758
 5428SOL    HW216617   3.485   3.672   8.876
 5429SOL     OW16618   3.703   2.037   8.411
 5429SOL    HW116619   3.742   1.952   8.375
 5429SOL    HW216620   3.605   2.039   8.392
 5430SOL     OW16621   2.125   2.188   8.168
 5430SOL    HW116622   2.046   2.239   8.134
 5430SOL    HW216623   2.116   2.173   8.266
 5431SOL     OW16624   3.056   3.474   7.479
 5431SOL    HW116625   3.062   3.381   7.516
 5431SOL    HW216626   2.997   3.474   7.399
 5432SOL     OW16627   2.684   2.864   8.820
 5432SOL    HW116628   2.724   2.863   8.728
 5432SOL    HW216629   2.694   2.956   8.860
 5433SOL     OW16630   2.778   2.772   7.739
 5433SOL    HW116631   2.841   2.810   7.671
 5433SOL    HW216632   2.818   2.689   7.778
 5434SOL     OW16633   3.366   3.469   7.492
 5434SOL    HW116634   3.274   3.506   7.499
 5434SOL    HW216635   3.404   3.489   7.402
 5435SOL     OW16636   2.234   3.150   8.938
 5435SOL    HW116637   2.221   3.243   8.904
 5435SOL    HW216638   2.150   3.098   8.925
 5436SOL     OW16639   3.476   3.154   8.737
 5436SOL    HW116640   3.536   3.157   8.817
 5436SOL    HW216641   3.401   3.218   8.750
 5437SOL     OW16642   2.901   2.960   8.144
 5437SOL    HW116643   2.831   2.913   8.198
 5437SOL    HW216644   2.960   2.892   8.101
 5438SOL     OW16645   2.876   2.098   8.419
 5438SOL    HW116646   2.868   2.062   8.326
 5438SOL    HW216647   2.874   2.022   8.484
 5439SOL     OW16648   2.452   3.349   7.939
 5439SOL    HW116649   2.494   3.291   7.869
 5439SOL    HW216650   2.408   3.428   7.895
 5440SOL     OW16651   3.571   2.247   8.829
 5440SOL    HW116652   3.644   2.316   8.833
 5440SOL    HW216653   3.599   2.172   8.770
 5441SOL     OW16654   2.117   3.210   7.738
 5441SOL    HW116655   2.021   3.211   7.711
 5441SOL    HW216656   2.129   3.263   7.822
 5442SOL     OW16657   1.967   2.875   9.174
 5442SOL    HW116658   1.890   2.842   9.228
 5442SOL    HW216659   2.052   2.845   9.216
 5443SOL     OW16660   2.534   2.065   8.937
 5443SOL    HW116661   2.624   2.049   8.897
 5443SOL    HW216662   2.542   2.070   9.036
 5444SOL     OW16663   1.937   2.207   7.481
 5444SOL    HW116664   1.845   2.179   7.452
 5444SOL    HW216665   1.968   2.284   7.425
 5445SOL     OW16666   3.302   2.718   8.846
 5445SOL    HW116667   3.245   2.770   8.783
 5445SOL    HW216668   3.398   2.730   8.822
 5446SOL     OW16669   1.934   2.028   7.766
 5446SOL    HW116670   1.917   2.111   7.712
 5446SOL    HW216671   2.024   1.991   7.744
 5447SOL     OW16672   3.045   3.197   7.567
 5447SOL    HW116673   2.946   3.186   7.569
 5447SOL    HW216674   3.079   3.212   7.660
 5448SOL     OW16675   3.355   3.629   8.407
 5448SOL    HW116676   3.388   3.693   8.338
 5448SOL    HW216677   3.421   3.623   8.482
 5449SOL     OW16678   3.312   3.082   9.081
 5449SOL    HW116679   3.303   3.072   9.180
 5449SOL    HW216680   3.408   3.075   9.055
 5450SOL     OW16681   2.252   3.603   9.008
 5450SOL    HW116682   2.161   3.644   9.006
 5450SOL    HW216683   2.245   3.509   9.040
 5451SOL     OW16684   3.536   2.745   8.702
 5451SOL    HW116685   3.509   2.656   8.665
 5451SOL    HW216686   3.537   2.813   8.629
 5452SOL     OW16687   3.087   2.187   7.897
 5452SOL    HW116688   3.152   2.113   7.886
 5452SOL    HW216689   3.107   2.237   7.981
 5453SOL     OW16690   3.639   2.204   9.090
 5453SOL    HW116691   3.622   2.235   8.996
 5453SOL    HW216692   3.555   2.167   9.128
 5454SOL     OW16693   3.592   2.796   8.965
 5454SOL    HW116694   3.630   2.887   8.980
 5454SOL    HW216695   3.584   2.779   8.866
 5455SOL     OW16696   2.721   3.236   7.464
 5455SOL    HW116697   2.675   3.251   7.552
 5455SOL    HW216698   2.765   3.321   7.434
 5456SOL     OW16699   2.523   3.652   8.401
 5456SOL    HW116700   2.477   3.740   8.388
 5456SOL    HW216701   2.622   3.664   8.394
 5457SOL     OW16702   2.721   2.818   8.309
 5457SOL    HW116703   2.775   2.749   8.357
 5457SOL    HW216704   2.689   2.887   8.375
 5458SOL     OW16705   2.945   2.846   7.535
 5458SOL    HW116706   2.922   2.899   7.453
 5458SOL    HW216707   3.026   2.790   7.516
 5459SOL     OW16708   3.723   3.431   8.299
 5459SOL    HW116709   3.652   3.419   8.229
 5459SOL    HW216710   3.724   3.352   8.359
 5460SOL     OW16711   2.083   3.176   9.292
 5460SOL    HW116712   2.018   3.103   9.271
 5460SOL    HW216713   2.087   3.190   9.390
 5461SOL     OW16714   1.941   3.102   8.101
 5461SOL    HW116715   1.940   3.055   8.189
 5461SOL    HW216716   2.023   3.074   8.050
 5462SOL     OW16717   2.534   3.253   9.072
 5462SOL    HW116718   2.456   3.203   9.110
 5462SOL    HW216719   2.531   3.348   9.103
 5463SOL     OW16720   3.686   2.054   8.675
 5463SOL    HW116721   3.682   1.964   8.719
 5463SOL    HW216722   3.689   2.043   8.576
 5464SOL     OW16723   2.290   2.286   7.968
 5464SOL    HW116724   2.320   2.214   7.906
 5464SOL    HW216725   2.251   2.246   8.051
 5465SOL     OW16726   3.567   3.349   8.552
 5465SOL    HW116727   3.474   3.324   8.525
 5465SOL    HW216728   3.593   3.299   8.634
 5466SOL     OW16729   2.179   2.409   8.728
 5466SOL    HW116730   2.217   2.350   8.800
 5466SOL    HW216731   2.219   2.383   8.640
 5467SOL     OW16732   2.674   3.448   8.135
 5467SOL    HW116733   2.706   3.458   8.041
 5467SOL    HW216734   2.595   3.386   8.137
 5468SOL     OW16735   3.286   2.076   8.560
 5468SOL    HW116736   3.338   2.011   8.615
 5468SOL    HW216737   3.237   2.139   8.621
 5469SOL     OW16738   2.863   1.896   8.602
 5469SOL    HW116739   2.800   1.824   8.571
 5469SOL    HW216740   2.956   1.860   8.602
 5470SOL     OW16741   2.632   3.192   7.749
 5470SOL    HW116742   2.586   3.105   7.766
 5470SOL    HW216743   2.723   3.189   7.790
 5471SOL     OW16744   2.480   3.429   8.732
 5471SOL    HW116745   2.475   3.511   8.789
 5471SOL    HW216746   2.569   3.426   8.687
 5472SOL     OW16747   3.214   1.914   7.616
 5472SOL    HW116748   3.249   1.873   7.532
 5472SOL    HW216749   3.124   1.876   7.636
 5473SOL     OW16750   3.162   2.315   8.139
 5473SOL    HW116751   3.103   2.395   8.143
 5473SOL    HW216752   3.177   2.280   8.232
 5474SOL     OW16753   3.455   2.083   8.330
 5474SOL    HW116754   3.371   2.082   8.384
 5474SOL    HW216755   3.457   2.166   8.274
 5475SOL     OW16756   1.901   2.939   7.748
 5475SOL    HW116757   2.000   2.928   7.739
 5475SOL    HW216758   1.861   2.853   7.780
 5476SOL     OW16759   2.737   3.508   7.785
 5476SOL    HW116760   2.660   3.473   7.731
 5476SOL    HW216761   2.705   3.579   7.847
 5477SOL     OW16762   2.092   2.490   9.423
 5477SOL    HW116763   1.999   2.488   9.460
 5477SOL    HW216764   2.093   2.451   9.331
 5478SOL     OW16765   2.087   2.137  10.306
 5478SOL    HW116766   2.122   2.120  10.398
 5478SOL    HW216767   1.999   2.092  10.294
 5479SOL     OW16768   1.881   2.230   9.957
 5479SOL    HW116769   1.799   2.273   9.996
 5479SOL    HW216770   1.853   2.157   9.894
 5480SOL     OW16771   2.431   3.137  10.475
 5480SOL    HW116772   2.338   3.130  10.438
 5480SOL    HW216773   2.442   3.226  10.519
 5481SOL     OW16774   3.417   3.373  10.013
 5481SOL    HW116775   3.360   3.357  10.094
 5481SOL    HW216776   3.358   3.383   9.933
 5482SOL     OW16777   2.997   2.565  10.027
 5482SOL    HW116778   3.054   2.643  10.002
 5482SOL    HW216779   2.937   2.591  10.103
 5483SOL     OW16780   3.617   2.469   9.541
 5483SOL    HW116781   3.605   2.456   9.442
 5483SOL    HW216782   3.587   2.388   9.590
 5484SOL     OW16783   2.630   3.006  10.333
 5484SOL    HW116784   2.552   3.023  10.393
 5484SOL    HW216785   2.664   3.093  10.297
 5485SOL     OW16786   2.547   2.874   9.975
 5485SOL    HW116787   2.616   2.858  10.045
 5485SOL    HW216788   2.474   2.931  10.013
 5486SOL     OW16789   2.197   3.297  10.371
 5486SOL    HW116790   2.119   3.266  10.318
 5486SOL    HW216791   2.255   3.355  10.314
 5487SOL     OW16792   2.300   2.254  10.809
 5487SOL    HW116793   2.382   2.198  10.818
 5487SOL    HW216794   2.219   2.196  10.813
 5488SOL     OW16795   3.465   2.309  10.047
 5488SOL    HW116796   3.391   2.355   9.997
 5488SOL    HW216797   3.516   2.377  10.100
 5489SOL     OW16798   2.093   3.575   9.793
 5489SOL    HW116799   2.127   3.652   9.847
 5489SOL    HW216800   2.137   3.575   9.703
 5490SOL     OW16801   2.092   3.296   9.848
 5490SOL    HW116802   2.066   3.392   9.848
 5490SOL    HW216803   2.021   3.242   9.893
 5491SOL     OW16804   2.102   2.953  10.196
 5491SOL    HW116805   2.116   2.869  10.248
 5491SOL    HW216806   2.047   3.017  10.251
 5492SOL     OW16807   2.482   3.648  10.749
 5492SOL    HW116808   2.390   3.631  10.784
 5492SOL    HW216809   2.510   3.740  10.775
 5493SOL     OW16810   2.468   2.826   9.433
 5493SOL    HW116811   2.475   2.910   9.379
 5493SOL    HW216812   2.514   2.839   9.521
 5494SOL     OW16813   1.984   2.505   9.873
 5494SOL    HW116814   1.939   2.417   9.890
 5494SOL    HW216815   1.983   2.559   9.957
 5495SOL     OW16816   3.704   3.629   9.669
 5495SOL    HW116817   3.758   3.600   9.749
 5495SOL    HW216818   3.734   3.719   9.640
 5496SOL     OW16819   1.889   3.458   9.427
 5496SOL    HW116820   1.870   3.362   9.448
 5496SOL    HW216821   1.856   3.516   9.502
 5497SOL     OW16822   3.551   2.784   9.922
 5497SOL    HW116823   3.646   2.755   9.930
 5497SOL    HW216824   3.543   2.849   9.847
 5498SOL     OW16825   3.503   2.970   9.742
 5498SOL    HW116826   3.589   2.972   9.690
 5498SOL    HW216827   3.517   3.017   9.830
 5499SOL     OW16828   2.475   3.227  10.036
 5499SOL    HW116829   2.426   3.140  10.045
 5499SOL    HW216830   2.452   3.270   9.949
 5500SOL     OW16831   2.671   1.866   9.812
 5500SOL    HW116832   2.711   1.957   9.803
 5500SOL    HW216833   2.571   1.874   9.818
 5501SOL     OW16834   2.059   2.838  10.574
 5501SOL    HW116835   2.148   2.793  10.560
 5501SOL    HW216836   1.986   2.773  10.555
 5502SOL     OW16837   3.387   2.861   9.500
 5502SOL    HW116838   3.324   2.785   9.513
 5502SOL    HW216839   3.435   2.879   9.586
 5503SOL     OW16840   3.328   3.279  10.263
 5503SOL    HW116841   3.269   3.285  10.343
 5503SOL    HW216842   3.313   3.191  10.217
 5504SOL     OW16843   3.529   3.576   9.882
 5504SOL    HW116844   3.488   3.553   9.794
 5504SOL    HW216845   3.511   3.502   9.947
 5505SOL     OW16846   3.143   2.207  10.254
 5505SOL    HW116847   3.057   2.157  10.241
 5505SOL    HW216848   3.205   2.153  10.310
 5506SOL     OW16849   3.438   3.524   9.617
 5506SOL    HW116850   3.527   3.570   9.620
 5506SOL    HW216851   3.417   3.500   9.522
 5507SOL     OW16852   2.853   2.272  10.552
 5507SOL    HW116853   2.776   2.306  10.606
 5507SOL    HW216854   2.819   2.221  10.473
 5508SOL     OW16855   2.903   2.563   9.739
 5508SOL    HW116856   2.929   2.559   9.835
 5508SOL    HW216857   2.818   2.512   9.725
 5509SOL     OW16858   1.938   2.673  10.099
 5509SOL    HW116859   2.037   2.661  10.108
 5509SOL    HW216860   1.914   2.768  10.120
 5510SOL     OW16861   1.992   3.683  10.881
 5510SOL    HW116862   1.982   3.668  10.980
 5510SOL    HW216863   1.906   3.719  10.845
 5511SOL     OW16864   2.727   2.210   9.505
 5511SOL    HW116865   2.786   2.273   9.456
 5511SOL    HW216866   2.746   2.116   9.476
 5512SOL     OW16867   3.224   3.006   9.855
 5512SOL    HW116868   3.307   2.977   9.807
 5512SOL    HW216869   3.175   3.073   9.799
 5513SOL     OW16870   2.412   2.058  10.195
 5513SOL    HW116871   2.407   2.053  10.295
 5513SOL    HW216872   2.414   2.154  10.166
 5514SOL     OW16873   2.870   3.318   9.787
 5514SOL    HW116874   2.824   3.390   9.735
 5514SOL    HW216875   2.866   3.338   9.885
 5515SOL     OW16876   2.213   3.663  10.163
 5515SOL    HW116877   2.263   3.577  10.169
 5515SOL    HW216878   2.278   3.740  10.160
 5516SOL     OW16879   3.657   2.928  10.183
 5516SOL    HW116880   3.595   2.913  10.107
 5516SOL    HW216881   3.605   2.939  10.268
 5517SOL     OW16882   2.183   2.805   9.552
 5517SOL    HW116883   2.265   2.844   9.510
 5517SOL    HW216884   2.156   2.723   9.503
 5518SOL     OW16885   3.320   2.597  10.038
 5518SOL    HW116886   3.315   2.532  10.113
 5518SOL    HW216887   3.400   2.656  10.051
 5519SOL     OW16888   2.973   3.638   9.547
 5519SOL    HW116889   2.913   3.576   9.597
 5519SOL    HW216890   3.004   3.594   9.462
 5520SOL     OW16891   3.494   3.239   9.391
 5520SOL    HW116892   3.462   3.333   9.381
 5520SOL    HW216893   3.418   3.176   9.379
 5521SOL     OW16894   2.326   3.605   9.633
 5521SOL    HW116895   2.359   3.644   9.719
 5521SOL    HW216896   2.402   3.598   9.568
 5522SOL     OW16897   3.262   1.969   9.736
 5522SOL    HW116898   3.238   1.932   9.646
 5522SOL    HW216899   3.361   1.985   9.740
 5523SOL     OW16900   2.111   3.647  10.551
 5523SOL    HW116901   2.168   3.582  10.601
 5523SOL    HW216902   2.095   3.614  10.458
 5524SOL     OW16903   2.802   3.560  10.214
 5524SOL    HW116904   2.882   3.503  10.235
 5524SOL    HW216905   2.753   3.520  10.137
 5525SOL     OW16906   2.476   1.984   9.427
 5525SOL    HW116907   2.574   1.962   9.434
 5525SOL    HW216908   2.445   1.967   9.334
 5526SOL     OW16909   2.750   3.376  10.505
 5526SOL    HW116910   2.727   3.351  10.411
 5526SOL    HW216911   2.811   3.307  10.544
 5527SOL     OW16912   2.665   3.264  10.234
 5527SOL    HW116913   2.755   3.278  10.192
 5527SOL    HW216914   2.594   3.266  10.163
 5528SOL     OW16915   2.784   2.365  10.209
 5528SOL    HW116916   2.759   2.356  10.113
 5528SOL    HW216917   2.832   2.283  10.240
 5529SOL     OW16918   2.401   1.926   9.822
 5529SOL    HW116919   2.320   1.927   9.880
 5529SOL    HW216920   2.404   2.009   9.767
 5530SOL     OW16921   3.296   3.050   9.351
 5530SOL    HW116922   3.328   2.974   9.408
 5530SOL    HW216923   3.204   3.077   9.381
 5531SOL     OW16924   2.159   1.897   9.481
 5531SOL    HW116925   2.208   1.981   9.460
 5531SOL    HW216926   2.221   1.832   9.526
 5532SOL     OW16927   2.797   2.098   9.790
 5532SOL    HW116928   2.749   2.139   9.712
 5532SOL    HW216929   2.896   2.096   9.771
 5533SOL     OW16930   3.089   3.432  10.103
 5533SOL    HW116931   3.110   3.506  10.038
 5533SOL    HW216932   3.157   3.432  10.176
 5534SOL     OW16933   2.321   3.014  10.051
 5534SOL    HW116934   2.250   2.987  10.116
 5534SOL    HW216935   2.295   2.986   9.958
 5535SOL     OW16936   3.133   3.659   9.901
 5535SOL    HW116937   3.177   3.723   9.837
 5535SOL    HW216938   3.083   3.711   9.971
 5536SOL     OW16939   2.894   2.411   9.326
 5536SOL    HW116940   2.853   2.493   9.287
 5536SOL    HW216941   2.958   2.437   9.399
 5537SOL     OW16942   1.940   2.418  10.696
 5537SOL    HW116943   2.032   2.417  10.655
 5537SOL    HW216944   1.934   2.492  10.763
 5538SOL     OW16945   2.423   2.084  10.457
 5538SOL    HW116946   2.461   2.000  10.494
 5538SOL    HW216947   2.335   2.103  10.501
 5539SOL     OW16948   2.728   2.316   9.952
 5539SOL    HW116949   2.696   2.388   9.890
 5539SOL    HW216950   2.752   2.235   9.899
 5540SOL     OW16951   2.879   1.901  10.063
 5540SOL    HW116952   2.807   1.906   9.994
 5540SOL    HW216953   2.855   1.832  10.132
 5541SOL     OW16954   3.291   3.035  10.177
 5541SOL    HW116955   3.236   2.951  10.170
 5541SOL    HW216956   3.317   3.064  10.085
 5542SOL     OW16957   3.328   2.452  10.302
 5542SOL    HW116958   3.298   2.357  10.309
 5542SOL    HW216959   3.401   2.468  10.368
 5543SOL     OW16960   3.719   2.695   9.687
 5543SOL    HW116961   3.761   2.631   9.751
 5543SOL    HW216962   3.681   2.644   9.609
 5544SOL     OW16963   2.350   3.247   9.484
 5544SOL    HW116964   2.263   3.232   9.531
 5544SOL    HW216965   2.333   3.273   9.389
 5545SOL     OW16966   3.526   3.142   9.967
 5545SOL    HW116967   3.625   3.150   9.981
 5545SOL    HW216968   3.481   3.226   9.998
 5546SOL     OW16969   3.252   2.437   9.388
 5546SOL    HW116970   3.198   2.416   9.469
 5546SOL    HW216971   3.343   2.396   9.397
 5547SOL     OW16972   2.389   2.118   9.638
 5547SOL    HW116973   2.416   2.059   9.563
 5547SOL    HW216974   2.389   2.213   9.607
 5548SOL     OW16975   2.926   3.209  10.650
 5548SOL    HW116976   2.846   3.186  10.705
 5548SOL    HW216977   3.009   3.183  10.699
 5549SOL     OW16978   2.973   3.057  10.410
 5549SOL    HW116979   2.933   3.101  10.491
 5549SOL    HW216980   2.932   3.094  10.327
 5550SOL     OW16981   3.500   2.961  10.389
 5550SOL    HW116982   3.505   3.042  10.448
 5550SOL    HW216983   3.414   2.963  10.338
 5551SOL     OW16984   2.567   2.912   9.678
 5551SOL    HW116985   2.553   2.919   9.777
 5551SOL    HW216986   2.651   2.861   9.660
 5552SOL     OW16987   2.272   2.675  10.561
 5552SOL    HW116988   2.358   2.687  10.611
 5552SOL    HW216989   2.230   2.588  10.588
 5553SOL     OW16990   3.136   2.248  10.572
 5553SOL    HW116991   3.157   2.322  10.636
 5553SOL    HW216992   3.047   2.265  10.529
 5554SOL     OW16993   1.926   3.426  10.641
 5554SOL    HW116994   1.880   3.508  10.607
 5554SOL    HW216995   2.024   3.445  10.650
 5555SOL     OW16996   2.229   2.962   9.811
 5555SOL    HW116997   2.222   3.045   9.755
 5555SOL    HW216998   2.233   2.882   9.751
 5556SOL     OW16999   3.114   3.210   9.698
 5556SOL    HW117000   3.164   3.287   9.738
 5556SOL    HW217001   3.019   3.212   9.730
 5557SOL     OW17002   3.134   3.307  10.452
 5557SOL    HW117003   3.181   3.320  10.539
 5557SOL    HW217004   3.068   3.233  10.461
 5558SOL     OW17005   3.444   2.501   9.782
 5558SOL    HW117006   3.413   2.562   9.855
 5558SOL    HW217007   3.494   2.553   9.713
 5559SOL     OW17008   2.216   3.372  10.639
 5559SOL    HW117009   2.195   3.328  10.552
 5559SOL    HW217010   2.313   3.398  10.642
 5560SOL     OW17011   2.264   2.613  10.908
 5560SOL    HW117012   2.332   2.668  10.861
 5560SOL    HW217013   2.304   2.525  10.935
 5561SOL     OW17014   2.435   2.732  10.339
 5561SOL    HW117015   2.479   2.821  10.330
 5561SOL    HW217016   2.372   2.732  10.416
 5562SOL     OW17017   3.222   2.724  10.355
 5562SOL    HW117018   3.147   2.724  10.289
 5562SOL    HW217019   3.259   2.632  10.364
 5563SOL     OW17020   3.071   2.387   9.585
 5563SOL    HW117021   3.084   2.303   9.639
 5563SOL    HW217022   3.042   2.461   9.645
 5564SOL     OW17023   2.169   2.075  10.541
 5564SOL    HW117024   2.146   2.112  10.631
 5564SOL    HW217025   2.139   1.980  10.535
 5565SOL     OW17026   1.899   3.172  10.592
 5565SOL    HW117027   1.952   3.123  10.660
 5565SOL    HW217028   1.921   3.270  10.597
 5566SOL     OW17029   2.169   1.925   9.928
 5566SOL    HW117030   2.158   2.019   9.961
 5566SOL    HW217031   2.164   1.862  10.005
 5567SOL     OW17032   3.484   2.229   9.684
 5567SOL    HW117033   3.486   2.153   9.748
 5567SOL    HW217034   3.436   2.306   9.724
 5568SOL     OW17035   2.885   2.628  10.276
 5568SOL    HW117036   2.900   2.649  10.372
 5568SOL    HW217037   2.855   2.533  10.267
 5569SOL     OW17038   2.842   3.435  11.010
 5569SOL    HW117039   2.822   3.479  10.922
 5569SOL    HW217040   2.881   3.344  10.994
 5570SOL     OW17041   3.402   2.136   9.435
 5570SOL    HW117042   3.341   2.061   9.458
 5570SOL    HW217043   3.424   2.188   9.518
 5571SOL     OW17044   3.165   2.700   9.352
 5571SOL    HW117045   3.199   2.607   9.367
 5571SOL    HW217046   3.183   2.727   9.257
 5572SOL     OW17047   2.930   3.195  10.159
 5572SOL    HW117048   2.937   3.111  10.104
 5572SOL    HW217049   2.992   3.264  10.123
 5573SOL     OW17050   2.181   2.672  10.259
 5573SOL    HW117051   2.274   2.708  10.264
 5573SOL    HW217052   2.175   2.587  10.311
 5574SOL     OW17053   2.201   2.371  10.316
 5574SOL    HW117054   2.149   2.288  10.299
 5574SOL    HW217055   2.278   2.376  10.252
 5575SOL     OW17056   3.022   2.069  10.787
 5575SOL    HW117057   3.022   2.133  10.864
 5575SOL    HW217058   3.050   2.117  10.704
 5576SOL     OW17059   1.870   3.188   9.510
 5576SOL    HW117060   1.777   3.209   9.479
 5576SOL    HW217061   1.880   3.089   9.523
 5577SOL     OW17062   1.950   3.663  10.237
 5577SOL    HW117063   1.908   3.577  10.210
 5577SOL    HW217064   2.044   3.666  10.203
 5578SOL     OW17065   2.366   3.430  10.220
 5578SOL    HW117066   2.432   3.504  10.229
 5578SOL    HW217067   2.410   3.351  10.178
 5579SOL     OW17068   2.864   2.658  10.548
 5579SOL    HW117069   2.905   2.626  10.634
 5579SOL    HW217070   2.768   2.631  10.545
 5580SOL     OW17071   1.902   2.406  10.424
 5580SOL    HW117072   1.987   2.373  10.383
 5580SOL    HW217073   1.915   2.421  10.522
 5581SOL     OW17074   3.519   2.466  10.516
 5581SOL    HW117075   3.481   2.397  10.578
 5581SOL    HW217076   3.601   2.430  10.472
 5582SOL     OW17077   2.792   3.540  10.775
 5582SOL    HW117078   2.768   3.522  10.680
 5582SOL    HW217079   2.822   3.634  10.785
 5583SOL     OW17080   2.021   2.999  10.776
 5583SOL    HW117081   2.043   2.938  10.852
 5583SOL    HW217082   2.031   2.950  10.690
 5584SOL     OW17083   3.209   2.921  10.544
 5584SOL    HW117084   3.233   2.858  10.470
 5584SOL    HW217085   3.119   2.961  10.526
 5585SOL     OW17086   3.164   2.717   9.619
 5585SOL    HW117087   3.078   2.686   9.661
 5585SOL    HW217088   3.160   2.703   9.520
 5586SOL     OW17089   3.621   3.609  10.464
 5586SOL    HW117090   3.682   3.639  10.391
 5586SOL    HW217091   3.583   3.520  10.442
 5587SOL     OW17092   3.114   3.593  10.438
 5587SOL    HW117093   3.198   3.598  10.384
 5587SOL    HW217094   3.091   3.497  10.456
 5588SOL     OW17095   1.945   3.120  10.332
 5588SOL    HW117096   1.940   3.119  10.432
 5588SOL    HW217097   1.862   3.079  10.294
 5589SOL     OW17098   3.588   1.997   9.833
 5589SOL    HW117099   3.661   1.980   9.766
 5589SOL    HW217100   3.557   1.910   9.871
 5590SOL     OW17101   3.250   3.435   9.787
 5590SOL    HW117102   3.317   3.447   9.713
 5590SOL    HW217103   3.210   3.524   9.810
 5591SOL     OW17104   3.142   2.789   9.982
 5591SOL    HW117105   3.202   2.708   9.984
 5591SOL    HW217106   3.182   2.858   9.922
 5592SOL     OW17107   2.534   3.478   9.464
 5592SOL    HW117108   2.543   3.488   9.365
 5592SOL    HW217109   2.494   3.389   9.485
 5593SOL     OW17110   3.512   3.582  10.704
 5593SOL    HW117111   3.565   3.592  10.620
 5593SOL    HW217112   3.485   3.672  10.738
 5594SOL     OW17113   3.703   2.037  10.273
 5594SOL    HW117114   3.742   1.952  10.237
 5594SOL    HW217115   3.605   2.039  10.254
 5595SOL     OW17116   2.125   2.188  10.030
 5595SOL    HW117117   2.046   2.239   9.996
 5595SOL    HW217118   2.116   2.173  10.128
 5596SOL     OW17119   3.056   3.474   9.341
 5596SOL    HW117120   3.062   3.381   9.378
 5596SOL    HW217121   2.997   3.474   9.261
 5597SOL     OW17122   2.684   2.864  10.682
 5597SOL    HW117123   2.724   2.863  10.590
 5597SOL    HW217124   2.694   2.956  10.722
 5598SOL     OW17125   2.778   2.772   9.601
 5598SOL    HW117126   2.841   2.810   9.533
 5598SOL    HW217127   2.818   2.689   9.640
 5599SOL     OW17128   3.366   3.469   9.354
 5599SOL    HW117129   3.274   3.506   9.361
 5599SOL    HW217130   3.404   3.489   9.264
 5600SOL     OW17131   2.234   3.150  10.800
 5600SOL    HW117132   2.221   3.243  10.766
 5600SOL    HW217133   2.150   3.098  10.787
 5601SOL     OW17134   3.476   3.154  10.599
 5601SOL    HW117135   3.536   3.157  10.679
 5601SOL    HW217136   3.401   3.218  10.612
 5602SOL     OW17137   2.901   2.960  10.006
 5602SOL    HW117138   2.831   2.913  10.060
 5602SOL    HW217139   2.960   2.892   9.963
 5603SOL     OW17140   2.876   2.098  10.281
 5603SOL    HW117141   2.868   2.062  10.188
 5603SOL    HW217142   2.874   2.022  10.346
 5604SOL     OW17143   2.452   3.349   9.801
 5604SOL    HW117144   2.494   3.291   9.731
 5604SOL    HW217145   2.408   3.428   9.757
 5605SOL     OW17146   3.571   2.247  10.691
 5605SOL    HW117147   3.644   2.316  10.695
 5605SOL    HW217148   3.599   2.172  10.632
 5606SOL     OW17149   2.117   3.210   9.600
 5606SOL    HW117150   2.021   3.211   9.573
 5606SOL    HW217151   2.129   3.263   9.684
 5607SOL     OW17152   2.534   2.065  10.799
 5607SOL    HW117153   2.624   2.049  10.759
 5607SOL    HW217154   2.542   2.070  10.898
 5608SOL     OW17155   1.937   2.207   9.343
 5608SOL    HW117156   1.845   2.179   9.314
 5608SOL    HW217157   1.968   2.284   9.287
 5609SOL     OW17158   1.934   2.028   9.628
 5609SOL    HW117159   1.917   2.111   9.574
 5609SOL    HW217160   2.024   1.991   9.606
 5610SOL     OW17161   3.045   3.197   9.429
 5610SOL    HW117162   2.946   3.186   9.431
 5610SOL    HW217163   3.079   3.212   9.522
 5611SOL     OW17164   3.355   3.629  10.269
 5611SOL    HW117165   3.388   3.693  10.200
 5611SOL    HW217166   3.421   3.623  10.344
 5612SOL     OW17167   2.252   3.603  10.870
 5612SOL    HW117168   2.161   3.644  10.868
 5612SOL    HW217169   2.245   3.509  10.902
 5613SOL     OW17170   3.536   2.745  10.564
 5613SOL    HW117171   3.509   2.656  10.527
 5613SOL    HW217172   3.537   2.813  10.491
 5614SOL     OW17173   3.087   2.187   9.759
 5614SOL    HW117174   3.152   2.113   9.748
 5614SOL    HW217175   3.107   2.237   9.843
 5615SOL     OW17176   3.592   2.796  10.827
 5615SOL    HW117177   3.630   2.887  10.842
 5615SOL    HW217178   3.584   2.779  10.728
 5616SOL     OW17179   2.721   3.236   9.326
 5616SOL    HW117180   2.675   3.251   9.414
 5616SOL    HW217181   2.765   3.321   9.296
 5617SOL     OW17182   2.523   3.652  10.263
 5617SOL    HW117183   2.477   3.740  10.250
 5617SOL    HW217184   2.622   3.664  10.256
 5618SOL     OW17185   2.721   2.818  10.171
 5618SOL    HW117186   2.775   2.749  10.219
 5618SOL    HW217187   2.689   2.887  10.237
 5619SOL     OW17188   2.945   2.846   9.397
 5619SOL    HW117189   2.922   2.899   9.315
 5619SOL    HW217190   3.026   2.790   9.378
 5620SOL     OW17191   3.723   3.431  10.161
 5620SOL    HW117192   3.652   3.419  10.091
 5620SOL    HW217193   3.724   3.352  10.221
 5621SOL     OW17194   1.941   3.102   9.963
 5621SOL    HW117195   1.940   3.055  10.051
 5621SOL    HW217196   2.023   3.074   9.912
 5622SOL     OW17197   3.686   2.054  10.537
 5622SOL    HW117198   3.682   1.964  10.581
 5622SOL    HW217199   3.689   2.043  10.438
 5623SOL     OW17200   2.290   2.286   9.830
 5623SOL    HW117201   2.320   2.214   9.768
 5623SOL    HW217202   2.251   2.246   9.913
 5624SOL     OW17203   3.567   3.349  10.414
 5624SOL    HW117204   3.474   3.324  10.387
 5624SOL    HW217205   3.593   3.299  10.496
 5625SOL     OW17206   2.179   2.409  10.590
 5625SOL    HW117207   2.217   2.350  10.662
 5625SOL    HW217208   2.219   2.383  10.502
 5626SOL     OW17209   2.674   3.448   9.997
 5626SOL    HW117210   2.706   3.458   9.903
 5626SOL    HW217211   2.595   3.386   9.999
 5627SOL     OW17212   3.286   2.076  10.422
 5627SOL    HW117213   3.338   2.011  10.477
 5627SOL    HW217214   3.237   2.139  10.483
 5628SOL     OW17215   2.863   1.896  10.464
 5628SOL    HW117216   2.800   1.824  10.433
 5628SOL    HW217217   2.956   1.860  10.464
 5629SOL     OW17218   2.632   3.192   9.611
 5629SOL    HW117219   2.586   3.105   9.628
 5629SOL    HW217220   2.723   3.189   9.652
 5630SOL     OW17221   2.480   3.429  10.594
 5630SOL    HW117222   2.475   3.511  10.651
 5630SOL    HW217223   2.569   3.426  10.549
 5631SOL     OW17224   3.214   1.914   9.478
 5631SOL    HW117225   3.249   1.873   9.394
 5631SOL    HW217226   3.124   1.876   9.498
 5632SOL     OW17227   3.162   2.315  10.001
 5632SOL    HW117228   3.103   2.395  10.005
 5632SOL    HW217229   3.177   2.280  10.094
 5633SOL     OW17230   3.455   2.083  10.192
 5633SOL    HW117231   3.371   2.082  10.246
 5633SOL    HW217232   3.457   2.166  10.136
 5634SOL     OW17233   1.901   2.939   9.610
 5634SOL    HW117234   2.000   2.928   9.601
 5634SOL    HW217235   1.861   2.853   9.642
 5635SOL     OW17236   2.737   3.508   9.647
 5635SOL    HW117237   2.660   3.473   9.593
 5635SOL    HW217238   2.705   3.579   9.709
 5636SOL     OW17239   2.092   4.352   0.113
 5636SOL    HW117240   1.999   4.350   0.150
 5636SOL    HW217241   2.093   4.313   0.021
 5637SOL     OW17242   2.087   3.999   0.996
 5637SOL    HW117243   2.122   3.982   1.088
 5637SOL    HW217244   1.999   3.954   0.984
 5638SOL     OW17245   1.881   4.092   0.647
 5638SOL    HW117246   1.799   4.135   0.686
 5638SOL    HW217247   1.853   4.019   0.584
 5639SOL     OW17248   2.997   4.427   0.717
 5639SOL    HW117249   3.054   4.505   0.692
 5639SOL    HW217250   2.937   4.453   0.793
 5640SOL     OW17251   3.617   4.331   0.231
 5640SOL    HW117252   3.605   4.318   0.132
 5640SOL    HW217253   3.587   4.250   0.280
 5641SOL     OW17254   2.630   4.868   1.023
 5641SOL    HW117255   2.552   4.885   1.083
 5641SOL    HW217256   2.664   4.955   0.987
 5642SOL     OW17257   2.712   4.522   1.823
 5642SOL    HW117258   2.708   4.598   1.888
 5642SOL    HW217259   2.734   4.558   1.732
 5643SOL     OW17260   2.547   4.736   0.665
 5643SOL    HW117261   2.616   4.720   0.735
 5643SOL    HW217262   2.474   4.793   0.703
 5644SOL     OW17263   2.548   4.885   1.803
 5644SOL    HW117264   2.608   4.964   1.817
 5644SOL    HW217265   2.462   4.916   1.762
 5645SOL     OW17266   2.300   4.116   1.499
 5645SOL    HW117267   2.382   4.060   1.508
 5645SOL    HW217268   2.219   4.058   1.503
 5646SOL     OW17269   3.465   4.171   0.737
 5646SOL    HW117270   3.391   4.217   0.687
 5646SOL    HW217271   3.516   4.239   0.790
 5647SOL     OW17272   2.102   4.815   0.886
 5647SOL    HW117273   2.116   4.731   0.938
 5647SOL    HW217274   2.047   4.879   0.941
 5648SOL     OW17275   2.468   4.688   0.123
 5648SOL    HW117276   2.475   4.772   0.069
 5648SOL    HW217277   2.514   4.701   0.211
 5649SOL     OW17278   3.456   3.838   1.480
 5649SOL    HW117279   3.438   3.905   1.408
 5649SOL    HW217280   3.453   3.884   1.569
 5650SOL     OW17281   1.984   4.367   0.563
 5650SOL    HW117282   1.939   4.279   0.580
 5650SOL    HW217283   1.983   4.421   0.647
 5651SOL     OW17284   3.551   4.646   0.612
 5651SOL    HW117285   3.646   4.617   0.620
 5651SOL    HW217286   3.543   4.711   0.537
 5652SOL     OW17287   3.503   4.832   0.432
 5652SOL    HW117288   3.589   4.834   0.380
 5652SOL    HW217289   3.517   4.879   0.520
 5653SOL     OW17290   1.975   4.461   1.597
 5653SOL    HW117291   2.063   4.448   1.642
 5653SOL    HW217292   1.962   4.558   1.575
 5654SOL     OW17293   3.155   4.952   1.423
 5654SOL    HW117294   3.192   4.879   1.365
 5654SOL    HW217295   3.207   4.957   1.508
 5655SOL     OW17296   2.671   3.728   0.502
 5655SOL    HW117297   2.711   3.819   0.493
 5655SOL    HW217298   2.571   3.736   0.508
 5656SOL     OW17299   2.059   4.700   1.264
 5656SOL    HW117300   2.148   4.655   1.250
 5656SOL    HW217301   1.986   4.635   1.245
 5657SOL     OW17302   3.387   4.723   0.190
 5657SOL    HW117303   3.324   4.647   0.203
 5657SOL    HW217304   3.435   4.741   0.276
 5658SOL     OW17305   2.179   3.975   1.801
 5658SOL    HW117306   2.250   4.046   1.807
 5658SOL    HW217307   2.091   4.014   1.829
 5659SOL     OW17308   2.460   4.453   0.270
 5659SOL    HW117309   2.484   4.522   0.202
 5659SOL    HW217310   2.382   4.486   0.324
 5660SOL     OW17311   3.143   4.069   0.944
 5660SOL    HW117312   3.057   4.019   0.931
 5660SOL    HW217313   3.205   4.015   1.000
 5661SOL     OW17314   2.669   4.329   1.465
 5661SOL    HW117315   2.622   4.326   1.554
 5661SOL    HW217316   2.618   4.274   1.399
 5662SOL     OW17317   3.256   4.193   1.674
 5662SOL    HW117318   3.236   4.236   1.762
 5662SOL    HW217319   3.334   4.131   1.683
 5663SOL     OW17320   2.835   4.614   1.572
 5663SOL    HW117321   2.881   4.530   1.543
 5663SOL    HW217322   2.779   4.648   1.497
 5664SOL     OW17323   2.853   4.134   1.242
 5664SOL    HW117324   2.776   4.168   1.296
 5664SOL    HW217325   2.819   4.083   1.163
 5665SOL     OW17326   2.903   4.425   0.429
 5665SOL    HW117327   2.929   4.421   0.525
 5665SOL    HW217328   2.818   4.374   0.415
 5666SOL     OW17329   1.938   4.535   0.789
 5666SOL    HW117330   2.037   4.523   0.798
 5666SOL    HW217331   1.914   4.630   0.810
 5667SOL     OW17332   2.727   4.072   0.195
 5667SOL    HW117333   2.786   4.135   0.146
 5667SOL    HW217334   2.746   3.978   0.166
 5668SOL     OW17335   3.581   4.309   1.831
 5668SOL    HW117336   3.555   4.398   1.795
 5668SOL    HW217337   3.579   4.241   1.758
 5669SOL     OW17338   3.224   4.868   0.545
 5669SOL    HW117339   3.307   4.839   0.497
 5669SOL    HW217340   3.175   4.935   0.489
 5670SOL     OW17341   2.412   3.920   0.885
 5670SOL    HW117342   2.407   3.915   0.985
 5670SOL    HW217343   2.414   4.016   0.856
 5671SOL     OW17344   3.657   4.790   0.873
 5671SOL    HW117345   3.595   4.775   0.797
 5671SOL    HW217346   3.605   4.801   0.958
 5672SOL     OW17347   2.183   4.667   0.242
 5672SOL    HW117348   2.265   4.706   0.200
 5672SOL    HW217349   2.156   4.585   0.193
 5673SOL     OW17350   3.320   4.459   0.728
 5673SOL    HW117351   3.315   4.394   0.803
 5673SOL    HW217352   3.400   4.518   0.741
 5674SOL     OW17353   2.064   4.009   1.498
 5674SOL    HW117354   1.984   4.069   1.485
 5674SOL    HW217355   2.054   3.960   1.584
 5675SOL     OW17356   3.262   3.831   0.426
 5675SOL    HW117357   3.238   3.794   0.336
 5675SOL    HW217358   3.361   3.847   0.430
 5676SOL     OW17359   2.244   4.424   0.480
 5676SOL    HW117360   2.289   4.334   0.477
 5676SOL    HW217361   2.150   4.413   0.513
 5677SOL     OW17362   3.409   3.946   1.729
 5677SOL    HW117363   3.404   3.983   1.821
 5677SOL    HW217364   3.337   3.877   1.717
 5678SOL     OW17365   2.643   3.988   1.749
 5678SOL    HW117366   2.710   3.927   1.792
 5678SOL    HW217367   2.570   4.007   1.814
 5679SOL     OW17368   3.213   4.314   1.433
 5679SOL    HW117369   3.241   4.271   1.518
 5679SOL    HW217370   3.238   4.410   1.434
 5680SOL     OW17371   2.784   4.227   0.899
 5680SOL    HW117372   2.759   4.218   0.803
 5680SOL    HW217373   2.832   4.145   0.930
 5681SOL     OW17374   2.401   3.788   0.512
 5681SOL    HW117375   2.320   3.789   0.570
 5681SOL    HW217376   2.404   3.871   0.457
 5682SOL     OW17377   2.159   3.759   0.171
 5682SOL    HW117378   2.208   3.843   0.150
 5682SOL    HW217379   2.221   3.694   0.216
 5683SOL     OW17380   2.797   3.960   0.480
 5683SOL    HW117381   2.749   4.001   0.402
 5683SOL    HW217382   2.896   3.958   0.461
 5684SOL     OW17383   2.938   4.407   1.464
 5684SOL    HW117384   2.858   4.346   1.467
 5684SOL    HW217385   3.019   4.354   1.440
 5685SOL     OW17386   2.321   4.876   0.741
 5685SOL    HW117387   2.250   4.849   0.806
 5685SOL    HW217388   2.295   4.848   0.648
 5686SOL     OW17389   2.894   4.273   0.016
 5686SOL    HW117390   2.853   4.355  -0.023
 5686SOL    HW217391   2.958   4.299   0.089
 5687SOL     OW17392   1.940   4.280   1.386
 5687SOL    HW117393   2.032   4.279   1.345
 5687SOL    HW217394   1.934   4.354   1.453
 5688SOL     OW17395   2.423   3.946   1.147
 5688SOL    HW117396   2.461   3.862   1.184
 5688SOL    HW217397   2.335   3.965   1.191
 5689SOL     OW17398   2.728   4.178   0.642
 5689SOL    HW117399   2.696   4.250   0.580
 5689SOL    HW217400   2.752   4.097   0.589
 5690SOL     OW17401   2.879   3.763   0.753
 5690SOL    HW117402   2.807   3.768   0.684
 5690SOL    HW217403   2.855   3.694   0.822
 5691SOL     OW17404   3.291   4.897   0.867
 5691SOL    HW117405   3.236   4.813   0.860
 5691SOL    HW217406   3.317   4.926   0.775
 5692SOL     OW17407   3.328   4.314   0.992
 5692SOL    HW117408   3.298   4.219   0.999
 5692SOL    HW217409   3.401   4.330   1.058
 5693SOL     OW17410   3.719   4.557   0.377
 5693SOL    HW117411   3.761   4.493   0.441
 5693SOL    HW217412   3.681   4.506   0.299
 5694SOL     OW17413   3.252   4.299   0.078
 5694SOL    HW117414   3.198   4.278   0.159
 5694SOL    HW217415   3.343   4.258   0.087
 5695SOL     OW17416   2.389   3.980   0.328
 5695SOL    HW117417   2.416   3.921   0.253
 5695SOL    HW217418   2.389   4.075   0.297
 5696SOL     OW17419   3.616   4.947   1.588
 5696SOL    HW117420   3.707   4.908   1.575
 5696SOL    HW217421   3.624   5.043   1.612
 5697SOL     OW17422   3.500   4.823   1.079
 5697SOL    HW117423   3.505   4.904   1.138
 5697SOL    HW217424   3.414   4.825   1.028
 5698SOL     OW17425   2.777   3.813   1.402
 5698SOL    HW117426   2.802   3.793   1.307
 5698SOL    HW217427   2.849   3.869   1.444
 5699SOL     OW17428   2.842   4.840   1.719
 5699SOL    HW117429   2.743   4.846   1.729
 5699SOL    HW217430   2.865   4.760   1.663
 5700SOL     OW17431   2.567   4.774   0.368
 5700SOL    HW117432   2.553   4.781   0.467
 5700SOL    HW217433   2.651   4.723   0.350
 5701SOL     OW17434   2.272   4.537   1.251
 5701SOL    HW117435   2.358   4.549   1.301
 5701SOL    HW217436   2.230   4.450   1.278
 5702SOL     OW17437   3.136   4.110   1.262
 5702SOL    HW117438   3.157   4.184   1.326
 5702SOL    HW217439   3.047   4.127   1.219
 5703SOL     OW17440   2.229   4.824   0.501
 5703SOL    HW117441   2.222   4.907   0.445
 5703SOL    HW217442   2.233   4.744   0.441
 5704SOL     OW17443   2.428   4.261   0.865
 5704SOL    HW117444   2.440   4.327   0.791
 5704SOL    HW217445   2.474   4.295   0.948
 5705SOL     OW17446   3.444   4.363   0.472
 5705SOL    HW117447   3.413   4.424   0.545
 5705SOL    HW217448   3.494   4.415   0.403
 5706SOL     OW17449   2.264   4.475   1.598
 5706SOL    HW117450   2.332   4.530   1.551
 5706SOL    HW217451   2.304   4.387   1.625
 5707SOL     OW17452   3.449   4.503   1.670
 5707SOL    HW117453   3.357   4.541   1.665
 5707SOL    HW217454   3.509   4.550   1.605
 5708SOL     OW17455   2.875   3.829   1.770
 5708SOL    HW117456   2.881   3.914   1.718
 5708SOL    HW217457   2.907   3.753   1.713
 5709SOL     OW17458   2.366   3.774   1.740
 5709SOL    HW117459   2.324   3.717   1.670
 5709SOL    HW217460   2.300   3.843   1.772
 5710SOL     OW17461   2.435   4.594   1.029
 5710SOL    HW117462   2.479   4.683   1.020
 5710SOL    HW217463   2.372   4.594   1.106
 5711SOL     OW17464   3.222   4.586   1.045
 5711SOL    HW117465   3.147   4.586   0.979
 5711SOL    HW217466   3.259   4.494   1.054
 5712SOL     OW17467   3.071   4.249   0.275
 5712SOL    HW117468   3.084   4.165   0.329
 5712SOL    HW217469   3.042   4.323   0.335
 5713SOL     OW17470   2.169   3.937   1.231
 5713SOL    HW117471   2.146   3.974   1.321
 5713SOL    HW217472   2.139   3.842   1.225
 5714SOL     OW17473   2.594   4.358   1.064
 5714SOL    HW117474   2.653   4.332   0.988
 5714SOL    HW217475   2.566   4.454   1.053
 5715SOL     OW17476   3.590   4.659   1.854
 5715SOL    HW117477   3.544   4.652   1.765
 5715SOL    HW217478   3.528   4.703   1.920
 5716SOL     OW17479   2.169   3.787   0.618
 5716SOL    HW117480   2.158   3.881   0.651
 5716SOL    HW217481   2.164   3.724   0.695
 5717SOL     OW17482   3.484   4.091   0.374
 5717SOL    HW117483   3.486   4.015   0.438
 5717SOL    HW217484   3.436   4.168   0.414
 5718SOL     OW17485   2.885   4.490   0.966
 5718SOL    HW117486   2.900   4.511   1.062
 5718SOL    HW217487   2.855   4.395   0.957
 5719SOL     OW17488   2.212   4.622   1.804
 5719SOL    HW117489   2.288   4.666   1.852
 5719SOL    HW217490   2.247   4.575   1.722
 5720SOL     OW17491   3.402   3.998   0.125
 5720SOL    HW117492   3.341   3.923   0.148
 5720SOL    HW217493   3.424   4.050   0.208
 5721SOL     OW17494   3.165   4.562   0.042
 5721SOL    HW117495   3.199   4.469   0.057
 5721SOL    HW217496   3.183   4.589  -0.053
 5722SOL     OW17497   2.181   4.534   0.949
 5722SOL    HW117498   2.274   4.570   0.954
 5722SOL    HW217499   2.175   4.449   1.001
 5723SOL     OW17500   2.201   4.233   1.006
 5723SOL    HW117501   2.149   4.150   0.989
 5723SOL    HW217502   2.278   4.238   0.942
 5724SOL     OW17503   3.000   4.104   1.678
 5724SOL    HW117504   2.955   4.167   1.742
 5724SOL    HW217505   3.093   4.135   1.661
 5725SOL     OW17506   3.022   3.931   1.477
 5725SOL    HW117507   3.022   3.995   1.554
 5725SOL    HW217508   3.050   3.979   1.394
 5726SOL     OW17509   1.870   5.050   0.200
 5726SOL    HW117510   1.777   5.071   0.169
 5726SOL    HW217511   1.880   4.951   0.213
 5727SOL     OW17512   2.864   4.520   1.238
 5727SOL    HW117513   2.905   4.488   1.324
 5727SOL    HW217514   2.768   4.493   1.235
 5728SOL     OW17515   1.902   4.268   1.114
 5728SOL    HW117516   1.987   4.235   1.073
 5728SOL    HW217517   1.915   4.283   1.212
 5729SOL     OW17518   2.051   4.244   1.722
 5729SOL    HW117519   2.110   4.204   1.652
 5729SOL    HW217520   1.993   4.315   1.681
 5730SOL     OW17521   3.231   4.674   1.660
 5730SOL    HW117522   3.270   4.763   1.680
 5730SOL    HW217523   3.241   4.654   1.563
 5731SOL     OW17524   2.677   4.296   0.325
 5731SOL    HW117525   2.684   4.207   0.279
 5731SOL    HW217526   2.583   4.330   0.317
 5732SOL     OW17527   3.519   4.328   1.206
 5732SOL    HW117528   3.481   4.259   1.268
 5732SOL    HW217529   3.601   4.292   1.162
 5733SOL     OW17530   2.533   4.188   1.269
 5733SOL    HW117531   2.499   4.099   1.239
 5733SOL    HW217532   2.559   4.242   1.189
 5734SOL     OW17533   2.335   4.224   0.191
 5734SOL    HW117534   2.396   4.304   0.195
 5734SOL    HW217535   2.240   4.255   0.198
 5735SOL     OW17536   2.021   4.861   1.466
 5735SOL    HW117537   2.043   4.800   1.542
 5735SOL    HW217538   2.031   4.812   1.380
 5736SOL     OW17539   3.209   4.783   1.234
 5736SOL    HW117540   3.233   4.720   1.160
 5736SOL    HW217541   3.119   4.823   1.216
 5737SOL     OW17542   3.164   4.579   0.309
 5737SOL    HW117543   3.078   4.548   0.351
 5737SOL    HW217544   3.160   4.565   0.210
 5738SOL     OW17545   1.945   4.982   1.022
 5738SOL    HW117546   1.940   4.981   1.122
 5738SOL    HW217547   1.862   4.941   0.984
 5739SOL     OW17548   2.765   3.810   0.133
 5739SOL    HW117549   2.816   3.811   0.047
 5739SOL    HW217550   2.821   3.768   0.204
 5740SOL     OW17551   3.588   3.859   0.523
 5740SOL    HW117552   3.661   3.842   0.456
 5740SOL    HW217553   3.557   3.772   0.561
 5741SOL     OW17554   3.142   4.651   0.672
 5741SOL    HW117555   3.202   4.570   0.674
 5741SOL    HW217556   3.182   4.720   0.612
 5742SOL     OW17557   3.703   3.899   0.963
 5742SOL    HW117558   3.742   3.814   0.927
 5742SOL    HW217559   3.605   3.901   0.944
 5743SOL     OW17560   2.125   4.050   0.720
 5743SOL    HW117561   2.046   4.101   0.686
 5743SOL    HW217562   2.116   4.035   0.818
 5744SOL     OW17563   2.684   4.726   1.372
 5744SOL    HW117564   2.724   4.725   1.280
 5744SOL    HW217565   2.694   4.818   1.412
 5745SOL     OW17566   2.778   4.634   0.291
 5745SOL    HW117567   2.841   4.672   0.223
 5745SOL    HW217568   2.818   4.551   0.330
 5746SOL     OW17569   2.234   5.012   1.490
 5746SOL    HW117570   2.221   5.105   1.456
 5746SOL    HW217571   2.150   4.960   1.477
 5747SOL     OW17572   3.476   5.016   1.289
 5747SOL    HW117573   3.536   5.019   1.369
 5747SOL    HW217574   3.401   5.080   1.302
 5748SOL     OW17575   2.901   4.822   0.696
 5748SOL    HW117576   2.831   4.775   0.750
 5748SOL    HW217577   2.960   4.754   0.653
 5749SOL     OW17578   2.876   3.960   0.971
 5749SOL    HW117579   2.868   3.924   0.878
 5749SOL    HW217580   2.874   3.884   1.036
 5750SOL     OW17581   3.571   4.109   1.381
 5750SOL    HW117582   3.644   4.178   1.385
 5750SOL    HW217583   3.599   4.034   1.322
 5751SOL     OW17584   1.967   4.737   1.726
 5751SOL    HW117585   1.890   4.704   1.780
 5751SOL    HW217586   2.052   4.707   1.768
 5752SOL     OW17587   2.534   3.927   1.489
 5752SOL    HW117588   2.624   3.911   1.449
 5752SOL    HW217589   2.542   3.932   1.588
 5753SOL     OW17590   1.937   4.069   0.033
 5753SOL    HW117591   1.845   4.041   0.004
 5753SOL    HW217592   1.968   4.146  -0.023
 5754SOL     OW17593   3.302   4.580   1.398
 5754SOL    HW117594   3.245   4.632   1.335
 5754SOL    HW217595   3.398   4.592   1.374
 5755SOL     OW17596   1.934   3.890   0.318
 5755SOL    HW117597   1.917   3.973   0.264
 5755SOL    HW217598   2.024   3.853   0.296
 5756SOL     OW17599   2.475   4.566   1.431
 5756SOL    HW117600   2.531   4.647   1.414
 5756SOL    HW217601   2.534   4.486   1.434
 5757SOL     OW17602   2.578   4.289   1.708
 5757SOL    HW117603   2.597   4.354   1.782
 5757SOL    HW217604   2.638   4.209   1.717
 5758SOL     OW17605   3.312   4.944   1.633
 5758SOL    HW117606   3.303   4.934   1.732
 5758SOL    HW217607   3.408   4.937   1.607
 5759SOL     OW17608   3.536   4.607   1.254
 5759SOL    HW117609   3.509   4.518   1.217
 5759SOL    HW217610   3.537   4.675   1.181
 5760SOL     OW17611   3.087   4.049   0.449
 5760SOL    HW117612   3.152   3.975   0.438
 5760SOL    HW217613   3.107   4.099   0.533
 5761SOL     OW17614   2.456   4.469   0.652
 5761SOL    HW117615   2.506   4.554   0.633
 5761SOL    HW217616   2.368   4.471   0.604
 5762SOL     OW17617   3.639   4.066   1.642
 5762SOL    HW117618   3.622   4.097   1.548
 5762SOL    HW217619   3.555   4.029   1.680
 5763SOL     OW17620   3.592   4.658   1.517
 5763SOL    HW117621   3.630   4.749   1.532
 5763SOL    HW217622   3.584   4.641   1.418
 5764SOL     OW17623   2.721   4.680   0.861
 5764SOL    HW117624   2.775   4.611   0.909
 5764SOL    HW217625   2.689   4.749   0.927
 5765SOL     OW17626   2.945   4.708   0.087
 5765SOL    HW117627   2.922   4.761   0.005
 5765SOL    HW217628   3.026   4.652   0.068
 5766SOL     OW17629   1.941   4.964   0.653
 5766SOL    HW117630   1.940   4.917   0.741
 5766SOL    HW217631   2.023   4.936   0.602
 5767SOL     OW17632   3.686   3.916   1.227
 5767SOL    HW117633   3.682   3.826   1.271
 5767SOL    HW217634   3.689   3.905   1.128
 5768SOL     OW17635   2.290   4.148   0.520
 5768SOL    HW117636   2.320   4.076   0.458
 5768SOL    HW217637   2.251   4.108   0.603
 5769SOL     OW17638   2.179   4.271   1.280
 5769SOL    HW117639   2.217   4.212   1.352
 5769SOL    HW217640   2.219   4.245   1.192
 5770SOL     OW17641   3.286   3.938   1.112
 5770SOL    HW117642   3.338   3.873   1.167
 5770SOL    HW217643   3.237   4.001   1.173
 5771SOL     OW17644   2.863   3.758   1.154
 5771SOL    HW117645   2.800   3.686   1.123
 5771SOL    HW217646   2.956   3.722   1.154
 5772SOL     OW17647   2.632   5.054   0.301
 5772SOL    HW117648   2.586   4.967   0.318
 5772SOL    HW217649   2.723   5.051   0.342
 5773SOL     OW17650   3.214   3.776   0.168
 5773SOL    HW117651   3.249   3.735   0.084
 5773SOL    HW217652   3.124   3.738   0.188
 5774SOL     OW17653   3.162   4.177   0.691
 5774SOL    HW117654   3.103   4.257   0.695
 5774SOL    HW217655   3.177   4.142   0.784
 5775SOL     OW17656   3.455   3.945   0.882
 5775SOL    HW117657   3.371   3.944   0.936
 5775SOL    HW217658   3.457   4.028   0.826
 5776SOL     OW17659   1.901   4.801   0.300
 5776SOL    HW117660   2.000   4.790   0.291
 5776SOL    HW217661   1.861   4.715   0.332
 5777SOL     OW17662   2.092   4.352   1.975
 5777SOL    HW117663   1.999   4.350   2.012
 5777SOL    HW217664   2.093   4.313   1.883
 5778SOL     OW17665   2.087   3.999   2.858
 5778SOL    HW117666   2.122   3.982   2.950
 5778SOL    HW217667   1.999   3.954   2.846
 5779SOL     OW17668   1.881   4.092   2.509
 5779SOL    HW117669   1.799   4.135   2.548
 5779SOL    HW217670   1.853   4.019   2.446
 5780SOL     OW17671   2.997   4.427   2.579
 5780SOL    HW117672   3.054   4.505   2.554
 5780SOL    HW217673   2.937   4.453   2.655
 5781SOL     OW17674   3.617   4.331   2.093
 5781SOL    HW117675   3.605   4.318   1.994
 5781SOL    HW217676   3.587   4.250   2.142
 5782SOL     OW17677   2.630   4.868   2.885
 5782SOL    HW117678   2.552   4.885   2.945
 5782SOL    HW217679   2.664   4.955   2.849
 5783SOL     OW17680   2.712   4.522   3.685
 5783SOL    HW117681   2.708   4.598   3.750
 5783SOL    HW217682   2.734   4.558   3.594
 5784SOL     OW17683   2.547   4.736   2.527
 5784SOL    HW117684   2.616   4.720   2.597
 5784SOL    HW217685   2.474   4.793   2.565
 5785SOL     OW17686   2.548   4.885   3.665
 5785SOL    HW117687   2.608   4.964   3.679
 5785SOL    HW217688   2.462   4.916   3.624
 5786SOL     OW17689   2.300   4.116   3.361
 5786SOL    HW117690   2.382   4.060   3.370
 5786SOL    HW217691   2.219   4.058   3.365
 5787SOL     OW17692   3.465   4.171   2.599
 5787SOL    HW117693   3.391   4.217   2.549
 5787SOL    HW217694   3.516   4.239   2.652
 5788SOL     OW17695   2.102   4.815   2.748
 5788SOL    HW117696   2.116   4.731   2.800
 5788SOL    HW217697   2.047   4.879   2.803
 5789SOL     OW17698   2.468   4.688   1.985
 5789SOL    HW117699   2.475   4.772   1.931
 5789SOL    HW217700   2.514   4.701   2.073
 5790SOL     OW17701   3.456   3.838   3.342
 5790SOL    HW117702   3.438   3.905   3.270
 5790SOL    HW217703   3.453   3.884   3.431
 5791SOL     OW17704   1.984   4.367   2.425
 5791SOL    HW117705   1.939   4.279   2.442
 5791SOL    HW217706   1.983   4.421   2.509
 5792SOL     OW17707   3.551   4.646   2.474
 5792SOL    HW117708   3.646   4.617   2.482
 5792SOL    HW217709   3.543   4.711   2.399
 5793SOL     OW17710   3.503   4.832   2.294
 5793SOL    HW117711   3.589   4.834   2.242
 5793SOL    HW217712   3.517   4.879   2.382
 5794SOL     OW17713   1.975   4.461   3.459
 5794SOL    HW117714   2.063   4.448   3.504
 5794SOL    HW217715   1.962   4.558   3.437
 5795SOL     OW17716   3.155   4.952   3.285
 5795SOL    HW117717   3.192   4.879   3.227
 5795SOL    HW217718   3.207   4.957   3.370
 5796SOL     OW17719   2.671   3.728   2.364
 5796SOL    HW117720   2.711   3.819   2.355
 5796SOL    HW217721   2.571   3.736   2.370
 5797SOL     OW17722   2.059   4.700   3.126
 5797SOL    HW117723   2.148   4.655   3.112
 5797SOL    HW217724   1.986   4.635   3.107
 5798SOL     OW17725   3.387   4.723   2.052
 5798SOL    HW117726   3.324   4.647   2.065
 5798SOL    HW217727   3.435   4.741   2.138
 5799SOL     OW17728   2.179   3.975   3.663
 5799SOL    HW117729   2.250   4.046   3.669
 5799SOL    HW217730   2.091   4.014   3.691
 5800SOL     OW17731   2.460   4.453   2.132
 5800SOL    HW117732   2.484   4.522   2.064
 5800SOL    HW217733   2.382   4.486   2.186
 5801SOL     OW17734   3.143   4.069   2.806
 5801SOL    HW117735   3.057   4.019   2.793
 5801SOL    HW217736   3.205   4.015   2.862
 5802SOL     OW17737   2.669   4.329   3.327
 5802SOL    HW117738   2.622   4.326   3.416
 5802SOL    HW217739   2.618   4.274   3.261
 5803SOL     OW17740   3.256   4.193   3.536
 5803SOL    HW117741   3.236   4.236   3.624
 5803SOL    HW217742   3.334   4.131   3.545
 5804SOL     OW17743   2.835   4.614   3.434
 5804SOL    HW117744   2.881   4.530   3.405
 5804SOL    HW217745   2.779   4.648   3.359
 5805SOL     OW17746   2.853   4.134   3.104
 5805SOL    HW117747   2.776   4.168   3.158
 5805SOL    HW217748   2.819   4.083   3.025
 5806SOL     OW17749   2.903   4.425   2.291
 5806SOL    HW117750   2.929   4.421   2.387
 5806SOL    HW217751   2.818   4.374   2.277
 5807SOL     OW17752   1.938   4.535   2.651
 5807SOL    HW117753   2.037   4.523   2.660
 5807SOL    HW217754   1.914   4.630   2.672
 5808SOL     OW17755   2.727   4.072   2.057
 5808SOL    HW117756   2.786   4.135   2.008
 5808SOL    HW217757   2.746   3.978   2.028
 5809SOL     OW17758   3.581   4.309   3.693
 5809SOL    HW117759   3.555   4.398   3.657
 5809SOL    HW217760   3.579   4.241   3.620
 5810SOL     OW17761   3.224   4.868   2.407
 5810SOL    HW117762   3.307   4.839   2.359
 5810SOL    HW217763   3.175   4.935   2.351
 5811SOL     OW17764   2.412   3.920   2.747
 5811SOL    HW117765   2.407   3.915   2.847
 5811SOL    HW217766   2.414   4.016   2.718
 5812SOL     OW17767   3.657   4.790   2.735
 5812SOL    HW117768   3.595   4.775   2.659
 5812SOL    HW217769   3.605   4.801   2.820
 5813SOL     OW17770   2.183   4.667   2.104
 5813SOL    HW117771   2.265   4.706   2.062
 5813SOL    HW217772   2.156   4.585   2.055
 5814SOL     OW17773   3.320   4.459   2.590
 5814SOL    HW117774   3.315   4.394   2.665
 5814SOL    HW217775   3.400   4.518   2.603
 5815SOL     OW17776   2.064   4.009   3.360
 5815SOL    HW117777   1.984   4.069   3.347
 5815SOL    HW217778   2.054   3.960   3.446
 5816SOL     OW17779   3.262   3.831   2.288
 5816SOL    HW117780   3.238   3.794   2.198
 5816SOL    HW217781   3.361   3.847   2.292
 5817SOL     OW17782   2.244   4.424   2.342
 5817SOL    HW117783   2.289   4.334   2.339
 5817SOL    HW217784   2.150   4.413   2.375
 5818SOL     OW17785   3.409   3.946   3.591
 5818SOL    HW117786   3.404   3.983   3.683
 5818SOL    HW217787   3.337   3.877   3.579
 5819SOL     OW17788   2.476   3.846   1.979
 5819SOL    HW117789   2.574   3.824   1.986
 5819SOL    HW217790   2.445   3.829   1.886
 5820SOL     OW17791   2.643   3.988   3.611
 5820SOL    HW117792   2.710   3.927   3.654
 5820SOL    HW217793   2.570   4.007   3.676
 5821SOL     OW17794   3.213   4.314   3.295
 5821SOL    HW117795   3.241   4.271   3.380
 5821SOL    HW217796   3.238   4.410   3.296
 5822SOL     OW17797   2.784   4.227   2.761
 5822SOL    HW117798   2.759   4.218   2.665
 5822SOL    HW217799   2.832   4.145   2.792
 5823SOL     OW17800   2.401   3.788   2.374
 5823SOL    HW117801   2.320   3.789   2.432
 5823SOL    HW217802   2.404   3.871   2.319
 5824SOL     OW17803   2.159   3.759   2.033
 5824SOL    HW117804   2.208   3.843   2.012
 5824SOL    HW217805   2.221   3.694   2.078
 5825SOL     OW17806   2.797   3.960   2.342
 5825SOL    HW117807   2.749   4.001   2.264
 5825SOL    HW217808   2.896   3.958   2.323
 5826SOL     OW17809   2.938   4.407   3.326
 5826SOL    HW117810   2.858   4.346   3.329
 5826SOL    HW217811   3.019   4.354   3.302
 5827SOL     OW17812   2.321   4.876   2.603
 5827SOL    HW117813   2.250   4.849   2.668
 5827SOL    HW217814   2.295   4.848   2.510
 5828SOL     OW17815   2.894   4.273   1.878
 5828SOL    HW117816   2.853   4.355   1.839
 5828SOL    HW217817   2.958   4.299   1.951
 5829SOL     OW17818   1.940   4.280   3.248
 5829SOL    HW117819   2.032   4.279   3.207
 5829SOL    HW217820   1.934   4.354   3.315
 5830SOL     OW17821   2.423   3.946   3.009
 5830SOL    HW117822   2.461   3.862   3.046
 5830SOL    HW217823   2.335   3.965   3.053
 5831SOL     OW17824   2.728   4.178   2.504
 5831SOL    HW117825   2.696   4.250   2.442
 5831SOL    HW217826   2.752   4.097   2.451
 5832SOL     OW17827   2.879   3.763   2.615
 5832SOL    HW117828   2.807   3.768   2.546
 5832SOL    HW217829   2.855   3.694   2.684
 5833SOL     OW17830   3.291   4.897   2.729
 5833SOL    HW117831   3.236   4.813   2.722
 5833SOL    HW217832   3.317   4.926   2.637
 5834SOL     OW17833   3.328   4.314   2.854
 5834SOL    HW117834   3.298   4.219   2.861
 5834SOL    HW217835   3.401   4.330   2.920
 5835SOL     OW17836   3.719   4.557   2.239
 5835SOL    HW117837   3.761   4.493   2.303
 5835SOL    HW217838   3.681   4.506   2.161
 5836SOL     OW17839   3.252   4.299   1.940
 5836SOL    HW117840   3.198   4.278   2.021
 5836SOL    HW217841   3.343   4.258   1.949
 5837SOL     OW17842   2.389   3.980   2.190
 5837SOL    HW117843   2.416   3.921   2.115
 5837SOL    HW217844   2.389   4.075   2.159
 5838SOL     OW17845   3.616   4.947   3.450
 5838SOL    HW117846   3.707   4.908   3.437
 5838SOL    HW217847   3.624   5.043   3.474
 5839SOL     OW17848   3.500   4.823   2.941
 5839SOL    HW117849   3.505   4.904   3.000
 5839SOL    HW217850   3.414   4.825   2.890
 5840SOL     OW17851   2.777   3.813   3.264
 5840SOL    HW117852   2.802   3.793   3.169
 5840SOL    HW217853   2.849   3.869   3.306
 5841SOL     OW17854   2.842   4.840   3.581
 5841SOL    HW117855   2.743   4.846   3.591
 5841SOL    HW217856   2.865   4.760   3.525
 5842SOL     OW17857   2.567   4.774   2.230
 5842SOL    HW117858   2.553   4.781   2.329
 5842SOL    HW217859   2.651   4.723   2.212
 5843SOL     OW17860   2.272   4.537   3.113
 5843SOL    HW117861   2.358   4.549   3.163
 5843SOL    HW217862   2.230   4.450   3.140
 5844SOL     OW17863   3.136   4.110   3.124
 5844SOL    HW117864   3.157   4.184   3.188
 5844SOL    HW217865   3.047   4.127   3.081
 5845SOL     OW17866   2.229   4.824   2.363
 5845SOL    HW117867   2.222   4.907   2.307
 5845SOL    HW217868   2.233   4.744   2.303
 5846SOL     OW17869   2.428   4.261   2.727
 5846SOL    HW117870   2.440   4.327   2.653
 5846SOL    HW217871   2.474   4.295   2.810
 5847SOL     OW17872   3.444   4.363   2.334
 5847SOL    HW117873   3.413   4.424   2.407
 5847SOL    HW217874   3.494   4.415   2.265
 5848SOL     OW17875   2.264   4.475   3.460
 5848SOL    HW117876   2.332   4.530   3.413
 5848SOL    HW217877   2.304   4.387   3.487
 5849SOL     OW17878   3.449   4.503   3.532
 5849SOL    HW117879   3.357   4.541   3.527
 5849SOL    HW217880   3.509   4.550   3.467
 5850SOL     OW17881   2.875   3.829   3.632
 5850SOL    HW117882   2.881   3.914   3.580
 5850SOL    HW217883   2.907   3.753   3.575
 5851SOL     OW17884   2.366   3.774   3.602
 5851SOL    HW117885   2.324   3.717   3.532
 5851SOL    HW217886   2.300   3.843   3.634
 5852SOL     OW17887   2.435   4.594   2.891
 5852SOL    HW117888   2.479   4.683   2.882
 5852SOL    HW217889   2.372   4.594   2.968
 5853SOL     OW17890   3.222   4.586   2.907
 5853SOL    HW117891   3.147   4.586   2.841
 5853SOL    HW217892   3.259   4.494   2.916
 5854SOL     OW17893   3.071   4.249   2.137
 5854SOL    HW117894   3.084   4.165   2.191
 5854SOL    HW217895   3.042   4.323   2.197
 5855SOL     OW17896   2.169   3.937   3.093
 5855SOL    HW117897   2.146   3.974   3.183
 5855SOL    HW217898   2.139   3.842   3.087
 5856SOL     OW17899   2.594   4.358   2.926
 5856SOL    HW117900   2.653   4.332   2.850
 5856SOL    HW217901   2.566   4.454   2.915
 5857SOL     OW17902   3.590   4.659   3.716
 5857SOL    HW117903   3.544   4.652   3.627
 5857SOL    HW217904   3.528   4.703   3.782
 5858SOL     OW17905   2.169   3.787   2.480
 5858SOL    HW117906   2.158   3.881   2.513
 5858SOL    HW217907   2.164   3.724   2.557
 5859SOL     OW17908   3.484   4.091   2.236
 5859SOL    HW117909   3.486   4.015   2.300
 5859SOL    HW217910   3.436   4.168   2.276
 5860SOL     OW17911   2.885   4.490   2.828
 5860SOL    HW117912   2.900   4.511   2.924
 5860SOL    HW217913   2.855   4.395   2.819
 5861SOL     OW17914   2.212   4.622   3.666
 5861SOL    HW117915   2.288   4.666   3.714
 5861SOL    HW217916   2.247   4.575   3.584
 5862SOL     OW17917   3.402   3.998   1.987
 5862SOL    HW117918   3.341   3.923   2.010
 5862SOL    HW217919   3.424   4.050   2.070
 5863SOL     OW17920   3.165   4.562   1.904
 5863SOL    HW117921   3.199   4.469   1.919
 5863SOL    HW217922   3.183   4.589   1.809
 5864SOL     OW17923   2.181   4.534   2.811
 5864SOL    HW117924   2.274   4.570   2.816
 5864SOL    HW217925   2.175   4.449   2.863
 5865SOL     OW17926   2.201   4.233   2.868
 5865SOL    HW117927   2.149   4.150   2.851
 5865SOL    HW217928   2.278   4.238   2.804
 5866SOL     OW17929   3.000   4.104   3.540
 5866SOL    HW117930   2.955   4.167   3.604
 5866SOL    HW217931   3.093   4.135   3.523
 5867SOL     OW17932   3.022   3.931   3.339
 5867SOL    HW117933   3.022   3.995   3.416
 5867SOL    HW217934   3.050   3.979   3.256
 5868SOL     OW17935   1.870   5.050   2.062
 5868SOL    HW117936   1.777   5.071   2.031
 5868SOL    HW217937   1.880   4.951   2.075
 5869SOL     OW17938   2.864   4.520   3.100
 5869SOL    HW117939   2.905   4.488   3.186
 5869SOL    HW217940   2.768   4.493   3.097
 5870SOL     OW17941   1.902   4.268   2.976
 5870SOL    HW117942   1.987   4.235   2.935
 5870SOL    HW217943   1.915   4.283   3.074
 5871SOL     OW17944   2.051   4.244   3.584
 5871SOL    HW117945   2.110   4.204   3.514
 5871SOL    HW217946   1.993   4.315   3.543
 5872SOL     OW17947   3.231   4.674   3.522
 5872SOL    HW117948   3.270   4.763   3.542
 5872SOL    HW217949   3.241   4.654   3.425
 5873SOL     OW17950   2.677   4.296   2.187
 5873SOL    HW117951   2.684   4.207   2.141
 5873SOL    HW217952   2.583   4.330   2.179
 5874SOL     OW17953   3.519   4.328   3.068
 5874SOL    HW117954   3.481   4.259   3.130
 5874SOL    HW217955   3.601   4.292   3.024
 5875SOL     OW17956   2.533   4.188   3.131
 5875SOL    HW117957   2.499   4.099   3.101
 5875SOL    HW217958   2.559   4.242   3.051
 5876SOL     OW17959   2.335   4.224   2.053
 5876SOL    HW117960   2.396   4.304   2.057
 5876SOL    HW217961   2.240   4.255   2.060
 5877SOL     OW17962   2.021   4.861   3.328
 5877SOL    HW117963   2.043   4.800   3.404
 5877SOL    HW217964   2.031   4.812   3.242
 5878SOL     OW17965   3.209   4.783   3.096
 5878SOL    HW117966   3.233   4.720   3.022
 5878SOL    HW217967   3.119   4.823   3.078
 5879SOL     OW17968   3.164   4.579   2.171
 5879SOL    HW117969   3.078   4.548   2.213
 5879SOL    HW217970   3.160   4.565   2.072
 5880SOL     OW17971   1.945   4.982   2.884
 5880SOL    HW117972   1.940   4.981   2.984
 5880SOL    HW217973   1.862   4.941   2.846
 5881SOL     OW17974   3.588   3.859   2.385
 5881SOL    HW117975   3.661   3.842   2.318
 5881SOL    HW217976   3.557   3.772   2.423
 5882SOL     OW17977   3.142   4.651   2.534
 5882SOL    HW117978   3.202   4.570   2.536
 5882SOL    HW217979   3.182   4.720   2.474
 5883SOL     OW17980   3.703   3.899   2.825
 5883SOL    HW117981   3.742   3.814   2.789
 5883SOL    HW217982   3.605   3.901   2.806
 5884SOL     OW17983   2.125   4.050   2.582
 5884SOL    HW117984   2.046   4.101   2.548
 5884SOL    HW217985   2.116   4.035   2.680
 5885SOL     OW17986   2.684   4.726   3.234
 5885SOL    HW117987   2.724   4.725   3.142
 5885SOL    HW217988   2.694   4.818   3.274
 5886SOL     OW17989   2.778   4.634   2.153
 5886SOL    HW117990   2.841   4.672   2.085
 5886SOL    HW217991   2.818   4.551   2.192
 5887SOL     OW17992   2.234   5.012   3.352
 5887SOL    HW117993   2.221   5.105   3.318
 5887SOL    HW217994   2.150   4.960   3.339
 5888SOL     OW17995   3.476   5.016   3.151
 5888SOL    HW117996   3.536   5.019   3.231
 5888SOL    HW217997   3.401   5.080   3.164
 5889SOL     OW17998   2.901   4.822   2.558
 5889SOL    HW117999   2.831   4.775   2.612
 5889SOL    HW218000   2.960   4.754   2.515
 5890SOL     OW18001   2.876   3.960   2.833
 5890SOL    HW118002   2.868   3.924   2.740
 5890SOL    HW218003   2.874   3.884   2.898
 5891SOL     OW18004   3.571   4.109   3.243
 5891SOL    HW118005   3.644   4.178   3.247
 5891SOL    HW218006   3.599   4.034   3.184
 5892SOL     OW18007   1.967   4.737   3.588
 5892SOL    HW118008   1.890   4.704   3.642
 5892SOL    HW218009   2.052   4.707   3.630
 5893SOL     OW18010   2.534   3.927   3.351
 5893SOL    HW118011   2.624   3.911   3.311
 5893SOL    HW218012   2.542   3.932   3.450
 5894SOL     OW18013   1.937   4.069   1.895
 5894SOL    HW118014   1.845   4.041   1.866
 5894SOL    HW218015   1.968   4.146   1.839
 5895SOL     OW18016   3.302   4.580   3.260
 5895SOL    HW118017   3.245   4.632   3.197
 5895SOL    HW218018   3.398   4.592   3.236
 5896SOL     OW18019   1.934   3.890   2.180
 5896SOL    HW118020   1.917   3.973   2.126
 5896SOL    HW218021   2.024   3.853   2.158
 5897SOL     OW18022   2.475   4.566   3.293
 5897SOL    HW118023   2.531   4.647   3.276
 5897SOL    HW218024   2.534   4.486   3.296
 5898SOL     OW18025   2.578   4.289   3.570
 5898SOL    HW118026   2.597   4.354   3.644
 5898SOL    HW218027   2.638   4.209   3.579
 5899SOL     OW18028   3.312   4.944   3.495
 5899SOL    HW118029   3.303   4.934   3.594
 5899SOL    HW218030   3.408   4.937   3.469
 5900SOL     OW18031   3.536   4.607   3.116
 5900SOL    HW118032   3.509   4.518   3.079
 5900SOL    HW218033   3.537   4.675   3.043
 5901SOL     OW18034   3.087   4.049   2.311
 5901SOL    HW118035   3.152   3.975   2.300
 5901SOL    HW218036   3.107   4.099   2.395
 5902SOL     OW18037   2.456   4.469   2.514
 5902SOL    HW118038   2.506   4.554   2.495
 5902SOL    HW218039   2.368   4.471   2.466
 5903SOL     OW18040   3.639   4.066   3.504
 5903SOL    HW118041   3.622   4.097   3.410
 5903SOL    HW218042   3.555   4.029   3.542
 5904SOL     OW18043   3.592   4.658   3.379
 5904SOL    HW118044   3.630   4.749   3.394
 5904SOL    HW218045   3.584   4.641   3.280
 5905SOL     OW18046   2.721   4.680   2.723
 5905SOL    HW118047   2.775   4.611   2.771
 5905SOL    HW218048   2.689   4.749   2.789
 5906SOL     OW18049   2.945   4.708   1.949
 5906SOL    HW118050   2.922   4.761   1.867
 5906SOL    HW218051   3.026   4.652   1.930
 5907SOL     OW18052   1.941   4.964   2.515
 5907SOL    HW118053   1.940   4.917   2.603
 5907SOL    HW218054   2.023   4.936   2.464
 5908SOL     OW18055   3.686   3.916   3.089
 5908SOL    HW118056   3.682   3.826   3.133
 5908SOL    HW218057   3.689   3.905   2.990
 5909SOL     OW18058   2.290   4.148   2.382
 5909SOL    HW118059   2.320   4.076   2.320
 5909SOL    HW218060   2.251   4.108   2.465
 5910SOL     OW18061   2.179   4.271   3.142
 5910SOL    HW118062   2.217   4.212   3.214
 5910SOL    HW218063   2.219   4.245   3.054
 5911SOL     OW18064   3.286   3.938   2.974
 5911SOL    HW118065   3.338   3.873   3.029
 5911SOL    HW218066   3.237   4.001   3.035
 5912SOL     OW18067   2.863   3.758   3.016
 5912SOL    HW118068   2.800   3.686   2.985
 5912SOL    HW218069   2.956   3.722   3.016
 5913SOL     OW18070   2.632   5.054   2.163
 5913SOL    HW118071   2.586   4.967   2.180
 5913SOL    HW218072   2.723   5.051   2.204
 5914SOL     OW18073   3.214   3.776   2.030
 5914SOL    HW118074   3.249   3.735   1.946
 5914SOL    HW218075   3.124   3.738   2.050
 5915SOL     OW18076   3.162   4.177   2.553
 5915SOL    HW118077   3.103   4.257   2.557
 5915SOL    HW218078   3.177   4.142   2.646
 5916SOL     OW18079   3.455   3.945   2.744
 5916SOL    HW118080   3.371   3.944   2.798
 5916SOL    HW218081   3.457   4.028   2.688
 5917SOL     OW18082   1.901   4.801   2.162
 5917SOL    HW118083   2.000   4.790   2.153
 5917SOL    HW218084   1.861   4.715   2.194
 5918SOL     OW18085   2.092   4.352   3.837
 5918SOL    HW118086   1.999   4.350   3.874
 5918SOL    HW218087   2.093   4.313   3.745
 5919SOL     OW18088   2.087   3.999   4.720
 5919SOL    HW118089   2.122   3.982   4.812
 5919SOL    HW218090   1.999   3.954   4.708
 5920SOL     OW18091   1.881   4.092   4.371
 5920SOL    HW118092   1.799   4.135   4.410
 5920SOL    HW218093   1.853   4.019   4.308
 5921SOL     OW18094   2.997   4.427   4.441
 5921SOL    HW118095   3.054   4.505   4.416
 5921SOL    HW218096   2.937   4.453   4.517
 5922SOL     OW18097   3.617   4.331   3.955
 5922SOL    HW118098   3.605   4.318   3.856
 5922SOL    HW218099   3.587   4.250   4.004
 5923SOL     OW18100   2.630   4.868   4.747
 5923SOL    HW118101   2.552   4.885   4.807
 5923SOL    HW218102   2.664   4.955   4.711
 5924SOL     OW18103   2.712   4.522   5.547
 5924SOL    HW118104   2.708   4.598   5.612
 5924SOL    HW218105   2.734   4.558   5.456
 5925SOL     OW18106   2.547   4.736   4.389
 5925SOL    HW118107   2.616   4.720   4.459
 5925SOL    HW218108   2.474   4.793   4.427
 5926SOL     OW18109   2.548   4.885   5.527
 5926SOL    HW118110   2.608   4.964   5.541
 5926SOL    HW218111   2.462   4.916   5.486
 5927SOL     OW18112   2.300   4.116   5.223
 5927SOL    HW118113   2.382   4.060   5.232
 5927SOL    HW218114   2.219   4.058   5.227
 5928SOL     OW18115   3.465   4.171   4.461
 5928SOL    HW118116   3.391   4.217   4.411
 5928SOL    HW218117   3.516   4.239   4.514
 5929SOL     OW18118   2.102   4.815   4.610
 5929SOL    HW118119   2.116   4.731   4.662
 5929SOL    HW218120   2.047   4.879   4.665
 5930SOL     OW18121   2.468   4.688   3.847
 5930SOL    HW118122   2.475   4.772   3.793
 5930SOL    HW218123   2.514   4.701   3.935
 5931SOL     OW18124   3.456   3.838   5.204
 5931SOL    HW118125   3.438   3.905   5.132
 5931SOL    HW218126   3.453   3.884   5.293
 5932SOL     OW18127   1.984   4.367   4.287
 5932SOL    HW118128   1.939   4.279   4.304
 5932SOL    HW218129   1.983   4.421   4.371
 5933SOL     OW18130   3.551   4.646   4.336
 5933SOL    HW118131   3.646   4.617   4.344
 5933SOL    HW218132   3.543   4.711   4.261
 5934SOL     OW18133   3.503   4.832   4.156
 5934SOL    HW118134   3.589   4.834   4.104
 5934SOL    HW218135   3.517   4.879   4.244
 5935SOL     OW18136   1.975   4.461   5.321
 5935SOL    HW118137   2.063   4.448   5.366
 5935SOL    HW218138   1.962   4.558   5.299
 5936SOL     OW18139   3.155   4.952   5.147
 5936SOL    HW118140   3.192   4.879   5.089
 5936SOL    HW218141   3.207   4.957   5.232
 5937SOL     OW18142   2.671   3.728   4.226
 5937SOL    HW118143   2.711   3.819   4.217
 5937SOL    HW218144   2.571   3.736   4.232
 5938SOL     OW18145   2.059   4.700   4.988
 5938SOL    HW118146   2.148   4.655   4.974
 5938SOL    HW218147   1.986   4.635   4.969
 5939SOL     OW18148   3.387   4.723   3.914
 5939SOL    HW118149   3.324   4.647   3.927
 5939SOL    HW218150   3.435   4.741   4.000
 5940SOL     OW18151   2.179   3.975   5.525
 5940SOL    HW118152   2.250   4.046   5.531
 5940SOL    HW218153   2.091   4.014   5.553
 5941SOL     OW18154   2.460   4.453   3.994
 5941SOL    HW118155   2.484   4.522   3.926
 5941SOL    HW218156   2.382   4.486   4.048
 5942SOL     OW18157   3.143   4.069   4.668
 5942SOL    HW118158   3.057   4.019   4.655
 5942SOL    HW218159   3.205   4.015   4.724
 5943SOL     OW18160   2.669   4.329   5.189
 5943SOL    HW118161   2.622   4.326   5.278
 5943SOL    HW218162   2.618   4.274   5.123
 5944SOL     OW18163   3.256   4.193   5.398
 5944SOL    HW118164   3.236   4.236   5.486
 5944SOL    HW218165   3.334   4.131   5.407
 5945SOL     OW18166   2.835   4.614   5.296
 5945SOL    HW118167   2.881   4.530   5.267
 5945SOL    HW218168   2.779   4.648   5.221
 5946SOL     OW18169   2.853   4.134   4.966
 5946SOL    HW118170   2.776   4.168   5.020
 5946SOL    HW218171   2.819   4.083   4.887
 5947SOL     OW18172   2.903   4.425   4.153
 5947SOL    HW118173   2.929   4.421   4.249
 5947SOL    HW218174   2.818   4.374   4.139
 5948SOL     OW18175   1.938   4.535   4.513
 5948SOL    HW118176   2.037   4.523   4.522
 5948SOL    HW218177   1.914   4.630   4.534
 5949SOL     OW18178   2.727   4.072   3.919
 5949SOL    HW118179   2.786   4.135   3.870
 5949SOL    HW218180   2.746   3.978   3.890
 5950SOL     OW18181   3.581   4.309   5.555
 5950SOL    HW118182   3.555   4.398   5.519
 5950SOL    HW218183   3.579   4.241   5.482
 5951SOL     OW18184   3.224   4.868   4.269
 5951SOL    HW118185   3.307   4.839   4.221
 5951SOL    HW218186   3.175   4.935   4.213
 5952SOL     OW18187   2.412   3.920   4.609
 5952SOL    HW118188   2.407   3.915   4.709
 5952SOL    HW218189   2.414   4.016   4.580
 5953SOL     OW18190   3.657   4.790   4.597
 5953SOL    HW118191   3.595   4.775   4.521
 5953SOL    HW218192   3.605   4.801   4.682
 5954SOL     OW18193   2.183   4.667   3.966
 5954SOL    HW118194   2.265   4.706   3.924
 5954SOL    HW218195   2.156   4.585   3.917
 5955SOL     OW18196   3.320   4.459   4.452
 5955SOL    HW118197   3.315   4.394   4.527
 5955SOL    HW218198   3.400   4.518   4.465
 5956SOL     OW18199   2.064   4.009   5.222
 5956SOL    HW118200   1.984   4.069   5.209
 5956SOL    HW218201   2.054   3.960   5.308
 5957SOL     OW18202   3.262   3.831   4.150
 5957SOL    HW118203   3.238   3.794   4.060
 5957SOL    HW218204   3.361   3.847   4.154
 5958SOL     OW18205   2.244   4.424   4.204
 5958SOL    HW118206   2.289   4.334   4.201
 5958SOL    HW218207   2.150   4.413   4.237
 5959SOL     OW18208   3.409   3.946   5.453
 5959SOL    HW118209   3.404   3.983   5.545
 5959SOL    HW218210   3.337   3.877   5.441
 5960SOL     OW18211   2.476   3.846   3.841
 5960SOL    HW118212   2.574   3.824   3.848
 5960SOL    HW218213   2.445   3.829   3.748
 5961SOL     OW18214   2.643   3.988   5.473
 5961SOL    HW118215   2.710   3.927   5.516
 5961SOL    HW218216   2.570   4.007   5.538
 5962SOL     OW18217   3.213   4.314   5.157
 5962SOL    HW118218   3.241   4.271   5.242
 5962SOL    HW218219   3.238   4.410   5.158
 5963SOL     OW18220   2.784   4.227   4.623
 5963SOL    HW118221   2.759   4.218   4.527
 5963SOL    HW218222   2.832   4.145   4.654
 5964SOL     OW18223   2.401   3.788   4.236
 5964SOL    HW118224   2.320   3.789   4.294
 5964SOL    HW218225   2.404   3.871   4.181
 5965SOL     OW18226   2.159   3.759   3.895
 5965SOL    HW118227   2.208   3.843   3.874
 5965SOL    HW218228   2.221   3.694   3.940
 5966SOL     OW18229   2.797   3.960   4.204
 5966SOL    HW118230   2.749   4.001   4.126
 5966SOL    HW218231   2.896   3.958   4.185
 5967SOL     OW18232   2.938   4.407   5.188
 5967SOL    HW118233   2.858   4.346   5.191
 5967SOL    HW218234   3.019   4.354   5.164
 5968SOL     OW18235   2.321   4.876   4.465
 5968SOL    HW118236   2.250   4.849   4.530
 5968SOL    HW218237   2.295   4.848   4.372
 5969SOL     OW18238   2.894   4.273   3.740
 5969SOL    HW118239   2.853   4.355   3.701
 5969SOL    HW218240   2.958   4.299   3.813
 5970SOL     OW18241   1.940   4.280   5.110
 5970SOL    HW118242   2.032   4.279   5.069
 5970SOL    HW218243   1.934   4.354   5.177
 5971SOL     OW18244   2.423   3.946   4.871
 5971SOL    HW118245   2.461   3.862   4.908
 5971SOL    HW218246   2.335   3.965   4.915
 5972SOL     OW18247   2.728   4.178   4.366
 5972SOL    HW118248   2.696   4.250   4.304
 5972SOL    HW218249   2.752   4.097   4.313
 5973SOL     OW18250   2.879   3.763   4.477
 5973SOL    HW118251   2.807   3.768   4.408
 5973SOL    HW218252   2.855   3.694   4.546
 5974SOL     OW18253   3.291   4.897   4.591
 5974SOL    HW118254   3.236   4.813   4.584
 5974SOL    HW218255   3.317   4.926   4.499
 5975SOL     OW18256   3.328   4.314   4.716
 5975SOL    HW118257   3.298   4.219   4.723
 5975SOL    HW218258   3.401   4.330   4.782
 5976SOL     OW18259   3.719   4.557   4.101
 5976SOL    HW118260   3.761   4.493   4.165
 5976SOL    HW218261   3.681   4.506   4.023
 5977SOL     OW18262   3.252   4.299   3.802
 5977SOL    HW118263   3.198   4.278   3.883
 5977SOL    HW218264   3.343   4.258   3.811
 5978SOL     OW18265   2.389   3.980   4.052
 5978SOL    HW118266   2.416   3.921   3.977
 5978SOL    HW218267   2.389   4.075   4.021
 5979SOL     OW18268   3.616   4.947   5.312
 5979SOL    HW118269   3.707   4.908   5.299
 5979SOL    HW218270   3.624   5.043   5.336
 5980SOL     OW18271   3.500   4.823   4.803
 5980SOL    HW118272   3.505   4.904   4.862
 5980SOL    HW218273   3.414   4.825   4.752
 5981SOL     OW18274   2.777   3.813   5.126
 5981SOL    HW118275   2.802   3.793   5.031
 5981SOL    HW218276   2.849   3.869   5.168
 5982SOL     OW18277   2.842   4.840   5.443
 5982SOL    HW118278   2.743   4.846   5.453
 5982SOL    HW218279   2.865   4.760   5.387
 5983SOL     OW18280   2.567   4.774   4.092
 5983SOL    HW118281   2.553   4.781   4.191
 5983SOL    HW218282   2.651   4.723   4.074
 5984SOL     OW18283   2.272   4.537   4.975
 5984SOL    HW118284   2.358   4.549   5.025
 5984SOL    HW218285   2.230   4.450   5.002
 5985SOL     OW18286   3.136   4.110   4.986
 5985SOL    HW118287   3.157   4.184   5.050
 5985SOL    HW218288   3.047   4.127   4.943
 5986SOL     OW18289   2.229   4.824   4.225
 5986SOL    HW118290   2.222   4.907   4.169
 5986SOL    HW218291   2.233   4.744   4.165
 5987SOL     OW18292   2.428   4.261   4.589
 5987SOL    HW118293   2.440   4.327   4.515
 5987SOL    HW218294   2.474   4.295   4.672
 5988SOL     OW18295   3.444   4.363   4.196
 5988SOL    HW118296   3.413   4.424   4.269
 5988SOL    HW218297   3.494   4.415   4.127
 5989SOL     OW18298   2.264   4.475   5.322
 5989SOL    HW118299   2.332   4.530   5.275
 5989SOL    HW218300   2.304   4.387   5.349
 5990SOL     OW18301   3.449   4.503   5.394
 5990SOL    HW118302   3.357   4.541   5.389
 5990SOL    HW218303   3.509   4.550   5.329
 5991SOL     OW18304   2.875   3.829   5.494
 5991SOL    HW118305   2.881   3.914   5.442
 5991SOL    HW218306   2.907   3.753   5.437
 5992SOL     OW18307   2.366   3.774   5.464
 5992SOL    HW118308   2.324   3.717   5.394
 5992SOL    HW218309   2.300   3.843   5.496
 5993SOL     OW18310   2.435   4.594   4.753
 5993SOL    HW118311   2.479   4.683   4.744
 5993SOL    HW218312   2.372   4.594   4.830
 5994SOL     OW18313   3.222   4.586   4.769
 5994SOL    HW118314   3.147   4.586   4.703
 5994SOL    HW218315   3.259   4.494   4.778
 5995SOL     OW18316   3.071   4.249   3.999
 5995SOL    HW118317   3.084   4.165   4.053
 5995SOL    HW218318   3.042   4.323   4.059
 5996SOL     OW18319   2.169   3.937   4.955
 5996SOL    HW118320   2.146   3.974   5.045
 5996SOL    HW218321   2.139   3.842   4.949
 5997SOL     OW18322   2.594   4.358   4.788
 5997SOL    HW118323   2.653   4.332   4.712
 5997SOL    HW218324   2.566   4.454   4.777
 5998SOL     OW18325   3.590   4.659   5.578
 5998SOL    HW118326   3.544   4.652   5.489
 5998SOL    HW218327   3.528   4.703   5.644
 5999SOL     OW18328   2.169   3.787   4.342
 5999SOL    HW118329   2.158   3.881   4.375
 5999SOL    HW218330   2.164   3.724   4.419
 6000SOL     OW18331   3.484   4.091   4.098
 6000SOL    HW118332   3.486   4.015   4.162
 6000SOL    HW218333   3.436   4.168   4.138
 6001SOL     OW18334   2.885   4.490   4.690
 6001SOL    HW118335   2.900   4.511   4.786
 6001SOL    HW218336   2.855   4.395   4.681
 6002SOL     OW18337   2.212   4.622   5.528
 6002SOL    HW118338   2.288   4.666   5.576
 6002SOL    HW218339   2.247   4.575   5.446
 6003SOL     OW18340   3.402   3.998   3.849
 6003SOL    HW118341   3.341   3.923   3.872
 6003SOL    HW218342   3.424   4.050   3.932
 6004SOL     OW18343   3.165   4.562   3.766
 6004SOL    HW118344   3.199   4.469   3.781
 6004SOL    HW218345   3.183   4.589   3.671
 6005SOL     OW18346   2.181   4.534   4.673
 6005SOL    HW118347   2.274   4.570   4.678
 6005SOL    HW218348   2.175   4.449   4.725
 6006SOL     OW18349   2.201   4.233   4.730
 6006SOL    HW118350   2.149   4.150   4.713
 6006SOL    HW218351   2.278   4.238   4.666
 6007SOL     OW18352   3.000   4.104   5.402
 6007SOL    HW118353   2.955   4.167   5.466
 6007SOL    HW218354   3.093   4.135   5.385
 6008SOL     OW18355   3.022   3.931   5.201
 6008SOL    HW118356   3.022   3.995   5.278
 6008SOL    HW218357   3.050   3.979   5.118
 6009SOL     OW18358   1.870   5.050   3.924
 6009SOL    HW118359   1.777   5.071   3.893
 6009SOL    HW218360   1.880   4.951   3.937
 6010SOL     OW18361   2.864   4.520   4.962
 6010SOL    HW118362   2.905   4.488   5.048
 6010SOL    HW218363   2.768   4.493   4.959
 6011SOL     OW18364   1.902   4.268   4.838
 6011SOL    HW118365   1.987   4.235   4.797
 6011SOL    HW218366   1.915   4.283   4.936
 6012SOL     OW18367   2.051   4.244   5.446
 6012SOL    HW118368   2.110   4.204   5.376
 6012SOL    HW218369   1.993   4.315   5.405
 6013SOL     OW18370   3.231   4.674   5.384
 6013SOL    HW118371   3.270   4.763   5.404
 6013SOL    HW218372   3.241   4.654   5.287
 6014SOL     OW18373   2.677   4.296   4.049
 6014SOL    HW118374   2.684   4.207   4.003
 6014SOL    HW218375   2.583   4.330   4.041
 6015SOL     OW18376   3.519   4.328   4.930
 6015SOL    HW118377   3.481   4.259   4.992
 6015SOL    HW218378   3.601   4.292   4.886
 6016SOL     OW18379   2.533   4.188   4.993
 6016SOL    HW118380   2.499   4.099   4.963
 6016SOL    HW218381   2.559   4.242   4.913
 6017SOL     OW18382   2.335   4.224   3.915
 6017SOL    HW118383   2.396   4.304   3.919
 6017SOL    HW218384   2.240   4.255   3.922
 6018SOL     OW18385   2.021   4.861   5.190
 6018SOL    HW118386   2.043   4.800   5.266
 6018SOL    HW218387   2.031   4.812   5.104
 6019SOL     OW18388   3.209   4.783   4.958
 6019SOL    HW118389   3.233   4.720   4.884
 6019SOL    HW218390   3.119   4.823   4.940
 6020SOL     OW18391   3.164   4.579   4.033
 6020SOL    HW118392   3.078   4.548   4.075
 6020SOL    HW218393   3.160   4.565   3.934
 6021SOL     OW18394   1.945   4.982   4.746
 6021SOL    HW118395   1.940   4.981   4.846
 6021SOL    HW218396   1.862   4.941   4.708
 6022SOL     OW18397   3.588   3.859   4.247
 6022SOL    HW118398   3.661   3.842   4.180
 6022SOL    HW218399   3.557   3.772   4.285
 6023SOL     OW18400   3.142   4.651   4.396
 6023SOL    HW118401   3.202   4.570   4.398
 6023SOL    HW218402   3.182   4.720   4.336
 6024SOL     OW18403   3.703   3.899   4.687
 6024SOL    HW118404   3.742   3.814   4.651
 6024SOL    HW218405   3.605   3.901   4.668
 6025SOL     OW18406   2.125   4.050   4.444
 6025SOL    HW118407   2.046   4.101   4.410
 6025SOL    HW218408   2.116   4.035   4.542
 6026SOL     OW18409   2.684   4.726   5.096
 6026SOL    HW118410   2.724   4.725   5.004
 6026SOL    HW218411   2.694   4.818   5.136
 6027SOL     OW18412   2.778   4.634   4.015
 6027SOL    HW118413   2.841   4.672   3.947
 6027SOL    HW218414   2.818   4.551   4.054
 6028SOL     OW18415   2.234   5.012   5.214
 6028SOL    HW118416   2.221   5.105   5.180
 6028SOL    HW218417   2.150   4.960   5.201
 6029SOL     OW18418   3.476   5.016   5.013
 6029SOL    HW118419   3.536   5.019   5.093
 6029SOL    HW218420   3.401   5.080   5.026
 6030SOL     OW18421   2.901   4.822   4.420
 6030SOL    HW118422   2.831   4.775   4.474
 6030SOL    HW218423   2.960   4.754   4.377
 6031SOL     OW18424   2.876   3.960   4.695
 6031SOL    HW118425   2.868   3.924   4.602
 6031SOL    HW218426   2.874   3.884   4.760
 6032SOL     OW18427   3.571   4.109   5.105
 6032SOL    HW118428   3.644   4.178   5.109
 6032SOL    HW218429   3.599   4.034   5.046
 6033SOL     OW18430   1.967   4.737   5.450
 6033SOL    HW118431   1.890   4.704   5.504
 6033SOL    HW218432   2.052   4.707   5.492
 6034SOL     OW18433   2.534   3.927   5.213
 6034SOL    HW118434   2.624   3.911   5.173
 6034SOL    HW218435   2.542   3.932   5.312
 6035SOL     OW18436   1.937   4.069   3.757
 6035SOL    HW118437   1.845   4.041   3.728
 6035SOL    HW218438   1.968   4.146   3.701
 6036SOL     OW18439   3.302   4.580   5.122
 6036SOL    HW118440   3.245   4.632   5.059
 6036SOL    HW218441   3.398   4.592   5.098
 6037SOL     OW18442   1.934   3.890   4.042
 6037SOL    HW118443   1.917   3.973   3.988
 6037SOL    HW218444   2.024   3.853   4.020
 6038SOL     OW18445   2.475   4.566   5.155
 6038SOL    HW118446   2.531   4.647   5.138
 6038SOL    HW218447   2.534   4.486   5.158
 6039SOL     OW18448   2.578   4.289   5.432
 6039SOL    HW118449   2.597   4.354   5.506
 6039SOL    HW218450   2.638   4.209   5.441
 6040SOL     OW18451   3.312   4.944   5.357
 6040SOL    HW118452   3.303   4.934   5.456
 6040SOL    HW218453   3.408   4.937   5.331
 6041SOL     OW18454   3.536   4.607   4.978
 6041SOL    HW118455   3.509   4.518   4.941
 6041SOL    HW218456   3.537   4.675   4.905
 6042SOL     OW18457   3.087   4.049   4.173
 6042SOL    HW118458   3.152   3.975   4.162
 6042SOL    HW218459   3.107   4.099   4.257
 6043SOL     OW18460   2.456   4.469   4.376
 6043SOL    HW118461   2.506   4.554   4.357
 6043SOL    HW218462   2.368   4.471   4.328
 6044SOL     OW18463   3.639   4.066   5.366
 6044SOL    HW118464   3.622   4.097   5.272
 6044SOL    HW218465   3.555   4.029   5.404
 6045SOL     OW18466   3.592   4.658   5.241
 6045SOL    HW118467   3.630   4.749   5.256
 6045SOL    HW218468   3.584   4.641   5.142
 6046SOL     OW18469   2.721   4.680   4.585
 6046SOL    HW118470   2.775   4.611   4.633
 6046SOL    HW218471   2.689   4.749   4.651
 6047SOL     OW18472   2.945   4.708   3.811
 6047SOL    HW118473   2.922   4.761   3.729
 6047SOL    HW218474   3.026   4.652   3.792
 6048SOL     OW18475   1.941   4.964   4.377
 6048SOL    HW118476   1.940   4.917   4.465
 6048SOL    HW218477   2.023   4.936   4.326
 6049SOL     OW18478   3.686   3.916   4.951
 6049SOL    HW118479   3.682   3.826   4.995
 6049SOL    HW218480   3.689   3.905   4.852
 6050SOL     OW18481   2.290   4.148   4.244
 6050SOL    HW118482   2.320   4.076   4.182
 6050SOL    HW218483   2.251   4.108   4.327
 6051SOL     OW18484   2.179   4.271   5.004
 6051SOL    HW118485   2.217   4.212   5.076
 6051SOL    HW218486   2.219   4.245   4.916
 6052SOL     OW18487   3.286   3.938   4.836
 6052SOL    HW118488   3.338   3.873   4.891
 6052SOL    HW218489   3.237   4.001   4.897
 6053SOL     OW18490   2.863   3.758   4.878
 6053SOL    HW118491   2.800   3.686   4.847
 6053SOL    HW218492   2.956   3.722   4.878
 6054SOL     OW18493   2.632   5.054   4.025
 6054SOL    HW118494   2.586   4.967   4.042
 6054SOL    HW218495   2.723   5.051   4.066
 6055SOL     OW18496   3.214   3.776   3.892
 6055SOL    HW118497   3.249   3.735   3.808
 6055SOL    HW218498   3.124   3.738   3.912
 6056SOL     OW18499   3.162   4.177   4.415
 6056SOL    HW118500   3.103   4.257   4.419
 6056SOL    HW218501   3.177   4.142   4.508
 6057SOL     OW18502   3.455   3.945   4.606
 6057SOL    HW118503   3.371   3.944   4.660
 6057SOL    HW218504   3.457   4.028   4.550
 6058SOL     OW18505   1.901   4.801   4.024
 6058SOL    HW118506   2.000   4.790   4.015
 6058SOL    HW218507   1.861   4.715   4.056
 6059SOL     OW18508   2.092   4.352   5.699
 6059SOL    HW118509   1.999   4.350   5.736
 6059SOL    HW218510   2.093   4.313   5.607
 6060SOL     OW18511   2.087   3.999   6.582
 6060SOL    HW118512   2.122   3.982   6.674
 6060SOL    HW218513   1.999   3.954   6.570
 6061SOL     OW18514   1.881   4.092   6.233
 6061SOL    HW118515   1.799   4.135   6.272
 6061SOL    HW218516   1.853   4.019   6.170
 6062SOL     OW18517   2.997   4.427   6.303
 6062SOL    HW118518   3.054   4.505   6.278
 6062SOL    HW218519   2.937   4.453   6.379
 6063SOL     OW18520   3.617   4.331   5.817
 6063SOL    HW118521   3.605   4.318   5.718
 6063SOL    HW218522   3.587   4.250   5.866
 6064SOL     OW18523   2.630   4.868   6.609
 6064SOL    HW118524   2.552   4.885   6.669
 6064SOL    HW218525   2.664   4.955   6.573
 6065SOL     OW18526   2.712   4.522   7.409
 6065SOL    HW118527   2.708   4.598   7.474
 6065SOL    HW218528   2.734   4.558   7.318
 6066SOL     OW18529   2.547   4.736   6.251
 6066SOL    HW118530   2.616   4.720   6.321
 6066SOL    HW218531   2.474   4.793   6.289
 6067SOL     OW18532   2.548   4.885   7.389
 6067SOL    HW118533   2.608   4.964   7.403
 6067SOL    HW218534   2.462   4.916   7.348
 6068SOL     OW18535   2.300   4.116   7.085
 6068SOL    HW118536   2.382   4.060   7.094
 6068SOL    HW218537   2.219   4.058   7.089
 6069SOL     OW18538   3.465   4.171   6.323
 6069SOL    HW118539   3.391   4.217   6.273
 6069SOL    HW218540   3.516   4.239   6.376
 6070SOL     OW18541   2.102   4.815   6.472
 6070SOL    HW118542   2.116   4.731   6.524
 6070SOL    HW218543   2.047   4.879   6.527
 6071SOL     OW18544   2.468   4.688   5.709
 6071SOL    HW118545   2.475   4.772   5.655
 6071SOL    HW218546   2.514   4.701   5.797
 6072SOL     OW18547   3.456   3.838   7.066
 6072SOL    HW118548   3.438   3.905   6.994
 6072SOL    HW218549   3.453   3.884   7.155
 6073SOL     OW18550   1.984   4.367   6.149
 6073SOL    HW118551   1.939   4.279   6.166
 6073SOL    HW218552   1.983   4.421   6.233
 6074SOL     OW18553   3.551   4.646   6.198
 6074SOL    HW118554   3.646   4.617   6.206
 6074SOL    HW218555   3.543   4.711   6.123
 6075SOL     OW18556   3.503   4.832   6.018
 6075SOL    HW118557   3.589   4.834   5.966
 6075SOL    HW218558   3.517   4.879   6.106
 6076SOL     OW18559   1.975   4.461   7.183
 6076SOL    HW118560   2.063   4.448   7.228
 6076SOL    HW218561   1.962   4.558   7.161
 6077SOL     OW18562   3.155   4.952   7.009
 6077SOL    HW118563   3.192   4.879   6.951
 6077SOL    HW218564   3.207   4.957   7.094
 6078SOL     OW18565   2.671   3.728   6.088
 6078SOL    HW118566   2.711   3.819   6.079
 6078SOL    HW218567   2.571   3.736   6.094
 6079SOL     OW18568   2.059   4.700   6.850
 6079SOL    HW118569   2.148   4.655   6.836
 6079SOL    HW218570   1.986   4.635   6.831
 6080SOL     OW18571   3.387   4.723   5.776
 6080SOL    HW118572   3.324   4.647   5.789
 6080SOL    HW218573   3.435   4.741   5.862
 6081SOL     OW18574   2.179   3.975   7.387
 6081SOL    HW118575   2.250   4.046   7.393
 6081SOL    HW218576   2.091   4.014   7.415
 6082SOL     OW18577   2.460   4.453   5.856
 6082SOL    HW118578   2.484   4.522   5.788
 6082SOL    HW218579   2.382   4.486   5.910
 6083SOL     OW18580   3.143   4.069   6.530
 6083SOL    HW118581   3.057   4.019   6.517
 6083SOL    HW218582   3.205   4.015   6.586
 6084SOL     OW18583   2.669   4.329   7.051
 6084SOL    HW118584   2.622   4.326   7.140
 6084SOL    HW218585   2.618   4.274   6.985
 6085SOL     OW18586   3.256   4.193   7.260
 6085SOL    HW118587   3.236   4.236   7.348
 6085SOL    HW218588   3.334   4.131   7.269
 6086SOL     OW18589   2.835   4.614   7.158
 6086SOL    HW118590   2.881   4.530   7.129
 6086SOL    HW218591   2.779   4.648   7.083
 6087SOL     OW18592   2.853   4.134   6.828
 6087SOL    HW118593   2.776   4.168   6.882
 6087SOL    HW218594   2.819   4.083   6.749
 6088SOL     OW18595   2.903   4.425   6.015
 6088SOL    HW118596   2.929   4.421   6.111
 6088SOL    HW218597   2.818   4.374   6.001
 6089SOL     OW18598   1.938   4.535   6.375
 6089SOL    HW118599   2.037   4.523   6.384
 6089SOL    HW218600   1.914   4.630   6.396
 6090SOL     OW18601   2.727   4.072   5.781
 6090SOL    HW118602   2.786   4.135   5.732
 6090SOL    HW218603   2.746   3.978   5.752
 6091SOL     OW18604   3.581   4.309   7.417
 6091SOL    HW118605   3.555   4.398   7.381
 6091SOL    HW218606   3.579   4.241   7.344
 6092SOL     OW18607   3.224   4.868   6.131
 6092SOL    HW118608   3.307   4.839   6.083
 6092SOL    HW218609   3.175   4.935   6.075
 6093SOL     OW18610   2.412   3.920   6.471
 6093SOL    HW118611   2.407   3.915   6.571
 6093SOL    HW218612   2.414   4.016   6.442
 6094SOL     OW18613   3.657   4.790   6.459
 6094SOL    HW118614   3.595   4.775   6.383
 6094SOL    HW218615   3.605   4.801   6.544
 6095SOL     OW18616   2.183   4.667   5.828
 6095SOL    HW118617   2.265   4.706   5.786
 6095SOL    HW218618   2.156   4.585   5.779
 6096SOL     OW18619   3.320   4.459   6.314
 6096SOL    HW118620   3.315   4.394   6.389
 6096SOL    HW218621   3.400   4.518   6.327
 6097SOL     OW18622   2.064   4.009   7.084
 6097SOL    HW118623   1.984   4.069   7.071
 6097SOL    HW218624   2.054   3.960   7.170
 6098SOL     OW18625   3.262   3.831   6.012
 6098SOL    HW118626   3.238   3.794   5.922
 6098SOL    HW218627   3.361   3.847   6.016
 6099SOL     OW18628   2.244   4.424   6.066
 6099SOL    HW118629   2.289   4.334   6.063
 6099SOL    HW218630   2.150   4.413   6.099
 6100SOL     OW18631   3.409   3.946   7.315
 6100SOL    HW118632   3.404   3.983   7.407
 6100SOL    HW218633   3.337   3.877   7.303
 6101SOL     OW18634   2.476   3.846   5.703
 6101SOL    HW118635   2.574   3.824   5.710
 6101SOL    HW218636   2.445   3.829   5.610
 6102SOL     OW18637   2.643   3.988   7.335
 6102SOL    HW118638   2.710   3.927   7.378
 6102SOL    HW218639   2.570   4.007   7.400
 6103SOL     OW18640   3.213   4.314   7.019
 6103SOL    HW118641   3.241   4.271   7.104
 6103SOL    HW218642   3.238   4.410   7.020
 6104SOL     OW18643   2.784   4.227   6.485
 6104SOL    HW118644   2.759   4.218   6.389
 6104SOL    HW218645   2.832   4.145   6.516
 6105SOL     OW18646   2.401   3.788   6.098
 6105SOL    HW118647   2.320   3.789   6.156
 6105SOL    HW218648   2.404   3.871   6.043
 6106SOL     OW18649   2.159   3.759   5.757
 6106SOL    HW118650   2.208   3.843   5.736
 6106SOL    HW218651   2.221   3.694   5.802
 6107SOL     OW18652   2.797   3.960   6.066
 6107SOL    HW118653   2.749   4.001   5.988
 6107SOL    HW218654   2.896   3.958   6.047
 6108SOL     OW18655   2.938   4.407   7.050
 6108SOL    HW118656   2.858   4.346   7.053
 6108SOL    HW218657   3.019   4.354   7.026
 6109SOL     OW18658   2.321   4.876   6.327
 6109SOL    HW118659   2.250   4.849   6.392
 6109SOL    HW218660   2.295   4.848   6.234
 6110SOL     OW18661   2.894   4.273   5.602
 6110SOL    HW118662   2.853   4.355   5.563
 6110SOL    HW218663   2.958   4.299   5.675
 6111SOL     OW18664   1.940   4.280   6.972
 6111SOL    HW118665   2.032   4.279   6.931
 6111SOL    HW218666   1.934   4.354   7.039
 6112SOL     OW18667   2.423   3.946   6.733
 6112SOL    HW118668   2.461   3.862   6.770
 6112SOL    HW218669   2.335   3.965   6.777
 6113SOL     OW18670   2.728   4.178   6.228
 6113SOL    HW118671   2.696   4.250   6.166
 6113SOL    HW218672   2.752   4.097   6.175
 6114SOL     OW18673   2.879   3.763   6.339
 6114SOL    HW118674   2.807   3.768   6.270
 6114SOL    HW218675   2.855   3.694   6.408
 6115SOL     OW18676   3.291   4.897   6.453
 6115SOL    HW118677   3.236   4.813   6.446
 6115SOL    HW218678   3.317   4.926   6.361
 6116SOL     OW18679   3.328   4.314   6.578
 6116SOL    HW118680   3.298   4.219   6.585
 6116SOL    HW218681   3.401   4.330   6.644
 6117SOL     OW18682   3.719   4.557   5.963
 6117SOL    HW118683   3.761   4.493   6.027
 6117SOL    HW218684   3.681   4.506   5.885
 6118SOL     OW18685   3.252   4.299   5.664
 6118SOL    HW118686   3.198   4.278   5.745
 6118SOL    HW218687   3.343   4.258   5.673
 6119SOL     OW18688   2.389   3.980   5.914
 6119SOL    HW118689   2.416   3.921   5.839
 6119SOL    HW218690   2.389   4.075   5.883
 6120SOL     OW18691   3.616   4.947   7.174
 6120SOL    HW118692   3.707   4.908   7.161
 6120SOL    HW218693   3.624   5.043   7.198
 6121SOL     OW18694   3.500   4.823   6.665
 6121SOL    HW118695   3.505   4.904   6.724
 6121SOL    HW218696   3.414   4.825   6.614
 6122SOL     OW18697   2.777   3.813   6.988
 6122SOL    HW118698   2.802   3.793   6.893
 6122SOL    HW218699   2.849   3.869   7.030
 6123SOL     OW18700   2.842   4.840   7.305
 6123SOL    HW118701   2.743   4.846   7.315
 6123SOL    HW218702   2.865   4.760   7.249
 6124SOL     OW18703   2.567   4.774   5.954
 6124SOL    HW118704   2.553   4.781   6.053
 6124SOL    HW218705   2.651   4.723   5.936
 6125SOL     OW18706   2.272   4.537   6.837
 6125SOL    HW118707   2.358   4.549   6.887
 6125SOL    HW218708   2.230   4.450   6.864
 6126SOL     OW18709   3.136   4.110   6.848
 6126SOL    HW118710   3.157   4.184   6.912
 6126SOL    HW218711   3.047   4.127   6.805
 6127SOL     OW18712   2.229   4.824   6.087
 6127SOL    HW118713   2.222   4.907   6.031
 6127SOL    HW218714   2.233   4.744   6.027
 6128SOL     OW18715   2.428   4.261   6.451
 6128SOL    HW118716   2.440   4.327   6.377
 6128SOL    HW218717   2.474   4.295   6.534
 6129SOL     OW18718   3.444   4.363   6.058
 6129SOL    HW118719   3.413   4.424   6.131
 6129SOL    HW218720   3.494   4.415   5.989
 6130SOL     OW18721   2.264   4.475   7.184
 6130SOL    HW118722   2.332   4.530   7.137
 6130SOL    HW218723   2.304   4.387   7.211
 6131SOL     OW18724   3.449   4.503   7.256
 6131SOL    HW118725   3.357   4.541   7.251
 6131SOL    HW218726   3.509   4.550   7.191
 6132SOL     OW18727   2.875   3.829   7.356
 6132SOL    HW118728   2.881   3.914   7.304
 6132SOL    HW218729   2.907   3.753   7.299
 6133SOL     OW18730   2.366   3.774   7.326
 6133SOL    HW118731   2.324   3.717   7.256
 6133SOL    HW218732   2.300   3.843   7.358
 6134SOL     OW18733   2.435   4.594   6.615
 6134SOL    HW118734   2.479   4.683   6.606
 6134SOL    HW218735   2.372   4.594   6.692
 6135SOL     OW18736   3.222   4.586   6.631
 6135SOL    HW118737   3.147   4.586   6.565
 6135SOL    HW218738   3.259   4.494   6.640
 6136SOL     OW18739   3.071   4.249   5.861
 6136SOL    HW118740   3.084   4.165   5.915
 6136SOL    HW218741   3.042   4.323   5.921
 6137SOL     OW18742   2.169   3.937   6.817
 6137SOL    HW118743   2.146   3.974   6.907
 6137SOL    HW218744   2.139   3.842   6.811
 6138SOL     OW18745   2.594   4.358   6.650
 6138SOL    HW118746   2.653   4.332   6.574
 6138SOL    HW218747   2.566   4.454   6.639
 6139SOL     OW18748   3.590   4.659   7.440
 6139SOL    HW118749   3.544   4.652   7.351
 6139SOL    HW218750   3.528   4.703   7.506
 6140SOL     OW18751   2.169   3.787   6.204
 6140SOL    HW118752   2.158   3.881   6.237
 6140SOL    HW218753   2.164   3.724   6.281
 6141SOL     OW18754   3.484   4.091   5.960
 6141SOL    HW118755   3.486   4.015   6.024
 6141SOL    HW218756   3.436   4.168   6.000
 6142SOL     OW18757   2.885   4.490   6.552
 6142SOL    HW118758   2.900   4.511   6.648
 6142SOL    HW218759   2.855   4.395   6.543
 6143SOL     OW18760   2.212   4.622   7.390
 6143SOL    HW118761   2.288   4.666   7.438
 6143SOL    HW218762   2.247   4.575   7.308
 6144SOL     OW18763   3.402   3.998   5.711
 6144SOL    HW118764   3.341   3.923   5.734
 6144SOL    HW218765   3.424   4.050   5.794
 6145SOL     OW18766   3.165   4.562   5.628
 6145SOL    HW118767   3.199   4.469   5.643
 6145SOL    HW218768   3.183   4.589   5.533
 6146SOL     OW18769   2.181   4.534   6.535
 6146SOL    HW118770   2.274   4.570   6.540
 6146SOL    HW218771   2.175   4.449   6.587
 6147SOL     OW18772   2.201   4.233   6.592
 6147SOL    HW118773   2.149   4.150   6.575
 6147SOL    HW218774   2.278   4.238   6.528
 6148SOL     OW18775   3.000   4.104   7.264
 6148SOL    HW118776   2.955   4.167   7.328
 6148SOL    HW218777   3.093   4.135   7.247
 6149SOL     OW18778   3.022   3.931   7.063
 6149SOL    HW118779   3.022   3.995   7.140
 6149SOL    HW218780   3.050   3.979   6.980
 6150SOL     OW18781   1.870   5.050   5.786
 6150SOL    HW118782   1.777   5.071   5.755
 6150SOL    HW218783   1.880   4.951   5.799
 6151SOL     OW18784   2.864   4.520   6.824
 6151SOL    HW118785   2.905   4.488   6.910
 6151SOL    HW218786   2.768   4.493   6.821
 6152SOL     OW18787   1.902   4.268   6.700
 6152SOL    HW118788   1.987   4.235   6.659
 6152SOL    HW218789   1.915   4.283   6.798
 6153SOL     OW18790   2.051   4.244   7.308
 6153SOL    HW118791   2.110   4.204   7.238
 6153SOL    HW218792   1.993   4.315   7.267
 6154SOL     OW18793   3.231   4.674   7.246
 6154SOL    HW118794   3.270   4.763   7.266
 6154SOL    HW218795   3.241   4.654   7.149
 6155SOL     OW18796   2.677   4.296   5.911
 6155SOL    HW118797   2.684   4.207   5.865
 6155SOL    HW218798   2.583   4.330   5.903
 6156SOL     OW18799   3.519   4.328   6.792
 6156SOL    HW118800   3.481   4.259   6.854
 6156SOL    HW218801   3.601   4.292   6.748
 6157SOL     OW18802   2.533   4.188   6.855
 6157SOL    HW118803   2.499   4.099   6.825
 6157SOL    HW218804   2.559   4.242   6.775
 6158SOL     OW18805   2.335   4.224   5.777
 6158SOL    HW118806   2.396   4.304   5.781
 6158SOL    HW218807   2.240   4.255   5.784
 6159SOL     OW18808   2.021   4.861   7.052
 6159SOL    HW118809   2.043   4.800   7.128
 6159SOL    HW218810   2.031   4.812   6.966
 6160SOL     OW18811   3.209   4.783   6.820
 6160SOL    HW118812   3.233   4.720   6.746
 6160SOL    HW218813   3.119   4.823   6.802
 6161SOL     OW18814   3.164   4.579   5.895
 6161SOL    HW118815   3.078   4.548   5.937
 6161SOL    HW218816   3.160   4.565   5.796
 6162SOL     OW18817   1.945   4.982   6.608
 6162SOL    HW118818   1.940   4.981   6.708
 6162SOL    HW218819   1.862   4.941   6.570
 6163SOL     OW18820   3.588   3.859   6.109
 6163SOL    HW118821   3.661   3.842   6.042
 6163SOL    HW218822   3.557   3.772   6.147
 6164SOL     OW18823   3.142   4.651   6.258
 6164SOL    HW118824   3.202   4.570   6.260
 6164SOL    HW218825   3.182   4.720   6.198
 6165SOL     OW18826   3.703   3.899   6.549
 6165SOL    HW118827   3.742   3.814   6.513
 6165SOL    HW218828   3.605   3.901   6.530
 6166SOL     OW18829   2.125   4.050   6.306
 6166SOL    HW118830   2.046   4.101   6.272
 6166SOL    HW218831   2.116   4.035   6.404
 6167SOL     OW18832   2.684   4.726   6.958
 6167SOL    HW118833   2.724   4.725   6.866
 6167SOL    HW218834   2.694   4.818   6.998
 6168SOL     OW18835   2.778   4.634   5.877
 6168SOL    HW118836   2.841   4.672   5.809
 6168SOL    HW218837   2.818   4.551   5.916
 6169SOL     OW18838   2.234   5.012   7.076
 6169SOL    HW118839   2.221   5.105   7.042
 6169SOL    HW218840   2.150   4.960   7.063
 6170SOL     OW18841   3.476   5.016   6.875
 6170SOL    HW118842   3.536   5.019   6.955
 6170SOL    HW218843   3.401   5.080   6.888
 6171SOL     OW18844   2.901   4.822   6.282
 6171SOL    HW118845   2.831   4.775   6.336
 6171SOL    HW218846   2.960   4.754   6.239
 6172SOL     OW18847   2.876   3.960   6.557
 6172SOL    HW118848   2.868   3.924   6.464
 6172SOL    HW218849   2.874   3.884   6.622
 6173SOL     OW18850   3.571   4.109   6.967
 6173SOL    HW118851   3.644   4.178   6.971
 6173SOL    HW218852   3.599   4.034   6.908
 6174SOL     OW18853   1.967   4.737   7.312
 6174SOL    HW118854   1.890   4.704   7.366
 6174SOL    HW218855   2.052   4.707   7.354
 6175SOL     OW18856   2.534   3.927   7.075
 6175SOL    HW118857   2.624   3.911   7.035
 6175SOL    HW218858   2.542   3.932   7.174
 6176SOL     OW18859   1.937   4.069   5.619
 6176SOL    HW118860   1.845   4.041   5.590
 6176SOL    HW218861   1.968   4.146   5.563
 6177SOL     OW18862   3.302   4.580   6.984
 6177SOL    HW118863   3.245   4.632   6.921
 6177SOL    HW218864   3.398   4.592   6.960
 6178SOL     OW18865   1.934   3.890   5.904
 6178SOL    HW118866   1.917   3.973   5.850
 6178SOL    HW218867   2.024   3.853   5.882
 6179SOL     OW18868   2.475   4.566   7.017
 6179SOL    HW118869   2.531   4.647   7.000
 6179SOL    HW218870   2.534   4.486   7.020
 6180SOL     OW18871   2.578   4.289   7.294
 6180SOL    HW118872   2.597   4.354   7.368
 6180SOL    HW218873   2.638   4.209   7.303
 6181SOL     OW18874   3.312   4.944   7.219
 6181SOL    HW118875   3.303   4.934   7.318
 6181SOL    HW218876   3.408   4.937   7.193
 6182SOL     OW18877   3.536   4.607   6.840
 6182SOL    HW118878   3.509   4.518   6.803
 6182SOL    HW218879   3.537   4.675   6.767
 6183SOL     OW18880   3.087   4.049   6.035
 6183SOL    HW118881   3.152   3.975   6.024
 6183SOL    HW218882   3.107   4.099   6.119
 6184SOL     OW18883   2.456   4.469   6.238
 6184SOL    HW118884   2.506   4.554   6.219
 6184SOL    HW218885   2.368   4.471   6.190
 6185SOL     OW18886   3.639   4.066   7.228
 6185SOL    HW118887   3.622   4.097   7.134
 6185SOL    HW218888   3.555   4.029   7.266
 6186SOL     OW18889   3.592   4.658   7.103
 6186SOL    HW118890   3.630   4.749   7.118
 6186SOL    HW218891   3.584   4.641   7.004
 6187SOL     OW18892   2.721   4.680   6.447
 6187SOL    HW118893   2.775   4.611   6.495
 6187SOL    HW218894   2.689   4.749   6.513
 6188SOL     OW18895   2.945   4.708   5.673
 6188SOL    HW118896   2.922   4.761   5.591
 6188SOL    HW218897   3.026   4.652   5.654
 6189SOL     OW18898   1.941   4.964   6.239
 6189SOL    HW118899   1.940   4.917   6.327
 6189SOL    HW218900   2.023   4.936   6.188
 6190SOL     OW18901   3.686   3.916   6.813
 6190SOL    HW118902   3.682   3.826   6.857
 6190SOL    HW218903   3.689   3.905   6.714
 6191SOL     OW18904   2.290   4.148   6.106
 6191SOL    HW118905   2.320   4.076   6.044
 6191SOL    HW218906   2.251   4.108   6.189
 6192SOL     OW18907   2.179   4.271   6.866
 6192SOL    HW118908   2.217   4.212   6.938
 6192SOL    HW218909   2.219   4.245   6.778
 6193SOL     OW18910   3.286   3.938   6.698
 6193SOL    HW118911   3.338   3.873   6.753
 6193SOL    HW218912   3.237   4.001   6.759
 6194SOL     OW18913   2.863   3.758   6.740
 6194SOL    HW118914   2.800   3.686   6.709
 6194SOL    HW218915   2.956   3.722   6.740
 6195SOL     OW18916   2.632   5.054   5.887
 6195SOL    HW118917   2.586   4.967   5.904
 6195SOL    HW218918   2.723   5.051   5.928
 6196SOL     OW18919   3.214   3.776   5.754
 6196SOL    HW118920   3.249   3.735   5.670
 6196SOL    HW218921   3.124   3.738   5.774
 6197SOL     OW18922   3.162   4.177   6.277
 6197SOL    HW118923   3.103   4.257   6.281
 6197SOL    HW218924   3.177   4.142   6.370
 6198SOL     OW18925   3.455   3.945   6.468
 6198SOL    HW118926   3.371   3.944   6.522
 6198SOL    HW218927   3.457   4.028   6.412
 6199SOL     OW18928   1.901   4.801   5.886
 6199SOL    HW118929   2.000   4.790   5.877
 6199SOL    HW218930   1.861   4.715   5.918
 6200SOL     OW18931   2.092   4.352   7.561
 6200SOL    HW118932   1.999   4.350   7.598
 6200SOL    HW218933   2.093   4.313   7.469
 6201SOL     OW18934   2.087   3.999   8.444
 6201SOL    HW118935   2.122   3.982   8.536
 6201SOL    HW218936   1.999   3.954   8.432
 6202SOL     OW18937   1.881   4.092   8.095
 6202SOL    HW118938   1.799   4.135   8.134
 6202SOL    HW218939   1.853   4.019   8.032
 6203SOL     OW18940   2.997   4.427   8.165
 6203SOL    HW118941   3.054   4.505   8.140
 6203SOL    HW218942   2.937   4.453   8.241
 6204SOL     OW18943   3.617   4.331   7.679
 6204SOL    HW118944   3.605   4.318   7.580
 6204SOL    HW218945   3.587   4.250   7.728
 6205SOL     OW18946   2.630   4.868   8.471
 6205SOL    HW118947   2.552   4.885   8.531
 6205SOL    HW218948   2.664   4.955   8.435
 6206SOL     OW18949   2.712   4.522   9.271
 6206SOL    HW118950   2.708   4.598   9.336
 6206SOL    HW218951   2.734   4.558   9.180
 6207SOL     OW18952   2.547   4.736   8.113
 6207SOL    HW118953   2.616   4.720   8.183
 6207SOL    HW218954   2.474   4.793   8.151
 6208SOL     OW18955   2.548   4.885   9.251
 6208SOL    HW118956   2.608   4.964   9.265
 6208SOL    HW218957   2.462   4.916   9.210
 6209SOL     OW18958   2.300   4.116   8.947
 6209SOL    HW118959   2.382   4.060   8.956
 6209SOL    HW218960   2.219   4.058   8.951
 6210SOL     OW18961   3.465   4.171   8.185
 6210SOL    HW118962   3.391   4.217   8.135
 6210SOL    HW218963   3.516   4.239   8.238
 6211SOL     OW18964   2.102   4.815   8.334
 6211SOL    HW118965   2.116   4.731   8.386
 6211SOL    HW218966   2.047   4.879   8.389
 6212SOL     OW18967   2.468   4.688   7.571
 6212SOL    HW118968   2.475   4.772   7.517
 6212SOL    HW218969   2.514   4.701   7.659
 6213SOL     OW18970   3.456   3.838   8.928
 6213SOL    HW118971   3.438   3.905   8.856
 6213SOL    HW218972   3.453   3.884   9.017
 6214SOL     OW18973   1.984   4.367   8.011
 6214SOL    HW118974   1.939   4.279   8.028
 6214SOL    HW218975   1.983   4.421   8.095
 6215SOL     OW18976   3.551   4.646   8.060
 6215SOL    HW118977   3.646   4.617   8.068
 6215SOL    HW218978   3.543   4.711   7.985
 6216SOL     OW18979   3.503   4.832   7.880
 6216SOL    HW118980   3.589   4.834   7.828
 6216SOL    HW218981   3.517   4.879   7.968
 6217SOL     OW18982   1.975   4.461   9.045
 6217SOL    HW118983   2.063   4.448   9.090
 6217SOL    HW218984   1.962   4.558   9.023
 6218SOL     OW18985   3.155   4.952   8.871
 6218SOL    HW118986   3.192   4.879   8.813
 6218SOL    HW218987   3.207   4.957   8.956
 6219SOL     OW18988   2.671   3.728   7.950
 6219SOL    HW118989   2.711   3.819   7.941
 6219SOL    HW218990   2.571   3.736   7.956
 6220SOL     OW18991   2.059   4.700   8.712
 6220SOL    HW118992   2.148   4.655   8.698
 6220SOL    HW218993   1.986   4.635   8.693
 6221SOL     OW18994   3.387   4.723   7.638
 6221SOL    HW118995   3.324   4.647   7.651
 6221SOL    HW218996   3.435   4.741   7.724
 6222SOL     OW18997   2.179   3.975   9.249
 6222SOL    HW118998   2.250   4.046   9.255
 6222SOL    HW218999   2.091   4.014   9.277
 6223SOL     OW19000   2.460   4.453   7.718
 6223SOL    HW119001   2.484   4.522   7.650
 6223SOL    HW219002   2.382   4.486   7.772
 6224SOL     OW19003   3.143   4.069   8.392
 6224SOL    HW119004   3.057   4.019   8.379
 6224SOL    HW219005   3.205   4.015   8.448
 6225SOL     OW19006   2.669   4.329   8.913
 6225SOL    HW119007   2.622   4.326   9.002
 6225SOL    HW219008   2.618   4.274   8.847
 6226SOL     OW19009   3.256   4.193   9.122
 6226SOL    HW119010   3.236   4.236   9.210
 6226SOL    HW219011   3.334   4.131   9.131
 6227SOL     OW19012   2.835   4.614   9.020
 6227SOL    HW119013   2.881   4.530   8.991
 6227SOL    HW219014   2.779   4.648   8.945
 6228SOL     OW19015   2.853   4.134   8.690
 6228SOL    HW119016   2.776   4.168   8.744
 6228SOL    HW219017   2.819   4.083   8.611
 6229SOL     OW19018   2.903   4.425   7.877
 6229SOL    HW119019   2.929   4.421   7.973
 6229SOL    HW219020   2.818   4.374   7.863
 6230SOL     OW19021   1.938   4.535   8.237
 6230SOL    HW119022   2.037   4.523   8.246
 6230SOL    HW219023   1.914   4.630   8.258
 6231SOL     OW19024   2.727   4.072   7.643
 6231SOL    HW119025   2.786   4.135   7.594
 6231SOL    HW219026   2.746   3.978   7.614
 6232SOL     OW19027   3.581   4.309   9.279
 6232SOL    HW119028   3.555   4.398   9.243
 6232SOL    HW219029   3.579   4.241   9.206
 6233SOL     OW19030   3.224   4.868   7.993
 6233SOL    HW119031   3.307   4.839   7.945
 6233SOL    HW219032   3.175   4.935   7.937
 6234SOL     OW19033   2.412   3.920   8.333
 6234SOL    HW119034   2.407   3.915   8.433
 6234SOL    HW219035   2.414   4.016   8.304
 6235SOL     OW19036   3.657   4.790   8.321
 6235SOL    HW119037   3.595   4.775   8.245
 6235SOL    HW219038   3.605   4.801   8.406
 6236SOL     OW19039   2.183   4.667   7.690
 6236SOL    HW119040   2.265   4.706   7.648
 6236SOL    HW219041   2.156   4.585   7.641
 6237SOL     OW19042   3.320   4.459   8.176
 6237SOL    HW119043   3.315   4.394   8.251
 6237SOL    HW219044   3.400   4.518   8.189
 6238SOL     OW19045   2.064   4.009   8.946
 6238SOL    HW119046   1.984   4.069   8.933
 6238SOL    HW219047   2.054   3.960   9.032
 6239SOL     OW19048   3.262   3.831   7.874
 6239SOL    HW119049   3.238   3.794   7.784
 6239SOL    HW219050   3.361   3.847   7.878
 6240SOL     OW19051   2.244   4.424   7.928
 6240SOL    HW119052   2.289   4.334   7.925
 6240SOL    HW219053   2.150   4.413   7.961
 6241SOL     OW19054   3.409   3.946   9.177
 6241SOL    HW119055   3.404   3.983   9.269
 6241SOL    HW219056   3.337   3.877   9.165
 6242SOL     OW19057   2.476   3.846   7.565
 6242SOL    HW119058   2.574   3.824   7.572
 6242SOL    HW219059   2.445   3.829   7.472
 6243SOL     OW19060   2.643   3.988   9.197
 6243SOL    HW119061   2.710   3.927   9.240
 6243SOL    HW219062   2.570   4.007   9.262
 6244SOL     OW19063   3.213   4.314   8.881
 6244SOL    HW119064   3.241   4.271   8.966
 6244SOL    HW219065   3.238   4.410   8.882
 6245SOL     OW19066   2.784   4.227   8.347
 6245SOL    HW119067   2.759   4.218   8.251
 6245SOL    HW219068   2.832   4.145   8.378
 6246SOL     OW19069   2.401   3.788   7.960
 6246SOL    HW119070   2.320   3.789   8.018
 6246SOL    HW219071   2.404   3.871   7.905
 6247SOL     OW19072   2.159   3.759   7.619
 6247SOL    HW119073   2.208   3.843   7.598
 6247SOL    HW219074   2.221   3.694   7.664
 6248SOL     OW19075   2.797   3.960   7.928
 6248SOL    HW119076   2.749   4.001   7.850
 6248SOL    HW219077   2.896   3.958   7.909
 6249SOL     OW19078   2.938   4.407   8.912
 6249SOL    HW119079   2.858   4.346   8.915
 6249SOL    HW219080   3.019   4.354   8.888
 6250SOL     OW19081   2.321   4.876   8.189
 6250SOL    HW119082   2.250   4.849   8.254
 6250SOL    HW219083   2.295   4.848   8.096
 6251SOL     OW19084   2.894   4.273   7.464
 6251SOL    HW119085   2.853   4.355   7.425
 6251SOL    HW219086   2.958   4.299   7.537
 6252SOL     OW19087   1.940   4.280   8.834
 6252SOL    HW119088   2.032   4.279   8.793
 6252SOL    HW219089   1.934   4.354   8.901
 6253SOL     OW19090   2.423   3.946   8.595
 6253SOL    HW119091   2.461   3.862   8.632
 6253SOL    HW219092   2.335   3.965   8.639
 6254SOL     OW19093   2.728   4.178   8.090
 6254SOL    HW119094   2.696   4.250   8.028
 6254SOL    HW219095   2.752   4.097   8.037
 6255SOL     OW19096   2.879   3.763   8.201
 6255SOL    HW119097   2.807   3.768   8.132
 6255SOL    HW219098   2.855   3.694   8.270
 6256SOL     OW19099   3.291   4.897   8.315
 6256SOL    HW119100   3.236   4.813   8.308
 6256SOL    HW219101   3.317   4.926   8.223
 6257SOL     OW19102   3.328   4.314   8.440
 6257SOL    HW119103   3.298   4.219   8.447
 6257SOL    HW219104   3.401   4.330   8.506
 6258SOL     OW19105   3.719   4.557   7.825
 6258SOL    HW119106   3.761   4.493   7.889
 6258SOL    HW219107   3.681   4.506   7.747
 6259SOL     OW19108   3.252   4.299   7.526
 6259SOL    HW119109   3.198   4.278   7.607
 6259SOL    HW219110   3.343   4.258   7.535
 6260SOL     OW19111   2.389   3.980   7.776
 6260SOL    HW119112   2.416   3.921   7.701
 6260SOL    HW219113   2.389   4.075   7.745
 6261SOL     OW19114   3.616   4.947   9.036
 6261SOL    HW119115   3.707   4.908   9.023
 6261SOL    HW219116   3.624   5.043   9.060
 6262SOL     OW19117   3.500   4.823   8.527
 6262SOL    HW119118   3.505   4.904   8.586
 6262SOL    HW219119   3.414   4.825   8.476
 6263SOL     OW19120   2.777   3.813   8.850
 6263SOL    HW119121   2.802   3.793   8.755
 6263SOL    HW219122   2.849   3.869   8.892
 6264SOL     OW19123   2.842   4.840   9.167
 6264SOL    HW119124   2.743   4.846   9.177
 6264SOL    HW219125   2.865   4.760   9.111
 6265SOL     OW19126   2.567   4.774   7.816
 6265SOL    HW119127   2.553   4.781   7.915
 6265SOL    HW219128   2.651   4.723   7.798
 6266SOL     OW19129   2.272   4.537   8.699
 6266SOL    HW119130   2.358   4.549   8.749
 6266SOL    HW219131   2.230   4.450   8.726
 6267SOL     OW19132   3.136   4.110   8.710
 6267SOL    HW119133   3.157   4.184   8.774
 6267SOL    HW219134   3.047   4.127   8.667
 6268SOL     OW19135   2.229   4.824   7.949
 6268SOL    HW119136   2.222   4.907   7.893
 6268SOL    HW219137   2.233   4.744   7.889
 6269SOL     OW19138   2.428   4.261   8.313
 6269SOL    HW119139   2.440   4.327   8.239
 6269SOL    HW219140   2.474   4.295   8.396
 6270SOL     OW19141   3.444   4.363   7.920
 6270SOL    HW119142   3.413   4.424   7.993
 6270SOL    HW219143   3.494   4.415   7.851
 6271SOL     OW19144   2.264   4.475   9.046
 6271SOL    HW119145   2.332   4.530   8.999
 6271SOL    HW219146   2.304   4.387   9.073
 6272SOL     OW19147   3.449   4.503   9.118
 6272SOL    HW119148   3.357   4.541   9.113
 6272SOL    HW219149   3.509   4.550   9.053
 6273SOL     OW19150   2.875   3.829   9.218
 6273SOL    HW119151   2.881   3.914   9.166
 6273SOL    HW219152   2.907   3.753   9.161
 6274SOL     OW19153   2.366   3.774   9.188
 6274SOL    HW119154   2.324   3.717   9.118
 6274SOL    HW219155   2.300   3.843   9.220
 6275SOL     OW19156   2.435   4.594   8.477
 6275SOL    HW119157   2.479   4.683   8.468
 6275SOL    HW219158   2.372   4.594   8.554
 6276SOL     OW19159   3.222   4.586   8.493
 6276SOL    HW119160   3.147   4.586   8.427
 6276SOL    HW219161   3.259   4.494   8.502
 6277SOL     OW19162   3.071   4.249   7.723
 6277SOL    HW119163   3.084   4.165   7.777
 6277SOL    HW219164   3.042   4.323   7.783
 6278SOL     OW19165   2.169   3.937   8.679
 6278SOL    HW119166   2.146   3.974   8.769
 6278SOL    HW219167   2.139   3.842   8.673
 6279SOL     OW19168   2.594   4.358   8.512
 6279SOL    HW119169   2.653   4.332   8.436
 6279SOL    HW219170   2.566   4.454   8.501
 6280SOL     OW19171   3.590   4.659   9.302
 6280SOL    HW119172   3.544   4.652   9.213
 6280SOL    HW219173   3.528   4.703   9.368
 6281SOL     OW19174   2.169   3.787   8.066
 6281SOL    HW119175   2.158   3.881   8.099
 6281SOL    HW219176   2.164   3.724   8.143
 6282SOL     OW19177   3.484   4.091   7.822
 6282SOL    HW119178   3.486   4.015   7.886
 6282SOL    HW219179   3.436   4.168   7.862
 6283SOL     OW19180   2.885   4.490   8.414
 6283SOL    HW119181   2.900   4.511   8.510
 6283SOL    HW219182   2.855   4.395   8.405
 6284SOL     OW19183   2.212   4.622   9.252
 6284SOL    HW119184   2.288   4.666   9.300
 6284SOL    HW219185   2.247   4.575   9.170
 6285SOL     OW19186   3.402   3.998   7.573
 6285SOL    HW119187   3.341   3.923   7.596
 6285SOL    HW219188   3.424   4.050   7.656
 6286SOL     OW19189   3.165   4.562   7.490
 6286SOL    HW119190   3.199   4.469   7.505
 6286SOL    HW219191   3.183   4.589   7.395
 6287SOL     OW19192   2.181   4.534   8.397
 6287SOL    HW119193   2.274   4.570   8.402
 6287SOL    HW219194   2.175   4.449   8.449
 6288SOL     OW19195   2.201   4.233   8.454
 6288SOL    HW119196   2.149   4.150   8.437
 6288SOL    HW219197   2.278   4.238   8.390
 6289SOL     OW19198   3.000   4.104   9.126
 6289SOL    HW119199   2.955   4.167   9.190
 6289SOL    HW219200   3.093   4.135   9.109
 6290SOL     OW19201   3.022   3.931   8.925
 6290SOL    HW119202   3.022   3.995   9.002
 6290SOL    HW219203   3.050   3.979   8.842
 6291SOL     OW19204   1.870   5.050   7.648
 6291SOL    HW119205   1.777   5.071   7.617
 6291SOL    HW219206   1.880   4.951   7.661
 6292SOL     OW19207   2.864   4.520   8.686
 6292SOL    HW119208   2.905   4.488   8.772
 6292SOL    HW219209   2.768   4.493   8.683
 6293SOL     OW19210   1.902   4.268   8.562
 6293SOL    HW119211   1.987   4.235   8.521
 6293SOL    HW219212   1.915   4.283   8.660
 6294SOL     OW19213   2.051   4.244   9.170
 6294SOL    HW119214   2.110   4.204   9.100
 6294SOL    HW219215   1.993   4.315   9.129
 6295SOL     OW19216   3.231   4.674   9.108
 6295SOL    HW119217   3.270   4.763   9.128
 6295SOL    HW219218   3.241   4.654   9.011
 6296SOL     OW19219   2.677   4.296   7.773
 6296SOL    HW119220   2.684   4.207   7.727
 6296SOL    HW219221   2.583   4.330   7.765
 6297SOL     OW19222   3.519   4.328   8.654
 6297SOL    HW119223   3.481   4.259   8.716
 6297SOL    HW219224   3.601   4.292   8.610
 6298SOL     OW19225   2.533   4.188   8.717
 6298SOL    HW119226   2.499   4.099   8.687
 6298SOL    HW219227   2.559   4.242   8.637
 6299SOL     OW19228   2.335   4.224   7.639
 6299SOL    HW119229   2.396   4.304   7.643
 6299SOL    HW219230   2.240   4.255   7.646
 6300SOL     OW19231   2.021   4.861   8.914
 6300SOL    HW119232   2.043   4.800   8.990
 6300SOL    HW219233   2.031   4.812   8.828
 6301SOL     OW19234   3.209   4.783   8.682
 6301SOL    HW119235   3.233   4.720   8.608
 6301SOL    HW219236   3.119   4.823   8.664
 6302SOL     OW19237   3.164   4.579   7.757
 6302SOL    HW119238   3.078   4.548   7.799
 6302SOL    HW219239   3.160   4.565   7.658
 6303SOL     OW19240   1.945   4.982   8.470
 6303SOL    HW119241   1.940   4.981   8.570
 6303SOL    HW219242   1.862   4.941   8.432
 6304SOL     OW19243   3.588   3.859   7.971
 6304SOL    HW119244   3.661   3.842   7.904
 6304SOL    HW219245   3.557   3.772   8.009
 6305SOL     OW19246   3.142   4.651   8.120
 6305SOL    HW119247   3.202   4.570   8.122
 6305SOL    HW219248   3.182   4.720   8.060
 6306SOL     OW19249   3.703   3.899   8.411
 6306SOL    HW119250   3.742   3.814   8.375
 6306SOL    HW219251   3.605   3.901   8.392
 6307SOL     OW19252   2.125   4.050   8.168
 6307SOL    HW119253   2.046   4.101   8.134
 6307SOL    HW219254   2.116   4.035   8.266
 6308SOL     OW19255   2.684   4.726   8.820
 6308SOL    HW119256   2.724   4.725   8.728
 6308SOL    HW219257   2.694   4.818   8.860
 6309SOL     OW19258   2.778   4.634   7.739
 6309SOL    HW119259   2.841   4.672   7.671
 6309SOL    HW219260   2.818   4.551   7.778
 6310SOL     OW19261   2.234   5.012   8.938
 6310SOL    HW119262   2.221   5.105   8.904
 6310SOL    HW219263   2.150   4.960   8.925
 6311SOL     OW19264   3.476   5.016   8.737
 6311SOL    HW119265   3.536   5.019   8.817
 6311SOL    HW219266   3.401   5.080   8.750
 6312SOL     OW19267   2.901   4.822   8.144
 6312SOL    HW119268   2.831   4.775   8.198
 6312SOL    HW219269   2.960   4.754   8.101
 6313SOL     OW19270   2.876   3.960   8.419
 6313SOL    HW119271   2.868   3.924   8.326
 6313SOL    HW219272   2.874   3.884   8.484
 6314SOL     OW19273   3.571   4.109   8.829
 6314SOL    HW119274   3.644   4.178   8.833
 6314SOL    HW219275   3.599   4.034   8.770
 6315SOL     OW19276   1.967   4.737   9.174
 6315SOL    HW119277   1.890   4.704   9.228
 6315SOL    HW219278   2.052   4.707   9.216
 6316SOL     OW19279   2.534   3.927   8.937
 6316SOL    HW119280   2.624   3.911   8.897
 6316SOL    HW219281   2.542   3.932   9.036
 6317SOL     OW19282   1.937   4.069   7.481
 6317SOL    HW119283   1.845   4.041   7.452
 6317SOL    HW219284   1.968   4.146   7.425
 6318SOL     OW19285   3.302   4.580   8.846
 6318SOL    HW119286   3.245   4.632   8.783
 6318SOL    HW219287   3.398   4.592   8.822
 6319SOL     OW19288   1.934   3.890   7.766
 6319SOL    HW119289   1.917   3.973   7.712
 6319SOL    HW219290   2.024   3.853   7.744
 6320SOL     OW19291   2.475   4.566   8.879
 6320SOL    HW119292   2.531   4.647   8.862
 6320SOL    HW219293   2.534   4.486   8.882
 6321SOL     OW19294   2.578   4.289   9.156
 6321SOL    HW119295   2.597   4.354   9.230
 6321SOL    HW219296   2.638   4.209   9.165
 6322SOL     OW19297   3.312   4.944   9.081
 6322SOL    HW119298   3.303   4.934   9.180
 6322SOL    HW219299   3.408   4.937   9.055
 6323SOL     OW19300   3.536   4.607   8.702
 6323SOL    HW119301   3.509   4.518   8.665
 6323SOL    HW219302   3.537   4.675   8.629
 6324SOL     OW19303   3.087   4.049   7.897
 6324SOL    HW119304   3.152   3.975   7.886
 6324SOL    HW219305   3.107   4.099   7.981
 6325SOL     OW19306   2.456   4.469   8.100
 6325SOL    HW119307   2.506   4.554   8.081
 6325SOL    HW219308   2.368   4.471   8.052
 6326SOL     OW19309   3.639   4.066   9.090
 6326SOL    HW119310   3.622   4.097   8.996
 6326SOL    HW219311   3.555   4.029   9.128
 6327SOL     OW19312   3.592   4.658   8.965
 6327SOL    HW119313   3.630   4.749   8.980
 6327SOL    HW219314   3.584   4.641   8.866
 6328SOL     OW19315   2.721   4.680   8.309
 6328SOL    HW119316   2.775   4.611   8.357
 6328SOL    HW219317   2.689   4.749   8.375
 6329SOL     OW19318   2.945   4.708   7.535
 6329SOL    HW119319   2.922   4.761   7.453
 6329SOL    HW219320   3.026   4.652   7.516
 6330SOL     OW19321   1.941   4.964   8.101
 6330SOL    HW119322   1.940   4.917   8.189
 6330SOL    HW219323   2.023   4.936   8.050
 6331SOL     OW19324   3.686   3.916   8.675
 6331SOL    HW119325   3.682   3.826   8.719
 6331SOL    HW219326   3.689   3.905   8.576
 6332SOL     OW19327   2.290   4.148   7.968
 6332SOL    HW119328   2.320   4.076   7.906
 6332SOL    HW219329   2.251   4.108   8.051
 6333SOL     OW19330   2.179   4.271   8.728
 6333SOL    HW119331   2.217   4.212   8.800
 6333SOL    HW219332   2.219   4.245   8.640
 6334SOL     OW19333   3.286   3.938   8.560
 6334SOL    HW119334   3.338   3.873   8.615
 6334SOL    HW219335   3.237   4.001   8.621
 6335SOL     OW19336   2.863   3.758   8.602
 6335SOL    HW119337   2.800   3.686   8.571
 6335SOL    HW219338   2.956   3.722   8.602
 6336SOL     OW19339   2.632   5.054   7.749
 6336SOL    HW119340   2.586   4.967   7.766
 6336SOL    HW219341   2.723   5.051   7.790
 6337SOL     OW19342   3.214   3.776   7.616
 6337SOL    HW119343   3.249   3.735   7.532
 6337SOL    HW219344   3.124   3.738   7.636
 6338SOL     OW19345   3.162   4.177   8.139
 6338SOL    HW119346   3.103   4.257   8.143
 6338SOL    HW219347   3.177   4.142   8.232
 6339SOL     OW19348   3.455   3.945   8.330
 6339SOL    HW119349   3.371   3.944   8.384
 6339SOL    HW219350   3.457   4.028   8.274
 6340SOL     OW19351   1.901   4.801   7.748
 6340SOL    HW119352   2.000   4.790   7.739
 6340SOL    HW219353   1.861   4.715   7.780
 6341SOL     OW19354   2.092   4.352   9.423
 6341SOL    HW119355   1.999   4.350   9.460
 6341SOL    HW219356   2.093   4.313   9.331
 6342SOL     OW19357   2.087   3.999  10.306
 6342SOL    HW119358   2.122   3.982  10.398
 6342SOL    HW219359   1.999   3.954  10.294
 6343SOL     OW19360   1.881   4.092   9.957
 6343SOL    HW119361   1.799   4.135   9.996
 6343SOL    HW219362   1.853   4.019   9.894
 6344SOL     OW19363   2.997   4.427  10.027
 6344SOL    HW119364   3.054   4.505  10.002
 6344SOL    HW219365   2.937   4.453  10.103
 6345SOL     OW19366   3.617   4.331   9.541
 6345SOL    HW119367   3.605   4.318   9.442
 6345SOL    HW219368   3.587   4.250   9.590
 6346SOL     OW19369   2.630   4.868  10.333
 6346SOL    HW119370   2.552   4.885  10.393
 6346SOL    HW219371   2.664   4.955  10.297
 6347SOL     OW19372   2.547   4.736   9.975
 6347SOL    HW119373   2.616   4.720  10.045
 6347SOL    HW219374   2.474   4.793  10.013
 6348SOL     OW19375   3.322   5.229  10.649
 6348SOL    HW119376   3.346   5.323  10.675
 6348SOL    HW219377   3.306   5.175  10.731
 6349SOL     OW19378   2.300   4.116  10.809
 6349SOL    HW119379   2.382   4.060  10.818
 6349SOL    HW219380   2.219   4.058  10.813
 6350SOL     OW19381   3.465   4.171  10.047
 6350SOL    HW119382   3.391   4.217   9.997
 6350SOL    HW219383   3.516   4.239  10.100
 6351SOL     OW19384   2.102   4.815  10.196
 6351SOL    HW119385   2.116   4.731  10.248
 6351SOL    HW219386   2.047   4.879  10.251
 6352SOL     OW19387   2.468   4.688   9.433
 6352SOL    HW119388   2.475   4.772   9.379
 6352SOL    HW219389   2.514   4.701   9.521
 6353SOL     OW19390   1.984   4.367   9.873
 6353SOL    HW119391   1.939   4.279   9.890
 6353SOL    HW219392   1.983   4.421   9.957
 6354SOL     OW19393   3.551   4.646   9.922
 6354SOL    HW119394   3.646   4.617   9.930
 6354SOL    HW219395   3.543   4.711   9.847
 6355SOL     OW19396   3.503   4.832   9.742
 6355SOL    HW119397   3.589   4.834   9.690
 6355SOL    HW219398   3.517   4.879   9.830
 6356SOL     OW19399   2.671   3.728   9.812
 6356SOL    HW119400   2.711   3.819   9.803
 6356SOL    HW219401   2.571   3.736   9.818
 6357SOL     OW19402   2.059   4.700  10.574
 6357SOL    HW119403   2.148   4.655  10.560
 6357SOL    HW219404   1.986   4.635  10.555
 6358SOL     OW19405   3.387   4.723   9.500
 6358SOL    HW119406   3.324   4.647   9.513
 6358SOL    HW219407   3.435   4.741   9.586
 6359SOL     OW19408   2.460   4.453   9.580
 6359SOL    HW119409   2.484   4.522   9.512
 6359SOL    HW219410   2.382   4.486   9.634
 6360SOL     OW19411   3.143   4.069  10.254
 6360SOL    HW119412   3.057   4.019  10.241
 6360SOL    HW219413   3.205   4.015  10.310
 6361SOL     OW19414   2.669   4.329  10.775
 6361SOL    HW119415   2.622   4.326  10.864
 6361SOL    HW219416   2.618   4.274  10.709
 6362SOL     OW19417   2.853   4.134  10.552
 6362SOL    HW119418   2.776   4.168  10.606
 6362SOL    HW219419   2.819   4.083  10.473
 6363SOL     OW19420   2.903   4.425   9.739
 6363SOL    HW119421   2.929   4.421   9.835
 6363SOL    HW219422   2.818   4.374   9.725
 6364SOL     OW19423   1.938   4.535  10.099
 6364SOL    HW119424   2.037   4.523  10.108
 6364SOL    HW219425   1.914   4.630  10.120
 6365SOL     OW19426   2.727   4.072   9.505
 6365SOL    HW119427   2.786   4.135   9.456
 6365SOL    HW219428   2.746   3.978   9.476
 6366SOL     OW19429   3.224   4.868   9.855
 6366SOL    HW119430   3.307   4.839   9.807
 6366SOL    HW219431   3.175   4.935   9.799
 6367SOL     OW19432   2.412   3.920  10.195
 6367SOL    HW119433   2.407   3.915  10.295
 6367SOL    HW219434   2.414   4.016  10.166
 6368SOL     OW19435   3.657   4.790  10.183
 6368SOL    HW119436   3.595   4.775  10.107
 6368SOL    HW219437   3.605   4.801  10.268
 6369SOL     OW19438   2.183   4.667   9.552
 6369SOL    HW119439   2.265   4.706   9.510
 6369SOL    HW219440   2.156   4.585   9.503
 6370SOL     OW19441   3.320   4.459  10.038
 6370SOL    HW119442   3.315   4.394  10.113
 6370SOL    HW219443   3.400   4.518  10.051
 6371SOL     OW19444   3.262   3.831   9.736
 6371SOL    HW119445   3.238   3.794   9.646
 6371SOL    HW219446   3.361   3.847   9.740
 6372SOL     OW19447   2.244   4.424   9.790
 6372SOL    HW119448   2.289   4.334   9.787
 6372SOL    HW219449   2.150   4.413   9.823
 6373SOL     OW19450   2.476   3.846   9.427
 6373SOL    HW119451   2.574   3.824   9.434
 6373SOL    HW219452   2.445   3.829   9.334
 6374SOL     OW19453   2.784   4.227  10.209
 6374SOL    HW119454   2.759   4.218  10.113
 6374SOL    HW219455   2.832   4.145  10.240
 6375SOL     OW19456   2.401   3.788   9.822
 6375SOL    HW119457   2.320   3.789   9.880
 6375SOL    HW219458   2.404   3.871   9.767
 6376SOL     OW19459   2.159   3.759   9.481
 6376SOL    HW119460   2.208   3.843   9.460
 6376SOL    HW219461   2.221   3.694   9.526
 6377SOL     OW19462   2.797   3.960   9.790
 6377SOL    HW119463   2.749   4.001   9.712
 6377SOL    HW219464   2.896   3.958   9.771
 6378SOL     OW19465   2.321   4.876  10.051
 6378SOL    HW119466   2.250   4.849  10.116
 6378SOL    HW219467   2.295   4.848   9.958
 6379SOL     OW19468   2.894   4.273   9.326
 6379SOL    HW119469   2.853   4.355   9.287
 6379SOL    HW219470   2.958   4.299   9.399
 6380SOL     OW19471   1.940   4.280  10.696
 6380SOL    HW119472   2.032   4.279  10.655
 6380SOL    HW219473   1.934   4.354  10.763
 6381SOL     OW19474   2.423   3.946  10.457
 6381SOL    HW119475   2.461   3.862  10.494
 6381SOL    HW219476   2.335   3.965  10.501
 6382SOL     OW19477   2.728   4.178   9.952
 6382SOL    HW119478   2.696   4.250   9.890
 6382SOL    HW219479   2.752   4.097   9.899
 6383SOL     OW19480   2.879   3.763  10.063
 6383SOL    HW119481   2.807   3.768   9.994
 6383SOL    HW219482   2.855   3.694  10.132
 6384SOL     OW19483   3.291   4.897  10.177
 6384SOL    HW119484   3.236   4.813  10.170
 6384SOL    HW219485   3.317   4.926  10.085
 6385SOL     OW19486   3.328   4.314  10.302
 6385SOL    HW119487   3.298   4.219  10.309
 6385SOL    HW219488   3.401   4.330  10.368
 6386SOL     OW19489   3.719   4.557   9.687
 6386SOL    HW119490   3.761   4.493   9.751
 6386SOL    HW219491   3.681   4.506   9.609
 6387SOL     OW19492   3.252   4.299   9.388
 6387SOL    HW119493   3.198   4.278   9.469
 6387SOL    HW219494   3.343   4.258   9.397
 6388SOL     OW19495   2.389   3.980   9.638
 6388SOL    HW119496   2.416   3.921   9.563
 6388SOL    HW219497   2.389   4.075   9.607
 6389SOL     OW19498   3.616   4.947  10.898
 6389SOL    HW119499   3.707   4.908  10.885
 6389SOL    HW219500   3.624   5.043  10.922
 6390SOL     OW19501   2.926   5.071  10.650
 6390SOL    HW119502   2.846   5.048  10.705
 6390SOL    HW219503   3.009   5.045  10.699
 6391SOL     OW19504   3.500   4.823  10.389
 6391SOL    HW119505   3.505   4.904  10.448
 6391SOL    HW219506   3.414   4.825  10.338
 6392SOL     OW19507   2.567   4.774   9.678
 6392SOL    HW119508   2.553   4.781   9.777
 6392SOL    HW219509   2.651   4.723   9.660
 6393SOL     OW19510   2.272   4.537  10.561
 6393SOL    HW119511   2.358   4.549  10.611
 6393SOL    HW219512   2.230   4.450  10.588
 6394SOL     OW19513   3.136   4.110  10.572
 6394SOL    HW119514   3.157   4.184  10.636
 6394SOL    HW219515   3.047   4.127  10.529
 6395SOL     OW19516   2.229   4.824   9.811
 6395SOL    HW119517   2.222   4.907   9.755
 6395SOL    HW219518   2.233   4.744   9.751
 6396SOL     OW19519   2.428   4.261  10.175
 6396SOL    HW119520   2.440   4.327  10.101
 6396SOL    HW219521   2.474   4.295  10.258
 6397SOL     OW19522   3.444   4.363   9.782
 6397SOL    HW119523   3.413   4.424   9.855
 6397SOL    HW219524   3.494   4.415   9.713
 6398SOL     OW19525   2.264   4.475  10.908
 6398SOL    HW119526   2.332   4.530  10.861
 6398SOL    HW219527   2.304   4.387  10.935
 6399SOL     OW19528   2.435   4.594  10.339
 6399SOL    HW119529   2.479   4.683  10.330
 6399SOL    HW219530   2.372   4.594  10.416
 6400SOL     OW19531   3.222   4.586  10.355
 6400SOL    HW119532   3.147   4.586  10.289
 6400SOL    HW219533   3.259   4.494  10.364
 6401SOL     OW19534   3.071   4.249   9.585
 6401SOL    HW119535   3.084   4.165   9.639
 6401SOL    HW219536   3.042   4.323   9.645
 6402SOL     OW19537   2.169   3.937  10.541
 6402SOL    HW119538   2.146   3.974  10.631
 6402SOL    HW219539   2.139   3.842  10.535
 6403SOL     OW19540   2.594   4.358  10.374
 6403SOL    HW119541   2.653   4.332  10.298
 6403SOL    HW219542   2.566   4.454  10.363
 6404SOL     OW19543   2.169   3.787   9.928
 6404SOL    HW119544   2.158   3.881   9.961
 6404SOL    HW219545   2.164   3.724  10.005
 6405SOL     OW19546   3.484   4.091   9.684
 6405SOL    HW119547   3.486   4.015   9.748
 6405SOL    HW219548   3.436   4.168   9.724
 6406SOL     OW19549   2.885   4.490  10.276
 6406SOL    HW119550   2.900   4.511  10.372
 6406SOL    HW219551   2.855   4.395  10.267
 6407SOL     OW19552   3.402   3.998   9.435
 6407SOL    HW119553   3.341   3.923   9.458
 6407SOL    HW219554   3.424   4.050   9.518
 6408SOL     OW19555   3.165   4.562   9.352
 6408SOL    HW119556   3.199   4.469   9.367
 6408SOL    HW219557   3.183   4.589   9.257
 6409SOL     OW19558   2.181   4.534  10.259
 6409SOL    HW119559   2.274   4.570  10.264
 6409SOL    HW219560   2.175   4.449  10.311
 6410SOL     OW19561   2.201   4.233  10.316
 6410SOL    HW119562   2.149   4.150  10.299
 6410SOL    HW219563   2.278   4.238  10.252
 6411SOL     OW19564   3.022   3.931  10.787
 6411SOL    HW119565   3.022   3.995  10.864
 6411SOL    HW219566   3.050   3.979  10.704
 6412SOL     OW19567   1.870   5.050   9.510
 6412SOL    HW119568   1.777   5.071   9.479
 6412SOL    HW219569   1.880   4.951   9.523
 6413SOL     OW19570   2.864   4.520  10.548
 6413SOL    HW119571   2.905   4.488  10.634
 6413SOL    HW219572   2.768   4.493  10.545
 6414SOL     OW19573   1.902   4.268  10.424
 6414SOL    HW119574   1.987   4.235  10.383
 6414SOL    HW219575   1.915   4.283  10.522
 6415SOL     OW19576   2.677   4.296   9.635
 6415SOL    HW119577   2.684   4.207   9.589
 6415SOL    HW219578   2.583   4.330   9.627
 6416SOL     OW19579   3.519   4.328  10.516
 6416SOL    HW119580   3.481   4.259  10.578
 6416SOL    HW219581   3.601   4.292  10.472
 6417SOL     OW19582   2.533   4.188  10.579
 6417SOL    HW119583   2.499   4.099  10.549
 6417SOL    HW219584   2.559   4.242  10.499
 6418SOL     OW19585   2.335   4.224   9.501
 6418SOL    HW119586   2.396   4.304   9.505
 6418SOL    HW219587   2.240   4.255   9.508
 6419SOL     OW19588   2.021   4.861  10.776
 6419SOL    HW119589   2.043   4.800  10.852
 6419SOL    HW219590   2.031   4.812  10.690
 6420SOL     OW19591   3.209   4.783  10.544
 6420SOL    HW119592   3.233   4.720  10.470
 6420SOL    HW219593   3.119   4.823  10.526
 6421SOL     OW19594   3.164   4.579   9.619
 6421SOL    HW119595   3.078   4.548   9.661
 6421SOL    HW219596   3.160   4.565   9.520
 6422SOL     OW19597   1.945   4.982  10.332
 6422SOL    HW119598   1.940   4.981  10.432
 6422SOL    HW219599   1.862   4.941  10.294
 6423SOL     OW19600   3.588   3.859   9.833
 6423SOL    HW119601   3.661   3.842   9.766
 6423SOL    HW219602   3.557   3.772   9.871
 6424SOL     OW19603   3.142   4.651   9.982
 6424SOL    HW119604   3.202   4.570   9.984
 6424SOL    HW219605   3.182   4.720   9.922
 6425SOL     OW19606   2.692   4.997  10.732
 6425SOL    HW119607   2.687   5.030  10.827
 6425SOL    HW219608   2.606   5.016  10.686
 6426SOL     OW19609   3.703   3.899  10.273
 6426SOL    HW119610   3.742   3.814  10.237
 6426SOL    HW219611   3.605   3.901  10.254
 6427SOL     OW19612   2.125   4.050  10.030
 6427SOL    HW119613   2.046   4.101   9.996
 6427SOL    HW219614   2.116   4.035  10.128
 6428SOL     OW19615   2.684   4.726  10.682
 6428SOL    HW119616   2.724   4.725  10.590
 6428SOL    HW219617   2.694   4.818  10.722
 6429SOL     OW19618   2.778   4.634   9.601
 6429SOL    HW119619   2.841   4.672   9.533
 6429SOL    HW219620   2.818   4.551   9.640
 6430SOL     OW19621   2.234   5.012  10.800
 6430SOL    HW119622   2.221   5.105  10.766
 6430SOL    HW219623   2.150   4.960  10.787
 6431SOL     OW19624   3.476   5.016  10.599
 6431SOL    HW119625   3.536   5.019  10.679
 6431SOL    HW219626   3.401   5.080  10.612
 6432SOL     OW19627   2.901   4.822  10.006
 6432SOL    HW119628   2.831   4.775  10.060
 6432SOL    HW219629   2.960   4.754   9.963
 6433SOL     OW19630   2.876   3.960  10.281
 6433SOL    HW119631   2.868   3.924  10.188
 6433SOL    HW219632   2.874   3.884  10.346
 6434SOL     OW19633   3.571   4.109  10.691
 6434SOL    HW119634   3.644   4.178  10.695
 6434SOL    HW219635   3.599   4.034  10.632
 6435SOL     OW19636   2.534   3.927  10.799
 6435SOL    HW119637   2.624   3.911  10.759
 6435SOL    HW219638   2.542   3.932  10.898
 6436SOL     OW19639   1.937   4.069   9.343
 6436SOL    HW119640   1.845   4.041   9.314
 6436SOL    HW219641   1.968   4.146   9.287
 6437SOL     OW19642   1.934   3.890   9.628
 6437SOL    HW119643   1.917   3.973   9.574
 6437SOL    HW219644   2.024   3.853   9.606
 6438SOL     OW19645   2.475   4.566  10.741
 6438SOL    HW119646   2.531   4.647  10.724
 6438SOL    HW219647   2.534   4.486  10.744
 6439SOL     OW19648   3.536   4.607  10.564
 6439SOL    HW119649   3.509   4.518  10.527
 6439SOL    HW219650   3.537   4.675  10.491
 6440SOL     OW19651   3.087   4.049   9.759
 6440SOL    HW119652   3.152   3.975   9.748
 6440SOL    HW219653   3.107   4.099   9.843
 6441SOL     OW19654   2.456   4.469   9.962
 6441SOL    HW119655   2.506   4.554   9.943
 6441SOL    HW219656   2.368   4.471   9.914
 6442SOL     OW19657   3.592   4.658  10.827
 6442SOL    HW119658   3.630   4.749  10.842
 6442SOL    HW219659   3.584   4.641  10.728
 6443SOL     OW19660   2.721   4.680  10.171
 6443SOL    HW119661   2.775   4.611  10.219
 6443SOL    HW219662   2.689   4.749  10.237
 6444SOL     OW19663   2.945   4.708   9.397
 6444SOL    HW119664   2.922   4.761   9.315
 6444SOL    HW219665   3.026   4.652   9.378
 6445SOL     OW19666   1.941   4.964   9.963
 6445SOL    HW119667   1.940   4.917  10.051
 6445SOL    HW219668   2.023   4.936   9.912
 6446SOL     OW19669   3.686   3.916  10.537
 6446SOL    HW119670   3.682   3.826  10.581
 6446SOL    HW219671   3.689   3.905  10.438
 6447SOL     OW19672   2.290   4.148   9.830
 6447SOL    HW119673   2.320   4.076   9.768
 6447SOL    HW219674   2.251   4.108   9.913
 6448SOL     OW19675   2.179   4.271  10.590
 6448SOL    HW119676   2.217   4.212  10.662
 6448SOL    HW219677   2.219   4.245  10.502
 6449SOL     OW19678   3.286   3.938  10.422
 6449SOL    HW119679   3.338   3.873  10.477
 6449SOL    HW219680   3.237   4.001  10.483
 6450SOL     OW19681   2.863   3.758  10.464
 6450SOL    HW119682   2.800   3.686  10.433
 6450SOL    HW219683   2.956   3.722  10.464
 6451SOL     OW19684   2.632   5.054   9.611
 6451SOL    HW119685   2.586   4.967   9.628
 6451SOL    HW219686   2.723   5.051   9.652
 6452SOL     OW19687   3.214   3.776   9.478
 6452SOL    HW119688   3.249   3.735   9.394
 6452SOL    HW219689   3.124   3.738   9.498
 6453SOL     OW19690   3.162   4.177  10.001
 6453SOL    HW119691   3.103   4.257  10.005
 6453SOL    HW219692   3.177   4.142  10.094
 6454SOL     OW19693   3.455   3.945  10.192
 6454SOL    HW119694   3.371   3.944  10.246
 6454SOL    HW219695   3.457   4.028  10.136
 6455SOL     OW19696   1.901   4.801   9.610
 6455SOL    HW119697   2.000   4.790   9.601
 6455SOL    HW219698   1.861   4.715   9.642
 6456SOL     OW19699   3.954   0.628   0.113
 6456SOL    HW119700   3.861   0.626   0.150
 6456SOL    HW219701   3.955   0.589   0.021
 6457SOL     OW19702   3.949   0.275   0.996
 6457SOL    HW119703   3.984   0.258   1.088
 6457SOL    HW219704   3.861   0.230   0.984
 6458SOL     OW19705   3.743   0.368   0.647
 6458SOL    HW119706   3.661   0.411   0.686
 6458SOL    HW219707   3.715   0.295   0.584
 6459SOL     OW19708   4.293   1.275   1.165
 6459SOL    HW119709   4.200   1.268   1.128
 6459SOL    HW219710   4.304   1.364   1.209
 6460SOL     OW19711   4.859   0.703   0.717
 6460SOL    HW119712   4.916   0.781   0.692
 6460SOL    HW219713   4.799   0.729   0.793
 6461SOL     OW19714   4.492   1.144   1.023
 6461SOL    HW119715   4.414   1.161   1.083
 6461SOL    HW219716   4.526   1.231   0.987
 6462SOL     OW19717   4.574   0.798   1.823
 6462SOL    HW119718   4.570   0.874   1.888
 6462SOL    HW219719   4.596   0.834   1.732
 6463SOL     OW19720   4.409   1.012   0.665
 6463SOL    HW119721   4.478   0.996   0.735
 6463SOL    HW219722   4.336   1.069   0.703
 6464SOL     OW19723   4.410   1.161   1.803
 6464SOL    HW119724   4.470   1.240   1.817
 6464SOL    HW219725   4.324   1.192   1.762
 6465SOL     OW19726   4.059   1.435   1.061
 6465SOL    HW119727   3.981   1.404   1.008
 6465SOL    HW219728   4.117   1.493   1.004
 6466SOL     OW19729   4.162   0.392   1.499
 6466SOL    HW119730   4.244   0.336   1.508
 6466SOL    HW219731   4.081   0.334   1.503
 6467SOL     OW19732   3.955   1.713   0.483
 6467SOL    HW119733   3.989   1.790   0.537
 6467SOL    HW219734   3.999   1.713   0.393
 6468SOL     OW19735   4.851   1.341   1.690
 6468SOL    HW119736   4.898   1.341   1.778
 6468SOL    HW219737   4.803   1.254   1.679
 6469SOL     OW19738   3.954   1.434   0.538
 6469SOL    HW119739   3.928   1.530   0.538
 6469SOL    HW219740   3.883   1.380   0.583
 6470SOL     OW19741   3.964   1.091   0.886
 6470SOL    HW119742   3.978   1.007   0.938
 6470SOL    HW219743   3.909   1.155   0.941
 6471SOL     OW19744   4.344   1.786   1.439
 6471SOL    HW119745   4.252   1.769   1.474
 6471SOL    HW219746   4.372   1.878   1.465
 6472SOL     OW19747   4.330   0.964   0.123
 6472SOL    HW119748   4.337   1.048   0.069
 6472SOL    HW219749   4.376   0.977   0.211
 6473SOL     OW19750   3.846   0.643   0.563
 6473SOL    HW119751   3.801   0.555   0.580
 6473SOL    HW219752   3.845   0.697   0.647
 6474SOL     OW19753   3.751   1.596   0.117
 6474SOL    HW119754   3.732   1.500   0.138
 6474SOL    HW219755   3.718   1.654   0.192
 6475SOL     OW19756   3.837   0.737   1.597
 6475SOL    HW119757   3.925   0.724   1.642
 6475SOL    HW219758   3.824   0.834   1.575
 6476SOL     OW19759   4.337   1.365   0.726
 6476SOL    HW119760   4.288   1.278   0.735
 6476SOL    HW219761   4.314   1.408   0.639
 6477SOL     OW19762   4.533   0.004   0.502
 6477SOL    HW119763   4.573   0.095   0.493
 6477SOL    HW219764   4.433   0.012   0.508
 6478SOL     OW19765   3.921   0.976   1.264
 6478SOL    HW119766   4.010   0.931   1.250
 6478SOL    HW219767   3.848   0.911   1.245
 6479SOL     OW19768   4.041   0.251   1.801
 6479SOL    HW119769   4.112   0.322   1.807
 6479SOL    HW219770   3.953   0.290   1.829
 6480SOL     OW19771   4.322   0.729   0.270
 6480SOL    HW119772   4.346   0.798   0.202
 6480SOL    HW219773   4.244   0.762   0.324
 6481SOL     OW19774   4.531   0.605   1.465
 6481SOL    HW119775   4.484   0.602   1.554
 6481SOL    HW219776   4.480   0.550   1.399
 6482SOL     OW19777   4.697   0.890   1.572
 6482SOL    HW119778   4.743   0.806   1.543
 6482SOL    HW219779   4.641   0.924   1.497
 6483SOL     OW19780   4.715   0.410   1.242
 6483SOL    HW119781   4.638   0.444   1.296
 6483SOL    HW219782   4.681   0.359   1.163
 6484SOL     OW19783   4.765   0.701   0.429
 6484SOL    HW119784   4.791   0.697   0.525
 6484SOL    HW219785   4.680   0.650   0.415
 6485SOL     OW19786   3.800   0.811   0.789
 6485SOL    HW119787   3.899   0.799   0.798
 6485SOL    HW219788   3.776   0.906   0.810
 6486SOL     OW19789   3.854   1.821   1.571
 6486SOL    HW119790   3.844   1.806   1.670
 6486SOL    HW219791   3.768   1.857   1.535
 6487SOL     OW19792   4.589   0.348   0.195
 6487SOL    HW119793   4.648   0.411   0.146
 6487SOL    HW219794   4.608   0.254   0.166
 6488SOL     OW19795   4.274   0.196   0.885
 6488SOL    HW119796   4.269   0.191   0.985
 6488SOL    HW219797   4.276   0.292   0.856
 6489SOL     OW19798   4.732   1.456   0.477
 6489SOL    HW119799   4.686   1.528   0.425
 6489SOL    HW219800   4.728   1.476   0.575
 6490SOL     OW19801   4.075   1.801   0.853
 6490SOL    HW119802   4.125   1.715   0.859
 6490SOL    HW219803   4.140   1.878   0.850
 6491SOL     OW19804   4.951   1.550   1.506
 6491SOL    HW119805   4.957   1.473   1.570
 6491SOL    HW219806   4.899   1.524   1.426
 6492SOL     OW19807   4.045   0.943   0.242
 6492SOL    HW119808   4.127   0.982   0.200
 6492SOL    HW219809   4.018   0.861   0.193
 6493SOL     OW19810   4.185   1.266   1.727
 6493SOL    HW119811   4.135   1.267   1.641
 6493SOL    HW219812   4.122   1.248   1.803
 6494SOL     OW19813   4.835   1.776   0.237
 6494SOL    HW119814   4.775   1.714   0.287
 6494SOL    HW219815   4.866   1.732   0.152
 6495SOL     OW19816   3.926   0.285   1.498
 6495SOL    HW119817   3.846   0.345   1.485
 6495SOL    HW219818   3.916   0.236   1.584
 6496SOL     OW19819   4.188   1.743   0.323
 6496SOL    HW119820   4.221   1.782   0.409
 6496SOL    HW219821   4.264   1.736   0.258
 6497SOL     OW19822   3.973   1.785   1.241
 6497SOL    HW119823   4.030   1.720   1.291
 6497SOL    HW219824   3.957   1.752   1.148
 6498SOL     OW19825   4.664   1.698   0.904
 6498SOL    HW119826   4.744   1.641   0.925
 6498SOL    HW219827   4.615   1.658   0.827
 6499SOL     OW19828   4.106   0.700   0.480
 6499SOL    HW119829   4.151   0.610   0.477
 6499SOL    HW219830   4.012   0.689   0.513
 6500SOL     OW19831   4.338   0.122   0.117
 6500SOL    HW119832   4.436   0.100   0.124
 6500SOL    HW219833   4.307   0.105   0.024
 6501SOL     OW19834   4.505   0.264   1.749
 6501SOL    HW119835   4.572   0.203   1.792
 6501SOL    HW219836   4.432   0.283   1.814
 6502SOL     OW19837   4.612   1.514   1.195
 6502SOL    HW119838   4.589   1.489   1.101
 6502SOL    HW219839   4.673   1.445   1.234
 6503SOL     OW19840   4.527   1.402   0.924
 6503SOL    HW119841   4.617   1.416   0.882
 6503SOL    HW219842   4.456   1.404   0.853
 6504SOL     OW19843   4.646   0.503   0.899
 6504SOL    HW119844   4.621   0.494   0.803
 6504SOL    HW219845   4.694   0.421   0.930
 6505SOL     OW19846   4.263   0.064   0.512
 6505SOL    HW119847   4.182   0.065   0.570
 6505SOL    HW219848   4.266   0.147   0.457
 6506SOL     OW19849   4.021   0.035   0.171
 6506SOL    HW119850   4.070   0.119   0.150
 6506SOL    HW219851   4.083  -0.030   0.216
 6507SOL     OW19852   4.659   0.236   0.480
 6507SOL    HW119853   4.611   0.277   0.402
 6507SOL    HW219854   4.758   0.234   0.461
 6508SOL     OW19855   4.800   0.683   1.464
 6508SOL    HW119856   4.720   0.622   1.467
 6508SOL    HW219857   4.881   0.630   1.440
 6509SOL     OW19858   4.951   1.570   0.793
 6509SOL    HW119859   4.972   1.644   0.728
 6509SOL    HW219860   5.019   1.570   0.866
 6510SOL     OW19861   4.183   1.152   0.741
 6510SOL    HW119862   4.112   1.125   0.806
 6510SOL    HW219863   4.157   1.124   0.648
 6511SOL     OW19864   4.995   1.797   0.591
 6511SOL    HW119865   5.039   1.861   0.527
 6511SOL    HW219866   4.945   1.849   0.661
 6512SOL     OW19867   4.756   0.549   0.016
 6512SOL    HW119868   4.715   0.631  -0.023
 6512SOL    HW219869   4.820   0.575   0.089
 6513SOL     OW19870   3.802   0.556   1.386
 6513SOL    HW119871   3.894   0.555   1.345
 6513SOL    HW219872   3.796   0.630   1.453
 6514SOL     OW19873   4.285   0.222   1.147
 6514SOL    HW119874   4.323   0.138   1.184
 6514SOL    HW219875   4.197   0.241   1.191
 6515SOL     OW19876   4.590   0.454   0.642
 6515SOL    HW119877   4.558   0.526   0.580
 6515SOL    HW219878   4.614   0.373   0.589
 6516SOL     OW19879   4.741   0.039   0.753
 6516SOL    HW119880   4.669   0.044   0.684
 6516SOL    HW219881   4.717  -0.030   0.822
 6517SOL     OW19882   4.212   1.385   0.174
 6517SOL    HW119883   4.125   1.370   0.221
 6517SOL    HW219884   4.195   1.411   0.079
 6518SOL     OW19885   4.251   0.256   0.328
 6518SOL    HW119886   4.278   0.197   0.253
 6518SOL    HW219887   4.251   0.351   0.297
 6519SOL     OW19888   4.788   1.347   1.340
 6519SOL    HW119889   4.708   1.324   1.395
 6519SOL    HW219890   4.871   1.321   1.389
 6520SOL     OW19891   4.835   1.195   1.100
 6520SOL    HW119892   4.795   1.239   1.181
 6520SOL    HW219893   4.794   1.232   1.017
 6521SOL     OW19894   4.639   0.089   1.402
 6521SOL    HW119895   4.664   0.069   1.307
 6521SOL    HW219896   4.711   0.145   1.444
 6522SOL     OW19897   4.704   1.116   1.719
 6522SOL    HW119898   4.605   1.122   1.729
 6522SOL    HW219899   4.727   1.036   1.663
 6523SOL     OW19900   4.429   1.050   0.368
 6523SOL    HW119901   4.415   1.057   0.467
 6523SOL    HW219902   4.513   0.999   0.350
 6524SOL     OW19903   4.134   0.813   1.251
 6524SOL    HW119904   4.220   0.825   1.301
 6524SOL    HW219905   4.092   0.726   1.278
 6525SOL     OW19906   3.788   1.564   1.331
 6525SOL    HW119907   3.742   1.646   1.297
 6525SOL    HW219908   3.886   1.583   1.340
 6526SOL     OW19909   4.091   1.100   0.501
 6526SOL    HW119910   4.084   1.183   0.445
 6526SOL    HW219911   4.095   1.020   0.441
 6527SOL     OW19912   4.290   0.537   0.865
 6527SOL    HW119913   4.302   0.603   0.791
 6527SOL    HW219914   4.336   0.571   0.948
 6528SOL     OW19915   4.976   1.348   0.388
 6528SOL    HW119916   5.026   1.425   0.428
 6528SOL    HW219917   4.881   1.350   0.420
 6529SOL     OW19918   4.078   1.510   1.329
 6529SOL    HW119919   4.057   1.466   1.242
 6529SOL    HW219920   4.175   1.536   1.332
 6530SOL     OW19921   4.126   0.751   1.598
 6530SOL    HW119922   4.194   0.806   1.551
 6530SOL    HW219923   4.166   0.663   1.625
 6531SOL     OW19924   4.737   0.105   1.770
 6531SOL    HW119925   4.743   0.190   1.718
 6531SOL    HW219926   4.769   0.029   1.713
 6532SOL     OW19927   4.228   0.050   1.740
 6532SOL    HW119928   4.186  -0.007   1.670
 6532SOL    HW219929   4.162   0.119   1.772
 6533SOL     OW19930   4.297   0.870   1.029
 6533SOL    HW119931   4.341   0.959   1.020
 6533SOL    HW219932   4.234   0.870   1.106
 6534SOL     OW19933   5.084   0.862   1.045
 6534SOL    HW119934   5.009   0.862   0.979
 6534SOL    HW219935   5.121   0.770   1.054
 6535SOL     OW19936   4.933   0.525   0.275
 6535SOL    HW119937   4.946   0.441   0.329
 6535SOL    HW219938   4.904   0.599   0.335
 6536SOL     OW19939   4.031   0.213   1.231
 6536SOL    HW119940   4.008   0.250   1.321
 6536SOL    HW219941   4.001   0.118   1.225
 6537SOL     OW19942   3.761   1.310   1.282
 6537SOL    HW119943   3.814   1.261   1.350
 6537SOL    HW219944   3.783   1.408   1.287
 6538SOL     OW19945   4.456   0.634   1.064
 6538SOL    HW119946   4.515   0.608   0.988
 6538SOL    HW219947   4.428   0.730   1.053
 6539SOL     OW19948   4.031   0.063   0.618
 6539SOL    HW119949   4.020   0.157   0.651
 6539SOL    HW219950   4.026   0.000   0.695
 6540SOL     OW19951   4.747   0.766   0.966
 6540SOL    HW119952   4.762   0.787   1.062
 6540SOL    HW219953   4.717   0.671   0.957
 6541SOL     OW19954   4.704   1.573   1.700
 6541SOL    HW119955   4.684   1.617   1.612
 6541SOL    HW219956   4.743   1.482   1.684
 6542SOL     OW19957   4.074   0.898   1.804
 6542SOL    HW119958   4.150   0.942   1.852
 6542SOL    HW219959   4.109   0.851   1.722
 6543SOL     OW19960   5.264   0.274   0.125
 6543SOL    HW119961   5.203   0.199   0.148
 6543SOL    HW219962   5.286   0.326   0.208
 6544SOL     OW19963   5.027   0.838   0.042
 6544SOL    HW119964   5.061   0.745   0.057
 6544SOL    HW219965   5.045   0.865  -0.053
 6545SOL     OW19966   4.792   1.333   0.849
 6545SOL    HW119967   4.799   1.249   0.794
 6545SOL    HW219968   4.854   1.402   0.813
 6546SOL     OW19969   4.043   0.810   0.949
 6546SOL    HW119970   4.136   0.846   0.954
 6546SOL    HW219971   4.037   0.725   1.001
 6547SOL     OW19972   4.063   0.509   1.006
 6547SOL    HW119973   4.011   0.426   0.989
 6547SOL    HW219974   4.140   0.514   0.942
 6548SOL     OW19975   4.862   0.380   1.678
 6548SOL    HW119976   4.817   0.443   1.742
 6548SOL    HW219977   4.955   0.411   1.661
 6549SOL     OW19978   4.884   0.207   1.477
 6549SOL    HW119979   4.884   0.271   1.554
 6549SOL    HW219980   4.912   0.255   1.394
 6550SOL     OW19981   3.732   1.326   0.200
 6550SOL    HW119982   3.639   1.347   0.169
 6550SOL    HW219983   3.742   1.227   0.213
 6551SOL     OW19984   3.812   1.801   0.927
 6551SOL    HW119985   3.770   1.715   0.900
 6551SOL    HW219986   3.906   1.804   0.893
 6552SOL     OW19987   4.228   1.568   0.910
 6552SOL    HW119988   4.294   1.642   0.919
 6552SOL    HW219989   4.272   1.489   0.868
 6553SOL     OW19990   4.726   0.796   1.238
 6553SOL    HW119991   4.767   0.764   1.324
 6553SOL    HW219992   4.630   0.769   1.235
 6554SOL     OW19993   3.764   0.544   1.114
 6554SOL    HW119994   3.849   0.511   1.073
 6554SOL    HW219995   3.777   0.559   1.212
 6555SOL     OW19996   3.913   0.520   1.722
 6555SOL    HW119997   3.972   0.480   1.652
 6555SOL    HW219998   3.855   0.591   1.681
 6556SOL     OW19999   4.539   0.572   0.325
 6556SOL    HW120000   4.546   0.483   0.279
 6556SOL    HW220001   4.445   0.606   0.317
 6557SOL     OW20002   3.976   1.564   1.744
 6557SOL    HW120003   3.946   1.621   1.820
 6557SOL    HW220004   3.969   1.467   1.770
 6558SOL     OW20005   4.395   0.464   1.269
 6558SOL    HW120006   4.361   0.375   1.239
 6558SOL    HW220007   4.421   0.518   1.189
 6559SOL     OW20008   4.654   1.678   1.465
 6559SOL    HW120009   4.630   1.660   1.370
 6559SOL    HW220010   4.684   1.772   1.475
 6560SOL     OW20011   4.197   0.500   0.191
 6560SOL    HW120012   4.258   0.580   0.195
 6560SOL    HW220013   4.102   0.531   0.198
 6561SOL     OW20014   3.883   1.137   1.466
 6561SOL    HW120015   3.905   1.076   1.542
 6561SOL    HW220016   3.893   1.088   1.380
 6562SOL     OW20017   4.976   1.731   1.128
 6562SOL    HW120018   5.060   1.736   1.074
 6562SOL    HW220019   4.953   1.635   1.146
 6563SOL     OW20020   3.807   1.258   1.022
 6563SOL    HW120021   3.802   1.257   1.122
 6563SOL    HW220022   3.724   1.217   0.984
 6564SOL     OW20023   4.412   1.662   1.716
 6564SOL    HW120024   4.356   1.743   1.725
 6564SOL    HW220025   4.464   1.666   1.630
 6565SOL     OW20026   4.627   0.086   0.133
 6565SOL    HW120027   4.678   0.087   0.047
 6565SOL    HW220028   4.683   0.044   0.204
 6566SOL     OW20029   3.854   1.794   1.851
 6566SOL    HW120030   3.813   1.720   1.904
 6566SOL    HW220031   3.918   1.845   1.909
 6567SOL     OW20032   4.554   1.273   1.422
 6567SOL    HW120033   4.549   1.306   1.517
 6567SOL    HW220034   4.468   1.292   1.376
 6568SOL     OW20035   4.396   1.616   0.154
 6568SOL    HW120036   4.405   1.626   0.055
 6568SOL    HW220037   4.356   1.527   0.175
 6569SOL     OW20038   3.987   0.326   0.720
 6569SOL    HW120039   3.908   0.377   0.686
 6569SOL    HW220040   3.978   0.311   0.818
 6570SOL     OW20041   4.546   1.002   1.372
 6570SOL    HW120042   4.586   1.001   1.280
 6570SOL    HW220043   4.556   1.094   1.412
 6571SOL     OW20044   4.640   0.910   0.291
 6571SOL    HW120045   4.703   0.948   0.223
 6571SOL    HW220046   4.680   0.827   0.330
 6572SOL     OW20047   4.096   1.288   1.490
 6572SOL    HW120048   4.083   1.381   1.456
 6572SOL    HW220049   4.012   1.236   1.477
 6573SOL     OW20050   4.763   1.098   0.696
 6573SOL    HW120051   4.693   1.051   0.750
 6573SOL    HW220052   4.822   1.030   0.653
 6574SOL     OW20053   4.738   0.236   0.971
 6574SOL    HW120054   4.730   0.200   0.878
 6574SOL    HW220055   4.736   0.160   1.036
 6575SOL     OW20056   4.314   1.487   0.491
 6575SOL    HW120057   4.356   1.429   0.421
 6575SOL    HW220058   4.270   1.566   0.447
 6576SOL     OW20059   3.979   1.348   0.290
 6576SOL    HW120060   3.883   1.349   0.263
 6576SOL    HW220061   3.991   1.401   0.374
 6577SOL     OW20062   3.829   1.013   1.726
 6577SOL    HW120063   3.752   0.980   1.780
 6577SOL    HW220064   3.914   0.983   1.768
 6578SOL     OW20065   4.396   0.203   1.489
 6578SOL    HW120066   4.486   0.187   1.449
 6578SOL    HW220067   4.404   0.208   1.588
 6579SOL     OW20068   3.799   0.345   0.033
 6579SOL    HW120069   3.707   0.317   0.004
 6579SOL    HW220070   3.830   0.422  -0.023
 6580SOL     OW20071   3.796   0.166   0.318
 6580SOL    HW120072   3.779   0.249   0.264
 6580SOL    HW220073   3.886   0.129   0.296
 6581SOL     OW20074   4.337   0.842   1.431
 6581SOL    HW120075   4.393   0.923   1.414
 6581SOL    HW220076   4.396   0.762   1.434
 6582SOL     OW20077   4.440   0.565   1.708
 6582SOL    HW120078   4.459   0.630   1.782
 6582SOL    HW220079   4.500   0.485   1.717
 6583SOL     OW20080   4.114   1.741   1.560
 6583SOL    HW120081   4.023   1.782   1.558
 6583SOL    HW220082   4.107   1.647   1.592
 6584SOL     OW20083   4.318   0.745   0.652
 6584SOL    HW120084   4.368   0.830   0.633
 6584SOL    HW220085   4.230   0.747   0.604
 6585SOL     OW20086   4.583   1.374   0.016
 6585SOL    HW120087   4.537   1.389   0.104
 6585SOL    HW220088   4.627   1.459  -0.014
 6586SOL     OW20089   4.385   1.790   0.953
 6586SOL    HW120090   4.339   1.878   0.940
 6586SOL    HW220091   4.484   1.802   0.946
 6587SOL     OW20092   4.583   0.956   0.861
 6587SOL    HW120093   4.637   0.887   0.909
 6587SOL    HW220094   4.551   1.025   0.927
 6588SOL     OW20095   4.807   0.984   0.087
 6588SOL    HW120096   4.784   1.037   0.005
 6588SOL    HW220097   4.888   0.928   0.068
 6589SOL     OW20098   3.945   1.314   1.844
 6589SOL    HW120099   3.880   1.241   1.823
 6589SOL    HW220100   3.949   1.328   1.942
 6590SOL     OW20101   3.803   1.240   0.653
 6590SOL    HW120102   3.802   1.193   0.741
 6590SOL    HW220103   3.885   1.212   0.602
 6591SOL     OW20104   4.396   1.391   1.624
 6591SOL    HW120105   4.318   1.341   1.662
 6591SOL    HW220106   4.393   1.486   1.655
 6592SOL     OW20107   4.152   0.424   0.520
 6592SOL    HW120108   4.182   0.352   0.458
 6592SOL    HW220109   4.113   0.384   0.603
 6593SOL     OW20110   4.041   0.547   1.280
 6593SOL    HW120111   4.079   0.488   1.352
 6593SOL    HW220112   4.081   0.521   1.192
 6594SOL     OW20113   4.536   1.586   0.687
 6594SOL    HW120114   4.568   1.596   0.593
 6594SOL    HW220115   4.457   1.524   0.689
 6595SOL     OW20116   4.725   0.034   1.154
 6595SOL    HW120117   4.662  -0.038   1.123
 6595SOL    HW220118   4.818  -0.002   1.154
 6596SOL     OW20119   4.494   1.330   0.301
 6596SOL    HW120120   4.448   1.243   0.318
 6596SOL    HW220121   4.585   1.327   0.342
 6597SOL     OW20122   4.342   1.567   1.284
 6597SOL    HW120123   4.337   1.649   1.341
 6597SOL    HW220124   4.431   1.564   1.239
 6598SOL     OW20125   3.763   1.077   0.300
 6598SOL    HW120126   3.862   1.066   0.291
 6598SOL    HW220127   3.723   0.991   0.332
 6599SOL     OW20128   4.599   1.646   0.337
 6599SOL    HW120129   4.522   1.611   0.283
 6599SOL    HW220130   4.567   1.717   0.399
 6600SOL     OW20131   3.954   0.628   1.975
 6600SOL    HW120132   3.861   0.626   2.012
 6600SOL    HW220133   3.955   0.589   1.883
 6601SOL     OW20134   3.949   0.275   2.858
 6601SOL    HW120135   3.984   0.258   2.950
 6601SOL    HW220136   3.861   0.230   2.846
 6602SOL     OW20137   3.743   0.368   2.509
 6602SOL    HW120138   3.661   0.411   2.548
 6602SOL    HW220139   3.715   0.295   2.446
 6603SOL     OW20140   4.293   1.275   3.027
 6603SOL    HW120141   4.200   1.268   2.990
 6603SOL    HW220142   4.304   1.364   3.071
 6604SOL     OW20143   4.859   0.703   2.579
 6604SOL    HW120144   4.916   0.781   2.554
 6604SOL    HW220145   4.799   0.729   2.655
 6605SOL     OW20146   4.492   1.144   2.885
 6605SOL    HW120147   4.414   1.161   2.945
 6605SOL    HW220148   4.526   1.231   2.849
 6606SOL     OW20149   4.574   0.798   3.685
 6606SOL    HW120150   4.570   0.874   3.750
 6606SOL    HW220151   4.596   0.834   3.594
 6607SOL     OW20152   4.409   1.012   2.527
 6607SOL    HW120153   4.478   0.996   2.597
 6607SOL    HW220154   4.336   1.069   2.565
 6608SOL     OW20155   4.410   1.161   3.665
 6608SOL    HW120156   4.470   1.240   3.679
 6608SOL    HW220157   4.324   1.192   3.624
 6609SOL     OW20158   4.059   1.435   2.923
 6609SOL    HW120159   3.981   1.404   2.870
 6609SOL    HW220160   4.117   1.493   2.866
 6610SOL     OW20161   4.162   0.392   3.361
 6610SOL    HW120162   4.244   0.336   3.370
 6610SOL    HW220163   4.081   0.334   3.365
 6611SOL     OW20164   3.955   1.713   2.345
 6611SOL    HW120165   3.989   1.790   2.399
 6611SOL    HW220166   3.999   1.713   2.255
 6612SOL     OW20167   4.851   1.341   3.552
 6612SOL    HW120168   4.898   1.341   3.640
 6612SOL    HW220169   4.803   1.254   3.541
 6613SOL     OW20170   3.954   1.434   2.400
 6613SOL    HW120171   3.928   1.530   2.400
 6613SOL    HW220172   3.883   1.380   2.445
 6614SOL     OW20173   3.964   1.091   2.748
 6614SOL    HW120174   3.978   1.007   2.800
 6614SOL    HW220175   3.909   1.155   2.803
 6615SOL     OW20176   4.344   1.786   3.301
 6615SOL    HW120177   4.252   1.769   3.336
 6615SOL    HW220178   4.372   1.878   3.327
 6616SOL     OW20179   4.330   0.964   1.985
 6616SOL    HW120180   4.337   1.048   1.931
 6616SOL    HW220181   4.376   0.977   2.073
 6617SOL     OW20182   3.846   0.643   2.425
 6617SOL    HW120183   3.801   0.555   2.442
 6617SOL    HW220184   3.845   0.697   2.509
 6618SOL     OW20185   3.751   1.596   1.979
 6618SOL    HW120186   3.732   1.500   2.000
 6618SOL    HW220187   3.718   1.654   2.054
 6619SOL     OW20188   3.837   0.737   3.459
 6619SOL    HW120189   3.925   0.724   3.504
 6619SOL    HW220190   3.824   0.834   3.437
 6620SOL     OW20191   4.337   1.365   2.588
 6620SOL    HW120192   4.288   1.278   2.597
 6620SOL    HW220193   4.314   1.408   2.501
 6621SOL     OW20194   4.533   0.004   2.364
 6621SOL    HW120195   4.573   0.095   2.355
 6621SOL    HW220196   4.433   0.012   2.370
 6622SOL     OW20197   3.921   0.976   3.126
 6622SOL    HW120198   4.010   0.931   3.112
 6622SOL    HW220199   3.848   0.911   3.107
 6623SOL     OW20200   4.041   0.251   3.663
 6623SOL    HW120201   4.112   0.322   3.669
 6623SOL    HW220202   3.953   0.290   3.691
 6624SOL     OW20203   4.322   0.729   2.132
 6624SOL    HW120204   4.346   0.798   2.064
 6624SOL    HW220205   4.244   0.762   2.186
 6625SOL     OW20206   4.531   0.605   3.327
 6625SOL    HW120207   4.484   0.602   3.416
 6625SOL    HW220208   4.480   0.550   3.261
 6626SOL     OW20209   4.697   0.890   3.434
 6626SOL    HW120210   4.743   0.806   3.405
 6626SOL    HW220211   4.641   0.924   3.359
 6627SOL     OW20212   4.715   0.410   3.104
 6627SOL    HW120213   4.638   0.444   3.158
 6627SOL    HW220214   4.681   0.359   3.025
 6628SOL     OW20215   4.765   0.701   2.291
 6628SOL    HW120216   4.791   0.697   2.387
 6628SOL    HW220217   4.680   0.650   2.277
 6629SOL     OW20218   3.800   0.811   2.651
 6629SOL    HW120219   3.899   0.799   2.660
 6629SOL    HW220220   3.776   0.906   2.672
 6630SOL     OW20221   3.854   1.821   3.433
 6630SOL    HW120222   3.844   1.806   3.532
 6630SOL    HW220223   3.768   1.857   3.397
 6631SOL     OW20224   4.589   0.348   2.057
 6631SOL    HW120225   4.648   0.411   2.008
 6631SOL    HW220226   4.608   0.254   2.028
 6632SOL     OW20227   4.274   0.196   2.747
 6632SOL    HW120228   4.269   0.191   2.847
 6632SOL    HW220229   4.276   0.292   2.718
 6633SOL     OW20230   4.732   1.456   2.339
 6633SOL    HW120231   4.686   1.528   2.287
 6633SOL    HW220232   4.728   1.476   2.437
 6634SOL     OW20233   4.075   1.801   2.715
 6634SOL    HW120234   4.125   1.715   2.721
 6634SOL    HW220235   4.140   1.878   2.712
 6635SOL     OW20236   4.951   1.550   3.368
 6635SOL    HW120237   4.957   1.473   3.432
 6635SOL    HW220238   4.899   1.524   3.288
 6636SOL     OW20239   4.045   0.943   2.104
 6636SOL    HW120240   4.127   0.982   2.062
 6636SOL    HW220241   4.018   0.861   2.055
 6637SOL     OW20242   4.185   1.266   3.589
 6637SOL    HW120243   4.135   1.267   3.503
 6637SOL    HW220244   4.122   1.248   3.665
 6638SOL     OW20245   4.835   1.776   2.099
 6638SOL    HW120246   4.775   1.714   2.149
 6638SOL    HW220247   4.866   1.732   2.014
 6639SOL     OW20248   3.926   0.285   3.360
 6639SOL    HW120249   3.846   0.345   3.347
 6639SOL    HW220250   3.916   0.236   3.446
 6640SOL     OW20251   4.188   1.743   2.185
 6640SOL    HW120252   4.221   1.782   2.271
 6640SOL    HW220253   4.264   1.736   2.120
 6641SOL     OW20254   3.973   1.785   3.103
 6641SOL    HW120255   4.030   1.720   3.153
 6641SOL    HW220256   3.957   1.752   3.010
 6642SOL     OW20257   4.664   1.698   2.766
 6642SOL    HW120258   4.744   1.641   2.787
 6642SOL    HW220259   4.615   1.658   2.689
 6643SOL     OW20260   4.106   0.700   2.342
 6643SOL    HW120261   4.151   0.610   2.339
 6643SOL    HW220262   4.012   0.689   2.375
 6644SOL     OW20263   4.338   0.122   1.979
 6644SOL    HW120264   4.436   0.100   1.986
 6644SOL    HW220265   4.307   0.105   1.886
 6645SOL     OW20266   4.505   0.264   3.611
 6645SOL    HW120267   4.572   0.203   3.654
 6645SOL    HW220268   4.432   0.283   3.676
 6646SOL     OW20269   4.612   1.514   3.057
 6646SOL    HW120270   4.589   1.489   2.963
 6646SOL    HW220271   4.673   1.445   3.096
 6647SOL     OW20272   4.527   1.402   2.786
 6647SOL    HW120273   4.617   1.416   2.744
 6647SOL    HW220274   4.456   1.404   2.715
 6648SOL     OW20275   4.646   0.503   2.761
 6648SOL    HW120276   4.621   0.494   2.665
 6648SOL    HW220277   4.694   0.421   2.792
 6649SOL     OW20278   4.263   0.064   2.374
 6649SOL    HW120279   4.182   0.065   2.432
 6649SOL    HW220280   4.266   0.147   2.319
 6650SOL     OW20281   4.021   0.035   2.033
 6650SOL    HW120282   4.070   0.119   2.012
 6650SOL    HW220283   4.083  -0.030   2.078
 6651SOL     OW20284   4.659   0.236   2.342
 6651SOL    HW120285   4.611   0.277   2.264
 6651SOL    HW220286   4.758   0.234   2.323
 6652SOL     OW20287   4.800   0.683   3.326
 6652SOL    HW120288   4.720   0.622   3.329
 6652SOL    HW220289   4.881   0.630   3.302
 6653SOL     OW20290   4.951   1.570   2.655
 6653SOL    HW120291   4.972   1.644   2.590
 6653SOL    HW220292   5.019   1.570   2.728
 6654SOL     OW20293   4.183   1.152   2.603
 6654SOL    HW120294   4.112   1.125   2.668
 6654SOL    HW220295   4.157   1.124   2.510
 6655SOL     OW20296   4.995   1.797   2.453
 6655SOL    HW120297   5.039   1.861   2.389
 6655SOL    HW220298   4.945   1.849   2.523
 6656SOL     OW20299   4.756   0.549   1.878
 6656SOL    HW120300   4.715   0.631   1.839
 6656SOL    HW220301   4.820   0.575   1.951
 6657SOL     OW20302   3.802   0.556   3.248
 6657SOL    HW120303   3.894   0.555   3.207
 6657SOL    HW220304   3.796   0.630   3.315
 6658SOL     OW20305   4.285   0.222   3.009
 6658SOL    HW120306   4.323   0.138   3.046
 6658SOL    HW220307   4.197   0.241   3.053
 6659SOL     OW20308   4.590   0.454   2.504
 6659SOL    HW120309   4.558   0.526   2.442
 6659SOL    HW220310   4.614   0.373   2.451
 6660SOL     OW20311   4.741   0.039   2.615
 6660SOL    HW120312   4.669   0.044   2.546
 6660SOL    HW220313   4.717  -0.030   2.684
 6661SOL     OW20314   4.212   1.385   2.036
 6661SOL    HW120315   4.125   1.370   2.083
 6661SOL    HW220316   4.195   1.411   1.941
 6662SOL     OW20317   4.251   0.256   2.190
 6662SOL    HW120318   4.278   0.197   2.115
 6662SOL    HW220319   4.251   0.351   2.159
 6663SOL     OW20320   4.788   1.347   3.202
 6663SOL    HW120321   4.708   1.324   3.257
 6663SOL    HW220322   4.871   1.321   3.251
 6664SOL     OW20323   4.835   1.195   2.962
 6664SOL    HW120324   4.795   1.239   3.043
 6664SOL    HW220325   4.794   1.232   2.879
 6665SOL     OW20326   4.639   0.089   3.264
 6665SOL    HW120327   4.664   0.069   3.169
 6665SOL    HW220328   4.711   0.145   3.306
 6666SOL     OW20329   4.704   1.116   3.581
 6666SOL    HW120330   4.605   1.122   3.591
 6666SOL    HW220331   4.727   1.036   3.525
 6667SOL     OW20332   4.429   1.050   2.230
 6667SOL    HW120333   4.415   1.057   2.329
 6667SOL    HW220334   4.513   0.999   2.212
 6668SOL     OW20335   4.134   0.813   3.113
 6668SOL    HW120336   4.220   0.825   3.163
 6668SOL    HW220337   4.092   0.726   3.140
 6669SOL     OW20338   3.788   1.564   3.193
 6669SOL    HW120339   3.742   1.646   3.159
 6669SOL    HW220340   3.886   1.583   3.202
 6670SOL     OW20341   4.091   1.100   2.363
 6670SOL    HW120342   4.084   1.183   2.307
 6670SOL    HW220343   4.095   1.020   2.303
 6671SOL     OW20344   4.290   0.537   2.727
 6671SOL    HW120345   4.302   0.603   2.653
 6671SOL    HW220346   4.336   0.571   2.810
 6672SOL     OW20347   4.976   1.348   2.250
 6672SOL    HW120348   5.026   1.425   2.290
 6672SOL    HW220349   4.881   1.350   2.282
 6673SOL     OW20350   4.078   1.510   3.191
 6673SOL    HW120351   4.057   1.466   3.104
 6673SOL    HW220352   4.175   1.536   3.194
 6674SOL     OW20353   4.126   0.751   3.460
 6674SOL    HW120354   4.194   0.806   3.413
 6674SOL    HW220355   4.166   0.663   3.487
 6675SOL     OW20356   4.737   0.105   3.632
 6675SOL    HW120357   4.743   0.190   3.580
 6675SOL    HW220358   4.769   0.029   3.575
 6676SOL     OW20359   4.228   0.050   3.602
 6676SOL    HW120360   4.186  -0.007   3.532
 6676SOL    HW220361   4.162   0.119   3.634
 6677SOL     OW20362   4.297   0.870   2.891
 6677SOL    HW120363   4.341   0.959   2.882
 6677SOL    HW220364   4.234   0.870   2.968
 6678SOL     OW20365   5.084   0.862   2.907
 6678SOL    HW120366   5.009   0.862   2.841
 6678SOL    HW220367   5.121   0.770   2.916
 6679SOL     OW20368   4.933   0.525   2.137
 6679SOL    HW120369   4.946   0.441   2.191
 6679SOL    HW220370   4.904   0.599   2.197
 6680SOL     OW20371   4.031   0.213   3.093
 6680SOL    HW120372   4.008   0.250   3.183
 6680SOL    HW220373   4.001   0.118   3.087
 6681SOL     OW20374   3.761   1.310   3.144
 6681SOL    HW120375   3.814   1.261   3.212
 6681SOL    HW220376   3.783   1.408   3.149
 6682SOL     OW20377   4.456   0.634   2.926
 6682SOL    HW120378   4.515   0.608   2.850
 6682SOL    HW220379   4.428   0.730   2.915
 6683SOL     OW20380   4.031   0.063   2.480
 6683SOL    HW120381   4.020   0.157   2.513
 6683SOL    HW220382   4.026   0.000   2.557
 6684SOL     OW20383   4.747   0.766   2.828
 6684SOL    HW120384   4.762   0.787   2.924
 6684SOL    HW220385   4.717   0.671   2.819
 6685SOL     OW20386   4.704   1.573   3.562
 6685SOL    HW120387   4.684   1.617   3.474
 6685SOL    HW220388   4.743   1.482   3.546
 6686SOL     OW20389   4.074   0.898   3.666
 6686SOL    HW120390   4.150   0.942   3.714
 6686SOL    HW220391   4.109   0.851   3.584
 6687SOL     OW20392   5.264   0.274   1.987
 6687SOL    HW120393   5.203   0.199   2.010
 6687SOL    HW220394   5.286   0.326   2.070
 6688SOL     OW20395   4.792   1.333   2.711
 6688SOL    HW120396   4.799   1.249   2.656
 6688SOL    HW220397   4.854   1.402   2.675
 6689SOL     OW20398   4.043   0.810   2.811
 6689SOL    HW120399   4.136   0.846   2.816
 6689SOL    HW220400   4.037   0.725   2.863
 6690SOL     OW20401   4.063   0.509   2.868
 6690SOL    HW120402   4.011   0.426   2.851
 6690SOL    HW220403   4.140   0.514   2.804
 6691SOL     OW20404   4.862   0.380   3.540
 6691SOL    HW120405   4.817   0.443   3.604
 6691SOL    HW220406   4.955   0.411   3.523
 6692SOL     OW20407   4.884   0.207   3.339
 6692SOL    HW120408   4.884   0.271   3.416
 6692SOL    HW220409   4.912   0.255   3.256
 6693SOL     OW20410   3.732   1.326   2.062
 6693SOL    HW120411   3.639   1.347   2.031
 6693SOL    HW220412   3.742   1.227   2.075
 6694SOL     OW20413   3.812   1.801   2.789
 6694SOL    HW120414   3.770   1.715   2.762
 6694SOL    HW220415   3.906   1.804   2.755
 6695SOL     OW20416   4.228   1.568   2.772
 6695SOL    HW120417   4.294   1.642   2.781
 6695SOL    HW220418   4.272   1.489   2.730
 6696SOL     OW20419   4.726   0.796   3.100
 6696SOL    HW120420   4.767   0.764   3.186
 6696SOL    HW220421   4.630   0.769   3.097
 6697SOL     OW20422   3.764   0.544   2.976
 6697SOL    HW120423   3.849   0.511   2.935
 6697SOL    HW220424   3.777   0.559   3.074
 6698SOL     OW20425   3.913   0.520   3.584
 6698SOL    HW120426   3.972   0.480   3.514
 6698SOL    HW220427   3.855   0.591   3.543
 6699SOL     OW20428   4.539   0.572   2.187
 6699SOL    HW120429   4.546   0.483   2.141
 6699SOL    HW220430   4.445   0.606   2.179
 6700SOL     OW20431   3.976   1.564   3.606
 6700SOL    HW120432   3.946   1.621   3.682
 6700SOL    HW220433   3.969   1.467   3.632
 6701SOL     OW20434   4.395   0.464   3.131
 6701SOL    HW120435   4.361   0.375   3.101
 6701SOL    HW220436   4.421   0.518   3.051
 6702SOL     OW20437   4.654   1.678   3.327
 6702SOL    HW120438   4.630   1.660   3.232
 6702SOL    HW220439   4.684   1.772   3.337
 6703SOL     OW20440   4.197   0.500   2.053
 6703SOL    HW120441   4.258   0.580   2.057
 6703SOL    HW220442   4.102   0.531   2.060
 6704SOL     OW20443   3.883   1.137   3.328
 6704SOL    HW120444   3.905   1.076   3.404
 6704SOL    HW220445   3.893   1.088   3.242
 6705SOL     OW20446   4.976   1.731   2.990
 6705SOL    HW120447   5.060   1.736   2.936
 6705SOL    HW220448   4.953   1.635   3.008
 6706SOL     OW20449   3.807   1.258   2.884
 6706SOL    HW120450   3.802   1.257   2.984
 6706SOL    HW220451   3.724   1.217   2.846
 6707SOL     OW20452   4.412   1.662   3.578
 6707SOL    HW120453   4.356   1.743   3.587
 6707SOL    HW220454   4.464   1.666   3.492
 6708SOL     OW20455   3.854   1.794   3.713
 6708SOL    HW120456   3.813   1.720   3.766
 6708SOL    HW220457   3.918   1.845   3.771
 6709SOL     OW20458   4.554   1.273   3.284
 6709SOL    HW120459   4.549   1.306   3.379
 6709SOL    HW220460   4.468   1.292   3.238
 6710SOL     OW20461   4.396   1.616   2.016
 6710SOL    HW120462   4.405   1.626   1.917
 6710SOL    HW220463   4.356   1.527   2.037
 6711SOL     OW20464   3.987   0.326   2.582
 6711SOL    HW120465   3.908   0.377   2.548
 6711SOL    HW220466   3.978   0.311   2.680
 6712SOL     OW20467   4.546   1.002   3.234
 6712SOL    HW120468   4.586   1.001   3.142
 6712SOL    HW220469   4.556   1.094   3.274
 6713SOL     OW20470   4.640   0.910   2.153
 6713SOL    HW120471   4.703   0.948   2.085
 6713SOL    HW220472   4.680   0.827   2.192
 6714SOL     OW20473   4.096   1.288   3.352
 6714SOL    HW120474   4.083   1.381   3.318
 6714SOL    HW220475   4.012   1.236   3.339
 6715SOL     OW20476   4.763   1.098   2.558
 6715SOL    HW120477   4.693   1.051   2.612
 6715SOL    HW220478   4.822   1.030   2.515
 6716SOL     OW20479   4.738   0.236   2.833
 6716SOL    HW120480   4.730   0.200   2.740
 6716SOL    HW220481   4.736   0.160   2.898
 6717SOL     OW20482   4.314   1.487   2.353
 6717SOL    HW120483   4.356   1.429   2.283
 6717SOL    HW220484   4.270   1.566   2.309
 6718SOL     OW20485   3.979   1.348   2.152
 6718SOL    HW120486   3.883   1.349   2.125
 6718SOL    HW220487   3.991   1.401   2.236
 6719SOL     OW20488   3.829   1.013   3.588
 6719SOL    HW120489   3.752   0.980   3.642
 6719SOL    HW220490   3.914   0.983   3.630
 6720SOL     OW20491   4.396   0.203   3.351
 6720SOL    HW120492   4.486   0.187   3.311
 6720SOL    HW220493   4.404   0.208   3.450
 6721SOL     OW20494   3.799   0.345   1.895
 6721SOL    HW120495   3.707   0.317   1.866
 6721SOL    HW220496   3.830   0.422   1.839
 6722SOL     OW20497   3.796   0.166   2.180
 6722SOL    HW120498   3.779   0.249   2.126
 6722SOL    HW220499   3.886   0.129   2.158
 6723SOL     OW20500   4.337   0.842   3.293
 6723SOL    HW120501   4.393   0.923   3.276
 6723SOL    HW220502   4.396   0.762   3.296
 6724SOL     OW20503   4.440   0.565   3.570
 6724SOL    HW120504   4.459   0.630   3.644
 6724SOL    HW220505   4.500   0.485   3.579
 6725SOL     OW20506   4.114   1.741   3.422
 6725SOL    HW120507   4.023   1.782   3.420
 6725SOL    HW220508   4.107   1.647   3.454
 6726SOL     OW20509   4.318   0.745   2.514
 6726SOL    HW120510   4.368   0.830   2.495
 6726SOL    HW220511   4.230   0.747   2.466
 6727SOL     OW20512   4.583   1.374   1.878
 6727SOL    HW120513   4.537   1.389   1.966
 6727SOL    HW220514   4.627   1.459   1.848
 6728SOL     OW20515   4.385   1.790   2.815
 6728SOL    HW120516   4.339   1.878   2.802
 6728SOL    HW220517   4.484   1.802   2.808
 6729SOL     OW20518   4.583   0.956   2.723
 6729SOL    HW120519   4.637   0.887   2.771
 6729SOL    HW220520   4.551   1.025   2.789
 6730SOL     OW20521   4.807   0.984   1.949
 6730SOL    HW120522   4.784   1.037   1.867
 6730SOL    HW220523   4.888   0.928   1.930
 6731SOL     OW20524   3.945   1.314   3.706
 6731SOL    HW120525   3.880   1.241   3.685
 6731SOL    HW220526   3.949   1.328   3.804
 6732SOL     OW20527   3.803   1.240   2.515
 6732SOL    HW120528   3.802   1.193   2.603
 6732SOL    HW220529   3.885   1.212   2.464
 6733SOL     OW20530   4.396   1.391   3.486
 6733SOL    HW120531   4.318   1.341   3.524
 6733SOL    HW220532   4.393   1.486   3.517
 6734SOL     OW20533   4.152   0.424   2.382
 6734SOL    HW120534   4.182   0.352   2.320
 6734SOL    HW220535   4.113   0.384   2.465
 6735SOL     OW20536   4.041   0.547   3.142
 6735SOL    HW120537   4.079   0.488   3.214
 6735SOL    HW220538   4.081   0.521   3.054
 6736SOL     OW20539   4.536   1.586   2.549
 6736SOL    HW120540   4.568   1.596   2.455
 6736SOL    HW220541   4.457   1.524   2.551
 6737SOL     OW20542   4.725   0.034   3.016
 6737SOL    HW120543   4.662  -0.038   2.985
 6737SOL    HW220544   4.818  -0.002   3.016
 6738SOL     OW20545   4.494   1.330   2.163
 6738SOL    HW120546   4.448   1.243   2.180
 6738SOL    HW220547   4.585   1.327   2.204
 6739SOL     OW20548   4.342   1.567   3.146
 6739SOL    HW120549   4.337   1.649   3.203
 6739SOL    HW220550   4.431   1.564   3.101
 6740SOL     OW20551   3.763   1.077   2.162
 6740SOL    HW120552   3.862   1.066   2.153
 6740SOL    HW220553   3.723   0.991   2.194
 6741SOL     OW20554   4.599   1.646   2.199
 6741SOL    HW120555   4.522   1.611   2.145
 6741SOL    HW220556   4.567   1.717   2.261
 6742SOL     OW20557   3.954   0.628   3.837
 6742SOL    HW120558   3.861   0.626   3.874
 6742SOL    HW220559   3.955   0.589   3.745
 6743SOL     OW20560   3.949   0.275   4.720
 6743SOL    HW120561   3.984   0.258   4.812
 6743SOL    HW220562   3.861   0.230   4.708
 6744SOL     OW20563   3.743   0.368   4.371
 6744SOL    HW120564   3.661   0.411   4.410
 6744SOL    HW220565   3.715   0.295   4.308
 6745SOL     OW20566   4.293   1.275   4.889
 6745SOL    HW120567   4.200   1.268   4.852
 6745SOL    HW220568   4.304   1.364   4.933
 6746SOL     OW20569   4.859   0.703   4.441
 6746SOL    HW120570   4.916   0.781   4.416
 6746SOL    HW220571   4.799   0.729   4.517
 6747SOL     OW20572   4.492   1.144   4.747
 6747SOL    HW120573   4.414   1.161   4.807
 6747SOL    HW220574   4.526   1.231   4.711
 6748SOL     OW20575   4.574   0.798   5.547
 6748SOL    HW120576   4.570   0.874   5.612
 6748SOL    HW220577   4.596   0.834   5.456
 6749SOL     OW20578   4.409   1.012   4.389
 6749SOL    HW120579   4.478   0.996   4.459
 6749SOL    HW220580   4.336   1.069   4.427
 6750SOL     OW20581   4.410   1.161   5.527
 6750SOL    HW120582   4.470   1.240   5.541
 6750SOL    HW220583   4.324   1.192   5.486
 6751SOL     OW20584   4.059   1.435   4.785
 6751SOL    HW120585   3.981   1.404   4.732
 6751SOL    HW220586   4.117   1.493   4.728
 6752SOL     OW20587   4.162   0.392   5.223
 6752SOL    HW120588   4.244   0.336   5.232
 6752SOL    HW220589   4.081   0.334   5.227
 6753SOL     OW20590   3.955   1.713   4.207
 6753SOL    HW120591   3.989   1.790   4.261
 6753SOL    HW220592   3.999   1.713   4.117
 6754SOL     OW20593   4.851   1.341   5.414
 6754SOL    HW120594   4.898   1.341   5.502
 6754SOL    HW220595   4.803   1.254   5.403
 6755SOL     OW20596   3.954   1.434   4.262
 6755SOL    HW120597   3.928   1.530   4.262
 6755SOL    HW220598   3.883   1.380   4.307
 6756SOL     OW20599   3.964   1.091   4.610
 6756SOL    HW120600   3.978   1.007   4.662
 6756SOL    HW220601   3.909   1.155   4.665
 6757SOL     OW20602   4.344   1.786   5.163
 6757SOL    HW120603   4.252   1.769   5.198
 6757SOL    HW220604   4.372   1.878   5.189
 6758SOL     OW20605   4.330   0.964   3.847
 6758SOL    HW120606   4.337   1.048   3.793
 6758SOL    HW220607   4.376   0.977   3.935
 6759SOL     OW20608   3.846   0.643   4.287
 6759SOL    HW120609   3.801   0.555   4.304
 6759SOL    HW220610   3.845   0.697   4.371
 6760SOL     OW20611   3.751   1.596   3.841
 6760SOL    HW120612   3.732   1.500   3.862
 6760SOL    HW220613   3.718   1.654   3.916
 6761SOL     OW20614   3.837   0.737   5.321
 6761SOL    HW120615   3.925   0.724   5.366
 6761SOL    HW220616   3.824   0.834   5.299
 6762SOL     OW20617   4.337   1.365   4.450
 6762SOL    HW120618   4.288   1.278   4.459
 6762SOL    HW220619   4.314   1.408   4.363
 6763SOL     OW20620   4.533   0.004   4.226
 6763SOL    HW120621   4.573   0.095   4.217
 6763SOL    HW220622   4.433   0.012   4.232
 6764SOL     OW20623   3.921   0.976   4.988
 6764SOL    HW120624   4.010   0.931   4.974
 6764SOL    HW220625   3.848   0.911   4.969
 6765SOL     OW20626   4.041   0.251   5.525
 6765SOL    HW120627   4.112   0.322   5.531
 6765SOL    HW220628   3.953   0.290   5.553
 6766SOL     OW20629   4.322   0.729   3.994
 6766SOL    HW120630   4.346   0.798   3.926
 6766SOL    HW220631   4.244   0.762   4.048
 6767SOL     OW20632   4.531   0.605   5.189
 6767SOL    HW120633   4.484   0.602   5.278
 6767SOL    HW220634   4.480   0.550   5.123
 6768SOL     OW20635   4.697   0.890   5.296
 6768SOL    HW120636   4.743   0.806   5.267
 6768SOL    HW220637   4.641   0.924   5.221
 6769SOL     OW20638   4.715   0.410   4.966
 6769SOL    HW120639   4.638   0.444   5.020
 6769SOL    HW220640   4.681   0.359   4.887
 6770SOL     OW20641   4.765   0.701   4.153
 6770SOL    HW120642   4.791   0.697   4.249
 6770SOL    HW220643   4.680   0.650   4.139
 6771SOL     OW20644   3.800   0.811   4.513
 6771SOL    HW120645   3.899   0.799   4.522
 6771SOL    HW220646   3.776   0.906   4.534
 6772SOL     OW20647   3.854   1.821   5.295
 6772SOL    HW120648   3.844   1.806   5.394
 6772SOL    HW220649   3.768   1.857   5.259
 6773SOL     OW20650   4.589   0.348   3.919
 6773SOL    HW120651   4.648   0.411   3.870
 6773SOL    HW220652   4.608   0.254   3.890
 6774SOL     OW20653   4.274   0.196   4.609
 6774SOL    HW120654   4.269   0.191   4.709
 6774SOL    HW220655   4.276   0.292   4.580
 6775SOL     OW20656   4.732   1.456   4.201
 6775SOL    HW120657   4.686   1.528   4.149
 6775SOL    HW220658   4.728   1.476   4.299
 6776SOL     OW20659   4.075   1.801   4.577
 6776SOL    HW120660   4.125   1.715   4.583
 6776SOL    HW220661   4.140   1.878   4.574
 6777SOL     OW20662   4.951   1.550   5.230
 6777SOL    HW120663   4.957   1.473   5.294
 6777SOL    HW220664   4.899   1.524   5.150
 6778SOL     OW20665   4.045   0.943   3.966
 6778SOL    HW120666   4.127   0.982   3.924
 6778SOL    HW220667   4.018   0.861   3.917
 6779SOL     OW20668   4.185   1.266   5.451
 6779SOL    HW120669   4.135   1.267   5.365
 6779SOL    HW220670   4.122   1.248   5.527
 6780SOL     OW20671   4.835   1.776   3.961
 6780SOL    HW120672   4.775   1.714   4.011
 6780SOL    HW220673   4.866   1.732   3.876
 6781SOL     OW20674   3.926   0.285   5.222
 6781SOL    HW120675   3.846   0.345   5.209
 6781SOL    HW220676   3.916   0.236   5.308
 6782SOL     OW20677   4.188   1.743   4.047
 6782SOL    HW120678   4.221   1.782   4.133
 6782SOL    HW220679   4.264   1.736   3.982
 6783SOL     OW20680   3.973   1.785   4.965
 6783SOL    HW120681   4.030   1.720   5.015
 6783SOL    HW220682   3.957   1.752   4.872
 6784SOL     OW20683   4.664   1.698   4.628
 6784SOL    HW120684   4.744   1.641   4.649
 6784SOL    HW220685   4.615   1.658   4.551
 6785SOL     OW20686   4.106   0.700   4.204
 6785SOL    HW120687   4.151   0.610   4.201
 6785SOL    HW220688   4.012   0.689   4.237
 6786SOL     OW20689   4.338   0.122   3.841
 6786SOL    HW120690   4.436   0.100   3.848
 6786SOL    HW220691   4.307   0.105   3.748
 6787SOL     OW20692   4.505   0.264   5.473
 6787SOL    HW120693   4.572   0.203   5.516
 6787SOL    HW220694   4.432   0.283   5.538
 6788SOL     OW20695   4.612   1.514   4.919
 6788SOL    HW120696   4.589   1.489   4.825
 6788SOL    HW220697   4.673   1.445   4.958
 6789SOL     OW20698   4.527   1.402   4.648
 6789SOL    HW120699   4.617   1.416   4.606
 6789SOL    HW220700   4.456   1.404   4.577
 6790SOL     OW20701   4.646   0.503   4.623
 6790SOL    HW120702   4.621   0.494   4.527
 6790SOL    HW220703   4.694   0.421   4.654
 6791SOL     OW20704   4.263   0.064   4.236
 6791SOL    HW120705   4.182   0.065   4.294
 6791SOL    HW220706   4.266   0.147   4.181
 6792SOL     OW20707   4.021   0.035   3.895
 6792SOL    HW120708   4.070   0.119   3.874
 6792SOL    HW220709   4.083  -0.030   3.940
 6793SOL     OW20710   4.659   0.236   4.204
 6793SOL    HW120711   4.611   0.277   4.126
 6793SOL    HW220712   4.758   0.234   4.185
 6794SOL     OW20713   4.800   0.683   5.188
 6794SOL    HW120714   4.720   0.622   5.191
 6794SOL    HW220715   4.881   0.630   5.164
 6795SOL     OW20716   4.951   1.570   4.517
 6795SOL    HW120717   4.972   1.644   4.452
 6795SOL    HW220718   5.019   1.570   4.590
 6796SOL     OW20719   4.183   1.152   4.465
 6796SOL    HW120720   4.112   1.125   4.530
 6796SOL    HW220721   4.157   1.124   4.372
 6797SOL     OW20722   4.995   1.797   4.315
 6797SOL    HW120723   5.039   1.861   4.251
 6797SOL    HW220724   4.945   1.849   4.385
 6798SOL     OW20725   4.756   0.549   3.740
 6798SOL    HW120726   4.715   0.631   3.701
 6798SOL    HW220727   4.820   0.575   3.813
 6799SOL     OW20728   3.802   0.556   5.110
 6799SOL    HW120729   3.894   0.555   5.069
 6799SOL    HW220730   3.796   0.630   5.177
 6800SOL     OW20731   4.285   0.222   4.871
 6800SOL    HW120732   4.323   0.138   4.908
 6800SOL    HW220733   4.197   0.241   4.915
 6801SOL     OW20734   4.590   0.454   4.366
 6801SOL    HW120735   4.558   0.526   4.304
 6801SOL    HW220736   4.614   0.373   4.313
 6802SOL     OW20737   4.741   0.039   4.477
 6802SOL    HW120738   4.669   0.044   4.408
 6802SOL    HW220739   4.717  -0.030   4.546
 6803SOL     OW20740   4.212   1.385   3.898
 6803SOL    HW120741   4.125   1.370   3.945
 6803SOL    HW220742   4.195   1.411   3.803
 6804SOL     OW20743   4.251   0.256   4.052
 6804SOL    HW120744   4.278   0.197   3.977
 6804SOL    HW220745   4.251   0.351   4.021
 6805SOL     OW20746   4.788   1.347   5.064
 6805SOL    HW120747   4.708   1.324   5.119
 6805SOL    HW220748   4.871   1.321   5.113
 6806SOL     OW20749   4.835   1.195   4.824
 6806SOL    HW120750   4.795   1.239   4.905
 6806SOL    HW220751   4.794   1.232   4.741
 6807SOL     OW20752   4.639   0.089   5.126
 6807SOL    HW120753   4.664   0.069   5.031
 6807SOL    HW220754   4.711   0.145   5.168
 6808SOL     OW20755   4.704   1.116   5.443
 6808SOL    HW120756   4.605   1.122   5.453
 6808SOL    HW220757   4.727   1.036   5.387
 6809SOL     OW20758   4.429   1.050   4.092
 6809SOL    HW120759   4.415   1.057   4.191
 6809SOL    HW220760   4.513   0.999   4.074
 6810SOL     OW20761   4.134   0.813   4.975
 6810SOL    HW120762   4.220   0.825   5.025
 6810SOL    HW220763   4.092   0.726   5.002
 6811SOL     OW20764   3.788   1.564   5.055
 6811SOL    HW120765   3.742   1.646   5.021
 6811SOL    HW220766   3.886   1.583   5.064
 6812SOL     OW20767   4.091   1.100   4.225
 6812SOL    HW120768   4.084   1.183   4.169
 6812SOL    HW220769   4.095   1.020   4.165
 6813SOL     OW20770   4.290   0.537   4.589
 6813SOL    HW120771   4.302   0.603   4.515
 6813SOL    HW220772   4.336   0.571   4.672
 6814SOL     OW20773   4.976   1.348   4.112
 6814SOL    HW120774   5.026   1.425   4.152
 6814SOL    HW220775   4.881   1.350   4.144
 6815SOL     OW20776   4.078   1.510   5.053
 6815SOL    HW120777   4.057   1.466   4.966
 6815SOL    HW220778   4.175   1.536   5.056
 6816SOL     OW20779   4.126   0.751   5.322
 6816SOL    HW120780   4.194   0.806   5.275
 6816SOL    HW220781   4.166   0.663   5.349
 6817SOL     OW20782   4.737   0.105   5.494
 6817SOL    HW120783   4.743   0.190   5.442
 6817SOL    HW220784   4.769   0.029   5.437
 6818SOL     OW20785   4.228   0.050   5.464
 6818SOL    HW120786   4.186  -0.007   5.394
 6818SOL    HW220787   4.162   0.119   5.496
 6819SOL     OW20788   4.297   0.870   4.753
 6819SOL    HW120789   4.341   0.959   4.744
 6819SOL    HW220790   4.234   0.870   4.830
 6820SOL     OW20791   5.084   0.862   4.769
 6820SOL    HW120792   5.009   0.862   4.703
 6820SOL    HW220793   5.121   0.770   4.778
 6821SOL     OW20794   4.933   0.525   3.999
 6821SOL    HW120795   4.946   0.441   4.053
 6821SOL    HW220796   4.904   0.599   4.059
 6822SOL     OW20797   4.031   0.213   4.955
 6822SOL    HW120798   4.008   0.250   5.045
 6822SOL    HW220799   4.001   0.118   4.949
 6823SOL     OW20800   3.761   1.310   5.006
 6823SOL    HW120801   3.814   1.261   5.074
 6823SOL    HW220802   3.783   1.408   5.011
 6824SOL     OW20803   4.456   0.634   4.788
 6824SOL    HW120804   4.515   0.608   4.712
 6824SOL    HW220805   4.428   0.730   4.777
 6825SOL     OW20806   4.031   0.063   4.342
 6825SOL    HW120807   4.020   0.157   4.375
 6825SOL    HW220808   4.026   0.000   4.419
 6826SOL     OW20809   4.747   0.766   4.690
 6826SOL    HW120810   4.762   0.787   4.786
 6826SOL    HW220811   4.717   0.671   4.681
 6827SOL     OW20812   4.704   1.573   5.424
 6827SOL    HW120813   4.684   1.617   5.336
 6827SOL    HW220814   4.743   1.482   5.408
 6828SOL     OW20815   4.074   0.898   5.528
 6828SOL    HW120816   4.150   0.942   5.576
 6828SOL    HW220817   4.109   0.851   5.446
 6829SOL     OW20818   5.264   0.274   3.849
 6829SOL    HW120819   5.203   0.199   3.872
 6829SOL    HW220820   5.286   0.326   3.932
 6830SOL     OW20821   4.792   1.333   4.573
 6830SOL    HW120822   4.799   1.249   4.518
 6830SOL    HW220823   4.854   1.402   4.537
 6831SOL     OW20824   4.043   0.810   4.673
 6831SOL    HW120825   4.136   0.846   4.678
 6831SOL    HW220826   4.037   0.725   4.725
 6832SOL     OW20827   4.063   0.509   4.730
 6832SOL    HW120828   4.011   0.426   4.713
 6832SOL    HW220829   4.140   0.514   4.666
 6833SOL     OW20830   4.862   0.380   5.402
 6833SOL    HW120831   4.817   0.443   5.466
 6833SOL    HW220832   4.955   0.411   5.385
 6834SOL     OW20833   4.884   0.207   5.201
 6834SOL    HW120834   4.884   0.271   5.278
 6834SOL    HW220835   4.912   0.255   5.118
 6835SOL     OW20836   3.732   1.326   3.924
 6835SOL    HW120837   3.639   1.347   3.893
 6835SOL    HW220838   3.742   1.227   3.937
 6836SOL     OW20839   3.812   1.801   4.651
 6836SOL    HW120840   3.770   1.715   4.624
 6836SOL    HW220841   3.906   1.804   4.617
 6837SOL     OW20842   4.228   1.568   4.634
 6837SOL    HW120843   4.294   1.642   4.643
 6837SOL    HW220844   4.272   1.489   4.592
 6838SOL     OW20845   4.726   0.796   4.962
 6838SOL    HW120846   4.767   0.764   5.048
 6838SOL    HW220847   4.630   0.769   4.959
 6839SOL     OW20848   3.764   0.544   4.838
 6839SOL    HW120849   3.849   0.511   4.797
 6839SOL    HW220850   3.777   0.559   4.936
 6840SOL     OW20851   3.913   0.520   5.446
 6840SOL    HW120852   3.972   0.480   5.376
 6840SOL    HW220853   3.855   0.591   5.405
 6841SOL     OW20854   4.539   0.572   4.049
 6841SOL    HW120855   4.546   0.483   4.003
 6841SOL    HW220856   4.445   0.606   4.041
 6842SOL     OW20857   3.976   1.564   5.468
 6842SOL    HW120858   3.946   1.621   5.544
 6842SOL    HW220859   3.969   1.467   5.494
 6843SOL     OW20860   4.395   0.464   4.993
 6843SOL    HW120861   4.361   0.375   4.963
 6843SOL    HW220862   4.421   0.518   4.913
 6844SOL     OW20863   4.654   1.678   5.189
 6844SOL    HW120864   4.630   1.660   5.094
 6844SOL    HW220865   4.684   1.772   5.199
 6845SOL     OW20866   4.197   0.500   3.915
 6845SOL    HW120867   4.258   0.580   3.919
 6845SOL    HW220868   4.102   0.531   3.922
 6846SOL     OW20869   3.883   1.137   5.190
 6846SOL    HW120870   3.905   1.076   5.266
 6846SOL    HW220871   3.893   1.088   5.104
 6847SOL     OW20872   4.976   1.731   4.852
 6847SOL    HW120873   5.060   1.736   4.798
 6847SOL    HW220874   4.953   1.635   4.870
 6848SOL     OW20875   3.807   1.258   4.746
 6848SOL    HW120876   3.802   1.257   4.846
 6848SOL    HW220877   3.724   1.217   4.708
 6849SOL     OW20878   4.412   1.662   5.440
 6849SOL    HW120879   4.356   1.743   5.449
 6849SOL    HW220880   4.464   1.666   5.354
 6850SOL     OW20881   3.854   1.794   5.575
 6850SOL    HW120882   3.813   1.720   5.628
 6850SOL    HW220883   3.918   1.845   5.633
 6851SOL     OW20884   4.554   1.273   5.146
 6851SOL    HW120885   4.549   1.306   5.241
 6851SOL    HW220886   4.468   1.292   5.100
 6852SOL     OW20887   4.396   1.616   3.878
 6852SOL    HW120888   4.405   1.626   3.779
 6852SOL    HW220889   4.356   1.527   3.899
 6853SOL     OW20890   3.987   0.326   4.444
 6853SOL    HW120891   3.908   0.377   4.410
 6853SOL    HW220892   3.978   0.311   4.542
 6854SOL     OW20893   4.546   1.002   5.096
 6854SOL    HW120894   4.586   1.001   5.004
 6854SOL    HW220895   4.556   1.094   5.136
 6855SOL     OW20896   4.640   0.910   4.015
 6855SOL    HW120897   4.703   0.948   3.947
 6855SOL    HW220898   4.680   0.827   4.054
 6856SOL     OW20899   4.096   1.288   5.214
 6856SOL    HW120900   4.083   1.381   5.180
 6856SOL    HW220901   4.012   1.236   5.201
 6857SOL     OW20902   4.763   1.098   4.420
 6857SOL    HW120903   4.693   1.051   4.474
 6857SOL    HW220904   4.822   1.030   4.377
 6858SOL     OW20905   4.738   0.236   4.695
 6858SOL    HW120906   4.730   0.200   4.602
 6858SOL    HW220907   4.736   0.160   4.760
 6859SOL     OW20908   4.314   1.487   4.215
 6859SOL    HW120909   4.356   1.429   4.145
 6859SOL    HW220910   4.270   1.566   4.171
 6860SOL     OW20911   3.979   1.348   4.014
 6860SOL    HW120912   3.883   1.349   3.987
 6860SOL    HW220913   3.991   1.401   4.098
 6861SOL     OW20914   3.829   1.013   5.450
 6861SOL    HW120915   3.752   0.980   5.504
 6861SOL    HW220916   3.914   0.983   5.492
 6862SOL     OW20917   4.396   0.203   5.213
 6862SOL    HW120918   4.486   0.187   5.173
 6862SOL    HW220919   4.404   0.208   5.312
 6863SOL     OW20920   3.799   0.345   3.757
 6863SOL    HW120921   3.707   0.317   3.728
 6863SOL    HW220922   3.830   0.422   3.701
 6864SOL     OW20923   3.796   0.166   4.042
 6864SOL    HW120924   3.779   0.249   3.988
 6864SOL    HW220925   3.886   0.129   4.020
 6865SOL     OW20926   4.337   0.842   5.155
 6865SOL    HW120927   4.393   0.923   5.138
 6865SOL    HW220928   4.396   0.762   5.158
 6866SOL     OW20929   4.440   0.565   5.432
 6866SOL    HW120930   4.459   0.630   5.506
 6866SOL    HW220931   4.500   0.485   5.441
 6867SOL     OW20932   4.114   1.741   5.284
 6867SOL    HW120933   4.023   1.782   5.282
 6867SOL    HW220934   4.107   1.647   5.316
 6868SOL     OW20935   4.318   0.745   4.376
 6868SOL    HW120936   4.368   0.830   4.357
 6868SOL    HW220937   4.230   0.747   4.328
 6869SOL     OW20938   4.583   1.374   3.740
 6869SOL    HW120939   4.537   1.389   3.828
 6869SOL    HW220940   4.627   1.459   3.710
 6870SOL     OW20941   4.385   1.790   4.677
 6870SOL    HW120942   4.339   1.878   4.664
 6870SOL    HW220943   4.484   1.802   4.670
 6871SOL     OW20944   4.583   0.956   4.585
 6871SOL    HW120945   4.637   0.887   4.633
 6871SOL    HW220946   4.551   1.025   4.651
 6872SOL     OW20947   4.807   0.984   3.811
 6872SOL    HW120948   4.784   1.037   3.729
 6872SOL    HW220949   4.888   0.928   3.792
 6873SOL     OW20950   3.945   1.314   5.568
 6873SOL    HW120951   3.880   1.241   5.547
 6873SOL    HW220952   3.949   1.328   5.666
 6874SOL     OW20953   3.803   1.240   4.377
 6874SOL    HW120954   3.802   1.193   4.465
 6874SOL    HW220955   3.885   1.212   4.326
 6875SOL     OW20956   4.396   1.391   5.348
 6875SOL    HW120957   4.318   1.341   5.386
 6875SOL    HW220958   4.393   1.486   5.379
 6876SOL     OW20959   4.152   0.424   4.244
 6876SOL    HW120960   4.182   0.352   4.182
 6876SOL    HW220961   4.113   0.384   4.327
 6877SOL     OW20962   4.041   0.547   5.004
 6877SOL    HW120963   4.079   0.488   5.076
 6877SOL    HW220964   4.081   0.521   4.916
 6878SOL     OW20965   4.536   1.586   4.411
 6878SOL    HW120966   4.568   1.596   4.317
 6878SOL    HW220967   4.457   1.524   4.413
 6879SOL     OW20968   4.725   0.034   4.878
 6879SOL    HW120969   4.662  -0.038   4.847
 6879SOL    HW220970   4.818  -0.002   4.878
 6880SOL     OW20971   4.494   1.330   4.025
 6880SOL    HW120972   4.448   1.243   4.042
 6880SOL    HW220973   4.585   1.327   4.066
 6881SOL     OW20974   4.342   1.567   5.008
 6881SOL    HW120975   4.337   1.649   5.065
 6881SOL    HW220976   4.431   1.564   4.963
 6882SOL     OW20977   3.763   1.077   4.024
 6882SOL    HW120978   3.862   1.066   4.015
 6882SOL    HW220979   3.723   0.991   4.056
 6883SOL     OW20980   4.599   1.646   4.061
 6883SOL    HW120981   4.522   1.611   4.007
 6883SOL    HW220982   4.567   1.717   4.123
 6884SOL     OW20983   3.954   0.628   5.699
 6884SOL    HW120984   3.861   0.626   5.736
 6884SOL    HW220985   3.955   0.589   5.607
 6885SOL     OW20986   3.949   0.275   6.582
 6885SOL    HW120987   3.984   0.258   6.674
 6885SOL    HW220988   3.861   0.230   6.570
 6886SOL     OW20989   3.743   0.368   6.233
 6886SOL    HW120990   3.661   0.411   6.272
 6886SOL    HW220991   3.715   0.295   6.170
 6887SOL     OW20992   4.293   1.275   6.751
 6887SOL    HW120993   4.200   1.268   6.714
 6887SOL    HW220994   4.304   1.364   6.795
 6888SOL     OW20995   4.859   0.703   6.303
 6888SOL    HW120996   4.916   0.781   6.278
 6888SOL    HW220997   4.799   0.729   6.379
 6889SOL     OW20998   4.492   1.144   6.609
 6889SOL    HW120999   4.414   1.161   6.669
 6889SOL    HW221000   4.526   1.231   6.573
 6890SOL     OW21001   4.574   0.798   7.409
 6890SOL    HW121002   4.570   0.874   7.474
 6890SOL    HW221003   4.596   0.834   7.318
 6891SOL     OW21004   4.409   1.012   6.251
 6891SOL    HW121005   4.478   0.996   6.321
 6891SOL    HW221006   4.336   1.069   6.289
 6892SOL     OW21007   4.410   1.161   7.389
 6892SOL    HW121008   4.470   1.240   7.403
 6892SOL    HW221009   4.324   1.192   7.348
 6893SOL     OW21010   4.059   1.435   6.647
 6893SOL    HW121011   3.981   1.404   6.594
 6893SOL    HW221012   4.117   1.493   6.590
 6894SOL     OW21013   4.162   0.392   7.085
 6894SOL    HW121014   4.244   0.336   7.094
 6894SOL    HW221015   4.081   0.334   7.089
 6895SOL     OW21016   3.955   1.713   6.069
 6895SOL    HW121017   3.989   1.790   6.123
 6895SOL    HW221018   3.999   1.713   5.979
 6896SOL     OW21019   4.851   1.341   7.276
 6896SOL    HW121020   4.898   1.341   7.364
 6896SOL    HW221021   4.803   1.254   7.265
 6897SOL     OW21022   3.954   1.434   6.124
 6897SOL    HW121023   3.928   1.530   6.124
 6897SOL    HW221024   3.883   1.380   6.169
 6898SOL     OW21025   3.964   1.091   6.472
 6898SOL    HW121026   3.978   1.007   6.524
 6898SOL    HW221027   3.909   1.155   6.527
 6899SOL     OW21028   4.344   1.786   7.025
 6899SOL    HW121029   4.252   1.769   7.060
 6899SOL    HW221030   4.372   1.878   7.051
 6900SOL     OW21031   4.330   0.964   5.709
 6900SOL    HW121032   4.337   1.048   5.655
 6900SOL    HW221033   4.376   0.977   5.797
 6901SOL     OW21034   3.846   0.643   6.149
 6901SOL    HW121035   3.801   0.555   6.166
 6901SOL    HW221036   3.845   0.697   6.233
 6902SOL     OW21037   3.751   1.596   5.703
 6902SOL    HW121038   3.732   1.500   5.724
 6902SOL    HW221039   3.718   1.654   5.778
 6903SOL     OW21040   3.837   0.737   7.183
 6903SOL    HW121041   3.925   0.724   7.228
 6903SOL    HW221042   3.824   0.834   7.161
 6904SOL     OW21043   4.337   1.365   6.312
 6904SOL    HW121044   4.288   1.278   6.321
 6904SOL    HW221045   4.314   1.408   6.225
 6905SOL     OW21046   4.533   0.004   6.088
 6905SOL    HW121047   4.573   0.095   6.079
 6905SOL    HW221048   4.433   0.012   6.094
 6906SOL     OW21049   3.921   0.976   6.850
 6906SOL    HW121050   4.010   0.931   6.836
 6906SOL    HW221051   3.848   0.911   6.831
 6907SOL     OW21052   4.041   0.251   7.387
 6907SOL    HW121053   4.112   0.322   7.393
 6907SOL    HW221054   3.953   0.290   7.415
 6908SOL     OW21055   4.322   0.729   5.856
 6908SOL    HW121056   4.346   0.798   5.788
 6908SOL    HW221057   4.244   0.762   5.910
 6909SOL     OW21058   4.531   0.605   7.051
 6909SOL    HW121059   4.484   0.602   7.140
 6909SOL    HW221060   4.480   0.550   6.985
 6910SOL     OW21061   4.697   0.890   7.158
 6910SOL    HW121062   4.743   0.806   7.129
 6910SOL    HW221063   4.641   0.924   7.083
 6911SOL     OW21064   4.715   0.410   6.828
 6911SOL    HW121065   4.638   0.444   6.882
 6911SOL    HW221066   4.681   0.359   6.749
 6912SOL     OW21067   4.765   0.701   6.015
 6912SOL    HW121068   4.791   0.697   6.111
 6912SOL    HW221069   4.680   0.650   6.001
 6913SOL     OW21070   3.800   0.811   6.375
 6913SOL    HW121071   3.899   0.799   6.384
 6913SOL    HW221072   3.776   0.906   6.396
 6914SOL     OW21073   3.854   1.821   7.157
 6914SOL    HW121074   3.844   1.806   7.256
 6914SOL    HW221075   3.768   1.857   7.121
 6915SOL     OW21076   4.589   0.348   5.781
 6915SOL    HW121077   4.648   0.411   5.732
 6915SOL    HW221078   4.608   0.254   5.752
 6916SOL     OW21079   4.274   0.196   6.471
 6916SOL    HW121080   4.269   0.191   6.571
 6916SOL    HW221081   4.276   0.292   6.442
 6917SOL     OW21082   4.732   1.456   6.063
 6917SOL    HW121083   4.686   1.528   6.011
 6917SOL    HW221084   4.728   1.476   6.161
 6918SOL     OW21085   4.075   1.801   6.439
 6918SOL    HW121086   4.125   1.715   6.445
 6918SOL    HW221087   4.140   1.878   6.436
 6919SOL     OW21088   4.951   1.550   7.092
 6919SOL    HW121089   4.957   1.473   7.156
 6919SOL    HW221090   4.899   1.524   7.012
 6920SOL     OW21091   4.045   0.943   5.828
 6920SOL    HW121092   4.127   0.982   5.786
 6920SOL    HW221093   4.018   0.861   5.779
 6921SOL     OW21094   4.185   1.266   7.313
 6921SOL    HW121095   4.135   1.267   7.227
 6921SOL    HW221096   4.122   1.248   7.389
 6922SOL     OW21097   4.835   1.776   5.823
 6922SOL    HW121098   4.775   1.714   5.873
 6922SOL    HW221099   4.866   1.732   5.738
 6923SOL     OW21100   3.926   0.285   7.084
 6923SOL    HW121101   3.846   0.345   7.071
 6923SOL    HW221102   3.916   0.236   7.170
 6924SOL     OW21103   4.188   1.743   5.909
 6924SOL    HW121104   4.221   1.782   5.995
 6924SOL    HW221105   4.264   1.736   5.844
 6925SOL     OW21106   3.973   1.785   6.827
 6925SOL    HW121107   4.030   1.720   6.877
 6925SOL    HW221108   3.957   1.752   6.734
 6926SOL     OW21109   4.664   1.698   6.490
 6926SOL    HW121110   4.744   1.641   6.511
 6926SOL    HW221111   4.615   1.658   6.413
 6927SOL     OW21112   4.106   0.700   6.066
 6927SOL    HW121113   4.151   0.610   6.063
 6927SOL    HW221114   4.012   0.689   6.099
 6928SOL     OW21115   4.338   0.122   5.703
 6928SOL    HW121116   4.436   0.100   5.710
 6928SOL    HW221117   4.307   0.105   5.610
 6929SOL     OW21118   4.505   0.264   7.335
 6929SOL    HW121119   4.572   0.203   7.378
 6929SOL    HW221120   4.432   0.283   7.400
 6930SOL     OW21121   4.612   1.514   6.781
 6930SOL    HW121122   4.589   1.489   6.687
 6930SOL    HW221123   4.673   1.445   6.820
 6931SOL     OW21124   4.527   1.402   6.510
 6931SOL    HW121125   4.617   1.416   6.468
 6931SOL    HW221126   4.456   1.404   6.439
 6932SOL     OW21127   4.646   0.503   6.485
 6932SOL    HW121128   4.621   0.494   6.389
 6932SOL    HW221129   4.694   0.421   6.516
 6933SOL     OW21130   4.263   0.064   6.098
 6933SOL    HW121131   4.182   0.065   6.156
 6933SOL    HW221132   4.266   0.147   6.043
 6934SOL     OW21133   4.021   0.035   5.757
 6934SOL    HW121134   4.070   0.119   5.736
 6934SOL    HW221135   4.083  -0.030   5.802
 6935SOL     OW21136   4.659   0.236   6.066
 6935SOL    HW121137   4.611   0.277   5.988
 6935SOL    HW221138   4.758   0.234   6.047
 6936SOL     OW21139   4.800   0.683   7.050
 6936SOL    HW121140   4.720   0.622   7.053
 6936SOL    HW221141   4.881   0.630   7.026
 6937SOL     OW21142   4.951   1.570   6.379
 6937SOL    HW121143   4.972   1.644   6.314
 6937SOL    HW221144   5.019   1.570   6.452
 6938SOL     OW21145   4.183   1.152   6.327
 6938SOL    HW121146   4.112   1.125   6.392
 6938SOL    HW221147   4.157   1.124   6.234
 6939SOL     OW21148   4.995   1.797   6.177
 6939SOL    HW121149   5.039   1.861   6.113
 6939SOL    HW221150   4.945   1.849   6.247
 6940SOL     OW21151   4.756   0.549   5.602
 6940SOL    HW121152   4.715   0.631   5.563
 6940SOL    HW221153   4.820   0.575   5.675
 6941SOL     OW21154   3.802   0.556   6.972
 6941SOL    HW121155   3.894   0.555   6.931
 6941SOL    HW221156   3.796   0.630   7.039
 6942SOL     OW21157   4.285   0.222   6.733
 6942SOL    HW121158   4.323   0.138   6.770
 6942SOL    HW221159   4.197   0.241   6.777
 6943SOL     OW21160   4.590   0.454   6.228
 6943SOL    HW121161   4.558   0.526   6.166
 6943SOL    HW221162   4.614   0.373   6.175
 6944SOL     OW21163   4.741   0.039   6.339
 6944SOL    HW121164   4.669   0.044   6.270
 6944SOL    HW221165   4.717  -0.030   6.408
 6945SOL     OW21166   4.212   1.385   5.760
 6945SOL    HW121167   4.125   1.370   5.807
 6945SOL    HW221168   4.195   1.411   5.665
 6946SOL     OW21169   4.251   0.256   5.914
 6946SOL    HW121170   4.278   0.197   5.839
 6946SOL    HW221171   4.251   0.351   5.883
 6947SOL     OW21172   4.788   1.347   6.926
 6947SOL    HW121173   4.708   1.324   6.981
 6947SOL    HW221174   4.871   1.321   6.975
 6948SOL     OW21175   4.835   1.195   6.686
 6948SOL    HW121176   4.795   1.239   6.767
 6948SOL    HW221177   4.794   1.232   6.603
 6949SOL     OW21178   4.639   0.089   6.988
 6949SOL    HW121179   4.664   0.069   6.893
 6949SOL    HW221180   4.711   0.145   7.030
 6950SOL     OW21181   4.704   1.116   7.305
 6950SOL    HW121182   4.605   1.122   7.315
 6950SOL    HW221183   4.727   1.036   7.249
 6951SOL     OW21184   4.429   1.050   5.954
 6951SOL    HW121185   4.415   1.057   6.053
 6951SOL    HW221186   4.513   0.999   5.936
 6952SOL     OW21187   4.134   0.813   6.837
 6952SOL    HW121188   4.220   0.825   6.887
 6952SOL    HW221189   4.092   0.726   6.864
 6953SOL     OW21190   3.788   1.564   6.917
 6953SOL    HW121191   3.742   1.646   6.883
 6953SOL    HW221192   3.886   1.583   6.926
 6954SOL     OW21193   4.091   1.100   6.087
 6954SOL    HW121194   4.084   1.183   6.031
 6954SOL    HW221195   4.095   1.020   6.027
 6955SOL     OW21196   4.290   0.537   6.451
 6955SOL    HW121197   4.302   0.603   6.377
 6955SOL    HW221198   4.336   0.571   6.534
 6956SOL     OW21199   4.976   1.348   5.974
 6956SOL    HW121200   5.026   1.425   6.014
 6956SOL    HW221201   4.881   1.350   6.006
 6957SOL     OW21202   4.078   1.510   6.915
 6957SOL    HW121203   4.057   1.466   6.828
 6957SOL    HW221204   4.175   1.536   6.918
 6958SOL     OW21205   4.126   0.751   7.184
 6958SOL    HW121206   4.194   0.806   7.137
 6958SOL    HW221207   4.166   0.663   7.211
 6959SOL     OW21208   4.737   0.105   7.356
 6959SOL    HW121209   4.743   0.190   7.304
 6959SOL    HW221210   4.769   0.029   7.299
 6960SOL     OW21211   4.228   0.050   7.326
 6960SOL    HW121212   4.186  -0.007   7.256
 6960SOL    HW221213   4.162   0.119   7.358
 6961SOL     OW21214   4.297   0.870   6.615
 6961SOL    HW121215   4.341   0.959   6.606
 6961SOL    HW221216   4.234   0.870   6.692
 6962SOL     OW21217   5.084   0.862   6.631
 6962SOL    HW121218   5.009   0.862   6.565
 6962SOL    HW221219   5.121   0.770   6.640
 6963SOL     OW21220   4.933   0.525   5.861
 6963SOL    HW121221   4.946   0.441   5.915
 6963SOL    HW221222   4.904   0.599   5.921
 6964SOL     OW21223   4.031   0.213   6.817
 6964SOL    HW121224   4.008   0.250   6.907
 6964SOL    HW221225   4.001   0.118   6.811
 6965SOL     OW21226   3.761   1.310   6.868
 6965SOL    HW121227   3.814   1.261   6.936
 6965SOL    HW221228   3.783   1.408   6.873
 6966SOL     OW21229   4.456   0.634   6.650
 6966SOL    HW121230   4.515   0.608   6.574
 6966SOL    HW221231   4.428   0.730   6.639
 6967SOL     OW21232   4.031   0.063   6.204
 6967SOL    HW121233   4.020   0.157   6.237
 6967SOL    HW221234   4.026   0.000   6.281
 6968SOL     OW21235   4.747   0.766   6.552
 6968SOL    HW121236   4.762   0.787   6.648
 6968SOL    HW221237   4.717   0.671   6.543
 6969SOL     OW21238   4.704   1.573   7.286
 6969SOL    HW121239   4.684   1.617   7.198
 6969SOL    HW221240   4.743   1.482   7.270
 6970SOL     OW21241   4.074   0.898   7.390
 6970SOL    HW121242   4.150   0.942   7.438
 6970SOL    HW221243   4.109   0.851   7.308
 6971SOL     OW21244   5.264   0.274   5.711
 6971SOL    HW121245   5.203   0.199   5.734
 6971SOL    HW221246   5.286   0.326   5.794
 6972SOL     OW21247   4.792   1.333   6.435
 6972SOL    HW121248   4.799   1.249   6.380
 6972SOL    HW221249   4.854   1.402   6.399
 6973SOL     OW21250   4.043   0.810   6.535
 6973SOL    HW121251   4.136   0.846   6.540
 6973SOL    HW221252   4.037   0.725   6.587
 6974SOL     OW21253   4.063   0.509   6.592
 6974SOL    HW121254   4.011   0.426   6.575
 6974SOL    HW221255   4.140   0.514   6.528
 6975SOL     OW21256   4.862   0.380   7.264
 6975SOL    HW121257   4.817   0.443   7.328
 6975SOL    HW221258   4.955   0.411   7.247
 6976SOL     OW21259   4.884   0.207   7.063
 6976SOL    HW121260   4.884   0.271   7.140
 6976SOL    HW221261   4.912   0.255   6.980
 6977SOL     OW21262   3.732   1.326   5.786
 6977SOL    HW121263   3.639   1.347   5.755
 6977SOL    HW221264   3.742   1.227   5.799
 6978SOL     OW21265   3.812   1.801   6.513
 6978SOL    HW121266   3.770   1.715   6.486
 6978SOL    HW221267   3.906   1.804   6.479
 6979SOL     OW21268   4.228   1.568   6.496
 6979SOL    HW121269   4.294   1.642   6.505
 6979SOL    HW221270   4.272   1.489   6.454
 6980SOL     OW21271   4.726   0.796   6.824
 6980SOL    HW121272   4.767   0.764   6.910
 6980SOL    HW221273   4.630   0.769   6.821
 6981SOL     OW21274   3.764   0.544   6.700
 6981SOL    HW121275   3.849   0.511   6.659
 6981SOL    HW221276   3.777   0.559   6.798
 6982SOL     OW21277   3.913   0.520   7.308
 6982SOL    HW121278   3.972   0.480   7.238
 6982SOL    HW221279   3.855   0.591   7.267
 6983SOL     OW21280   4.539   0.572   5.911
 6983SOL    HW121281   4.546   0.483   5.865
 6983SOL    HW221282   4.445   0.606   5.903
 6984SOL     OW21283   3.976   1.564   7.330
 6984SOL    HW121284   3.946   1.621   7.406
 6984SOL    HW221285   3.969   1.467   7.356
 6985SOL     OW21286   4.395   0.464   6.855
 6985SOL    HW121287   4.361   0.375   6.825
 6985SOL    HW221288   4.421   0.518   6.775
 6986SOL     OW21289   4.654   1.678   7.051
 6986SOL    HW121290   4.630   1.660   6.956
 6986SOL    HW221291   4.684   1.772   7.061
 6987SOL     OW21292   4.197   0.500   5.777
 6987SOL    HW121293   4.258   0.580   5.781
 6987SOL    HW221294   4.102   0.531   5.784
 6988SOL     OW21295   3.883   1.137   7.052
 6988SOL    HW121296   3.905   1.076   7.128
 6988SOL    HW221297   3.893   1.088   6.966
 6989SOL     OW21298   4.976   1.731   6.714
 6989SOL    HW121299   5.060   1.736   6.660
 6989SOL    HW221300   4.953   1.635   6.732
 6990SOL     OW21301   3.807   1.258   6.608
 6990SOL    HW121302   3.802   1.257   6.708
 6990SOL    HW221303   3.724   1.217   6.570
 6991SOL     OW21304   4.412   1.662   7.302
 6991SOL    HW121305   4.356   1.743   7.311
 6991SOL    HW221306   4.464   1.666   7.216
 6992SOL     OW21307   3.854   1.794   7.437
 6992SOL    HW121308   3.813   1.720   7.490
 6992SOL    HW221309   3.918   1.845   7.495
 6993SOL     OW21310   4.554   1.273   7.008
 6993SOL    HW121311   4.549   1.306   7.103
 6993SOL    HW221312   4.468   1.292   6.962
 6994SOL     OW21313   4.396   1.616   5.740
 6994SOL    HW121314   4.405   1.626   5.641
 6994SOL    HW221315   4.356   1.527   5.761
 6995SOL     OW21316   3.987   0.326   6.306
 6995SOL    HW121317   3.908   0.377   6.272
 6995SOL    HW221318   3.978   0.311   6.404
 6996SOL     OW21319   4.546   1.002   6.958
 6996SOL    HW121320   4.586   1.001   6.866
 6996SOL    HW221321   4.556   1.094   6.998
 6997SOL     OW21322   4.640   0.910   5.877
 6997SOL    HW121323   4.703   0.948   5.809
 6997SOL    HW221324   4.680   0.827   5.916
 6998SOL     OW21325   4.096   1.288   7.076
 6998SOL    HW121326   4.083   1.381   7.042
 6998SOL    HW221327   4.012   1.236   7.063
 6999SOL     OW21328   4.763   1.098   6.282
 6999SOL    HW121329   4.693   1.051   6.336
 6999SOL    HW221330   4.822   1.030   6.239
 7000SOL     OW21331   4.738   0.236   6.557
 7000SOL    HW121332   4.730   0.200   6.464
 7000SOL    HW221333   4.736   0.160   6.622
 7001SOL     OW21334   4.314   1.487   6.077
 7001SOL    HW121335   4.356   1.429   6.007
 7001SOL    HW221336   4.270   1.566   6.033
 7002SOL     OW21337   3.979   1.348   5.876
 7002SOL    HW121338   3.883   1.349   5.849
 7002SOL    HW221339   3.991   1.401   5.960
 7003SOL     OW21340   3.829   1.013   7.312
 7003SOL    HW121341   3.752   0.980   7.366
 7003SOL    HW221342   3.914   0.983   7.354
 7004SOL     OW21343   4.396   0.203   7.075
 7004SOL    HW121344   4.486   0.187   7.035
 7004SOL    HW221345   4.404   0.208   7.174
 7005SOL     OW21346   3.799   0.345   5.619
 7005SOL    HW121347   3.707   0.317   5.590
 7005SOL    HW221348   3.830   0.422   5.563
 7006SOL     OW21349   3.796   0.166   5.904
 7006SOL    HW121350   3.779   0.249   5.850
 7006SOL    HW221351   3.886   0.129   5.882
 7007SOL     OW21352   4.337   0.842   7.017
 7007SOL    HW121353   4.393   0.923   7.000
 7007SOL    HW221354   4.396   0.762   7.020
 7008SOL     OW21355   4.440   0.565   7.294
 7008SOL    HW121356   4.459   0.630   7.368
 7008SOL    HW221357   4.500   0.485   7.303
 7009SOL     OW21358   4.114   1.741   7.146
 7009SOL    HW121359   4.023   1.782   7.144
 7009SOL    HW221360   4.107   1.647   7.178
 7010SOL     OW21361   4.318   0.745   6.238
 7010SOL    HW121362   4.368   0.830   6.219
 7010SOL    HW221363   4.230   0.747   6.190
 7011SOL     OW21364   4.583   1.374   5.602
 7011SOL    HW121365   4.537   1.389   5.690
 7011SOL    HW221366   4.627   1.459   5.572
 7012SOL     OW21367   4.385   1.790   6.539
 7012SOL    HW121368   4.339   1.878   6.526
 7012SOL    HW221369   4.484   1.802   6.532
 7013SOL     OW21370   4.583   0.956   6.447
 7013SOL    HW121371   4.637   0.887   6.495
 7013SOL    HW221372   4.551   1.025   6.513
 7014SOL     OW21373   4.807   0.984   5.673
 7014SOL    HW121374   4.784   1.037   5.591
 7014SOL    HW221375   4.888   0.928   5.654
 7015SOL     OW21376   3.945   1.314   7.430
 7015SOL    HW121377   3.880   1.241   7.409
 7015SOL    HW221378   3.949   1.328   7.528
 7016SOL     OW21379   3.803   1.240   6.239
 7016SOL    HW121380   3.802   1.193   6.327
 7016SOL    HW221381   3.885   1.212   6.188
 7017SOL     OW21382   4.396   1.391   7.210
 7017SOL    HW121383   4.318   1.341   7.248
 7017SOL    HW221384   4.393   1.486   7.241
 7018SOL     OW21385   4.152   0.424   6.106
 7018SOL    HW121386   4.182   0.352   6.044
 7018SOL    HW221387   4.113   0.384   6.189
 7019SOL     OW21388   4.041   0.547   6.866
 7019SOL    HW121389   4.079   0.488   6.938
 7019SOL    HW221390   4.081   0.521   6.778
 7020SOL     OW21391   4.536   1.586   6.273
 7020SOL    HW121392   4.568   1.596   6.179
 7020SOL    HW221393   4.457   1.524   6.275
 7021SOL     OW21394   4.725   0.034   6.740
 7021SOL    HW121395   4.662  -0.038   6.709
 7021SOL    HW221396   4.818  -0.002   6.740
 7022SOL     OW21397   4.494   1.330   5.887
 7022SOL    HW121398   4.448   1.243   5.904
 7022SOL    HW221399   4.585   1.327   5.928
 7023SOL     OW21400   4.342   1.567   6.870
 7023SOL    HW121401   4.337   1.649   6.927
 7023SOL    HW221402   4.431   1.564   6.825
 7024SOL     OW21403   3.763   1.077   5.886
 7024SOL    HW121404   3.862   1.066   5.877
 7024SOL    HW221405   3.723   0.991   5.918
 7025SOL     OW21406   4.599   1.646   5.923
 7025SOL    HW121407   4.522   1.611   5.869
 7025SOL    HW221408   4.567   1.717   5.985
 7026SOL     OW21409   3.954   0.628   7.561
 7026SOL    HW121410   3.861   0.626   7.598
 7026SOL    HW221411   3.955   0.589   7.469
 7027SOL     OW21412   3.949   0.275   8.444
 7027SOL    HW121413   3.984   0.258   8.536
 7027SOL    HW221414   3.861   0.230   8.432
 7028SOL     OW21415   3.743   0.368   8.095
 7028SOL    HW121416   3.661   0.411   8.134
 7028SOL    HW221417   3.715   0.295   8.032
 7029SOL     OW21418   4.293   1.275   8.613
 7029SOL    HW121419   4.200   1.268   8.576
 7029SOL    HW221420   4.304   1.364   8.657
 7030SOL     OW21421   4.859   0.703   8.165
 7030SOL    HW121422   4.916   0.781   8.140
 7030SOL    HW221423   4.799   0.729   8.241
 7031SOL     OW21424   4.492   1.144   8.471
 7031SOL    HW121425   4.414   1.161   8.531
 7031SOL    HW221426   4.526   1.231   8.435
 7032SOL     OW21427   4.574   0.798   9.271
 7032SOL    HW121428   4.570   0.874   9.336
 7032SOL    HW221429   4.596   0.834   9.180
 7033SOL     OW21430   4.409   1.012   8.113
 7033SOL    HW121431   4.478   0.996   8.183
 7033SOL    HW221432   4.336   1.069   8.151
 7034SOL     OW21433   4.410   1.161   9.251
 7034SOL    HW121434   4.470   1.240   9.265
 7034SOL    HW221435   4.324   1.192   9.210
 7035SOL     OW21436   4.059   1.435   8.509
 7035SOL    HW121437   3.981   1.404   8.456
 7035SOL    HW221438   4.117   1.493   8.452
 7036SOL     OW21439   4.162   0.392   8.947
 7036SOL    HW121440   4.244   0.336   8.956
 7036SOL    HW221441   4.081   0.334   8.951
 7037SOL     OW21442   3.955   1.713   7.931
 7037SOL    HW121443   3.989   1.790   7.985
 7037SOL    HW221444   3.999   1.713   7.841
 7038SOL     OW21445   4.851   1.341   9.138
 7038SOL    HW121446   4.898   1.341   9.226
 7038SOL    HW221447   4.803   1.254   9.127
 7039SOL     OW21448   3.954   1.434   7.986
 7039SOL    HW121449   3.928   1.530   7.986
 7039SOL    HW221450   3.883   1.380   8.031
 7040SOL     OW21451   3.964   1.091   8.334
 7040SOL    HW121452   3.978   1.007   8.386
 7040SOL    HW221453   3.909   1.155   8.389
 7041SOL     OW21454   4.344   1.786   8.887
 7041SOL    HW121455   4.252   1.769   8.922
 7041SOL    HW221456   4.372   1.878   8.913
 7042SOL     OW21457   4.330   0.964   7.571
 7042SOL    HW121458   4.337   1.048   7.517
 7042SOL    HW221459   4.376   0.977   7.659
 7043SOL     OW21460   3.846   0.643   8.011
 7043SOL    HW121461   3.801   0.555   8.028
 7043SOL    HW221462   3.845   0.697   8.095
 7044SOL     OW21463   3.751   1.596   7.565
 7044SOL    HW121464   3.732   1.500   7.586
 7044SOL    HW221465   3.718   1.654   7.640
 7045SOL     OW21466   3.837   0.737   9.045
 7045SOL    HW121467   3.925   0.724   9.090
 7045SOL    HW221468   3.824   0.834   9.023
 7046SOL     OW21469   4.337   1.365   8.174
 7046SOL    HW121470   4.288   1.278   8.183
 7046SOL    HW221471   4.314   1.408   8.087
 7047SOL     OW21472   4.533   0.004   7.950
 7047SOL    HW121473   4.573   0.095   7.941
 7047SOL    HW221474   4.433   0.012   7.956
 7048SOL     OW21475   3.921   0.976   8.712
 7048SOL    HW121476   4.010   0.931   8.698
 7048SOL    HW221477   3.848   0.911   8.693
 7049SOL     OW21478   4.041   0.251   9.249
 7049SOL    HW121479   4.112   0.322   9.255
 7049SOL    HW221480   3.953   0.290   9.277
 7050SOL     OW21481   4.322   0.729   7.718
 7050SOL    HW121482   4.346   0.798   7.650
 7050SOL    HW221483   4.244   0.762   7.772
 7051SOL     OW21484   4.531   0.605   8.913
 7051SOL    HW121485   4.484   0.602   9.002
 7051SOL    HW221486   4.480   0.550   8.847
 7052SOL     OW21487   4.697   0.890   9.020
 7052SOL    HW121488   4.743   0.806   8.991
 7052SOL    HW221489   4.641   0.924   8.945
 7053SOL     OW21490   4.715   0.410   8.690
 7053SOL    HW121491   4.638   0.444   8.744
 7053SOL    HW221492   4.681   0.359   8.611
 7054SOL     OW21493   4.765   0.701   7.877
 7054SOL    HW121494   4.791   0.697   7.973
 7054SOL    HW221495   4.680   0.650   7.863
 7055SOL     OW21496   3.800   0.811   8.237
 7055SOL    HW121497   3.899   0.799   8.246
 7055SOL    HW221498   3.776   0.906   8.258
 7056SOL     OW21499   3.854   1.821   9.019
 7056SOL    HW121500   3.844   1.806   9.118
 7056SOL    HW221501   3.768   1.857   8.983
 7057SOL     OW21502   4.589   0.348   7.643
 7057SOL    HW121503   4.648   0.411   7.594
 7057SOL    HW221504   4.608   0.254   7.614
 7058SOL     OW21505   4.274   0.196   8.333
 7058SOL    HW121506   4.269   0.191   8.433
 7058SOL    HW221507   4.276   0.292   8.304
 7059SOL     OW21508   4.732   1.456   7.925
 7059SOL    HW121509   4.686   1.528   7.873
 7059SOL    HW221510   4.728   1.476   8.023
 7060SOL     OW21511   4.075   1.801   8.301
 7060SOL    HW121512   4.125   1.715   8.307
 7060SOL    HW221513   4.140   1.878   8.298
 7061SOL     OW21514   4.951   1.550   8.954
 7061SOL    HW121515   4.957   1.473   9.018
 7061SOL    HW221516   4.899   1.524   8.874
 7062SOL     OW21517   4.045   0.943   7.690
 7062SOL    HW121518   4.127   0.982   7.648
 7062SOL    HW221519   4.018   0.861   7.641
 7063SOL     OW21520   4.185   1.266   9.175
 7063SOL    HW121521   4.135   1.267   9.089
 7063SOL    HW221522   4.122   1.248   9.251
 7064SOL     OW21523   4.835   1.776   7.685
 7064SOL    HW121524   4.775   1.714   7.735
 7064SOL    HW221525   4.866   1.732   7.600
 7065SOL     OW21526   3.926   0.285   8.946
 7065SOL    HW121527   3.846   0.345   8.933
 7065SOL    HW221528   3.916   0.236   9.032
 7066SOL     OW21529   4.188   1.743   7.771
 7066SOL    HW121530   4.221   1.782   7.857
 7066SOL    HW221531   4.264   1.736   7.706
 7067SOL     OW21532   3.973   1.785   8.689
 7067SOL    HW121533   4.030   1.720   8.739
 7067SOL    HW221534   3.957   1.752   8.596
 7068SOL     OW21535   4.664   1.698   8.352
 7068SOL    HW121536   4.744   1.641   8.373
 7068SOL    HW221537   4.615   1.658   8.275
 7069SOL     OW21538   4.106   0.700   7.928
 7069SOL    HW121539   4.151   0.610   7.925
 7069SOL    HW221540   4.012   0.689   7.961
 7070SOL     OW21541   4.338   0.122   7.565
 7070SOL    HW121542   4.436   0.100   7.572
 7070SOL    HW221543   4.307   0.105   7.472
 7071SOL     OW21544   4.505   0.264   9.197
 7071SOL    HW121545   4.572   0.203   9.240
 7071SOL    HW221546   4.432   0.283   9.262
 7072SOL     OW21547   4.612   1.514   8.643
 7072SOL    HW121548   4.589   1.489   8.549
 7072SOL    HW221549   4.673   1.445   8.682
 7073SOL     OW21550   4.527   1.402   8.372
 7073SOL    HW121551   4.617   1.416   8.330
 7073SOL    HW221552   4.456   1.404   8.301
 7074SOL     OW21553   4.646   0.503   8.347
 7074SOL    HW121554   4.621   0.494   8.251
 7074SOL    HW221555   4.694   0.421   8.378
 7075SOL     OW21556   4.263   0.064   7.960
 7075SOL    HW121557   4.182   0.065   8.018
 7075SOL    HW221558   4.266   0.147   7.905
 7076SOL     OW21559   4.021   0.035   7.619
 7076SOL    HW121560   4.070   0.119   7.598
 7076SOL    HW221561   4.083  -0.030   7.664
 7077SOL     OW21562   4.659   0.236   7.928
 7077SOL    HW121563   4.611   0.277   7.850
 7077SOL    HW221564   4.758   0.234   7.909
 7078SOL     OW21565   4.800   0.683   8.912
 7078SOL    HW121566   4.720   0.622   8.915
 7078SOL    HW221567   4.881   0.630   8.888
 7079SOL     OW21568   4.951   1.570   8.241
 7079SOL    HW121569   4.972   1.644   8.176
 7079SOL    HW221570   5.019   1.570   8.314
 7080SOL     OW21571   4.183   1.152   8.189
 7080SOL    HW121572   4.112   1.125   8.254
 7080SOL    HW221573   4.157   1.124   8.096
 7081SOL     OW21574   4.995   1.797   8.039
 7081SOL    HW121575   5.039   1.861   7.975
 7081SOL    HW221576   4.945   1.849   8.109
 7082SOL     OW21577   4.756   0.549   7.464
 7082SOL    HW121578   4.715   0.631   7.425
 7082SOL    HW221579   4.820   0.575   7.537
 7083SOL     OW21580   3.802   0.556   8.834
 7083SOL    HW121581   3.894   0.555   8.793
 7083SOL    HW221582   3.796   0.630   8.901
 7084SOL     OW21583   4.285   0.222   8.595
 7084SOL    HW121584   4.323   0.138   8.632
 7084SOL    HW221585   4.197   0.241   8.639
 7085SOL     OW21586   4.590   0.454   8.090
 7085SOL    HW121587   4.558   0.526   8.028
 7085SOL    HW221588   4.614   0.373   8.037
 7086SOL     OW21589   4.741   0.039   8.201
 7086SOL    HW121590   4.669   0.044   8.132
 7086SOL    HW221591   4.717  -0.030   8.270
 7087SOL     OW21592   4.212   1.385   7.622
 7087SOL    HW121593   4.125   1.370   7.669
 7087SOL    HW221594   4.195   1.411   7.527
 7088SOL     OW21595   4.251   0.256   7.776
 7088SOL    HW121596   4.278   0.197   7.701
 7088SOL    HW221597   4.251   0.351   7.745
 7089SOL     OW21598   4.788   1.347   8.788
 7089SOL    HW121599   4.708   1.324   8.843
 7089SOL    HW221600   4.871   1.321   8.837
 7090SOL     OW21601   4.835   1.195   8.548
 7090SOL    HW121602   4.795   1.239   8.629
 7090SOL    HW221603   4.794   1.232   8.465
 7091SOL     OW21604   4.639   0.089   8.850
 7091SOL    HW121605   4.664   0.069   8.755
 7091SOL    HW221606   4.711   0.145   8.892
 7092SOL     OW21607   4.704   1.116   9.167
 7092SOL    HW121608   4.605   1.122   9.177
 7092SOL    HW221609   4.727   1.036   9.111
 7093SOL     OW21610   4.429   1.050   7.816
 7093SOL    HW121611   4.415   1.057   7.915
 7093SOL    HW221612   4.513   0.999   7.798
 7094SOL     OW21613   4.134   0.813   8.699
 7094SOL    HW121614   4.220   0.825   8.749
 7094SOL    HW221615   4.092   0.726   8.726
 7095SOL     OW21616   3.788   1.564   8.779
 7095SOL    HW121617   3.742   1.646   8.745
 7095SOL    HW221618   3.886   1.583   8.788
 7096SOL     OW21619   4.091   1.100   7.949
 7096SOL    HW121620   4.084   1.183   7.893
 7096SOL    HW221621   4.095   1.020   7.889
 7097SOL     OW21622   4.290   0.537   8.313
 7097SOL    HW121623   4.302   0.603   8.239
 7097SOL    HW221624   4.336   0.571   8.396
 7098SOL     OW21625   4.976   1.348   7.836
 7098SOL    HW121626   5.026   1.425   7.876
 7098SOL    HW221627   4.881   1.350   7.868
 7099SOL     OW21628   4.078   1.510   8.777
 7099SOL    HW121629   4.057   1.466   8.690
 7099SOL    HW221630   4.175   1.536   8.780
 7100SOL     OW21631   4.126   0.751   9.046
 7100SOL    HW121632   4.194   0.806   8.999
 7100SOL    HW221633   4.166   0.663   9.073
 7101SOL     OW21634   4.737   0.105   9.218
 7101SOL    HW121635   4.743   0.190   9.166
 7101SOL    HW221636   4.769   0.029   9.161
 7102SOL     OW21637   4.228   0.050   9.188
 7102SOL    HW121638   4.186  -0.007   9.118
 7102SOL    HW221639   4.162   0.119   9.220
 7103SOL     OW21640   4.297   0.870   8.477
 7103SOL    HW121641   4.341   0.959   8.468
 7103SOL    HW221642   4.234   0.870   8.554
 7104SOL     OW21643   5.084   0.862   8.493
 7104SOL    HW121644   5.009   0.862   8.427
 7104SOL    HW221645   5.121   0.770   8.502
 7105SOL     OW21646   4.933   0.525   7.723
 7105SOL    HW121647   4.946   0.441   7.777
 7105SOL    HW221648   4.904   0.599   7.783
 7106SOL     OW21649   4.031   0.213   8.679
 7106SOL    HW121650   4.008   0.250   8.769
 7106SOL    HW221651   4.001   0.118   8.673
 7107SOL     OW21652   3.761   1.310   8.730
 7107SOL    HW121653   3.814   1.261   8.798
 7107SOL    HW221654   3.783   1.408   8.735
 7108SOL     OW21655   4.456   0.634   8.512
 7108SOL    HW121656   4.515   0.608   8.436
 7108SOL    HW221657   4.428   0.730   8.501
 7109SOL     OW21658   4.031   0.063   8.066
 7109SOL    HW121659   4.020   0.157   8.099
 7109SOL    HW221660   4.026   0.000   8.143
 7110SOL     OW21661   4.747   0.766   8.414
 7110SOL    HW121662   4.762   0.787   8.510
 7110SOL    HW221663   4.717   0.671   8.405
 7111SOL     OW21664   4.704   1.573   9.148
 7111SOL    HW121665   4.684   1.617   9.060
 7111SOL    HW221666   4.743   1.482   9.132
 7112SOL     OW21667   4.074   0.898   9.252
 7112SOL    HW121668   4.150   0.942   9.300
 7112SOL    HW221669   4.109   0.851   9.170
 7113SOL     OW21670   5.264   0.274   7.573
 7113SOL    HW121671   5.203   0.199   7.596
 7113SOL    HW221672   5.286   0.326   7.656
 7114SOL     OW21673   4.792   1.333   8.297
 7114SOL    HW121674   4.799   1.249   8.242
 7114SOL    HW221675   4.854   1.402   8.261
 7115SOL     OW21676   4.043   0.810   8.397
 7115SOL    HW121677   4.136   0.846   8.402
 7115SOL    HW221678   4.037   0.725   8.449
 7116SOL     OW21679   4.063   0.509   8.454
 7116SOL    HW121680   4.011   0.426   8.437
 7116SOL    HW221681   4.140   0.514   8.390
 7117SOL     OW21682   4.862   0.380   9.126
 7117SOL    HW121683   4.817   0.443   9.190
 7117SOL    HW221684   4.955   0.411   9.109
 7118SOL     OW21685   4.884   0.207   8.925
 7118SOL    HW121686   4.884   0.271   9.002
 7118SOL    HW221687   4.912   0.255   8.842
 7119SOL     OW21688   3.732   1.326   7.648
 7119SOL    HW121689   3.639   1.347   7.617
 7119SOL    HW221690   3.742   1.227   7.661
 7120SOL     OW21691   3.812   1.801   8.375
 7120SOL    HW121692   3.770   1.715   8.348
 7120SOL    HW221693   3.906   1.804   8.341
 7121SOL     OW21694   4.228   1.568   8.358
 7121SOL    HW121695   4.294   1.642   8.367
 7121SOL    HW221696   4.272   1.489   8.316
 7122SOL     OW21697   4.726   0.796   8.686
 7122SOL    HW121698   4.767   0.764   8.772
 7122SOL    HW221699   4.630   0.769   8.683
 7123SOL     OW21700   3.764   0.544   8.562
 7123SOL    HW121701   3.849   0.511   8.521
 7123SOL    HW221702   3.777   0.559   8.660
 7124SOL     OW21703   3.913   0.520   9.170
 7124SOL    HW121704   3.972   0.480   9.100
 7124SOL    HW221705   3.855   0.591   9.129
 7125SOL     OW21706   4.539   0.572   7.773
 7125SOL    HW121707   4.546   0.483   7.727
 7125SOL    HW221708   4.445   0.606   7.765
 7126SOL     OW21709   3.976   1.564   9.192
 7126SOL    HW121710   3.946   1.621   9.268
 7126SOL    HW221711   3.969   1.467   9.218
 7127SOL     OW21712   4.395   0.464   8.717
 7127SOL    HW121713   4.361   0.375   8.687
 7127SOL    HW221714   4.421   0.518   8.637
 7128SOL     OW21715   4.654   1.678   8.913
 7128SOL    HW121716   4.630   1.660   8.818
 7128SOL    HW221717   4.684   1.772   8.923
 7129SOL     OW21718   4.197   0.500   7.639
 7129SOL    HW121719   4.258   0.580   7.643
 7129SOL    HW221720   4.102   0.531   7.646
 7130SOL     OW21721   3.883   1.137   8.914
 7130SOL    HW121722   3.905   1.076   8.990
 7130SOL    HW221723   3.893   1.088   8.828
 7131SOL     OW21724   4.976   1.731   8.576
 7131SOL    HW121725   5.060   1.736   8.522
 7131SOL    HW221726   4.953   1.635   8.594
 7132SOL     OW21727   3.807   1.258   8.470
 7132SOL    HW121728   3.802   1.257   8.570
 7132SOL    HW221729   3.724   1.217   8.432
 7133SOL     OW21730   4.412   1.662   9.164
 7133SOL    HW121731   4.356   1.743   9.173
 7133SOL    HW221732   4.464   1.666   9.078
 7134SOL     OW21733   3.854   1.794   9.299
 7134SOL    HW121734   3.813   1.720   9.352
 7134SOL    HW221735   3.918   1.845   9.357
 7135SOL     OW21736   4.554   1.273   8.870
 7135SOL    HW121737   4.549   1.306   8.965
 7135SOL    HW221738   4.468   1.292   8.824
 7136SOL     OW21739   4.396   1.616   7.602
 7136SOL    HW121740   4.405   1.626   7.503
 7136SOL    HW221741   4.356   1.527   7.623
 7137SOL     OW21742   3.987   0.326   8.168
 7137SOL    HW121743   3.908   0.377   8.134
 7137SOL    HW221744   3.978   0.311   8.266
 7138SOL     OW21745   4.546   1.002   8.820
 7138SOL    HW121746   4.586   1.001   8.728
 7138SOL    HW221747   4.556   1.094   8.860
 7139SOL     OW21748   4.640   0.910   7.739
 7139SOL    HW121749   4.703   0.948   7.671
 7139SOL    HW221750   4.680   0.827   7.778
 7140SOL     OW21751   4.096   1.288   8.938
 7140SOL    HW121752   4.083   1.381   8.904
 7140SOL    HW221753   4.012   1.236   8.925
 7141SOL     OW21754   4.763   1.098   8.144
 7141SOL    HW121755   4.693   1.051   8.198
 7141SOL    HW221756   4.822   1.030   8.101
 7142SOL     OW21757   4.738   0.236   8.419
 7142SOL    HW121758   4.730   0.200   8.326
 7142SOL    HW221759   4.736   0.160   8.484
 7143SOL     OW21760   4.314   1.487   7.939
 7143SOL    HW121761   4.356   1.429   7.869
 7143SOL    HW221762   4.270   1.566   7.895
 7144SOL     OW21763   3.979   1.348   7.738
 7144SOL    HW121764   3.883   1.349   7.711
 7144SOL    HW221765   3.991   1.401   7.822
 7145SOL     OW21766   3.829   1.013   9.174
 7145SOL    HW121767   3.752   0.980   9.228
 7145SOL    HW221768   3.914   0.983   9.216
 7146SOL     OW21769   4.396   0.203   8.937
 7146SOL    HW121770   4.486   0.187   8.897
 7146SOL    HW221771   4.404   0.208   9.036
 7147SOL     OW21772   3.799   0.345   7.481
 7147SOL    HW121773   3.707   0.317   7.452
 7147SOL    HW221774   3.830   0.422   7.425
 7148SOL     OW21775   3.796   0.166   7.766
 7148SOL    HW121776   3.779   0.249   7.712
 7148SOL    HW221777   3.886   0.129   7.744
 7149SOL     OW21778   4.337   0.842   8.879
 7149SOL    HW121779   4.393   0.923   8.862
 7149SOL    HW221780   4.396   0.762   8.882
 7150SOL     OW21781   4.440   0.565   9.156
 7150SOL    HW121782   4.459   0.630   9.230
 7150SOL    HW221783   4.500   0.485   9.165
 7151SOL     OW21784   4.114   1.741   9.008
 7151SOL    HW121785   4.023   1.782   9.006
 7151SOL    HW221786   4.107   1.647   9.040
 7152SOL     OW21787   4.318   0.745   8.100
 7152SOL    HW121788   4.368   0.830   8.081
 7152SOL    HW221789   4.230   0.747   8.052
 7153SOL     OW21790   4.583   1.374   7.464
 7153SOL    HW121791   4.537   1.389   7.552
 7153SOL    HW221792   4.627   1.459   7.434
 7154SOL     OW21793   4.385   1.790   8.401
 7154SOL    HW121794   4.339   1.878   8.388
 7154SOL    HW221795   4.484   1.802   8.394
 7155SOL     OW21796   4.583   0.956   8.309
 7155SOL    HW121797   4.637   0.887   8.357
 7155SOL    HW221798   4.551   1.025   8.375
 7156SOL     OW21799   4.807   0.984   7.535
 7156SOL    HW121800   4.784   1.037   7.453
 7156SOL    HW221801   4.888   0.928   7.516
 7157SOL     OW21802   3.945   1.314   9.292
 7157SOL    HW121803   3.880   1.241   9.271
 7157SOL    HW221804   3.949   1.328   9.390
 7158SOL     OW21805   3.803   1.240   8.101
 7158SOL    HW121806   3.802   1.193   8.189
 7158SOL    HW221807   3.885   1.212   8.050
 7159SOL     OW21808   4.396   1.391   9.072
 7159SOL    HW121809   4.318   1.341   9.110
 7159SOL    HW221810   4.393   1.486   9.103
 7160SOL     OW21811   4.152   0.424   7.968
 7160SOL    HW121812   4.182   0.352   7.906
 7160SOL    HW221813   4.113   0.384   8.051
 7161SOL     OW21814   4.041   0.547   8.728
 7161SOL    HW121815   4.079   0.488   8.800
 7161SOL    HW221816   4.081   0.521   8.640
 7162SOL     OW21817   4.536   1.586   8.135
 7162SOL    HW121818   4.568   1.596   8.041
 7162SOL    HW221819   4.457   1.524   8.137
 7163SOL     OW21820   4.725   0.034   8.602
 7163SOL    HW121821   4.662  -0.038   8.571
 7163SOL    HW221822   4.818  -0.002   8.602
 7164SOL     OW21823   4.494   1.330   7.749
 7164SOL    HW121824   4.448   1.243   7.766
 7164SOL    HW221825   4.585   1.327   7.790
 7165SOL     OW21826   4.342   1.567   8.732
 7165SOL    HW121827   4.337   1.649   8.789
 7165SOL    HW221828   4.431   1.564   8.687
 7166SOL     OW21829   3.763   1.077   7.748
 7166SOL    HW121830   3.862   1.066   7.739
 7166SOL    HW221831   3.723   0.991   7.780
 7167SOL     OW21832   4.599   1.646   7.785
 7167SOL    HW121833   4.522   1.611   7.731
 7167SOL    HW221834   4.567   1.717   7.847
 7168SOL     OW21835   3.954   0.628   9.423
 7168SOL    HW121836   3.861   0.626   9.460
 7168SOL    HW221837   3.955   0.589   9.331
 7169SOL     OW21838   3.949   0.275  10.306
 7169SOL    HW121839   3.984   0.258  10.398
 7169SOL    HW221840   3.861   0.230  10.294
 7170SOL     OW21841   3.743   0.368   9.957
 7170SOL    HW121842   3.661   0.411   9.996
 7170SOL    HW221843   3.715   0.295   9.894
 7171SOL     OW21844   4.293   1.275  10.475
 7171SOL    HW121845   4.200   1.268  10.438
 7171SOL    HW221846   4.304   1.364  10.519
 7172SOL     OW21847   4.859   0.703  10.027
 7172SOL    HW121848   4.916   0.781  10.002
 7172SOL    HW221849   4.799   0.729  10.103
 7173SOL     OW21850   4.492   1.144  10.333
 7173SOL    HW121851   4.414   1.161  10.393
 7173SOL    HW221852   4.526   1.231  10.297
 7174SOL     OW21853   4.409   1.012   9.975
 7174SOL    HW121854   4.478   0.996  10.045
 7174SOL    HW221855   4.336   1.069  10.013
 7175SOL     OW21856   4.059   1.435  10.371
 7175SOL    HW121857   3.981   1.404  10.318
 7175SOL    HW221858   4.117   1.493  10.314
 7176SOL     OW21859   4.162   0.392  10.809
 7176SOL    HW121860   4.244   0.336  10.818
 7176SOL    HW221861   4.081   0.334  10.813
 7177SOL     OW21862   3.955   1.713   9.793
 7177SOL    HW121863   3.989   1.790   9.847
 7177SOL    HW221864   3.999   1.713   9.703
 7178SOL     OW21865   3.954   1.434   9.848
 7178SOL    HW121866   3.928   1.530   9.848
 7178SOL    HW221867   3.883   1.380   9.893
 7179SOL     OW21868   3.964   1.091  10.196
 7179SOL    HW121869   3.978   1.007  10.248
 7179SOL    HW221870   3.909   1.155  10.251
 7180SOL     OW21871   4.344   1.786  10.749
 7180SOL    HW121872   4.252   1.769  10.784
 7180SOL    HW221873   4.372   1.878  10.775
 7181SOL     OW21874   4.330   0.964   9.433
 7181SOL    HW121875   4.337   1.048   9.379
 7181SOL    HW221876   4.376   0.977   9.521
 7182SOL     OW21877   3.846   0.643   9.873
 7182SOL    HW121878   3.801   0.555   9.890
 7182SOL    HW221879   3.845   0.697   9.957
 7183SOL     OW21880   3.751   1.596   9.427
 7183SOL    HW121881   3.732   1.500   9.448
 7183SOL    HW221882   3.718   1.654   9.502
 7184SOL     OW21883   4.337   1.365  10.036
 7184SOL    HW121884   4.288   1.278  10.045
 7184SOL    HW221885   4.314   1.408   9.949
 7185SOL     OW21886   4.533   0.004   9.812
 7185SOL    HW121887   4.573   0.095   9.803
 7185SOL    HW221888   4.433   0.012   9.818
 7186SOL     OW21889   3.921   0.976  10.574
 7186SOL    HW121890   4.010   0.931  10.560
 7186SOL    HW221891   3.848   0.911  10.555
 7187SOL     OW21892   4.322   0.729   9.580
 7187SOL    HW121893   4.346   0.798   9.512
 7187SOL    HW221894   4.244   0.762   9.634
 7188SOL     OW21895   4.531   0.605  10.775
 7188SOL    HW121896   4.484   0.602  10.864
 7188SOL    HW221897   4.480   0.550  10.709
 7189SOL     OW21898   4.715   0.410  10.552
 7189SOL    HW121899   4.638   0.444  10.606
 7189SOL    HW221900   4.681   0.359  10.473
 7190SOL     OW21901   4.765   0.701   9.739
 7190SOL    HW121902   4.791   0.697   9.835
 7190SOL    HW221903   4.680   0.650   9.725
 7191SOL     OW21904   3.800   0.811  10.099
 7191SOL    HW121905   3.899   0.799  10.108
 7191SOL    HW221906   3.776   0.906  10.120
 7192SOL     OW21907   3.854   1.821  10.881
 7192SOL    HW121908   3.844   1.806  10.980
 7192SOL    HW221909   3.768   1.857  10.845
 7193SOL     OW21910   4.589   0.348   9.505
 7193SOL    HW121911   4.648   0.411   9.456
 7193SOL    HW221912   4.608   0.254   9.476
 7194SOL     OW21913   4.274   0.196  10.195
 7194SOL    HW121914   4.269   0.191  10.295
 7194SOL    HW221915   4.276   0.292  10.166
 7195SOL     OW21916   4.732   1.456   9.787
 7195SOL    HW121917   4.686   1.528   9.735
 7195SOL    HW221918   4.728   1.476   9.885
 7196SOL     OW21919   4.075   1.801  10.163
 7196SOL    HW121920   4.125   1.715  10.169
 7196SOL    HW221921   4.140   1.878  10.160
 7197SOL     OW21922   4.045   0.943   9.552
 7197SOL    HW121923   4.127   0.982   9.510
 7197SOL    HW221924   4.018   0.861   9.503
 7198SOL     OW21925   4.835   1.776   9.547
 7198SOL    HW121926   4.775   1.714   9.597
 7198SOL    HW221927   4.866   1.732   9.462
 7199SOL     OW21928   4.188   1.743   9.633
 7199SOL    HW121929   4.221   1.782   9.719
 7199SOL    HW221930   4.264   1.736   9.568
 7200SOL     OW21931   3.973   1.785  10.551
 7200SOL    HW121932   4.030   1.720  10.601
 7200SOL    HW221933   3.957   1.752  10.458
 7201SOL     OW21934   4.664   1.698  10.214
 7201SOL    HW121935   4.744   1.641  10.235
 7201SOL    HW221936   4.615   1.658  10.137
 7202SOL     OW21937   4.106   0.700   9.790
 7202SOL    HW121938   4.151   0.610   9.787
 7202SOL    HW221939   4.012   0.689   9.823
 7203SOL     OW21940   4.338   0.122   9.427
 7203SOL    HW121941   4.436   0.100   9.434
 7203SOL    HW221942   4.307   0.105   9.334
 7204SOL     OW21943   4.612   1.514  10.505
 7204SOL    HW121944   4.589   1.489  10.411
 7204SOL    HW221945   4.673   1.445  10.544
 7205SOL     OW21946   4.527   1.402  10.234
 7205SOL    HW121947   4.617   1.416  10.192
 7205SOL    HW221948   4.456   1.404  10.163
 7206SOL     OW21949   4.646   0.503  10.209
 7206SOL    HW121950   4.621   0.494  10.113
 7206SOL    HW221951   4.694   0.421  10.240
 7207SOL     OW21952   4.263   0.064   9.822
 7207SOL    HW121953   4.182   0.065   9.880
 7207SOL    HW221954   4.266   0.147   9.767
 7208SOL     OW21955   4.021   0.035   9.481
 7208SOL    HW121956   4.070   0.119   9.460
 7208SOL    HW221957   4.083  -0.030   9.526
 7209SOL     OW21958   4.659   0.236   9.790
 7209SOL    HW121959   4.611   0.277   9.712
 7209SOL    HW221960   4.758   0.234   9.771
 7210SOL     OW21961   4.951   1.570  10.103
 7210SOL    HW121962   4.972   1.644  10.038
 7210SOL    HW221963   5.019   1.570  10.176
 7211SOL     OW21964   4.183   1.152  10.051
 7211SOL    HW121965   4.112   1.125  10.116
 7211SOL    HW221966   4.157   1.124   9.958
 7212SOL     OW21967   4.995   1.797   9.901
 7212SOL    HW121968   5.039   1.861   9.837
 7212SOL    HW221969   4.945   1.849   9.971
 7213SOL     OW21970   4.756   0.549   9.326
 7213SOL    HW121971   4.715   0.631   9.287
 7213SOL    HW221972   4.820   0.575   9.399
 7214SOL     OW21973   3.802   0.556  10.696
 7214SOL    HW121974   3.894   0.555  10.655
 7214SOL    HW221975   3.796   0.630  10.763
 7215SOL     OW21976   4.285   0.222  10.457
 7215SOL    HW121977   4.323   0.138  10.494
 7215SOL    HW221978   4.197   0.241  10.501
 7216SOL     OW21979   4.590   0.454   9.952
 7216SOL    HW121980   4.558   0.526   9.890
 7216SOL    HW221981   4.614   0.373   9.899
 7217SOL     OW21982   4.741   0.039  10.063
 7217SOL    HW121983   4.669   0.044   9.994
 7217SOL    HW221984   4.717  -0.030  10.132
 7218SOL     OW21985   4.212   1.385   9.484
 7218SOL    HW121986   4.125   1.370   9.531
 7218SOL    HW221987   4.195   1.411   9.389
 7219SOL     OW21988   4.251   0.256   9.638
 7219SOL    HW121989   4.278   0.197   9.563
 7219SOL    HW221990   4.251   0.351   9.607
 7220SOL     OW21991   4.788   1.347  10.650
 7220SOL    HW121992   4.708   1.324  10.705
 7220SOL    HW221993   4.871   1.321  10.699
 7221SOL     OW21994   4.835   1.195  10.410
 7221SOL    HW121995   4.795   1.239  10.491
 7221SOL    HW221996   4.794   1.232  10.327
 7222SOL     OW21997   4.429   1.050   9.678
 7222SOL    HW121998   4.415   1.057   9.777
 7222SOL    HW221999   4.513   0.999   9.660
 7223SOL     OW22000   4.134   0.813  10.561
 7223SOL    HW122001   4.220   0.825  10.611
 7223SOL    HW222002   4.092   0.726  10.588
 7224SOL     OW22003   3.788   1.564  10.641
 7224SOL    HW122004   3.742   1.646  10.607
 7224SOL    HW222005   3.886   1.583  10.650
 7225SOL     OW22006   4.091   1.100   9.811
 7225SOL    HW122007   4.084   1.183   9.755
 7225SOL    HW222008   4.095   1.020   9.751
 7226SOL     OW22009   4.290   0.537  10.175
 7226SOL    HW122010   4.302   0.603  10.101
 7226SOL    HW222011   4.336   0.571  10.258
 7227SOL     OW22012   4.976   1.348   9.698
 7227SOL    HW122013   5.026   1.425   9.738
 7227SOL    HW222014   4.881   1.350   9.730
 7228SOL     OW22015   4.078   1.510  10.639
 7228SOL    HW122016   4.057   1.466  10.552
 7228SOL    HW222017   4.175   1.536  10.642
 7229SOL     OW22018   4.126   0.751  10.908
 7229SOL    HW122019   4.194   0.806  10.861
 7229SOL    HW222020   4.166   0.663  10.935
 7230SOL     OW22021   4.297   0.870  10.339
 7230SOL    HW122022   4.341   0.959  10.330
 7230SOL    HW222023   4.234   0.870  10.416
 7231SOL     OW22024   5.084   0.862  10.355
 7231SOL    HW122025   5.009   0.862  10.289
 7231SOL    HW222026   5.121   0.770  10.364
 7232SOL     OW22027   4.933   0.525   9.585
 7232SOL    HW122028   4.946   0.441   9.639
 7232SOL    HW222029   4.904   0.599   9.645
 7233SOL     OW22030   4.031   0.213  10.541
 7233SOL    HW122031   4.008   0.250  10.631
 7233SOL    HW222032   4.001   0.118  10.535
 7234SOL     OW22033   3.761   1.310  10.592
 7234SOL    HW122034   3.814   1.261  10.660
 7234SOL    HW222035   3.783   1.408  10.597
 7235SOL     OW22036   4.456   0.634  10.374
 7235SOL    HW122037   4.515   0.608  10.298
 7235SOL    HW222038   4.428   0.730  10.363
 7236SOL     OW22039   4.031   0.063   9.928
 7236SOL    HW122040   4.020   0.157   9.961
 7236SOL    HW222041   4.026   0.000  10.005
 7237SOL     OW22042   4.747   0.766  10.276
 7237SOL    HW122043   4.762   0.787  10.372
 7237SOL    HW222044   4.717   0.671  10.267
 7238SOL     OW22045   4.704   1.573  11.010
 7238SOL    HW122046   4.684   1.617  10.922
 7238SOL    HW222047   4.743   1.482  10.994
 7239SOL     OW22048   5.264   0.274   9.435
 7239SOL    HW122049   5.203   0.199   9.458
 7239SOL    HW222050   5.286   0.326   9.518
 7240SOL     OW22051   4.792   1.333  10.159
 7240SOL    HW122052   4.799   1.249  10.104
 7240SOL    HW222053   4.854   1.402  10.123
 7241SOL     OW22054   4.043   0.810  10.259
 7241SOL    HW122055   4.136   0.846  10.264
 7241SOL    HW222056   4.037   0.725  10.311
 7242SOL     OW22057   4.063   0.509  10.316
 7242SOL    HW122058   4.011   0.426  10.299
 7242SOL    HW222059   4.140   0.514  10.252
 7243SOL     OW22060   3.732   1.326   9.510
 7243SOL    HW122061   3.639   1.347   9.479
 7243SOL    HW222062   3.742   1.227   9.523
 7244SOL     OW22063   3.812   1.801  10.237
 7244SOL    HW122064   3.770   1.715  10.210
 7244SOL    HW222065   3.906   1.804  10.203
 7245SOL     OW22066   4.228   1.568  10.220
 7245SOL    HW122067   4.294   1.642  10.229
 7245SOL    HW222068   4.272   1.489  10.178
 7246SOL     OW22069   4.726   0.796  10.548
 7246SOL    HW122070   4.767   0.764  10.634
 7246SOL    HW222071   4.630   0.769  10.545
 7247SOL     OW22072   3.764   0.544  10.424
 7247SOL    HW122073   3.849   0.511  10.383
 7247SOL    HW222074   3.777   0.559  10.522
 7248SOL     OW22075   4.539   0.572   9.635
 7248SOL    HW122076   4.546   0.483   9.589
 7248SOL    HW222077   4.445   0.606   9.627
 7249SOL     OW22078   4.395   0.464  10.579
 7249SOL    HW122079   4.361   0.375  10.549
 7249SOL    HW222080   4.421   0.518  10.499
 7250SOL     OW22081   4.654   1.678  10.775
 7250SOL    HW122082   4.630   1.660  10.680
 7250SOL    HW222083   4.684   1.772  10.785
 7251SOL     OW22084   4.197   0.500   9.501
 7251SOL    HW122085   4.258   0.580   9.505
 7251SOL    HW222086   4.102   0.531   9.508
 7252SOL     OW22087   3.883   1.137  10.776
 7252SOL    HW122088   3.905   1.076  10.852
 7252SOL    HW222089   3.893   1.088  10.690
 7253SOL     OW22090   4.976   1.731  10.438
 7253SOL    HW122091   5.060   1.736  10.384
 7253SOL    HW222092   4.953   1.635  10.456
 7254SOL     OW22093   3.807   1.258  10.332
 7254SOL    HW122094   3.802   1.257  10.432
 7254SOL    HW222095   3.724   1.217  10.294
 7255SOL     OW22096   4.396   1.616   9.464
 7255SOL    HW122097   4.405   1.626   9.365
 7255SOL    HW222098   4.356   1.527   9.485
 7256SOL     OW22099   3.987   0.326  10.030
 7256SOL    HW122100   3.908   0.377   9.996
 7256SOL    HW222101   3.978   0.311  10.128
 7257SOL     OW22102   4.546   1.002  10.682
 7257SOL    HW122103   4.586   1.001  10.590
 7257SOL    HW222104   4.556   1.094  10.722
 7258SOL     OW22105   4.640   0.910   9.601
 7258SOL    HW122106   4.703   0.948   9.533
 7258SOL    HW222107   4.680   0.827   9.640
 7259SOL     OW22108   4.096   1.288  10.800
 7259SOL    HW122109   4.083   1.381  10.766
 7259SOL    HW222110   4.012   1.236  10.787
 7260SOL     OW22111   4.763   1.098  10.006
 7260SOL    HW122112   4.693   1.051  10.060
 7260SOL    HW222113   4.822   1.030   9.963
 7261SOL     OW22114   4.738   0.236  10.281
 7261SOL    HW122115   4.730   0.200  10.188
 7261SOL    HW222116   4.736   0.160  10.346
 7262SOL     OW22117   4.314   1.487   9.801
 7262SOL    HW122118   4.356   1.429   9.731
 7262SOL    HW222119   4.270   1.566   9.757
 7263SOL     OW22120   3.979   1.348   9.600
 7263SOL    HW122121   3.883   1.349   9.573
 7263SOL    HW222122   3.991   1.401   9.684
 7264SOL     OW22123   3.799   0.345   9.343
 7264SOL    HW122124   3.707   0.317   9.314
 7264SOL    HW222125   3.830   0.422   9.287
 7265SOL     OW22126   3.796   0.166   9.628
 7265SOL    HW122127   3.779   0.249   9.574
 7265SOL    HW222128   3.886   0.129   9.606
 7266SOL     OW22129   4.337   0.842  10.741
 7266SOL    HW122130   4.393   0.923  10.724
 7266SOL    HW222131   4.396   0.762  10.744
 7267SOL     OW22132   4.114   1.741  10.870
 7267SOL    HW122133   4.023   1.782  10.868
 7267SOL    HW222134   4.107   1.647  10.902
 7268SOL     OW22135   4.318   0.745   9.962
 7268SOL    HW122136   4.368   0.830   9.943
 7268SOL    HW222137   4.230   0.747   9.914
 7269SOL     OW22138   4.583   1.374   9.326
 7269SOL    HW122139   4.537   1.389   9.414
 7269SOL    HW222140   4.627   1.459   9.296
 7270SOL     OW22141   4.385   1.790  10.263
 7270SOL    HW122142   4.339   1.878  10.250
 7270SOL    HW222143   4.484   1.802  10.256
 7271SOL     OW22144   4.583   0.956  10.171
 7271SOL    HW122145   4.637   0.887  10.219
 7271SOL    HW222146   4.551   1.025  10.237
 7272SOL     OW22147   4.807   0.984   9.397
 7272SOL    HW122148   4.784   1.037   9.315
 7272SOL    HW222149   4.888   0.928   9.378
 7273SOL     OW22150   3.803   1.240   9.963
 7273SOL    HW122151   3.802   1.193  10.051
 7273SOL    HW222152   3.885   1.212   9.912
 7274SOL     OW22153   4.152   0.424   9.830
 7274SOL    HW122154   4.182   0.352   9.768
 7274SOL    HW222155   4.113   0.384   9.913
 7275SOL     OW22156   4.041   0.547  10.590
 7275SOL    HW122157   4.079   0.488  10.662
 7275SOL    HW222158   4.081   0.521  10.502
 7276SOL     OW22159   4.536   1.586   9.997
 7276SOL    HW122160   4.568   1.596   9.903
 7276SOL    HW222161   4.457   1.524   9.999
 7277SOL     OW22162   4.725   0.034  10.464
 7277SOL    HW122163   4.662  -0.038  10.433
 7277SOL    HW222164   4.818  -0.002  10.464
 7278SOL     OW22165   4.494   1.330   9.611
 7278SOL    HW122166   4.448   1.243   9.628
 7278SOL    HW222167   4.585   1.327   9.652
 7279SOL     OW22168   4.342   1.567  10.594
 7279SOL    HW122169   4.337   1.649  10.651
 7279SOL    HW222170   4.431   1.564  10.549
 7280SOL     OW22171   3.763   1.077   9.610
 7280SOL    HW122172   3.862   1.066   9.601
 7280SOL    HW222173   3.723   0.991   9.642
 7281SOL     OW22174   4.599   1.646   9.647
 7281SOL    HW122175   4.522   1.611   9.593
 7281SOL    HW222176   4.567   1.717   9.709
 7282SOL     OW22177   3.954   2.490   0.113
 7282SOL    HW122178   3.861   2.488   0.150
 7282SOL    HW222179   3.955   2.451   0.021
 7283SOL     OW22180   3.949   2.137   0.996
 7283SOL    HW122181   3.984   2.120   1.088
 7283SOL    HW222182   3.861   2.092   0.984
 7284SOL     OW22183   3.743   2.230   0.647
 7284SOL    HW122184   3.661   2.273   0.686
 7284SOL    HW222185   3.715   2.157   0.584
 7285SOL     OW22186   4.293   3.137   1.165
 7285SOL    HW122187   4.200   3.130   1.128
 7285SOL    HW222188   4.304   3.226   1.209
 7286SOL     OW22189   4.859   2.565   0.717
 7286SOL    HW122190   4.916   2.643   0.692
 7286SOL    HW222191   4.799   2.591   0.793
 7287SOL     OW22192   4.492   3.006   1.023
 7287SOL    HW122193   4.414   3.023   1.083
 7287SOL    HW222194   4.526   3.093   0.987
 7288SOL     OW22195   4.574   2.660   1.823
 7288SOL    HW122196   4.570   2.736   1.888
 7288SOL    HW222197   4.596   2.696   1.732
 7289SOL     OW22198   4.409   2.874   0.665
 7289SOL    HW122199   4.478   2.858   0.735
 7289SOL    HW222200   4.336   2.931   0.703
 7290SOL     OW22201   4.410   3.023   1.803
 7290SOL    HW122202   4.470   3.102   1.817
 7290SOL    HW222203   4.324   3.054   1.762
 7291SOL     OW22204   4.059   3.297   1.061
 7291SOL    HW122205   3.981   3.266   1.008
 7291SOL    HW222206   4.117   3.355   1.004
 7292SOL     OW22207   4.162   2.254   1.499
 7292SOL    HW122208   4.244   2.198   1.508
 7292SOL    HW222209   4.081   2.196   1.503
 7293SOL     OW22210   3.955   3.575   0.483
 7293SOL    HW122211   3.989   3.652   0.537
 7293SOL    HW222212   3.999   3.575   0.393
 7294SOL     OW22213   4.851   3.203   1.690
 7294SOL    HW122214   4.898   3.203   1.778
 7294SOL    HW222215   4.803   3.116   1.679
 7295SOL     OW22216   3.954   3.296   0.538
 7295SOL    HW122217   3.928   3.392   0.538
 7295SOL    HW222218   3.883   3.242   0.583
 7296SOL     OW22219   3.964   2.953   0.886
 7296SOL    HW122220   3.978   2.869   0.938
 7296SOL    HW222221   3.909   3.017   0.941
 7297SOL     OW22222   4.344   3.648   1.439
 7297SOL    HW122223   4.252   3.631   1.474
 7297SOL    HW222224   4.372   3.740   1.465
 7298SOL     OW22225   4.330   2.826   0.123
 7298SOL    HW122226   4.337   2.910   0.069
 7298SOL    HW222227   4.376   2.839   0.211
 7299SOL     OW22228   3.846   2.505   0.563
 7299SOL    HW122229   3.801   2.417   0.580
 7299SOL    HW222230   3.845   2.559   0.647
 7300SOL     OW22231   3.751   3.458   0.117
 7300SOL    HW122232   3.732   3.362   0.138
 7300SOL    HW222233   3.718   3.516   0.192
 7301SOL     OW22234   3.837   2.599   1.597
 7301SOL    HW122235   3.925   2.586   1.642
 7301SOL    HW222236   3.824   2.696   1.575
 7302SOL     OW22237   4.337   3.227   0.726
 7302SOL    HW122238   4.288   3.140   0.735
 7302SOL    HW222239   4.314   3.270   0.639
 7303SOL     OW22240   4.533   1.866   0.502
 7303SOL    HW122241   4.573   1.957   0.493
 7303SOL    HW222242   4.433   1.874   0.508
 7304SOL     OW22243   3.921   2.838   1.264
 7304SOL    HW122244   4.010   2.793   1.250
 7304SOL    HW222245   3.848   2.773   1.245
 7305SOL     OW22246   4.041   2.113   1.801
 7305SOL    HW122247   4.112   2.184   1.807
 7305SOL    HW222248   3.953   2.152   1.829
 7306SOL     OW22249   4.322   2.591   0.270
 7306SOL    HW122250   4.346   2.660   0.202
 7306SOL    HW222251   4.244   2.624   0.324
 7307SOL     OW22252   4.531   2.467   1.465
 7307SOL    HW122253   4.484   2.464   1.554
 7307SOL    HW222254   4.480   2.412   1.399
 7308SOL     OW22255   4.697   2.752   1.572
 7308SOL    HW122256   4.743   2.668   1.543
 7308SOL    HW222257   4.641   2.786   1.497
 7309SOL     OW22258   4.715   2.272   1.242
 7309SOL    HW122259   4.638   2.306   1.296
 7309SOL    HW222260   4.681   2.221   1.163
 7310SOL     OW22261   4.765   2.563   0.429
 7310SOL    HW122262   4.791   2.559   0.525
 7310SOL    HW222263   4.680   2.512   0.415
 7311SOL     OW22264   3.800   2.673   0.789
 7311SOL    HW122265   3.899   2.661   0.798
 7311SOL    HW222266   3.776   2.768   0.810
 7312SOL     OW22267   3.854   3.683   1.571
 7312SOL    HW122268   3.844   3.668   1.670
 7312SOL    HW222269   3.768   3.719   1.535
 7313SOL     OW22270   4.589   2.210   0.195
 7313SOL    HW122271   4.648   2.273   0.146
 7313SOL    HW222272   4.608   2.116   0.166
 7314SOL     OW22273   4.274   2.058   0.885
 7314SOL    HW122274   4.269   2.053   0.985
 7314SOL    HW222275   4.276   2.154   0.856
 7315SOL     OW22276   4.732   3.318   0.477
 7315SOL    HW122277   4.686   3.390   0.425
 7315SOL    HW222278   4.728   3.338   0.575
 7316SOL     OW22279   4.075   3.663   0.853
 7316SOL    HW122280   4.125   3.577   0.859
 7316SOL    HW222281   4.140   3.740   0.850
 7317SOL     OW22282   4.951   3.412   1.506
 7317SOL    HW122283   4.957   3.335   1.570
 7317SOL    HW222284   4.899   3.386   1.426
 7318SOL     OW22285   4.045   2.805   0.242
 7318SOL    HW122286   4.127   2.844   0.200
 7318SOL    HW222287   4.018   2.723   0.193
 7319SOL     OW22288   4.185   3.128   1.727
 7319SOL    HW122289   4.135   3.129   1.641
 7319SOL    HW222290   4.122   3.110   1.803
 7320SOL     OW22291   4.835   3.638   0.237
 7320SOL    HW122292   4.775   3.576   0.287
 7320SOL    HW222293   4.866   3.594   0.152
 7321SOL     OW22294   3.926   2.147   1.498
 7321SOL    HW122295   3.846   2.207   1.485
 7321SOL    HW222296   3.916   2.098   1.584
 7322SOL     OW22297   4.188   3.605   0.323
 7322SOL    HW122298   4.221   3.644   0.409
 7322SOL    HW222299   4.264   3.598   0.258
 7323SOL     OW22300   3.973   3.647   1.241
 7323SOL    HW122301   4.030   3.582   1.291
 7323SOL    HW222302   3.957   3.614   1.148
 7324SOL     OW22303   4.664   3.560   0.904
 7324SOL    HW122304   4.744   3.503   0.925
 7324SOL    HW222305   4.615   3.520   0.827
 7325SOL     OW22306   4.106   2.562   0.480
 7325SOL    HW122307   4.151   2.472   0.477
 7325SOL    HW222308   4.012   2.551   0.513
 7326SOL     OW22309   4.505   2.126   1.749
 7326SOL    HW122310   4.572   2.065   1.792
 7326SOL    HW222311   4.432   2.145   1.814
 7327SOL     OW22312   4.612   3.376   1.195
 7327SOL    HW122313   4.589   3.351   1.101
 7327SOL    HW222314   4.673   3.307   1.234
 7328SOL     OW22315   4.527   3.264   0.924
 7328SOL    HW122316   4.617   3.278   0.882
 7328SOL    HW222317   4.456   3.266   0.853
 7329SOL     OW22318   4.646   2.365   0.899
 7329SOL    HW122319   4.621   2.356   0.803
 7329SOL    HW222320   4.694   2.283   0.930
 7330SOL     OW22321   4.263   1.926   0.512
 7330SOL    HW122322   4.182   1.927   0.570
 7330SOL    HW222323   4.266   2.009   0.457
 7331SOL     OW22324   4.021   1.897   0.171
 7331SOL    HW122325   4.070   1.981   0.150
 7331SOL    HW222326   4.083   1.832   0.216
 7332SOL     OW22327   4.659   2.098   0.480
 7332SOL    HW122328   4.611   2.139   0.402
 7332SOL    HW222329   4.758   2.096   0.461
 7333SOL     OW22330   4.800   2.545   1.464
 7333SOL    HW122331   4.720   2.484   1.467
 7333SOL    HW222332   4.881   2.492   1.440
 7334SOL     OW22333   4.951   3.432   0.793
 7334SOL    HW122334   4.972   3.506   0.728
 7334SOL    HW222335   5.019   3.432   0.866
 7335SOL     OW22336   4.183   3.014   0.741
 7335SOL    HW122337   4.112   2.987   0.806
 7335SOL    HW222338   4.157   2.986   0.648
 7336SOL     OW22339   4.995   3.659   0.591
 7336SOL    HW122340   5.039   3.723   0.527
 7336SOL    HW222341   4.945   3.711   0.661
 7337SOL     OW22342   4.756   2.411   0.016
 7337SOL    HW122343   4.715   2.493  -0.023
 7337SOL    HW222344   4.820   2.437   0.089
 7338SOL     OW22345   3.802   2.418   1.386
 7338SOL    HW122346   3.894   2.417   1.345
 7338SOL    HW222347   3.796   2.492   1.453
 7339SOL     OW22348   4.285   2.084   1.147
 7339SOL    HW122349   4.323   2.000   1.184
 7339SOL    HW222350   4.197   2.103   1.191
 7340SOL     OW22351   4.590   2.316   0.642
 7340SOL    HW122352   4.558   2.388   0.580
 7340SOL    HW222353   4.614   2.235   0.589
 7341SOL     OW22354   4.741   1.901   0.753
 7341SOL    HW122355   4.669   1.906   0.684
 7341SOL    HW222356   4.717   1.832   0.822
 7342SOL     OW22357   4.212   3.247   0.174
 7342SOL    HW122358   4.125   3.232   0.221
 7342SOL    HW222359   4.195   3.273   0.079
 7343SOL     OW22360   4.251   2.118   0.328
 7343SOL    HW122361   4.278   2.059   0.253
 7343SOL    HW222362   4.251   2.213   0.297
 7344SOL     OW22363   4.788   3.209   1.340
 7344SOL    HW122364   4.708   3.186   1.395
 7344SOL    HW222365   4.871   3.183   1.389
 7345SOL     OW22366   4.835   3.057   1.100
 7345SOL    HW122367   4.795   3.101   1.181
 7345SOL    HW222368   4.794   3.094   1.017
 7346SOL     OW22369   4.639   1.951   1.402
 7346SOL    HW122370   4.664   1.931   1.307
 7346SOL    HW222371   4.711   2.007   1.444
 7347SOL     OW22372   4.704   2.978   1.719
 7347SOL    HW122373   4.605   2.984   1.729
 7347SOL    HW222374   4.727   2.898   1.663
 7348SOL     OW22375   4.429   2.912   0.368
 7348SOL    HW122376   4.415   2.919   0.467
 7348SOL    HW222377   4.513   2.861   0.350
 7349SOL     OW22378   4.134   2.675   1.251
 7349SOL    HW122379   4.220   2.687   1.301
 7349SOL    HW222380   4.092   2.588   1.278
 7350SOL     OW22381   3.788   3.426   1.331
 7350SOL    HW122382   3.742   3.508   1.297
 7350SOL    HW222383   3.886   3.445   1.340
 7351SOL     OW22384   4.091   2.962   0.501
 7351SOL    HW122385   4.084   3.045   0.445
 7351SOL    HW222386   4.095   2.882   0.441
 7352SOL     OW22387   4.290   2.399   0.865
 7352SOL    HW122388   4.302   2.465   0.791
 7352SOL    HW222389   4.336   2.433   0.948
 7353SOL     OW22390   4.976   3.210   0.388
 7353SOL    HW122391   5.026   3.287   0.428
 7353SOL    HW222392   4.881   3.212   0.420
 7354SOL     OW22393   4.078   3.372   1.329
 7354SOL    HW122394   4.057   3.328   1.242
 7354SOL    HW222395   4.175   3.398   1.332
 7355SOL     OW22396   4.126   2.613   1.598
 7355SOL    HW122397   4.194   2.668   1.551
 7355SOL    HW222398   4.166   2.525   1.625
 7356SOL     OW22399   4.737   1.967   1.770
 7356SOL    HW122400   4.743   2.052   1.718
 7356SOL    HW222401   4.769   1.891   1.713
 7357SOL     OW22402   4.228   1.912   1.740
 7357SOL    HW122403   4.186   1.855   1.670
 7357SOL    HW222404   4.162   1.981   1.772
 7358SOL     OW22405   4.297   2.732   1.029
 7358SOL    HW122406   4.341   2.821   1.020
 7358SOL    HW222407   4.234   2.732   1.106
 7359SOL     OW22408   5.084   2.724   1.045
 7359SOL    HW122409   5.009   2.724   0.979
 7359SOL    HW222410   5.121   2.632   1.054
 7360SOL     OW22411   4.933   2.387   0.275
 7360SOL    HW122412   4.946   2.303   0.329
 7360SOL    HW222413   4.904   2.461   0.335
 7361SOL     OW22414   4.031   2.075   1.231
 7361SOL    HW122415   4.008   2.112   1.321
 7361SOL    HW222416   4.001   1.980   1.225
 7362SOL     OW22417   3.761   3.172   1.282
 7362SOL    HW122418   3.814   3.123   1.350
 7362SOL    HW222419   3.783   3.270   1.287
 7363SOL     OW22420   4.456   2.496   1.064
 7363SOL    HW122421   4.515   2.470   0.988
 7363SOL    HW222422   4.428   2.592   1.053
 7364SOL     OW22423   4.031   1.925   0.618
 7364SOL    HW122424   4.020   2.019   0.651
 7364SOL    HW222425   4.026   1.862   0.695
 7365SOL     OW22426   4.747   2.628   0.966
 7365SOL    HW122427   4.762   2.649   1.062
 7365SOL    HW222428   4.717   2.533   0.957
 7366SOL     OW22429   4.704   3.435   1.700
 7366SOL    HW122430   4.684   3.479   1.612
 7366SOL    HW222431   4.743   3.344   1.684
 7367SOL     OW22432   4.074   2.760   1.804
 7367SOL    HW122433   4.150   2.804   1.852
 7367SOL    HW222434   4.109   2.713   1.722
 7368SOL     OW22435   5.264   2.136   0.125
 7368SOL    HW122436   5.203   2.061   0.148
 7368SOL    HW222437   5.286   2.188   0.208
 7369SOL     OW22438   5.027   2.700   0.042
 7369SOL    HW122439   5.061   2.607   0.057
 7369SOL    HW222440   5.045   2.727  -0.053
 7370SOL     OW22441   4.792   3.195   0.849
 7370SOL    HW122442   4.799   3.111   0.794
 7370SOL    HW222443   4.854   3.264   0.813
 7371SOL     OW22444   4.043   2.672   0.949
 7371SOL    HW122445   4.136   2.708   0.954
 7371SOL    HW222446   4.037   2.587   1.001
 7372SOL     OW22447   4.063   2.371   1.006
 7372SOL    HW122448   4.011   2.288   0.989
 7372SOL    HW222449   4.140   2.376   0.942
 7373SOL     OW22450   4.862   2.242   1.678
 7373SOL    HW122451   4.817   2.305   1.742
 7373SOL    HW222452   4.955   2.273   1.661
 7374SOL     OW22453   4.884   2.069   1.477
 7374SOL    HW122454   4.884   2.133   1.554
 7374SOL    HW222455   4.912   2.117   1.394
 7375SOL     OW22456   3.732   3.188   0.200
 7375SOL    HW122457   3.639   3.209   0.169
 7375SOL    HW222458   3.742   3.089   0.213
 7376SOL     OW22459   3.812   3.663   0.927
 7376SOL    HW122460   3.770   3.577   0.900
 7376SOL    HW222461   3.906   3.666   0.893
 7377SOL     OW22462   4.228   3.430   0.910
 7377SOL    HW122463   4.294   3.504   0.919
 7377SOL    HW222464   4.272   3.351   0.868
 7378SOL     OW22465   4.726   2.658   1.238
 7378SOL    HW122466   4.767   2.626   1.324
 7378SOL    HW222467   4.630   2.631   1.235
 7379SOL     OW22468   3.764   2.406   1.114
 7379SOL    HW122469   3.849   2.373   1.073
 7379SOL    HW222470   3.777   2.421   1.212
 7380SOL     OW22471   3.913   2.382   1.722
 7380SOL    HW122472   3.972   2.342   1.652
 7380SOL    HW222473   3.855   2.453   1.681
 7381SOL     OW22474   4.539   2.434   0.325
 7381SOL    HW122475   4.546   2.345   0.279
 7381SOL    HW222476   4.445   2.468   0.317
 7382SOL     OW22477   3.976   3.426   1.744
 7382SOL    HW122478   3.946   3.483   1.820
 7382SOL    HW222479   3.969   3.329   1.770
 7383SOL     OW22480   4.395   2.326   1.269
 7383SOL    HW122481   4.361   2.237   1.239
 7383SOL    HW222482   4.421   2.380   1.189
 7384SOL     OW22483   4.654   3.540   1.465
 7384SOL    HW122484   4.630   3.522   1.370
 7384SOL    HW222485   4.684   3.634   1.475
 7385SOL     OW22486   4.197   2.362   0.191
 7385SOL    HW122487   4.258   2.442   0.195
 7385SOL    HW222488   4.102   2.393   0.198
 7386SOL     OW22489   3.883   2.999   1.466
 7386SOL    HW122490   3.905   2.938   1.542
 7386SOL    HW222491   3.893   2.950   1.380
 7387SOL     OW22492   4.976   3.593   1.128
 7387SOL    HW122493   5.060   3.598   1.074
 7387SOL    HW222494   4.953   3.497   1.146
 7388SOL     OW22495   3.807   3.120   1.022
 7388SOL    HW122496   3.802   3.119   1.122
 7388SOL    HW222497   3.724   3.079   0.984
 7389SOL     OW22498   4.412   3.524   1.716
 7389SOL    HW122499   4.356   3.605   1.725
 7389SOL    HW222500   4.464   3.528   1.630
 7390SOL     OW22501   4.627   1.948   0.133
 7390SOL    HW122502   4.678   1.949   0.047
 7390SOL    HW222503   4.683   1.906   0.204
 7391SOL     OW22504   3.854   3.656   1.851
 7391SOL    HW122505   3.813   3.582   1.904
 7391SOL    HW222506   3.918   3.707   1.909
 7392SOL     OW22507   4.554   3.135   1.422
 7392SOL    HW122508   4.549   3.168   1.517
 7392SOL    HW222509   4.468   3.154   1.376
 7393SOL     OW22510   4.396   3.478   0.154
 7393SOL    HW122511   4.405   3.488   0.055
 7393SOL    HW222512   4.356   3.389   0.175
 7394SOL     OW22513   3.987   2.188   0.720
 7394SOL    HW122514   3.908   2.239   0.686
 7394SOL    HW222515   3.978   2.173   0.818
 7395SOL     OW22516   4.546   2.864   1.372
 7395SOL    HW122517   4.586   2.863   1.280
 7395SOL    HW222518   4.556   2.956   1.412
 7396SOL     OW22519   4.640   2.772   0.291
 7396SOL    HW122520   4.703   2.810   0.223
 7396SOL    HW222521   4.680   2.689   0.330
 7397SOL     OW22522   4.096   3.150   1.490
 7397SOL    HW122523   4.083   3.243   1.456
 7397SOL    HW222524   4.012   3.098   1.477
 7398SOL     OW22525   4.763   2.960   0.696
 7398SOL    HW122526   4.693   2.913   0.750
 7398SOL    HW222527   4.822   2.892   0.653
 7399SOL     OW22528   4.738   2.098   0.971
 7399SOL    HW122529   4.730   2.062   0.878
 7399SOL    HW222530   4.736   2.022   1.036
 7400SOL     OW22531   4.314   3.349   0.491
 7400SOL    HW122532   4.356   3.291   0.421
 7400SOL    HW222533   4.270   3.428   0.447
 7401SOL     OW22534   3.979   3.210   0.290
 7401SOL    HW122535   3.883   3.211   0.263
 7401SOL    HW222536   3.991   3.263   0.374
 7402SOL     OW22537   3.829   2.875   1.726
 7402SOL    HW122538   3.752   2.842   1.780
 7402SOL    HW222539   3.914   2.845   1.768
 7403SOL     OW22540   4.396   2.065   1.489
 7403SOL    HW122541   4.486   2.049   1.449
 7403SOL    HW222542   4.404   2.070   1.588
 7404SOL     OW22543   3.799   2.207   0.033
 7404SOL    HW122544   3.707   2.179   0.004
 7404SOL    HW222545   3.830   2.284  -0.023
 7405SOL     OW22546   3.796   2.028   0.318
 7405SOL    HW122547   3.779   2.111   0.264
 7405SOL    HW222548   3.886   1.991   0.296
 7406SOL     OW22549   4.337   2.704   1.431
 7406SOL    HW122550   4.393   2.785   1.414
 7406SOL    HW222551   4.396   2.624   1.434
 7407SOL     OW22552   4.440   2.427   1.708
 7407SOL    HW122553   4.459   2.492   1.782
 7407SOL    HW222554   4.500   2.347   1.717
 7408SOL     OW22555   4.114   3.603   1.560
 7408SOL    HW122556   4.023   3.644   1.558
 7408SOL    HW222557   4.107   3.509   1.592
 7409SOL     OW22558   4.318   2.607   0.652
 7409SOL    HW122559   4.368   2.692   0.633
 7409SOL    HW222560   4.230   2.609   0.604
 7410SOL     OW22561   4.583   3.236   0.016
 7410SOL    HW122562   4.537   3.251   0.104
 7410SOL    HW222563   4.627   3.321  -0.014
 7411SOL     OW22564   4.385   3.652   0.953
 7411SOL    HW122565   4.339   3.740   0.940
 7411SOL    HW222566   4.484   3.664   0.946
 7412SOL     OW22567   4.583   2.818   0.861
 7412SOL    HW122568   4.637   2.749   0.909
 7412SOL    HW222569   4.551   2.887   0.927
 7413SOL     OW22570   4.807   2.846   0.087
 7413SOL    HW122571   4.784   2.899   0.005
 7413SOL    HW222572   4.888   2.790   0.068
 7414SOL     OW22573   3.945   3.176   1.844
 7414SOL    HW122574   3.880   3.103   1.823
 7414SOL    HW222575   3.949   3.190   1.942
 7415SOL     OW22576   3.803   3.102   0.653
 7415SOL    HW122577   3.802   3.055   0.741
 7415SOL    HW222578   3.885   3.074   0.602
 7416SOL     OW22579   4.396   3.253   1.624
 7416SOL    HW122580   4.318   3.203   1.662
 7416SOL    HW222581   4.393   3.348   1.655
 7417SOL     OW22582   4.152   2.286   0.520
 7417SOL    HW122583   4.182   2.214   0.458
 7417SOL    HW222584   4.113   2.246   0.603
 7418SOL     OW22585   4.041   2.409   1.280
 7418SOL    HW122586   4.079   2.350   1.352
 7418SOL    HW222587   4.081   2.383   1.192
 7419SOL     OW22588   4.536   3.448   0.687
 7419SOL    HW122589   4.568   3.458   0.593
 7419SOL    HW222590   4.457   3.386   0.689
 7420SOL     OW22591   4.725   1.896   1.154
 7420SOL    HW122592   4.662   1.824   1.123
 7420SOL    HW222593   4.818   1.860   1.154
 7421SOL     OW22594   4.494   3.192   0.301
 7421SOL    HW122595   4.448   3.105   0.318
 7421SOL    HW222596   4.585   3.189   0.342
 7422SOL     OW22597   4.342   3.429   1.284
 7422SOL    HW122598   4.337   3.511   1.341
 7422SOL    HW222599   4.431   3.426   1.239
 7423SOL     OW22600   3.763   2.939   0.300
 7423SOL    HW122601   3.862   2.928   0.291
 7423SOL    HW222602   3.723   2.853   0.332
 7424SOL     OW22603   4.599   3.508   0.337
 7424SOL    HW122604   4.522   3.473   0.283
 7424SOL    HW222605   4.567   3.579   0.399
 7425SOL     OW22606   3.954   2.490   1.975
 7425SOL    HW122607   3.861   2.488   2.012
 7425SOL    HW222608   3.955   2.451   1.883
 7426SOL     OW22609   3.949   2.137   2.858
 7426SOL    HW122610   3.984   2.120   2.950
 7426SOL    HW222611   3.861   2.092   2.846
 7427SOL     OW22612   3.743   2.230   2.509
 7427SOL    HW122613   3.661   2.273   2.548
 7427SOL    HW222614   3.715   2.157   2.446
 7428SOL     OW22615   4.293   3.137   3.027
 7428SOL    HW122616   4.200   3.130   2.990
 7428SOL    HW222617   4.304   3.226   3.071
 7429SOL     OW22618   4.859   2.565   2.579
 7429SOL    HW122619   4.916   2.643   2.554
 7429SOL    HW222620   4.799   2.591   2.655
 7430SOL     OW22621   4.492   3.006   2.885
 7430SOL    HW122622   4.414   3.023   2.945
 7430SOL    HW222623   4.526   3.093   2.849
 7431SOL     OW22624   4.574   2.660   3.685
 7431SOL    HW122625   4.570   2.736   3.750
 7431SOL    HW222626   4.596   2.696   3.594
 7432SOL     OW22627   4.409   2.874   2.527
 7432SOL    HW122628   4.478   2.858   2.597
 7432SOL    HW222629   4.336   2.931   2.565
 7433SOL     OW22630   4.410   3.023   3.665
 7433SOL    HW122631   4.470   3.102   3.679
 7433SOL    HW222632   4.324   3.054   3.624
 7434SOL     OW22633   4.059   3.297   2.923
 7434SOL    HW122634   3.981   3.266   2.870
 7434SOL    HW222635   4.117   3.355   2.866
 7435SOL     OW22636   4.162   2.254   3.361
 7435SOL    HW122637   4.244   2.198   3.370
 7435SOL    HW222638   4.081   2.196   3.365
 7436SOL     OW22639   3.955   3.575   2.345
 7436SOL    HW122640   3.989   3.652   2.399
 7436SOL    HW222641   3.999   3.575   2.255
 7437SOL     OW22642   4.851   3.203   3.552
 7437SOL    HW122643   4.898   3.203   3.640
 7437SOL    HW222644   4.803   3.116   3.541
 7438SOL     OW22645   3.954   3.296   2.400
 7438SOL    HW122646   3.928   3.392   2.400
 7438SOL    HW222647   3.883   3.242   2.445
 7439SOL     OW22648   3.964   2.953   2.748
 7439SOL    HW122649   3.978   2.869   2.800
 7439SOL    HW222650   3.909   3.017   2.803
 7440SOL     OW22651   4.344   3.648   3.301
 7440SOL    HW122652   4.252   3.631   3.336
 7440SOL    HW222653   4.372   3.740   3.327
 7441SOL     OW22654   4.330   2.826   1.985
 7441SOL    HW122655   4.337   2.910   1.931
 7441SOL    HW222656   4.376   2.839   2.073
 7442SOL     OW22657   3.846   2.505   2.425
 7442SOL    HW122658   3.801   2.417   2.442
 7442SOL    HW222659   3.845   2.559   2.509
 7443SOL     OW22660   3.751   3.458   1.979
 7443SOL    HW122661   3.732   3.362   2.000
 7443SOL    HW222662   3.718   3.516   2.054
 7444SOL     OW22663   3.837   2.599   3.459
 7444SOL    HW122664   3.925   2.586   3.504
 7444SOL    HW222665   3.824   2.696   3.437
 7445SOL     OW22666   4.337   3.227   2.588
 7445SOL    HW122667   4.288   3.140   2.597
 7445SOL    HW222668   4.314   3.270   2.501
 7446SOL     OW22669   4.533   1.866   2.364
 7446SOL    HW122670   4.573   1.957   2.355
 7446SOL    HW222671   4.433   1.874   2.370
 7447SOL     OW22672   3.921   2.838   3.126
 7447SOL    HW122673   4.010   2.793   3.112
 7447SOL    HW222674   3.848   2.773   3.107
 7448SOL     OW22675   4.041   2.113   3.663
 7448SOL    HW122676   4.112   2.184   3.669
 7448SOL    HW222677   3.953   2.152   3.691
 7449SOL     OW22678   4.322   2.591   2.132
 7449SOL    HW122679   4.346   2.660   2.064
 7449SOL    HW222680   4.244   2.624   2.186
 7450SOL     OW22681   4.531   2.467   3.327
 7450SOL    HW122682   4.484   2.464   3.416
 7450SOL    HW222683   4.480   2.412   3.261
 7451SOL     OW22684   4.697   2.752   3.434
 7451SOL    HW122685   4.743   2.668   3.405
 7451SOL    HW222686   4.641   2.786   3.359
 7452SOL     OW22687   4.715   2.272   3.104
 7452SOL    HW122688   4.638   2.306   3.158
 7452SOL    HW222689   4.681   2.221   3.025
 7453SOL     OW22690   4.765   2.563   2.291
 7453SOL    HW122691   4.791   2.559   2.387
 7453SOL    HW222692   4.680   2.512   2.277
 7454SOL     OW22693   3.800   2.673   2.651
 7454SOL    HW122694   3.899   2.661   2.660
 7454SOL    HW222695   3.776   2.768   2.672
 7455SOL     OW22696   3.854   3.683   3.433
 7455SOL    HW122697   3.844   3.668   3.532
 7455SOL    HW222698   3.768   3.719   3.397
 7456SOL     OW22699   4.589   2.210   2.057
 7456SOL    HW122700   4.648   2.273   2.008
 7456SOL    HW222701   4.608   2.116   2.028
 7457SOL     OW22702   4.274   2.058   2.747
 7457SOL    HW122703   4.269   2.053   2.847
 7457SOL    HW222704   4.276   2.154   2.718
 7458SOL     OW22705   4.732   3.318   2.339
 7458SOL    HW122706   4.686   3.390   2.287
 7458SOL    HW222707   4.728   3.338   2.437
 7459SOL     OW22708   4.075   3.663   2.715
 7459SOL    HW122709   4.125   3.577   2.721
 7459SOL    HW222710   4.140   3.740   2.712
 7460SOL     OW22711   4.951   3.412   3.368
 7460SOL    HW122712   4.957   3.335   3.432
 7460SOL    HW222713   4.899   3.386   3.288
 7461SOL     OW22714   4.045   2.805   2.104
 7461SOL    HW122715   4.127   2.844   2.062
 7461SOL    HW222716   4.018   2.723   2.055
 7462SOL     OW22717   4.185   3.128   3.589
 7462SOL    HW122718   4.135   3.129   3.503
 7462SOL    HW222719   4.122   3.110   3.665
 7463SOL     OW22720   4.835   3.638   2.099
 7463SOL    HW122721   4.775   3.576   2.149
 7463SOL    HW222722   4.866   3.594   2.014
 7464SOL     OW22723   3.926   2.147   3.360
 7464SOL    HW122724   3.846   2.207   3.347
 7464SOL    HW222725   3.916   2.098   3.446
 7465SOL     OW22726   4.188   3.605   2.185
 7465SOL    HW122727   4.221   3.644   2.271
 7465SOL    HW222728   4.264   3.598   2.120
 7466SOL     OW22729   3.973   3.647   3.103
 7466SOL    HW122730   4.030   3.582   3.153
 7466SOL    HW222731   3.957   3.614   3.010
 7467SOL     OW22732   4.664   3.560   2.766
 7467SOL    HW122733   4.744   3.503   2.787
 7467SOL    HW222734   4.615   3.520   2.689
 7468SOL     OW22735   4.106   2.562   2.342
 7468SOL    HW122736   4.151   2.472   2.339
 7468SOL    HW222737   4.012   2.551   2.375
 7469SOL     OW22738   4.338   1.984   1.979
 7469SOL    HW122739   4.436   1.962   1.986
 7469SOL    HW222740   4.307   1.967   1.886
 7470SOL     OW22741   4.505   2.126   3.611
 7470SOL    HW122742   4.572   2.065   3.654
 7470SOL    HW222743   4.432   2.145   3.676
 7471SOL     OW22744   4.612   3.376   3.057
 7471SOL    HW122745   4.589   3.351   2.963
 7471SOL    HW222746   4.673   3.307   3.096
 7472SOL     OW22747   4.527   3.264   2.786
 7472SOL    HW122748   4.617   3.278   2.744
 7472SOL    HW222749   4.456   3.266   2.715
 7473SOL     OW22750   4.646   2.365   2.761
 7473SOL    HW122751   4.621   2.356   2.665
 7473SOL    HW222752   4.694   2.283   2.792
 7474SOL     OW22753   4.263   1.926   2.374
 7474SOL    HW122754   4.182   1.927   2.432
 7474SOL    HW222755   4.266   2.009   2.319
 7475SOL     OW22756   4.021   1.897   2.033
 7475SOL    HW122757   4.070   1.981   2.012
 7475SOL    HW222758   4.083   1.832   2.078
 7476SOL     OW22759   4.659   2.098   2.342
 7476SOL    HW122760   4.611   2.139   2.264
 7476SOL    HW222761   4.758   2.096   2.323
 7477SOL     OW22762   4.800   2.545   3.326
 7477SOL    HW122763   4.720   2.484   3.329
 7477SOL    HW222764   4.881   2.492   3.302
 7478SOL     OW22765   4.951   3.432   2.655
 7478SOL    HW122766   4.972   3.506   2.590
 7478SOL    HW222767   5.019   3.432   2.728
 7479SOL     OW22768   4.183   3.014   2.603
 7479SOL    HW122769   4.112   2.987   2.668
 7479SOL    HW222770   4.157   2.986   2.510
 7480SOL     OW22771   4.995   3.659   2.453
 7480SOL    HW122772   5.039   3.723   2.389
 7480SOL    HW222773   4.945   3.711   2.523
 7481SOL     OW22774   4.756   2.411   1.878
 7481SOL    HW122775   4.715   2.493   1.839
 7481SOL    HW222776   4.820   2.437   1.951
 7482SOL     OW22777   3.802   2.418   3.248
 7482SOL    HW122778   3.894   2.417   3.207
 7482SOL    HW222779   3.796   2.492   3.315
 7483SOL     OW22780   4.285   2.084   3.009
 7483SOL    HW122781   4.323   2.000   3.046
 7483SOL    HW222782   4.197   2.103   3.053
 7484SOL     OW22783   4.590   2.316   2.504
 7484SOL    HW122784   4.558   2.388   2.442
 7484SOL    HW222785   4.614   2.235   2.451
 7485SOL     OW22786   4.741   1.901   2.615
 7485SOL    HW122787   4.669   1.906   2.546
 7485SOL    HW222788   4.717   1.832   2.684
 7486SOL     OW22789   4.212   3.247   2.036
 7486SOL    HW122790   4.125   3.232   2.083
 7486SOL    HW222791   4.195   3.273   1.941
 7487SOL     OW22792   4.251   2.118   2.190
 7487SOL    HW122793   4.278   2.059   2.115
 7487SOL    HW222794   4.251   2.213   2.159
 7488SOL     OW22795   4.788   3.209   3.202
 7488SOL    HW122796   4.708   3.186   3.257
 7488SOL    HW222797   4.871   3.183   3.251
 7489SOL     OW22798   4.835   3.057   2.962
 7489SOL    HW122799   4.795   3.101   3.043
 7489SOL    HW222800   4.794   3.094   2.879
 7490SOL     OW22801   4.639   1.951   3.264
 7490SOL    HW122802   4.664   1.931   3.169
 7490SOL    HW222803   4.711   2.007   3.306
 7491SOL     OW22804   4.704   2.978   3.581
 7491SOL    HW122805   4.605   2.984   3.591
 7491SOL    HW222806   4.727   2.898   3.525
 7492SOL     OW22807   4.429   2.912   2.230
 7492SOL    HW122808   4.415   2.919   2.329
 7492SOL    HW222809   4.513   2.861   2.212
 7493SOL     OW22810   4.134   2.675   3.113
 7493SOL    HW122811   4.220   2.687   3.163
 7493SOL    HW222812   4.092   2.588   3.140
 7494SOL     OW22813   3.788   3.426   3.193
 7494SOL    HW122814   3.742   3.508   3.159
 7494SOL    HW222815   3.886   3.445   3.202
 7495SOL     OW22816   4.091   2.962   2.363
 7495SOL    HW122817   4.084   3.045   2.307
 7495SOL    HW222818   4.095   2.882   2.303
 7496SOL     OW22819   4.290   2.399   2.727
 7496SOL    HW122820   4.302   2.465   2.653
 7496SOL    HW222821   4.336   2.433   2.810
 7497SOL     OW22822   4.976   3.210   2.250
 7497SOL    HW122823   5.026   3.287   2.290
 7497SOL    HW222824   4.881   3.212   2.282
 7498SOL     OW22825   4.078   3.372   3.191
 7498SOL    HW122826   4.057   3.328   3.104
 7498SOL    HW222827   4.175   3.398   3.194
 7499SOL     OW22828   4.126   2.613   3.460
 7499SOL    HW122829   4.194   2.668   3.413
 7499SOL    HW222830   4.166   2.525   3.487
 7500SOL     OW22831   4.737   1.967   3.632
 7500SOL    HW122832   4.743   2.052   3.580
 7500SOL    HW222833   4.769   1.891   3.575
 7501SOL     OW22834   4.228   1.912   3.602
 7501SOL    HW122835   4.186   1.855   3.532
 7501SOL    HW222836   4.162   1.981   3.634
 7502SOL     OW22837   4.297   2.732   2.891
 7502SOL    HW122838   4.341   2.821   2.882
 7502SOL    HW222839   4.234   2.732   2.968
 7503SOL     OW22840   5.084   2.724   2.907
 7503SOL    HW122841   5.009   2.724   2.841
 7503SOL    HW222842   5.121   2.632   2.916
 7504SOL     OW22843   4.933   2.387   2.137
 7504SOL    HW122844   4.946   2.303   2.191
 7504SOL    HW222845   4.904   2.461   2.197
 7505SOL     OW22846   4.031   2.075   3.093
 7505SOL    HW122847   4.008   2.112   3.183
 7505SOL    HW222848   4.001   1.980   3.087
 7506SOL     OW22849   3.761   3.172   3.144
 7506SOL    HW122850   3.814   3.123   3.212
 7506SOL    HW222851   3.783   3.270   3.149
 7507SOL     OW22852   4.456   2.496   2.926
 7507SOL    HW122853   4.515   2.470   2.850
 7507SOL    HW222854   4.428   2.592   2.915
 7508SOL     OW22855   4.031   1.925   2.480
 7508SOL    HW122856   4.020   2.019   2.513
 7508SOL    HW222857   4.026   1.862   2.557
 7509SOL     OW22858   4.747   2.628   2.828
 7509SOL    HW122859   4.762   2.649   2.924
 7509SOL    HW222860   4.717   2.533   2.819
 7510SOL     OW22861   4.704   3.435   3.562
 7510SOL    HW122862   4.684   3.479   3.474
 7510SOL    HW222863   4.743   3.344   3.546
 7511SOL     OW22864   4.074   2.760   3.666
 7511SOL    HW122865   4.150   2.804   3.714
 7511SOL    HW222866   4.109   2.713   3.584
 7512SOL     OW22867   5.264   2.136   1.987
 7512SOL    HW122868   5.203   2.061   2.010
 7512SOL    HW222869   5.286   2.188   2.070
 7513SOL     OW22870   4.792   3.195   2.711
 7513SOL    HW122871   4.799   3.111   2.656
 7513SOL    HW222872   4.854   3.264   2.675
 7514SOL     OW22873   4.043   2.672   2.811
 7514SOL    HW122874   4.136   2.708   2.816
 7514SOL    HW222875   4.037   2.587   2.863
 7515SOL     OW22876   4.063   2.371   2.868
 7515SOL    HW122877   4.011   2.288   2.851
 7515SOL    HW222878   4.140   2.376   2.804
 7516SOL     OW22879   4.862   2.242   3.540
 7516SOL    HW122880   4.817   2.305   3.604
 7516SOL    HW222881   4.955   2.273   3.523
 7517SOL     OW22882   4.884   2.069   3.339
 7517SOL    HW122883   4.884   2.133   3.416
 7517SOL    HW222884   4.912   2.117   3.256
 7518SOL     OW22885   3.732   3.188   2.062
 7518SOL    HW122886   3.639   3.209   2.031
 7518SOL    HW222887   3.742   3.089   2.075
 7519SOL     OW22888   3.812   3.663   2.789
 7519SOL    HW122889   3.770   3.577   2.762
 7519SOL    HW222890   3.906   3.666   2.755
 7520SOL     OW22891   4.228   3.430   2.772
 7520SOL    HW122892   4.294   3.504   2.781
 7520SOL    HW222893   4.272   3.351   2.730
 7521SOL     OW22894   4.726   2.658   3.100
 7521SOL    HW122895   4.767   2.626   3.186
 7521SOL    HW222896   4.630   2.631   3.097
 7522SOL     OW22897   3.764   2.406   2.976
 7522SOL    HW122898   3.849   2.373   2.935
 7522SOL    HW222899   3.777   2.421   3.074
 7523SOL     OW22900   3.913   2.382   3.584
 7523SOL    HW122901   3.972   2.342   3.514
 7523SOL    HW222902   3.855   2.453   3.543
 7524SOL     OW22903   4.539   2.434   2.187
 7524SOL    HW122904   4.546   2.345   2.141
 7524SOL    HW222905   4.445   2.468   2.179
 7525SOL     OW22906   3.976   3.426   3.606
 7525SOL    HW122907   3.946   3.483   3.682
 7525SOL    HW222908   3.969   3.329   3.632
 7526SOL     OW22909   4.395   2.326   3.131
 7526SOL    HW122910   4.361   2.237   3.101
 7526SOL    HW222911   4.421   2.380   3.051
 7527SOL     OW22912   4.654   3.540   3.327
 7527SOL    HW122913   4.630   3.522   3.232
 7527SOL    HW222914   4.684   3.634   3.337
 7528SOL     OW22915   4.197   2.362   2.053
 7528SOL    HW122916   4.258   2.442   2.057
 7528SOL    HW222917   4.102   2.393   2.060
 7529SOL     OW22918   3.883   2.999   3.328
 7529SOL    HW122919   3.905   2.938   3.404
 7529SOL    HW222920   3.893   2.950   3.242
 7530SOL     OW22921   4.976   3.593   2.990
 7530SOL    HW122922   5.060   3.598   2.936
 7530SOL    HW222923   4.953   3.497   3.008
 7531SOL     OW22924   3.807   3.120   2.884
 7531SOL    HW122925   3.802   3.119   2.984
 7531SOL    HW222926   3.724   3.079   2.846
 7532SOL     OW22927   4.412   3.524   3.578
 7532SOL    HW122928   4.356   3.605   3.587
 7532SOL    HW222929   4.464   3.528   3.492
 7533SOL     OW22930   3.854   3.656   3.713
 7533SOL    HW122931   3.813   3.582   3.766
 7533SOL    HW222932   3.918   3.707   3.771
 7534SOL     OW22933   4.554   3.135   3.284
 7534SOL    HW122934   4.549   3.168   3.379
 7534SOL    HW222935   4.468   3.154   3.238
 7535SOL     OW22936   4.396   3.478   2.016
 7535SOL    HW122937   4.405   3.488   1.917
 7535SOL    HW222938   4.356   3.389   2.037
 7536SOL     OW22939   3.987   2.188   2.582
 7536SOL    HW122940   3.908   2.239   2.548
 7536SOL    HW222941   3.978   2.173   2.680
 7537SOL     OW22942   4.546   2.864   3.234
 7537SOL    HW122943   4.586   2.863   3.142
 7537SOL    HW222944   4.556   2.956   3.274
 7538SOL     OW22945   4.640   2.772   2.153
 7538SOL    HW122946   4.703   2.810   2.085
 7538SOL    HW222947   4.680   2.689   2.192
 7539SOL     OW22948   4.096   3.150   3.352
 7539SOL    HW122949   4.083   3.243   3.318
 7539SOL    HW222950   4.012   3.098   3.339
 7540SOL     OW22951   4.763   2.960   2.558
 7540SOL    HW122952   4.693   2.913   2.612
 7540SOL    HW222953   4.822   2.892   2.515
 7541SOL     OW22954   4.738   2.098   2.833
 7541SOL    HW122955   4.730   2.062   2.740
 7541SOL    HW222956   4.736   2.022   2.898
 7542SOL     OW22957   4.314   3.349   2.353
 7542SOL    HW122958   4.356   3.291   2.283
 7542SOL    HW222959   4.270   3.428   2.309
 7543SOL     OW22960   3.979   3.210   2.152
 7543SOL    HW122961   3.883   3.211   2.125
 7543SOL    HW222962   3.991   3.263   2.236
 7544SOL     OW22963   3.829   2.875   3.588
 7544SOL    HW122964   3.752   2.842   3.642
 7544SOL    HW222965   3.914   2.845   3.630
 7545SOL     OW22966   4.396   2.065   3.351
 7545SOL    HW122967   4.486   2.049   3.311
 7545SOL    HW222968   4.404   2.070   3.450
 7546SOL     OW22969   3.799   2.207   1.895
 7546SOL    HW122970   3.707   2.179   1.866
 7546SOL    HW222971   3.830   2.284   1.839
 7547SOL     OW22972   3.796   2.028   2.180
 7547SOL    HW122973   3.779   2.111   2.126
 7547SOL    HW222974   3.886   1.991   2.158
 7548SOL     OW22975   4.337   2.704   3.293
 7548SOL    HW122976   4.393   2.785   3.276
 7548SOL    HW222977   4.396   2.624   3.296
 7549SOL     OW22978   4.440   2.427   3.570
 7549SOL    HW122979   4.459   2.492   3.644
 7549SOL    HW222980   4.500   2.347   3.579
 7550SOL     OW22981   4.114   3.603   3.422
 7550SOL    HW122982   4.023   3.644   3.420
 7550SOL    HW222983   4.107   3.509   3.454
 7551SOL     OW22984   4.318   2.607   2.514
 7551SOL    HW122985   4.368   2.692   2.495
 7551SOL    HW222986   4.230   2.609   2.466
 7552SOL     OW22987   4.583   3.236   1.878
 7552SOL    HW122988   4.537   3.251   1.966
 7552SOL    HW222989   4.627   3.321   1.848
 7553SOL     OW22990   4.385   3.652   2.815
 7553SOL    HW122991   4.339   3.740   2.802
 7553SOL    HW222992   4.484   3.664   2.808
 7554SOL     OW22993   4.583   2.818   2.723
 7554SOL    HW122994   4.637   2.749   2.771
 7554SOL    HW222995   4.551   2.887   2.789
 7555SOL     OW22996   4.807   2.846   1.949
 7555SOL    HW122997   4.784   2.899   1.867
 7555SOL    HW222998   4.888   2.790   1.930
 7556SOL     OW22999   3.945   3.176   3.706
 7556SOL    HW123000   3.880   3.103   3.685
 7556SOL    HW223001   3.949   3.190   3.804
 7557SOL     OW23002   3.803   3.102   2.515
 7557SOL    HW123003   3.802   3.055   2.603
 7557SOL    HW223004   3.885   3.074   2.464
 7558SOL     OW23005   4.396   3.253   3.486
 7558SOL    HW123006   4.318   3.203   3.524
 7558SOL    HW223007   4.393   3.348   3.517
 7559SOL     OW23008   4.152   2.286   2.382
 7559SOL    HW123009   4.182   2.214   2.320
 7559SOL    HW223010   4.113   2.246   2.465
 7560SOL     OW23011   4.041   2.409   3.142
 7560SOL    HW123012   4.079   2.350   3.214
 7560SOL    HW223013   4.081   2.383   3.054
 7561SOL     OW23014   4.536   3.448   2.549
 7561SOL    HW123015   4.568   3.458   2.455
 7561SOL    HW223016   4.457   3.386   2.551
 7562SOL     OW23017   4.725   1.896   3.016
 7562SOL    HW123018   4.662   1.824   2.985
 7562SOL    HW223019   4.818   1.860   3.016
 7563SOL     OW23020   4.494   3.192   2.163
 7563SOL    HW123021   4.448   3.105   2.180
 7563SOL    HW223022   4.585   3.189   2.204
 7564SOL     OW23023   4.342   3.429   3.146
 7564SOL    HW123024   4.337   3.511   3.203
 7564SOL    HW223025   4.431   3.426   3.101
 7565SOL     OW23026   3.763   2.939   2.162
 7565SOL    HW123027   3.862   2.928   2.153
 7565SOL    HW223028   3.723   2.853   2.194
 7566SOL     OW23029   4.599   3.508   2.199
 7566SOL    HW123030   4.522   3.473   2.145
 7566SOL    HW223031   4.567   3.579   2.261
 7567SOL     OW23032   3.954   2.490   3.837
 7567SOL    HW123033   3.861   2.488   3.874
 7567SOL    HW223034   3.955   2.451   3.745
 7568SOL     OW23035   3.949   2.137   4.720
 7568SOL    HW123036   3.984   2.120   4.812
 7568SOL    HW223037   3.861   2.092   4.708
 7569SOL     OW23038   3.743   2.230   4.371
 7569SOL    HW123039   3.661   2.273   4.410
 7569SOL    HW223040   3.715   2.157   4.308
 7570SOL     OW23041   4.293   3.137   4.889
 7570SOL    HW123042   4.200   3.130   4.852
 7570SOL    HW223043   4.304   3.226   4.933
 7571SOL     OW23044   4.859   2.565   4.441
 7571SOL    HW123045   4.916   2.643   4.416
 7571SOL    HW223046   4.799   2.591   4.517
 7572SOL     OW23047   4.492   3.006   4.747
 7572SOL    HW123048   4.414   3.023   4.807
 7572SOL    HW223049   4.526   3.093   4.711
 7573SOL     OW23050   4.574   2.660   5.547
 7573SOL    HW123051   4.570   2.736   5.612
 7573SOL    HW223052   4.596   2.696   5.456
 7574SOL     OW23053   4.409   2.874   4.389
 7574SOL    HW123054   4.478   2.858   4.459
 7574SOL    HW223055   4.336   2.931   4.427
 7575SOL     OW23056   4.410   3.023   5.527
 7575SOL    HW123057   4.470   3.102   5.541
 7575SOL    HW223058   4.324   3.054   5.486
 7576SOL     OW23059   4.059   3.297   4.785
 7576SOL    HW123060   3.981   3.266   4.732
 7576SOL    HW223061   4.117   3.355   4.728
 7577SOL     OW23062   4.162   2.254   5.223
 7577SOL    HW123063   4.244   2.198   5.232
 7577SOL    HW223064   4.081   2.196   5.227
 7578SOL     OW23065   3.955   3.575   4.207
 7578SOL    HW123066   3.989   3.652   4.261
 7578SOL    HW223067   3.999   3.575   4.117
 7579SOL     OW23068   4.851   3.203   5.414
 7579SOL    HW123069   4.898   3.203   5.502
 7579SOL    HW223070   4.803   3.116   5.403
 7580SOL     OW23071   3.954   3.296   4.262
 7580SOL    HW123072   3.928   3.392   4.262
 7580SOL    HW223073   3.883   3.242   4.307
 7581SOL     OW23074   3.964   2.953   4.610
 7581SOL    HW123075   3.978   2.869   4.662
 7581SOL    HW223076   3.909   3.017   4.665
 7582SOL     OW23077   4.344   3.648   5.163
 7582SOL    HW123078   4.252   3.631   5.198
 7582SOL    HW223079   4.372   3.740   5.189
 7583SOL     OW23080   4.330   2.826   3.847
 7583SOL    HW123081   4.337   2.910   3.793
 7583SOL    HW223082   4.376   2.839   3.935
 7584SOL     OW23083   3.846   2.505   4.287
 7584SOL    HW123084   3.801   2.417   4.304
 7584SOL    HW223085   3.845   2.559   4.371
 7585SOL     OW23086   3.751   3.458   3.841
 7585SOL    HW123087   3.732   3.362   3.862
 7585SOL    HW223088   3.718   3.516   3.916
 7586SOL     OW23089   3.837   2.599   5.321
 7586SOL    HW123090   3.925   2.586   5.366
 7586SOL    HW223091   3.824   2.696   5.299
 7587SOL     OW23092   4.337   3.227   4.450
 7587SOL    HW123093   4.288   3.140   4.459
 7587SOL    HW223094   4.314   3.270   4.363
 7588SOL     OW23095   4.533   1.866   4.226
 7588SOL    HW123096   4.573   1.957   4.217
 7588SOL    HW223097   4.433   1.874   4.232
 7589SOL     OW23098   3.921   2.838   4.988
 7589SOL    HW123099   4.010   2.793   4.974
 7589SOL    HW223100   3.848   2.773   4.969
 7590SOL     OW23101   4.041   2.113   5.525
 7590SOL    HW123102   4.112   2.184   5.531
 7590SOL    HW223103   3.953   2.152   5.553
 7591SOL     OW23104   4.322   2.591   3.994
 7591SOL    HW123105   4.346   2.660   3.926
 7591SOL    HW223106   4.244   2.624   4.048
 7592SOL     OW23107   4.531   2.467   5.189
 7592SOL    HW123108   4.484   2.464   5.278
 7592SOL    HW223109   4.480   2.412   5.123
 7593SOL     OW23110   4.697   2.752   5.296
 7593SOL    HW123111   4.743   2.668   5.267
 7593SOL    HW223112   4.641   2.786   5.221
 7594SOL     OW23113   4.715   2.272   4.966
 7594SOL    HW123114   4.638   2.306   5.020
 7594SOL    HW223115   4.681   2.221   4.887
 7595SOL     OW23116   4.765   2.563   4.153
 7595SOL    HW123117   4.791   2.559   4.249
 7595SOL    HW223118   4.680   2.512   4.139
 7596SOL     OW23119   3.800   2.673   4.513
 7596SOL    HW123120   3.899   2.661   4.522
 7596SOL    HW223121   3.776   2.768   4.534
 7597SOL     OW23122   3.854   3.683   5.295
 7597SOL    HW123123   3.844   3.668   5.394
 7597SOL    HW223124   3.768   3.719   5.259
 7598SOL     OW23125   4.589   2.210   3.919
 7598SOL    HW123126   4.648   2.273   3.870
 7598SOL    HW223127   4.608   2.116   3.890
 7599SOL     OW23128   4.274   2.058   4.609
 7599SOL    HW123129   4.269   2.053   4.709
 7599SOL    HW223130   4.276   2.154   4.580
 7600SOL     OW23131   4.732   3.318   4.201
 7600SOL    HW123132   4.686   3.390   4.149
 7600SOL    HW223133   4.728   3.338   4.299
 7601SOL     OW23134   4.075   3.663   4.577
 7601SOL    HW123135   4.125   3.577   4.583
 7601SOL    HW223136   4.140   3.740   4.574
 7602SOL     OW23137   4.951   3.412   5.230
 7602SOL    HW123138   4.957   3.335   5.294
 7602SOL    HW223139   4.899   3.386   5.150
 7603SOL     OW23140   4.045   2.805   3.966
 7603SOL    HW123141   4.127   2.844   3.924
 7603SOL    HW223142   4.018   2.723   3.917
 7604SOL     OW23143   4.185   3.128   5.451
 7604SOL    HW123144   4.135   3.129   5.365
 7604SOL    HW223145   4.122   3.110   5.527
 7605SOL     OW23146   4.835   3.638   3.961
 7605SOL    HW123147   4.775   3.576   4.011
 7605SOL    HW223148   4.866   3.594   3.876
 7606SOL     OW23149   3.926   2.147   5.222
 7606SOL    HW123150   3.846   2.207   5.209
 7606SOL    HW223151   3.916   2.098   5.308
 7607SOL     OW23152   4.188   3.605   4.047
 7607SOL    HW123153   4.221   3.644   4.133
 7607SOL    HW223154   4.264   3.598   3.982
 7608SOL     OW23155   3.973   3.647   4.965
 7608SOL    HW123156   4.030   3.582   5.015
 7608SOL    HW223157   3.957   3.614   4.872
 7609SOL     OW23158   4.664   3.560   4.628
 7609SOL    HW123159   4.744   3.503   4.649
 7609SOL    HW223160   4.615   3.520   4.551
 7610SOL     OW23161   4.106   2.562   4.204
 7610SOL    HW123162   4.151   2.472   4.201
 7610SOL    HW223163   4.012   2.551   4.237
 7611SOL     OW23164   4.338   1.984   3.841
 7611SOL    HW123165   4.436   1.962   3.848
 7611SOL    HW223166   4.307   1.967   3.748
 7612SOL     OW23167   4.505   2.126   5.473
 7612SOL    HW123168   4.572   2.065   5.516
 7612SOL    HW223169   4.432   2.145   5.538
 7613SOL     OW23170   4.612   3.376   4.919
 7613SOL    HW123171   4.589   3.351   4.825
 7613SOL    HW223172   4.673   3.307   4.958
 7614SOL     OW23173   4.527   3.264   4.648
 7614SOL    HW123174   4.617   3.278   4.606
 7614SOL    HW223175   4.456   3.266   4.577
 7615SOL     OW23176   4.646   2.365   4.623
 7615SOL    HW123177   4.621   2.356   4.527
 7615SOL    HW223178   4.694   2.283   4.654
 7616SOL     OW23179   4.263   1.926   4.236
 7616SOL    HW123180   4.182   1.927   4.294
 7616SOL    HW223181   4.266   2.009   4.181
 7617SOL     OW23182   4.021   1.897   3.895
 7617SOL    HW123183   4.070   1.981   3.874
 7617SOL    HW223184   4.083   1.832   3.940
 7618SOL     OW23185   4.659   2.098   4.204
 7618SOL    HW123186   4.611   2.139   4.126
 7618SOL    HW223187   4.758   2.096   4.185
 7619SOL     OW23188   4.800   2.545   5.188
 7619SOL    HW123189   4.720   2.484   5.191
 7619SOL    HW223190   4.881   2.492   5.164
 7620SOL     OW23191   4.951   3.432   4.517
 7620SOL    HW123192   4.972   3.506   4.452
 7620SOL    HW223193   5.019   3.432   4.590
 7621SOL     OW23194   4.183   3.014   4.465
 7621SOL    HW123195   4.112   2.987   4.530
 7621SOL    HW223196   4.157   2.986   4.372
 7622SOL     OW23197   4.995   3.659   4.315
 7622SOL    HW123198   5.039   3.723   4.251
 7622SOL    HW223199   4.945   3.711   4.385
 7623SOL     OW23200   4.756   2.411   3.740
 7623SOL    HW123201   4.715   2.493   3.701
 7623SOL    HW223202   4.820   2.437   3.813
 7624SOL     OW23203   3.802   2.418   5.110
 7624SOL    HW123204   3.894   2.417   5.069
 7624SOL    HW223205   3.796   2.492   5.177
 7625SOL     OW23206   4.285   2.084   4.871
 7625SOL    HW123207   4.323   2.000   4.908
 7625SOL    HW223208   4.197   2.103   4.915
 7626SOL     OW23209   4.590   2.316   4.366
 7626SOL    HW123210   4.558   2.388   4.304
 7626SOL    HW223211   4.614   2.235   4.313
 7627SOL     OW23212   4.741   1.901   4.477
 7627SOL    HW123213   4.669   1.906   4.408
 7627SOL    HW223214   4.717   1.832   4.546
 7628SOL     OW23215   4.212   3.247   3.898
 7628SOL    HW123216   4.125   3.232   3.945
 7628SOL    HW223217   4.195   3.273   3.803
 7629SOL     OW23218   4.251   2.118   4.052
 7629SOL    HW123219   4.278   2.059   3.977
 7629SOL    HW223220   4.251   2.213   4.021
 7630SOL     OW23221   4.788   3.209   5.064
 7630SOL    HW123222   4.708   3.186   5.119
 7630SOL    HW223223   4.871   3.183   5.113
 7631SOL     OW23224   4.835   3.057   4.824
 7631SOL    HW123225   4.795   3.101   4.905
 7631SOL    HW223226   4.794   3.094   4.741
 7632SOL     OW23227   4.639   1.951   5.126
 7632SOL    HW123228   4.664   1.931   5.031
 7632SOL    HW223229   4.711   2.007   5.168
 7633SOL     OW23230   4.704   2.978   5.443
 7633SOL    HW123231   4.605   2.984   5.453
 7633SOL    HW223232   4.727   2.898   5.387
 7634SOL     OW23233   4.429   2.912   4.092
 7634SOL    HW123234   4.415   2.919   4.191
 7634SOL    HW223235   4.513   2.861   4.074
 7635SOL     OW23236   4.134   2.675   4.975
 7635SOL    HW123237   4.220   2.687   5.025
 7635SOL    HW223238   4.092   2.588   5.002
 7636SOL     OW23239   3.788   3.426   5.055
 7636SOL    HW123240   3.742   3.508   5.021
 7636SOL    HW223241   3.886   3.445   5.064
 7637SOL     OW23242   4.091   2.962   4.225
 7637SOL    HW123243   4.084   3.045   4.169
 7637SOL    HW223244   4.095   2.882   4.165
 7638SOL     OW23245   4.290   2.399   4.589
 7638SOL    HW123246   4.302   2.465   4.515
 7638SOL    HW223247   4.336   2.433   4.672
 7639SOL     OW23248   4.976   3.210   4.112
 7639SOL    HW123249   5.026   3.287   4.152
 7639SOL    HW223250   4.881   3.212   4.144
 7640SOL     OW23251   4.078   3.372   5.053
 7640SOL    HW123252   4.057   3.328   4.966
 7640SOL    HW223253   4.175   3.398   5.056
 7641SOL     OW23254   4.126   2.613   5.322
 7641SOL    HW123255   4.194   2.668   5.275
 7641SOL    HW223256   4.166   2.525   5.349
 7642SOL     OW23257   4.737   1.967   5.494
 7642SOL    HW123258   4.743   2.052   5.442
 7642SOL    HW223259   4.769   1.891   5.437
 7643SOL     OW23260   4.228   1.912   5.464
 7643SOL    HW123261   4.186   1.855   5.394
 7643SOL    HW223262   4.162   1.981   5.496
 7644SOL     OW23263   4.297   2.732   4.753
 7644SOL    HW123264   4.341   2.821   4.744
 7644SOL    HW223265   4.234   2.732   4.830
 7645SOL     OW23266   5.084   2.724   4.769
 7645SOL    HW123267   5.009   2.724   4.703
 7645SOL    HW223268   5.121   2.632   4.778
 7646SOL     OW23269   4.933   2.387   3.999
 7646SOL    HW123270   4.946   2.303   4.053
 7646SOL    HW223271   4.904   2.461   4.059
 7647SOL     OW23272   4.031   2.075   4.955
 7647SOL    HW123273   4.008   2.112   5.045
 7647SOL    HW223274   4.001   1.980   4.949
 7648SOL     OW23275   3.761   3.172   5.006
 7648SOL    HW123276   3.814   3.123   5.074
 7648SOL    HW223277   3.783   3.270   5.011
 7649SOL     OW23278   4.456   2.496   4.788
 7649SOL    HW123279   4.515   2.470   4.712
 7649SOL    HW223280   4.428   2.592   4.777
 7650SOL     OW23281   4.031   1.925   4.342
 7650SOL    HW123282   4.020   2.019   4.375
 7650SOL    HW223283   4.026   1.862   4.419
 7651SOL     OW23284   4.747   2.628   4.690
 7651SOL    HW123285   4.762   2.649   4.786
 7651SOL    HW223286   4.717   2.533   4.681
 7652SOL     OW23287   4.704   3.435   5.424
 7652SOL    HW123288   4.684   3.479   5.336
 7652SOL    HW223289   4.743   3.344   5.408
 7653SOL     OW23290   4.074   2.760   5.528
 7653SOL    HW123291   4.150   2.804   5.576
 7653SOL    HW223292   4.109   2.713   5.446
 7654SOL     OW23293   5.264   2.136   3.849
 7654SOL    HW123294   5.203   2.061   3.872
 7654SOL    HW223295   5.286   2.188   3.932
 7655SOL     OW23296   4.792   3.195   4.573
 7655SOL    HW123297   4.799   3.111   4.518
 7655SOL    HW223298   4.854   3.264   4.537
 7656SOL     OW23299   4.043   2.672   4.673
 7656SOL    HW123300   4.136   2.708   4.678
 7656SOL    HW223301   4.037   2.587   4.725
 7657SOL     OW23302   4.063   2.371   4.730
 7657SOL    HW123303   4.011   2.288   4.713
 7657SOL    HW223304   4.140   2.376   4.666
 7658SOL     OW23305   4.862   2.242   5.402
 7658SOL    HW123306   4.817   2.305   5.466
 7658SOL    HW223307   4.955   2.273   5.385
 7659SOL     OW23308   4.884   2.069   5.201
 7659SOL    HW123309   4.884   2.133   5.278
 7659SOL    HW223310   4.912   2.117   5.118
 7660SOL     OW23311   3.732   3.188   3.924
 7660SOL    HW123312   3.639   3.209   3.893
 7660SOL    HW223313   3.742   3.089   3.937
 7661SOL     OW23314   3.812   3.663   4.651
 7661SOL    HW123315   3.770   3.577   4.624
 7661SOL    HW223316   3.906   3.666   4.617
 7662SOL     OW23317   4.228   3.430   4.634
 7662SOL    HW123318   4.294   3.504   4.643
 7662SOL    HW223319   4.272   3.351   4.592
 7663SOL     OW23320   4.726   2.658   4.962
 7663SOL    HW123321   4.767   2.626   5.048
 7663SOL    HW223322   4.630   2.631   4.959
 7664SOL     OW23323   3.764   2.406   4.838
 7664SOL    HW123324   3.849   2.373   4.797
 7664SOL    HW223325   3.777   2.421   4.936
 7665SOL     OW23326   3.913   2.382   5.446
 7665SOL    HW123327   3.972   2.342   5.376
 7665SOL    HW223328   3.855   2.453   5.405
 7666SOL     OW23329   4.539   2.434   4.049
 7666SOL    HW123330   4.546   2.345   4.003
 7666SOL    HW223331   4.445   2.468   4.041
 7667SOL     OW23332   3.976   3.426   5.468
 7667SOL    HW123333   3.946   3.483   5.544
 7667SOL    HW223334   3.969   3.329   5.494
 7668SOL     OW23335   4.395   2.326   4.993
 7668SOL    HW123336   4.361   2.237   4.963
 7668SOL    HW223337   4.421   2.380   4.913
 7669SOL     OW23338   4.654   3.540   5.189
 7669SOL    HW123339   4.630   3.522   5.094
 7669SOL    HW223340   4.684   3.634   5.199
 7670SOL     OW23341   4.197   2.362   3.915
 7670SOL    HW123342   4.258   2.442   3.919
 7670SOL    HW223343   4.102   2.393   3.922
 7671SOL     OW23344   3.883   2.999   5.190
 7671SOL    HW123345   3.905   2.938   5.266
 7671SOL    HW223346   3.893   2.950   5.104
 7672SOL     OW23347   4.976   3.593   4.852
 7672SOL    HW123348   5.060   3.598   4.798
 7672SOL    HW223349   4.953   3.497   4.870
 7673SOL     OW23350   3.807   3.120   4.746
 7673SOL    HW123351   3.802   3.119   4.846
 7673SOL    HW223352   3.724   3.079   4.708
 7674SOL     OW23353   4.412   3.524   5.440
 7674SOL    HW123354   4.356   3.605   5.449
 7674SOL    HW223355   4.464   3.528   5.354
 7675SOL     OW23356   3.854   3.656   5.575
 7675SOL    HW123357   3.813   3.582   5.628
 7675SOL    HW223358   3.918   3.707   5.633
 7676SOL     OW23359   4.554   3.135   5.146
 7676SOL    HW123360   4.549   3.168   5.241
 7676SOL    HW223361   4.468   3.154   5.100
 7677SOL     OW23362   4.396   3.478   3.878
 7677SOL    HW123363   4.405   3.488   3.779
 7677SOL    HW223364   4.356   3.389   3.899
 7678SOL     OW23365   3.987   2.188   4.444
 7678SOL    HW123366   3.908   2.239   4.410
 7678SOL    HW223367   3.978   2.173   4.542
 7679SOL     OW23368   4.546   2.864   5.096
 7679SOL    HW123369   4.586   2.863   5.004
 7679SOL    HW223370   4.556   2.956   5.136
 7680SOL     OW23371   4.640   2.772   4.015
 7680SOL    HW123372   4.703   2.810   3.947
 7680SOL    HW223373   4.680   2.689   4.054
 7681SOL     OW23374   4.096   3.150   5.214
 7681SOL    HW123375   4.083   3.243   5.180
 7681SOL    HW223376   4.012   3.098   5.201
 7682SOL     OW23377   4.763   2.960   4.420
 7682SOL    HW123378   4.693   2.913   4.474
 7682SOL    HW223379   4.822   2.892   4.377
 7683SOL     OW23380   4.738   2.098   4.695
 7683SOL    HW123381   4.730   2.062   4.602
 7683SOL    HW223382   4.736   2.022   4.760
 7684SOL     OW23383   4.314   3.349   4.215
 7684SOL    HW123384   4.356   3.291   4.145
 7684SOL    HW223385   4.270   3.428   4.171
 7685SOL     OW23386   3.979   3.210   4.014
 7685SOL    HW123387   3.883   3.211   3.987
 7685SOL    HW223388   3.991   3.263   4.098
 7686SOL     OW23389   3.829   2.875   5.450
 7686SOL    HW123390   3.752   2.842   5.504
 7686SOL    HW223391   3.914   2.845   5.492
 7687SOL     OW23392   4.396   2.065   5.213
 7687SOL    HW123393   4.486   2.049   5.173
 7687SOL    HW223394   4.404   2.070   5.312
 7688SOL     OW23395   3.799   2.207   3.757
 7688SOL    HW123396   3.707   2.179   3.728
 7688SOL    HW223397   3.830   2.284   3.701
 7689SOL     OW23398   3.796   2.028   4.042
 7689SOL    HW123399   3.779   2.111   3.988
 7689SOL    HW223400   3.886   1.991   4.020
 7690SOL     OW23401   4.337   2.704   5.155
 7690SOL    HW123402   4.393   2.785   5.138
 7690SOL    HW223403   4.396   2.624   5.158
 7691SOL     OW23404   4.440   2.427   5.432
 7691SOL    HW123405   4.459   2.492   5.506
 7691SOL    HW223406   4.500   2.347   5.441
 7692SOL     OW23407   4.114   3.603   5.284
 7692SOL    HW123408   4.023   3.644   5.282
 7692SOL    HW223409   4.107   3.509   5.316
 7693SOL     OW23410   4.318   2.607   4.376
 7693SOL    HW123411   4.368   2.692   4.357
 7693SOL    HW223412   4.230   2.609   4.328
 7694SOL     OW23413   4.583   3.236   3.740
 7694SOL    HW123414   4.537   3.251   3.828
 7694SOL    HW223415   4.627   3.321   3.710
 7695SOL     OW23416   4.385   3.652   4.677
 7695SOL    HW123417   4.339   3.740   4.664
 7695SOL    HW223418   4.484   3.664   4.670
 7696SOL     OW23419   4.583   2.818   4.585
 7696SOL    HW123420   4.637   2.749   4.633
 7696SOL    HW223421   4.551   2.887   4.651
 7697SOL     OW23422   4.807   2.846   3.811
 7697SOL    HW123423   4.784   2.899   3.729
 7697SOL    HW223424   4.888   2.790   3.792
 7698SOL     OW23425   3.945   3.176   5.568
 7698SOL    HW123426   3.880   3.103   5.547
 7698SOL    HW223427   3.949   3.190   5.666
 7699SOL     OW23428   3.803   3.102   4.377
 7699SOL    HW123429   3.802   3.055   4.465
 7699SOL    HW223430   3.885   3.074   4.326
 7700SOL     OW23431   4.396   3.253   5.348
 7700SOL    HW123432   4.318   3.203   5.386
 7700SOL    HW223433   4.393   3.348   5.379
 7701SOL     OW23434   4.152   2.286   4.244
 7701SOL    HW123435   4.182   2.214   4.182
 7701SOL    HW223436   4.113   2.246   4.327
 7702SOL     OW23437   4.041   2.409   5.004
 7702SOL    HW123438   4.079   2.350   5.076
 7702SOL    HW223439   4.081   2.383   4.916
 7703SOL     OW23440   4.536   3.448   4.411
 7703SOL    HW123441   4.568   3.458   4.317
 7703SOL    HW223442   4.457   3.386   4.413
 7704SOL     OW23443   4.725   1.896   4.878
 7704SOL    HW123444   4.662   1.824   4.847
 7704SOL    HW223445   4.818   1.860   4.878
 7705SOL     OW23446   4.494   3.192   4.025
 7705SOL    HW123447   4.448   3.105   4.042
 7705SOL    HW223448   4.585   3.189   4.066
 7706SOL     OW23449   4.342   3.429   5.008
 7706SOL    HW123450   4.337   3.511   5.065
 7706SOL    HW223451   4.431   3.426   4.963
 7707SOL     OW23452   3.763   2.939   4.024
 7707SOL    HW123453   3.862   2.928   4.015
 7707SOL    HW223454   3.723   2.853   4.056
 7708SOL     OW23455   4.599   3.508   4.061
 7708SOL    HW123456   4.522   3.473   4.007
 7708SOL    HW223457   4.567   3.579   4.123
 7709SOL     OW23458   3.954   2.490   5.699
 7709SOL    HW123459   3.861   2.488   5.736
 7709SOL    HW223460   3.955   2.451   5.607
 7710SOL     OW23461   3.949   2.137   6.582
 7710SOL    HW123462   3.984   2.120   6.674
 7710SOL    HW223463   3.861   2.092   6.570
 7711SOL     OW23464   3.743   2.230   6.233
 7711SOL    HW123465   3.661   2.273   6.272
 7711SOL    HW223466   3.715   2.157   6.170
 7712SOL     OW23467   4.293   3.137   6.751
 7712SOL    HW123468   4.200   3.130   6.714
 7712SOL    HW223469   4.304   3.226   6.795
 7713SOL     OW23470   4.859   2.565   6.303
 7713SOL    HW123471   4.916   2.643   6.278
 7713SOL    HW223472   4.799   2.591   6.379
 7714SOL     OW23473   4.492   3.006   6.609
 7714SOL    HW123474   4.414   3.023   6.669
 7714SOL    HW223475   4.526   3.093   6.573
 7715SOL     OW23476   4.574   2.660   7.409
 7715SOL    HW123477   4.570   2.736   7.474
 7715SOL    HW223478   4.596   2.696   7.318
 7716SOL     OW23479   4.409   2.874   6.251
 7716SOL    HW123480   4.478   2.858   6.321
 7716SOL    HW223481   4.336   2.931   6.289
 7717SOL     OW23482   4.410   3.023   7.389
 7717SOL    HW123483   4.470   3.102   7.403
 7717SOL    HW223484   4.324   3.054   7.348
 7718SOL     OW23485   4.059   3.297   6.647
 7718SOL    HW123486   3.981   3.266   6.594
 7718SOL    HW223487   4.117   3.355   6.590
 7719SOL     OW23488   4.162   2.254   7.085
 7719SOL    HW123489   4.244   2.198   7.094
 7719SOL    HW223490   4.081   2.196   7.089
 7720SOL     OW23491   3.955   3.575   6.069
 7720SOL    HW123492   3.989   3.652   6.123
 7720SOL    HW223493   3.999   3.575   5.979
 7721SOL     OW23494   4.851   3.203   7.276
 7721SOL    HW123495   4.898   3.203   7.364
 7721SOL    HW223496   4.803   3.116   7.265
 7722SOL     OW23497   3.954   3.296   6.124
 7722SOL    HW123498   3.928   3.392   6.124
 7722SOL    HW223499   3.883   3.242   6.169
 7723SOL     OW23500   3.964   2.953   6.472
 7723SOL    HW123501   3.978   2.869   6.524
 7723SOL    HW223502   3.909   3.017   6.527
 7724SOL     OW23503   4.344   3.648   7.025
 7724SOL    HW123504   4.252   3.631   7.060
 7724SOL    HW223505   4.372   3.740   7.051
 7725SOL     OW23506   4.330   2.826   5.709
 7725SOL    HW123507   4.337   2.910   5.655
 7725SOL    HW223508   4.376   2.839   5.797
 7726SOL     OW23509   3.846   2.505   6.149
 7726SOL    HW123510   3.801   2.417   6.166
 7726SOL    HW223511   3.845   2.559   6.233
 7727SOL     OW23512   3.751   3.458   5.703
 7727SOL    HW123513   3.732   3.362   5.724
 7727SOL    HW223514   3.718   3.516   5.778
 7728SOL     OW23515   3.837   2.599   7.183
 7728SOL    HW123516   3.925   2.586   7.228
 7728SOL    HW223517   3.824   2.696   7.161
 7729SOL     OW23518   4.337   3.227   6.312
 7729SOL    HW123519   4.288   3.140   6.321
 7729SOL    HW223520   4.314   3.270   6.225
 7730SOL     OW23521   4.533   1.866   6.088
 7730SOL    HW123522   4.573   1.957   6.079
 7730SOL    HW223523   4.433   1.874   6.094
 7731SOL     OW23524   3.921   2.838   6.850
 7731SOL    HW123525   4.010   2.793   6.836
 7731SOL    HW223526   3.848   2.773   6.831
 7732SOL     OW23527   4.041   2.113   7.387
 7732SOL    HW123528   4.112   2.184   7.393
 7732SOL    HW223529   3.953   2.152   7.415
 7733SOL     OW23530   4.322   2.591   5.856
 7733SOL    HW123531   4.346   2.660   5.788
 7733SOL    HW223532   4.244   2.624   5.910
 7734SOL     OW23533   4.531   2.467   7.051
 7734SOL    HW123534   4.484   2.464   7.140
 7734SOL    HW223535   4.480   2.412   6.985
 7735SOL     OW23536   4.697   2.752   7.158
 7735SOL    HW123537   4.743   2.668   7.129
 7735SOL    HW223538   4.641   2.786   7.083
 7736SOL     OW23539   4.715   2.272   6.828
 7736SOL    HW123540   4.638   2.306   6.882
 7736SOL    HW223541   4.681   2.221   6.749
 7737SOL     OW23542   4.765   2.563   6.015
 7737SOL    HW123543   4.791   2.559   6.111
 7737SOL    HW223544   4.680   2.512   6.001
 7738SOL     OW23545   3.800   2.673   6.375
 7738SOL    HW123546   3.899   2.661   6.384
 7738SOL    HW223547   3.776   2.768   6.396
 7739SOL     OW23548   3.854   3.683   7.157
 7739SOL    HW123549   3.844   3.668   7.256
 7739SOL    HW223550   3.768   3.719   7.121
 7740SOL     OW23551   4.589   2.210   5.781
 7740SOL    HW123552   4.648   2.273   5.732
 7740SOL    HW223553   4.608   2.116   5.752
 7741SOL     OW23554   4.274   2.058   6.471
 7741SOL    HW123555   4.269   2.053   6.571
 7741SOL    HW223556   4.276   2.154   6.442
 7742SOL     OW23557   4.732   3.318   6.063
 7742SOL    HW123558   4.686   3.390   6.011
 7742SOL    HW223559   4.728   3.338   6.161
 7743SOL     OW23560   4.075   3.663   6.439
 7743SOL    HW123561   4.125   3.577   6.445
 7743SOL    HW223562   4.140   3.740   6.436
 7744SOL     OW23563   4.951   3.412   7.092
 7744SOL    HW123564   4.957   3.335   7.156
 7744SOL    HW223565   4.899   3.386   7.012
 7745SOL     OW23566   4.045   2.805   5.828
 7745SOL    HW123567   4.127   2.844   5.786
 7745SOL    HW223568   4.018   2.723   5.779
 7746SOL     OW23569   4.185   3.128   7.313
 7746SOL    HW123570   4.135   3.129   7.227
 7746SOL    HW223571   4.122   3.110   7.389
 7747SOL     OW23572   4.835   3.638   5.823
 7747SOL    HW123573   4.775   3.576   5.873
 7747SOL    HW223574   4.866   3.594   5.738
 7748SOL     OW23575   3.926   2.147   7.084
 7748SOL    HW123576   3.846   2.207   7.071
 7748SOL    HW223577   3.916   2.098   7.170
 7749SOL     OW23578   4.188   3.605   5.909
 7749SOL    HW123579   4.221   3.644   5.995
 7749SOL    HW223580   4.264   3.598   5.844
 7750SOL     OW23581   3.973   3.647   6.827
 7750SOL    HW123582   4.030   3.582   6.877
 7750SOL    HW223583   3.957   3.614   6.734
 7751SOL     OW23584   4.664   3.560   6.490
 7751SOL    HW123585   4.744   3.503   6.511
 7751SOL    HW223586   4.615   3.520   6.413
 7752SOL     OW23587   4.106   2.562   6.066
 7752SOL    HW123588   4.151   2.472   6.063
 7752SOL    HW223589   4.012   2.551   6.099
 7753SOL     OW23590   4.338   1.984   5.703
 7753SOL    HW123591   4.436   1.962   5.710
 7753SOL    HW223592   4.307   1.967   5.610
 7754SOL     OW23593   4.505   2.126   7.335
 7754SOL    HW123594   4.572   2.065   7.378
 7754SOL    HW223595   4.432   2.145   7.400
 7755SOL     OW23596   4.612   3.376   6.781
 7755SOL    HW123597   4.589   3.351   6.687
 7755SOL    HW223598   4.673   3.307   6.820
 7756SOL     OW23599   4.527   3.264   6.510
 7756SOL    HW123600   4.617   3.278   6.468
 7756SOL    HW223601   4.456   3.266   6.439
 7757SOL     OW23602   4.646   2.365   6.485
 7757SOL    HW123603   4.621   2.356   6.389
 7757SOL    HW223604   4.694   2.283   6.516
 7758SOL     OW23605   4.263   1.926   6.098
 7758SOL    HW123606   4.182   1.927   6.156
 7758SOL    HW223607   4.266   2.009   6.043
 7759SOL     OW23608   4.021   1.897   5.757
 7759SOL    HW123609   4.070   1.981   5.736
 7759SOL    HW223610   4.083   1.832   5.802
 7760SOL     OW23611   4.659   2.098   6.066
 7760SOL    HW123612   4.611   2.139   5.988
 7760SOL    HW223613   4.758   2.096   6.047
 7761SOL     OW23614   4.800   2.545   7.050
 7761SOL    HW123615   4.720   2.484   7.053
 7761SOL    HW223616   4.881   2.492   7.026
 7762SOL     OW23617   4.951   3.432   6.379
 7762SOL    HW123618   4.972   3.506   6.314
 7762SOL    HW223619   5.019   3.432   6.452
 7763SOL     OW23620   4.183   3.014   6.327
 7763SOL    HW123621   4.112   2.987   6.392
 7763SOL    HW223622   4.157   2.986   6.234
 7764SOL     OW23623   4.995   3.659   6.177
 7764SOL    HW123624   5.039   3.723   6.113
 7764SOL    HW223625   4.945   3.711   6.247
 7765SOL     OW23626   4.756   2.411   5.602
 7765SOL    HW123627   4.715   2.493   5.563
 7765SOL    HW223628   4.820   2.437   5.675
 7766SOL     OW23629   3.802   2.418   6.972
 7766SOL    HW123630   3.894   2.417   6.931
 7766SOL    HW223631   3.796   2.492   7.039
 7767SOL     OW23632   4.285   2.084   6.733
 7767SOL    HW123633   4.323   2.000   6.770
 7767SOL    HW223634   4.197   2.103   6.777
 7768SOL     OW23635   4.590   2.316   6.228
 7768SOL    HW123636   4.558   2.388   6.166
 7768SOL    HW223637   4.614   2.235   6.175
 7769SOL     OW23638   4.741   1.901   6.339
 7769SOL    HW123639   4.669   1.906   6.270
 7769SOL    HW223640   4.717   1.832   6.408
 7770SOL     OW23641   4.212   3.247   5.760
 7770SOL    HW123642   4.125   3.232   5.807
 7770SOL    HW223643   4.195   3.273   5.665
 7771SOL     OW23644   4.251   2.118   5.914
 7771SOL    HW123645   4.278   2.059   5.839
 7771SOL    HW223646   4.251   2.213   5.883
 7772SOL     OW23647   4.788   3.209   6.926
 7772SOL    HW123648   4.708   3.186   6.981
 7772SOL    HW223649   4.871   3.183   6.975
 7773SOL     OW23650   4.835   3.057   6.686
 7773SOL    HW123651   4.795   3.101   6.767
 7773SOL    HW223652   4.794   3.094   6.603
 7774SOL     OW23653   4.639   1.951   6.988
 7774SOL    HW123654   4.664   1.931   6.893
 7774SOL    HW223655   4.711   2.007   7.030
 7775SOL     OW23656   4.704   2.978   7.305
 7775SOL    HW123657   4.605   2.984   7.315
 7775SOL    HW223658   4.727   2.898   7.249
 7776SOL     OW23659   4.429   2.912   5.954
 7776SOL    HW123660   4.415   2.919   6.053
 7776SOL    HW223661   4.513   2.861   5.936
 7777SOL     OW23662   4.134   2.675   6.837
 7777SOL    HW123663   4.220   2.687   6.887
 7777SOL    HW223664   4.092   2.588   6.864
 7778SOL     OW23665   3.788   3.426   6.917
 7778SOL    HW123666   3.742   3.508   6.883
 7778SOL    HW223667   3.886   3.445   6.926
 7779SOL     OW23668   4.091   2.962   6.087
 7779SOL    HW123669   4.084   3.045   6.031
 7779SOL    HW223670   4.095   2.882   6.027
 7780SOL     OW23671   4.290   2.399   6.451
 7780SOL    HW123672   4.302   2.465   6.377
 7780SOL    HW223673   4.336   2.433   6.534
 7781SOL     OW23674   4.976   3.210   5.974
 7781SOL    HW123675   5.026   3.287   6.014
 7781SOL    HW223676   4.881   3.212   6.006
 7782SOL     OW23677   4.078   3.372   6.915
 7782SOL    HW123678   4.057   3.328   6.828
 7782SOL    HW223679   4.175   3.398   6.918
 7783SOL     OW23680   4.126   2.613   7.184
 7783SOL    HW123681   4.194   2.668   7.137
 7783SOL    HW223682   4.166   2.525   7.211
 7784SOL     OW23683   4.737   1.967   7.356
 7784SOL    HW123684   4.743   2.052   7.304
 7784SOL    HW223685   4.769   1.891   7.299
 7785SOL     OW23686   4.228   1.912   7.326
 7785SOL    HW123687   4.186   1.855   7.256
 7785SOL    HW223688   4.162   1.981   7.358
 7786SOL     OW23689   4.297   2.732   6.615
 7786SOL    HW123690   4.341   2.821   6.606
 7786SOL    HW223691   4.234   2.732   6.692
 7787SOL     OW23692   5.084   2.724   6.631
 7787SOL    HW123693   5.009   2.724   6.565
 7787SOL    HW223694   5.121   2.632   6.640
 7788SOL     OW23695   4.933   2.387   5.861
 7788SOL    HW123696   4.946   2.303   5.915
 7788SOL    HW223697   4.904   2.461   5.921
 7789SOL     OW23698   4.031   2.075   6.817
 7789SOL    HW123699   4.008   2.112   6.907
 7789SOL    HW223700   4.001   1.980   6.811
 7790SOL     OW23701   3.761   3.172   6.868
 7790SOL    HW123702   3.814   3.123   6.936
 7790SOL    HW223703   3.783   3.270   6.873
 7791SOL     OW23704   4.456   2.496   6.650
 7791SOL    HW123705   4.515   2.470   6.574
 7791SOL    HW223706   4.428   2.592   6.639
 7792SOL     OW23707   4.031   1.925   6.204
 7792SOL    HW123708   4.020   2.019   6.237
 7792SOL    HW223709   4.026   1.862   6.281
 7793SOL     OW23710   4.747   2.628   6.552
 7793SOL    HW123711   4.762   2.649   6.648
 7793SOL    HW223712   4.717   2.533   6.543
 7794SOL     OW23713   4.704   3.435   7.286
 7794SOL    HW123714   4.684   3.479   7.198
 7794SOL    HW223715   4.743   3.344   7.270
 7795SOL     OW23716   4.074   2.760   7.390
 7795SOL    HW123717   4.150   2.804   7.438
 7795SOL    HW223718   4.109   2.713   7.308
 7796SOL     OW23719   5.264   2.136   5.711
 7796SOL    HW123720   5.203   2.061   5.734
 7796SOL    HW223721   5.286   2.188   5.794
 7797SOL     OW23722   4.792   3.195   6.435
 7797SOL    HW123723   4.799   3.111   6.380
 7797SOL    HW223724   4.854   3.264   6.399
 7798SOL     OW23725   4.043   2.672   6.535
 7798SOL    HW123726   4.136   2.708   6.540
 7798SOL    HW223727   4.037   2.587   6.587
 7799SOL     OW23728   4.063   2.371   6.592
 7799SOL    HW123729   4.011   2.288   6.575
 7799SOL    HW223730   4.140   2.376   6.528
 7800SOL     OW23731   4.862   2.242   7.264
 7800SOL    HW123732   4.817   2.305   7.328
 7800SOL    HW223733   4.955   2.273   7.247
 7801SOL     OW23734   4.884   2.069   7.063
 7801SOL    HW123735   4.884   2.133   7.140
 7801SOL    HW223736   4.912   2.117   6.980
 7802SOL     OW23737   3.732   3.188   5.786
 7802SOL    HW123738   3.639   3.209   5.755
 7802SOL    HW223739   3.742   3.089   5.799
 7803SOL     OW23740   3.812   3.663   6.513
 7803SOL    HW123741   3.770   3.577   6.486
 7803SOL    HW223742   3.906   3.666   6.479
 7804SOL     OW23743   4.228   3.430   6.496
 7804SOL    HW123744   4.294   3.504   6.505
 7804SOL    HW223745   4.272   3.351   6.454
 7805SOL     OW23746   4.726   2.658   6.824
 7805SOL    HW123747   4.767   2.626   6.910
 7805SOL    HW223748   4.630   2.631   6.821
 7806SOL     OW23749   3.764   2.406   6.700
 7806SOL    HW123750   3.849   2.373   6.659
 7806SOL    HW223751   3.777   2.421   6.798
 7807SOL     OW23752   3.913   2.382   7.308
 7807SOL    HW123753   3.972   2.342   7.238
 7807SOL    HW223754   3.855   2.453   7.267
 7808SOL     OW23755   4.539   2.434   5.911
 7808SOL    HW123756   4.546   2.345   5.865
 7808SOL    HW223757   4.445   2.468   5.903
 7809SOL     OW23758   3.976   3.426   7.330
 7809SOL    HW123759   3.946   3.483   7.406
 7809SOL    HW223760   3.969   3.329   7.356
 7810SOL     OW23761   4.395   2.326   6.855
 7810SOL    HW123762   4.361   2.237   6.825
 7810SOL    HW223763   4.421   2.380   6.775
 7811SOL     OW23764   4.654   3.540   7.051
 7811SOL    HW123765   4.630   3.522   6.956
 7811SOL    HW223766   4.684   3.634   7.061
 7812SOL     OW23767   4.197   2.362   5.777
 7812SOL    HW123768   4.258   2.442   5.781
 7812SOL    HW223769   4.102   2.393   5.784
 7813SOL     OW23770   3.883   2.999   7.052
 7813SOL    HW123771   3.905   2.938   7.128
 7813SOL    HW223772   3.893   2.950   6.966
 7814SOL     OW23773   4.976   3.593   6.714
 7814SOL    HW123774   5.060   3.598   6.660
 7814SOL    HW223775   4.953   3.497   6.732
 7815SOL     OW23776   3.807   3.120   6.608
 7815SOL    HW123777   3.802   3.119   6.708
 7815SOL    HW223778   3.724   3.079   6.570
 7816SOL     OW23779   4.412   3.524   7.302
 7816SOL    HW123780   4.356   3.605   7.311
 7816SOL    HW223781   4.464   3.528   7.216
 7817SOL     OW23782   3.854   3.656   7.437
 7817SOL    HW123783   3.813   3.582   7.490
 7817SOL    HW223784   3.918   3.707   7.495
 7818SOL     OW23785   4.554   3.135   7.008
 7818SOL    HW123786   4.549   3.168   7.103
 7818SOL    HW223787   4.468   3.154   6.962
 7819SOL     OW23788   4.396   3.478   5.740
 7819SOL    HW123789   4.405   3.488   5.641
 7819SOL    HW223790   4.356   3.389   5.761
 7820SOL     OW23791   3.987   2.188   6.306
 7820SOL    HW123792   3.908   2.239   6.272
 7820SOL    HW223793   3.978   2.173   6.404
 7821SOL     OW23794   4.546   2.864   6.958
 7821SOL    HW123795   4.586   2.863   6.866
 7821SOL    HW223796   4.556   2.956   6.998
 7822SOL     OW23797   4.640   2.772   5.877
 7822SOL    HW123798   4.703   2.810   5.809
 7822SOL    HW223799   4.680   2.689   5.916
 7823SOL     OW23800   4.096   3.150   7.076
 7823SOL    HW123801   4.083   3.243   7.042
 7823SOL    HW223802   4.012   3.098   7.063
 7824SOL     OW23803   4.763   2.960   6.282
 7824SOL    HW123804   4.693   2.913   6.336
 7824SOL    HW223805   4.822   2.892   6.239
 7825SOL     OW23806   4.738   2.098   6.557
 7825SOL    HW123807   4.730   2.062   6.464
 7825SOL    HW223808   4.736   2.022   6.622
 7826SOL     OW23809   4.314   3.349   6.077
 7826SOL    HW123810   4.356   3.291   6.007
 7826SOL    HW223811   4.270   3.428   6.033
 7827SOL     OW23812   3.979   3.210   5.876
 7827SOL    HW123813   3.883   3.211   5.849
 7827SOL    HW223814   3.991   3.263   5.960
 7828SOL     OW23815   3.829   2.875   7.312
 7828SOL    HW123816   3.752   2.842   7.366
 7828SOL    HW223817   3.914   2.845   7.354
 7829SOL     OW23818   4.396   2.065   7.075
 7829SOL    HW123819   4.486   2.049   7.035
 7829SOL    HW223820   4.404   2.070   7.174
 7830SOL     OW23821   3.799   2.207   5.619
 7830SOL    HW123822   3.707   2.179   5.590
 7830SOL    HW223823   3.830   2.284   5.563
 7831SOL     OW23824   3.796   2.028   5.904
 7831SOL    HW123825   3.779   2.111   5.850
 7831SOL    HW223826   3.886   1.991   5.882
 7832SOL     OW23827   4.337   2.704   7.017
 7832SOL    HW123828   4.393   2.785   7.000
 7832SOL    HW223829   4.396   2.624   7.020
 7833SOL     OW23830   4.440   2.427   7.294
 7833SOL    HW123831   4.459   2.492   7.368
 7833SOL    HW223832   4.500   2.347   7.303
 7834SOL     OW23833   4.114   3.603   7.146
 7834SOL    HW123834   4.023   3.644   7.144
 7834SOL    HW223835   4.107   3.509   7.178
 7835SOL     OW23836   4.318   2.607   6.238
 7835SOL    HW123837   4.368   2.692   6.219
 7835SOL    HW223838   4.230   2.609   6.190
 7836SOL     OW23839   4.583   3.236   5.602
 7836SOL    HW123840   4.537   3.251   5.690
 7836SOL    HW223841   4.627   3.321   5.572
 7837SOL     OW23842   4.385   3.652   6.539
 7837SOL    HW123843   4.339   3.740   6.526
 7837SOL    HW223844   4.484   3.664   6.532
 7838SOL     OW23845   4.583   2.818   6.447
 7838SOL    HW123846   4.637   2.749   6.495
 7838SOL    HW223847   4.551   2.887   6.513
 7839SOL     OW23848   4.807   2.846   5.673
 7839SOL    HW123849   4.784   2.899   5.591
 7839SOL    HW223850   4.888   2.790   5.654
 7840SOL     OW23851   3.945   3.176   7.430
 7840SOL    HW123852   3.880   3.103   7.409
 7840SOL    HW223853   3.949   3.190   7.528
 7841SOL     OW23854   3.803   3.102   6.239
 7841SOL    HW123855   3.802   3.055   6.327
 7841SOL    HW223856   3.885   3.074   6.188
 7842SOL     OW23857   4.396   3.253   7.210
 7842SOL    HW123858   4.318   3.203   7.248
 7842SOL    HW223859   4.393   3.348   7.241
 7843SOL     OW23860   4.152   2.286   6.106
 7843SOL    HW123861   4.182   2.214   6.044
 7843SOL    HW223862   4.113   2.246   6.189
 7844SOL     OW23863   4.041   2.409   6.866
 7844SOL    HW123864   4.079   2.350   6.938
 7844SOL    HW223865   4.081   2.383   6.778
 7845SOL     OW23866   4.536   3.448   6.273
 7845SOL    HW123867   4.568   3.458   6.179
 7845SOL    HW223868   4.457   3.386   6.275
 7846SOL     OW23869   4.725   1.896   6.740
 7846SOL    HW123870   4.662   1.824   6.709
 7846SOL    HW223871   4.818   1.860   6.740
 7847SOL     OW23872   4.494   3.192   5.887
 7847SOL    HW123873   4.448   3.105   5.904
 7847SOL    HW223874   4.585   3.189   5.928
 7848SOL     OW23875   4.342   3.429   6.870
 7848SOL    HW123876   4.337   3.511   6.927
 7848SOL    HW223877   4.431   3.426   6.825
 7849SOL     OW23878   3.763   2.939   5.886
 7849SOL    HW123879   3.862   2.928   5.877
 7849SOL    HW223880   3.723   2.853   5.918
 7850SOL     OW23881   4.599   3.508   5.923
 7850SOL    HW123882   4.522   3.473   5.869
 7850SOL    HW223883   4.567   3.579   5.985
 7851SOL     OW23884   3.954   2.490   7.561
 7851SOL    HW123885   3.861   2.488   7.598
 7851SOL    HW223886   3.955   2.451   7.469
 7852SOL     OW23887   3.949   2.137   8.444
 7852SOL    HW123888   3.984   2.120   8.536
 7852SOL    HW223889   3.861   2.092   8.432
 7853SOL     OW23890   3.743   2.230   8.095
 7853SOL    HW123891   3.661   2.273   8.134
 7853SOL    HW223892   3.715   2.157   8.032
 7854SOL     OW23893   4.293   3.137   8.613
 7854SOL    HW123894   4.200   3.130   8.576
 7854SOL    HW223895   4.304   3.226   8.657
 7855SOL     OW23896   4.859   2.565   8.165
 7855SOL    HW123897   4.916   2.643   8.140
 7855SOL    HW223898   4.799   2.591   8.241
 7856SOL     OW23899   4.492   3.006   8.471
 7856SOL    HW123900   4.414   3.023   8.531
 7856SOL    HW223901   4.526   3.093   8.435
 7857SOL     OW23902   4.574   2.660   9.271
 7857SOL    HW123903   4.570   2.736   9.336
 7857SOL    HW223904   4.596   2.696   9.180
 7858SOL     OW23905   4.409   2.874   8.113
 7858SOL    HW123906   4.478   2.858   8.183
 7858SOL    HW223907   4.336   2.931   8.151
 7859SOL     OW23908   4.410   3.023   9.251
 7859SOL    HW123909   4.470   3.102   9.265
 7859SOL    HW223910   4.324   3.054   9.210
 7860SOL     OW23911   4.059   3.297   8.509
 7860SOL    HW123912   3.981   3.266   8.456
 7860SOL    HW223913   4.117   3.355   8.452
 7861SOL     OW23914   4.162   2.254   8.947
 7861SOL    HW123915   4.244   2.198   8.956
 7861SOL    HW223916   4.081   2.196   8.951
 7862SOL     OW23917   3.955   3.575   7.931
 7862SOL    HW123918   3.989   3.652   7.985
 7862SOL    HW223919   3.999   3.575   7.841
 7863SOL     OW23920   4.851   3.203   9.138
 7863SOL    HW123921   4.898   3.203   9.226
 7863SOL    HW223922   4.803   3.116   9.127
 7864SOL     OW23923   3.954   3.296   7.986
 7864SOL    HW123924   3.928   3.392   7.986
 7864SOL    HW223925   3.883   3.242   8.031
 7865SOL     OW23926   3.964   2.953   8.334
 7865SOL    HW123927   3.978   2.869   8.386
 7865SOL    HW223928   3.909   3.017   8.389
 7866SOL     OW23929   4.344   3.648   8.887
 7866SOL    HW123930   4.252   3.631   8.922
 7866SOL    HW223931   4.372   3.740   8.913
 7867SOL     OW23932   4.330   2.826   7.571
 7867SOL    HW123933   4.337   2.910   7.517
 7867SOL    HW223934   4.376   2.839   7.659
 7868SOL     OW23935   3.846   2.505   8.011
 7868SOL    HW123936   3.801   2.417   8.028
 7868SOL    HW223937   3.845   2.559   8.095
 7869SOL     OW23938   3.751   3.458   7.565
 7869SOL    HW123939   3.732   3.362   7.586
 7869SOL    HW223940   3.718   3.516   7.640
 7870SOL     OW23941   3.837   2.599   9.045
 7870SOL    HW123942   3.925   2.586   9.090
 7870SOL    HW223943   3.824   2.696   9.023
 7871SOL     OW23944   4.337   3.227   8.174
 7871SOL    HW123945   4.288   3.140   8.183
 7871SOL    HW223946   4.314   3.270   8.087
 7872SOL     OW23947   4.533   1.866   7.950
 7872SOL    HW123948   4.573   1.957   7.941
 7872SOL    HW223949   4.433   1.874   7.956
 7873SOL     OW23950   3.921   2.838   8.712
 7873SOL    HW123951   4.010   2.793   8.698
 7873SOL    HW223952   3.848   2.773   8.693
 7874SOL     OW23953   4.041   2.113   9.249
 7874SOL    HW123954   4.112   2.184   9.255
 7874SOL    HW223955   3.953   2.152   9.277
 7875SOL     OW23956   4.322   2.591   7.718
 7875SOL    HW123957   4.346   2.660   7.650
 7875SOL    HW223958   4.244   2.624   7.772
 7876SOL     OW23959   4.531   2.467   8.913
 7876SOL    HW123960   4.484   2.464   9.002
 7876SOL    HW223961   4.480   2.412   8.847
 7877SOL     OW23962   4.697   2.752   9.020
 7877SOL    HW123963   4.743   2.668   8.991
 7877SOL    HW223964   4.641   2.786   8.945
 7878SOL     OW23965   4.715   2.272   8.690
 7878SOL    HW123966   4.638   2.306   8.744
 7878SOL    HW223967   4.681   2.221   8.611
 7879SOL     OW23968   4.765   2.563   7.877
 7879SOL    HW123969   4.791   2.559   7.973
 7879SOL    HW223970   4.680   2.512   7.863
 7880SOL     OW23971   3.800   2.673   8.237
 7880SOL    HW123972   3.899   2.661   8.246
 7880SOL    HW223973   3.776   2.768   8.258
 7881SOL     OW23974   3.854   3.683   9.019
 7881SOL    HW123975   3.844   3.668   9.118
 7881SOL    HW223976   3.768   3.719   8.983
 7882SOL     OW23977   4.589   2.210   7.643
 7882SOL    HW123978   4.648   2.273   7.594
 7882SOL    HW223979   4.608   2.116   7.614
 7883SOL     OW23980   4.274   2.058   8.333
 7883SOL    HW123981   4.269   2.053   8.433
 7883SOL    HW223982   4.276   2.154   8.304
 7884SOL     OW23983   4.732   3.318   7.925
 7884SOL    HW123984   4.686   3.390   7.873
 7884SOL    HW223985   4.728   3.338   8.023
 7885SOL     OW23986   4.075   3.663   8.301
 7885SOL    HW123987   4.125   3.577   8.307
 7885SOL    HW223988   4.140   3.740   8.298
 7886SOL     OW23989   4.951   3.412   8.954
 7886SOL    HW123990   4.957   3.335   9.018
 7886SOL    HW223991   4.899   3.386   8.874
 7887SOL     OW23992   4.045   2.805   7.690
 7887SOL    HW123993   4.127   2.844   7.648
 7887SOL    HW223994   4.018   2.723   7.641
 7888SOL     OW23995   4.185   3.128   9.175
 7888SOL    HW123996   4.135   3.129   9.089
 7888SOL    HW223997   4.122   3.110   9.251
 7889SOL     OW23998   4.835   3.638   7.685
 7889SOL    HW123999   4.775   3.576   7.735
 7889SOL    HW224000   4.866   3.594   7.600
 7890SOL     OW24001   3.926   2.147   8.946
 7890SOL    HW124002   3.846   2.207   8.933
 7890SOL    HW224003   3.916   2.098   9.032
 7891SOL     OW24004   4.188   3.605   7.771
 7891SOL    HW124005   4.221   3.644   7.857
 7891SOL    HW224006   4.264   3.598   7.706
 7892SOL     OW24007   3.973   3.647   8.689
 7892SOL    HW124008   4.030   3.582   8.739
 7892SOL    HW224009   3.957   3.614   8.596
 7893SOL     OW24010   4.664   3.560   8.352
 7893SOL    HW124011   4.744   3.503   8.373
 7893SOL    HW224012   4.615   3.520   8.275
 7894SOL     OW24013   4.106   2.562   7.928
 7894SOL    HW124014   4.151   2.472   7.925
 7894SOL    HW224015   4.012   2.551   7.961
 7895SOL     OW24016   4.338   1.984   7.565
 7895SOL    HW124017   4.436   1.962   7.572
 7895SOL    HW224018   4.307   1.967   7.472
 7896SOL     OW24019   4.505   2.126   9.197
 7896SOL    HW124020   4.572   2.065   9.240
 7896SOL    HW224021   4.432   2.145   9.262
 7897SOL     OW24022   4.612   3.376   8.643
 7897SOL    HW124023   4.589   3.351   8.549
 7897SOL    HW224024   4.673   3.307   8.682
 7898SOL     OW24025   4.527   3.264   8.372
 7898SOL    HW124026   4.617   3.278   8.330
 7898SOL    HW224027   4.456   3.266   8.301
 7899SOL     OW24028   4.646   2.365   8.347
 7899SOL    HW124029   4.621   2.356   8.251
 7899SOL    HW224030   4.694   2.283   8.378
 7900SOL     OW24031   4.263   1.926   7.960
 7900SOL    HW124032   4.182   1.927   8.018
 7900SOL    HW224033   4.266   2.009   7.905
 7901SOL     OW24034   4.021   1.897   7.619
 7901SOL    HW124035   4.070   1.981   7.598
 7901SOL    HW224036   4.083   1.832   7.664
 7902SOL     OW24037   4.659   2.098   7.928
 7902SOL    HW124038   4.611   2.139   7.850
 7902SOL    HW224039   4.758   2.096   7.909
 7903SOL     OW24040   4.800   2.545   8.912
 7903SOL    HW124041   4.720   2.484   8.915
 7903SOL    HW224042   4.881   2.492   8.888
 7904SOL     OW24043   4.951   3.432   8.241
 7904SOL    HW124044   4.972   3.506   8.176
 7904SOL    HW224045   5.019   3.432   8.314
 7905SOL     OW24046   4.183   3.014   8.189
 7905SOL    HW124047   4.112   2.987   8.254
 7905SOL    HW224048   4.157   2.986   8.096
 7906SOL     OW24049   4.995   3.659   8.039
 7906SOL    HW124050   5.039   3.723   7.975
 7906SOL    HW224051   4.945   3.711   8.109
 7907SOL     OW24052   4.756   2.411   7.464
 7907SOL    HW124053   4.715   2.493   7.425
 7907SOL    HW224054   4.820   2.437   7.537
 7908SOL     OW24055   3.802   2.418   8.834
 7908SOL    HW124056   3.894   2.417   8.793
 7908SOL    HW224057   3.796   2.492   8.901
 7909SOL     OW24058   4.285   2.084   8.595
 7909SOL    HW124059   4.323   2.000   8.632
 7909SOL    HW224060   4.197   2.103   8.639
 7910SOL     OW24061   4.590   2.316   8.090
 7910SOL    HW124062   4.558   2.388   8.028
 7910SOL    HW224063   4.614   2.235   8.037
 7911SOL     OW24064   4.741   1.901   8.201
 7911SOL    HW124065   4.669   1.906   8.132
 7911SOL    HW224066   4.717   1.832   8.270
 7912SOL     OW24067   4.212   3.247   7.622
 7912SOL    HW124068   4.125   3.232   7.669
 7912SOL    HW224069   4.195   3.273   7.527
 7913SOL     OW24070   4.251   2.118   7.776
 7913SOL    HW124071   4.278   2.059   7.701
 7913SOL    HW224072   4.251   2.213   7.745
 7914SOL     OW24073   4.788   3.209   8.788
 7914SOL    HW124074   4.708   3.186   8.843
 7914SOL    HW224075   4.871   3.183   8.837
 7915SOL     OW24076   4.835   3.057   8.548
 7915SOL    HW124077   4.795   3.101   8.629
 7915SOL    HW224078   4.794   3.094   8.465
 7916SOL     OW24079   4.639   1.951   8.850
 7916SOL    HW124080   4.664   1.931   8.755
 7916SOL    HW224081   4.711   2.007   8.892
 7917SOL     OW24082   4.704   2.978   9.167
 7917SOL    HW124083   4.605   2.984   9.177
 7917SOL    HW224084   4.727   2.898   9.111
 7918SOL     OW24085   4.429   2.912   7.816
 7918SOL    HW124086   4.415   2.919   7.915
 7918SOL    HW224087   4.513   2.861   7.798
 7919SOL     OW24088   4.134   2.675   8.699
 7919SOL    HW124089   4.220   2.687   8.749
 7919SOL    HW224090   4.092   2.588   8.726
 7920SOL     OW24091   3.788   3.426   8.779
 7920SOL    HW124092   3.742   3.508   8.745
 7920SOL    HW224093   3.886   3.445   8.788
 7921SOL     OW24094   4.091   2.962   7.949
 7921SOL    HW124095   4.084   3.045   7.893
 7921SOL    HW224096   4.095   2.882   7.889
 7922SOL     OW24097   4.290   2.399   8.313
 7922SOL    HW124098   4.302   2.465   8.239
 7922SOL    HW224099   4.336   2.433   8.396
 7923SOL     OW24100   4.976   3.210   7.836
 7923SOL    HW124101   5.026   3.287   7.876
 7923SOL    HW224102   4.881   3.212   7.868
 7924SOL     OW24103   4.078   3.372   8.777
 7924SOL    HW124104   4.057   3.328   8.690
 7924SOL    HW224105   4.175   3.398   8.780
 7925SOL     OW24106   4.126   2.613   9.046
 7925SOL    HW124107   4.194   2.668   8.999
 7925SOL    HW224108   4.166   2.525   9.073
 7926SOL     OW24109   4.737   1.967   9.218
 7926SOL    HW124110   4.743   2.052   9.166
 7926SOL    HW224111   4.769   1.891   9.161
 7927SOL     OW24112   4.228   1.912   9.188
 7927SOL    HW124113   4.186   1.855   9.118
 7927SOL    HW224114   4.162   1.981   9.220
 7928SOL     OW24115   4.297   2.732   8.477
 7928SOL    HW124116   4.341   2.821   8.468
 7928SOL    HW224117   4.234   2.732   8.554
 7929SOL     OW24118   5.084   2.724   8.493
 7929SOL    HW124119   5.009   2.724   8.427
 7929SOL    HW224120   5.121   2.632   8.502
 7930SOL     OW24121   4.933   2.387   7.723
 7930SOL    HW124122   4.946   2.303   7.777
 7930SOL    HW224123   4.904   2.461   7.783
 7931SOL     OW24124   4.031   2.075   8.679
 7931SOL    HW124125   4.008   2.112   8.769
 7931SOL    HW224126   4.001   1.980   8.673
 7932SOL     OW24127   3.761   3.172   8.730
 7932SOL    HW124128   3.814   3.123   8.798
 7932SOL    HW224129   3.783   3.270   8.735
 7933SOL     OW24130   4.456   2.496   8.512
 7933SOL    HW124131   4.515   2.470   8.436
 7933SOL    HW224132   4.428   2.592   8.501
 7934SOL     OW24133   4.031   1.925   8.066
 7934SOL    HW124134   4.020   2.019   8.099
 7934SOL    HW224135   4.026   1.862   8.143
 7935SOL     OW24136   4.747   2.628   8.414
 7935SOL    HW124137   4.762   2.649   8.510
 7935SOL    HW224138   4.717   2.533   8.405
 7936SOL     OW24139   4.704   3.435   9.148
 7936SOL    HW124140   4.684   3.479   9.060
 7936SOL    HW224141   4.743   3.344   9.132
 7937SOL     OW24142   4.074   2.760   9.252
 7937SOL    HW124143   4.150   2.804   9.300
 7937SOL    HW224144   4.109   2.713   9.170
 7938SOL     OW24145   5.264   2.136   7.573
 7938SOL    HW124146   5.203   2.061   7.596
 7938SOL    HW224147   5.286   2.188   7.656
 7939SOL     OW24148   4.792   3.195   8.297
 7939SOL    HW124149   4.799   3.111   8.242
 7939SOL    HW224150   4.854   3.264   8.261
 7940SOL     OW24151   4.043   2.672   8.397
 7940SOL    HW124152   4.136   2.708   8.402
 7940SOL    HW224153   4.037   2.587   8.449
 7941SOL     OW24154   4.063   2.371   8.454
 7941SOL    HW124155   4.011   2.288   8.437
 7941SOL    HW224156   4.140   2.376   8.390
 7942SOL     OW24157   4.862   2.242   9.126
 7942SOL    HW124158   4.817   2.305   9.190
 7942SOL    HW224159   4.955   2.273   9.109
 7943SOL     OW24160   4.884   2.069   8.925
 7943SOL    HW124161   4.884   2.133   9.002
 7943SOL    HW224162   4.912   2.117   8.842
 7944SOL     OW24163   3.732   3.188   7.648
 7944SOL    HW124164   3.639   3.209   7.617
 7944SOL    HW224165   3.742   3.089   7.661
 7945SOL     OW24166   3.812   3.663   8.375
 7945SOL    HW124167   3.770   3.577   8.348
 7945SOL    HW224168   3.906   3.666   8.341
 7946SOL     OW24169   4.228   3.430   8.358
 7946SOL    HW124170   4.294   3.504   8.367
 7946SOL    HW224171   4.272   3.351   8.316
 7947SOL     OW24172   4.726   2.658   8.686
 7947SOL    HW124173   4.767   2.626   8.772
 7947SOL    HW224174   4.630   2.631   8.683
 7948SOL     OW24175   3.764   2.406   8.562
 7948SOL    HW124176   3.849   2.373   8.521
 7948SOL    HW224177   3.777   2.421   8.660
 7949SOL     OW24178   3.913   2.382   9.170
 7949SOL    HW124179   3.972   2.342   9.100
 7949SOL    HW224180   3.855   2.453   9.129
 7950SOL     OW24181   4.539   2.434   7.773
 7950SOL    HW124182   4.546   2.345   7.727
 7950SOL    HW224183   4.445   2.468   7.765
 7951SOL     OW24184   3.976   3.426   9.192
 7951SOL    HW124185   3.946   3.483   9.268
 7951SOL    HW224186   3.969   3.329   9.218
 7952SOL     OW24187   4.395   2.326   8.717
 7952SOL    HW124188   4.361   2.237   8.687
 7952SOL    HW224189   4.421   2.380   8.637
 7953SOL     OW24190   4.654   3.540   8.913
 7953SOL    HW124191   4.630   3.522   8.818
 7953SOL    HW224192   4.684   3.634   8.923
 7954SOL     OW24193   4.197   2.362   7.639
 7954SOL    HW124194   4.258   2.442   7.643
 7954SOL    HW224195   4.102   2.393   7.646
 7955SOL     OW24196   3.883   2.999   8.914
 7955SOL    HW124197   3.905   2.938   8.990
 7955SOL    HW224198   3.893   2.950   8.828
 7956SOL     OW24199   4.976   3.593   8.576
 7956SOL    HW124200   5.060   3.598   8.522
 7956SOL    HW224201   4.953   3.497   8.594
 7957SOL     OW24202   3.807   3.120   8.470
 7957SOL    HW124203   3.802   3.119   8.570
 7957SOL    HW224204   3.724   3.079   8.432
 7958SOL     OW24205   4.412   3.524   9.164
 7958SOL    HW124206   4.356   3.605   9.173
 7958SOL    HW224207   4.464   3.528   9.078
 7959SOL     OW24208   3.854   3.656   9.299
 7959SOL    HW124209   3.813   3.582   9.352
 7959SOL    HW224210   3.918   3.707   9.357
 7960SOL     OW24211   4.554   3.135   8.870
 7960SOL    HW124212   4.549   3.168   8.965
 7960SOL    HW224213   4.468   3.154   8.824
 7961SOL     OW24214   4.396   3.478   7.602
 7961SOL    HW124215   4.405   3.488   7.503
 7961SOL    HW224216   4.356   3.389   7.623
 7962SOL     OW24217   3.987   2.188   8.168
 7962SOL    HW124218   3.908   2.239   8.134
 7962SOL    HW224219   3.978   2.173   8.266
 7963SOL     OW24220   4.546   2.864   8.820
 7963SOL    HW124221   4.586   2.863   8.728
 7963SOL    HW224222   4.556   2.956   8.860
 7964SOL     OW24223   4.640   2.772   7.739
 7964SOL    HW124224   4.703   2.810   7.671
 7964SOL    HW224225   4.680   2.689   7.778
 7965SOL     OW24226   4.096   3.150   8.938
 7965SOL    HW124227   4.083   3.243   8.904
 7965SOL    HW224228   4.012   3.098   8.925
 7966SOL     OW24229   4.763   2.960   8.144
 7966SOL    HW124230   4.693   2.913   8.198
 7966SOL    HW224231   4.822   2.892   8.101
 7967SOL     OW24232   4.738   2.098   8.419
 7967SOL    HW124233   4.730   2.062   8.326
 7967SOL    HW224234   4.736   2.022   8.484
 7968SOL     OW24235   4.314   3.349   7.939
 7968SOL    HW124236   4.356   3.291   7.869
 7968SOL    HW224237   4.270   3.428   7.895
 7969SOL     OW24238   3.979   3.210   7.738
 7969SOL    HW124239   3.883   3.211   7.711
 7969SOL    HW224240   3.991   3.263   7.822
 7970SOL     OW24241   3.829   2.875   9.174
 7970SOL    HW124242   3.752   2.842   9.228
 7970SOL    HW224243   3.914   2.845   9.216
 7971SOL     OW24244   4.396   2.065   8.937
 7971SOL    HW124245   4.486   2.049   8.897
 7971SOL    HW224246   4.404   2.070   9.036
 7972SOL     OW24247   3.799   2.207   7.481
 7972SOL    HW124248   3.707   2.179   7.452
 7972SOL    HW224249   3.830   2.284   7.425
 7973SOL     OW24250   3.796   2.028   7.766
 7973SOL    HW124251   3.779   2.111   7.712
 7973SOL    HW224252   3.886   1.991   7.744
 7974SOL     OW24253   4.337   2.704   8.879
 7974SOL    HW124254   4.393   2.785   8.862
 7974SOL    HW224255   4.396   2.624   8.882
 7975SOL     OW24256   4.440   2.427   9.156
 7975SOL    HW124257   4.459   2.492   9.230
 7975SOL    HW224258   4.500   2.347   9.165
 7976SOL     OW24259   4.114   3.603   9.008
 7976SOL    HW124260   4.023   3.644   9.006
 7976SOL    HW224261   4.107   3.509   9.040
 7977SOL     OW24262   4.318   2.607   8.100
 7977SOL    HW124263   4.368   2.692   8.081
 7977SOL    HW224264   4.230   2.609   8.052
 7978SOL     OW24265   4.583   3.236   7.464
 7978SOL    HW124266   4.537   3.251   7.552
 7978SOL    HW224267   4.627   3.321   7.434
 7979SOL     OW24268   4.385   3.652   8.401
 7979SOL    HW124269   4.339   3.740   8.388
 7979SOL    HW224270   4.484   3.664   8.394
 7980SOL     OW24271   4.583   2.818   8.309
 7980SOL    HW124272   4.637   2.749   8.357
 7980SOL    HW224273   4.551   2.887   8.375
 7981SOL     OW24274   4.807   2.846   7.535
 7981SOL    HW124275   4.784   2.899   7.453
 7981SOL    HW224276   4.888   2.790   7.516
 7982SOL     OW24277   3.945   3.176   9.292
 7982SOL    HW124278   3.880   3.103   9.271
 7982SOL    HW224279   3.949   3.190   9.390
 7983SOL     OW24280   3.803   3.102   8.101
 7983SOL    HW124281   3.802   3.055   8.189
 7983SOL    HW224282   3.885   3.074   8.050
 7984SOL     OW24283   4.396   3.253   9.072
 7984SOL    HW124284   4.318   3.203   9.110
 7984SOL    HW224285   4.393   3.348   9.103
 7985SOL     OW24286   4.152   2.286   7.968
 7985SOL    HW124287   4.182   2.214   7.906
 7985SOL    HW224288   4.113   2.246   8.051
 7986SOL     OW24289   4.041   2.409   8.728
 7986SOL    HW124290   4.079   2.350   8.800
 7986SOL    HW224291   4.081   2.383   8.640
 7987SOL     OW24292   4.536   3.448   8.135
 7987SOL    HW124293   4.568   3.458   8.041
 7987SOL    HW224294   4.457   3.386   8.137
 7988SOL     OW24295   4.725   1.896   8.602
 7988SOL    HW124296   4.662   1.824   8.571
 7988SOL    HW224297   4.818   1.860   8.602
 7989SOL     OW24298   4.494   3.192   7.749
 7989SOL    HW124299   4.448   3.105   7.766
 7989SOL    HW224300   4.585   3.189   7.790
 7990SOL     OW24301   4.342   3.429   8.732
 7990SOL    HW124302   4.337   3.511   8.789
 7990SOL    HW224303   4.431   3.426   8.687
 7991SOL     OW24304   3.763   2.939   7.748
 7991SOL    HW124305   3.862   2.928   7.739
 7991SOL    HW224306   3.723   2.853   7.780
 7992SOL     OW24307   4.599   3.508   7.785
 7992SOL    HW124308   4.522   3.473   7.731
 7992SOL    HW224309   4.567   3.579   7.847
 7993SOL     OW24310   3.954   2.490   9.423
 7993SOL    HW124311   3.861   2.488   9.460
 7993SOL    HW224312   3.955   2.451   9.331
 7994SOL     OW24313   3.949   2.137  10.306
 7994SOL    HW124314   3.984   2.120  10.398
 7994SOL    HW224315   3.861   2.092  10.294
 7995SOL     OW24316   3.743   2.230   9.957
 7995SOL    HW124317   3.661   2.273   9.996
 7995SOL    HW224318   3.715   2.157   9.894
 7996SOL     OW24319   4.293   3.137  10.475
 7996SOL    HW124320   4.200   3.130  10.438
 7996SOL    HW224321   4.304   3.226  10.519
 7997SOL     OW24322   4.859   2.565  10.027
 7997SOL    HW124323   4.916   2.643  10.002
 7997SOL    HW224324   4.799   2.591  10.103
 7998SOL     OW24325   4.492   3.006  10.333
 7998SOL    HW124326   4.414   3.023  10.393
 7998SOL    HW224327   4.526   3.093  10.297
 7999SOL     OW24328   4.409   2.874   9.975
 7999SOL    HW124329   4.478   2.858  10.045
 7999SOL    HW224330   4.336   2.931  10.013
 8000SOL     OW24331   4.059   3.297  10.371
 8000SOL    HW124332   3.981   3.266  10.318
 8000SOL    HW224333   4.117   3.355  10.314
 8001SOL     OW24334   4.162   2.254  10.809
 8001SOL    HW124335   4.244   2.198  10.818
 8001SOL    HW224336   4.081   2.196  10.813
 8002SOL     OW24337   3.955   3.575   9.793
 8002SOL    HW124338   3.989   3.652   9.847
 8002SOL    HW224339   3.999   3.575   9.703
 8003SOL     OW24340   3.954   3.296   9.848
 8003SOL    HW124341   3.928   3.392   9.848
 8003SOL    HW224342   3.883   3.242   9.893
 8004SOL     OW24343   3.964   2.953  10.196
 8004SOL    HW124344   3.978   2.869  10.248
 8004SOL    HW224345   3.909   3.017  10.251
 8005SOL     OW24346   4.344   3.648  10.749
 8005SOL    HW124347   4.252   3.631  10.784
 8005SOL    HW224348   4.372   3.740  10.775
 8006SOL     OW24349   4.330   2.826   9.433
 8006SOL    HW124350   4.337   2.910   9.379
 8006SOL    HW224351   4.376   2.839   9.521
 8007SOL     OW24352   3.846   2.505   9.873
 8007SOL    HW124353   3.801   2.417   9.890
 8007SOL    HW224354   3.845   2.559   9.957
 8008SOL     OW24355   3.751   3.458   9.427
 8008SOL    HW124356   3.732   3.362   9.448
 8008SOL    HW224357   3.718   3.516   9.502
 8009SOL     OW24358   4.337   3.227  10.036
 8009SOL    HW124359   4.288   3.140  10.045
 8009SOL    HW224360   4.314   3.270   9.949
 8010SOL     OW24361   4.533   1.866   9.812
 8010SOL    HW124362   4.573   1.957   9.803
 8010SOL    HW224363   4.433   1.874   9.818
 8011SOL     OW24364   3.921   2.838  10.574
 8011SOL    HW124365   4.010   2.793  10.560
 8011SOL    HW224366   3.848   2.773  10.555
 8012SOL     OW24367   4.322   2.591   9.580
 8012SOL    HW124368   4.346   2.660   9.512
 8012SOL    HW224369   4.244   2.624   9.634
 8013SOL     OW24370   4.531   2.467  10.775
 8013SOL    HW124371   4.484   2.464  10.864
 8013SOL    HW224372   4.480   2.412  10.709
 8014SOL     OW24373   4.715   2.272  10.552
 8014SOL    HW124374   4.638   2.306  10.606
 8014SOL    HW224375   4.681   2.221  10.473
 8015SOL     OW24376   4.765   2.563   9.739
 8015SOL    HW124377   4.791   2.559   9.835
 8015SOL    HW224378   4.680   2.512   9.725
 8016SOL     OW24379   3.800   2.673  10.099
 8016SOL    HW124380   3.899   2.661  10.108
 8016SOL    HW224381   3.776   2.768  10.120
 8017SOL     OW24382   3.854   3.683  10.881
 8017SOL    HW124383   3.844   3.668  10.980
 8017SOL    HW224384   3.768   3.719  10.845
 8018SOL     OW24385   4.589   2.210   9.505
 8018SOL    HW124386   4.648   2.273   9.456
 8018SOL    HW224387   4.608   2.116   9.476
 8019SOL     OW24388   4.274   2.058  10.195
 8019SOL    HW124389   4.269   2.053  10.295
 8019SOL    HW224390   4.276   2.154  10.166
 8020SOL     OW24391   4.732   3.318   9.787
 8020SOL    HW124392   4.686   3.390   9.735
 8020SOL    HW224393   4.728   3.338   9.885
 8021SOL     OW24394   4.075   3.663  10.163
 8021SOL    HW124395   4.125   3.577  10.169
 8021SOL    HW224396   4.140   3.740  10.160
 8022SOL     OW24397   4.045   2.805   9.552
 8022SOL    HW124398   4.127   2.844   9.510
 8022SOL    HW224399   4.018   2.723   9.503
 8023SOL     OW24400   4.835   3.638   9.547
 8023SOL    HW124401   4.775   3.576   9.597
 8023SOL    HW224402   4.866   3.594   9.462
 8024SOL     OW24403   4.188   3.605   9.633
 8024SOL    HW124404   4.221   3.644   9.719
 8024SOL    HW224405   4.264   3.598   9.568
 8025SOL     OW24406   3.973   3.647  10.551
 8025SOL    HW124407   4.030   3.582  10.601
 8025SOL    HW224408   3.957   3.614  10.458
 8026SOL     OW24409   4.664   3.560  10.214
 8026SOL    HW124410   4.744   3.503  10.235
 8026SOL    HW224411   4.615   3.520  10.137
 8027SOL     OW24412   4.106   2.562   9.790
 8027SOL    HW124413   4.151   2.472   9.787
 8027SOL    HW224414   4.012   2.551   9.823
 8028SOL     OW24415   4.338   1.984   9.427
 8028SOL    HW124416   4.436   1.962   9.434
 8028SOL    HW224417   4.307   1.967   9.334
 8029SOL     OW24418   4.612   3.376  10.505
 8029SOL    HW124419   4.589   3.351  10.411
 8029SOL    HW224420   4.673   3.307  10.544
 8030SOL     OW24421   4.527   3.264  10.234
 8030SOL    HW124422   4.617   3.278  10.192
 8030SOL    HW224423   4.456   3.266  10.163
 8031SOL     OW24424   4.646   2.365  10.209
 8031SOL    HW124425   4.621   2.356  10.113
 8031SOL    HW224426   4.694   2.283  10.240
 8032SOL     OW24427   4.263   1.926   9.822
 8032SOL    HW124428   4.182   1.927   9.880
 8032SOL    HW224429   4.266   2.009   9.767
 8033SOL     OW24430   4.021   1.897   9.481
 8033SOL    HW124431   4.070   1.981   9.460
 8033SOL    HW224432   4.083   1.832   9.526
 8034SOL     OW24433   4.659   2.098   9.790
 8034SOL    HW124434   4.611   2.139   9.712
 8034SOL    HW224435   4.758   2.096   9.771
 8035SOL     OW24436   4.951   3.432  10.103
 8035SOL    HW124437   4.972   3.506  10.038
 8035SOL    HW224438   5.019   3.432  10.176
 8036SOL     OW24439   4.183   3.014  10.051
 8036SOL    HW124440   4.112   2.987  10.116
 8036SOL    HW224441   4.157   2.986   9.958
 8037SOL     OW24442   4.995   3.659   9.901
 8037SOL    HW124443   5.039   3.723   9.837
 8037SOL    HW224444   4.945   3.711   9.971
 8038SOL     OW24445   4.756   2.411   9.326
 8038SOL    HW124446   4.715   2.493   9.287
 8038SOL    HW224447   4.820   2.437   9.399
 8039SOL     OW24448   3.802   2.418  10.696
 8039SOL    HW124449   3.894   2.417  10.655
 8039SOL    HW224450   3.796   2.492  10.763
 8040SOL     OW24451   4.285   2.084  10.457
 8040SOL    HW124452   4.323   2.000  10.494
 8040SOL    HW224453   4.197   2.103  10.501
 8041SOL     OW24454   4.590   2.316   9.952
 8041SOL    HW124455   4.558   2.388   9.890
 8041SOL    HW224456   4.614   2.235   9.899
 8042SOL     OW24457   4.741   1.901  10.063
 8042SOL    HW124458   4.669   1.906   9.994
 8042SOL    HW224459   4.717   1.832  10.132
 8043SOL     OW24460   4.212   3.247   9.484
 8043SOL    HW124461   4.125   3.232   9.531
 8043SOL    HW224462   4.195   3.273   9.389
 8044SOL     OW24463   4.251   2.118   9.638
 8044SOL    HW124464   4.278   2.059   9.563
 8044SOL    HW224465   4.251   2.213   9.607
 8045SOL     OW24466   4.788   3.209  10.650
 8045SOL    HW124467   4.708   3.186  10.705
 8045SOL    HW224468   4.871   3.183  10.699
 8046SOL     OW24469   4.835   3.057  10.410
 8046SOL    HW124470   4.795   3.101  10.491
 8046SOL    HW224471   4.794   3.094  10.327
 8047SOL     OW24472   4.429   2.912   9.678
 8047SOL    HW124473   4.415   2.919   9.777
 8047SOL    HW224474   4.513   2.861   9.660
 8048SOL     OW24475   4.134   2.675  10.561
 8048SOL    HW124476   4.220   2.687  10.611
 8048SOL    HW224477   4.092   2.588  10.588
 8049SOL     OW24478   3.788   3.426  10.641
 8049SOL    HW124479   3.742   3.508  10.607
 8049SOL    HW224480   3.886   3.445  10.650
 8050SOL     OW24481   4.091   2.962   9.811
 8050SOL    HW124482   4.084   3.045   9.755
 8050SOL    HW224483   4.095   2.882   9.751
 8051SOL     OW24484   4.290   2.399  10.175
 8051SOL    HW124485   4.302   2.465  10.101
 8051SOL    HW224486   4.336   2.433  10.258
 8052SOL     OW24487   4.976   3.210   9.698
 8052SOL    HW124488   5.026   3.287   9.738
 8052SOL    HW224489   4.881   3.212   9.730
 8053SOL     OW24490   4.078   3.372  10.639
 8053SOL    HW124491   4.057   3.328  10.552
 8053SOL    HW224492   4.175   3.398  10.642
 8054SOL     OW24493   4.126   2.613  10.908
 8054SOL    HW124494   4.194   2.668  10.861
 8054SOL    HW224495   4.166   2.525  10.935
 8055SOL     OW24496   4.297   2.732  10.339
 8055SOL    HW124497   4.341   2.821  10.330
 8055SOL    HW224498   4.234   2.732  10.416
 8056SOL     OW24499   5.084   2.724  10.355
 8056SOL    HW124500   5.009   2.724  10.289
 8056SOL    HW224501   5.121   2.632  10.364
 8057SOL     OW24502   4.933   2.387   9.585
 8057SOL    HW124503   4.946   2.303   9.639
 8057SOL    HW224504   4.904   2.461   9.645
 8058SOL     OW24505   4.031   2.075  10.541
 8058SOL    HW124506   4.008   2.112  10.631
 8058SOL    HW224507   4.001   1.980  10.535
 8059SOL     OW24508   3.761   3.172  10.592
 8059SOL    HW124509   3.814   3.123  10.660
 8059SOL    HW224510   3.783   3.270  10.597
 8060SOL     OW24511   4.456   2.496  10.374
 8060SOL    HW124512   4.515   2.470  10.298
 8060SOL    HW224513   4.428   2.592  10.363
 8061SOL     OW24514   4.031   1.925   9.928
 8061SOL    HW124515   4.020   2.019   9.961
 8061SOL    HW224516   4.026   1.862  10.005
 8062SOL     OW24517   4.747   2.628  10.276
 8062SOL    HW124518   4.762   2.649  10.372
 8062SOL    HW224519   4.717   2.533  10.267
 8063SOL     OW24520   4.704   3.435  11.010
 8063SOL    HW124521   4.684   3.479  10.922
 8063SOL    HW224522   4.743   3.344  10.994
 8064SOL     OW24523   5.264   2.136   9.435
 8064SOL    HW124524   5.203   2.061   9.458
 8064SOL    HW224525   5.286   2.188   9.518
 8065SOL     OW24526   4.792   3.195  10.159
 8065SOL    HW124527   4.799   3.111  10.104
 8065SOL    HW224528   4.854   3.264  10.123
 8066SOL     OW24529   4.043   2.672  10.259
 8066SOL    HW124530   4.136   2.708  10.264
 8066SOL    HW224531   4.037   2.587  10.311
 8067SOL     OW24532   4.063   2.371  10.316
 8067SOL    HW124533   4.011   2.288  10.299
 8067SOL    HW224534   4.140   2.376  10.252
 8068SOL     OW24535   3.732   3.188   9.510
 8068SOL    HW124536   3.639   3.209   9.479
 8068SOL    HW224537   3.742   3.089   9.523
 8069SOL     OW24538   3.812   3.663  10.237
 8069SOL    HW124539   3.770   3.577  10.210
 8069SOL    HW224540   3.906   3.666  10.203
 8070SOL     OW24541   4.228   3.430  10.220
 8070SOL    HW124542   4.294   3.504  10.229
 8070SOL    HW224543   4.272   3.351  10.178
 8071SOL     OW24544   4.726   2.658  10.548
 8071SOL    HW124545   4.767   2.626  10.634
 8071SOL    HW224546   4.630   2.631  10.545
 8072SOL     OW24547   3.764   2.406  10.424
 8072SOL    HW124548   3.849   2.373  10.383
 8072SOL    HW224549   3.777   2.421  10.522
 8073SOL     OW24550   4.539   2.434   9.635
 8073SOL    HW124551   4.546   2.345   9.589
 8073SOL    HW224552   4.445   2.468   9.627
 8074SOL     OW24553   4.395   2.326  10.579
 8074SOL    HW124554   4.361   2.237  10.549
 8074SOL    HW224555   4.421   2.380  10.499
 8075SOL     OW24556   4.654   3.540  10.775
 8075SOL    HW124557   4.630   3.522  10.680
 8075SOL    HW224558   4.684   3.634  10.785
 8076SOL     OW24559   4.197   2.362   9.501
 8076SOL    HW124560   4.258   2.442   9.505
 8076SOL    HW224561   4.102   2.393   9.508
 8077SOL     OW24562   3.883   2.999  10.776
 8077SOL    HW124563   3.905   2.938  10.852
 8077SOL    HW224564   3.893   2.950  10.690
 8078SOL     OW24565   4.976   3.593  10.438
 8078SOL    HW124566   5.060   3.598  10.384
 8078SOL    HW224567   4.953   3.497  10.456
 8079SOL     OW24568   3.807   3.120  10.332
 8079SOL    HW124569   3.802   3.119  10.432
 8079SOL    HW224570   3.724   3.079  10.294
 8080SOL     OW24571   4.396   3.478   9.464
 8080SOL    HW124572   4.405   3.488   9.365
 8080SOL    HW224573   4.356   3.389   9.485
 8081SOL     OW24574   3.987   2.188  10.030
 8081SOL    HW124575   3.908   2.239   9.996
 8081SOL    HW224576   3.978   2.173  10.128
 8082SOL     OW24577   4.546   2.864  10.682
 8082SOL    HW124578   4.586   2.863  10.590
 8082SOL    HW224579   4.556   2.956  10.722
 8083SOL     OW24580   4.640   2.772   9.601
 8083SOL    HW124581   4.703   2.810   9.533
 8083SOL    HW224582   4.680   2.689   9.640
 8084SOL     OW24583   4.096   3.150  10.800
 8084SOL    HW124584   4.083   3.243  10.766
 8084SOL    HW224585   4.012   3.098  10.787
 8085SOL     OW24586   4.763   2.960  10.006
 8085SOL    HW124587   4.693   2.913  10.060
 8085SOL    HW224588   4.822   2.892   9.963
 8086SOL     OW24589   4.738   2.098  10.281
 8086SOL    HW124590   4.730   2.062  10.188
 8086SOL    HW224591   4.736   2.022  10.346
 8087SOL     OW24592   4.314   3.349   9.801
 8087SOL    HW124593   4.356   3.291   9.731
 8087SOL    HW224594   4.270   3.428   9.757
 8088SOL     OW24595   3.979   3.210   9.600
 8088SOL    HW124596   3.883   3.211   9.573
 8088SOL    HW224597   3.991   3.263   9.684
 8089SOL     OW24598   4.396   2.065  10.799
 8089SOL    HW124599   4.486   2.049  10.759
 8089SOL    HW224600   4.404   2.070  10.898
 8090SOL     OW24601   3.799   2.207   9.343
 8090SOL    HW124602   3.707   2.179   9.314
 8090SOL    HW224603   3.830   2.284   9.287
 8091SOL     OW24604   3.796   2.028   9.628
 8091SOL    HW124605   3.779   2.111   9.574
 8091SOL    HW224606   3.886   1.991   9.606
 8092SOL     OW24607   4.337   2.704  10.741
 8092SOL    HW124608   4.393   2.785  10.724
 8092SOL    HW224609   4.396   2.624  10.744
 8093SOL     OW24610   4.114   3.603  10.870
 8093SOL    HW124611   4.023   3.644  10.868
 8093SOL    HW224612   4.107   3.509  10.902
 8094SOL     OW24613   4.318   2.607   9.962
 8094SOL    HW124614   4.368   2.692   9.943
 8094SOL    HW224615   4.230   2.609   9.914
 8095SOL     OW24616   4.583   3.236   9.326
 8095SOL    HW124617   4.537   3.251   9.414
 8095SOL    HW224618   4.627   3.321   9.296
 8096SOL     OW24619   4.385   3.652  10.263
 8096SOL    HW124620   4.339   3.740  10.250
 8096SOL    HW224621   4.484   3.664  10.256
 8097SOL     OW24622   4.583   2.818  10.171
 8097SOL    HW124623   4.637   2.749  10.219
 8097SOL    HW224624   4.551   2.887  10.237
 8098SOL     OW24625   4.807   2.846   9.397
 8098SOL    HW124626   4.784   2.899   9.315
 8098SOL    HW224627   4.888   2.790   9.378
 8099SOL     OW24628   3.803   3.102   9.963
 8099SOL    HW124629   3.802   3.055  10.051
 8099SOL    HW224630   3.885   3.074   9.912
 8100SOL     OW24631   4.152   2.286   9.830
 8100SOL    HW124632   4.182   2.214   9.768
 8100SOL    HW224633   4.113   2.246   9.913
 8101SOL     OW24634   4.041   2.409  10.590
 8101SOL    HW124635   4.079   2.350  10.662
 8101SOL    HW224636   4.081   2.383  10.502
 8102SOL     OW24637   4.536   3.448   9.997
 8102SOL    HW124638   4.568   3.458   9.903
 8102SOL    HW224639   4.457   3.386   9.999
 8103SOL     OW24640   4.725   1.896  10.464
 8103SOL    HW124641   4.662   1.824  10.433
 8103SOL    HW224642   4.818   1.860  10.464
 8104SOL     OW24643   4.494   3.192   9.611
 8104SOL    HW124644   4.448   3.105   9.628
 8104SOL    HW224645   4.585   3.189   9.652
 8105SOL     OW24646   4.342   3.429  10.594
 8105SOL    HW124647   4.337   3.511  10.651
 8105SOL    HW224648   4.431   3.426  10.549
 8106SOL     OW24649   3.763   2.939   9.610
 8106SOL    HW124650   3.862   2.928   9.601
 8106SOL    HW224651   3.723   2.853   9.642
 8107SOL     OW24652   4.599   3.508   9.647
 8107SOL    HW124653   4.522   3.473   9.593
 8107SOL    HW224654   4.567   3.579   9.709
 8108SOL     OW24655   3.954   4.352   0.113
 8108SOL    HW124656   3.861   4.350   0.150
 8108SOL    HW224657   3.955   4.313   0.021
 8109SOL     OW24658   3.949   3.999   0.996
 8109SOL    HW124659   3.984   3.982   1.088
 8109SOL    HW224660   3.861   3.954   0.984
 8110SOL     OW24661   3.743   4.092   0.647
 8110SOL    HW124662   3.661   4.135   0.686
 8110SOL    HW224663   3.715   4.019   0.584
 8111SOL     OW24664   4.859   4.427   0.717
 8111SOL    HW124665   4.916   4.505   0.692
 8111SOL    HW224666   4.799   4.453   0.793
 8112SOL     OW24667   4.492   4.868   1.023
 8112SOL    HW124668   4.414   4.885   1.083
 8112SOL    HW224669   4.526   4.955   0.987
 8113SOL     OW24670   4.574   4.522   1.823
 8113SOL    HW124671   4.570   4.598   1.888
 8113SOL    HW224672   4.596   4.558   1.732
 8114SOL     OW24673   4.409   4.736   0.665
 8114SOL    HW124674   4.478   4.720   0.735
 8114SOL    HW224675   4.336   4.793   0.703
 8115SOL     OW24676   4.410   4.885   1.803
 8115SOL    HW124677   4.470   4.964   1.817
 8115SOL    HW224678   4.324   4.916   1.762
 8116SOL     OW24679   4.162   4.116   1.499
 8116SOL    HW124680   4.244   4.060   1.508
 8116SOL    HW224681   4.081   4.058   1.503
 8117SOL     OW24682   3.964   4.815   0.886
 8117SOL    HW124683   3.978   4.731   0.938
 8117SOL    HW224684   3.909   4.879   0.941
 8118SOL     OW24685   4.330   4.688   0.123
 8118SOL    HW124686   4.337   4.772   0.069
 8118SOL    HW224687   4.376   4.701   0.211
 8119SOL     OW24688   3.846   4.367   0.563
 8119SOL    HW124689   3.801   4.279   0.580
 8119SOL    HW224690   3.845   4.421   0.647
 8120SOL     OW24691   3.837   4.461   1.597
 8120SOL    HW124692   3.925   4.448   1.642
 8120SOL    HW224693   3.824   4.558   1.575
 8121SOL     OW24694   4.533   3.728   0.502
 8121SOL    HW124695   4.573   3.819   0.493
 8121SOL    HW224696   4.433   3.736   0.508
 8122SOL     OW24697   3.921   4.700   1.264
 8122SOL    HW124698   4.010   4.655   1.250
 8122SOL    HW224699   3.848   4.635   1.245
 8123SOL     OW24700   4.041   3.975   1.801
 8123SOL    HW124701   4.112   4.046   1.807
 8123SOL    HW224702   3.953   4.014   1.829
 8124SOL     OW24703   4.322   4.453   0.270
 8124SOL    HW124704   4.346   4.522   0.202
 8124SOL    HW224705   4.244   4.486   0.324
 8125SOL     OW24706   4.531   4.329   1.465
 8125SOL    HW124707   4.484   4.326   1.554
 8125SOL    HW224708   4.480   4.274   1.399
 8126SOL     OW24709   4.697   4.614   1.572
 8126SOL    HW124710   4.743   4.530   1.543
 8126SOL    HW224711   4.641   4.648   1.497
 8127SOL     OW24712   4.715   4.134   1.242
 8127SOL    HW124713   4.638   4.168   1.296
 8127SOL    HW224714   4.681   4.083   1.163
 8128SOL     OW24715   4.765   4.425   0.429
 8128SOL    HW124716   4.791   4.421   0.525
 8128SOL    HW224717   4.680   4.374   0.415
 8129SOL     OW24718   3.800   4.535   0.789
 8129SOL    HW124719   3.899   4.523   0.798
 8129SOL    HW224720   3.776   4.630   0.810
 8130SOL     OW24721   4.589   4.072   0.195
 8130SOL    HW124722   4.648   4.135   0.146
 8130SOL    HW224723   4.608   3.978   0.166
 8131SOL     OW24724   4.274   3.920   0.885
 8131SOL    HW124725   4.269   3.915   0.985
 8131SOL    HW224726   4.276   4.016   0.856
 8132SOL     OW24727   4.045   4.667   0.242
 8132SOL    HW124728   4.127   4.706   0.200
 8132SOL    HW224729   4.018   4.585   0.193
 8133SOL     OW24730   3.926   4.009   1.498
 8133SOL    HW124731   3.846   4.069   1.485
 8133SOL    HW224732   3.916   3.960   1.584
 8134SOL     OW24733   4.106   4.424   0.480
 8134SOL    HW124734   4.151   4.334   0.477
 8134SOL    HW224735   4.012   4.413   0.513
 8135SOL     OW24736   4.505   3.988   1.749
 8135SOL    HW124737   4.572   3.927   1.792
 8135SOL    HW224738   4.432   4.007   1.814
 8136SOL     OW24739   4.646   4.227   0.899
 8136SOL    HW124740   4.621   4.218   0.803
 8136SOL    HW224741   4.694   4.145   0.930
 8137SOL     OW24742   4.263   3.788   0.512
 8137SOL    HW124743   4.182   3.789   0.570
 8137SOL    HW224744   4.266   3.871   0.457
 8138SOL     OW24745   4.021   3.759   0.171
 8138SOL    HW124746   4.070   3.843   0.150
 8138SOL    HW224747   4.083   3.694   0.216
 8139SOL     OW24748   4.659   3.960   0.480
 8139SOL    HW124749   4.611   4.001   0.402
 8139SOL    HW224750   4.758   3.958   0.461
 8140SOL     OW24751   4.800   4.407   1.464
 8140SOL    HW124752   4.720   4.346   1.467
 8140SOL    HW224753   4.881   4.354   1.440
 8141SOL     OW24754   4.183   4.876   0.741
 8141SOL    HW124755   4.112   4.849   0.806
 8141SOL    HW224756   4.157   4.848   0.648
 8142SOL     OW24757   4.756   4.273   0.016
 8142SOL    HW124758   4.715   4.355  -0.023
 8142SOL    HW224759   4.820   4.299   0.089
 8143SOL     OW24760   3.802   4.280   1.386
 8143SOL    HW124761   3.894   4.279   1.345
 8143SOL    HW224762   3.796   4.354   1.453
 8144SOL     OW24763   4.285   3.946   1.147
 8144SOL    HW124764   4.323   3.862   1.184
 8144SOL    HW224765   4.197   3.965   1.191
 8145SOL     OW24766   4.590   4.178   0.642
 8145SOL    HW124767   4.558   4.250   0.580
 8145SOL    HW224768   4.614   4.097   0.589
 8146SOL     OW24769   4.741   3.763   0.753
 8146SOL    HW124770   4.669   3.768   0.684
 8146SOL    HW224771   4.717   3.694   0.822
 8147SOL     OW24772   4.251   3.980   0.328
 8147SOL    HW124773   4.278   3.921   0.253
 8147SOL    HW224774   4.251   4.075   0.297
 8148SOL     OW24775   4.639   3.813   1.402
 8148SOL    HW124776   4.664   3.793   1.307
 8148SOL    HW224777   4.711   3.869   1.444
 8149SOL     OW24778   4.704   4.840   1.719
 8149SOL    HW124779   4.605   4.846   1.729
 8149SOL    HW224780   4.727   4.760   1.663
 8150SOL     OW24781   4.429   4.774   0.368
 8150SOL    HW124782   4.415   4.781   0.467
 8150SOL    HW224783   4.513   4.723   0.350
 8151SOL     OW24784   4.134   4.537   1.251
 8151SOL    HW124785   4.220   4.549   1.301
 8151SOL    HW224786   4.092   4.450   1.278
 8152SOL     OW24787   4.091   4.824   0.501
 8152SOL    HW124788   4.084   4.907   0.445
 8152SOL    HW224789   4.095   4.744   0.441
 8153SOL     OW24790   4.290   4.261   0.865
 8153SOL    HW124791   4.302   4.327   0.791
 8153SOL    HW224792   4.336   4.295   0.948
 8154SOL     OW24793   4.126   4.475   1.598
 8154SOL    HW124794   4.194   4.530   1.551
 8154SOL    HW224795   4.166   4.387   1.625
 8155SOL     OW24796   4.737   3.829   1.770
 8155SOL    HW124797   4.743   3.914   1.718
 8155SOL    HW224798   4.769   3.753   1.713
 8156SOL     OW24799   4.228   3.774   1.740
 8156SOL    HW124800   4.186   3.717   1.670
 8156SOL    HW224801   4.162   3.843   1.772
 8157SOL     OW24802   4.297   4.594   1.029
 8157SOL    HW124803   4.341   4.683   1.020
 8157SOL    HW224804   4.234   4.594   1.106
 8158SOL     OW24805   5.084   4.586   1.045
 8158SOL    HW124806   5.009   4.586   0.979
 8158SOL    HW224807   5.121   4.494   1.054
 8159SOL     OW24808   4.933   4.249   0.275
 8159SOL    HW124809   4.946   4.165   0.329
 8159SOL    HW224810   4.904   4.323   0.335
 8160SOL     OW24811   4.031   3.937   1.231
 8160SOL    HW124812   4.008   3.974   1.321
 8160SOL    HW224813   4.001   3.842   1.225
 8161SOL     OW24814   4.456   4.358   1.064
 8161SOL    HW124815   4.515   4.332   0.988
 8161SOL    HW224816   4.428   4.454   1.053
 8162SOL     OW24817   4.031   3.787   0.618
 8162SOL    HW124818   4.020   3.881   0.651
 8162SOL    HW224819   4.026   3.724   0.695
 8163SOL     OW24820   4.747   4.490   0.966
 8163SOL    HW124821   4.762   4.511   1.062
 8163SOL    HW224822   4.717   4.395   0.957
 8164SOL     OW24823   4.074   4.622   1.804
 8164SOL    HW124824   4.150   4.666   1.852
 8164SOL    HW224825   4.109   4.575   1.722
 8165SOL     OW24826   5.264   3.998   0.125
 8165SOL    HW124827   5.203   3.923   0.148
 8165SOL    HW224828   5.286   4.050   0.208
 8166SOL     OW24829   5.027   4.562   0.042
 8166SOL    HW124830   5.061   4.469   0.057
 8166SOL    HW224831   5.045   4.589  -0.053
 8167SOL     OW24832   4.043   4.534   0.949
 8167SOL    HW124833   4.136   4.570   0.954
 8167SOL    HW224834   4.037   4.449   1.001
 8168SOL     OW24835   4.063   4.233   1.006
 8168SOL    HW124836   4.011   4.150   0.989
 8168SOL    HW224837   4.140   4.238   0.942
 8169SOL     OW24838   4.862   4.104   1.678
 8169SOL    HW124839   4.817   4.167   1.742
 8169SOL    HW224840   4.955   4.135   1.661
 8170SOL     OW24841   4.884   3.931   1.477
 8170SOL    HW124842   4.884   3.995   1.554
 8170SOL    HW224843   4.912   3.979   1.394
 8171SOL     OW24844   4.726   4.520   1.238
 8171SOL    HW124845   4.767   4.488   1.324
 8171SOL    HW224846   4.630   4.493   1.235
 8172SOL     OW24847   3.764   4.268   1.114
 8172SOL    HW124848   3.849   4.235   1.073
 8172SOL    HW224849   3.777   4.283   1.212
 8173SOL     OW24850   3.913   4.244   1.722
 8173SOL    HW124851   3.972   4.204   1.652
 8173SOL    HW224852   3.855   4.315   1.681
 8174SOL     OW24853   4.539   4.296   0.325
 8174SOL    HW124854   4.546   4.207   0.279
 8174SOL    HW224855   4.445   4.330   0.317
 8175SOL     OW24856   4.395   4.188   1.269
 8175SOL    HW124857   4.361   4.099   1.239
 8175SOL    HW224858   4.421   4.242   1.189
 8176SOL     OW24859   4.197   4.224   0.191
 8176SOL    HW124860   4.258   4.304   0.195
 8176SOL    HW224861   4.102   4.255   0.198
 8177SOL     OW24862   3.883   4.861   1.466
 8177SOL    HW124863   3.905   4.800   1.542
 8177SOL    HW224864   3.893   4.812   1.380
 8178SOL     OW24865   3.807   4.982   1.022
 8178SOL    HW124866   3.802   4.981   1.122
 8178SOL    HW224867   3.724   4.941   0.984
 8179SOL     OW24868   4.627   3.810   0.133
 8179SOL    HW124869   4.678   3.811   0.047
 8179SOL    HW224870   4.683   3.768   0.204
 8180SOL     OW24871   3.987   4.050   0.720
 8180SOL    HW124872   3.908   4.101   0.686
 8180SOL    HW224873   3.978   4.035   0.818
 8181SOL     OW24874   4.546   4.726   1.372
 8181SOL    HW124875   4.586   4.725   1.280
 8181SOL    HW224876   4.556   4.818   1.412
 8182SOL     OW24877   4.640   4.634   0.291
 8182SOL    HW124878   4.703   4.672   0.223
 8182SOL    HW224879   4.680   4.551   0.330
 8183SOL     OW24880   4.096   5.012   1.490
 8183SOL    HW124881   4.083   5.105   1.456
 8183SOL    HW224882   4.012   4.960   1.477
 8184SOL     OW24883   4.763   4.822   0.696
 8184SOL    HW124884   4.693   4.775   0.750
 8184SOL    HW224885   4.822   4.754   0.653
 8185SOL     OW24886   4.738   3.960   0.971
 8185SOL    HW124887   4.730   3.924   0.878
 8185SOL    HW224888   4.736   3.884   1.036
 8186SOL     OW24889   3.829   4.737   1.726
 8186SOL    HW124890   3.752   4.704   1.780
 8186SOL    HW224891   3.914   4.707   1.768
 8187SOL     OW24892   4.396   3.927   1.489
 8187SOL    HW124893   4.486   3.911   1.449
 8187SOL    HW224894   4.404   3.932   1.588
 8188SOL     OW24895   3.799   4.069   0.033
 8188SOL    HW124896   3.707   4.041   0.004
 8188SOL    HW224897   3.830   4.146  -0.023
 8189SOL     OW24898   3.796   3.890   0.318
 8189SOL    HW124899   3.779   3.973   0.264
 8189SOL    HW224900   3.886   3.853   0.296
 8190SOL     OW24901   4.337   4.566   1.431
 8190SOL    HW124902   4.393   4.647   1.414
 8190SOL    HW224903   4.396   4.486   1.434
 8191SOL     OW24904   4.440   4.289   1.708
 8191SOL    HW124905   4.459   4.354   1.782
 8191SOL    HW224906   4.500   4.209   1.717
 8192SOL     OW24907   4.318   4.469   0.652
 8192SOL    HW124908   4.368   4.554   0.633
 8192SOL    HW224909   4.230   4.471   0.604
 8193SOL     OW24910   4.583   4.680   0.861
 8193SOL    HW124911   4.637   4.611   0.909
 8193SOL    HW224912   4.551   4.749   0.927
 8194SOL     OW24913   4.807   4.708   0.087
 8194SOL    HW124914   4.784   4.761   0.005
 8194SOL    HW224915   4.888   4.652   0.068
 8195SOL     OW24916   3.803   4.964   0.653
 8195SOL    HW124917   3.802   4.917   0.741
 8195SOL    HW224918   3.885   4.936   0.602
 8196SOL     OW24919   4.152   4.148   0.520
 8196SOL    HW124920   4.182   4.076   0.458
 8196SOL    HW224921   4.113   4.108   0.603
 8197SOL     OW24922   4.041   4.271   1.280
 8197SOL    HW124923   4.079   4.212   1.352
 8197SOL    HW224924   4.081   4.245   1.192
 8198SOL     OW24925   4.725   3.758   1.154
 8198SOL    HW124926   4.662   3.686   1.123
 8198SOL    HW224927   4.818   3.722   1.154
 8199SOL     OW24928   4.494   5.054   0.301
 8199SOL    HW124929   4.448   4.967   0.318
 8199SOL    HW224930   4.585   5.051   0.342
 8200SOL     OW24931   3.763   4.801   0.300
 8200SOL    HW124932   3.862   4.790   0.291
 8200SOL    HW224933   3.723   4.715   0.332
 8201SOL     OW24934   3.954   4.352   1.975
 8201SOL    HW124935   3.861   4.350   2.012
 8201SOL    HW224936   3.955   4.313   1.883
 8202SOL     OW24937   3.949   3.999   2.858
 8202SOL    HW124938   3.984   3.982   2.950
 8202SOL    HW224939   3.861   3.954   2.846
 8203SOL     OW24940   3.743   4.092   2.509
 8203SOL    HW124941   3.661   4.135   2.548
 8203SOL    HW224942   3.715   4.019   2.446
 8204SOL     OW24943   4.859   4.427   2.579
 8204SOL    HW124944   4.916   4.505   2.554
 8204SOL    HW224945   4.799   4.453   2.655
 8205SOL     OW24946   4.492   4.868   2.885
 8205SOL    HW124947   4.414   4.885   2.945
 8205SOL    HW224948   4.526   4.955   2.849
 8206SOL     OW24949   4.574   4.522   3.685
 8206SOL    HW124950   4.570   4.598   3.750
 8206SOL    HW224951   4.596   4.558   3.594
 8207SOL     OW24952   4.409   4.736   2.527
 8207SOL    HW124953   4.478   4.720   2.597
 8207SOL    HW224954   4.336   4.793   2.565
 8208SOL     OW24955   4.410   4.885   3.665
 8208SOL    HW124956   4.470   4.964   3.679
 8208SOL    HW224957   4.324   4.916   3.624
 8209SOL     OW24958   4.162   4.116   3.361
 8209SOL    HW124959   4.244   4.060   3.370
 8209SOL    HW224960   4.081   4.058   3.365
 8210SOL     OW24961   3.964   4.815   2.748
 8210SOL    HW124962   3.978   4.731   2.800
 8210SOL    HW224963   3.909   4.879   2.803
 8211SOL     OW24964   4.330   4.688   1.985
 8211SOL    HW124965   4.337   4.772   1.931
 8211SOL    HW224966   4.376   4.701   2.073
 8212SOL     OW24967   3.846   4.367   2.425
 8212SOL    HW124968   3.801   4.279   2.442
 8212SOL    HW224969   3.845   4.421   2.509
 8213SOL     OW24970   3.837   4.461   3.459
 8213SOL    HW124971   3.925   4.448   3.504
 8213SOL    HW224972   3.824   4.558   3.437
 8214SOL     OW24973   4.533   3.728   2.364
 8214SOL    HW124974   4.573   3.819   2.355
 8214SOL    HW224975   4.433   3.736   2.370
 8215SOL     OW24976   3.921   4.700   3.126
 8215SOL    HW124977   4.010   4.655   3.112
 8215SOL    HW224978   3.848   4.635   3.107
 8216SOL     OW24979   4.041   3.975   3.663
 8216SOL    HW124980   4.112   4.046   3.669
 8216SOL    HW224981   3.953   4.014   3.691
 8217SOL     OW24982   4.322   4.453   2.132
 8217SOL    HW124983   4.346   4.522   2.064
 8217SOL    HW224984   4.244   4.486   2.186
 8218SOL     OW24985   4.531   4.329   3.327
 8218SOL    HW124986   4.484   4.326   3.416
 8218SOL    HW224987   4.480   4.274   3.261
 8219SOL     OW24988   4.697   4.614   3.434
 8219SOL    HW124989   4.743   4.530   3.405
 8219SOL    HW224990   4.641   4.648   3.359
 8220SOL     OW24991   4.715   4.134   3.104
 8220SOL    HW124992   4.638   4.168   3.158
 8220SOL    HW224993   4.681   4.083   3.025
 8221SOL     OW24994   4.765   4.425   2.291
 8221SOL    HW124995   4.791   4.421   2.387
 8221SOL    HW224996   4.680   4.374   2.277
 8222SOL     OW24997   3.800   4.535   2.651
 8222SOL    HW124998   3.899   4.523   2.660
 8222SOL    HW224999   3.776   4.630   2.672
 8223SOL     OW25000   4.589   4.072   2.057
 8223SOL    HW125001   4.648   4.135   2.008
 8223SOL    HW225002   4.608   3.978   2.028
 8224SOL     OW25003   4.274   3.920   2.747
 8224SOL    HW125004   4.269   3.915   2.847
 8224SOL    HW225005   4.276   4.016   2.718
 8225SOL     OW25006   4.045   4.667   2.104
 8225SOL    HW125007   4.127   4.706   2.062
 8225SOL    HW225008   4.018   4.585   2.055
 8226SOL     OW25009   3.926   4.009   3.360
 8226SOL    HW125010   3.846   4.069   3.347
 8226SOL    HW225011   3.916   3.960   3.446
 8227SOL     OW25012   4.106   4.424   2.342
 8227SOL    HW125013   4.151   4.334   2.339
 8227SOL    HW225014   4.012   4.413   2.375
 8228SOL     OW25015   4.338   3.846   1.979
 8228SOL    HW125016   4.436   3.824   1.986
 8228SOL    HW225017   4.307   3.829   1.886
 8229SOL     OW25018   4.505   3.988   3.611
 8229SOL    HW125019   4.572   3.927   3.654
 8229SOL    HW225020   4.432   4.007   3.676
 8230SOL     OW25021   4.646   4.227   2.761
 8230SOL    HW125022   4.621   4.218   2.665
 8230SOL    HW225023   4.694   4.145   2.792
 8231SOL     OW25024   4.263   3.788   2.374
 8231SOL    HW125025   4.182   3.789   2.432
 8231SOL    HW225026   4.266   3.871   2.319
 8232SOL     OW25027   5.158   4.912   1.903
 8232SOL    HW125028   5.190   4.836   1.960
 8232SOL    HW225029   5.066   4.939   1.933
 8233SOL     OW25030   4.021   3.759   2.033
 8233SOL    HW125031   4.070   3.843   2.012
 8233SOL    HW225032   4.083   3.694   2.078
 8234SOL     OW25033   4.659   3.960   2.342
 8234SOL    HW125034   4.611   4.001   2.264
 8234SOL    HW225035   4.758   3.958   2.323
 8235SOL     OW25036   4.800   4.407   3.326
 8235SOL    HW125037   4.720   4.346   3.329
 8235SOL    HW225038   4.881   4.354   3.302
 8236SOL     OW25039   4.183   4.876   2.603
 8236SOL    HW125040   4.112   4.849   2.668
 8236SOL    HW225041   4.157   4.848   2.510
 8237SOL     OW25042   4.756   4.273   1.878
 8237SOL    HW125043   4.715   4.355   1.839
 8237SOL    HW225044   4.820   4.299   1.951
 8238SOL     OW25045   3.802   4.280   3.248
 8238SOL    HW125046   3.894   4.279   3.207
 8238SOL    HW225047   3.796   4.354   3.315
 8239SOL     OW25048   4.285   3.946   3.009
 8239SOL    HW125049   4.323   3.862   3.046
 8239SOL    HW225050   4.197   3.965   3.053
 8240SOL     OW25051   4.590   4.178   2.504
 8240SOL    HW125052   4.558   4.250   2.442
 8240SOL    HW225053   4.614   4.097   2.451
 8241SOL     OW25054   4.741   3.763   2.615
 8241SOL    HW125055   4.669   3.768   2.546
 8241SOL    HW225056   4.717   3.694   2.684
 8242SOL     OW25057   4.251   3.980   2.190
 8242SOL    HW125058   4.278   3.921   2.115
 8242SOL    HW225059   4.251   4.075   2.159
 8243SOL     OW25060   4.639   3.813   3.264
 8243SOL    HW125061   4.664   3.793   3.169
 8243SOL    HW225062   4.711   3.869   3.306
 8244SOL     OW25063   4.704   4.840   3.581
 8244SOL    HW125064   4.605   4.846   3.591
 8244SOL    HW225065   4.727   4.760   3.525
 8245SOL     OW25066   4.429   4.774   2.230
 8245SOL    HW125067   4.415   4.781   2.329
 8245SOL    HW225068   4.513   4.723   2.212
 8246SOL     OW25069   4.134   4.537   3.113
 8246SOL    HW125070   4.220   4.549   3.163
 8246SOL    HW225071   4.092   4.450   3.140
 8247SOL     OW25072   4.091   4.824   2.363
 8247SOL    HW125073   4.084   4.907   2.307
 8247SOL    HW225074   4.095   4.744   2.303
 8248SOL     OW25075   4.290   4.261   2.727
 8248SOL    HW125076   4.302   4.327   2.653
 8248SOL    HW225077   4.336   4.295   2.810
 8249SOL     OW25078   4.126   4.475   3.460
 8249SOL    HW125079   4.194   4.530   3.413
 8249SOL    HW225080   4.166   4.387   3.487
 8250SOL     OW25081   4.737   3.829   3.632
 8250SOL    HW125082   4.743   3.914   3.580
 8250SOL    HW225083   4.769   3.753   3.575
 8251SOL     OW25084   4.228   3.774   3.602
 8251SOL    HW125085   4.186   3.717   3.532
 8251SOL    HW225086   4.162   3.843   3.634
 8252SOL     OW25087   4.297   4.594   2.891
 8252SOL    HW125088   4.341   4.683   2.882
 8252SOL    HW225089   4.234   4.594   2.968
 8253SOL     OW25090   5.084   4.586   2.907
 8253SOL    HW125091   5.009   4.586   2.841
 8253SOL    HW225092   5.121   4.494   2.916
 8254SOL     OW25093   4.933   4.249   2.137
 8254SOL    HW125094   4.946   4.165   2.191
 8254SOL    HW225095   4.904   4.323   2.197
 8255SOL     OW25096   4.031   3.937   3.093
 8255SOL    HW125097   4.008   3.974   3.183
 8255SOL    HW225098   4.001   3.842   3.087
 8256SOL     OW25099   4.456   4.358   2.926
 8256SOL    HW125100   4.515   4.332   2.850
 8256SOL    HW225101   4.428   4.454   2.915
 8257SOL     OW25102   4.031   3.787   2.480
 8257SOL    HW125103   4.020   3.881   2.513
 8257SOL    HW225104   4.026   3.724   2.557
 8258SOL     OW25105   4.747   4.490   2.828
 8258SOL    HW125106   4.762   4.511   2.924
 8258SOL    HW225107   4.717   4.395   2.819
 8259SOL     OW25108   4.074   4.622   3.666
 8259SOL    HW125109   4.150   4.666   3.714
 8259SOL    HW225110   4.109   4.575   3.584
 8260SOL     OW25111   5.264   3.998   1.987
 8260SOL    HW125112   5.203   3.923   2.010
 8260SOL    HW225113   5.286   4.050   2.070
 8261SOL     OW25114   4.043   4.534   2.811
 8261SOL    HW125115   4.136   4.570   2.816
 8261SOL    HW225116   4.037   4.449   2.863
 8262SOL     OW25117   4.063   4.233   2.868
 8262SOL    HW125118   4.011   4.150   2.851
 8262SOL    HW225119   4.140   4.238   2.804
 8263SOL     OW25120   4.862   4.104   3.540
 8263SOL    HW125121   4.817   4.167   3.604
 8263SOL    HW225122   4.955   4.135   3.523
 8264SOL     OW25123   4.884   3.931   3.339
 8264SOL    HW125124   4.884   3.995   3.416
 8264SOL    HW225125   4.912   3.979   3.256
 8265SOL     OW25126   3.732   5.050   2.062
 8265SOL    HW125127   3.639   5.071   2.031
 8265SOL    HW225128   3.742   4.951   2.075
 8266SOL     OW25129   4.726   4.520   3.100
 8266SOL    HW125130   4.767   4.488   3.186
 8266SOL    HW225131   4.630   4.493   3.097
 8267SOL     OW25132   3.764   4.268   2.976
 8267SOL    HW125133   3.849   4.235   2.935
 8267SOL    HW225134   3.777   4.283   3.074
 8268SOL     OW25135   3.913   4.244   3.584
 8268SOL    HW125136   3.972   4.204   3.514
 8268SOL    HW225137   3.855   4.315   3.543
 8269SOL     OW25138   4.539   4.296   2.187
 8269SOL    HW125139   4.546   4.207   2.141
 8269SOL    HW225140   4.445   4.330   2.179
 8270SOL     OW25141   4.395   4.188   3.131
 8270SOL    HW125142   4.361   4.099   3.101
 8270SOL    HW225143   4.421   4.242   3.051
 8271SOL     OW25144   4.197   4.224   2.053
 8271SOL    HW125145   4.258   4.304   2.057
 8271SOL    HW225146   4.102   4.255   2.060
 8272SOL     OW25147   3.883   4.861   3.328
 8272SOL    HW125148   3.905   4.800   3.404
 8272SOL    HW225149   3.893   4.812   3.242
 8273SOL     OW25150   3.807   4.982   2.884
 8273SOL    HW125151   3.802   4.981   2.984
 8273SOL    HW225152   3.724   4.941   2.846
 8274SOL     OW25153   3.987   4.050   2.582
 8274SOL    HW125154   3.908   4.101   2.548
 8274SOL    HW225155   3.978   4.035   2.680
 8275SOL     OW25156   4.546   4.726   3.234
 8275SOL    HW125157   4.586   4.725   3.142
 8275SOL    HW225158   4.556   4.818   3.274
 8276SOL     OW25159   4.640   4.634   2.153
 8276SOL    HW125160   4.703   4.672   2.085
 8276SOL    HW225161   4.680   4.551   2.192
 8277SOL     OW25162   4.096   5.012   3.352
 8277SOL    HW125163   4.083   5.105   3.318
 8277SOL    HW225164   4.012   4.960   3.339
 8278SOL     OW25165   4.763   4.822   2.558
 8278SOL    HW125166   4.693   4.775   2.612
 8278SOL    HW225167   4.822   4.754   2.515
 8279SOL     OW25168   4.738   3.960   2.833
 8279SOL    HW125169   4.730   3.924   2.740
 8279SOL    HW225170   4.736   3.884   2.898
 8280SOL     OW25171   3.829   4.737   3.588
 8280SOL    HW125172   3.752   4.704   3.642
 8280SOL    HW225173   3.914   4.707   3.630
 8281SOL     OW25174   4.396   3.927   3.351
 8281SOL    HW125175   4.486   3.911   3.311
 8281SOL    HW225176   4.404   3.932   3.450
 8282SOL     OW25177   3.799   4.069   1.895
 8282SOL    HW125178   3.707   4.041   1.866
 8282SOL    HW225179   3.830   4.146   1.839
 8283SOL     OW25180   3.796   3.890   2.180
 8283SOL    HW125181   3.779   3.973   2.126
 8283SOL    HW225182   3.886   3.853   2.158
 8284SOL     OW25183   4.337   4.566   3.293
 8284SOL    HW125184   4.393   4.647   3.276
 8284SOL    HW225185   4.396   4.486   3.296
 8285SOL     OW25186   4.440   4.289   3.570
 8285SOL    HW125187   4.459   4.354   3.644
 8285SOL    HW225188   4.500   4.209   3.579
 8286SOL     OW25189   4.318   4.469   2.514
 8286SOL    HW125190   4.368   4.554   2.495
 8286SOL    HW225191   4.230   4.471   2.466
 8287SOL     OW25192   4.583   4.680   2.723
 8287SOL    HW125193   4.637   4.611   2.771
 8287SOL    HW225194   4.551   4.749   2.789
 8288SOL     OW25195   4.807   4.708   1.949
 8288SOL    HW125196   4.784   4.761   1.867
 8288SOL    HW225197   4.888   4.652   1.930
 8289SOL     OW25198   3.803   4.964   2.515
 8289SOL    HW125199   3.802   4.917   2.603
 8289SOL    HW225200   3.885   4.936   2.464
 8290SOL     OW25201   4.152   4.148   2.382
 8290SOL    HW125202   4.182   4.076   2.320
 8290SOL    HW225203   4.113   4.108   2.465
 8291SOL     OW25204   4.041   4.271   3.142
 8291SOL    HW125205   4.079   4.212   3.214
 8291SOL    HW225206   4.081   4.245   3.054
 8292SOL     OW25207   4.725   3.758   3.016
 8292SOL    HW125208   4.662   3.686   2.985
 8292SOL    HW225209   4.818   3.722   3.016
 8293SOL     OW25210   4.494   5.054   2.163
 8293SOL    HW125211   4.448   4.967   2.180
 8293SOL    HW225212   4.585   5.051   2.204
 8294SOL     OW25213   3.763   4.801   2.162
 8294SOL    HW125214   3.862   4.790   2.153
 8294SOL    HW225215   3.723   4.715   2.194
 8295SOL     OW25216   3.954   4.352   3.837
 8295SOL    HW125217   3.861   4.350   3.874
 8295SOL    HW225218   3.955   4.313   3.745
 8296SOL     OW25219   3.949   3.999   4.720
 8296SOL    HW125220   3.984   3.982   4.812
 8296SOL    HW225221   3.861   3.954   4.708
 8297SOL     OW25222   3.743   4.092   4.371
 8297SOL    HW125223   3.661   4.135   4.410
 8297SOL    HW225224   3.715   4.019   4.308
 8298SOL     OW25225   4.859   4.427   4.441
 8298SOL    HW125226   4.916   4.505   4.416
 8298SOL    HW225227   4.799   4.453   4.517
 8299SOL     OW25228   4.492   4.868   4.747
 8299SOL    HW125229   4.414   4.885   4.807
 8299SOL    HW225230   4.526   4.955   4.711
 8300SOL     OW25231   4.574   4.522   5.547
 8300SOL    HW125232   4.570   4.598   5.612
 8300SOL    HW225233   4.596   4.558   5.456
 8301SOL     OW25234   4.409   4.736   4.389
 8301SOL    HW125235   4.478   4.720   4.459
 8301SOL    HW225236   4.336   4.793   4.427
 8302SOL     OW25237   4.410   4.885   5.527
 8302SOL    HW125238   4.470   4.964   5.541
 8302SOL    HW225239   4.324   4.916   5.486
 8303SOL     OW25240   4.162   4.116   5.223
 8303SOL    HW125241   4.244   4.060   5.232
 8303SOL    HW225242   4.081   4.058   5.227
 8304SOL     OW25243   3.964   4.815   4.610
 8304SOL    HW125244   3.978   4.731   4.662
 8304SOL    HW225245   3.909   4.879   4.665
 8305SOL     OW25246   4.330   4.688   3.847
 8305SOL    HW125247   4.337   4.772   3.793
 8305SOL    HW225248   4.376   4.701   3.935
 8306SOL     OW25249   3.846   4.367   4.287
 8306SOL    HW125250   3.801   4.279   4.304
 8306SOL    HW225251   3.845   4.421   4.371
 8307SOL     OW25252   3.837   4.461   5.321
 8307SOL    HW125253   3.925   4.448   5.366
 8307SOL    HW225254   3.824   4.558   5.299
 8308SOL     OW25255   4.533   3.728   4.226
 8308SOL    HW125256   4.573   3.819   4.217
 8308SOL    HW225257   4.433   3.736   4.232
 8309SOL     OW25258   3.921   4.700   4.988
 8309SOL    HW125259   4.010   4.655   4.974
 8309SOL    HW225260   3.848   4.635   4.969
 8310SOL     OW25261   4.041   3.975   5.525
 8310SOL    HW125262   4.112   4.046   5.531
 8310SOL    HW225263   3.953   4.014   5.553
 8311SOL     OW25264   4.322   4.453   3.994
 8311SOL    HW125265   4.346   4.522   3.926
 8311SOL    HW225266   4.244   4.486   4.048
 8312SOL     OW25267   4.531   4.329   5.189
 8312SOL    HW125268   4.484   4.326   5.278
 8312SOL    HW225269   4.480   4.274   5.123
 8313SOL     OW25270   4.697   4.614   5.296
 8313SOL    HW125271   4.743   4.530   5.267
 8313SOL    HW225272   4.641   4.648   5.221
 8314SOL     OW25273   4.715   4.134   4.966
 8314SOL    HW125274   4.638   4.168   5.020
 8314SOL    HW225275   4.681   4.083   4.887
 8315SOL     OW25276   4.765   4.425   4.153
 8315SOL    HW125277   4.791   4.421   4.249
 8315SOL    HW225278   4.680   4.374   4.139
 8316SOL     OW25279   3.800   4.535   4.513
 8316SOL    HW125280   3.899   4.523   4.522
 8316SOL    HW225281   3.776   4.630   4.534
 8317SOL     OW25282   4.589   4.072   3.919
 8317SOL    HW125283   4.648   4.135   3.870
 8317SOL    HW225284   4.608   3.978   3.890
 8318SOL     OW25285   4.274   3.920   4.609
 8318SOL    HW125286   4.269   3.915   4.709
 8318SOL    HW225287   4.276   4.016   4.580
 8319SOL     OW25288   4.045   4.667   3.966
 8319SOL    HW125289   4.127   4.706   3.924
 8319SOL    HW225290   4.018   4.585   3.917
 8320SOL     OW25291   3.926   4.009   5.222
 8320SOL    HW125292   3.846   4.069   5.209
 8320SOL    HW225293   3.916   3.960   5.308
 8321SOL     OW25294   4.106   4.424   4.204
 8321SOL    HW125295   4.151   4.334   4.201
 8321SOL    HW225296   4.012   4.413   4.237
 8322SOL     OW25297   4.338   3.846   3.841
 8322SOL    HW125298   4.436   3.824   3.848
 8322SOL    HW225299   4.307   3.829   3.748
 8323SOL     OW25300   4.505   3.988   5.473
 8323SOL    HW125301   4.572   3.927   5.516
 8323SOL    HW225302   4.432   4.007   5.538
 8324SOL     OW25303   4.646   4.227   4.623
 8324SOL    HW125304   4.621   4.218   4.527
 8324SOL    HW225305   4.694   4.145   4.654
 8325SOL     OW25306   4.263   3.788   4.236
 8325SOL    HW125307   4.182   3.789   4.294
 8325SOL    HW225308   4.266   3.871   4.181
 8326SOL     OW25309   5.158   4.912   3.765
 8326SOL    HW125310   5.190   4.836   3.822
 8326SOL    HW225311   5.066   4.939   3.795
 8327SOL     OW25312   4.021   3.759   3.895
 8327SOL    HW125313   4.070   3.843   3.874
 8327SOL    HW225314   4.083   3.694   3.940
 8328SOL     OW25315   4.659   3.960   4.204
 8328SOL    HW125316   4.611   4.001   4.126
 8328SOL    HW225317   4.758   3.958   4.185
 8329SOL     OW25318   4.800   4.407   5.188
 8329SOL    HW125319   4.720   4.346   5.191
 8329SOL    HW225320   4.881   4.354   5.164
 8330SOL     OW25321   4.183   4.876   4.465
 8330SOL    HW125322   4.112   4.849   4.530
 8330SOL    HW225323   4.157   4.848   4.372
 8331SOL     OW25324   4.756   4.273   3.740
 8331SOL    HW125325   4.715   4.355   3.701
 8331SOL    HW225326   4.820   4.299   3.813
 8332SOL     OW25327   3.802   4.280   5.110
 8332SOL    HW125328   3.894   4.279   5.069
 8332SOL    HW225329   3.796   4.354   5.177
 8333SOL     OW25330   4.285   3.946   4.871
 8333SOL    HW125331   4.323   3.862   4.908
 8333SOL    HW225332   4.197   3.965   4.915
 8334SOL     OW25333   4.590   4.178   4.366
 8334SOL    HW125334   4.558   4.250   4.304
 8334SOL    HW225335   4.614   4.097   4.313
 8335SOL     OW25336   4.741   3.763   4.477
 8335SOL    HW125337   4.669   3.768   4.408
 8335SOL    HW225338   4.717   3.694   4.546
 8336SOL     OW25339   4.251   3.980   4.052
 8336SOL    HW125340   4.278   3.921   3.977
 8336SOL    HW225341   4.251   4.075   4.021
 8337SOL     OW25342   4.639   3.813   5.126
 8337SOL    HW125343   4.664   3.793   5.031
 8337SOL    HW225344   4.711   3.869   5.168
 8338SOL     OW25345   4.704   4.840   5.443
 8338SOL    HW125346   4.605   4.846   5.453
 8338SOL    HW225347   4.727   4.760   5.387
 8339SOL     OW25348   4.429   4.774   4.092
 8339SOL    HW125349   4.415   4.781   4.191
 8339SOL    HW225350   4.513   4.723   4.074
 8340SOL     OW25351   4.134   4.537   4.975
 8340SOL    HW125352   4.220   4.549   5.025
 8340SOL    HW225353   4.092   4.450   5.002
 8341SOL     OW25354   4.091   4.824   4.225
 8341SOL    HW125355   4.084   4.907   4.169
 8341SOL    HW225356   4.095   4.744   4.165
 8342SOL     OW25357   4.290   4.261   4.589
 8342SOL    HW125358   4.302   4.327   4.515
 8342SOL    HW225359   4.336   4.295   4.672
 8343SOL     OW25360   4.126   4.475   5.322
 8343SOL    HW125361   4.194   4.530   5.275
 8343SOL    HW225362   4.166   4.387   5.349
 8344SOL     OW25363   4.737   3.829   5.494
 8344SOL    HW125364   4.743   3.914   5.442
 8344SOL    HW225365   4.769   3.753   5.437
 8345SOL     OW25366   4.228   3.774   5.464
 8345SOL    HW125367   4.186   3.717   5.394
 8345SOL    HW225368   4.162   3.843   5.496
 8346SOL     OW25369   4.297   4.594   4.753
 8346SOL    HW125370   4.341   4.683   4.744
 8346SOL    HW225371   4.234   4.594   4.830
 8347SOL     OW25372   5.084   4.586   4.769
 8347SOL    HW125373   5.009   4.586   4.703
 8347SOL    HW225374   5.121   4.494   4.778
 8348SOL     OW25375   4.933   4.249   3.999
 8348SOL    HW125376   4.946   4.165   4.053
 8348SOL    HW225377   4.904   4.323   4.059
 8349SOL     OW25378   4.031   3.937   4.955
 8349SOL    HW125379   4.008   3.974   5.045
 8349SOL    HW225380   4.001   3.842   4.949
 8350SOL     OW25381   4.456   4.358   4.788
 8350SOL    HW125382   4.515   4.332   4.712
 8350SOL    HW225383   4.428   4.454   4.777
 8351SOL     OW25384   4.031   3.787   4.342
 8351SOL    HW125385   4.020   3.881   4.375
 8351SOL    HW225386   4.026   3.724   4.419
 8352SOL     OW25387   4.747   4.490   4.690
 8352SOL    HW125388   4.762   4.511   4.786
 8352SOL    HW225389   4.717   4.395   4.681
 8353SOL     OW25390   4.074   4.622   5.528
 8353SOL    HW125391   4.150   4.666   5.576
 8353SOL    HW225392   4.109   4.575   5.446
 8354SOL     OW25393   5.264   3.998   3.849
 8354SOL    HW125394   5.203   3.923   3.872
 8354SOL    HW225395   5.286   4.050   3.932
 8355SOL     OW25396   4.043   4.534   4.673
 8355SOL    HW125397   4.136   4.570   4.678
 8355SOL    HW225398   4.037   4.449   4.725
 8356SOL     OW25399   4.063   4.233   4.730
 8356SOL    HW125400   4.011   4.150   4.713
 8356SOL    HW225401   4.140   4.238   4.666
 8357SOL     OW25402   4.862   4.104   5.402
 8357SOL    HW125403   4.817   4.167   5.466
 8357SOL    HW225404   4.955   4.135   5.385
 8358SOL     OW25405   4.884   3.931   5.201
 8358SOL    HW125406   4.884   3.995   5.278
 8358SOL    HW225407   4.912   3.979   5.118
 8359SOL     OW25408   3.732   5.050   3.924
 8359SOL    HW125409   3.639   5.071   3.893
 8359SOL    HW225410   3.742   4.951   3.937
 8360SOL     OW25411   4.726   4.520   4.962
 8360SOL    HW125412   4.767   4.488   5.048
 8360SOL    HW225413   4.630   4.493   4.959
 8361SOL     OW25414   3.764   4.268   4.838
 8361SOL    HW125415   3.849   4.235   4.797
 8361SOL    HW225416   3.777   4.283   4.936
 8362SOL     OW25417   3.913   4.244   5.446
 8362SOL    HW125418   3.972   4.204   5.376
 8362SOL    HW225419   3.855   4.315   5.405
 8363SOL     OW25420   4.539   4.296   4.049
 8363SOL    HW125421   4.546   4.207   4.003
 8363SOL    HW225422   4.445   4.330   4.041
 8364SOL     OW25423   4.395   4.188   4.993
 8364SOL    HW125424   4.361   4.099   4.963
 8364SOL    HW225425   4.421   4.242   4.913
 8365SOL     OW25426   4.197   4.224   3.915
 8365SOL    HW125427   4.258   4.304   3.919
 8365SOL    HW225428   4.102   4.255   3.922
 8366SOL     OW25429   3.883   4.861   5.190
 8366SOL    HW125430   3.905   4.800   5.266
 8366SOL    HW225431   3.893   4.812   5.104
 8367SOL     OW25432   3.807   4.982   4.746
 8367SOL    HW125433   3.802   4.981   4.846
 8367SOL    HW225434   3.724   4.941   4.708
 8368SOL     OW25435   3.987   4.050   4.444
 8368SOL    HW125436   3.908   4.101   4.410
 8368SOL    HW225437   3.978   4.035   4.542
 8369SOL     OW25438   4.546   4.726   5.096
 8369SOL    HW125439   4.586   4.725   5.004
 8369SOL    HW225440   4.556   4.818   5.136
 8370SOL     OW25441   4.640   4.634   4.015
 8370SOL    HW125442   4.703   4.672   3.947
 8370SOL    HW225443   4.680   4.551   4.054
 8371SOL     OW25444   4.096   5.012   5.214
 8371SOL    HW125445   4.083   5.105   5.180
 8371SOL    HW225446   4.012   4.960   5.201
 8372SOL     OW25447   4.763   4.822   4.420
 8372SOL    HW125448   4.693   4.775   4.474
 8372SOL    HW225449   4.822   4.754   4.377
 8373SOL     OW25450   4.738   3.960   4.695
 8373SOL    HW125451   4.730   3.924   4.602
 8373SOL    HW225452   4.736   3.884   4.760
 8374SOL     OW25453   3.829   4.737   5.450
 8374SOL    HW125454   3.752   4.704   5.504
 8374SOL    HW225455   3.914   4.707   5.492
 8375SOL     OW25456   4.396   3.927   5.213
 8375SOL    HW125457   4.486   3.911   5.173
 8375SOL    HW225458   4.404   3.932   5.312
 8376SOL     OW25459   3.799   4.069   3.757
 8376SOL    HW125460   3.707   4.041   3.728
 8376SOL    HW225461   3.830   4.146   3.701
 8377SOL     OW25462   3.796   3.890   4.042
 8377SOL    HW125463   3.779   3.973   3.988
 8377SOL    HW225464   3.886   3.853   4.020
 8378SOL     OW25465   4.337   4.566   5.155
 8378SOL    HW125466   4.393   4.647   5.138
 8378SOL    HW225467   4.396   4.486   5.158
 8379SOL     OW25468   4.440   4.289   5.432
 8379SOL    HW125469   4.459   4.354   5.506
 8379SOL    HW225470   4.500   4.209   5.441
 8380SOL     OW25471   4.318   4.469   4.376
 8380SOL    HW125472   4.368   4.554   4.357
 8380SOL    HW225473   4.230   4.471   4.328
 8381SOL     OW25474   4.583   4.680   4.585
 8381SOL    HW125475   4.637   4.611   4.633
 8381SOL    HW225476   4.551   4.749   4.651
 8382SOL     OW25477   4.807   4.708   3.811
 8382SOL    HW125478   4.784   4.761   3.729
 8382SOL    HW225479   4.888   4.652   3.792
 8383SOL     OW25480   3.803   4.964   4.377
 8383SOL    HW125481   3.802   4.917   4.465
 8383SOL    HW225482   3.885   4.936   4.326
 8384SOL     OW25483   4.152   4.148   4.244
 8384SOL    HW125484   4.182   4.076   4.182
 8384SOL    HW225485   4.113   4.108   4.327
 8385SOL     OW25486   4.041   4.271   5.004
 8385SOL    HW125487   4.079   4.212   5.076
 8385SOL    HW225488   4.081   4.245   4.916
 8386SOL     OW25489   4.725   3.758   4.878
 8386SOL    HW125490   4.662   3.686   4.847
 8386SOL    HW225491   4.818   3.722   4.878
 8387SOL     OW25492   4.494   5.054   4.025
 8387SOL    HW125493   4.448   4.967   4.042
 8387SOL    HW225494   4.585   5.051   4.066
 8388SOL     OW25495   3.763   4.801   4.024
 8388SOL    HW125496   3.862   4.790   4.015
 8388SOL    HW225497   3.723   4.715   4.056
 8389SOL     OW25498   3.954   4.352   5.699
 8389SOL    HW125499   3.861   4.350   5.736
 8389SOL    HW225500   3.955   4.313   5.607
 8390SOL     OW25501   3.949   3.999   6.582
 8390SOL    HW125502   3.984   3.982   6.674
 8390SOL    HW225503   3.861   3.954   6.570
 8391SOL     OW25504   3.743   4.092   6.233
 8391SOL    HW125505   3.661   4.135   6.272
 8391SOL    HW225506   3.715   4.019   6.170
 8392SOL     OW25507   4.859   4.427   6.303
 8392SOL    HW125508   4.916   4.505   6.278
 8392SOL    HW225509   4.799   4.453   6.379
 8393SOL     OW25510   4.492   4.868   6.609
 8393SOL    HW125511   4.414   4.885   6.669
 8393SOL    HW225512   4.526   4.955   6.573
 8394SOL     OW25513   4.574   4.522   7.409
 8394SOL    HW125514   4.570   4.598   7.474
 8394SOL    HW225515   4.596   4.558   7.318
 8395SOL     OW25516   4.409   4.736   6.251
 8395SOL    HW125517   4.478   4.720   6.321
 8395SOL    HW225518   4.336   4.793   6.289
 8396SOL     OW25519   4.410   4.885   7.389
 8396SOL    HW125520   4.470   4.964   7.403
 8396SOL    HW225521   4.324   4.916   7.348
 8397SOL     OW25522   4.162   4.116   7.085
 8397SOL    HW125523   4.244   4.060   7.094
 8397SOL    HW225524   4.081   4.058   7.089
 8398SOL     OW25525   3.964   4.815   6.472
 8398SOL    HW125526   3.978   4.731   6.524
 8398SOL    HW225527   3.909   4.879   6.527
 8399SOL     OW25528   4.330   4.688   5.709
 8399SOL    HW125529   4.337   4.772   5.655
 8399SOL    HW225530   4.376   4.701   5.797
 8400SOL     OW25531   3.846   4.367   6.149
 8400SOL    HW125532   3.801   4.279   6.166
 8400SOL    HW225533   3.845   4.421   6.233
 8401SOL     OW25534   3.837   4.461   7.183
 8401SOL    HW125535   3.925   4.448   7.228
 8401SOL    HW225536   3.824   4.558   7.161
 8402SOL     OW25537   4.533   3.728   6.088
 8402SOL    HW125538   4.573   3.819   6.079
 8402SOL    HW225539   4.433   3.736   6.094
 8403SOL     OW25540   3.921   4.700   6.850
 8403SOL    HW125541   4.010   4.655   6.836
 8403SOL    HW225542   3.848   4.635   6.831
 8404SOL     OW25543   4.041   3.975   7.387
 8404SOL    HW125544   4.112   4.046   7.393
 8404SOL    HW225545   3.953   4.014   7.415
 8405SOL     OW25546   4.322   4.453   5.856
 8405SOL    HW125547   4.346   4.522   5.788
 8405SOL    HW225548   4.244   4.486   5.910
 8406SOL     OW25549   4.531   4.329   7.051
 8406SOL    HW125550   4.484   4.326   7.140
 8406SOL    HW225551   4.480   4.274   6.985
 8407SOL     OW25552   4.697   4.614   7.158
 8407SOL    HW125553   4.743   4.530   7.129
 8407SOL    HW225554   4.641   4.648   7.083
 8408SOL     OW25555   4.715   4.134   6.828
 8408SOL    HW125556   4.638   4.168   6.882
 8408SOL    HW225557   4.681   4.083   6.749
 8409SOL     OW25558   4.765   4.425   6.015
 8409SOL    HW125559   4.791   4.421   6.111
 8409SOL    HW225560   4.680   4.374   6.001
 8410SOL     OW25561   3.800   4.535   6.375
 8410SOL    HW125562   3.899   4.523   6.384
 8410SOL    HW225563   3.776   4.630   6.396
 8411SOL     OW25564   4.589   4.072   5.781
 8411SOL    HW125565   4.648   4.135   5.732
 8411SOL    HW225566   4.608   3.978   5.752
 8412SOL     OW25567   4.274   3.920   6.471
 8412SOL    HW125568   4.269   3.915   6.571
 8412SOL    HW225569   4.276   4.016   6.442
 8413SOL     OW25570   4.045   4.667   5.828
 8413SOL    HW125571   4.127   4.706   5.786
 8413SOL    HW225572   4.018   4.585   5.779
 8414SOL     OW25573   3.926   4.009   7.084
 8414SOL    HW125574   3.846   4.069   7.071
 8414SOL    HW225575   3.916   3.960   7.170
 8415SOL     OW25576   4.106   4.424   6.066
 8415SOL    HW125577   4.151   4.334   6.063
 8415SOL    HW225578   4.012   4.413   6.099
 8416SOL     OW25579   4.338   3.846   5.703
 8416SOL    HW125580   4.436   3.824   5.710
 8416SOL    HW225581   4.307   3.829   5.610
 8417SOL     OW25582   4.505   3.988   7.335
 8417SOL    HW125583   4.572   3.927   7.378
 8417SOL    HW225584   4.432   4.007   7.400
 8418SOL     OW25585   4.646   4.227   6.485
 8418SOL    HW125586   4.621   4.218   6.389
 8418SOL    HW225587   4.694   4.145   6.516
 8419SOL     OW25588   4.263   3.788   6.098
 8419SOL    HW125589   4.182   3.789   6.156
 8419SOL    HW225590   4.266   3.871   6.043
 8420SOL     OW25591   5.158   4.912   5.627
 8420SOL    HW125592   5.190   4.836   5.684
 8420SOL    HW225593   5.066   4.939   5.657
 8421SOL     OW25594   4.021   3.759   5.757
 8421SOL    HW125595   4.070   3.843   5.736
 8421SOL    HW225596   4.083   3.694   5.802
 8422SOL     OW25597   4.659   3.960   6.066
 8422SOL    HW125598   4.611   4.001   5.988
 8422SOL    HW225599   4.758   3.958   6.047
 8423SOL     OW25600   4.800   4.407   7.050
 8423SOL    HW125601   4.720   4.346   7.053
 8423SOL    HW225602   4.881   4.354   7.026
 8424SOL     OW25603   4.183   4.876   6.327
 8424SOL    HW125604   4.112   4.849   6.392
 8424SOL    HW225605   4.157   4.848   6.234
 8425SOL     OW25606   4.756   4.273   5.602
 8425SOL    HW125607   4.715   4.355   5.563
 8425SOL    HW225608   4.820   4.299   5.675
 8426SOL     OW25609   3.802   4.280   6.972
 8426SOL    HW125610   3.894   4.279   6.931
 8426SOL    HW225611   3.796   4.354   7.039
 8427SOL     OW25612   4.285   3.946   6.733
 8427SOL    HW125613   4.323   3.862   6.770
 8427SOL    HW225614   4.197   3.965   6.777
 8428SOL     OW25615   4.590   4.178   6.228
 8428SOL    HW125616   4.558   4.250   6.166
 8428SOL    HW225617   4.614   4.097   6.175
 8429SOL     OW25618   4.741   3.763   6.339
 8429SOL    HW125619   4.669   3.768   6.270
 8429SOL    HW225620   4.717   3.694   6.408
 8430SOL     OW25621   4.251   3.980   5.914
 8430SOL    HW125622   4.278   3.921   5.839
 8430SOL    HW225623   4.251   4.075   5.883
 8431SOL     OW25624   4.639   3.813   6.988
 8431SOL    HW125625   4.664   3.793   6.893
 8431SOL    HW225626   4.711   3.869   7.030
 8432SOL     OW25627   4.704   4.840   7.305
 8432SOL    HW125628   4.605   4.846   7.315
 8432SOL    HW225629   4.727   4.760   7.249
 8433SOL     OW25630   4.429   4.774   5.954
 8433SOL    HW125631   4.415   4.781   6.053
 8433SOL    HW225632   4.513   4.723   5.936
 8434SOL     OW25633   4.134   4.537   6.837
 8434SOL    HW125634   4.220   4.549   6.887
 8434SOL    HW225635   4.092   4.450   6.864
 8435SOL     OW25636   4.091   4.824   6.087
 8435SOL    HW125637   4.084   4.907   6.031
 8435SOL    HW225638   4.095   4.744   6.027
 8436SOL     OW25639   4.290   4.261   6.451
 8436SOL    HW125640   4.302   4.327   6.377
 8436SOL    HW225641   4.336   4.295   6.534
 8437SOL     OW25642   4.126   4.475   7.184
 8437SOL    HW125643   4.194   4.530   7.137
 8437SOL    HW225644   4.166   4.387   7.211
 8438SOL     OW25645   4.737   3.829   7.356
 8438SOL    HW125646   4.743   3.914   7.304
 8438SOL    HW225647   4.769   3.753   7.299
 8439SOL     OW25648   4.228   3.774   7.326
 8439SOL    HW125649   4.186   3.717   7.256
 8439SOL    HW225650   4.162   3.843   7.358
 8440SOL     OW25651   4.297   4.594   6.615
 8440SOL    HW125652   4.341   4.683   6.606
 8440SOL    HW225653   4.234   4.594   6.692
 8441SOL     OW25654   5.084   4.586   6.631
 8441SOL    HW125655   5.009   4.586   6.565
 8441SOL    HW225656   5.121   4.494   6.640
 8442SOL     OW25657   4.933   4.249   5.861
 8442SOL    HW125658   4.946   4.165   5.915
 8442SOL    HW225659   4.904   4.323   5.921
 8443SOL     OW25660   4.031   3.937   6.817
 8443SOL    HW125661   4.008   3.974   6.907
 8443SOL    HW225662   4.001   3.842   6.811
 8444SOL     OW25663   4.456   4.358   6.650
 8444SOL    HW125664   4.515   4.332   6.574
 8444SOL    HW225665   4.428   4.454   6.639
 8445SOL     OW25666   4.031   3.787   6.204
 8445SOL    HW125667   4.020   3.881   6.237
 8445SOL    HW225668   4.026   3.724   6.281
 8446SOL     OW25669   4.747   4.490   6.552
 8446SOL    HW125670   4.762   4.511   6.648
 8446SOL    HW225671   4.717   4.395   6.543
 8447SOL     OW25672   4.074   4.622   7.390
 8447SOL    HW125673   4.150   4.666   7.438
 8447SOL    HW225674   4.109   4.575   7.308
 8448SOL     OW25675   5.264   3.998   5.711
 8448SOL    HW125676   5.203   3.923   5.734
 8448SOL    HW225677   5.286   4.050   5.794
 8449SOL     OW25678   4.043   4.534   6.535
 8449SOL    HW125679   4.136   4.570   6.540
 8449SOL    HW225680   4.037   4.449   6.587
 8450SOL     OW25681   4.063   4.233   6.592
 8450SOL    HW125682   4.011   4.150   6.575
 8450SOL    HW225683   4.140   4.238   6.528
 8451SOL     OW25684   4.862   4.104   7.264
 8451SOL    HW125685   4.817   4.167   7.328
 8451SOL    HW225686   4.955   4.135   7.247
 8452SOL     OW25687   4.884   3.931   7.063
 8452SOL    HW125688   4.884   3.995   7.140
 8452SOL    HW225689   4.912   3.979   6.980
 8453SOL     OW25690   3.732   5.050   5.786
 8453SOL    HW125691   3.639   5.071   5.755
 8453SOL    HW225692   3.742   4.951   5.799
 8454SOL     OW25693   4.726   4.520   6.824
 8454SOL    HW125694   4.767   4.488   6.910
 8454SOL    HW225695   4.630   4.493   6.821
 8455SOL     OW25696   3.764   4.268   6.700
 8455SOL    HW125697   3.849   4.235   6.659
 8455SOL    HW225698   3.777   4.283   6.798
 8456SOL     OW25699   3.913   4.244   7.308
 8456SOL    HW125700   3.972   4.204   7.238
 8456SOL    HW225701   3.855   4.315   7.267
 8457SOL     OW25702   4.539   4.296   5.911
 8457SOL    HW125703   4.546   4.207   5.865
 8457SOL    HW225704   4.445   4.330   5.903
 8458SOL     OW25705   4.395   4.188   6.855
 8458SOL    HW125706   4.361   4.099   6.825
 8458SOL    HW225707   4.421   4.242   6.775
 8459SOL     OW25708   4.197   4.224   5.777
 8459SOL    HW125709   4.258   4.304   5.781
 8459SOL    HW225710   4.102   4.255   5.784
 8460SOL     OW25711   3.883   4.861   7.052
 8460SOL    HW125712   3.905   4.800   7.128
 8460SOL    HW225713   3.893   4.812   6.966
 8461SOL     OW25714   3.807   4.982   6.608
 8461SOL    HW125715   3.802   4.981   6.708
 8461SOL    HW225716   3.724   4.941   6.570
 8462SOL     OW25717   3.987   4.050   6.306
 8462SOL    HW125718   3.908   4.101   6.272
 8462SOL    HW225719   3.978   4.035   6.404
 8463SOL     OW25720   4.546   4.726   6.958
 8463SOL    HW125721   4.586   4.725   6.866
 8463SOL    HW225722   4.556   4.818   6.998
 8464SOL     OW25723   4.640   4.634   5.877
 8464SOL    HW125724   4.703   4.672   5.809
 8464SOL    HW225725   4.680   4.551   5.916
 8465SOL     OW25726   4.096   5.012   7.076
 8465SOL    HW125727   4.083   5.105   7.042
 8465SOL    HW225728   4.012   4.960   7.063
 8466SOL     OW25729   4.763   4.822   6.282
 8466SOL    HW125730   4.693   4.775   6.336
 8466SOL    HW225731   4.822   4.754   6.239
 8467SOL     OW25732   4.738   3.960   6.557
 8467SOL    HW125733   4.730   3.924   6.464
 8467SOL    HW225734   4.736   3.884   6.622
 8468SOL     OW25735   3.829   4.737   7.312
 8468SOL    HW125736   3.752   4.704   7.366
 8468SOL    HW225737   3.914   4.707   7.354
 8469SOL     OW25738   4.396   3.927   7.075
 8469SOL    HW125739   4.486   3.911   7.035
 8469SOL    HW225740   4.404   3.932   7.174
 8470SOL     OW25741   3.799   4.069   5.619
 8470SOL    HW125742   3.707   4.041   5.590
 8470SOL    HW225743   3.830   4.146   5.563
 8471SOL     OW25744   3.796   3.890   5.904
 8471SOL    HW125745   3.779   3.973   5.850
 8471SOL    HW225746   3.886   3.853   5.882
 8472SOL     OW25747   4.337   4.566   7.017
 8472SOL    HW125748   4.393   4.647   7.000
 8472SOL    HW225749   4.396   4.486   7.020
 8473SOL     OW25750   4.440   4.289   7.294
 8473SOL    HW125751   4.459   4.354   7.368
 8473SOL    HW225752   4.500   4.209   7.303
 8474SOL     OW25753   4.318   4.469   6.238
 8474SOL    HW125754   4.368   4.554   6.219
 8474SOL    HW225755   4.230   4.471   6.190
 8475SOL     OW25756   4.583   4.680   6.447
 8475SOL    HW125757   4.637   4.611   6.495
 8475SOL    HW225758   4.551   4.749   6.513
 8476SOL     OW25759   4.807   4.708   5.673
 8476SOL    HW125760   4.784   4.761   5.591
 8476SOL    HW225761   4.888   4.652   5.654
 8477SOL     OW25762   3.803   4.964   6.239
 8477SOL    HW125763   3.802   4.917   6.327
 8477SOL    HW225764   3.885   4.936   6.188
 8478SOL     OW25765   4.152   4.148   6.106
 8478SOL    HW125766   4.182   4.076   6.044
 8478SOL    HW225767   4.113   4.108   6.189
 8479SOL     OW25768   4.041   4.271   6.866
 8479SOL    HW125769   4.079   4.212   6.938
 8479SOL    HW225770   4.081   4.245   6.778
 8480SOL     OW25771   4.725   3.758   6.740
 8480SOL    HW125772   4.662   3.686   6.709
 8480SOL    HW225773   4.818   3.722   6.740
 8481SOL     OW25774   4.494   5.054   5.887
 8481SOL    HW125775   4.448   4.967   5.904
 8481SOL    HW225776   4.585   5.051   5.928
 8482SOL     OW25777   3.763   4.801   5.886
 8482SOL    HW125778   3.862   4.790   5.877
 8482SOL    HW225779   3.723   4.715   5.918
 8483SOL     OW25780   3.954   4.352   7.561
 8483SOL    HW125781   3.861   4.350   7.598
 8483SOL    HW225782   3.955   4.313   7.469
 8484SOL     OW25783   3.949   3.999   8.444
 8484SOL    HW125784   3.984   3.982   8.536
 8484SOL    HW225785   3.861   3.954   8.432
 8485SOL     OW25786   3.743   4.092   8.095
 8485SOL    HW125787   3.661   4.135   8.134
 8485SOL    HW225788   3.715   4.019   8.032
 8486SOL     OW25789   4.859   4.427   8.165
 8486SOL    HW125790   4.916   4.505   8.140
 8486SOL    HW225791   4.799   4.453   8.241
 8487SOL     OW25792   4.492   4.868   8.471
 8487SOL    HW125793   4.414   4.885   8.531
 8487SOL    HW225794   4.526   4.955   8.435
 8488SOL     OW25795   4.574   4.522   9.271
 8488SOL    HW125796   4.570   4.598   9.336
 8488SOL    HW225797   4.596   4.558   9.180
 8489SOL     OW25798   4.409   4.736   8.113
 8489SOL    HW125799   4.478   4.720   8.183
 8489SOL    HW225800   4.336   4.793   8.151
 8490SOL     OW25801   4.410   4.885   9.251
 8490SOL    HW125802   4.470   4.964   9.265
 8490SOL    HW225803   4.324   4.916   9.210
 8491SOL     OW25804   4.162   4.116   8.947
 8491SOL    HW125805   4.244   4.060   8.956
 8491SOL    HW225806   4.081   4.058   8.951
 8492SOL     OW25807   3.964   4.815   8.334
 8492SOL    HW125808   3.978   4.731   8.386
 8492SOL    HW225809   3.909   4.879   8.389
 8493SOL     OW25810   4.330   4.688   7.571
 8493SOL    HW125811   4.337   4.772   7.517
 8493SOL    HW225812   4.376   4.701   7.659
 8494SOL     OW25813   3.846   4.367   8.011
 8494SOL    HW125814   3.801   4.279   8.028
 8494SOL    HW225815   3.845   4.421   8.095
 8495SOL     OW25816   3.837   4.461   9.045
 8495SOL    HW125817   3.925   4.448   9.090
 8495SOL    HW225818   3.824   4.558   9.023
 8496SOL     OW25819   4.533   3.728   7.950
 8496SOL    HW125820   4.573   3.819   7.941
 8496SOL    HW225821   4.433   3.736   7.956
 8497SOL     OW25822   3.921   4.700   8.712
 8497SOL    HW125823   4.010   4.655   8.698
 8497SOL    HW225824   3.848   4.635   8.693
 8498SOL     OW25825   4.041   3.975   9.249
 8498SOL    HW125826   4.112   4.046   9.255
 8498SOL    HW225827   3.953   4.014   9.277
 8499SOL     OW25828   4.322   4.453   7.718
 8499SOL    HW125829   4.346   4.522   7.650
 8499SOL    HW225830   4.244   4.486   7.772
 8500SOL     OW25831   4.531   4.329   8.913
 8500SOL    HW125832   4.484   4.326   9.002
 8500SOL    HW225833   4.480   4.274   8.847
 8501SOL     OW25834   4.697   4.614   9.020
 8501SOL    HW125835   4.743   4.530   8.991
 8501SOL    HW225836   4.641   4.648   8.945
 8502SOL     OW25837   4.715   4.134   8.690
 8502SOL    HW125838   4.638   4.168   8.744
 8502SOL    HW225839   4.681   4.083   8.611
 8503SOL     OW25840   4.765   4.425   7.877
 8503SOL    HW125841   4.791   4.421   7.973
 8503SOL    HW225842   4.680   4.374   7.863
 8504SOL     OW25843   3.800   4.535   8.237
 8504SOL    HW125844   3.899   4.523   8.246
 8504SOL    HW225845   3.776   4.630   8.258
 8505SOL     OW25846   4.589   4.072   7.643
 8505SOL    HW125847   4.648   4.135   7.594
 8505SOL    HW225848   4.608   3.978   7.614
 8506SOL     OW25849   4.274   3.920   8.333
 8506SOL    HW125850   4.269   3.915   8.433
 8506SOL    HW225851   4.276   4.016   8.304
 8507SOL     OW25852   4.045   4.667   7.690
 8507SOL    HW125853   4.127   4.706   7.648
 8507SOL    HW225854   4.018   4.585   7.641
 8508SOL     OW25855   3.926   4.009   8.946
 8508SOL    HW125856   3.846   4.069   8.933
 8508SOL    HW225857   3.916   3.960   9.032
 8509SOL     OW25858   4.106   4.424   7.928
 8509SOL    HW125859   4.151   4.334   7.925
 8509SOL    HW225860   4.012   4.413   7.961
 8510SOL     OW25861   4.338   3.846   7.565
 8510SOL    HW125862   4.436   3.824   7.572
 8510SOL    HW225863   4.307   3.829   7.472
 8511SOL     OW25864   4.505   3.988   9.197
 8511SOL    HW125865   4.572   3.927   9.240
 8511SOL    HW225866   4.432   4.007   9.262
 8512SOL     OW25867   4.646   4.227   8.347
 8512SOL    HW125868   4.621   4.218   8.251
 8512SOL    HW225869   4.694   4.145   8.378
 8513SOL     OW25870   4.263   3.788   7.960
 8513SOL    HW125871   4.182   3.789   8.018
 8513SOL    HW225872   4.266   3.871   7.905
 8514SOL     OW25873   5.158   4.912   7.489
 8514SOL    HW125874   5.190   4.836   7.546
 8514SOL    HW225875   5.066   4.939   7.519
 8515SOL     OW25876   4.021   3.759   7.619
 8515SOL    HW125877   4.070   3.843   7.598
 8515SOL    HW225878   4.083   3.694   7.664
 8516SOL     OW25879   4.659   3.960   7.928
 8516SOL    HW125880   4.611   4.001   7.850
 8516SOL    HW225881   4.758   3.958   7.909
 8517SOL     OW25882   4.800   4.407   8.912
 8517SOL    HW125883   4.720   4.346   8.915
 8517SOL    HW225884   4.881   4.354   8.888
 8518SOL     OW25885   4.183   4.876   8.189
 8518SOL    HW125886   4.112   4.849   8.254
 8518SOL    HW225887   4.157   4.848   8.096
 8519SOL     OW25888   4.756   4.273   7.464
 8519SOL    HW125889   4.715   4.355   7.425
 8519SOL    HW225890   4.820   4.299   7.537
 8520SOL     OW25891   3.802   4.280   8.834
 8520SOL    HW125892   3.894   4.279   8.793
 8520SOL    HW225893   3.796   4.354   8.901
 8521SOL     OW25894   4.285   3.946   8.595
 8521SOL    HW125895   4.323   3.862   8.632
 8521SOL    HW225896   4.197   3.965   8.639
 8522SOL     OW25897   4.590   4.178   8.090
 8522SOL    HW125898   4.558   4.250   8.028
 8522SOL    HW225899   4.614   4.097   8.037
 8523SOL     OW25900   4.741   3.763   8.201
 8523SOL    HW125901   4.669   3.768   8.132
 8523SOL    HW225902   4.717   3.694   8.270
 8524SOL     OW25903   4.251   3.980   7.776
 8524SOL    HW125904   4.278   3.921   7.701
 8524SOL    HW225905   4.251   4.075   7.745
 8525SOL     OW25906   4.639   3.813   8.850
 8525SOL    HW125907   4.664   3.793   8.755
 8525SOL    HW225908   4.711   3.869   8.892
 8526SOL     OW25909   4.704   4.840   9.167
 8526SOL    HW125910   4.605   4.846   9.177
 8526SOL    HW225911   4.727   4.760   9.111
 8527SOL     OW25912   4.429   4.774   7.816
 8527SOL    HW125913   4.415   4.781   7.915
 8527SOL    HW225914   4.513   4.723   7.798
 8528SOL     OW25915   4.134   4.537   8.699
 8528SOL    HW125916   4.220   4.549   8.749
 8528SOL    HW225917   4.092   4.450   8.726
 8529SOL     OW25918   4.091   4.824   7.949
 8529SOL    HW125919   4.084   4.907   7.893
 8529SOL    HW225920   4.095   4.744   7.889
 8530SOL     OW25921   4.290   4.261   8.313
 8530SOL    HW125922   4.302   4.327   8.239
 8530SOL    HW225923   4.336   4.295   8.396
 8531SOL     OW25924   4.126   4.475   9.046
 8531SOL    HW125925   4.194   4.530   8.999
 8531SOL    HW225926   4.166   4.387   9.073
 8532SOL     OW25927   4.737   3.829   9.218
 8532SOL    HW125928   4.743   3.914   9.166
 8532SOL    HW225929   4.769   3.753   9.161
 8533SOL     OW25930   4.228   3.774   9.188
 8533SOL    HW125931   4.186   3.717   9.118
 8533SOL    HW225932   4.162   3.843   9.220
 8534SOL     OW25933   4.297   4.594   8.477
 8534SOL    HW125934   4.341   4.683   8.468
 8534SOL    HW225935   4.234   4.594   8.554
 8535SOL     OW25936   5.084   4.586   8.493
 8535SOL    HW125937   5.009   4.586   8.427
 8535SOL    HW225938   5.121   4.494   8.502
 8536SOL     OW25939   4.933   4.249   7.723
 8536SOL    HW125940   4.946   4.165   7.777
 8536SOL    HW225941   4.904   4.323   7.783
 8537SOL     OW25942   4.031   3.937   8.679
 8537SOL    HW125943   4.008   3.974   8.769
 8537SOL    HW225944   4.001   3.842   8.673
 8538SOL     OW25945   4.456   4.358   8.512
 8538SOL    HW125946   4.515   4.332   8.436
 8538SOL    HW225947   4.428   4.454   8.501
 8539SOL     OW25948   4.031   3.787   8.066
 8539SOL    HW125949   4.020   3.881   8.099
 8539SOL    HW225950   4.026   3.724   8.143
 8540SOL     OW25951   4.747   4.490   8.414
 8540SOL    HW125952   4.762   4.511   8.510
 8540SOL    HW225953   4.717   4.395   8.405
 8541SOL     OW25954   4.074   4.622   9.252
 8541SOL    HW125955   4.150   4.666   9.300
 8541SOL    HW225956   4.109   4.575   9.170
 8542SOL     OW25957   5.264   3.998   7.573
 8542SOL    HW125958   5.203   3.923   7.596
 8542SOL    HW225959   5.286   4.050   7.656
 8543SOL     OW25960   4.043   4.534   8.397
 8543SOL    HW125961   4.136   4.570   8.402
 8543SOL    HW225962   4.037   4.449   8.449
 8544SOL     OW25963   4.063   4.233   8.454
 8544SOL    HW125964   4.011   4.150   8.437
 8544SOL    HW225965   4.140   4.238   8.390
 8545SOL     OW25966   4.862   4.104   9.126
 8545SOL    HW125967   4.817   4.167   9.190
 8545SOL    HW225968   4.955   4.135   9.109
 8546SOL     OW25969   4.884   3.931   8.925
 8546SOL    HW125970   4.884   3.995   9.002
 8546SOL    HW225971   4.912   3.979   8.842
 8547SOL     OW25972   3.732   5.050   7.648
 8547SOL    HW125973   3.639   5.071   7.617
 8547SOL    HW225974   3.742   4.951   7.661
 8548SOL     OW25975   4.726   4.520   8.686
 8548SOL    HW125976   4.767   4.488   8.772
 8548SOL    HW225977   4.630   4.493   8.683
 8549SOL     OW25978   3.764   4.268   8.562
 8549SOL    HW125979   3.849   4.235   8.521
 8549SOL    HW225980   3.777   4.283   8.660
 8550SOL     OW25981   3.913   4.244   9.170
 8550SOL    HW125982   3.972   4.204   9.100
 8550SOL    HW225983   3.855   4.315   9.129
 8551SOL     OW25984   4.539   4.296   7.773
 8551SOL    HW125985   4.546   4.207   7.727
 8551SOL    HW225986   4.445   4.330   7.765
 8552SOL     OW25987   4.395   4.188   8.717
 8552SOL    HW125988   4.361   4.099   8.687
 8552SOL    HW225989   4.421   4.242   8.637
 8553SOL     OW25990   4.197   4.224   7.639
 8553SOL    HW125991   4.258   4.304   7.643
 8553SOL    HW225992   4.102   4.255   7.646
 8554SOL     OW25993   3.883   4.861   8.914
 8554SOL    HW125994   3.905   4.800   8.990
 8554SOL    HW225995   3.893   4.812   8.828
 8555SOL     OW25996   3.807   4.982   8.470
 8555SOL    HW125997   3.802   4.981   8.570
 8555SOL    HW225998   3.724   4.941   8.432
 8556SOL     OW25999   3.987   4.050   8.168
 8556SOL    HW126000   3.908   4.101   8.134
 8556SOL    HW226001   3.978   4.035   8.266
 8557SOL     OW26002   4.546   4.726   8.820
 8557SOL    HW126003   4.586   4.725   8.728
 8557SOL    HW226004   4.556   4.818   8.860
 8558SOL     OW26005   4.640   4.634   7.739
 8558SOL    HW126006   4.703   4.672   7.671
 8558SOL    HW226007   4.680   4.551   7.778
 8559SOL     OW26008   4.096   5.012   8.938
 8559SOL    HW126009   4.083   5.105   8.904
 8559SOL    HW226010   4.012   4.960   8.925
 8560SOL     OW26011   4.763   4.822   8.144
 8560SOL    HW126012   4.693   4.775   8.198
 8560SOL    HW226013   4.822   4.754   8.101
 8561SOL     OW26014   4.738   3.960   8.419
 8561SOL    HW126015   4.730   3.924   8.326
 8561SOL    HW226016   4.736   3.884   8.484
 8562SOL     OW26017   3.829   4.737   9.174
 8562SOL    HW126018   3.752   4.704   9.228
 8562SOL    HW226019   3.914   4.707   9.216
 8563SOL     OW26020   4.396   3.927   8.937
 8563SOL    HW126021   4.486   3.911   8.897
 8563SOL    HW226022   4.404   3.932   9.036
 8564SOL     OW26023   3.799   4.069   7.481
 8564SOL    HW126024   3.707   4.041   7.452
 8564SOL    HW226025   3.830   4.146   7.425
 8565SOL     OW26026   3.796   3.890   7.766
 8565SOL    HW126027   3.779   3.973   7.712
 8565SOL    HW226028   3.886   3.853   7.744
 8566SOL     OW26029   4.337   4.566   8.879
 8566SOL    HW126030   4.393   4.647   8.862
 8566SOL    HW226031   4.396   4.486   8.882
 8567SOL     OW26032   4.440   4.289   9.156
 8567SOL    HW126033   4.459   4.354   9.230
 8567SOL    HW226034   4.500   4.209   9.165
 8568SOL     OW26035   4.318   4.469   8.100
 8568SOL    HW126036   4.368   4.554   8.081
 8568SOL    HW226037   4.230   4.471   8.052
 8569SOL     OW26038   4.583   4.680   8.309
 8569SOL    HW126039   4.637   4.611   8.357
 8569SOL    HW226040   4.551   4.749   8.375
 8570SOL     OW26041   4.807   4.708   7.535
 8570SOL    HW126042   4.784   4.761   7.453
 8570SOL    HW226043   4.888   4.652   7.516
 8571SOL     OW26044   3.803   4.964   8.101
 8571SOL    HW126045   3.802   4.917   8.189
 8571SOL    HW226046   3.885   4.936   8.050
 8572SOL     OW26047   4.152   4.148   7.968
 8572SOL    HW126048   4.182   4.076   7.906
 8572SOL    HW226049   4.113   4.108   8.051
 8573SOL     OW26050   4.041   4.271   8.728
 8573SOL    HW126051   4.079   4.212   8.800
 8573SOL    HW226052   4.081   4.245   8.640
 8574SOL     OW26053   4.725   3.758   8.602
 8574SOL    HW126054   4.662   3.686   8.571
 8574SOL    HW226055   4.818   3.722   8.602
 8575SOL     OW26056   4.494   5.054   7.749
 8575SOL    HW126057   4.448   4.967   7.766
 8575SOL    HW226058   4.585   5.051   7.790
 8576SOL     OW26059   3.763   4.801   7.748
 8576SOL    HW126060   3.862   4.790   7.739
 8576SOL    HW226061   3.723   4.715   7.780
 8577SOL     OW26062   3.954   4.352   9.423
 8577SOL    HW126063   3.861   4.350   9.460
 8577SOL    HW226064   3.955   4.313   9.331
 8578SOL     OW26065   3.949   3.999  10.306
 8578SOL    HW126066   3.984   3.982  10.398
 8578SOL    HW226067   3.861   3.954  10.294
 8579SOL     OW26068   3.743   4.092   9.957
 8579SOL    HW126069   3.661   4.135   9.996
 8579SOL    HW226070   3.715   4.019   9.894
 8580SOL     OW26071   4.859   4.427  10.027
 8580SOL    HW126072   4.916   4.505  10.002
 8580SOL    HW226073   4.799   4.453  10.103
 8581SOL     OW26074   4.492   4.868  10.333
 8581SOL    HW126075   4.414   4.885  10.393
 8581SOL    HW226076   4.526   4.955  10.297
 8582SOL     OW26077   4.409   4.736   9.975
 8582SOL    HW126078   4.478   4.720  10.045
 8582SOL    HW226079   4.336   4.793  10.013
 8583SOL     OW26080   4.162   4.116  10.809
 8583SOL    HW126081   4.244   4.060  10.818
 8583SOL    HW226082   4.081   4.058  10.813
 8584SOL     OW26083   3.964   4.815  10.196
 8584SOL    HW126084   3.978   4.731  10.248
 8584SOL    HW226085   3.909   4.879  10.251
 8585SOL     OW26086   4.330   4.688   9.433
 8585SOL    HW126087   4.337   4.772   9.379
 8585SOL    HW226088   4.376   4.701   9.521
 8586SOL     OW26089   3.846   4.367   9.873
 8586SOL    HW126090   3.801   4.279   9.890
 8586SOL    HW226091   3.845   4.421   9.957
 8587SOL     OW26092   4.533   3.728   9.812
 8587SOL    HW126093   4.573   3.819   9.803
 8587SOL    HW226094   4.433   3.736   9.818
 8588SOL     OW26095   3.921   4.700  10.574
 8588SOL    HW126096   4.010   4.655  10.560
 8588SOL    HW226097   3.848   4.635  10.555
 8589SOL     OW26098   4.322   4.453   9.580
 8589SOL    HW126099   4.346   4.522   9.512
 8589SOL    HW226100   4.244   4.486   9.634
 8590SOL     OW26101   4.531   4.329  10.775
 8590SOL    HW126102   4.484   4.326  10.864
 8590SOL    HW226103   4.480   4.274  10.709
 8591SOL     OW26104   4.715   4.134  10.552
 8591SOL    HW126105   4.638   4.168  10.606
 8591SOL    HW226106   4.681   4.083  10.473
 8592SOL     OW26107   4.765   4.425   9.739
 8592SOL    HW126108   4.791   4.421   9.835
 8592SOL    HW226109   4.680   4.374   9.725
 8593SOL     OW26110   3.800   4.535  10.099
 8593SOL    HW126111   3.899   4.523  10.108
 8593SOL    HW226112   3.776   4.630  10.120
 8594SOL     OW26113   4.589   4.072   9.505
 8594SOL    HW126114   4.648   4.135   9.456
 8594SOL    HW226115   4.608   3.978   9.476
 8595SOL     OW26116   4.274   3.920  10.195
 8595SOL    HW126117   4.269   3.915  10.295
 8595SOL    HW226118   4.276   4.016  10.166
 8596SOL     OW26119   4.045   4.667   9.552
 8596SOL    HW126120   4.127   4.706   9.510
 8596SOL    HW226121   4.018   4.585   9.503
 8597SOL     OW26122   4.106   4.424   9.790
 8597SOL    HW126123   4.151   4.334   9.787
 8597SOL    HW226124   4.012   4.413   9.823
 8598SOL     OW26125   4.338   3.846   9.427
 8598SOL    HW126126   4.436   3.824   9.434
 8598SOL    HW226127   4.307   3.829   9.334
 8599SOL     OW26128   4.646   4.227  10.209
 8599SOL    HW126129   4.621   4.218  10.113
 8599SOL    HW226130   4.694   4.145  10.240
 8600SOL     OW26131   4.263   3.788   9.822
 8600SOL    HW126132   4.182   3.789   9.880
 8600SOL    HW226133   4.266   3.871   9.767
 8601SOL     OW26134   5.158   4.912   9.351
 8601SOL    HW126135   5.190   4.836   9.408
 8601SOL    HW226136   5.066   4.939   9.381
 8602SOL     OW26137   4.021   3.759   9.481
 8602SOL    HW126138   4.070   3.843   9.460
 8602SOL    HW226139   4.083   3.694   9.526
 8603SOL     OW26140   4.659   3.960   9.790
 8603SOL    HW126141   4.611   4.001   9.712
 8603SOL    HW226142   4.758   3.958   9.771
 8604SOL     OW26143   4.183   4.876  10.051
 8604SOL    HW126144   4.112   4.849  10.116
 8604SOL    HW226145   4.157   4.848   9.958
 8605SOL     OW26146   4.756   4.273   9.326
 8605SOL    HW126147   4.715   4.355   9.287
 8605SOL    HW226148   4.820   4.299   9.399
 8606SOL     OW26149   3.802   4.280  10.696
 8606SOL    HW126150   3.894   4.279  10.655
 8606SOL    HW226151   3.796   4.354  10.763
 8607SOL     OW26152   4.285   3.946  10.457
 8607SOL    HW126153   4.323   3.862  10.494
 8607SOL    HW226154   4.197   3.965  10.501
 8608SOL     OW26155   4.590   4.178   9.952
 8608SOL    HW126156   4.558   4.250   9.890
 8608SOL    HW226157   4.614   4.097   9.899
 8609SOL     OW26158   4.741   3.763  10.063
 8609SOL    HW126159   4.669   3.768   9.994
 8609SOL    HW226160   4.717   3.694  10.132
 8610SOL     OW26161   4.251   3.980   9.638
 8610SOL    HW126162   4.278   3.921   9.563
 8610SOL    HW226163   4.251   4.075   9.607
 8611SOL     OW26164   4.788   5.071  10.650
 8611SOL    HW126165   4.708   5.048  10.705
 8611SOL    HW226166   4.871   5.045  10.699
 8612SOL     OW26167   4.429   4.774   9.678
 8612SOL    HW126168   4.415   4.781   9.777
 8612SOL    HW226169   4.513   4.723   9.660
 8613SOL     OW26170   4.134   4.537  10.561
 8613SOL    HW126171   4.220   4.549  10.611
 8613SOL    HW226172   4.092   4.450  10.588
 8614SOL     OW26173   4.091   4.824   9.811
 8614SOL    HW126174   4.084   4.907   9.755
 8614SOL    HW226175   4.095   4.744   9.751
 8615SOL     OW26176   4.290   4.261  10.175
 8615SOL    HW126177   4.302   4.327  10.101
 8615SOL    HW226178   4.336   4.295  10.258
 8616SOL     OW26179   4.126   4.475  10.908
 8616SOL    HW126180   4.194   4.530  10.861
 8616SOL    HW226181   4.166   4.387  10.935
 8617SOL     OW26182   4.297   4.594  10.339
 8617SOL    HW126183   4.341   4.683  10.330
 8617SOL    HW226184   4.234   4.594  10.416
 8618SOL     OW26185   5.084   4.586  10.355
 8618SOL    HW126186   5.009   4.586  10.289
 8618SOL    HW226187   5.121   4.494  10.364
 8619SOL     OW26188   4.933   4.249   9.585
 8619SOL    HW126189   4.946   4.165   9.639
 8619SOL    HW226190   4.904   4.323   9.645
 8620SOL     OW26191   4.031   3.937  10.541
 8620SOL    HW126192   4.008   3.974  10.631
 8620SOL    HW226193   4.001   3.842  10.535
 8621SOL     OW26194   4.456   4.358  10.374
 8621SOL    HW126195   4.515   4.332  10.298
 8621SOL    HW226196   4.428   4.454  10.363
 8622SOL     OW26197   4.031   3.787   9.928
 8622SOL    HW126198   4.020   3.881   9.961
 8622SOL    HW226199   4.026   3.724  10.005
 8623SOL     OW26200   4.747   4.490  10.276
 8623SOL    HW126201   4.762   4.511  10.372
 8623SOL    HW226202   4.717   4.395  10.267
 8624SOL     OW26203   5.264   3.998   9.435
 8624SOL    HW126204   5.203   3.923   9.458
 8624SOL    HW226205   5.286   4.050   9.518
 8625SOL     OW26206   4.043   4.534  10.259
 8625SOL    HW126207   4.136   4.570  10.264
 8625SOL    HW226208   4.037   4.449  10.311
 8626SOL     OW26209   4.063   4.233  10.316
 8626SOL    HW126210   4.011   4.150  10.299
 8626SOL    HW226211   4.140   4.238  10.252
 8627SOL     OW26212   3.732   5.050   9.510
 8627SOL    HW126213   3.639   5.071   9.479
 8627SOL    HW226214   3.742   4.951   9.523
 8628SOL     OW26215   4.726   4.520  10.548
 8628SOL    HW126216   4.767   4.488  10.634
 8628SOL    HW226217   4.630   4.493  10.545
 8629SOL     OW26218   3.764   4.268  10.424
 8629SOL    HW126219   3.849   4.235  10.383
 8629SOL    HW226220   3.777   4.283  10.522
 8630SOL     OW26221   4.539   4.296   9.635
 8630SOL    HW126222   4.546   4.207   9.589
 8630SOL    HW226223   4.445   4.330   9.627
 8631SOL     OW26224   4.395   4.188  10.579
 8631SOL    HW126225   4.361   4.099  10.549
 8631SOL    HW226226   4.421   4.242  10.499
 8632SOL     OW26227   4.197   4.224   9.501
 8632SOL    HW126228   4.258   4.304   9.505
 8632SOL    HW226229   4.102   4.255   9.508
 8633SOL     OW26230   3.883   4.861  10.776
 8633SOL    HW126231   3.905   4.800  10.852
 8633SOL    HW226232   3.893   4.812  10.690
 8634SOL     OW26233   3.807   4.982  10.332
 8634SOL    HW126234   3.802   4.981  10.432
 8634SOL    HW226235   3.724   4.941  10.294
 8635SOL     OW26236   4.554   4.997  10.732
 8635SOL    HW126237   4.549   5.030  10.827
 8635SOL    HW226238   4.468   5.016  10.686
 8636SOL     OW26239   3.987   4.050  10.030
 8636SOL    HW126240   3.908   4.101   9.996
 8636SOL    HW226241   3.978   4.035  10.128
 8637SOL     OW26242   4.546   4.726  10.682
 8637SOL    HW126243   4.586   4.725  10.590
 8637SOL    HW226244   4.556   4.818  10.722
 8638SOL     OW26245   4.640   4.634   9.601
 8638SOL    HW126246   4.703   4.672   9.533
 8638SOL    HW226247   4.680   4.551   9.640
 8639SOL     OW26248   4.096   5.012  10.800
 8639SOL    HW126249   4.083   5.105  10.766
 8639SOL    HW226250   4.012   4.960  10.787
 8640SOL     OW26251   4.763   4.822  10.006
 8640SOL    HW126252   4.693   4.775  10.060
 8640SOL    HW226253   4.822   4.754   9.963
 8641SOL     OW26254   4.738   3.960  10.281
 8641SOL    HW126255   4.730   3.924  10.188
 8641SOL    HW226256   4.736   3.884  10.346
 8642SOL     OW26257   4.396   3.927  10.799
 8642SOL    HW126258   4.486   3.911  10.759
 8642SOL    HW226259   4.404   3.932  10.898
 8643SOL     OW26260   3.799   4.069   9.343
 8643SOL    HW126261   3.707   4.041   9.314
 8643SOL    HW226262   3.830   4.146   9.287
 8644SOL     OW26263   3.796   3.890   9.628
 8644SOL    HW126264   3.779   3.973   9.574
 8644SOL    HW226265   3.886   3.853   9.606
 8645SOL     OW26266   4.337   4.566  10.741
 8645SOL    HW126267   4.393   4.647  10.724
 8645SOL    HW226268   4.396   4.486  10.744
 8646SOL     OW26269   4.318   4.469   9.962
 8646SOL    HW126270   4.368   4.554   9.943
 8646SOL    HW226271   4.230   4.471   9.914
 8647SOL     OW26272   4.583   4.680  10.171
 8647SOL    HW126273   4.637   4.611  10.219
 8647SOL    HW226274   4.551   4.749  10.237
 8648SOL     OW26275   4.807   4.708   9.397
 8648SOL    HW126276   4.784   4.761   9.315
 8648SOL    HW226277   4.888   4.652   9.378
 8649SOL     OW26278   3.803   4.964   9.963
 8649SOL    HW126279   3.802   4.917  10.051
 8649SOL    HW226280   3.885   4.936   9.912
 8650SOL     OW26281   4.152   4.148   9.830
 8650SOL    HW126282   4.182   4.076   9.768
 8650SOL    HW226283   4.113   4.108   9.913
 8651SOL     OW26284   4.041   4.271  10.590
 8651SOL    HW126285   4.079   4.212  10.662
 8651SOL    HW226286   4.081   4.245  10.502
 8652SOL     OW26287   4.725   3.758  10.464
 8652SOL    HW126288   4.662   3.686  10.433
 8652SOL    HW226289   4.818   3.722  10.464
 8653SOL     OW26290   4.494   5.054   9.611
 8653SOL    HW126291   4.448   4.967   9.628
 8653SOL    HW226292   4.585   5.051   9.652
 8654SOL     OW26293   3.763   4.801   9.610
 8654SOL    HW126294   3.862   4.790   9.601
 8654SOL    HW226295   3.723   4.715   9.642
   5.00000   5.00000  10.82535
