2gCDOH_1PEG_l11
21945
    1LIG      O    1   2.207   2.270   0.026
    1LIG      C    2   2.291   2.292   0.146
    1LIG     C1    3   2.218   2.242   0.278
    1LIG     O1    4   2.282   2.291   0.402
    1LIG     C2    5   2.220   2.236   0.524
    1LIG     C3    6   2.294   2.283   0.656
    1LIG     O2    7   2.234   2.222   0.775
    1LIG     C4    8   2.289   2.273   0.900
    1LIG     C5    9   2.212   2.216   1.026
    1LIG     O3   10   2.276   2.259   1.150
    1LIG     C6   11   2.212   2.213   1.273
    1LIG     C7   12   2.285   2.273   1.400
    1LIG     O4   13   2.214   2.238   1.522
    1LIG     C8   14   2.290   2.271   1.644
    1LIG     C9   15   2.212   2.225   1.772
    1LIG     O5   16   2.279   2.272   1.892
    1LIG    C10   17   2.224   2.219   2.017
    1LIG    C11   18   2.302   2.273   2.142
    1LIG     O6   19   2.252   2.210   2.264
    1LIG    C12   20   2.296   2.280   2.385
    1LIG    C13   21   2.218   2.228   2.512
    1LIG     O7   22   2.289   2.267   2.632
    1LIG    C14   23   2.216   2.246   2.756
    1LIG    C15   24   2.300   2.300   2.878
    1LIG     O8   25   2.255   2.242   3.004
    1LIG    C16   26   2.312   2.302   3.123
    1LIG    C17   27   2.242   2.240   3.249
    1LIG     O9   28   2.284   2.307   3.371
    1LIG    C18   29   2.226   2.245   3.490
    1LIG    C19   30   2.300   2.294   3.619
    1LIG    O10   31   2.228   2.250   3.738
    1LIG    C20   32   2.295   2.293   3.860
    1LIG    C21   33   2.216   2.243   3.986
    1LIG    O11   34   2.275   2.294   4.109
    1LIG    C22   35   2.213   2.237   4.228
    1LIG    C23   36   2.292   2.281   4.357
    1LIG    O12   37   2.236   2.216   4.475
    1LIG    C24   38   2.291   2.269   4.598
    1LIG    C25   39   2.218   2.206   4.723
    1LIG    O13   40   2.270   2.265   4.846
    1LIG    C26   41   2.207   2.218   4.969
    1LIG    C27   42   2.282   2.276   5.095
    1LIG    O14   43   2.207   2.251   5.217
    1LIG    C28   44   2.281   2.291   5.337
    1LIG    C29   45   2.209   2.236   5.464
    1LIG    O15   46   2.263   2.293   5.587
    1LIG    C30   47   2.219   2.224   5.708
    1LIG    C31   48   2.297   2.273   5.834
    1LIG    O16   49   2.241   2.213   5.954
    1LIG    C32   50   2.282   2.279   6.077
    1LIG    C33   51   2.203   2.219   6.199
    1LIG    O17   52   2.260   2.266   6.323
    1LIG    C34   53   2.184   2.232   6.441
    1LIG    C35   54   2.257   2.289   6.566
    1LIG    O18   55   2.193   2.246   6.689
    1LIG    C36   56   2.261   2.296   6.807
    1LIG    C37   57   2.205   2.222   6.933
    1LIG    O19   58   2.248   2.292   7.053
    1LIG    C38   59   2.205   2.225   7.175
    1LIG    C39   60   2.287   2.278   7.297
    1LIG    O20   61   2.226   2.234   7.421
    1LIG    C40   62   2.294   2.284   7.539
    1LIG    C41   63   2.218   2.235   7.667
    1LIG    O21   64   2.288   2.272   7.788
    1LIG    C42   65   2.213   2.234   7.906
    1LIG    C43   66   2.287   2.283   8.035
    1LIG    O22   67   2.233   2.218   8.153
    1LIG    C44   68   2.285   2.276   8.276
    1LIG    C45   69   2.209   2.219   8.400
    1LIG    O23   70   2.266   2.275   8.522
    1LIG    C46   71   2.212   2.218   8.644
    1LIG    C47   72   2.287   2.279   8.768
    1LIG    O24   73   2.213   2.255   8.892
    1LIG    C48   74   2.293   2.282   9.011
    1LIG    C49   75   2.221   2.231   9.141
    1LIG    O25   76   2.292   2.275   9.260
    1LIG    C50   77   2.232   2.229   9.384
    1LIG    C51   78   2.310   2.281   9.511
    1LIG    O26   79   2.252   2.224   9.633
    1LIG    C52   80   2.294   2.290   9.756
    1LIG    C53   81   2.211   2.237   9.879
    1LIG    O27   82   2.274   2.272  10.006
    1LIG    C54   83   2.207   2.223  10.127
    1LIG    C55   84   2.281   2.275  10.257
    1LIG    O28   85   2.218   2.228  10.381
    1LIG    C56   86   2.274   2.283  10.505
    1LIG    C57   87   2.209   2.213  10.631
    1LIG    O29   88   2.254   2.273  10.758
    1LIG    C58   89   2.190   2.215  10.877
    1LIG    C59   90   2.282   2.225  11.007
    1LIG      H   91   2.313   2.399   0.155
    1LIG     H1   92   2.386   2.239   0.136
    1LIG     H2   93   2.220   2.133   0.279
    1LIG     H3   94   2.113   2.275   0.277
    1LIG     H4   95   2.224   2.127   0.518
    1LIG     H5   96   2.115   2.266   0.528
    1LIG     H6   97   2.287   2.392   0.664
    1LIG     H7   98   2.400   2.256   0.650
    1LIG     H8   99   2.283   2.383   0.902
    1LIG     H9  100   2.395   2.245   0.908
    1LIG    H10  101   2.211   2.107   1.022
    1LIG    H11  102   2.108   2.252   1.024
    1LIG    H12  103   2.216   2.104   1.278
    1LIG    H13  104   2.107   2.244   1.274
    1LIG    H14  105   2.291   2.382   1.391
    1LIG    H15  106   2.387   2.233   1.404
    1LIG    H16  107   2.306   2.379   1.648
    1LIG    H17  108   2.387   2.221   1.641
    1LIG    H18  109   2.207   2.116   1.773
    1LIG    H19  110   2.110   2.265   1.769
    1LIG    H20  111   2.228   2.109   2.015
    1LIG    H21  112   2.119   2.249   2.026
    1LIG    H22  113   2.288   2.381   2.148
    1LIG    H23  114   2.409   2.252   2.131
    1LIG    H24  115   2.279   2.388   2.374
    1LIG    H25  116   2.404   2.262   2.399
    1LIG    H26  117   2.210   2.119   2.508
    1LIG    H27  118   2.117   2.271   2.512
    1LIG    H28  119   2.198   2.138   2.768
    1LIG    H29  120   2.120   2.298   2.752
    1LIG    H30  121   2.291   2.409   2.882
    1LIG    H31  122   2.406   2.274   2.864
    1LIG    H32  123   2.294   2.410   3.122
    1LIG    H33  124   2.420   2.283   3.127
    1LIG    H34  125   2.264   2.133   3.254
    1LIG    H35  126   2.133   2.252   3.237
    1LIG    H36  127   2.234   2.136   3.483
    1LIG    H37  128   2.120   2.272   3.496
    1LIG    H38  129   2.306   2.403   3.619
    1LIG    H39  130   2.401   2.252   3.620
    1LIG    H40  131   2.301   2.403   3.862
    1LIG    H41  132   2.397   2.253   3.863
    1LIG    H42  133   2.218   2.134   3.988
    1LIG    H43  134   2.111   2.275   3.980
    1LIG    H44  135   2.215   2.128   4.220
    1LIG    H45  136   2.109   2.270   4.234
    1LIG    H46  137   2.285   2.389   4.368
    1LIG    H47  138   2.397   2.253   4.347
    1LIG    H48  139   2.279   2.378   4.601
    1LIG    H49  140   2.399   2.246   4.603
    1LIG    H50  141   2.234   2.098   4.724
    1LIG    H51  142   2.111   2.226   4.714
    1LIG    H52  143   2.209   2.109   4.972
    1LIG    H53  144   2.102   2.251   4.971
    1LIG    H54  145   2.298   2.384   5.082
    1LIG    H55  146   2.379   2.226   5.103
    1LIG    H56  147   2.288   2.401   5.341
    1LIG    H57  148   2.383   2.250   5.333
    1LIG    H58  149   2.219   2.127   5.466
    1LIG    H59  150   2.102   2.260   5.458
    1LIG    H60  151   2.231   2.115   5.696
    1LIG    H61  152   2.112   2.244   5.724
    1LIG    H62  153   2.289   2.383   5.840
    1LIG    H63  154   2.404   2.248   5.826
    1LIG    H64  155   2.263   2.387   6.070
    1LIG    H65  156   2.390   2.265   6.092
    1LIG    H66  157   2.207   2.109   6.197
    1LIG    H67  158   2.097   2.246   6.193
    1LIG    H68  159   2.176   2.122   6.450
    1LIG    H69  160   2.083   2.274   6.435
    1LIG    H70  161   2.258   2.399   6.561
    1LIG    H71  162   2.361   2.254   6.566
    1LIG    H72  163   2.243   2.404   6.816
    1LIG    H73  164   2.369   2.279   6.799
    1LIG    H74  165   2.242   2.119   6.934
    1LIG    H75  166   2.096   2.220   6.929
    1LIG    H76  167   2.220   2.117   7.166
    1LIG    H77  168   2.098   2.244   7.190
    1LIG    H78  169   2.290   2.388   7.295
    1LIG    H79  170   2.390   2.240   7.291
    1LIG    H80  171   2.297   2.393   7.537
    1LIG    H81  172   2.397   2.247   7.541
    1LIG    H82  173   2.209   2.126   7.663
    1LIG    H83  174   2.117   2.278   7.667
    1LIG    H84  175   2.205   2.124   7.909
    1LIG    H85  176   2.112   2.276   7.903
    1LIG    H86  177   2.275   2.392   8.043
    1LIG    H87  178   2.394   2.261   8.027
    1LIG    H88  179   2.273   2.385   8.273
    1LIG    H89  180   2.392   2.253   8.284
    1LIG    H90  181   2.219   2.110   8.402
    1LIG    H91  182   2.103   2.245   8.394
    1LIG    H92  183   2.225   2.109   8.644
    1LIG    H93  184   2.105   2.240   8.651
    1LIG    H94  185   2.298   2.388   8.754
    1LIG    H95  186   2.387   2.235   8.775
    1LIG    H96  187   2.311   2.390   9.018
    1LIG    H97  188   2.390   2.233   9.003
    1LIG    H98  189   2.216   2.122   9.139
    1LIG    H99  190   2.118   2.270   9.143
    1LIG   H100  191   2.230   2.120   9.384
    1LIG   H101  192   2.129   2.266   9.389
    1LIG   H102  193   2.303   2.390   9.514
    1LIG   H103  194   2.416   2.253   9.504
    1LIG   H104  195   2.281   2.399   9.747
    1LIG   H105  196   2.401   2.270   9.773
    1LIG   H106  197   2.203   2.129   9.871
    1LIG   H107  198   2.109   2.279   9.875
    1LIG   H108  199   2.206   2.114  10.127
    1LIG   H109  200   2.103   2.259  10.128
    1LIG   H110  201   2.281   2.385  10.256
    1LIG   H111  202   2.385   2.241  10.255
    1LIG   H112  203   2.256   2.391  10.508
    1LIG   H113  204   2.383   2.267  10.506
    1LIG   H114  205   2.235   2.107  10.630
    1LIG   H115  206   2.100   2.222  10.624
    1LIG   H116  207   2.168   2.109  10.859
    1LIG   H117  208   2.095   2.267  10.895
    1LIG   H118  209   2.366   2.292  10.988
    1LIG   H119  210   2.323   2.125  11.027
    2MOL     C1  211   1.573   2.452   5.018
    2MOL     H1  212   1.469   2.419   5.016
    2MOL     O1  213   1.602   2.514   5.146
    2MOL     C2  214   1.735   2.570   5.162
    2MOL     H2  215   1.810   2.490   5.157
    2MOL     C3  216   1.741   2.637   5.301
    2MOL     H3  217   1.845   2.660   5.328
    2MOL     H4  218   1.703   2.566   5.374
    2MOL     O2  219   1.661   2.756   5.307
    2MOL     H5  220   1.650   2.781   5.401
    2MOL     C4  221   1.592   2.557   4.905
    2MOL     H6  222   1.522   2.639   4.923
    2MOL     O3  223   1.565   2.501   4.776
    2MOL     H7  224   1.584   2.404   4.786
    2MOL     C5  225   1.735   2.615   4.908
    2MOL     H8  226   1.805   2.533   4.893
    2MOL     O4  227   1.753   2.715   4.807
    2MOL     H9  228   1.707   2.681   4.728
    2MOL     C6  229   1.762   2.673   5.048
    2MOL    H10  230   1.697   2.760   5.060
    2MOL     O5  231   1.901   2.712   5.050
    2MOL     C7  232   1.928   2.837   5.116
    2MOL    H11  233   1.837   2.881   5.158
    2MOL     O6  234   2.023   2.812   5.222
    2MOL     C8  235   2.151   2.757   5.180
    2MOL    H12  236   2.135   2.661   5.129
    2MOL     C9  237   2.237   2.732   5.307
    2MOL    H13  238   2.325   2.672   5.280
    2MOL    H14  239   2.178   2.673   5.379
    2MOL     O7  240   2.279   2.854   5.368
    2MOL    H15  241   2.365   2.878   5.326
    2MOL    C10  242   1.987   2.936   5.013
    2MOL    H16  243   1.999   3.034   5.062
    2MOL     O8  244   1.898   2.949   4.903
    2MOL    H17  245   1.857   2.860   4.890
    2MOL    C11  246   2.125   2.890   4.962
    2MOL    H18  247   2.111   2.797   4.905
    2MOL     O9  248   2.186   2.991   4.879
    2MOL    H19  249   2.119   3.022   4.813
    2MOL    C12  250   2.215   2.859   5.083
    2MOL    H20  251   2.232   2.952   5.138
    2MOL    O10  252   2.339   2.806   5.033
    2MOL    C13  253   2.451   2.896   5.047
    2MOL    H21  254   2.416   2.999   5.067
    2MOL    O11  255   2.531   2.849   5.159
    2MOL    C14  256   2.592   2.718   5.140
    2MOL    H22  257   2.513   2.645   5.119
    2MOL    C15  258   2.665   2.673   5.270
    2MOL    H23  259   2.674   2.564   5.267
    2MOL    H24  260   2.602   2.699   5.356
    2MOL    O12  261   2.796   2.729   5.284
    2MOL    H25  262   2.853   2.664   5.237
    2MOL    C16  263   2.533   2.899   4.916
    2MOL    H26  264   2.610   2.978   4.925
    2MOL    O13  265   2.449   2.926   4.804
    2MOL    H27  266   2.364   2.955   4.844
    2MOL    C17  267   2.602   2.764   4.892
    2MOL    H28  268   2.522   2.690   4.883
    2MOL    O14  269   2.680   2.768   4.771
    2MOL    H29  270   2.641   2.844   4.723
    2MOL    C18  271   2.685   2.728   5.016
    2MOL    H30  272   2.762   2.805   5.033
    2MOL    O15  273   2.744   2.600   4.987
    2MOL    C19  274   2.887   2.587   5.004
    2MOL    H31  275   2.936   2.685   5.010
    2MOL    O16  276   2.910   2.511   5.125
    2MOL    C20  277   2.849   2.377   5.125
    2MOL    H32  278   2.741   2.387   5.110
    2MOL    C21  279   2.869   2.308   5.263
    2MOL    H33  280   2.787   2.237   5.278
    2MOL    H34  281   2.862   2.384   5.341
    2MOL    O17  282   2.993   2.237   5.274
    2MOL    H35  283   2.976   2.151   5.230
    2MOL    C22  284   2.942   2.512   4.879
    2MOL    H36  285   3.051   2.503   4.888
    2MOL    O18  286   2.907   2.585   4.761
    2MOL    H37  287   2.829   2.638   4.790
    2MOL    C23  288   2.880   2.370   4.872
    2MOL    H38  289   2.771   2.382   4.865
    2MOL    O19  290   2.927   2.298   4.758
    2MOL    H39  291   2.915   2.359   4.682
    2MOL    C24  292   2.909   2.296   5.006
    2MOL    H40  293   3.017   2.288   5.018
    2MOL    O20  294   2.846   2.166   4.999
    2MOL    C25  295   2.932   2.051   5.012
    2MOL    H41  296   3.038   2.079   5.001
    2MOL    O21  297   2.908   1.990   5.142
    2MOL    C26  298   2.770   1.947   5.164
    2MOL    H42  299   2.703   2.033   5.152
    2MOL    C27  300   2.752   1.896   5.311
    2MOL    H43  301   2.645   1.895   5.334
    2MOL    H44  302   2.800   1.968   5.379
    2MOL    O22  303   2.807   1.766   5.334
    2MOL    H45  304   2.904   1.777   5.347
    2MOL    C28  305   2.897   1.951   4.898
    2MOL    H46  306   2.965   1.866   4.904
    2MOL    O23  307   2.912   2.018   4.773
    2MOL    H47  308   2.893   2.112   4.792
    2MOL    C29  309   2.752   1.899   4.913
    2MOL    H48  310   2.685   1.986   4.902
    2MOL    O24  311   2.718   1.799   4.814
    2MOL    H49  312   2.792   1.790   4.748
    2MOL    C30  313   2.734   1.842   5.055
    2MOL    H50  314   2.799   1.754   5.066
    2MOL    O25  315   2.595   1.805   5.065
    2MOL    C31  316   2.567   1.680   5.132
    2MOL    H51  317   2.658   1.641   5.180
    2MOL    O26  318   2.466   1.706   5.231
    2MOL    C32  319   2.341   1.756   5.177
    2MOL    H52  320   2.359   1.849   5.122
    2MOL    C33  321   2.247   1.789   5.296
    2MOL    H53  322   2.163   1.850   5.260
    2MOL    H54  323   2.302   1.849   5.369
    2MOL    O27  324   2.197   1.671   5.359
    2MOL    H55  325   2.100   1.684   5.367
    2MOL    C34  326   2.518   1.575   5.030
    2MOL    H56  327   2.504   1.479   5.083
    2MOL    O28  328   2.615   1.558   4.928
    2MOL    H57  329   2.641   1.649   4.900
    2MOL    C35  330   2.383   1.616   4.967
    2MOL    H58  331   2.400   1.708   4.909
    2MOL    O29  332   2.330   1.512   4.881
    2MOL    H59  333   2.365   1.527   4.788
    2MOL    C36  334   2.284   1.650   5.080
    2MOL    H60  335   2.263   1.559   5.138
    2MOL    O30  336   2.166   1.700   5.016
    2MOL    C37  337   2.060   1.603   5.003
    2MOL    H61  338   2.099   1.501   5.009
    2MOL    O31  339   1.966   1.628   5.110
    2MOL    C38  340   1.913   1.764   5.109
    2MOL    H62  341   1.994   1.837   5.105
    2MOL    C39  342   1.838   1.790   5.241
    2MOL    H63  343   1.743   1.734   5.240
    2MOL    H64  344   1.815   1.896   5.250
    2MOL    O32  345   1.921   1.746   5.349
    2MOL    H65  346   1.913   1.807   5.426
    2MOL    C40  347   1.990   1.621   4.865
    2MOL    H66  348   1.916   1.541   4.855
    2MOL    O33  349   2.089   1.609   4.763
    2MOL    H67  350   2.170   1.579   4.809
    2MOL    C41  351   1.918   1.758   4.856
    2MOL    H68  352   1.995   1.836   4.857
    2MOL    O34  353   1.841   1.768   4.735
    2MOL    H69  354   1.861   1.690   4.679
    2MOL    C42  355   1.828   1.778   4.981
    2MOL    H70  356   1.749   1.702   4.982
    2MOL    O35  357   1.774   1.911   4.975
    2MOL    C43  358   1.630   1.921   4.983
    2MOL    H71  359   1.584   1.821   4.980
    2MOL    O36  360   1.596   1.988   5.106
    2MOL    C44  361   1.646   2.124   5.122
    2MOL    H72  362   1.756   2.124   5.125
    2MOL    C45  363   1.588   2.182   5.254
    2MOL    H73  364   1.479   2.169   5.252
    2MOL    H74  365   1.609   2.289   5.258
    2MOL    O37  366   1.640   2.120   5.373
    2MOL    H75  367   1.608   2.027   5.372
    2MOL    C46  368   1.580   2.001   4.860
    2MOL    H76  369   1.470   2.003   4.863
    2MOL    O38  370   1.622   1.940   4.738
    2MOL    H77  371   1.704   1.886   4.761
    2MOL    C47  372   1.631   2.146   4.864
    2MOL    H78  373   1.740   2.145   4.853
    2MOL    O39  374   1.570   2.224   4.759
    2MOL    H79  375   1.596   2.183   4.674
    2MOL    C48  376   1.598   2.210   5.001
    2MOL    H80  377   1.489   2.218   5.008
    2MOL    O40  378   1.661   2.340   5.003
    3MOL     C1  379   2.931   2.444   6.054
    3MOL     H1  380   3.036   2.411   6.046
    3MOL     O1  381   2.889   2.505   5.929
    3MOL     C2  382   2.753   2.558   5.925
    3MOL     H2  383   2.682   2.476   5.939
    3MOL     C3  384   2.729   2.621   5.785
    3MOL     H3  385   2.625   2.653   5.778
    3MOL     H4  386   2.743   2.544   5.709
    3MOL     O2  387   2.817   2.731   5.761
    3MOL     H5  388   2.778   2.783   5.688
    3MOL     C4  389   2.918   2.545   6.170
    3MOL     H6  390   2.986   2.629   6.152
    3MOL     O3  391   2.952   2.479   6.291
    3MOL     H7  392   2.917   2.388   6.280
    3MOL     C5  393   2.772   2.598   6.177
    3MOL     H8  394   2.706   2.512   6.194
    3MOL     O4  395   2.755   2.694   6.282
    3MOL     H9  396   2.815   2.669   6.356
    3MOL     C6  397   2.736   2.661   6.041
    3MOL    H10  398   2.805   2.745   6.023
    3MOL     O5  399   2.599   2.709   6.049
    3MOL     C7  400   2.575   2.840   5.994
    3MOL    H11  401   2.669   2.883   5.954
    3MOL     O6  402   2.480   2.829   5.886
    3MOL     C8  403   2.348   2.781   5.923
    3MOL    H12  404   2.358   2.683   5.973
    3MOL     C9  405   2.262   2.759   5.795
    3MOL    H13  406   2.185   2.685   5.817
    3MOL    H14  407   2.326   2.717   5.716
    3MOL     O7  408   2.200   2.879   5.749
    3MOL    H15  409   2.121   2.891   5.806
    3MOL    C10  410   2.521   2.937   6.103
    3MOL    H16  411   2.515   3.038   6.060
    3MOL     O8  412   2.608   2.939   6.215
    3MOL    H17  413   2.652   2.851   6.222
    3MOL    C11  414   2.378   2.898   6.149
    3MOL    H18  415   2.385   2.800   6.197
    3MOL     O9  416   2.324   2.994   6.242
    3MOL    H19  417   2.353   2.968   6.332
    3MOL    C12  418   2.288   2.883   6.024
    3MOL    H20  419   2.279   2.981   5.975
    3MOL    O10  420   2.160   2.836   6.071
    3MOL    C13  421   2.046   2.918   6.038
    3MOL    H21  422   2.077   3.020   6.011
    3MOL    O11  423   1.975   2.854   5.928
    3MOL    C14  424   1.926   2.719   5.957
    3MOL    H22  425   2.011   2.656   5.985
    3MOL    C15  426   1.863   2.658   5.829
    3MOL    H23  427   1.860   2.549   5.838
    3MOL    H24  428   1.928   2.683   5.744
    3MOL    O12  429   1.730   2.705   5.802
    3MOL    H25  430   1.670   2.651   5.859
    3MOL    C16  431   1.954   2.928   6.162
    3MOL    H26  432   1.870   2.993   6.137
    3MOL    O13  433   2.027   2.984   6.270
    3MOL    H27  434   2.122   2.970   6.249
    3MOL    C17  435   1.899   2.789   6.201
    3MOL    H28  436   1.985   2.726   6.226
    3MOL    O14  437   1.810   2.797   6.314
    3MOL    H29  438   1.854   2.859   6.377
    3MOL    C18  439   1.827   2.729   6.077
    3MOL    H30  440   1.746   2.797   6.049
    3MOL    O15  441   1.774   2.600   6.113
    3MOL    C19  442   1.632   2.585   6.097
    3MOL    H31  443   1.582   2.682   6.085
    3MOL    O16  444   1.610   2.503   5.980
    3MOL    C20  445   1.666   2.368   5.987
    3MOL    H32  446   1.774   2.376   6.002
    3MOL    C21  447   1.642   2.295   5.852
    3MOL    H33  448   1.714   2.214   5.841
    3MOL    H34  449   1.661   2.368   5.773
    3MOL    O17  450   1.509   2.243   5.838
    3MOL    H35  451   1.515   2.147   5.859
    3MOL    C22  452   1.573   2.517   6.223
    3MOL    H36  453   1.464   2.509   6.212
    3MOL    O18  454   1.603   2.597   6.336
    3MOL    H37  455   1.685   2.648   6.314
    3MOL    C23  456   1.630   2.374   6.241
    3MOL    H38  457   1.739   2.382   6.254
    3MOL    O19  458   1.573   2.306   6.354
    3MOL    H39  459   1.545   2.376   6.419
    3MOL    C24  460   1.604   2.296   6.109
    3MOL    H40  461   1.495   2.289   6.095
    3MOL    O20  462   1.663   2.165   6.123
    3MOL    C25  463   1.572   2.054   6.113
    3MOL    H41  464   1.468   2.086   6.129
    3MOL    O21  465   1.586   1.994   5.981
    3MOL    C26  466   1.719   1.944   5.948
    3MOL    H42  467   1.791   2.027   5.947
    3MOL    C27  468   1.716   1.879   5.806
    3MOL    H43  469   1.820   1.870   5.772
    3MOL    H44  470   1.665   1.946   5.737
    3MOL    O22  471   1.655   1.748   5.807
    3MOL    H45  472   1.596   1.737   5.729
    3MOL    C28  473   1.607   1.951   6.223
    3MOL    H46  474   1.536   1.867   6.216
    3MOL    O23  475   1.600   2.012   6.352
    3MOL    H47  476   1.591   2.109   6.335
    3MOL    C29  477   1.750   1.897   6.200
    3MOL    H48  478   1.820   1.981   6.212
    3MOL    O24  479   1.781   1.794   6.295
    3MOL    H49  480   1.733   1.815   6.378
    3MOL    C30  481   1.764   1.842   6.057
    3MOL    H50  482   1.701   1.752   6.051
    3MOL    O25  483   1.903   1.810   6.040
    3MOL    C31  484   1.931   1.686   5.974
    3MOL    H51  485   1.840   1.646   5.926
    3MOL    O26  486   2.031   1.711   5.873
    3MOL    C32  487   2.158   1.758   5.924
    3MOL    H52  488   2.143   1.849   5.983
    3MOL    C33  489   2.253   1.794   5.806
    3MOL    H53  490   2.342   1.844   5.846
    3MOL    H54  491   2.203   1.866   5.741
    3MOL    O27  492   2.293   1.680   5.730
    3MOL    H55  493   2.375   1.646   5.771
    3MOL    C34  494   1.980   1.580   6.076
    3MOL    H56  495   1.988   1.484   6.024
    3MOL    O28  496   1.887   1.567   6.182
    3MOL    H57  497   1.859   1.659   6.205
    3MOL    C35  498   2.119   1.617   6.133
    3MOL    H58  499   2.106   1.710   6.191
    3MOL    O29  500   2.168   1.512   6.219
    3MOL    H59  501   2.091   1.477   6.269
    3MOL    C36  502   2.215   1.647   6.015
    3MOL    H60  503   2.228   1.556   5.955
    3MOL    O30  504   2.340   1.691   6.070
    3MOL    C37  505   2.447   1.596   6.059
    3MOL    H61  506   2.408   1.494   6.042
    3MOL    O31  507   2.531   1.633   5.947
    3MOL    C38  508   2.599   1.761   5.957
    3MOL    H62  509   2.526   1.842   5.962
    3MOL    C39  510   2.682   1.781   5.828
    3MOL    H63  511   2.750   1.696   5.815
    3MOL    H64  512   2.743   1.872   5.837
    3MOL    O32  513   2.595   1.793   5.716
    3MOL    H65  514   2.619   1.723   5.650
    3MOL    C40  515   2.526   1.596   6.190
    3MOL    H66  516   2.600   1.515   6.187
    3MOL    O33  517   2.433   1.573   6.296
    3MOL    H67  518   2.344   1.587   6.253
    3MOL    C41  519   2.602   1.730   6.212
    3MOL    H68  520   2.528   1.809   6.226
    3MOL    O34  521   2.688   1.722   6.327
    3MOL    H69  522   2.629   1.717   6.406
    3MOL    C42  523   2.685   1.764   6.086
    3MOL    H70  524   2.767   1.692   6.076
    3MOL    O35  525   2.735   1.897   6.105
    3MOL    C43  526   2.878   1.911   6.105
    3MOL    H71  527   2.928   1.814   6.110
    3MOL    O36  528   2.917   1.981   5.985
    3MOL    C44  529   2.864   2.115   5.967
    3MOL    H72  530   2.754   2.112   5.962
    3MOL    C45  531   2.918   2.174   5.834
    3MOL    H73  532   3.027   2.162   5.832
    3MOL    H74  533   2.897   2.281   5.833
    3MOL    O37  534   2.860   2.116   5.716
    3MOL    H75  535   2.886   2.178   5.645
    3MOL    C46  536   2.920   1.995   6.229
    3MOL    H76  537   3.029   2.006   6.228
    3MOL    O38  538   2.879   1.932   6.351
    3MOL    H77  539   2.809   1.867   6.327
    3MOL    C47  540   2.858   2.135   6.221
    3MOL    H78  541   2.748   2.125   6.217
    3MOL    O39  542   2.895   2.207   6.338
    3MOL    H79  543   2.895   2.133   6.404
    3MOL    C48  544   2.906   2.202   6.090
    3MOL    H80  545   3.016   2.210   6.092
    3MOL    O40  546   2.844   2.332   6.081
    4SOL     OW  547   0.239   0.596   0.111
    4SOL    HW1  548   0.164   0.584   0.168
    4SOL    HW2  549   0.204   0.638   0.033
    5SOL     OW  550   0.191   0.296   0.988
    5SOL    HW1  551   0.221   0.264   1.073
    5SOL    HW2  552   0.130   0.229   0.958
    6SOL     OW  553   4.497   0.393   0.636
    6SOL    HW1  554   4.426   0.432   0.687
    6SOL    HW2  555   4.457   0.319   0.591
    7SOL     OW  556   0.569   1.296   1.182
    7SOL    HW1  557   0.483   1.302   1.141
    7SOL    HW2  558   0.585   1.384   1.217
    8SOL     OW  559   1.569   1.514   0.709
    8SOL    HW1  560   1.526   1.491   0.791
    8SOL    HW2  561   1.498   1.517   0.645
    9SOL     OW  562   1.141   0.697   0.692
    9SOL    HW1  563   1.185   0.781   0.685
    9SOL    HW2  564   1.088   0.703   0.772
   10SOL     OW  565   1.782   0.599   0.208
   10SOL    HW1  566   1.717   0.618   0.141
   10SOL    HW2  567   1.744   0.528   0.259
   11SOL     OW  568   0.746   1.137   1.045
   11SOL    HW1  569   0.680   1.175   1.103
   11SOL    HW2  570   0.786   1.213   1.002
   12SOL     OW  571   0.870   0.764   1.821
   12SOL    HW1  572   0.857   0.833   1.886
   12SOL    HW2  573   0.895   0.810   1.741
   13SOL     OW  574   0.684   0.997   0.646
   13SOL    HW1  575   0.751   0.988   0.714
   13SOL    HW2  576   0.616   1.051   0.687
   14SOL     OW  577   0.713   1.148   1.819
   14SOL    HW1  578   0.761   1.226   1.849
   14SOL    HW2  579   0.634   1.183   1.779
   15SOL     OW  580   0.333   1.418   1.067
   15SOL    HW1  581   0.252   1.397   1.020
   15SOL    HW2  582   0.383   1.472   1.006
   16SOL     OW  583   1.459   1.502   1.360
   16SOL    HW1  584   1.514   1.580   1.368
   16SOL    HW2  585   1.392   1.512   1.427
   17SOL     OW  586   0.444   0.391   1.479
   17SOL    HW1  587   0.533   0.356   1.478
   17SOL    HW2  588   0.392   0.323   1.522
   18SOL     OW  589   1.605   0.441   0.739
   18SOL    HW1  590   1.523   0.456   0.692
   18SOL    HW2  591   1.615   0.519   0.794
   19SOL     OW  592   0.245   1.692   0.479
   19SOL    HW1  593   0.232   1.779   0.517
   19SOL    HW2  594   0.313   1.705   0.413
   20SOL     OW  595   1.137   1.342   1.694
   20SOL    HW1  596   1.178   1.336   1.781
   20SOL    HW2  597   1.085   1.262   1.687
   21SOL     OW  598   0.246   1.427   0.526
   21SOL    HW1  599   0.240   1.522   0.526
   21SOL    HW2  600   0.185   1.399   0.595
   22SOL     OW  601   0.253   1.084   0.885
   22SOL    HW1  602   0.269   0.992   0.908
   22SOL    HW2  603   0.191   1.115   0.951
   23SOL     OW  604   0.606   1.792   1.429
   23SOL    HW1  605   0.524   1.774   1.473
   23SOL    HW2  606   0.629   1.882   1.454
   24SOL     OW  607   0.562   0.998   0.158
   24SOL    HW1  608   0.615   1.029   0.085
   24SOL    HW2  609   0.609   1.027   0.236
   25SOL     OW  610   1.575   0.120   1.463
   25SOL    HW1  611   1.614   0.187   1.407
   25SOL    HW2  612   1.566   0.162   1.549
   26SOL     OW  613   0.135   0.647   0.570
   26SOL    HW1  614   0.087   0.568   0.596
   26SOL    HW2  615   0.112   0.712   0.637
   27SOL     OW  616   1.844   1.758   0.325
   27SOL    HW1  617   1.910   1.730   0.388
   27SOL    HW2  618   1.865   1.850   0.307
   28SOL     OW  619   0.076   1.587   0.151
   28SOL    HW1  620   0.046   1.497   0.166
   28SOL    HW2  621   0.056   1.633   0.233
   29SOL     OW  622   1.690   0.920   0.645
   29SOL    HW1  623   1.772   0.877   0.620
   29SOL    HW2  624   1.667   0.973   0.569
   30SOL     OW  625   1.649   1.102   0.432
   30SOL    HW1  626   1.732   1.110   0.384
   30SOL    HW2  627   1.655   1.167   0.502
   31SOL     OW  628   0.098   0.769   1.564
   31SOL    HW1  629   0.185   0.754   1.526
   31SOL    HW2  630   0.102   0.858   1.598
   32SOL     OW  631   0.616   1.391   0.737
   32SOL    HW1  632   0.571   1.307   0.746
   32SOL    HW2  633   0.599   1.417   0.646
   33SOL     OW  634   1.285   1.236   1.421
   33SOL    HW1  635   1.317   1.168   1.361
   33SOL    HW2  636   1.345   1.231   1.496
   34SOL     OW  637   0.828   0.014   0.559
   34SOL    HW1  638   0.867   0.092   0.519
   34SOL    HW2  639   0.734   0.025   0.546
   35SOL     OW  640   0.176   0.941   1.278
   35SOL    HW1  641   0.267   0.918   1.259
   35SOL    HW2  642   0.132   0.936   1.193
   36SOL     OW  643   1.508   1.009   0.208
   36SOL    HW1  644   1.445   0.949   0.246
   36SOL    HW2  645   1.562   1.037   0.282
   37SOL     OW  646   1.184   1.812   1.625
   37SOL    HW1  647   1.191   1.872   1.551
   37SOL    HW2  648   1.202   1.726   1.588
   38SOL     OW  649   0.317   0.261   1.763
   38SOL    HW1  650   0.385   0.310   1.811
   38SOL    HW2  651   0.239   0.269   1.818
   39SOL     OW  652   1.467   1.419   0.947
   39SOL    HW1  653   1.400   1.435   1.014
   39SOL    HW2  654   1.453   1.327   0.922
   40SOL     OW  655   1.656   1.750   0.577
   40SOL    HW1  656   1.635   1.718   0.489
   40SOL    HW2  657   1.635   1.677   0.635
   41SOL     OW  658   0.592   0.715   0.265
   41SOL    HW1  659   0.594   0.801   0.222
   41SOL    HW2  660   0.529   0.725   0.336
   42SOL     OW  661   1.291   0.373   0.933
   42SOL    HW1  662   1.201   0.343   0.920
   42SOL    HW2  663   1.330   0.309   0.993
   43SOL     OW  664   1.581   1.673   0.314
   43SOL    HW1  665   1.673   1.699   0.305
   43SOL    HW2  666   1.553   1.654   0.225
   44SOL     OW  667   0.799   0.618   1.453
   44SOL    HW1  668   0.769   0.590   1.540
   44SOL    HW2  669   0.761   0.553   1.393
   45SOL     OW  670   1.388   0.482   1.676
   45SOL    HW1  671   1.393   0.527   1.761
   45SOL    HW2  672   1.455   0.414   1.681
   46SOL     OW  673   0.950   0.886   1.586
   46SOL    HW1  674   1.006   0.817   1.548
   46SOL    HW2  675   0.904   0.923   1.511
   47SOL     OW  676   0.999   0.417   1.231
   47SOL    HW1  677   0.909   0.421   1.263
   47SOL    HW2  678   0.994   0.365   1.151
   48SOL     OW  679   1.052   0.703   0.426
   48SOL    HW1  680   1.072   0.694   0.519
   48SOL    HW2  681   0.968   0.658   0.415
   49SOL     OW  682   0.095   0.822   0.784
   49SOL    HW1  683   0.179   0.818   0.830
   49SOL    HW2  684   0.030   0.833   0.854
   50SOL     OW  685   0.117   1.869   1.582
   50SOL    HW1  686   0.114   1.842   1.674
   50SOL    HW2  687   0.046   1.820   1.540
   51SOL     OW  688   0.879   0.362   0.210
   51SOL    HW1  689   0.926   0.417   0.148
   51SOL    HW2  690   0.901   0.272   0.185
   52SOL     OW  691   1.700   0.570   1.830
   52SOL    HW1  692   1.667   0.645   1.780
   52SOL    HW2  693   1.736   0.511   1.763
   53SOL     OW  694   1.381   1.142   0.540
   53SOL    HW1  695   1.459   1.131   0.486
   53SOL    HW2  696   1.327   1.204   0.492
   54SOL     OW  697   0.536   0.211   0.898
   54SOL    HW1  698   0.558   0.227   0.990
   54SOL    HW2  699   0.537   0.298   0.858
   55SOL     OW  700   0.998   1.442   0.472
   55SOL    HW1  701   0.967   1.517   0.421
   55SOL    HW2  702   0.975   1.463   0.562
   56SOL     OW  703   0.358   1.816   0.864
   56SOL    HW1  704   0.400   1.730   0.873
   56SOL    HW2  705   0.429   1.879   0.881
   57SOL     OW  706   1.801   1.051   0.871
   57SOL    HW1  707   1.748   1.032   0.794
   57SOL    HW2  708   1.738   1.059   0.942
   58SOL     OW  709   1.227   1.540   1.514
   58SOL    HW1  710   1.215   1.467   1.575
   58SOL    HW2  711   1.160   1.526   1.446
   59SOL     OW  712   0.306   0.951   0.285
   59SOL    HW1  713   0.387   0.979   0.243
   59SOL    HW2  714   0.314   0.856   0.293
   60SOL     OW  715   1.483   0.746   0.719
   60SOL    HW1  716   1.476   0.707   0.807
   60SOL    HW2  717   1.559   0.803   0.724
   61SOL     OW  718   0.471   1.266   1.735
   61SOL    HW1  719   0.445   1.272   1.643
   61SOL    HW2  720   0.389   1.266   1.784
   62SOL     OW  721   1.109   1.782   0.226
   62SOL    HW1  722   1.046   1.733   0.278
   62SOL    HW2  723   1.151   1.716   0.171
   63SOL     OW  724   0.156   0.266   1.515
   63SOL    HW1  725   0.131   0.352   1.481
   63SOL    HW2  726   0.195   0.285   1.600
   64SOL     OW  727   1.628   1.373   0.091
   64SOL    HW1  728   1.585   1.458   0.079
   64SOL    HW2  729   1.563   1.309   0.060
   65SOL     OW  730   0.468   1.740   0.319
   65SOL    HW1  731   0.510   1.798   0.382
   65SOL    HW2  732   0.539   1.708   0.264
   66SOL     OW  733   1.427   0.149   0.426
   66SOL    HW1  734   1.411   0.108   0.341
   66SOL    HW2  735   1.521   0.139   0.440
   67SOL     OW  736   0.250   1.785   1.227
   67SOL    HW1  737   0.298   1.709   1.259
   67SOL    HW2  738   0.215   1.758   1.142
   68SOL     OW  739   0.939   1.700   0.896
   68SOL    HW1  740   1.017   1.651   0.919
   68SOL    HW2  741   0.898   1.649   0.826
   69SOL     OW  742   0.392   0.690   0.464
   69SOL    HW1  743   0.419   0.600   0.482
   69SOL    HW2  744   0.302   0.695   0.496
   70SOL     OW  745   1.523   0.233   1.723
   70SOL    HW1  746   1.524   0.254   1.816
   70SOL    HW2  747   1.443   0.183   1.710
   71SOL     OW  748   0.603   0.101   0.132
   71SOL    HW1  749   0.697   0.081   0.130
   71SOL    HW2  750   0.569   0.068   0.049
   72SOL     OW  751   0.769   0.272   1.755
   72SOL    HW1  752   0.838   0.207   1.751
   72SOL    HW2  753   0.734   0.265   1.844
   73SOL     OW  754   0.876   1.523   1.194
   73SOL    HW1  755   0.859   1.485   1.108
   73SOL    HW2  756   0.946   1.469   1.231
   74SOL     OW  757   1.339   0.590   1.428
   74SOL    HW1  758   1.367   0.563   1.515
   74SOL    HW2  759   1.374   0.679   1.418
   75SOL     OW  760   0.819   1.389   0.946
   75SOL    HW1  761   0.903   1.378   0.902
   75SOL    HW2  762   0.755   1.396   0.874
   76SOL     OW  763   0.928   0.524   0.897
   76SOL    HW1  764   0.908   0.524   0.803
   76SOL    HW2  765   0.959   0.435   0.914
   77SOL     OW  766   0.569   0.072   0.515
   77SOL    HW1  767   0.482   0.057   0.553
   77SOL    HW2  768   0.554   0.137   0.446
   78SOL     OW  769   1.422   1.198   0.026
   78SOL    HW1  770   1.450   1.127   0.084
   78SOL    HW2  771   1.340   1.229   0.063
   79SOL     OW  772   0.302   0.048   0.189
   79SOL    HW1  773   0.387   0.080   0.159
   79SOL    HW2  774   0.323   4.493   0.265
   80SOL     OW  775   0.960   0.228   0.448
   80SOL    HW1  776   0.912   0.286   0.390
   80SOL    HW2  777   1.049   0.262   0.449
   81SOL     OW  778   1.081   0.685   1.458
   81SOL    HW1  779   1.012   0.619   1.456
   81SOL    HW2  780   1.162   0.636   1.447
   82SOL     OW  781   1.220   1.572   0.795
   82SOL    HW1  782   1.235   1.637   0.726
   82SOL    HW2  783   1.289   1.589   0.859
   83SOL     OW  784   0.472   1.154   0.735
   83SOL    HW1  785   0.404   1.133   0.799
   83SOL    HW2  786   0.428   1.144   0.650
   84SOL     OW  787   1.265   1.793   0.610
   84SOL    HW1  788   1.313   1.855   0.555
   84SOL    HW2  789   1.197   1.846   0.652
   85SOL     OW  790   1.019   0.524   0.042
   85SOL    HW1  791   0.981   0.610   0.024
   85SOL    HW2  792   1.092   0.542   0.102
   86SOL     OW  793   0.087   0.505   1.409
   86SOL    HW1  794   0.146   0.513   1.334
   86SOL    HW2  795   0.054   0.594   1.422
   87SOL     OW  796   0.556   0.249   1.168
   87SOL    HW1  797   0.586   0.169   1.210
   87SOL    HW2  798   0.461   0.250   1.182
   88SOL     OW  799   0.859   0.514   0.633
   88SOL    HW1  800   0.829   0.543   0.547
   88SOL    HW2  801   0.817   0.429   0.646
   89SOL     OW  802   0.941   0.016   0.807
   89SOL    HW1  803   0.904   0.019   0.719
   89SOL    HW2  804   0.972   4.426   0.817
   90SOL     OW  805   1.439   1.160   0.856
   90SOL    HW1  806   1.368   1.096   0.856
   90SOL    HW2  807   1.463   1.169   0.764
   91SOL     OW  808   1.464   0.609   0.966
   91SOL    HW1  809   1.407   0.532   0.967
   91SOL    HW2  810   1.519   0.599   1.043
   92SOL     OW  811   1.850   0.809   0.377
   92SOL    HW1  812   1.901   0.760   0.440
   92SOL    HW2  813   1.822   0.744   0.312
   93SOL     OW  814   0.497   1.423   0.173
   93SOL    HW1  815   0.417   1.398   0.220
   93SOL    HW2  816   0.494   1.371   0.092
   94SOL     OW  817   1.676   1.265   0.643
   94SOL    HW1  818   1.770   1.266   0.658
   94SOL    HW2  819   1.647   1.353   0.664
   95SOL     OW  820   1.393   0.568   0.080
   95SOL    HW1  821   1.328   0.555   0.149
   95SOL    HW2  822   1.447   0.489   0.082
   96SOL     OW  823   0.520   0.264   0.326
   96SOL    HW1  824   0.555   0.203   0.261
   96SOL    HW2  825   0.505   0.345   0.278
   97SOL     OW  826   1.750   1.242   1.565
   97SOL    HW1  827   1.837   1.204   1.557
   97SOL    HW2  828   1.766   1.332   1.592
   98SOL     OW  829   1.055   1.354   1.332
   98SOL    HW1  830   0.980   1.322   1.382
   98SOL    HW2  831   1.130   1.312   1.374
   99SOL     OW  832   1.610   1.626   1.657
   99SOL    HW1  833   1.603   1.663   1.569
   99SOL    HW2  834   1.693   1.579   1.656
  100SOL     OW  835   1.134   1.209   1.103
  100SOL    HW1  836   1.074   1.247   1.166
  100SOL    HW2  837   1.105   1.243   1.018
  101SOL     OW  838   1.624   1.096   1.075
  101SOL    HW1  839   1.618   1.159   1.147
  101SOL    HW2  840   1.548   1.114   1.020
  102SOL     OW  841   0.896   0.138   1.382
  102SOL    HW1  842   0.920   0.091   1.302
  102SOL    HW2  843   0.980   0.159   1.424
  103SOL     OW  844   0.984   1.115   1.724
  103SOL    HW1  845   0.893   1.131   1.748
  103SOL    HW2  846   0.981   1.037   1.669
  104SOL     OW  847   0.712   1.059   0.376
  104SOL    HW1  848   0.700   1.040   0.469
  104SOL    HW2  849   0.786   1.005   0.350
  105SOL     OW  850   0.432   0.831   1.248
  105SOL    HW1  851   0.500   0.842   1.313
  105SOL    HW2  852   0.377   0.760   1.282
  106SOL     OW  853   1.268   0.373   1.276
  106SOL    HW1  854   1.301   0.452   1.320
  106SOL    HW2  855   1.179   0.395   1.250
  107SOL     OW  856   0.065   1.574   1.350
  107SOL    HW1  857   0.042   1.664   1.329
  107SOL    HW2  858   0.161   1.574   1.352
  108SOL     OW  859   0.334   1.126   0.500
  108SOL    HW1  860   0.339   1.201   0.441
  108SOL    HW2  861   0.327   1.050   0.442
  109SOL     OW  862   0.561   0.515   0.849
  109SOL    HW1  863   0.571   0.578   0.777
  109SOL    HW2  864   0.623   0.545   0.916
  110SOL     OW  865   1.246   1.346   0.400
  110SOL    HW1  866   1.301   1.419   0.427
  110SOL    HW2  867   1.158   1.370   0.430
  111SOL     OW  868   1.288   1.460   1.148
  111SOL    HW1  869   1.344   1.465   1.226
  111SOL    HW2  870   1.233   1.384   1.163
  112SOL     OW  871   1.582   0.627   0.478
  112SOL    HW1  872   1.530   0.660   0.552
  112SOL    HW2  873   1.610   0.705   0.431
  113SOL     OW  874   0.345   1.534   1.310
  113SOL    HW1  875   0.333   1.485   1.228
  113SOL    HW2  876   0.440   1.544   1.318
  114SOL     OW  877   0.498   0.753   1.678
  114SOL    HW1  878   0.528   0.795   1.597
  114SOL    HW2  879   0.561   0.684   1.694
  115SOL     OW  880   1.607   0.780   1.685
  115SOL    HW1  881   1.521   0.823   1.679
  115SOL    HW2  882   1.659   0.822   1.617
  116SOL     OW  883   0.994   0.091   1.711
  116SOL    HW1  884   1.042   0.166   1.676
  116SOL    HW2  885   1.017   0.018   1.653
  117SOL     OW  886   0.495   0.041   1.754
  117SOL    HW1  887   0.483   4.495   1.671
  117SOL    HW2  888   0.431   0.111   1.753
  118SOL     OW  889   0.591   0.877   1.025
  118SOL    HW1  890   0.626   0.966   1.029
  118SOL    HW2  891   0.536   0.869   1.103
  119SOL     OW  892   1.349   0.858   1.022
  119SOL    HW1  893   1.262   0.844   0.983
  119SOL    HW2  894   1.394   0.774   1.012
  120SOL     OW  895   1.193   0.532   0.262
  120SOL    HW1  896   1.203   0.455   0.317
  120SOL    HW2  897   1.152   0.597   0.318
  121SOL     OW  898   0.282   0.210   1.233
  121SOL    HW1  899   0.240   0.229   1.317
  121SOL    HW2  900   0.330   0.129   1.249
  122SOL     OW  901   0.018   1.312   1.289
  122SOL    HW1  902   0.063   1.263   1.357
  122SOL    HW2  903   0.031   1.404   1.312
  123SOL     OW  904   0.720   0.628   1.050
  123SOL    HW1  905   0.797   0.611   0.997
  123SOL    HW2  906   0.694   0.717   1.028
  124SOL     OW  907   1.739   0.958   1.858
  124SOL    HW1  908   1.694   0.893   1.804
  124SOL    HW2  909   1.678   0.976   1.929
  125SOL     OW  910   0.320   0.070   0.624
  125SOL    HW1  911   0.301   0.159   0.653
  125SOL    HW2  912   0.310   0.017   0.704
  126SOL     OW  913   1.629   0.388   0.350
  126SOL    HW1  914   1.649   0.318   0.413
  126SOL    HW2  915   1.600   0.462   0.404
  127SOL     OW  916   1.033   0.765   0.959
  127SOL    HW1  917   1.024   0.780   1.053
  127SOL    HW2  918   1.003   0.675   0.946
  128SOL     OW  919   0.982   1.567   1.721
  128SOL    HW1  920   0.966   1.610   1.637
  128SOL    HW2  921   1.025   1.485   1.697
  129SOL     OW  922   1.854   1.500   1.604
  129SOL    HW1  923   1.870   1.532   1.515
  129SOL    HW2  924   1.934   1.519   1.652
  130SOL     OW  925   0.348   0.935   1.817
  130SOL    HW1  926   0.417   0.969   1.874
  130SOL    HW2  927   0.390   0.866   1.766
  131SOL     OW  928   1.519   0.301   0.104
  131SOL    HW1  929   1.471   0.221   0.128
  131SOL    HW2  930   1.565   0.327   0.184
  132SOL     OW  931   1.284   0.816   0.032
  132SOL    HW1  932   1.329   0.731   0.041
  132SOL    HW2  933   1.322   0.855  11.054
  133SOL     OW  934   1.069   1.338   0.856
  133SOL    HW1  935   1.073   1.266   0.793
  133SOL    HW2  936   1.127   1.405   0.821
  134SOL     OW  937   0.321   0.814   0.942
  134SOL    HW1  938   0.415   0.832   0.943
  134SOL    HW2  939   0.313   0.722   0.966
  135SOL     OW  940   0.329   0.533   0.982
  135SOL    HW1  941   0.284   0.450   0.967
  135SOL    HW2  942   0.408   0.528   0.929
  136SOL     OW  943   1.139   0.369   1.704
  136SOL    HW1  944   1.085   0.431   1.753
  136SOL    HW2  945   1.221   0.415   1.689
  137SOL     OW  946   1.149   0.217   1.474
  137SOL    HW1  947   1.148   0.280   1.546
  137SOL    HW2  948   1.196   0.261   1.404
  138SOL     OW  949   0.001   1.324   0.211
  138SOL    HW1  950   4.408   1.344   0.200
  138SOL    HW2  951   0.003   1.232   0.237
  139SOL     OW  952   0.102   1.767   0.940
  139SOL    HW1  953   0.062   1.726   0.863
  139SOL    HW2  954   0.190   1.791   0.911
  140SOL     OW  955   0.493   1.575   0.907
  140SOL    HW1  956   0.561   1.638   0.931
  140SOL    HW2  957   0.536   1.513   0.848
  141SOL     OW  958   0.976   0.791   1.224
  141SOL    HW1  959   1.035   0.771   1.297
  141SOL    HW2  960   0.894   0.748   1.248
  142SOL     OW  961   0.025   0.563   1.099
  142SOL    HW1  962   0.110   0.533   1.067
  142SOL    HW2  963   4.498   0.495   1.161
  143SOL     OW  964   0.178   0.536   1.717
  143SOL    HW1  965   0.268   0.521   1.687
  143SOL    HW2  966   0.149   0.613   1.667
  144SOL     OW  967   1.381   0.934   1.657
  144SOL    HW1  968   1.402   1.027   1.653
  144SOL    HW2  969   1.376   0.907   1.565
  145SOL     OW  970   0.813   0.579   0.366
  145SOL    HW1  971   0.822   0.503   0.309
  145SOL    HW2  972   0.739   0.628   0.329
  146SOL     OW  973   1.637   0.601   1.180
  146SOL    HW1  974   1.627   0.543   1.256
  146SOL    HW2  975   1.725   0.584   1.147
  147SOL     OW  976   0.273   1.562   1.739
  147SOL    HW1  977   0.211   1.612   1.793
  147SOL    HW2  978   0.257   1.471   1.762
  148SOL     OW  979   0.700   0.461   1.261
  148SOL    HW1  980   0.652   0.384   1.231
  148SOL    HW2  981   0.700   0.520   1.186
  149SOL     OW  982   0.923   1.679   1.471
  149SOL    HW1  983   0.899   1.640   1.387
  149SOL    HW2  984   0.916   1.773   1.456
  150SOL     OW  985   0.475   0.480   0.170
  150SOL    HW1  986   0.531   0.553   0.196
  150SOL    HW2  987   0.391   0.521   0.150
  151SOL     OW  988   0.159   1.142   1.457
  151SOL    HW1  989   0.143   1.098   1.541
  151SOL    HW2  990   0.167   1.071   1.394
  152SOL     OW  991   1.321   1.043   1.219
  152SOL    HW1  992   1.342   0.980   1.151
  152SOL    HW2  993   1.254   1.100   1.180
  153SOL     OW  994   1.309   0.850   0.311
  153SOL    HW1  995   1.234   0.818   0.360
  153SOL    HW2  996   1.286   0.834   0.219
  154SOL     OW  997   1.764   1.738   1.147
  154SOL    HW1  998   1.829   1.766   1.083
  154SOL    HW2  999   1.748   1.646   1.126
  155SOL     OW 1000   1.240   1.733   1.105
  155SOL    HW1 1001   1.323   1.757   1.065
  155SOL    HW2 1002   1.249   1.640   1.126
  156SOL     OW 1003   0.071   1.186   1.051
  156SOL    HW1 1004   0.054   1.215   1.141
  156SOL    HW2 1005   0.041   1.259   0.997
  157SOL     OW 1006   0.680   1.670   1.738
  157SOL    HW1 1007   0.620   1.744   1.727
  157SOL    HW2 1008   0.748   1.685   1.672
  158SOL     OW 1009   0.877   0.069   0.127
  158SOL    HW1 1010   0.964   0.095   0.097
  158SOL    HW2 1011   0.893   0.004   0.195
  159SOL     OW 1012   1.720   0.135   0.486
  159SOL    HW1 1013   1.789   0.147   0.420
  159SOL    HW2 1014   1.749   0.061   0.539
  160SOL     OW 1015   1.392   1.568   0.491
  160SOL    HW1 1016   1.451   1.601   0.423
  160SOL    HW2 1017   1.343   1.645   0.519
  161SOL     OW 1018   0.115   1.808   1.851
  161SOL    HW1 1019   0.075   1.736   1.901
  161SOL    HW2 1020   0.180   1.845   1.910
  162SOL     OW 1021   1.280   0.930   0.674
  162SOL    HW1 1022   1.353   0.869   0.680
  162SOL    HW2 1023   1.313   1.001   0.619
  163SOL     OW 1024   0.806   1.277   1.425
  163SOL    HW1 1025   0.779   1.317   1.507
  163SOL    HW2 1026   0.736   1.297   1.364
  164SOL     OW 1027   0.674   1.624   0.171
  164SOL    HW1 1028   0.697   1.628   0.078
  164SOL    HW2 1029   0.617   1.548   0.178
  165SOL     OW 1030   1.617   1.727   1.389
  165SOL    HW1 1031   1.670   1.733   1.309
  165SOL    HW2 1032   1.605   1.818   1.416
  166SOL     OW 1033   1.840   0.151   0.965
  166SOL    HW1 1034   1.869   0.071   0.921
  166SOL    HW2 1035   1.753   0.168   0.928
  167SOL     OW 1036   0.256   0.321   0.716
  167SOL    HW1 1037   0.172   0.356   0.686
  167SOL    HW2 1038   0.246   0.311   0.810
  168SOL     OW 1039   1.224   1.598   0.056
  168SOL    HW1 1040   1.212   1.505   0.076
  168SOL    HW2 1041   1.159   1.617  11.088
  169SOL     OW 1042   0.826   1.008   1.374
  169SOL    HW1 1043   0.869   1.002   1.289
  169SOL    HW2 1044   0.822   1.102   1.393
  170SOL     OW 1045   0.913   0.904   0.279
  170SOL    HW1 1046   0.977   0.946   0.222
  170SOL    HW2 1047   0.964   0.844   0.333
  171SOL     OW 1048   1.497   1.622   0.050
  171SOL    HW1 1049   1.402   1.614   0.050
  171SOL    HW2 1050   1.520   1.638  11.059
  172SOL     OW 1051   0.372   1.310   1.491
  172SOL    HW1 1052   0.355   1.389   1.439
  172SOL    HW2 1053   0.298   1.253   1.472
  173SOL     OW 1054   1.608   1.285   1.278
  173SOL    HW1 1055   1.669   1.271   1.351
  173SOL    HW2 1056   1.548   1.352   1.310
  174SOL     OW 1057   1.059   1.110   0.709
  174SOL    HW1 1058   0.988   1.059   0.747
  174SOL    HW2 1059   1.125   1.044   0.684
  175SOL     OW 1060   1.006   0.246   1.011
  175SOL    HW1 1061   1.008   0.228   0.917
  175SOL    HW2 1062   0.994   0.160   1.052
  176SOL     OW 1063   0.604   1.488   0.482
  176SOL    HW1 1064   0.648   1.438   0.413
  176SOL    HW2 1065   0.529   1.528   0.438
  177SOL     OW 1066   1.725   0.394   1.375
  177SOL    HW1 1067   1.799   0.455   1.375
  177SOL    HW2 1068   1.753   0.323   1.318
  178SOL     OW 1069   0.268   1.324   0.284
  178SOL    HW1 1070   0.180   1.330   0.247
  178SOL    HW2 1071   0.260   1.366   0.370
  179SOL     OW 1072   0.115   1.003   1.693
  179SOL    HW1 1073   0.053   1.053   1.747
  179SOL    HW2 1074   0.195   0.998   1.746
  180SOL     OW 1075   0.659   0.214   1.500
  180SOL    HW1 1076   0.738   0.186   1.453
  180SOL    HW2 1077   0.689   0.230   1.590
  181SOL     OW 1078   0.050   0.339   0.025
  181SOL    HW1 1079   4.461   0.316   0.049
  181SOL    HW2 1080   0.059   0.432   0.049
  182SOL     OW 1081   1.426   0.857   1.397
  182SOL    HW1 1082   1.376   0.919   1.342
  182SOL    HW2 1083   1.515   0.860   1.361
  183SOL     OW 1084   0.081   0.175   0.286
  183SOL    HW1 1085   0.084   0.264   0.250
  183SOL    HW2 1086   0.162   0.134   0.254
  184SOL     OW 1087   1.187   1.334   0.123
  184SOL    HW1 1088   1.093   1.322   0.113
  184SOL    HW2 1089   1.203   1.326   0.218
  185SOL     OW 1090   0.627   0.829   1.437
  185SOL    HW1 1091   0.682   0.906   1.421
  185SOL    HW2 1092   0.689   0.756   1.440
  186SOL     OW 1093   1.486   1.783   0.984
  186SOL    HW1 1094   1.510   1.847   0.917
  186SOL    HW2 1095   1.568   1.762   1.028
  187SOL     OW 1096   0.709   0.564   1.706
  187SOL    HW1 1097   0.761   0.623   1.761
  187SOL    HW2 1098   0.734   0.476   1.735
  188SOL     OW 1099   1.474   1.195   1.629
  188SOL    HW1 1100   1.462   1.210   1.723
  188SOL    HW2 1101   1.566   1.214   1.613
  189SOL     OW 1102   0.374   1.747   1.566
  189SOL    HW1 1103   0.290   1.789   1.546
  189SOL    HW2 1104   0.351   1.669   1.615
  190SOL     OW 1105   1.665   0.880   1.255
  190SOL    HW1 1106   1.659   0.795   1.211
  190SOL    HW2 1107   1.655   0.944   1.184
  191SOL     OW 1108   1.219   0.331   0.447
  191SOL    HW1 1109   1.289   0.268   0.432
  191SOL    HW2 1110   1.246   0.378   0.525
  192SOL     OW 1111   0.579   0.734   0.675
  192SOL    HW1 1112   0.623   0.818   0.662
  192SOL    HW2 1113   0.516   0.729   0.603
  193SOL     OW 1114   1.756   0.372   1.644
  193SOL    HW1 1115   1.742   0.385   1.550
  193SOL    HW2 1116   1.680   0.322   1.673
  194SOL     OW 1117   1.748   0.933   1.511
  194SOL    HW1 1118   1.738   1.028   1.524
  194SOL    HW2 1119   1.730   0.920   1.418
  195SOL     OW 1120   0.914   1.355   0.080
  195SOL    HW1 1121   0.848   1.348   0.149
  195SOL    HW2 1122   0.890   1.433   0.031
  196SOL     OW 1123   0.664   1.786   0.940
  196SOL    HW1 1124   0.645   1.877   0.919
  196SOL    HW2 1125   0.759   1.778   0.932
  197SOL     OW 1126   0.870   0.970   0.853
  197SOL    HW1 1127   0.921   0.899   0.890
  197SOL    HW2 1128   0.832   1.015   0.929
  198SOL     OW 1129   1.076   0.987   0.082
  198SOL    HW1 1130   1.049   1.015  11.094
  198SOL    HW2 1131   1.153   0.931   0.066
  199SOL     OW 1132   1.849   1.554   0.843
  199SOL    HW1 1133   1.770   1.544   0.789
  199SOL    HW2 1134   1.833   1.497   0.919
  200SOL     OW 1135   0.233   1.303   1.861
  200SOL    HW1 1136   0.148   1.264   1.846
  200SOL    HW2 1137   0.238   1.314   1.956
  201SOL     OW 1138   0.117   1.217   0.670
  201SOL    HW1 1139   0.147   1.182   0.754
  201SOL    HW2 1140   0.183   1.186   0.607
  202SOL     OW 1141   0.686   1.407   1.632
  202SOL    HW1 1142   0.606   1.364   1.662
  202SOL    HW2 1143   0.681   1.495   1.669
  203SOL     OW 1144   1.802   0.176   1.237
  203SOL    HW1 1145   1.797   0.082   1.256
  203SOL    HW2 1146   1.821   0.180   1.144
  204SOL     OW 1147   0.440   0.432   0.533
  204SOL    HW1 1148   0.460   0.361   0.471
  204SOL    HW2 1149   0.382   0.392   0.597
  205SOL     OW 1150   1.703   1.480   1.084
  205SOL    HW1 1151   1.620   1.462   1.040
  205SOL    HW2 1152   1.707   1.415   1.154
  206SOL     OW 1153   0.306   0.508   1.250
  206SOL    HW1 1154   0.378   0.457   1.287
  206SOL    HW2 1155   0.329   0.519   1.157
  207SOL     OW 1156   0.831   1.578   0.676
  207SOL    HW1 1157   0.809   1.640   0.607
  207SOL    HW2 1158   0.756   1.518   0.679
  208SOL     OW 1159   1.430   0.218   1.115
  208SOL    HW1 1160   1.465   0.146   1.167
  208SOL    HW2 1161   1.380   0.271   1.178
  209SOL     OW 1162   0.995   0.001   1.155
  209SOL    HW1 1163   0.957   4.413   1.148
  209SOL    HW2 1164   1.089   4.487   1.163
  210SOL     OW 1165   0.773   1.326   0.322
  210SOL    HW1 1166   0.746   1.236   0.338
  210SOL    HW2 1167   0.854   1.337   0.372
  211SOL     OW 1168   0.621   1.555   1.288
  211SOL    HW1 1169   0.621   1.637   1.337
  211SOL    HW2 1170   0.709   1.549   1.250
  212SOL     OW 1171   1.363   0.056   0.170
  212SOL    HW1 1172   1.395   4.480   0.121
  212SOL    HW2 1173   1.274   0.033   0.196
  213SOL     OW 1174   1.316   0.466   0.672
  213SOL    HW1 1175   1.260   0.543   0.673
  213SOL    HW2 1176   1.302   0.425   0.757
  214SOL     OW 1177   1.586   0.197   0.871
  214SOL    HW1 1178   1.528   0.214   0.945
  214SOL    HW2 1179   1.587   0.280   0.822
  215SOL     OW 1180   0.035   1.055   0.288
  215SOL    HW1 1181   0.129   1.034   0.284
  215SOL    HW2 1182   0.009   1.031   0.377
  216SOL     OW 1183   0.889   1.660   0.346
  216SOL    HW1 1184   0.815   1.641   0.289
  216SOL    HW2 1185   0.860   1.731   0.402
  217SOL     OW 1186   0.243   0.629   1.988
  217SOL    HW1 1187   0.169   0.601   2.042
  217SOL    HW2 1188   0.212   0.619   1.898
  218SOL     OW 1189   0.191   0.297   2.850
  218SOL    HW1 1190   0.220   0.264   2.935
  218SOL    HW2 1191   0.131   0.230   2.817
  219SOL     OW 1192   4.499   0.394   2.497
  219SOL    HW1 1193   4.423   0.430   2.544
  219SOL    HW2 1194   4.463   0.321   2.448
  220SOL     OW 1195   0.569   1.296   3.044
  220SOL    HW1 1196   0.483   1.301   3.004
  220SOL    HW2 1197   0.585   1.384   3.079
  221SOL     OW 1198   1.569   1.514   2.571
  221SOL    HW1 1199   1.526   1.491   2.654
  221SOL    HW2 1200   1.498   1.517   2.507
  222SOL     OW 1201   1.141   0.696   2.555
  222SOL    HW1 1202   1.184   0.781   2.546
  222SOL    HW2 1203   1.089   0.704   2.635
  223SOL     OW 1204   1.777   0.601   2.086
  223SOL    HW1 1205   1.751   0.595   1.995
  223SOL    HW2 1206   1.739   0.524   2.127
  224SOL     OW 1207   0.746   1.137   2.907
  224SOL    HW1 1208   0.680   1.175   2.966
  224SOL    HW2 1209   0.786   1.213   2.864
  225SOL     OW 1210   0.871   0.764   3.683
  225SOL    HW1 1211   0.857   0.833   3.748
  225SOL    HW2 1212   0.895   0.810   3.603
  226SOL     OW 1213   0.684   0.998   2.507
  226SOL    HW1 1214   0.751   0.989   2.575
  226SOL    HW2 1215   0.616   1.052   2.548
  227SOL     OW 1216   0.714   1.148   3.681
  227SOL    HW1 1217   0.761   1.226   3.711
  227SOL    HW2 1218   0.634   1.183   3.641
  228SOL     OW 1219   0.333   1.418   2.929
  228SOL    HW1 1220   0.253   1.396   2.883
  228SOL    HW2 1221   0.383   1.472   2.868
  229SOL     OW 1222   1.459   1.501   3.221
  229SOL    HW1 1223   1.514   1.579   3.230
  229SOL    HW2 1224   1.392   1.512   3.289
  230SOL     OW 1225   0.444   0.391   3.342
  230SOL    HW1 1226   0.533   0.356   3.341
  230SOL    HW2 1227   0.392   0.322   3.383
  231SOL     OW 1228   1.606   0.441   2.601
  231SOL    HW1 1229   1.527   0.459   2.550
  231SOL    HW2 1230   1.617   0.518   2.656
  232SOL     OW 1231   0.246   1.691   2.335
  232SOL    HW1 1232   0.229   1.776   2.375
  232SOL    HW2 1233   0.319   1.706   2.276
  233SOL     OW 1234   1.137   1.342   3.556
  233SOL    HW1 1235   1.178   1.336   3.643
  233SOL    HW2 1236   1.085   1.262   3.549
  234SOL     OW 1237   0.257   1.425   2.386
  234SOL    HW1 1238   0.244   1.520   2.390
  234SOL    HW2 1239   0.198   1.390   2.453
  235SOL     OW 1240   0.254   1.084   2.747
  235SOL    HW1 1241   0.269   0.992   2.770
  235SOL    HW2 1242   0.192   1.115   2.813
  236SOL     OW 1243   0.606   1.792   3.290
  236SOL    HW1 1244   0.523   1.775   3.335
  236SOL    HW2 1245   0.628   1.882   3.316
  237SOL     OW 1246   0.570   0.993   2.007
  237SOL    HW1 1247   0.622   1.031   1.935
  237SOL    HW2 1248   0.615   1.022   2.086
  238SOL     OW 1249   1.574   0.120   3.325
  238SOL    HW1 1250   1.614   0.187   3.269
  238SOL    HW2 1251   1.566   0.162   3.410
  239SOL     OW 1252   0.136   0.647   2.434
  239SOL    HW1 1253   0.087   0.568   2.458
  239SOL    HW2 1254   0.109   0.712   2.499
  240SOL     OW 1255   1.848   1.759   2.191
  240SOL    HW1 1256   1.913   1.733   2.256
  240SOL    HW2 1257   1.869   1.850   2.170
  241SOL     OW 1258   0.032   1.605   2.014
  241SOL    HW1 1259   0.017   1.511   2.006
  241SOL    HW2 1260   0.046   1.619   2.108
  242SOL     OW 1261   1.691   0.920   2.506
  242SOL    HW1 1262   1.771   0.876   2.481
  242SOL    HW2 1263   1.667   0.972   2.429
  243SOL     OW 1264   1.649   1.104   2.291
  243SOL    HW1 1265   1.736   1.106   2.250
  243SOL    HW2 1266   1.656   1.168   2.362
  244SOL     OW 1267   0.098   0.769   3.427
  244SOL    HW1 1268   0.184   0.754   3.389
  244SOL    HW2 1269   0.102   0.859   3.460
  245SOL     OW 1270   0.616   1.390   2.599
  245SOL    HW1 1271   0.570   1.306   2.608
  245SOL    HW2 1272   0.599   1.417   2.508
  246SOL     OW 1273   1.285   1.236   3.283
  246SOL    HW1 1274   1.317   1.168   3.223
  246SOL    HW2 1275   1.345   1.231   3.358
  247SOL     OW 1276   0.828   0.020   2.422
  247SOL    HW1 1277   0.865   0.104   2.393
  247SOL    HW2 1278   0.734   0.028   2.407
  248SOL     OW 1279   0.176   0.941   3.140
  248SOL    HW1 1280   0.268   0.918   3.121
  248SOL    HW2 1281   0.132   0.934   3.055
  249SOL     OW 1282   1.531   0.998   2.062
  249SOL    HW1 1283   1.462   0.941   2.095
  249SOL    HW2 1284   1.574   1.032   2.141
  250SOL     OW 1285   1.183   1.811   3.487
  250SOL    HW1 1286   1.192   1.872   3.413
  250SOL    HW2 1287   1.202   1.725   3.450
  251SOL     OW 1288   0.317   0.261   3.626
  251SOL    HW1 1289   0.384   0.310   3.673
  251SOL    HW2 1290   0.239   0.269   3.680
  252SOL     OW 1291   1.467   1.419   2.809
  252SOL    HW1 1292   1.400   1.435   2.876
  252SOL    HW2 1293   1.453   1.327   2.784
  253SOL     OW 1294   1.656   1.749   2.438
  253SOL    HW1 1295   1.635   1.716   2.351
  253SOL    HW2 1296   1.635   1.676   2.497
  254SOL     OW 1297   0.594   0.722   2.131
  254SOL    HW1 1298   0.593   0.806   2.085
  254SOL    HW2 1299   0.528   0.731   2.199
  255SOL     OW 1300   1.294   0.374   2.793
  255SOL    HW1 1301   1.205   0.344   2.774
  255SOL    HW2 1302   1.329   0.310   2.854
  256SOL     OW 1303   1.580   1.674   2.172
  256SOL    HW1 1304   1.671   1.700   2.163
  256SOL    HW2 1305   1.550   1.657   2.083
  257SOL     OW 1306   0.799   0.618   3.315
  257SOL    HW1 1307   0.769   0.590   3.402
  257SOL    HW2 1308   0.761   0.553   3.255
  258SOL     OW 1309   1.388   0.482   3.538
  258SOL    HW1 1310   1.392   0.527   3.623
  258SOL    HW2 1311   1.455   0.414   3.543
  259SOL     OW 1312   0.951   0.886   3.448
  259SOL    HW1 1313   1.006   0.817   3.410
  259SOL    HW2 1314   0.903   0.923   3.373
  260SOL     OW 1315   0.999   0.418   3.094
  260SOL    HW1 1316   0.909   0.422   3.125
  260SOL    HW2 1317   0.994   0.363   3.015
  261SOL     OW 1318   1.052   0.698   2.287
  261SOL    HW1 1319   1.071   0.690   2.380
  261SOL    HW2 1320   0.968   0.654   2.275
  262SOL     OW 1321   0.091   0.827   2.648
  262SOL    HW1 1322   0.177   0.820   2.689
  262SOL    HW2 1323   0.030   0.831   2.721
  263SOL     OW 1324   0.117   1.869   3.444
  263SOL    HW1 1325   0.114   1.843   3.536
  263SOL    HW2 1326   0.047   1.820   3.403
  264SOL     OW 1327   0.855   0.372   2.050
  264SOL    HW1 1328   0.922   0.405   1.989
  264SOL    HW2 1329   0.869   0.277   2.051
  265SOL     OW 1330   1.700   0.570   3.692
  265SOL    HW1 1331   1.666   0.645   3.642
  265SOL    HW2 1332   1.736   0.511   3.625
  266SOL     OW 1333   1.381   1.143   2.401
  266SOL    HW1 1334   1.460   1.132   2.348
  266SOL    HW2 1335   1.327   1.205   2.352
  267SOL     OW 1336   0.537   0.210   2.761
  267SOL    HW1 1337   0.558   0.227   2.853
  267SOL    HW2 1338   0.535   0.297   2.721
  268SOL     OW 1339   1.000   1.443   2.331
  268SOL    HW1 1340   0.969   1.519   2.281
  268SOL    HW2 1341   0.977   1.463   2.421
  269SOL     OW 1342   0.359   1.816   2.724
  269SOL    HW1 1343   0.400   1.730   2.735
  269SOL    HW2 1344   0.429   1.879   2.743
  270SOL     OW 1345   1.801   1.052   2.732
  270SOL    HW1 1346   1.748   1.032   2.655
  270SOL    HW2 1347   1.737   1.059   2.804
  271SOL     OW 1348   1.227   1.540   3.376
  271SOL    HW1 1349   1.215   1.467   3.437
  271SOL    HW2 1350   1.161   1.525   3.308
  272SOL     OW 1351   0.311   0.951   2.123
  272SOL    HW1 1352   0.393   0.976   2.081
  272SOL    HW2 1353   0.300   0.859   2.101
  273SOL     OW 1354   1.483   0.748   2.582
  273SOL    HW1 1355   1.476   0.708   2.669
  273SOL    HW2 1356   1.560   0.804   2.588
  274SOL     OW 1357   0.471   1.266   3.597
  274SOL    HW1 1358   0.445   1.272   3.505
  274SOL    HW2 1359   0.389   1.266   3.646
  275SOL     OW 1360   1.124   1.778   2.091
  275SOL    HW1 1361   1.049   1.739   2.135
  275SOL    HW2 1362   1.148   1.715   2.023
  276SOL     OW 1363   0.156   0.266   3.377
  276SOL    HW1 1364   0.131   0.352   3.342
  276SOL    HW2 1365   0.195   0.285   3.462
  277SOL     OW 1366   1.628   1.382   1.954
  277SOL    HW1 1367   1.587   1.467   1.936
  277SOL    HW2 1368   1.561   1.318   1.932
  278SOL     OW 1369   0.469   1.741   2.175
  278SOL    HW1 1370   0.514   1.795   2.240
  278SOL    HW2 1371   0.539   1.704   2.122
  279SOL     OW 1372   1.429   0.148   2.283
  279SOL    HW1 1373   1.412   0.090   2.209
  279SOL    HW2 1374   1.522   0.135   2.303
  280SOL     OW 1375   0.250   1.785   3.089
  280SOL    HW1 1376   0.298   1.709   3.121
  280SOL    HW2 1377   0.215   1.757   3.004
  281SOL     OW 1378   0.938   1.700   2.758
  281SOL    HW1 1379   1.017   1.651   2.782
  281SOL    HW2 1380   0.898   1.649   2.688
  282SOL     OW 1381   0.397   0.688   2.332
  282SOL    HW1 1382   0.421   0.597   2.349
  282SOL    HW2 1383   0.305   0.694   2.358
  283SOL     OW 1384   1.524   0.233   3.585
  283SOL    HW1 1385   1.524   0.254   3.678
  283SOL    HW2 1386   1.443   0.184   3.571
  284SOL     OW 1387   0.630   0.119   1.981
  284SOL    HW1 1388   0.719   0.085   1.994
  284SOL    HW2 1389   0.599   0.078   1.901
  285SOL     OW 1390   0.769   0.273   3.618
  285SOL    HW1 1391   0.838   0.207   3.613
  285SOL    HW2 1392   0.733   0.264   3.706
  286SOL     OW 1393   0.876   1.523   3.056
  286SOL    HW1 1394   0.859   1.485   2.970
  286SOL    HW2 1395   0.946   1.469   3.093
  287SOL     OW 1396   1.339   0.590   3.290
  287SOL    HW1 1397   1.367   0.563   3.377
  287SOL    HW2 1398   1.374   0.679   3.280
  288SOL     OW 1399   0.818   1.390   2.808
  288SOL    HW1 1400   0.903   1.378   2.764
  288SOL    HW2 1401   0.755   1.396   2.736
  289SOL     OW 1402   0.926   0.525   2.758
  289SOL    HW1 1403   0.909   0.523   2.664
  289SOL    HW2 1404   0.956   0.437   2.779
  290SOL     OW 1405   0.569   0.073   2.369
  290SOL    HW1 1406   0.484   0.058   2.411
  290SOL    HW2 1407   0.551   0.138   2.301
  291SOL     OW 1408   1.428   1.200   1.902
  291SOL    HW1 1409   1.457   1.125   1.953
  291SOL    HW2 1410   1.343   1.223   1.938
  292SOL     OW 1411   0.306   0.068   2.055
  292SOL    HW1 1412   0.388   0.116   2.057
  292SOL    HW2 1413   0.317   4.497   2.118
  293SOL     OW 1414   0.961   0.240   2.324
  293SOL    HW1 1415   0.907   0.307   2.282
  293SOL    HW2 1416   1.050   0.273   2.317
  294SOL     OW 1417   1.081   0.685   3.320
  294SOL    HW1 1418   1.012   0.619   3.318
  294SOL    HW2 1419   1.162   0.636   3.308
  295SOL     OW 1420   1.220   1.572   2.657
  295SOL    HW1 1421   1.235   1.637   2.588
  295SOL    HW2 1422   1.289   1.588   2.721
  296SOL     OW 1423   0.469   1.153   2.593
  296SOL    HW1 1424   0.402   1.134   2.658
  296SOL    HW2 1425   0.426   1.138   2.509
  297SOL     OW 1426   1.265   1.792   2.474
  297SOL    HW1 1427   1.312   1.854   2.418
  297SOL    HW2 1428   1.197   1.844   2.515
  298SOL     OW 1429   1.026   0.540   1.884
  298SOL    HW1 1430   0.979   0.622   1.868
  298SOL    HW2 1431   1.085   0.560   1.957
  299SOL     OW 1432   0.088   0.505   3.271
  299SOL    HW1 1433   0.146   0.513   3.196
  299SOL    HW2 1434   0.052   0.593   3.283
  300SOL     OW 1435   0.555   0.250   3.031
  300SOL    HW1 1436   0.585   0.169   3.073
  300SOL    HW2 1437   0.461   0.251   3.044
  301SOL     OW 1438   0.864   0.505   2.491
  301SOL    HW1 1439   0.828   0.540   2.410
  301SOL    HW2 1440   0.814   0.425   2.507
  302SOL     OW 1441   0.946   0.010   2.669
  302SOL    HW1 1442   0.907   0.016   2.581
  302SOL    HW2 1443   0.966   4.417   2.680
  303SOL     OW 1444   1.439   1.160   2.719
  303SOL    HW1 1445   1.368   1.095   2.720
  303SOL    HW2 1446   1.462   1.169   2.626
  304SOL     OW 1447   1.464   0.609   2.828
  304SOL    HW1 1448   1.407   0.532   2.828
  304SOL    HW2 1449   1.519   0.599   2.905
  305SOL     OW 1450   1.841   0.812   2.247
  305SOL    HW1 1451   1.900   0.763   2.305
  305SOL    HW2 1452   1.816   0.750   2.179
  306SOL     OW 1453   0.492   1.422   2.016
  306SOL    HW1 1454   0.414   1.395   2.063
  306SOL    HW2 1455   0.483   1.383   1.929
  307SOL     OW 1456   1.677   1.265   2.503
  307SOL    HW1 1457   1.771   1.266   2.519
  307SOL    HW2 1458   1.648   1.354   2.526
  308SOL     OW 1459   1.395   0.574   1.931
  308SOL    HW1 1460   1.332   0.557   2.001
  308SOL    HW2 1461   1.480   0.559   1.971
  309SOL     OW 1462   0.516   0.263   2.177
  309SOL    HW1 1463   0.570   0.216   2.114
  309SOL    HW2 1464   0.500   0.348   2.136
  310SOL     OW 1465   1.750   1.242   3.427
  310SOL    HW1 1466   1.838   1.204   3.419
  310SOL    HW2 1467   1.766   1.332   3.455
  311SOL     OW 1468   1.055   1.354   3.194
  311SOL    HW1 1469   0.980   1.323   3.244
  311SOL    HW2 1470   1.130   1.311   3.236
  312SOL     OW 1471   1.611   1.626   3.519
  312SOL    HW1 1472   1.602   1.661   3.430
  312SOL    HW2 1473   1.693   1.578   3.518
  313SOL     OW 1474   1.134   1.209   2.965
  313SOL    HW1 1475   1.074   1.247   3.029
  313SOL    HW2 1476   1.104   1.243   2.880
  314SOL     OW 1477   1.624   1.096   2.937
  314SOL    HW1 1478   1.618   1.159   3.009
  314SOL    HW2 1479   1.548   1.114   2.883
  315SOL     OW 1480   0.896   0.138   3.244
  315SOL    HW1 1481   0.920   0.090   3.165
  315SOL    HW2 1482   0.980   0.159   3.285
  316SOL     OW 1483   0.984   1.115   3.586
  316SOL    HW1 1484   0.893   1.131   3.610
  316SOL    HW2 1485   0.981   1.037   3.531
  317SOL     OW 1486   0.710   1.063   2.235
  317SOL    HW1 1487   0.696   1.043   2.327
  317SOL    HW2 1488   0.784   1.009   2.209
  318SOL     OW 1489   0.431   0.831   3.109
  318SOL    HW1 1490   0.499   0.842   3.176
  318SOL    HW2 1491   0.377   0.759   3.142
  319SOL     OW 1492   1.268   0.374   3.138
  319SOL    HW1 1493   1.301   0.452   3.182
  319SOL    HW2 1494   1.179   0.395   3.113
  320SOL     OW 1495   0.065   1.574   3.212
  320SOL    HW1 1496   0.042   1.664   3.191
  320SOL    HW2 1497   0.161   1.574   3.214
  321SOL     OW 1498   0.334   1.113   2.356
  321SOL    HW1 1499   0.348   1.188   2.298
  321SOL    HW2 1500   0.334   1.038   2.297
  322SOL     OW 1501   0.561   0.516   2.712
  322SOL    HW1 1502   0.571   0.578   2.640
  322SOL    HW2 1503   0.623   0.546   2.778
  323SOL     OW 1504   1.247   1.350   2.252
  323SOL    HW1 1505   1.303   1.421   2.284
  323SOL    HW2 1506   1.160   1.371   2.286
  324SOL     OW 1507   1.288   1.460   3.010
  324SOL    HW1 1508   1.344   1.465   3.088
  324SOL    HW2 1509   1.233   1.383   3.025
  325SOL     OW 1510   1.578   0.622   2.342
  325SOL    HW1 1511   1.529   0.666   2.412
  325SOL    HW2 1512   1.622   0.694   2.296
  326SOL     OW 1513   0.345   1.534   3.172
  326SOL    HW1 1514   0.333   1.485   3.090
  326SOL    HW2 1515   0.440   1.544   3.180
  327SOL     OW 1516   0.498   0.754   3.541
  327SOL    HW1 1517   0.528   0.795   3.459
  327SOL    HW2 1518   0.561   0.684   3.556
  328SOL     OW 1519   1.607   0.780   3.547
  328SOL    HW1 1520   1.521   0.823   3.541
  328SOL    HW2 1521   1.659   0.822   3.479
  329SOL     OW 1522   0.994   0.091   3.573
  329SOL    HW1 1523   1.042   0.166   3.538
  329SOL    HW2 1524   1.017   0.018   3.515
  330SOL     OW 1525   0.495   0.041   3.617
  330SOL    HW1 1526   0.483   4.495   3.533
  330SOL    HW2 1527   0.431   0.111   3.615
  331SOL     OW 1528   0.591   0.877   2.888
  331SOL    HW1 1529   0.625   0.966   2.891
  331SOL    HW2 1530   0.535   0.869   2.965
  332SOL     OW 1531   1.348   0.858   2.884
  332SOL    HW1 1532   1.262   0.843   2.846
  332SOL    HW2 1533   1.394   0.774   2.874
  333SOL     OW 1534   1.197   0.537   2.118
  333SOL    HW1 1535   1.205   0.458   2.171
  333SOL    HW2 1536   1.155   0.600   2.176
  334SOL     OW 1537   0.282   0.210   3.096
  334SOL    HW1 1538   0.239   0.229   3.179
  334SOL    HW2 1539   0.330   0.129   3.111
  335SOL     OW 1540   0.018   1.312   3.151
  335SOL    HW1 1541   0.063   1.263   3.219
  335SOL    HW2 1542   0.031   1.404   3.174
  336SOL     OW 1543   0.720   0.628   2.913
  336SOL    HW1 1544   0.797   0.612   2.859
  336SOL    HW2 1545   0.693   0.718   2.891
  337SOL     OW 1546   1.739   0.958   3.720
  337SOL    HW1 1547   1.694   0.893   3.666
  337SOL    HW2 1548   1.678   0.976   3.791
  338SOL     OW 1549   0.325   0.071   2.488
  338SOL    HW1 1550   0.302   0.160   2.515
  338SOL    HW2 1551   0.312   0.018   2.567
  339SOL     OW 1552   1.623   0.386   2.216
  339SOL    HW1 1553   1.646   0.319   2.280
  339SOL    HW2 1554   1.598   0.462   2.268
  340SOL     OW 1555   1.034   0.765   2.821
  340SOL    HW1 1556   1.024   0.780   2.915
  340SOL    HW2 1557   1.002   0.676   2.808
  341SOL     OW 1558   0.982   1.566   3.583
  341SOL    HW1 1559   0.966   1.610   3.499
  341SOL    HW2 1560   1.025   1.484   3.559
  342SOL     OW 1561   1.854   1.501   3.466
  342SOL    HW1 1562   1.872   1.531   3.377
  342SOL    HW2 1563   1.935   1.520   3.514
  343SOL     OW 1564   0.347   0.935   3.679
  343SOL    HW1 1565   0.417   0.969   3.736
  343SOL    HW2 1566   0.390   0.867   3.628
  344SOL     OW 1567   1.527   0.261   1.989
  344SOL    HW1 1568   1.459   0.203   2.024
  344SOL    HW2 1569   1.560   0.308   2.066
  345SOL     OW 1570   1.287   0.826   1.889
  345SOL    HW1 1571   1.329   0.740   1.893
  345SOL    HW2 1572   1.319   0.865   1.808
  346SOL     OW 1573   1.069   1.338   2.718
  346SOL    HW1 1574   1.073   1.266   2.655
  346SOL    HW2 1575   1.127   1.405   2.683
  347SOL     OW 1576   0.320   0.813   2.803
  347SOL    HW1 1577   0.414   0.831   2.804
  347SOL    HW2 1578   0.313   0.721   2.828
  348SOL     OW 1579   0.329   0.533   2.844
  348SOL    HW1 1580   0.284   0.450   2.829
  348SOL    HW2 1581   0.408   0.528   2.790
  349SOL     OW 1582   1.139   0.369   3.566
  349SOL    HW1 1583   1.085   0.431   3.615
  349SOL    HW2 1584   1.221   0.415   3.551
  350SOL     OW 1585   1.149   0.216   3.336
  350SOL    HW1 1586   1.147   0.280   3.408
  350SOL    HW2 1587   1.196   0.261   3.266
  351SOL     OW 1588   4.491   1.319   2.073
  351SOL    HW1 1589   4.398   1.336   2.055
  351SOL    HW2 1590   4.494   1.226   2.094
  352SOL     OW 1591   0.103   1.767   2.802
  352SOL    HW1 1592   0.063   1.725   2.726
  352SOL    HW2 1593   0.191   1.792   2.772
  353SOL     OW 1594   0.493   1.575   2.769
  353SOL    HW1 1595   0.561   1.637   2.793
  353SOL    HW2 1596   0.536   1.513   2.711
  354SOL     OW 1597   0.976   0.791   3.086
  354SOL    HW1 1598   1.035   0.771   3.159
  354SOL    HW2 1599   0.894   0.748   3.109
  355SOL     OW 1600   0.027   0.564   2.965
  355SOL    HW1 1601   0.110   0.532   2.929
  355SOL    HW2 1602   4.496   0.493   3.021
  356SOL     OW 1603   0.179   0.536   3.579
  356SOL    HW1 1604   0.268   0.520   3.548
  356SOL    HW2 1605   0.149   0.613   3.529
  357SOL     OW 1606   1.381   0.934   3.519
  357SOL    HW1 1607   1.402   1.028   3.515
  357SOL    HW2 1608   1.376   0.907   3.427
  358SOL     OW 1609   0.812   0.577   2.224
  358SOL    HW1 1610   0.816   0.506   2.159
  358SOL    HW2 1611   0.740   0.632   2.194
  359SOL     OW 1612   1.637   0.601   3.042
  359SOL    HW1 1613   1.627   0.543   3.118
  359SOL    HW2 1614   1.725   0.583   3.009
  360SOL     OW 1615   0.273   1.563   3.601
  360SOL    HW1 1616   0.211   1.612   3.655
  360SOL    HW2 1617   0.258   1.471   3.624
  361SOL     OW 1618   0.701   0.461   3.123
  361SOL    HW1 1619   0.653   0.384   3.093
  361SOL    HW2 1620   0.700   0.520   3.049
  362SOL     OW 1621   0.922   1.679   3.333
  362SOL    HW1 1622   0.898   1.640   3.249
  362SOL    HW2 1623   0.916   1.773   3.318
  363SOL     OW 1624   0.471   0.491   2.039
  363SOL    HW1 1625   0.532   0.560   2.064
  363SOL    HW2 1626   0.388   0.536   2.024
  364SOL     OW 1627   0.159   1.142   3.319
  364SOL    HW1 1628   0.143   1.098   3.402
  364SOL    HW2 1629   0.167   1.071   3.255
  365SOL     OW 1630   1.321   1.043   3.081
  365SOL    HW1 1631   1.342   0.980   3.013
  365SOL    HW2 1632   1.254   1.100   3.042
  366SOL     OW 1633   1.317   0.856   2.165
  366SOL    HW1 1634   1.242   0.828   2.219
  366SOL    HW2 1635   1.287   0.844   2.075
  367SOL     OW 1636   1.769   1.733   3.011
  367SOL    HW1 1637   1.835   1.762   2.949
  367SOL    HW2 1638   1.751   1.642   2.987
  368SOL     OW 1639   1.239   1.732   2.967
  368SOL    HW1 1640   1.322   1.756   2.927
  368SOL    HW2 1641   1.249   1.639   2.988
  369SOL     OW 1642   0.071   1.187   2.913
  369SOL    HW1 1643   0.055   1.215   3.003
  369SOL    HW2 1644   0.040   1.259   2.859
  370SOL     OW 1645   0.680   1.670   3.600
  370SOL    HW1 1646   0.620   1.744   3.589
  370SOL    HW2 1647   0.748   1.684   3.534
  371SOL     OW 1648   1.720   0.128   2.346
  371SOL    HW1 1649   1.787   0.143   2.278
  371SOL    HW2 1650   1.756   0.058   2.400
  372SOL     OW 1651   1.392   1.568   2.352
  372SOL    HW1 1652   1.450   1.602   2.284
  372SOL    HW2 1653   1.342   1.644   2.380
  373SOL     OW 1654   0.115   1.808   3.713
  373SOL    HW1 1655   0.075   1.737   3.762
  373SOL    HW2 1656   0.180   1.845   3.773
  374SOL     OW 1657   1.279   0.930   2.534
  374SOL    HW1 1658   1.353   0.869   2.543
  374SOL    HW2 1659   1.313   1.001   2.481
  375SOL     OW 1660   0.806   1.277   3.287
  375SOL    HW1 1661   0.779   1.317   3.369
  375SOL    HW2 1662   0.736   1.297   3.226
  376SOL     OW 1663   0.672   1.625   2.017
  376SOL    HW1 1664   0.683   1.639   1.923
  376SOL    HW2 1665   0.616   1.548   2.024
  377SOL     OW 1666   1.618   1.725   3.251
  377SOL    HW1 1667   1.670   1.733   3.171
  377SOL    HW2 1668   1.603   1.815   3.279
  378SOL     OW 1669   1.840   0.151   2.827
  378SOL    HW1 1670   1.869   0.072   2.781
  378SOL    HW2 1671   1.753   0.168   2.790
  379SOL     OW 1672   0.256   0.322   2.577
  379SOL    HW1 1673   0.172   0.356   2.547
  379SOL    HW2 1674   0.245   0.311   2.672
  380SOL     OW 1675   1.208   1.602   1.895
  380SOL    HW1 1676   1.197   1.511   1.921
  380SOL    HW2 1677   1.143   1.616   1.827
  381SOL     OW 1678   0.826   1.008   3.237
  381SOL    HW1 1679   0.869   1.002   3.151
  381SOL    HW2 1680   0.822   1.102   3.255
  382SOL     OW 1681   0.915   0.910   2.153
  382SOL    HW1 1682   0.976   0.943   2.086
  382SOL    HW2 1683   0.965   0.843   2.199
  383SOL     OW 1684   1.490   1.629   1.906
  383SOL    HW1 1685   1.396   1.619   1.891
  383SOL    HW2 1686   1.528   1.634   1.818
  384SOL     OW 1687   0.372   1.310   3.353
  384SOL    HW1 1688   0.355   1.389   3.301
  384SOL    HW2 1689   0.298   1.253   3.334
  385SOL     OW 1690   1.608   1.284   3.140
  385SOL    HW1 1691   1.670   1.271   3.212
  385SOL    HW2 1692   1.548   1.352   3.172
  386SOL     OW 1693   1.060   1.110   2.571
  386SOL    HW1 1694   0.988   1.060   2.609
  386SOL    HW2 1695   1.124   1.044   2.546
  387SOL     OW 1696   0.999   0.247   2.877
  387SOL    HW1 1697   1.007   0.232   2.782
  387SOL    HW2 1698   0.990   0.159   2.914
  388SOL     OW 1699   0.606   1.488   2.344
  388SOL    HW1 1700   0.654   1.439   2.276
  388SOL    HW2 1701   0.528   1.520   2.299
  389SOL     OW 1702   1.725   0.394   3.237
  389SOL    HW1 1703   1.799   0.455   3.237
  389SOL    HW2 1704   1.753   0.323   3.180
  390SOL     OW 1705   0.253   1.343   2.135
  390SOL    HW1 1706   0.158   1.338   2.123
  390SOL    HW2 1707   0.264   1.375   2.224
  391SOL     OW 1708   0.115   1.004   3.555
  391SOL    HW1 1709   0.053   1.053   3.609
  391SOL    HW2 1710   0.195   0.999   3.608
  392SOL     OW 1711   0.659   0.213   3.363
  392SOL    HW1 1712   0.738   0.186   3.315
  392SOL    HW2 1713   0.689   0.230   3.452
  393SOL     OW 1714   0.075   0.321   1.885
  393SOL    HW1 1715   4.482   0.325   1.907
  393SOL    HW2 1716   0.097   0.409   1.855
  394SOL     OW 1717   1.426   0.857   3.259
  394SOL    HW1 1718   1.376   0.919   3.204
  394SOL    HW2 1719   1.514   0.860   3.223
  395SOL     OW 1720   0.086   0.187   2.163
  395SOL    HW1 1721   0.075   0.264   2.108
  395SOL    HW2 1722   0.167   0.147   2.131
  396SOL     OW 1723   1.178   1.335   1.980
  396SOL    HW1 1724   1.087   1.306   1.981
  396SOL    HW2 1725   1.204   1.336   2.072
  397SOL     OW 1726   0.627   0.829   3.299
  397SOL    HW1 1727   0.682   0.906   3.283
  397SOL    HW2 1728   0.689   0.756   3.302
  398SOL     OW 1729   1.483   1.783   2.846
  398SOL    HW1 1730   1.503   1.849   2.779
  398SOL    HW2 1731   1.568   1.764   2.887
  399SOL     OW 1732   0.710   0.564   3.568
  399SOL    HW1 1733   0.761   0.623   3.624
  399SOL    HW2 1734   0.734   0.476   3.597
  400SOL     OW 1735   1.474   1.195   3.491
  400SOL    HW1 1736   1.462   1.210   3.585
  400SOL    HW2 1737   1.566   1.214   3.475
  401SOL     OW 1738   0.374   1.747   3.428
  401SOL    HW1 1739   0.290   1.789   3.408
  401SOL    HW2 1740   0.351   1.669   3.477
  402SOL     OW 1741   1.665   0.880   3.117
  402SOL    HW1 1742   1.659   0.795   3.073
  402SOL    HW2 1743   1.655   0.944   3.046
  403SOL     OW 1744   1.222   0.334   2.306
  403SOL    HW1 1745   1.291   0.269   2.292
  403SOL    HW2 1746   1.250   0.383   2.384
  404SOL     OW 1747   0.583   0.733   2.537
  404SOL    HW1 1748   0.625   0.818   2.523
  404SOL    HW2 1749   0.519   0.726   2.466
  405SOL     OW 1750   1.756   0.372   3.506
  405SOL    HW1 1751   1.742   0.385   3.413
  405SOL    HW2 1752   1.680   0.322   3.535
  406SOL     OW 1753   1.748   0.933   3.373
  406SOL    HW1 1754   1.739   1.028   3.386
  406SOL    HW2 1755   1.730   0.920   3.280
  407SOL     OW 1756   0.865   1.365   1.904
  407SOL    HW1 1757   0.826   1.392   1.987
  407SOL    HW2 1758   0.879   1.446   1.856
  408SOL     OW 1759   0.663   1.786   2.802
  408SOL    HW1 1760   0.645   1.877   2.781
  408SOL    HW2 1761   0.759   1.778   2.795
  409SOL     OW 1762   0.870   0.971   2.715
  409SOL    HW1 1763   0.921   0.899   2.752
  409SOL    HW2 1764   0.831   1.015   2.791
  410SOL     OW 1765   1.077   0.988   1.952
  410SOL    HW1 1766   1.055   1.040   1.874
  410SOL    HW2 1767   1.151   0.934   1.924
  411SOL     OW 1768   1.848   1.548   2.701
  411SOL    HW1 1769   1.766   1.540   2.652
  411SOL    HW2 1770   1.834   1.493   2.779
  412SOL     OW 1771   0.233   1.303   3.723
  412SOL    HW1 1772   0.148   1.264   3.707
  412SOL    HW2 1773   0.237   1.314   3.818
  413SOL     OW 1774   0.123   1.226   2.530
  413SOL    HW1 1775   0.144   1.187   2.615
  413SOL    HW2 1776   0.179   1.180   2.468
  414SOL     OW 1777   0.686   1.407   3.494
  414SOL    HW1 1778   0.606   1.364   3.524
  414SOL    HW2 1779   0.681   1.495   3.531
  415SOL     OW 1780   1.802   0.176   3.099
  415SOL    HW1 1781   1.797   0.082   3.118
  415SOL    HW2 1782   1.821   0.180   3.005
  416SOL     OW 1783   0.445   0.427   2.397
  416SOL    HW1 1784   0.456   0.359   2.331
  416SOL    HW2 1785   0.382   0.391   2.459
  417SOL     OW 1786   1.704   1.478   2.944
  417SOL    HW1 1787   1.620   1.460   2.901
  417SOL    HW2 1788   1.708   1.413   3.015
  418SOL     OW 1789   0.307   0.509   3.112
  418SOL    HW1 1790   0.379   0.457   3.148
  418SOL    HW2 1791   0.329   0.519   3.019
  419SOL     OW 1792   0.831   1.578   2.537
  419SOL    HW1 1793   0.810   1.642   2.469
  419SOL    HW2 1794   0.756   1.519   2.539
  420SOL     OW 1795   1.430   0.218   2.977
  420SOL    HW1 1796   1.465   0.146   3.030
  420SOL    HW2 1797   1.379   0.270   3.040
  421SOL     OW 1798   0.994   4.500   3.018
  421SOL    HW1 1799   0.958   4.411   3.011
  421SOL    HW2 1800   1.089   4.486   3.024
  422SOL     OW 1801   0.774   1.334   2.182
  422SOL    HW1 1802   0.747   1.242   2.190
  422SOL    HW2 1803   0.856   1.339   2.232
  423SOL     OW 1804   0.621   1.555   3.149
  423SOL    HW1 1805   0.621   1.637   3.199
  423SOL    HW2 1806   0.709   1.549   3.112
  424SOL     OW 1807   1.338   0.051   2.025
  424SOL    HW1 1808   1.376   4.475   1.979
  424SOL    HW2 1809   1.261   0.016   2.069
  425SOL     OW 1810   1.315   0.467   2.532
  425SOL    HW1 1811   1.260   0.545   2.534
  425SOL    HW2 1812   1.305   0.427   2.618
  426SOL     OW 1813   1.586   0.198   2.733
  426SOL    HW1 1814   1.528   0.214   2.807
  426SOL    HW2 1815   1.587   0.281   2.685
  427SOL     OW 1816   0.039   1.049   2.155
  427SOL    HW1 1817   0.130   1.025   2.142
  427SOL    HW2 1818   0.021   1.026   2.246
  428SOL     OW 1819   0.890   1.659   2.200
  428SOL    HW1 1820   0.815   1.643   2.142
  428SOL    HW2 1821   0.861   1.731   2.256
  429SOL     OW 1822   0.243   0.630   3.850
  429SOL    HW1 1823   0.169   0.601   3.904
  429SOL    HW2 1824   0.212   0.619   3.760
  430SOL     OW 1825   0.191   0.297   4.712
  430SOL    HW1 1826   0.219   0.264   4.797
  430SOL    HW2 1827   0.131   0.230   4.679
  431SOL     OW 1828   4.498   0.394   4.359
  431SOL    HW1 1829   4.423   0.430   4.406
  431SOL    HW2 1830   4.463   0.321   4.309
  432SOL     OW 1831   0.570   1.296   4.907
  432SOL    HW1 1832   0.483   1.300   4.866
  432SOL    HW2 1833   0.584   1.384   4.941
  433SOL     OW 1834   1.569   1.509   4.431
  433SOL    HW1 1835   1.523   1.488   4.512
  433SOL    HW2 1836   1.499   1.518   4.366
  434SOL     OW 1837   1.141   0.696   4.417
  434SOL    HW1 1838   1.184   0.781   4.409
  434SOL    HW2 1839   1.088   0.704   4.496
  435SOL     OW 1840   1.777   0.601   3.948
  435SOL    HW1 1841   1.751   0.595   3.857
  435SOL    HW2 1842   1.739   0.523   3.989
  436SOL     OW 1843   0.748   1.138   4.771
  436SOL    HW1 1844   0.681   1.176   4.829
  436SOL    HW2 1845   0.786   1.214   4.726
  437SOL     OW 1846   0.871   0.763   5.546
  437SOL    HW1 1847   0.855   0.833   5.610
  437SOL    HW2 1848   0.895   0.810   5.466
  438SOL     OW 1849   0.684   0.998   4.369
  438SOL    HW1 1850   0.751   0.989   4.437
  438SOL    HW2 1851   0.616   1.052   4.409
  439SOL     OW 1852   0.714   1.149   5.543
  439SOL    HW1 1853   0.761   1.227   5.573
  439SOL    HW2 1854   0.634   1.182   5.503
  440SOL     OW 1855   0.333   1.417   4.791
  440SOL    HW1 1856   0.253   1.395   4.745
  440SOL    HW2 1857   0.382   1.472   4.730
  441SOL     OW 1858   1.466   1.505   5.106
  441SOL    HW1 1859   1.447   1.588   5.063
  441SOL    HW2 1860   1.392   1.489   5.164
  442SOL     OW 1861   0.445   0.391   5.204
  442SOL    HW1 1862   0.533   0.355   5.203
  442SOL    HW2 1863   0.391   0.322   5.244
  443SOL     OW 1864   1.606   0.441   4.462
  443SOL    HW1 1865   1.526   0.459   4.412
  443SOL    HW2 1866   1.618   0.519   4.517
  444SOL     OW 1867   0.246   1.691   4.198
  444SOL    HW1 1868   0.228   1.776   4.237
  444SOL    HW2 1869   0.319   1.706   4.138
  445SOL     OW 1870   1.138   1.342   5.417
  445SOL    HW1 1871   1.178   1.337   5.504
  445SOL    HW2 1872   1.085   1.263   5.410
  446SOL     OW 1873   0.258   1.425   4.249
  446SOL    HW1 1874   0.244   1.520   4.252
  446SOL    HW2 1875   0.199   1.390   4.315
  447SOL     OW 1876   0.254   1.084   4.610
  447SOL    HW1 1877   0.269   0.992   4.633
  447SOL    HW2 1878   0.192   1.115   4.675
  448SOL     OW 1879   0.608   1.791   5.155
  448SOL    HW1 1880   0.525   1.774   5.198
  448SOL    HW2 1881   0.629   1.881   5.179
  449SOL     OW 1882   0.570   0.993   3.869
  449SOL    HW1 1883   0.621   1.031   3.797
  449SOL    HW2 1884   0.615   1.022   3.948
  450SOL     OW 1885   1.574   0.119   5.187
  450SOL    HW1 1886   1.614   0.185   5.130
  450SOL    HW2 1887   1.566   0.163   5.272
  451SOL     OW 1888   0.136   0.647   4.297
  451SOL    HW1 1889   0.087   0.568   4.320
  451SOL    HW2 1890   0.109   0.712   4.361
  452SOL     OW 1891   1.844   1.755   4.054
  452SOL    HW1 1892   1.911   1.729   4.117
  452SOL    HW2 1893   1.862   1.847   4.036
  453SOL     OW 1894   0.032   1.605   3.876
  453SOL    HW1 1895   0.017   1.511   3.867
  453SOL    HW2 1896   0.046   1.618   3.970
  454SOL     OW 1897   1.689   0.918   4.366
  454SOL    HW1 1898   1.771   0.875   4.342
  454SOL    HW2 1899   1.666   0.970   4.289
  455SOL     OW 1900   1.649   1.104   4.153
  455SOL    HW1 1901   1.736   1.106   4.112
  455SOL    HW2 1902   1.655   1.166   4.225
  456SOL     OW 1903   0.098   0.770   5.290
  456SOL    HW1 1904   0.184   0.754   5.252
  456SOL    HW2 1905   0.102   0.860   5.323
  457SOL     OW 1906   0.616   1.390   4.461
  457SOL    HW1 1907   0.569   1.306   4.470
  457SOL    HW2 1908   0.599   1.417   4.371
  458SOL     OW 1909   1.294   1.244   5.140
  458SOL    HW1 1910   1.318   1.172   5.083
  458SOL    HW2 1911   1.348   1.232   5.219
  459SOL     OW 1912   0.829   0.020   4.284
  459SOL    HW1 1913   0.865   0.104   4.255
  459SOL    HW2 1914   0.734   0.028   4.269
  460SOL     OW 1915   0.176   0.941   5.002
  460SOL    HW1 1916   0.267   0.918   4.983
  460SOL    HW2 1917   0.132   0.934   4.917
  461SOL     OW 1918   1.531   0.998   3.924
  461SOL    HW1 1919   1.462   0.941   3.957
  461SOL    HW2 1920   1.574   1.032   4.003
  462SOL     OW 1921   1.181   1.812   5.349
  462SOL    HW1 1922   1.189   1.874   5.277
  462SOL    HW2 1923   1.196   1.726   5.308
  463SOL     OW 1924   0.317   0.261   5.488
  463SOL    HW1 1925   0.384   0.310   5.535
  463SOL    HW2 1926   0.239   0.269   5.542
  464SOL     OW 1927   1.462   1.412   4.667
  464SOL    HW1 1928   1.393   1.429   4.732
  464SOL    HW2 1929   1.448   1.321   4.641
  465SOL     OW 1930   1.650   1.751   4.301
  465SOL    HW1 1931   1.631   1.715   4.214
  465SOL    HW2 1932   1.639   1.677   4.360
  466SOL     OW 1933   0.594   0.722   3.993
  466SOL    HW1 1934   0.592   0.806   3.947
  466SOL    HW2 1935   0.528   0.731   4.061
  467SOL     OW 1936   1.294   0.375   4.655
  467SOL    HW1 1937   1.205   0.344   4.636
  467SOL    HW2 1938   1.329   0.310   4.716
  468SOL     OW 1939   1.578   1.671   4.034
  468SOL    HW1 1940   1.670   1.699   4.027
  468SOL    HW2 1941   1.551   1.655   3.944
  469SOL     OW 1942   0.799   0.618   5.178
  469SOL    HW1 1943   0.769   0.590   5.264
  469SOL    HW2 1944   0.761   0.554   5.118
  470SOL     OW 1945   1.388   0.483   5.400
  470SOL    HW1 1946   1.393   0.527   5.485
  470SOL    HW2 1947   1.454   0.414   5.405
  471SOL     OW 1948   0.952   0.886   5.310
  471SOL    HW1 1949   1.006   0.817   5.272
  471SOL    HW2 1950   0.903   0.922   5.236
  472SOL     OW 1951   0.999   0.418   4.956
  472SOL    HW1 1952   0.909   0.422   4.988
  472SOL    HW2 1953   0.994   0.363   4.877
  473SOL     OW 1954   1.052   0.698   4.149
  473SOL    HW1 1955   1.071   0.690   4.242
  473SOL    HW2 1956   0.968   0.654   4.137
  474SOL     OW 1957   0.091   0.828   4.511
  474SOL    HW1 1958   0.177   0.821   4.551
  474SOL    HW2 1959   0.029   0.831   4.584
  475SOL     OW 1960   0.118   1.869   5.306
  475SOL    HW1 1961   0.114   1.843   5.398
  475SOL    HW2 1962   0.046   1.820   5.264
  476SOL     OW 1963   0.856   0.372   3.912
  476SOL    HW1 1964   0.921   0.405   3.851
  476SOL    HW2 1965   0.869   0.277   3.913
  477SOL     OW 1966   1.701   0.570   5.554
  477SOL    HW1 1967   1.667   0.644   5.504
  477SOL    HW2 1968   1.736   0.511   5.488
  478SOL     OW 1969   1.380   1.142   4.262
  478SOL    HW1 1970   1.460   1.132   4.210
  478SOL    HW2 1971   1.327   1.205   4.213
  479SOL     OW 1972   0.537   0.210   4.623
  479SOL    HW1 1973   0.558   0.227   4.715
  479SOL    HW2 1974   0.535   0.297   4.583
  480SOL     OW 1975   1.000   1.444   4.193
  480SOL    HW1 1976   0.969   1.519   4.142
  480SOL    HW2 1977   0.975   1.464   4.283
  481SOL     OW 1978   0.359   1.816   4.586
  481SOL    HW1 1979   0.400   1.730   4.597
  481SOL    HW2 1980   0.428   1.879   4.605
  482SOL     OW 1981   1.797   1.043   4.595
  482SOL    HW1 1982   1.746   1.027   4.516
  482SOL    HW2 1983   1.731   1.053   4.664
  483SOL     OW 1984   1.223   1.538   5.235
  483SOL    HW1 1985   1.209   1.468   5.299
  483SOL    HW2 1986   1.152   1.528   5.172
  484SOL     OW 1987   0.311   0.951   3.985
  484SOL    HW1 1988   0.393   0.976   3.943
  484SOL    HW2 1989   0.300   0.859   3.962
  485SOL     OW 1990   1.482   0.748   4.445
  485SOL    HW1 1991   1.477   0.707   4.532
  485SOL    HW2 1992   1.560   0.803   4.449
  486SOL     OW 1993   0.472   1.265   5.459
  486SOL    HW1 1994   0.445   1.272   5.367
  486SOL    HW2 1995   0.389   1.265   5.508
  487SOL     OW 1996   1.124   1.778   3.953
  487SOL    HW1 1997   1.049   1.739   3.997
  487SOL    HW2 1998   1.148   1.715   3.885
  488SOL     OW 1999   0.157   0.266   5.238
  488SOL    HW1 2000   0.132   0.352   5.204
  488SOL    HW2 2001   0.195   0.284   5.324
  489SOL     OW 2002   1.628   1.382   3.815
  489SOL    HW1 2003   1.587   1.467   3.799
  489SOL    HW2 2004   1.560   1.318   3.794
  490SOL     OW 2005   0.469   1.741   4.038
  490SOL    HW1 2006   0.514   1.795   4.102
  490SOL    HW2 2007   0.539   1.704   3.984
  491SOL     OW 2008   1.429   0.148   4.146
  491SOL    HW1 2009   1.412   0.090   4.071
  491SOL    HW2 2010   1.522   0.135   4.165
  492SOL     OW 2011   0.251   1.785   4.950
  492SOL    HW1 2012   0.297   1.708   4.982
  492SOL    HW2 2013   0.214   1.758   4.866
  493SOL     OW 2014   0.941   1.698   4.620
  493SOL    HW1 2015   1.022   1.649   4.637
  493SOL    HW2 2016   0.897   1.649   4.550
  494SOL     OW 2017   0.397   0.688   4.195
  494SOL    HW1 2018   0.421   0.597   4.211
  494SOL    HW2 2019   0.305   0.694   4.220
  495SOL     OW 2020   1.523   0.234   5.447
  495SOL    HW1 2021   1.523   0.254   5.540
  495SOL    HW2 2022   1.443   0.183   5.434
  496SOL     OW 2023   0.630   0.119   3.843
  496SOL    HW1 2024   0.719   0.084   3.856
  496SOL    HW2 2025   0.599   0.078   3.763
  497SOL     OW 2026   0.769   0.273   5.480
  497SOL    HW1 2027   0.839   0.207   5.476
  497SOL    HW2 2028   0.732   0.263   5.568
  498SOL     OW 2029   0.876   1.524   4.918
  498SOL    HW1 2030   0.859   1.487   4.832
  498SOL    HW2 2031   0.945   1.469   4.956
  499SOL     OW 2032   1.339   0.590   5.152
  499SOL    HW1 2033   1.367   0.562   5.239
  499SOL    HW2 2034   1.374   0.679   5.143
  500SOL     OW 2035   0.819   1.389   4.669
  500SOL    HW1 2036   0.903   1.379   4.625
  500SOL    HW2 2037   0.755   1.396   4.598
  501SOL     OW 2038   0.926   0.526   4.620
  501SOL    HW1 2039   0.908   0.523   4.526
  501SOL    HW2 2040   0.956   0.438   4.641
  502SOL     OW 2041   0.569   0.074   4.231
  502SOL    HW1 2042   0.484   0.058   4.273
  502SOL    HW2 2043   0.551   0.138   4.163
  503SOL     OW 2044   1.428   1.200   3.763
  503SOL    HW1 2045   1.457   1.125   3.815
  503SOL    HW2 2046   1.343   1.223   3.800
  504SOL     OW 2047   0.306   0.068   3.917
  504SOL    HW1 2048   0.388   0.116   3.919
  504SOL    HW2 2049   0.318   4.497   3.981
  505SOL     OW 2050   0.961   0.240   4.186
  505SOL    HW1 2051   0.907   0.307   4.143
  505SOL    HW2 2052   1.050   0.273   4.179
  506SOL     OW 2053   1.081   0.685   5.181
  506SOL    HW1 2054   1.012   0.619   5.180
  506SOL    HW2 2055   1.162   0.635   5.170
  507SOL     OW 2056   1.226   1.580   4.526
  507SOL    HW1 2057   1.233   1.639   4.451
  507SOL    HW2 2058   1.300   1.603   4.582
  508SOL     OW 2059   0.469   1.153   4.455
  508SOL    HW1 2060   0.402   1.134   4.520
  508SOL    HW2 2061   0.427   1.139   4.371
  509SOL     OW 2062   1.264   1.793   4.334
  509SOL    HW1 2063   1.313   1.854   4.279
  509SOL    HW2 2064   1.197   1.847   4.376
  510SOL     OW 2065   1.026   0.540   3.746
  510SOL    HW1 2066   0.979   0.622   3.730
  510SOL    HW2 2067   1.085   0.560   3.818
  511SOL     OW 2068   0.089   0.505   5.134
  511SOL    HW1 2069   0.145   0.513   5.057
  511SOL    HW2 2070   0.051   0.592   5.144
  512SOL     OW 2071   0.556   0.250   4.893
  512SOL    HW1 2072   0.585   0.169   4.934
  512SOL    HW2 2073   0.461   0.251   4.907
  513SOL     OW 2074   0.864   0.506   4.354
  513SOL    HW1 2075   0.829   0.540   4.271
  513SOL    HW2 2076   0.814   0.425   4.369
  514SOL     OW 2077   0.946   0.010   4.531
  514SOL    HW1 2078   0.907   0.016   4.444
  514SOL    HW2 2079   0.966   4.417   4.542
  515SOL     OW 2080   1.438   1.154   4.579
  515SOL    HW1 2081   1.367   1.090   4.575
  515SOL    HW2 2082   1.466   1.166   4.488
  516SOL     OW 2083   1.464   0.610   4.691
  516SOL    HW1 2084   1.408   0.533   4.690
  516SOL    HW2 2085   1.519   0.599   4.768
  517SOL     OW 2086   1.841   0.812   4.109
  517SOL    HW1 2087   1.900   0.763   4.167
  517SOL    HW2 2088   1.816   0.749   4.041
  518SOL     OW 2089   0.492   1.422   3.878
  518SOL    HW1 2090   0.413   1.395   3.925
  518SOL    HW2 2091   0.483   1.383   3.791
  519SOL     OW 2092   1.675   1.261   4.368
  519SOL    HW1 2093   1.769   1.262   4.383
  519SOL    HW2 2094   1.646   1.350   4.388
  520SOL     OW 2095   1.395   0.574   3.793
  520SOL    HW1 2096   1.332   0.557   3.863
  520SOL    HW2 2097   1.480   0.559   3.833
  521SOL     OW 2098   0.516   0.263   4.039
  521SOL    HW1 2099   0.570   0.216   3.976
  521SOL    HW2 2100   0.500   0.348   3.998
  522SOL     OW 2101   1.747   1.226   5.288
  522SOL    HW1 2102   1.831   1.180   5.299
  522SOL    HW2 2103   1.766   1.317   5.311
  523SOL     OW 2104   1.053   1.356   5.060
  523SOL    HW1 2105   0.978   1.322   5.109
  523SOL    HW2 2106   1.129   1.314   5.100
  524SOL     OW 2107   1.589   1.596   5.379
  524SOL    HW1 2108   1.562   1.603   5.287
  524SOL    HW2 2109   1.672   1.549   5.376
  525SOL     OW 2110   1.136   1.216   4.827
  525SOL    HW1 2111   1.069   1.245   4.888
  525SOL    HW2 2112   1.104   1.243   4.741
  526SOL     OW 2113   1.622   1.097   4.800
  526SOL    HW1 2114   1.613   1.159   4.872
  526SOL    HW2 2115   1.546   1.114   4.744
  527SOL     OW 2116   0.896   0.138   5.106
  527SOL    HW1 2117   0.920   0.090   5.027
  527SOL    HW2 2118   0.980   0.158   5.147
  528SOL     OW 2119   0.984   1.116   5.447
  528SOL    HW1 2120   0.893   1.132   5.472
  528SOL    HW2 2121   0.981   1.037   5.393
  529SOL     OW 2122   0.710   1.063   4.097
  529SOL    HW1 2123   0.696   1.043   4.189
  529SOL    HW2 2124   0.785   1.009   4.071
  530SOL     OW 2125   0.431   0.830   4.971
  530SOL    HW1 2126   0.498   0.841   5.038
  530SOL    HW2 2127   0.377   0.757   5.002
  531SOL     OW 2128   1.268   0.373   5.000
  531SOL    HW1 2129   1.300   0.452   5.044
  531SOL    HW2 2130   1.178   0.395   4.974
  532SOL     OW 2131   0.065   1.574   5.074
  532SOL    HW1 2132   0.041   1.664   5.054
  532SOL    HW2 2133   0.161   1.574   5.076
  533SOL     OW 2134   0.335   1.113   4.218
  533SOL    HW1 2135   0.347   1.188   4.160
  533SOL    HW2 2136   0.334   1.038   4.159
  534SOL     OW 2137   0.561   0.516   4.574
  534SOL    HW1 2138   0.571   0.578   4.502
  534SOL    HW2 2139   0.623   0.547   4.640
  535SOL     OW 2140   1.247   1.350   4.114
  535SOL    HW1 2141   1.303   1.421   4.146
  535SOL    HW2 2142   1.160   1.371   4.148
  536SOL     OW 2143   1.287   1.451   4.877
  536SOL    HW1 2144   1.336   1.435   4.958
  536SOL    HW2 2145   1.228   1.376   4.870
  537SOL     OW 2146   1.578   0.622   4.204
  537SOL    HW1 2147   1.529   0.666   4.273
  537SOL    HW2 2148   1.623   0.693   4.158
  538SOL     OW 2149   0.345   1.534   5.034
  538SOL    HW1 2150   0.333   1.486   4.952
  538SOL    HW2 2151   0.440   1.544   5.042
  539SOL     OW 2152   0.499   0.756   5.404
  539SOL    HW1 2153   0.527   0.795   5.321
  539SOL    HW2 2154   0.561   0.684   5.418
  540SOL     OW 2155   1.607   0.780   5.410
  540SOL    HW1 2156   1.521   0.822   5.403
  540SOL    HW2 2157   1.659   0.821   5.341
  541SOL     OW 2158   0.994   0.091   5.435
  541SOL    HW1 2159   1.042   0.166   5.399
  541SOL    HW2 2160   1.017   0.018   5.377
  542SOL     OW 2161   0.495   0.041   5.479
  542SOL    HW1 2162   0.483   4.495   5.396
  542SOL    HW2 2163   0.430   0.111   5.477
  543SOL     OW 2164   0.591   0.876   4.750
  543SOL    HW1 2165   0.624   0.966   4.753
  543SOL    HW2 2166   0.535   0.868   4.827
  544SOL     OW 2167   1.348   0.858   4.749
  544SOL    HW1 2168   1.263   0.843   4.708
  544SOL    HW2 2169   1.394   0.774   4.738
  545SOL     OW 2170   1.197   0.537   3.980
  545SOL    HW1 2171   1.205   0.457   4.033
  545SOL    HW2 2172   1.155   0.600   4.038
  546SOL     OW 2173   0.282   0.211   4.958
  546SOL    HW1 2174   0.239   0.229   5.041
  546SOL    HW2 2175   0.330   0.129   4.973
  547SOL     OW 2176   0.019   1.312   5.013
  547SOL    HW1 2177   0.064   1.263   5.082
  547SOL    HW2 2178   0.031   1.404   5.037
  548SOL     OW 2179   0.720   0.629   4.775
  548SOL    HW1 2180   0.797   0.612   4.720
  548SOL    HW2 2181   0.693   0.718   4.753
  549SOL     OW 2182   1.736   0.961   5.581
  549SOL    HW1 2183   1.693   0.893   5.528
  549SOL    HW2 2184   1.677   0.976   5.654
  550SOL     OW 2185   0.325   0.071   4.350
  550SOL    HW1 2186   0.302   0.160   4.377
  550SOL    HW2 2187   0.312   0.018   4.429
  551SOL     OW 2188   1.623   0.386   4.078
  551SOL    HW1 2189   1.646   0.319   4.142
  551SOL    HW2 2190   1.598   0.462   4.130
  552SOL     OW 2191   1.033   0.765   4.683
  552SOL    HW1 2192   1.024   0.780   4.778
  552SOL    HW2 2193   1.002   0.676   4.670
  553SOL     OW 2194   0.983   1.568   5.444
  553SOL    HW1 2195   0.966   1.611   5.361
  553SOL    HW2 2196   1.024   1.484   5.421
  554SOL     OW 2197   1.845   1.476   5.340
  554SOL    HW1 2198   1.886   1.544   5.288
  554SOL    HW2 2199   1.880   1.489   5.428
  555SOL     OW 2200   0.347   0.936   5.541
  555SOL    HW1 2201   0.416   0.969   5.599
  555SOL    HW2 2202   0.390   0.867   5.490
  556SOL     OW 2203   1.527   0.260   3.851
  556SOL    HW1 2204   1.459   0.203   3.886
  556SOL    HW2 2205   1.560   0.308   3.928
  557SOL     OW 2206   1.287   0.826   3.751
  557SOL    HW1 2207   1.329   0.740   3.755
  557SOL    HW2 2208   1.319   0.865   3.670
  558SOL     OW 2209   1.070   1.340   4.580
  558SOL    HW1 2210   1.074   1.268   4.517
  558SOL    HW2 2211   1.130   1.406   4.545
  559SOL     OW 2212   0.320   0.813   4.665
  559SOL    HW1 2213   0.414   0.830   4.665
  559SOL    HW2 2214   0.312   0.721   4.690
  560SOL     OW 2215   0.329   0.533   4.706
  560SOL    HW1 2216   0.283   0.450   4.691
  560SOL    HW2 2217   0.408   0.528   4.652
  561SOL     OW 2218   1.139   0.369   5.428
  561SOL    HW1 2219   1.085   0.431   5.477
  561SOL    HW2 2220   1.222   0.415   5.413
  562SOL     OW 2221   1.149   0.216   5.198
  562SOL    HW1 2222   1.148   0.280   5.270
  562SOL    HW2 2223   1.196   0.260   5.128
  563SOL     OW 2224   4.491   1.319   3.935
  563SOL    HW1 2225   4.398   1.336   3.917
  563SOL    HW2 2226   4.494   1.226   3.956
  564SOL     OW 2227   0.103   1.767   4.665
  564SOL    HW1 2228   0.063   1.725   4.589
  564SOL    HW2 2229   0.191   1.791   4.635
  565SOL     OW 2230   0.493   1.575   4.631
  565SOL    HW1 2231   0.562   1.637   4.655
  565SOL    HW2 2232   0.536   1.513   4.572
  566SOL     OW 2233   0.976   0.792   4.948
  566SOL    HW1 2234   1.034   0.771   5.021
  566SOL    HW2 2235   0.894   0.747   4.969
  567SOL     OW 2236   0.028   0.564   4.829
  567SOL    HW1 2237   0.110   0.531   4.791
  567SOL    HW2 2238   4.496   0.492   4.882
  568SOL     OW 2239   0.179   0.537   5.441
  568SOL    HW1 2240   0.267   0.520   5.410
  568SOL    HW2 2241   0.149   0.613   5.391
  569SOL     OW 2242   1.381   0.934   5.381
  569SOL    HW1 2243   1.401   1.027   5.377
  569SOL    HW2 2244   1.377   0.907   5.289
  570SOL     OW 2245   0.812   0.577   4.086
  570SOL    HW1 2246   0.817   0.506   4.022
  570SOL    HW2 2247   0.739   0.632   4.056
  571SOL     OW 2248   1.638   0.602   4.905
  571SOL    HW1 2249   1.628   0.543   4.980
  571SOL    HW2 2250   1.725   0.584   4.872
  572SOL     OW 2251   0.274   1.563   5.463
  572SOL    HW1 2252   0.211   1.612   5.516
  572SOL    HW2 2253   0.258   1.471   5.487
  573SOL     OW 2254   0.702   0.461   4.986
  573SOL    HW1 2255   0.653   0.384   4.956
  573SOL    HW2 2256   0.700   0.520   4.911
  574SOL     OW 2257   0.927   1.677   5.192
  574SOL    HW1 2258   0.899   1.639   5.109
  574SOL    HW2 2259   0.918   1.772   5.179
  575SOL     OW 2260   0.471   0.491   3.901
  575SOL    HW1 2261   0.532   0.560   3.926
  575SOL    HW2 2262   0.388   0.537   3.886
  576SOL     OW 2263   0.160   1.142   5.181
  576SOL    HW1 2264   0.143   1.099   5.265
  576SOL    HW2 2265   0.167   1.071   5.118
  577SOL     OW 2266   1.320   1.045   4.944
  577SOL    HW1 2267   1.341   0.981   4.877
  577SOL    HW2 2268   1.255   1.102   4.903
  578SOL     OW 2269   1.316   0.856   4.028
  578SOL    HW1 2270   1.242   0.827   4.080
  578SOL    HW2 2271   1.288   0.844   3.937
  579SOL     OW 2272   1.239   1.726   4.848
  579SOL    HW1 2273   1.308   1.740   4.783
  579SOL    HW2 2274   1.239   1.631   4.862
  580SOL     OW 2275   0.071   1.187   4.775
  580SOL    HW1 2276   0.055   1.215   4.865
  580SOL    HW2 2277   0.040   1.259   4.721
  581SOL     OW 2278   0.679   1.671   5.462
  581SOL    HW1 2279   0.618   1.743   5.453
  581SOL    HW2 2280   0.745   1.686   5.394
  582SOL     OW 2281   1.721   0.128   4.208
  582SOL    HW1 2282   1.787   0.143   4.141
  582SOL    HW2 2283   1.757   0.058   4.262
  583SOL     OW 2284   1.392   1.568   4.214
  583SOL    HW1 2285   1.450   1.601   4.146
  583SOL    HW2 2286   1.342   1.644   4.243
  584SOL     OW 2287   0.116   1.807   5.575
  584SOL    HW1 2288   0.075   1.736   5.624
  584SOL    HW2 2289   0.180   1.845   5.635
  585SOL     OW 2290   1.280   0.931   4.398
  585SOL    HW1 2291   1.353   0.869   4.405
  585SOL    HW2 2292   1.314   1.001   4.343
  586SOL     OW 2293   0.805   1.276   5.149
  586SOL    HW1 2294   0.777   1.317   5.231
  586SOL    HW2 2295   0.734   1.296   5.088
  587SOL     OW 2296   0.672   1.625   3.879
  587SOL    HW1 2297   0.683   1.639   3.785
  587SOL    HW2 2298   0.616   1.547   3.886
  588SOL     OW 2299   1.840   0.151   4.689
  588SOL    HW1 2300   1.870   0.072   4.643
  588SOL    HW2 2301   1.753   0.168   4.652
  589SOL     OW 2302   0.256   0.322   4.439
  589SOL    HW1 2303   0.172   0.356   4.409
  589SOL    HW2 2304   0.245   0.311   4.534
  590SOL     OW 2305   1.208   1.602   3.757
  590SOL    HW1 2306   1.197   1.511   3.783
  590SOL    HW2 2307   1.143   1.616   3.689
  591SOL     OW 2308   0.825   1.008   5.100
  591SOL    HW1 2309   0.866   1.001   5.013
  591SOL    HW2 2310   0.821   1.102   5.117
  592SOL     OW 2311   0.916   0.911   4.015
  592SOL    HW1 2312   0.976   0.943   3.948
  592SOL    HW2 2313   0.965   0.843   4.061
  593SOL     OW 2314   1.490   1.628   3.768
  593SOL    HW1 2315   1.396   1.619   3.752
  593SOL    HW2 2316   1.528   1.633   3.680
  594SOL     OW 2317   0.373   1.311   5.214
  594SOL    HW1 2318   0.355   1.389   5.163
  594SOL    HW2 2319   0.299   1.252   5.196
  595SOL     OW 2320   1.608   1.283   5.010
  595SOL    HW1 2321   1.666   1.258   5.082
  595SOL    HW2 2322   1.553   1.352   5.045
  596SOL     OW 2323   1.060   1.111   4.435
  596SOL    HW1 2324   0.987   1.061   4.471
  596SOL    HW2 2325   1.124   1.045   4.408
  597SOL     OW 2326   0.999   0.247   4.739
  597SOL    HW1 2327   1.007   0.233   4.644
  597SOL    HW2 2328   0.990   0.160   4.776
  598SOL     OW 2329   0.607   1.488   4.206
  598SOL    HW1 2330   0.654   1.439   4.139
  598SOL    HW2 2331   0.528   1.520   4.162
  599SOL     OW 2332   1.725   0.395   5.099
  599SOL    HW1 2333   1.800   0.455   5.099
  599SOL    HW2 2334   1.753   0.323   5.042
  600SOL     OW 2335   0.253   1.343   3.997
  600SOL    HW1 2336   0.158   1.338   3.985
  600SOL    HW2 2337   0.264   1.375   4.087
  601SOL     OW 2338   0.116   1.004   5.417
  601SOL    HW1 2339   0.053   1.053   5.471
  601SOL    HW2 2340   0.195   0.999   5.470
  602SOL     OW 2341   0.659   0.213   5.225
  602SOL    HW1 2342   0.738   0.186   5.177
  602SOL    HW2 2343   0.690   0.230   5.314
  603SOL     OW 2344   0.075   0.321   3.747
  603SOL    HW1 2345   4.482   0.325   3.769
  603SOL    HW2 2346   0.097   0.409   3.717
  604SOL     OW 2347   1.426   0.858   5.121
  604SOL    HW1 2348   1.376   0.919   5.066
  604SOL    HW2 2349   1.514   0.860   5.084
  605SOL     OW 2350   0.087   0.187   4.026
  605SOL    HW1 2351   0.074   0.264   3.969
  605SOL    HW2 2352   0.167   0.147   3.994
  606SOL     OW 2353   1.178   1.335   3.841
  606SOL    HW1 2354   1.087   1.306   3.843
  606SOL    HW2 2355   1.204   1.336   3.934
  607SOL     OW 2356   0.627   0.829   5.160
  607SOL    HW1 2357   0.682   0.906   5.145
  607SOL    HW2 2358   0.688   0.756   5.164
  608SOL     OW 2359   1.448   1.720   4.669
  608SOL    HW1 2360   1.481   1.802   4.633
  608SOL    HW2 2361   1.526   1.675   4.702
  609SOL     OW 2362   0.710   0.563   5.430
  609SOL    HW1 2363   0.761   0.622   5.486
  609SOL    HW2 2364   0.734   0.475   5.459
  610SOL     OW 2365   1.471   1.196   5.354
  610SOL    HW1 2366   1.460   1.210   5.448
  610SOL    HW2 2367   1.565   1.208   5.339
  611SOL     OW 2368   0.374   1.747   5.290
  611SOL    HW1 2369   0.290   1.789   5.270
  611SOL    HW2 2370   0.351   1.669   5.339
  612SOL     OW 2371   1.664   0.879   4.978
  612SOL    HW1 2372   1.660   0.794   4.935
  612SOL    HW2 2373   1.654   0.942   4.906
  613SOL     OW 2374   1.222   0.334   4.168
  613SOL    HW1 2375   1.291   0.269   4.154
  613SOL    HW2 2376   1.250   0.383   4.246
  614SOL     OW 2377   0.583   0.734   4.399
  614SOL    HW1 2378   0.625   0.819   4.385
  614SOL    HW2 2379   0.519   0.726   4.329
  615SOL     OW 2380   1.755   0.373   5.368
  615SOL    HW1 2381   1.742   0.386   5.275
  615SOL    HW2 2382   1.680   0.322   5.397
  616SOL     OW 2383   1.747   0.933   5.233
  616SOL    HW1 2384   1.732   1.026   5.244
  616SOL    HW2 2385   1.730   0.917   5.140
  617SOL     OW 2386   0.865   1.365   3.766
  617SOL    HW1 2387   0.826   1.393   3.849
  617SOL    HW2 2388   0.880   1.446   3.717
  618SOL     OW 2389   0.664   1.786   4.664
  618SOL    HW1 2390   0.645   1.877   4.643
  618SOL    HW2 2391   0.759   1.779   4.657
  619SOL     OW 2392   0.869   0.971   4.577
  619SOL    HW1 2393   0.920   0.899   4.614
  619SOL    HW2 2394   0.831   1.014   4.653
  620SOL     OW 2395   1.077   0.988   3.814
  620SOL    HW1 2396   1.055   1.040   3.736
  620SOL    HW2 2397   1.151   0.934   3.786
  621SOL     OW 2398   1.843   1.557   4.566
  621SOL    HW1 2399   1.766   1.526   4.519
  621SOL    HW2 2400   1.885   1.478   4.599
  622SOL     OW 2401   0.234   1.303   5.585
  622SOL    HW1 2402   0.148   1.264   5.568
  622SOL    HW2 2403   0.237   1.314   5.680
  623SOL     OW 2404   0.123   1.227   4.392
  623SOL    HW1 2405   0.143   1.188   4.477
  623SOL    HW2 2406   0.179   1.180   4.330
  624SOL     OW 2407   0.687   1.407   5.357
  624SOL    HW1 2408   0.607   1.363   5.385
  624SOL    HW2 2409   0.680   1.496   5.393
  625SOL     OW 2410   1.801   0.176   4.961
  625SOL    HW1 2411   1.798   0.082   4.980
  625SOL    HW2 2412   1.820   0.180   4.868
  626SOL     OW 2413   0.445   0.427   4.260
  626SOL    HW1 2414   0.456   0.359   4.193
  626SOL    HW2 2415   0.382   0.390   4.321
  627SOL     OW 2416   1.661   1.498   4.833
  627SOL    HW1 2417   1.600   1.468   4.766
  627SOL    HW2 2418   1.673   1.422   4.890
  628SOL     OW 2419   0.308   0.510   4.974
  628SOL    HW1 2420   0.379   0.457   5.009
  628SOL    HW2 2421   0.330   0.520   4.881
  629SOL     OW 2422   0.831   1.579   4.399
  629SOL    HW1 2423   0.811   1.642   4.331
  629SOL    HW2 2424   0.756   1.520   4.400
  630SOL     OW 2425   1.430   0.218   4.839
  630SOL    HW1 2426   1.465   0.146   4.891
  630SOL    HW2 2427   1.379   0.270   4.902
  631SOL     OW 2428   0.994   4.500   4.880
  631SOL    HW1 2429   0.957   4.412   4.873
  631SOL    HW2 2430   1.089   4.486   4.886
  632SOL     OW 2431   0.774   1.334   4.044
  632SOL    HW1 2432   0.746   1.242   4.052
  632SOL    HW2 2433   0.856   1.338   4.094
  633SOL     OW 2434   0.621   1.555   5.012
  633SOL    HW1 2435   0.622   1.637   5.061
  633SOL    HW2 2436   0.708   1.550   4.973
  634SOL     OW 2437   1.338   0.051   3.887
  634SOL    HW1 2438   1.376   4.476   3.841
  634SOL    HW2 2439   1.261   0.016   3.931
  635SOL     OW 2440   1.315   0.467   4.394
  635SOL    HW1 2441   1.260   0.545   4.396
  635SOL    HW2 2442   1.305   0.428   4.480
  636SOL     OW 2443   1.586   0.198   4.595
  636SOL    HW1 2444   1.528   0.214   4.669
  636SOL    HW2 2445   1.587   0.281   4.547
  637SOL     OW 2446   0.039   1.049   4.017
  637SOL    HW1 2447   0.130   1.025   4.004
  637SOL    HW2 2448   0.021   1.026   4.108
  638SOL     OW 2449   0.889   1.659   4.062
  638SOL    HW1 2450   0.815   1.643   4.004
  638SOL    HW2 2451   0.861   1.731   4.118
  639SOL     OW 2452   0.243   0.630   5.712
  639SOL    HW1 2453   0.169   0.601   5.766
  639SOL    HW2 2454   0.213   0.618   5.622
  640SOL     OW 2455   0.191   0.297   6.574
  640SOL    HW1 2456   0.220   0.264   6.659
  640SOL    HW2 2457   0.131   0.230   6.541
  641SOL     OW 2458   4.499   0.394   6.221
  641SOL    HW1 2459   4.423   0.430   6.268
  641SOL    HW2 2460   4.463   0.321   6.171
  642SOL     OW 2461   0.569   1.296   6.768
  642SOL    HW1 2462   0.483   1.301   6.728
  642SOL    HW2 2463   0.585   1.384   6.803
  643SOL     OW 2464   1.568   1.509   6.290
  643SOL    HW1 2465   1.522   1.493   6.373
  643SOL    HW2 2466   1.497   1.524   6.227
  644SOL     OW 2467   1.141   0.696   6.279
  644SOL    HW1 2468   1.184   0.781   6.271
  644SOL    HW2 2469   1.088   0.703   6.358
  645SOL     OW 2470   1.776   0.602   5.811
  645SOL    HW1 2471   1.750   0.595   5.719
  645SOL    HW2 2472   1.739   0.524   5.852
  646SOL     OW 2473   0.746   1.138   6.631
  646SOL    HW1 2474   0.680   1.175   6.690
  646SOL    HW2 2475   0.786   1.213   6.588
  647SOL     OW 2476   0.871   0.764   7.408
  647SOL    HW1 2477   0.857   0.833   7.472
  647SOL    HW2 2478   0.895   0.810   7.327
  648SOL     OW 2479   0.684   0.998   6.231
  648SOL    HW1 2480   0.751   0.989   6.299
  648SOL    HW2 2481   0.616   1.052   6.272
  649SOL     OW 2482   0.714   1.148   7.405
  649SOL    HW1 2483   0.761   1.226   7.435
  649SOL    HW2 2484   0.634   1.183   7.365
  650SOL     OW 2485   0.333   1.417   6.654
  650SOL    HW1 2486   0.252   1.396   6.607
  650SOL    HW2 2487   0.382   1.472   6.592
  651SOL     OW 2488   1.459   1.502   6.947
  651SOL    HW1 2489   1.514   1.580   6.955
  651SOL    HW2 2490   1.392   1.512   7.014
  652SOL     OW 2491   0.444   0.391   7.066
  652SOL    HW1 2492   0.533   0.356   7.065
  652SOL    HW2 2493   0.392   0.322   7.107
  653SOL     OW 2494   1.606   0.441   6.325
  653SOL    HW1 2495   1.526   0.459   6.275
  653SOL    HW2 2496   1.617   0.518   6.381
  654SOL     OW 2497   0.246   1.691   6.060
  654SOL    HW1 2498   0.228   1.776   6.099
  654SOL    HW2 2499   0.319   1.707   6.000
  655SOL     OW 2500   1.137   1.342   7.280
  655SOL    HW1 2501   1.178   1.336   7.367
  655SOL    HW2 2502   1.085   1.262   7.273
  656SOL     OW 2503   0.259   1.425   6.111
  656SOL    HW1 2504   0.244   1.520   6.114
  656SOL    HW2 2505   0.199   1.390   6.177
  657SOL     OW 2506   0.254   1.084   6.472
  657SOL    HW1 2507   0.269   0.992   6.494
  657SOL    HW2 2508   0.192   1.115   6.537
  658SOL     OW 2509   0.606   1.792   7.014
  658SOL    HW1 2510   0.524   1.774   7.059
  658SOL    HW2 2511   0.629   1.882   7.040
  659SOL     OW 2512   0.570   0.993   5.731
  659SOL    HW1 2513   0.622   1.031   5.659
  659SOL    HW2 2514   0.615   1.022   5.810
  660SOL     OW 2515   1.575   0.120   7.049
  660SOL    HW1 2516   1.614   0.187   6.993
  660SOL    HW2 2517   1.566   0.162   7.135
  661SOL     OW 2518   0.136   0.647   6.159
  661SOL    HW1 2519   0.087   0.568   6.182
  661SOL    HW2 2520   0.109   0.712   6.223
  662SOL     OW 2521   0.032   1.605   5.738
  662SOL    HW1 2522   0.017   1.511   5.729
  662SOL    HW2 2523   0.045   1.619   5.832
  663SOL     OW 2524   1.689   0.920   6.229
  663SOL    HW1 2525   1.771   0.876   6.206
  663SOL    HW2 2526   1.667   0.972   6.152
  664SOL     OW 2527   1.651   1.107   6.016
  664SOL    HW1 2528   1.737   1.107   5.975
  664SOL    HW2 2529   1.658   1.170   6.087
  665SOL     OW 2530   0.098   0.769   7.152
  665SOL    HW1 2531   0.184   0.754   7.113
  665SOL    HW2 2532   0.102   0.859   7.185
  666SOL     OW 2533   0.617   1.390   6.322
  666SOL    HW1 2534   0.570   1.307   6.332
  666SOL    HW2 2535   0.600   1.417   6.232
  667SOL     OW 2536   1.286   1.236   7.007
  667SOL    HW1 2537   1.317   1.168   6.947
  667SOL    HW2 2538   1.345   1.231   7.082
  668SOL     OW 2539   0.829   0.020   6.146
  668SOL    HW1 2540   0.865   0.104   6.117
  668SOL    HW2 2541   0.734   0.028   6.131
  669SOL     OW 2542   0.177   0.941   6.864
  669SOL    HW1 2543   0.268   0.918   6.845
  669SOL    HW2 2544   0.132   0.933   6.779
  670SOL     OW 2545   1.532   0.999   5.787
  670SOL    HW1 2546   1.462   0.942   5.819
  670SOL    HW2 2547   1.574   1.032   5.866
  671SOL     OW 2548   1.184   1.812   7.211
  671SOL    HW1 2549   1.191   1.872   7.137
  671SOL    HW2 2550   1.202   1.726   7.174
  672SOL     OW 2551   0.317   0.261   7.350
  672SOL    HW1 2552   0.384   0.310   7.397
  672SOL    HW2 2553   0.239   0.269   7.404
  673SOL     OW 2554   1.463   1.421   6.534
  673SOL    HW1 2555   1.398   1.434   6.602
  673SOL    HW2 2556   1.453   1.330   6.508
  674SOL     OW 2557   0.594   0.722   5.855
  674SOL    HW1 2558   0.592   0.806   5.809
  674SOL    HW2 2559   0.528   0.731   5.923
  675SOL     OW 2560   1.294   0.374   6.517
  675SOL    HW1 2561   1.205   0.344   6.498
  675SOL    HW2 2562   1.329   0.310   6.578
  676SOL     OW 2563   0.799   0.618   7.039
  676SOL    HW1 2564   0.769   0.590   7.126
  676SOL    HW2 2565   0.761   0.553   6.979
  677SOL     OW 2566   1.388   0.482   7.262
  677SOL    HW1 2567   1.392   0.527   7.347
  677SOL    HW2 2568   1.455   0.414   7.267
  678SOL     OW 2569   0.951   0.886   7.172
  678SOL    HW1 2570   1.006   0.817   7.134
  678SOL    HW2 2571   0.903   0.923   7.097
  679SOL     OW 2572   0.999   0.418   6.818
  679SOL    HW1 2573   0.909   0.422   6.850
  679SOL    HW2 2574   0.994   0.363   6.739
  680SOL     OW 2575   1.052   0.699   6.011
  680SOL    HW1 2576   1.071   0.690   6.104
  680SOL    HW2 2577   0.968   0.654   5.999
  681SOL     OW 2578   0.091   0.828   6.372
  681SOL    HW1 2579   0.177   0.821   6.413
  681SOL    HW2 2580   0.029   0.831   6.446
  682SOL     OW 2581   0.118   1.868   7.168
  682SOL    HW1 2582   0.114   1.842   7.260
  682SOL    HW2 2583   0.046   1.820   7.126
  683SOL     OW 2584   0.856   0.372   5.775
  683SOL    HW1 2585   0.922   0.404   5.714
  683SOL    HW2 2586   0.868   0.277   5.775
  684SOL     OW 2587   1.700   0.570   7.416
  684SOL    HW1 2588   1.667   0.645   7.366
  684SOL    HW2 2589   1.736   0.511   7.349
  685SOL     OW 2590   1.382   1.142   6.125
  685SOL    HW1 2591   1.461   1.133   6.073
  685SOL    HW2 2592   1.328   1.204   6.075
  686SOL     OW 2593   0.537   0.210   6.485
  686SOL    HW1 2594   0.558   0.227   6.577
  686SOL    HW2 2595   0.535   0.297   6.445
  687SOL     OW 2596   1.001   1.445   6.056
  687SOL    HW1 2597   0.969   1.520   6.005
  687SOL    HW2 2598   0.975   1.464   6.146
  688SOL     OW 2599   0.359   1.816   6.448
  688SOL    HW1 2600   0.399   1.730   6.458
  688SOL    HW2 2601   0.428   1.878   6.467
  689SOL     OW 2602   1.799   1.050   6.457
  689SOL    HW1 2603   1.747   1.033   6.378
  689SOL    HW2 2604   1.735   1.057   6.527
  690SOL     OW 2605   1.227   1.540   7.099
  690SOL    HW1 2606   1.215   1.468   7.161
  690SOL    HW2 2607   1.160   1.526   7.032
  691SOL     OW 2608   0.311   0.951   5.847
  691SOL    HW1 2609   0.393   0.976   5.805
  691SOL    HW2 2610   0.299   0.858   5.825
  692SOL     OW 2611   1.482   0.748   6.307
  692SOL    HW1 2612   1.476   0.707   6.393
  692SOL    HW2 2613   1.560   0.804   6.312
  693SOL     OW 2614   0.471   1.266   7.321
  693SOL    HW1 2615   0.445   1.272   7.229
  693SOL    HW2 2616   0.389   1.266   7.370
  694SOL     OW 2617   1.130   1.769   5.832
  694SOL    HW1 2618   1.047   1.733   5.865
  694SOL    HW2 2619   1.152   1.713   5.758
  695SOL     OW 2620   0.156   0.266   7.101
  695SOL    HW1 2621   0.132   0.352   7.066
  695SOL    HW2 2622   0.195   0.285   7.186
  696SOL     OW 2623   1.627   1.386   5.681
  696SOL    HW1 2624   1.583   1.471   5.668
  696SOL    HW2 2625   1.560   1.321   5.659
  697SOL     OW 2626   0.468   1.742   5.899
  697SOL    HW1 2627   0.513   1.796   5.964
  697SOL    HW2 2628   0.539   1.704   5.846
  698SOL     OW 2629   1.429   0.148   6.007
  698SOL    HW1 2630   1.412   0.090   5.933
  698SOL    HW2 2631   1.522   0.135   6.027
  699SOL     OW 2632   0.251   1.785   6.812
  699SOL    HW1 2633   0.298   1.708   6.845
  699SOL    HW2 2634   0.214   1.757   6.728
  700SOL     OW 2635   0.938   1.701   6.482
  700SOL    HW1 2636   1.015   1.650   6.508
  700SOL    HW2 2637   0.898   1.649   6.412
  701SOL     OW 2638   0.397   0.688   6.056
  701SOL    HW1 2639   0.421   0.597   6.073
  701SOL    HW2 2640   0.305   0.694   6.082
  702SOL     OW 2641   1.523   0.233   7.309
  702SOL    HW1 2642   1.524   0.254   7.402
  702SOL    HW2 2643   1.443   0.183   7.296
  703SOL     OW 2644   0.631   0.120   5.704
  703SOL    HW1 2645   0.719   0.084   5.717
  703SOL    HW2 2646   0.599   0.078   5.624
  704SOL     OW 2647   0.769   0.272   7.342
  704SOL    HW1 2648   0.838   0.207   7.338
  704SOL    HW2 2649   0.733   0.264   7.430
  705SOL     OW 2650   0.877   1.524   6.780
  705SOL    HW1 2651   0.858   1.485   6.694
  705SOL    HW2 2652   0.946   1.469   6.817
  706SOL     OW 2653   1.339   0.590   7.014
  706SOL    HW1 2654   1.367   0.563   7.101
  706SOL    HW2 2655   1.374   0.679   7.004
  707SOL     OW 2656   0.818   1.391   6.532
  707SOL    HW1 2657   0.903   1.378   6.488
  707SOL    HW2 2658   0.755   1.396   6.461
  708SOL     OW 2659   0.926   0.526   6.482
  708SOL    HW1 2660   0.909   0.523   6.388
  708SOL    HW2 2661   0.956   0.437   6.503
  709SOL     OW 2662   0.569   0.074   6.093
  709SOL    HW1 2663   0.484   0.058   6.135
  709SOL    HW2 2664   0.551   0.139   6.025
  710SOL     OW 2665   1.429   1.202   5.626
  710SOL    HW1 2666   1.458   1.126   5.677
  710SOL    HW2 2667   1.343   1.222   5.662
  711SOL     OW 2668   0.306   0.068   5.779
  711SOL    HW1 2669   0.388   0.116   5.782
  711SOL    HW2 2670   0.317   4.497   5.842
  712SOL     OW 2671   0.961   0.240   6.048
  712SOL    HW1 2672   0.907   0.307   6.005
  712SOL    HW2 2673   1.050   0.273   6.041
  713SOL     OW 2674   1.081   0.685   7.043
  713SOL    HW1 2675   1.012   0.619   7.042
  713SOL    HW2 2676   1.162   0.636   7.032
  714SOL     OW 2677   1.222   1.569   6.383
  714SOL    HW1 2678   1.240   1.635   6.316
  714SOL    HW2 2679   1.292   1.580   6.447
  715SOL     OW 2680   0.469   1.154   6.317
  715SOL    HW1 2681   0.402   1.134   6.382
  715SOL    HW2 2682   0.426   1.139   6.233
  716SOL     OW 2683   1.259   1.799   6.186
  716SOL    HW1 2684   1.248   1.844   6.103
  716SOL    HW2 2685   1.197   1.841   6.245
  717SOL     OW 2686   1.026   0.540   5.608
  717SOL    HW1 2687   0.979   0.622   5.592
  717SOL    HW2 2688   1.084   0.560   5.681
  718SOL     OW 2689   0.088   0.505   6.996
  718SOL    HW1 2690   0.146   0.513   6.920
  718SOL    HW2 2691   0.052   0.593   7.007
  719SOL     OW 2692   0.555   0.250   6.755
  719SOL    HW1 2693   0.585   0.169   6.797
  719SOL    HW2 2694   0.461   0.251   6.768
  720SOL     OW 2695   0.864   0.505   6.215
  720SOL    HW1 2696   0.828   0.540   6.134
  720SOL    HW2 2697   0.814   0.425   6.231
  721SOL     OW 2698   0.947   0.010   6.392
  721SOL    HW1 2699   0.907   0.016   6.305
  721SOL    HW2 2700   0.966   4.417   6.404
  722SOL     OW 2701   1.440   1.161   6.444
  722SOL    HW1 2702   1.369   1.096   6.443
  722SOL    HW2 2703   1.464   1.171   6.352
  723SOL     OW 2704   1.464   0.609   6.552
  723SOL    HW1 2705   1.407   0.532   6.552
  723SOL    HW2 2706   1.519   0.599   6.629
  724SOL     OW 2707   1.841   0.813   5.971
  724SOL    HW1 2708   1.899   0.764   6.029
  724SOL    HW2 2709   1.816   0.751   5.903
  725SOL     OW 2710   0.492   1.422   5.740
  725SOL    HW1 2711   0.414   1.395   5.788
  725SOL    HW2 2712   0.482   1.384   5.653
  726SOL     OW 2713   1.684   1.270   6.224
  726SOL    HW1 2714   1.778   1.274   6.237
  726SOL    HW2 2715   1.652   1.358   6.246
  727SOL     OW 2716   1.395   0.574   5.655
  727SOL    HW1 2717   1.332   0.557   5.725
  727SOL    HW2 2718   1.480   0.558   5.695
  728SOL     OW 2719   0.516   0.263   5.901
  728SOL    HW1 2720   0.570   0.216   5.838
  728SOL    HW2 2721   0.500   0.348   5.860
  729SOL     OW 2722   1.750   1.242   7.151
  729SOL    HW1 2723   1.837   1.204   7.142
  729SOL    HW2 2724   1.765   1.332   7.180
  730SOL     OW 2725   1.055   1.354   6.918
  730SOL    HW1 2726   0.979   1.322   6.968
  730SOL    HW2 2727   1.130   1.312   6.960
  731SOL     OW 2728   1.610   1.627   7.243
  731SOL    HW1 2729   1.602   1.662   7.154
  731SOL    HW2 2730   1.692   1.578   7.242
  732SOL     OW 2731   1.134   1.209   6.689
  732SOL    HW1 2732   1.073   1.246   6.753
  732SOL    HW2 2733   1.104   1.243   6.605
  733SOL     OW 2734   1.623   1.096   6.662
  733SOL    HW1 2735   1.617   1.158   6.734
  733SOL    HW2 2736   1.548   1.115   6.607
  734SOL     OW 2737   0.896   0.138   6.968
  734SOL    HW1 2738   0.920   0.090   6.889
  734SOL    HW2 2739   0.980   0.159   7.009
  735SOL     OW 2740   0.984   1.115   7.310
  735SOL    HW1 2741   0.893   1.131   7.334
  735SOL    HW2 2742   0.981   1.037   7.255
  736SOL     OW 2743   0.710   1.063   5.959
  736SOL    HW1 2744   0.696   1.043   6.051
  736SOL    HW2 2745   0.785   1.009   5.933
  737SOL     OW 2746   0.431   0.831   6.833
  737SOL    HW1 2747   0.499   0.842   6.900
  737SOL    HW2 2748   0.377   0.759   6.866
  738SOL     OW 2749   1.268   0.374   6.862
  738SOL    HW1 2750   1.301   0.452   6.906
  738SOL    HW2 2751   1.179   0.395   6.837
  739SOL     OW 2752   0.065   1.573   6.935
  739SOL    HW1 2753   0.041   1.664   6.916
  739SOL    HW2 2754   0.161   1.574   6.938
  740SOL     OW 2755   0.335   1.113   6.080
  740SOL    HW1 2756   0.347   1.188   6.021
  740SOL    HW2 2757   0.334   1.037   6.021
  741SOL     OW 2758   0.561   0.516   6.436
  741SOL    HW1 2759   0.571   0.578   6.364
  741SOL    HW2 2760   0.623   0.547   6.502
  742SOL     OW 2761   1.248   1.351   5.976
  742SOL    HW1 2762   1.303   1.421   6.010
  742SOL    HW2 2763   1.160   1.371   6.010
  743SOL     OW 2764   1.287   1.459   6.736
  743SOL    HW1 2765   1.343   1.464   6.813
  743SOL    HW2 2766   1.232   1.382   6.750
  744SOL     OW 2767   1.577   0.622   6.066
  744SOL    HW1 2768   1.529   0.666   6.136
  744SOL    HW2 2769   1.622   0.693   6.020
  745SOL     OW 2770   0.345   1.534   6.896
  745SOL    HW1 2771   0.333   1.485   6.815
  745SOL    HW2 2772   0.440   1.544   6.904
  746SOL     OW 2773   0.498   0.754   7.265
  746SOL    HW1 2774   0.528   0.795   7.183
  746SOL    HW2 2775   0.561   0.684   7.280
  747SOL     OW 2776   1.607   0.780   7.271
  747SOL    HW1 2777   1.522   0.823   7.265
  747SOL    HW2 2778   1.660   0.822   7.203
  748SOL     OW 2779   0.994   0.091   7.297
  748SOL    HW1 2780   1.042   0.166   7.262
  748SOL    HW2 2781   1.017   0.018   7.239
  749SOL     OW 2782   0.495   0.041   7.341
  749SOL    HW1 2783   0.483   4.495   7.257
  749SOL    HW2 2784   0.431   0.111   7.339
  750SOL     OW 2785   0.591   0.877   6.612
  750SOL    HW1 2786   0.625   0.966   6.615
  750SOL    HW2 2787   0.535   0.869   6.689
  751SOL     OW 2788   1.349   0.858   6.608
  751SOL    HW1 2789   1.262   0.843   6.570
  751SOL    HW2 2790   1.394   0.774   6.598
  752SOL     OW 2791   1.197   0.537   5.842
  752SOL    HW1 2792   1.205   0.458   5.895
  752SOL    HW2 2793   1.155   0.600   5.900
  753SOL     OW 2794   0.282   0.210   6.820
  753SOL    HW1 2795   0.239   0.229   6.903
  753SOL    HW2 2796   0.330   0.129   6.835
  754SOL     OW 2797   0.018   1.312   6.875
  754SOL    HW1 2798   0.063   1.263   6.943
  754SOL    HW2 2799   0.031   1.404   6.898
  755SOL     OW 2800   0.720   0.628   6.637
  755SOL    HW1 2801   0.797   0.612   6.583
  755SOL    HW2 2802   0.693   0.718   6.615
  756SOL     OW 2803   1.739   0.959   7.444
  756SOL    HW1 2804   1.694   0.893   7.390
  756SOL    HW2 2805   1.678   0.976   7.515
  757SOL     OW 2806   0.326   0.071   6.212
  757SOL    HW1 2807   0.302   0.160   6.239
  757SOL    HW2 2808   0.312   0.018   6.291
  758SOL     OW 2809   1.623   0.386   5.940
  758SOL    HW1 2810   1.646   0.319   6.004
  758SOL    HW2 2811   1.597   0.462   5.992
  759SOL     OW 2812   1.034   0.765   6.545
  759SOL    HW1 2813   1.024   0.780   6.639
  759SOL    HW2 2814   1.002   0.676   6.532
  760SOL     OW 2815   0.982   1.567   7.307
  760SOL    HW1 2816   0.966   1.610   7.223
  760SOL    HW2 2817   1.025   1.484   7.284
  761SOL     OW 2818   1.853   1.501   7.191
  761SOL    HW1 2819   1.872   1.528   7.101
  761SOL    HW2 2820   1.934   1.517   7.239
  762SOL     OW 2821   0.347   0.936   7.403
  762SOL    HW1 2822   0.417   0.969   7.460
  762SOL    HW2 2823   0.390   0.867   7.352
  763SOL     OW 2824   1.527   0.261   5.713
  763SOL    HW1 2825   1.459   0.203   5.748
  763SOL    HW2 2826   1.559   0.308   5.790
  764SOL     OW 2827   1.287   0.826   5.613
  764SOL    HW1 2828   1.328   0.739   5.617
  764SOL    HW2 2829   1.319   0.864   5.532
  765SOL     OW 2830   1.068   1.337   6.442
  765SOL    HW1 2831   1.073   1.265   6.379
  765SOL    HW2 2832   1.127   1.404   6.407
  766SOL     OW 2833   0.320   0.813   6.527
  766SOL    HW1 2834   0.414   0.831   6.528
  766SOL    HW2 2835   0.312   0.721   6.551
  767SOL     OW 2836   0.329   0.533   6.568
  767SOL    HW1 2837   0.284   0.450   6.553
  767SOL    HW2 2838   0.408   0.528   6.514
  768SOL     OW 2839   1.139   0.369   7.290
  768SOL    HW1 2840   1.085   0.431   7.339
  768SOL    HW2 2841   1.221   0.415   7.275
  769SOL     OW 2842   1.149   0.216   7.060
  769SOL    HW1 2843   1.148   0.280   7.132
  769SOL    HW2 2844   1.196   0.261   6.990
  770SOL     OW 2845   4.491   1.319   5.797
  770SOL    HW1 2846   4.399   1.336   5.778
  770SOL    HW2 2847   4.494   1.226   5.817
  771SOL     OW 2848   0.103   1.766   6.526
  771SOL    HW1 2849   0.063   1.724   6.450
  771SOL    HW2 2850   0.190   1.791   6.496
  772SOL     OW 2851   0.493   1.574   6.493
  772SOL    HW1 2852   0.561   1.637   6.516
  772SOL    HW2 2853   0.536   1.512   6.434
  773SOL     OW 2854   0.976   0.791   6.810
  773SOL    HW1 2855   1.035   0.771   6.883
  773SOL    HW2 2856   0.894   0.748   6.833
  774SOL     OW 2857   0.028   0.564   6.689
  774SOL    HW1 2858   0.110   0.531   6.653
  774SOL    HW2 2859   4.496   0.493   6.745
  775SOL     OW 2860   0.179   0.537   7.304
  775SOL    HW1 2861   0.268   0.520   7.272
  775SOL    HW2 2862   0.150   0.613   7.253
  776SOL     OW 2863   1.381   0.934   7.243
  776SOL    HW1 2864   1.402   1.027   7.239
  776SOL    HW2 2865   1.376   0.907   7.151
  777SOL     OW 2866   0.812   0.577   5.948
  777SOL    HW1 2867   0.817   0.506   5.884
  777SOL    HW2 2868   0.739   0.632   5.918
  778SOL     OW 2869   1.637   0.601   6.766
  778SOL    HW1 2870   1.627   0.543   6.842
  778SOL    HW2 2871   1.725   0.584   6.734
  779SOL     OW 2872   0.273   1.562   7.325
  779SOL    HW1 2873   0.211   1.612   7.379
  779SOL    HW2 2874   0.257   1.471   7.348
  780SOL     OW 2875   0.701   0.461   6.847
  780SOL    HW1 2876   0.653   0.384   6.818
  780SOL    HW2 2877   0.700   0.520   6.773
  781SOL     OW 2878   0.923   1.679   7.057
  781SOL    HW1 2879   0.899   1.640   6.973
  781SOL    HW2 2880   0.917   1.773   7.042
  782SOL     OW 2881   0.471   0.491   5.763
  782SOL    HW1 2882   0.532   0.560   5.788
  782SOL    HW2 2883   0.388   0.537   5.748
  783SOL     OW 2884   0.159   1.142   7.043
  783SOL    HW1 2885   0.143   1.099   7.126
  783SOL    HW2 2886   0.167   1.071   6.979
  784SOL     OW 2887   1.321   1.043   6.805
  784SOL    HW1 2888   1.342   0.980   6.737
  784SOL    HW2 2889   1.254   1.100   6.766
  785SOL     OW 2890   1.317   0.857   5.889
  785SOL    HW1 2891   1.243   0.828   5.943
  785SOL    HW2 2892   1.287   0.844   5.799
  786SOL     OW 2893   1.763   1.741   6.732
  786SOL    HW1 2894   1.834   1.766   6.673
  786SOL    HW2 2895   1.746   1.649   6.711
  787SOL     OW 2896   1.237   1.730   6.692
  787SOL    HW1 2897   1.319   1.754   6.650
  787SOL    HW2 2898   1.246   1.637   6.714
  788SOL     OW 2899   0.071   1.187   6.637
  788SOL    HW1 2900   0.055   1.215   6.727
  788SOL    HW2 2901   0.040   1.260   6.583
  789SOL     OW 2902   0.680   1.670   7.324
  789SOL    HW1 2903   0.620   1.744   7.313
  789SOL    HW2 2904   0.748   1.685   7.258
  790SOL     OW 2905   1.721   0.128   6.070
  790SOL    HW1 2906   1.787   0.143   6.003
  790SOL    HW2 2907   1.756   0.058   6.124
  791SOL     OW 2908   1.392   1.574   6.071
  791SOL    HW1 2909   1.440   1.608   5.995
  791SOL    HW2 2910   1.343   1.650   6.104
  792SOL     OW 2911   0.115   1.808   7.437
  792SOL    HW1 2912   0.075   1.737   7.487
  792SOL    HW2 2913   0.180   1.845   7.496
  793SOL     OW 2914   1.279   0.930   6.259
  793SOL    HW1 2915   1.352   0.869   6.267
  793SOL    HW2 2916   1.314   1.001   6.205
  794SOL     OW 2917   0.806   1.277   7.011
  794SOL    HW1 2918   0.779   1.317   7.093
  794SOL    HW2 2919   0.735   1.296   6.950
  795SOL     OW 2920   0.672   1.625   5.741
  795SOL    HW1 2921   0.683   1.639   5.647
  795SOL    HW2 2922   0.616   1.547   5.748
  796SOL     OW 2923   1.619   1.728   6.976
  796SOL    HW1 2924   1.669   1.734   6.894
  796SOL    HW2 2925   1.606   1.820   7.002
  797SOL     OW 2926   1.840   0.150   6.550
  797SOL    HW1 2927   1.869   0.071   6.505
  797SOL    HW2 2928   1.753   0.168   6.514
  798SOL     OW 2929   0.256   0.322   6.301
  798SOL    HW1 2930   0.172   0.356   6.271
  798SOL    HW2 2931   0.245   0.311   6.396
  799SOL     OW 2932   1.205   1.603   5.622
  799SOL    HW1 2933   1.194   1.511   5.647
  799SOL    HW2 2934   1.139   1.617   5.554
  800SOL     OW 2935   0.826   1.008   6.961
  800SOL    HW1 2936   0.869   1.001   6.876
  800SOL    HW2 2937   0.822   1.102   6.979
  801SOL     OW 2938   0.916   0.911   5.876
  801SOL    HW1 2939   0.977   0.944   5.810
  801SOL    HW2 2940   0.965   0.843   5.923
  802SOL     OW 2941   1.483   1.641   5.623
  802SOL    HW1 2942   1.388   1.628   5.618
  802SOL    HW2 2943   1.513   1.628   5.533
  803SOL     OW 2944   0.372   1.310   7.077
  803SOL    HW1 2945   0.355   1.389   7.025
  803SOL    HW2 2946   0.298   1.253   7.058
  804SOL     OW 2947   1.606   1.282   6.868
  804SOL    HW1 2948   1.668   1.268   6.939
  804SOL    HW2 2949   1.546   1.349   6.900
  805SOL     OW 2950   1.060   1.110   6.294
  805SOL    HW1 2951   0.988   1.060   6.332
  805SOL    HW2 2952   1.124   1.044   6.270
  806SOL     OW 2953   0.999   0.247   6.600
  806SOL    HW1 2954   1.007   0.232   6.506
  806SOL    HW2 2955   0.990   0.159   6.638
  807SOL     OW 2956   0.607   1.489   6.067
  807SOL    HW1 2957   0.653   1.440   5.999
  807SOL    HW2 2958   0.527   1.519   6.024
  808SOL     OW 2959   1.725   0.394   6.961
  808SOL    HW1 2960   1.799   0.455   6.961
  808SOL    HW2 2961   1.753   0.323   6.904
  809SOL     OW 2962   0.253   1.343   5.859
  809SOL    HW1 2963   0.158   1.338   5.847
  809SOL    HW2 2964   0.264   1.376   5.949
  810SOL     OW 2965   0.116   1.004   7.279
  810SOL    HW1 2966   0.053   1.053   7.333
  810SOL    HW2 2967   0.195   0.999   7.332
  811SOL     OW 2968   0.659   0.213   7.087
  811SOL    HW1 2969   0.738   0.186   7.039
  811SOL    HW2 2970   0.689   0.230   7.176
  812SOL     OW 2971   0.075   0.321   5.609
  812SOL    HW1 2972   4.482   0.325   5.631
  812SOL    HW2 2973   0.097   0.409   5.580
  813SOL     OW 2974   1.426   0.857   6.983
  813SOL    HW1 2975   1.376   0.919   6.928
  813SOL    HW2 2976   1.515   0.860   6.947
  814SOL     OW 2977   0.087   0.188   5.888
  814SOL    HW1 2978   0.074   0.264   5.831
  814SOL    HW2 2979   0.167   0.147   5.856
  815SOL     OW 2980   1.177   1.335   5.703
  815SOL    HW1 2981   1.086   1.305   5.703
  815SOL    HW2 2982   1.203   1.335   5.795
  816SOL     OW 2983   0.627   0.829   7.023
  816SOL    HW1 2984   0.682   0.906   7.007
  816SOL    HW2 2985   0.689   0.756   7.026
  817SOL     OW 2986   1.479   1.779   6.565
  817SOL    HW1 2987   1.495   1.858   6.514
  817SOL    HW2 2988   1.561   1.762   6.611
  818SOL     OW 2989   0.710   0.564   7.292
  818SOL    HW1 2990   0.761   0.623   7.348
  818SOL    HW2 2991   0.734   0.476   7.321
  819SOL     OW 2992   1.474   1.195   7.215
  819SOL    HW1 2993   1.462   1.210   7.309
  819SOL    HW2 2994   1.566   1.214   7.200
  820SOL     OW 2995   0.374   1.747   7.151
  820SOL    HW1 2996   0.290   1.789   7.132
  820SOL    HW2 2997   0.351   1.668   7.201
  821SOL     OW 2998   1.665   0.880   6.841
  821SOL    HW1 2999   1.659   0.795   6.797
  821SOL    HW2 3000   1.655   0.944   6.770
  822SOL     OW 3001   1.222   0.335   6.030
  822SOL    HW1 3002   1.291   0.269   6.016
  822SOL    HW2 3003   1.250   0.383   6.108
  823SOL     OW 3004   0.583   0.733   6.261
  823SOL    HW1 3005   0.625   0.818   6.247
  823SOL    HW2 3006   0.519   0.726   6.190
  824SOL     OW 3007   1.756   0.372   7.230
  824SOL    HW1 3008   1.742   0.385   7.136
  824SOL    HW2 3009   1.680   0.322   7.259
  825SOL     OW 3010   1.749   0.933   7.097
  825SOL    HW1 3011   1.738   1.027   7.110
  825SOL    HW2 3012   1.731   0.920   7.004
  826SOL     OW 3013   0.867   1.365   5.629
  826SOL    HW1 3014   0.826   1.391   5.712
  826SOL    HW2 3015   0.878   1.447   5.581
  827SOL     OW 3016   0.663   1.786   6.525
  827SOL    HW1 3017   0.645   1.877   6.505
  827SOL    HW2 3018   0.758   1.779   6.519
  828SOL     OW 3019   0.870   0.971   6.439
  828SOL    HW1 3020   0.921   0.899   6.476
  828SOL    HW2 3021   0.831   1.015   6.515
  829SOL     OW 3022   1.078   0.990   5.676
  829SOL    HW1 3023   1.056   1.040   5.597
  829SOL    HW2 3024   1.151   0.934   5.648
  830SOL     OW 3025   1.873   1.555   6.470
  830SOL    HW1 3026   1.837   1.532   6.385
  830SOL    HW2 3027   1.830   1.495   6.531
  831SOL     OW 3028   0.234   1.303   7.447
  831SOL    HW1 3029   0.148   1.263   7.431
  831SOL    HW2 3030   0.238   1.314   7.542
  832SOL     OW 3031   0.123   1.227   6.254
  832SOL    HW1 3032   0.143   1.188   6.339
  832SOL    HW2 3033   0.179   1.180   6.192
  833SOL     OW 3034   0.686   1.407   7.218
  833SOL    HW1 3035   0.606   1.364   7.248
  833SOL    HW2 3036   0.681   1.495   7.255
  834SOL     OW 3037   1.802   0.176   6.823
  834SOL    HW1 3038   1.797   0.082   6.842
  834SOL    HW2 3039   1.821   0.180   6.729
  835SOL     OW 3040   0.445   0.427   6.121
  835SOL    HW1 3041   0.456   0.359   6.055
  835SOL    HW2 3042   0.382   0.391   6.183
  836SOL     OW 3043   1.694   1.481   6.680
  836SOL    HW1 3044   1.614   1.464   6.630
  836SOL    HW2 3045   1.696   1.414   6.747
  837SOL     OW 3046   0.307   0.509   6.836
  837SOL    HW1 3047   0.379   0.457   6.872
  837SOL    HW2 3048   0.329   0.519   6.743
  838SOL     OW 3049   0.832   1.577   6.261
  838SOL    HW1 3050   0.808   1.641   6.193
  838SOL    HW2 3051   0.757   1.518   6.265
  839SOL     OW 3052   1.430   0.218   6.701
  839SOL    HW1 3053   1.465   0.146   6.754
  839SOL    HW2 3054   1.379   0.270   6.764
  840SOL     OW 3055   0.994   4.500   6.742
  840SOL    HW1 3056   0.958   4.411   6.735
  840SOL    HW2 3057   1.089   4.486   6.748
  841SOL     OW 3058   0.775   1.333   5.905
  841SOL    HW1 3059   0.746   1.242   5.913
  841SOL    HW2 3060   0.856   1.337   5.956
  842SOL     OW 3061   0.621   1.555   6.873
  842SOL    HW1 3062   0.621   1.637   6.922
  842SOL    HW2 3063   0.709   1.549   6.836
  843SOL     OW 3064   1.338   0.051   5.749
  843SOL    HW1 3065   1.376   4.475   5.703
  843SOL    HW2 3066   1.261   0.016   5.793
  844SOL     OW 3067   1.315   0.467   6.256
  844SOL    HW1 3068   1.260   0.545   6.258
  844SOL    HW2 3069   1.305   0.427   6.342
  845SOL     OW 3070   1.586   0.198   6.457
  845SOL    HW1 3071   1.528   0.214   6.531
  845SOL    HW2 3072   1.587   0.281   6.409
  846SOL     OW 3073   0.039   1.049   5.879
  846SOL    HW1 3074   0.130   1.025   5.866
  846SOL    HW2 3075   0.020   1.026   5.970
  847SOL     OW 3076   0.888   1.660   5.924
  847SOL    HW1 3077   0.813   1.642   5.866
  847SOL    HW2 3078   0.859   1.731   5.980
  848SOL     OW 3079   0.243   0.630   7.574
  848SOL    HW1 3080   0.169   0.601   7.628
  848SOL    HW2 3081   0.213   0.618   7.484
  849SOL     OW 3082   0.191   0.297   8.436
  849SOL    HW1 3083   0.220   0.264   8.521
  849SOL    HW2 3084   0.131   0.230   8.403
  850SOL     OW 3085   4.499   0.394   8.083
  850SOL    HW1 3086   4.423   0.430   8.130
  850SOL    HW2 3087   4.463   0.321   8.034
  851SOL     OW 3088   0.569   1.296   8.630
  851SOL    HW1 3089   0.483   1.301   8.590
  851SOL    HW2 3090   0.585   1.384   8.665
  852SOL     OW 3091   1.569   1.514   8.157
  852SOL    HW1 3092   1.526   1.491   8.240
  852SOL    HW2 3093   1.497   1.517   8.093
  853SOL     OW 3094   1.141   0.696   8.141
  853SOL    HW1 3095   1.184   0.781   8.132
  853SOL    HW2 3096   1.089   0.703   8.221
  854SOL     OW 3097   1.777   0.601   7.672
  854SOL    HW1 3098   1.751   0.595   7.581
  854SOL    HW2 3099   1.739   0.524   7.714
  855SOL     OW 3100   0.746   1.137   8.493
  855SOL    HW1 3101   0.680   1.175   8.552
  855SOL    HW2 3102   0.786   1.213   8.450
  856SOL     OW 3103   0.871   0.764   9.270
  856SOL    HW1 3104   0.857   0.833   9.334
  856SOL    HW2 3105   0.895   0.810   9.189
  857SOL     OW 3106   0.684   0.998   8.093
  857SOL    HW1 3107   0.751   0.989   8.161
  857SOL    HW2 3108   0.616   1.052   8.134
  858SOL     OW 3109   0.714   1.148   9.267
  858SOL    HW1 3110   0.761   1.226   9.297
  858SOL    HW2 3111   0.634   1.183   9.227
  859SOL     OW 3112   0.333   1.418   8.515
  859SOL    HW1 3113   0.253   1.396   8.469
  859SOL    HW2 3114   0.383   1.472   8.454
  860SOL     OW 3115   1.459   1.502   8.808
  860SOL    HW1 3116   1.514   1.580   8.816
  860SOL    HW2 3117   1.392   1.512   8.875
  861SOL     OW 3118   0.444   0.391   8.928
  861SOL    HW1 3119   0.533   0.356   8.927
  861SOL    HW2 3120   0.392   0.322   8.969
  862SOL     OW 3121   1.606   0.441   8.187
  862SOL    HW1 3122   1.527   0.459   8.136
  862SOL    HW2 3123   1.617   0.518   8.243
  863SOL     OW 3124   0.246   1.691   7.921
  863SOL    HW1 3125   0.229   1.776   7.961
  863SOL    HW2 3126   0.319   1.706   7.862
  864SOL     OW 3127   1.137   1.342   9.142
  864SOL    HW1 3128   1.178   1.336   9.229
  864SOL    HW2 3129   1.085   1.262   9.135
  865SOL     OW 3130   0.257   1.425   7.972
  865SOL    HW1 3131   0.244   1.520   7.976
  865SOL    HW2 3132   0.198   1.390   8.039
  866SOL     OW 3133   0.253   1.084   8.333
  866SOL    HW1 3134   0.269   0.992   8.356
  866SOL    HW2 3135   0.192   1.115   8.399
  867SOL     OW 3136   0.606   1.792   8.876
  867SOL    HW1 3137   0.523   1.775   8.921
  867SOL    HW2 3138   0.629   1.882   8.902
  868SOL     OW 3139   0.570   0.993   7.593
  868SOL    HW1 3140   0.621   1.031   7.521
  868SOL    HW2 3141   0.615   1.022   7.672
  869SOL     OW 3142   1.575   0.120   8.911
  869SOL    HW1 3143   1.614   0.187   8.855
  869SOL    HW2 3144   1.566   0.162   8.997
  870SOL     OW 3145   0.136   0.647   8.020
  870SOL    HW1 3146   0.087   0.568   8.044
  870SOL    HW2 3147   0.109   0.712   8.085
  871SOL     OW 3148   1.844   1.755   7.778
  871SOL    HW1 3149   1.910   1.730   7.843
  871SOL    HW2 3150   1.863   1.846   7.759
  872SOL     OW 3151   0.032   1.605   7.600
  872SOL    HW1 3152   0.017   1.511   7.592
  872SOL    HW2 3153   0.047   1.619   7.694
  873SOL     OW 3154   1.691   0.920   8.092
  873SOL    HW1 3155   1.771   0.875   8.067
  873SOL    HW2 3156   1.666   0.972   8.015
  874SOL     OW 3157   1.649   1.104   7.877
  874SOL    HW1 3158   1.736   1.106   7.836
  874SOL    HW2 3159   1.655   1.168   7.948
  875SOL     OW 3160   0.098   0.769   9.014
  875SOL    HW1 3161   0.184   0.754   8.975
  875SOL    HW2 3162   0.102   0.859   9.047
  876SOL     OW 3163   0.616   1.390   8.185
  876SOL    HW1 3164   0.570   1.306   8.194
  876SOL    HW2 3165   0.599   1.417   8.094
  877SOL     OW 3166   1.286   1.236   8.869
  877SOL    HW1 3167   1.317   1.168   8.809
  877SOL    HW2 3168   1.345   1.231   8.944
  878SOL     OW 3169   0.828   0.020   8.008
  878SOL    HW1 3170   0.865   0.104   7.979
  878SOL    HW2 3171   0.734   0.028   7.993
  879SOL     OW 3172   0.176   0.941   8.726
  879SOL    HW1 3173   0.268   0.918   8.707
  879SOL    HW2 3174   0.132   0.933   8.641
  880SOL     OW 3175   1.532   0.998   7.648
  880SOL    HW1 3176   1.462   0.941   7.681
  880SOL    HW2 3177   1.574   1.032   7.727
  881SOL     OW 3178   1.184   1.812   9.073
  881SOL    HW1 3179   1.191   1.872   8.999
  881SOL    HW2 3180   1.202   1.726   9.036
  882SOL     OW 3181   0.317   0.261   9.211
  882SOL    HW1 3182   0.384   0.310   9.259
  882SOL    HW2 3183   0.239   0.269   9.266
  883SOL     OW 3184   1.467   1.418   8.396
  883SOL    HW1 3185   1.401   1.435   8.462
  883SOL    HW2 3186   1.453   1.327   8.370
  884SOL     OW 3187   1.657   1.748   8.024
  884SOL    HW1 3188   1.635   1.716   7.937
  884SOL    HW2 3189   1.634   1.676   8.083
  885SOL     OW 3190   0.594   0.722   7.717
  885SOL    HW1 3191   0.593   0.806   7.671
  885SOL    HW2 3192   0.528   0.731   7.785
  886SOL     OW 3193   1.294   0.374   8.379
  886SOL    HW1 3194   1.205   0.344   8.360
  886SOL    HW2 3195   1.329   0.310   8.440
  887SOL     OW 3196   1.578   1.673   7.758
  887SOL    HW1 3197   1.670   1.700   7.750
  887SOL    HW2 3198   1.550   1.656   7.668
  888SOL     OW 3199   0.799   0.618   8.901
  888SOL    HW1 3200   0.769   0.590   8.988
  888SOL    HW2 3201   0.761   0.553   8.841
  889SOL     OW 3202   1.388   0.482   9.124
  889SOL    HW1 3203   1.392   0.527   9.209
  889SOL    HW2 3204   1.455   0.414   9.129
  890SOL     OW 3205   0.951   0.886   9.034
  890SOL    HW1 3206   1.006   0.817   8.996
  890SOL    HW2 3207   0.904   0.923   8.959
  891SOL     OW 3208   0.999   0.418   8.680
  891SOL    HW1 3209   0.909   0.422   8.712
  891SOL    HW2 3210   0.994   0.363   8.601
  892SOL     OW 3211   1.052   0.698   7.873
  892SOL    HW1 3212   1.071   0.690   7.966
  892SOL    HW2 3213   0.968   0.654   7.861
  893SOL     OW 3214   0.091   0.827   8.234
  893SOL    HW1 3215   0.177   0.820   8.275
  893SOL    HW2 3216   0.030   0.831   8.307
  894SOL     OW 3217   0.118   1.868   9.030
  894SOL    HW1 3218   0.114   1.842   9.122
  894SOL    HW2 3219   0.046   1.820   8.988
  895SOL     OW 3220   0.855   0.372   7.636
  895SOL    HW1 3221   0.922   0.405   7.575
  895SOL    HW2 3222   0.869   0.277   7.637
  896SOL     OW 3223   1.700   0.570   9.278
  896SOL    HW1 3224   1.667   0.645   9.228
  896SOL    HW2 3225   1.736   0.511   9.211
  897SOL     OW 3226   1.381   1.143   7.987
  897SOL    HW1 3227   1.460   1.132   7.934
  897SOL    HW2 3228   1.327   1.205   7.938
  898SOL     OW 3229   0.537   0.210   8.347
  898SOL    HW1 3230   0.558   0.227   8.439
  898SOL    HW2 3231   0.535   0.297   8.307
  899SOL     OW 3232   1.000   1.443   7.917
  899SOL    HW1 3233   0.969   1.519   7.867
  899SOL    HW2 3234   0.977   1.463   8.007
  900SOL     OW 3235   0.359   1.816   8.310
  900SOL    HW1 3236   0.400   1.730   8.321
  900SOL    HW2 3237   0.428   1.879   8.329
  901SOL     OW 3238   1.801   1.053   8.318
  901SOL    HW1 3239   1.748   1.032   8.241
  901SOL    HW2 3240   1.738   1.060   8.389
  902SOL     OW 3241   1.227   1.540   8.961
  902SOL    HW1 3242   1.215   1.467   9.023
  902SOL    HW2 3243   1.160   1.526   8.894
  903SOL     OW 3244   0.311   0.951   7.709
  903SOL    HW1 3245   0.393   0.976   7.667
  903SOL    HW2 3246   0.300   0.859   7.687
  904SOL     OW 3247   1.483   0.748   8.168
  904SOL    HW1 3248   1.476   0.707   8.255
  904SOL    HW2 3249   1.560   0.804   8.174
  905SOL     OW 3250   0.471   1.266   9.183
  905SOL    HW1 3251   0.445   1.272   9.091
  905SOL    HW2 3252   0.389   1.266   9.232
  906SOL     OW 3253   1.124   1.778   7.677
  906SOL    HW1 3254   1.048   1.739   7.721
  906SOL    HW2 3255   1.148   1.715   7.609
  907SOL     OW 3256   0.156   0.266   8.963
  907SOL    HW1 3257   0.131   0.352   8.928
  907SOL    HW2 3258   0.195   0.285   9.048
  908SOL     OW 3259   1.629   1.381   7.539
  908SOL    HW1 3260   1.588   1.466   7.523
  908SOL    HW2 3261   1.561   1.317   7.518
  909SOL     OW 3262   0.469   1.741   7.762
  909SOL    HW1 3263   0.514   1.795   7.826
  909SOL    HW2 3264   0.539   1.704   7.708
  910SOL     OW 3265   1.429   0.148   7.869
  910SOL    HW1 3266   1.412   0.090   7.795
  910SOL    HW2 3267   1.522   0.135   7.889
  911SOL     OW 3268   0.251   1.785   8.675
  911SOL    HW1 3269   0.298   1.709   8.707
  911SOL    HW2 3270   0.215   1.757   8.590
  912SOL     OW 3271   0.938   1.700   8.345
  912SOL    HW1 3272   1.017   1.651   8.368
  912SOL    HW2 3273   0.898   1.649   8.274
  913SOL     OW 3274   0.397   0.688   7.918
  913SOL    HW1 3275   0.421   0.597   7.935
  913SOL    HW2 3276   0.305   0.694   7.944
  914SOL     OW 3277   1.523   0.233   9.171
  914SOL    HW1 3278   1.524   0.254   9.264
  914SOL    HW2 3279   1.443   0.183   9.158
  915SOL     OW 3280   0.630   0.119   7.567
  915SOL    HW1 3281   0.719   0.085   7.580
  915SOL    HW2 3282   0.599   0.078   7.487
  916SOL     OW 3283   0.769   0.272   9.204
  916SOL    HW1 3284   0.838   0.207   9.199
  916SOL    HW2 3285   0.734   0.264   9.292
  917SOL     OW 3286   0.876   1.523   8.642
  917SOL    HW1 3287   0.859   1.485   8.556
  917SOL    HW2 3288   0.946   1.469   8.679
  918SOL     OW 3289   1.339   0.590   8.876
  918SOL    HW1 3290   1.367   0.563   8.963
  918SOL    HW2 3291   1.374   0.679   8.866
  919SOL     OW 3292   0.818   1.390   8.394
  919SOL    HW1 3293   0.903   1.378   8.350
  919SOL    HW2 3294   0.755   1.396   8.322
  920SOL     OW 3295   0.926   0.525   8.344
  920SOL    HW1 3296   0.909   0.523   8.250
  920SOL    HW2 3297   0.956   0.437   8.365
  921SOL     OW 3298   0.569   0.073   7.955
  921SOL    HW1 3299   0.484   0.058   7.997
  921SOL    HW2 3300   0.551   0.138   7.887
  922SOL     OW 3301   1.428   1.200   7.488
  922SOL    HW1 3302   1.457   1.125   7.539
  922SOL    HW2 3303   1.343   1.223   7.524
  923SOL     OW 3304   0.306   0.068   7.641
  923SOL    HW1 3305   0.388   0.116   7.643
  923SOL    HW2 3306   0.317   4.497   7.705
  924SOL     OW 3307   0.961   0.240   7.910
  924SOL    HW1 3308   0.907   0.307   7.868
  924SOL    HW2 3309   1.050   0.273   7.903
  925SOL     OW 3310   1.081   0.685   8.905
  925SOL    HW1 3311   1.012   0.619   8.904
  925SOL    HW2 3312   1.162   0.636   8.894
  926SOL     OW 3313   1.221   1.572   8.242
  926SOL    HW1 3314   1.235   1.637   8.174
  926SOL    HW2 3315   1.289   1.589   8.307
  927SOL     OW 3316   0.469   1.153   8.179
  927SOL    HW1 3317   0.402   1.134   8.244
  927SOL    HW2 3318   0.426   1.138   8.095
  928SOL     OW 3319   1.265   1.792   8.059
  928SOL    HW1 3320   1.313   1.854   8.004
  928SOL    HW2 3321   1.197   1.845   8.101
  929SOL     OW 3322   1.026   0.540   7.470
  929SOL    HW1 3323   0.979   0.622   7.454
  929SOL    HW2 3324   1.085   0.560   7.543
  930SOL     OW 3325   0.088   0.505   8.857
  930SOL    HW1 3326   0.146   0.513   8.782
  930SOL    HW2 3327   0.052   0.593   8.869
  931SOL     OW 3328   0.555   0.250   8.617
  931SOL    HW1 3329   0.585   0.169   8.659
  931SOL    HW2 3330   0.461   0.251   8.630
  932SOL     OW 3331   0.864   0.505   8.077
  932SOL    HW1 3332   0.828   0.540   7.996
  932SOL    HW2 3333   0.814   0.425   8.093
  933SOL     OW 3334   0.946   0.010   8.254
  933SOL    HW1 3335   0.907   0.015   8.167
  933SOL    HW2 3336   0.966   4.417   8.266
  934SOL     OW 3337   1.439   1.160   8.305
  934SOL    HW1 3338   1.368   1.095   8.306
  934SOL    HW2 3339   1.462   1.169   8.212
  935SOL     OW 3340   1.464   0.609   8.414
  935SOL    HW1 3341   1.407   0.532   8.414
  935SOL    HW2 3342   1.519   0.599   8.491
  936SOL     OW 3343   1.841   0.812   7.833
  936SOL    HW1 3344   1.900   0.762   7.891
  936SOL    HW2 3345   1.816   0.749   7.765
  937SOL     OW 3346   0.492   1.422   7.602
  937SOL    HW1 3347   0.414   1.395   7.649
  937SOL    HW2 3348   0.483   1.383   7.515
  938SOL     OW 3349   1.676   1.265   8.089
  938SOL    HW1 3350   1.770   1.266   8.105
  938SOL    HW2 3351   1.647   1.354   8.112
  939SOL     OW 3352   1.395   0.574   7.517
  939SOL    HW1 3353   1.332   0.557   7.587
  939SOL    HW2 3354   1.480   0.559   7.557
  940SOL     OW 3355   0.516   0.263   7.763
  940SOL    HW1 3356   0.570   0.216   7.700
  940SOL    HW2 3357   0.500   0.348   7.722
  941SOL     OW 3358   1.750   1.242   9.013
  941SOL    HW1 3359   1.837   1.204   9.005
  941SOL    HW2 3360   1.766   1.332   9.041
  942SOL     OW 3361   1.055   1.354   8.780
  942SOL    HW1 3362   0.980   1.323   8.830
  942SOL    HW2 3363   1.130   1.311   8.822
  943SOL     OW 3364   1.610   1.626   9.105
  943SOL    HW1 3365   1.602   1.662   9.016
  943SOL    HW2 3366   1.693   1.578   9.104
  944SOL     OW 3367   1.134   1.209   8.551
  944SOL    HW1 3368   1.074   1.247   8.615
  944SOL    HW2 3369   1.104   1.243   8.466
  945SOL     OW 3370   1.624   1.096   8.523
  945SOL    HW1 3371   1.618   1.159   8.595
  945SOL    HW2 3372   1.548   1.114   8.469
  946SOL     OW 3373   0.896   0.138   8.830
  946SOL    HW1 3374   0.920   0.090   8.750
  946SOL    HW2 3375   0.980   0.159   8.871
  947SOL     OW 3376   0.984   1.115   9.172
  947SOL    HW1 3377   0.893   1.131   9.196
  947SOL    HW2 3378   0.981   1.037   9.117
  948SOL     OW 3379   0.710   1.063   7.821
  948SOL    HW1 3380   0.696   1.043   7.913
  948SOL    HW2 3381   0.784   1.009   7.795
  949SOL     OW 3382   0.431   0.831   8.695
  949SOL    HW1 3383   0.499   0.842   8.762
  949SOL    HW2 3384   0.377   0.759   8.728
  950SOL     OW 3385   1.268   0.374   8.724
  950SOL    HW1 3386   1.301   0.452   8.768
  950SOL    HW2 3387   1.179   0.395   8.698
  951SOL     OW 3388   0.065   1.574   8.797
  951SOL    HW1 3389   0.042   1.664   8.778
  951SOL    HW2 3390   0.161   1.574   8.800
  952SOL     OW 3391   0.334   1.113   7.942
  952SOL    HW1 3392   0.348   1.188   7.884
  952SOL    HW2 3393   0.333   1.038   7.883
  953SOL     OW 3394   0.561   0.516   8.298
  953SOL    HW1 3395   0.571   0.578   8.226
  953SOL    HW2 3396   0.623   0.546   8.364
  954SOL     OW 3397   1.247   1.350   7.838
  954SOL    HW1 3398   1.303   1.421   7.870
  954SOL    HW2 3399   1.160   1.371   7.872
  955SOL     OW 3400   1.288   1.460   8.596
  955SOL    HW1 3401   1.344   1.465   8.674
  955SOL    HW2 3402   1.233   1.384   8.611
  956SOL     OW 3403   1.578   0.622   7.928
  956SOL    HW1 3404   1.529   0.666   7.998
  956SOL    HW2 3405   1.621   0.694   7.882
  957SOL     OW 3406   0.345   1.534   8.758
  957SOL    HW1 3407   0.333   1.485   8.677
  957SOL    HW2 3408   0.440   1.544   8.766
  958SOL     OW 3409   0.498   0.754   9.127
  958SOL    HW1 3410   0.528   0.795   9.045
  958SOL    HW2 3411   0.561   0.684   9.142
  959SOL     OW 3412   1.607   0.780   9.133
  959SOL    HW1 3413   1.521   0.822   9.127
  959SOL    HW2 3414   1.660   0.822   9.065
  960SOL     OW 3415   0.994   0.091   9.159
  960SOL    HW1 3416   1.042   0.166   9.124
  960SOL    HW2 3417   1.017   0.018   9.101
  961SOL     OW 3418   0.495   0.040   9.203
  961SOL    HW1 3419   0.483   4.495   9.119
  961SOL    HW2 3420   0.431   0.111   9.201
  962SOL     OW 3421   0.591   0.877   8.474
  962SOL    HW1 3422   0.625   0.966   8.477
  962SOL    HW2 3423   0.535   0.869   8.551
  963SOL     OW 3424   1.348   0.858   8.470
  963SOL    HW1 3425   1.262   0.843   8.432
  963SOL    HW2 3426   1.394   0.774   8.460
  964SOL     OW 3427   1.197   0.537   7.704
  964SOL    HW1 3428   1.205   0.458   7.757
  964SOL    HW2 3429   1.155   0.600   7.762
  965SOL     OW 3430   0.282   0.210   8.682
  965SOL    HW1 3431   0.239   0.229   8.765
  965SOL    HW2 3432   0.330   0.129   8.697
  966SOL     OW 3433   0.018   1.312   8.737
  966SOL    HW1 3434   0.063   1.263   8.805
  966SOL    HW2 3435   0.031   1.404   8.760
  967SOL     OW 3436   0.720   0.628   8.499
  967SOL    HW1 3437   0.797   0.612   8.445
  967SOL    HW2 3438   0.693   0.718   8.477
  968SOL     OW 3439   1.739   0.958   9.306
  968SOL    HW1 3440   1.694   0.893   9.252
  968SOL    HW2 3441   1.678   0.976   9.377
  969SOL     OW 3442   0.325   0.071   8.074
  969SOL    HW1 3443   0.302   0.160   8.101
  969SOL    HW2 3444   0.312   0.018   8.153
  970SOL     OW 3445   1.623   0.386   7.801
  970SOL    HW1 3446   1.646   0.319   7.866
  970SOL    HW2 3447   1.598   0.462   7.854
  971SOL     OW 3448   1.034   0.765   8.407
  971SOL    HW1 3449   1.024   0.780   8.501
  971SOL    HW2 3450   1.002   0.676   8.394
  972SOL     OW 3451   0.982   1.566   9.169
  972SOL    HW1 3452   0.966   1.610   9.085
  972SOL    HW2 3453   1.025   1.484   9.145
  973SOL     OW 3454   1.854   1.501   9.053
  973SOL    HW1 3455   1.872   1.530   8.963
  973SOL    HW2 3456   1.934   1.519   9.101
  974SOL     OW 3457   0.348   0.935   9.265
  974SOL    HW1 3458   0.417   0.969   9.322
  974SOL    HW2 3459   0.390   0.867   9.214
  975SOL     OW 3460   1.527   0.261   7.575
  975SOL    HW1 3461   1.459   0.203   7.610
  975SOL    HW2 3462   1.560   0.308   7.652
  976SOL     OW 3463   1.287   0.826   7.475
  976SOL    HW1 3464   1.329   0.740   7.479
  976SOL    HW2 3465   1.319   0.865   7.394
  977SOL     OW 3466   1.069   1.338   8.304
  977SOL    HW1 3467   1.073   1.266   8.241
  977SOL    HW2 3468   1.127   1.405   8.269
  978SOL     OW 3469   0.320   0.813   8.389
  978SOL    HW1 3470   0.414   0.831   8.390
  978SOL    HW2 3471   0.313   0.721   8.414
  979SOL     OW 3472   0.329   0.533   8.430
  979SOL    HW1 3473   0.284   0.450   8.415
  979SOL    HW2 3474   0.408   0.528   8.376
  980SOL     OW 3475   1.139   0.369   9.152
  980SOL    HW1 3476   1.085   0.431   9.201
  980SOL    HW2 3477   1.221   0.415   9.137
  981SOL     OW 3478   1.149   0.216   8.922
  981SOL    HW1 3479   1.148   0.280   8.994
  981SOL    HW2 3480   1.196   0.261   8.852
  982SOL     OW 3481   4.491   1.319   7.659
  982SOL    HW1 3482   4.398   1.336   7.641
  982SOL    HW2 3483   4.494   1.226   7.680
  983SOL     OW 3484   0.103   1.767   8.388
  983SOL    HW1 3485   0.063   1.725   8.312
  983SOL    HW2 3486   0.190   1.792   8.358
  984SOL     OW 3487   0.493   1.575   8.355
  984SOL    HW1 3488   0.561   1.637   8.379
  984SOL    HW2 3489   0.536   1.513   8.296
  985SOL     OW 3490   0.976   0.791   8.672
  985SOL    HW1 3491   1.035   0.771   8.745
  985SOL    HW2 3492   0.894   0.748   8.695
  986SOL     OW 3493   0.027   0.564   8.550
  986SOL    HW1 3494   0.110   0.532   8.515
  986SOL    HW2 3495   4.496   0.494   8.608
  987SOL     OW 3496   0.179   0.537   9.166
  987SOL    HW1 3497   0.268   0.520   9.134
  987SOL    HW2 3498   0.150   0.613   9.115
  988SOL     OW 3499   1.381   0.934   9.105
  988SOL    HW1 3500   1.402   1.027   9.101
  988SOL    HW2 3501   1.376   0.907   9.013
  989SOL     OW 3502   0.812   0.577   7.810
  989SOL    HW1 3503   0.817   0.506   7.746
  989SOL    HW2 3504   0.739   0.632   7.780
  990SOL     OW 3505   1.637   0.601   8.628
  990SOL    HW1 3506   1.627   0.543   8.704
  990SOL    HW2 3507   1.725   0.584   8.596
  991SOL     OW 3508   0.273   1.562   9.187
  991SOL    HW1 3509   0.211   1.612   9.241
  991SOL    HW2 3510   0.257   1.471   9.210
  992SOL     OW 3511   0.701   0.461   8.709
  992SOL    HW1 3512   0.653   0.384   8.679
  992SOL    HW2 3513   0.700   0.520   8.635
  993SOL     OW 3514   0.923   1.679   8.919
  993SOL    HW1 3515   0.898   1.640   8.835
  993SOL    HW2 3516   0.916   1.773   8.904
  994SOL     OW 3517   0.471   0.491   7.625
  994SOL    HW1 3518   0.532   0.560   7.650
  994SOL    HW2 3519   0.388   0.537   7.610
  995SOL     OW 3520   0.159   1.142   8.905
  995SOL    HW1 3521   0.143   1.099   8.988
  995SOL    HW2 3522   0.167   1.071   8.841
  996SOL     OW 3523   1.321   1.043   8.667
  996SOL    HW1 3524   1.342   0.980   8.599
  996SOL    HW2 3525   1.254   1.100   8.628
  997SOL     OW 3526   1.317   0.856   7.751
  997SOL    HW1 3527   1.243   0.828   7.805
  997SOL    HW2 3528   1.287   0.844   7.661
  998SOL     OW 3529   1.762   1.737   8.594
  998SOL    HW1 3530   1.828   1.766   8.531
  998SOL    HW2 3531   1.747   1.645   8.572
  999SOL     OW 3532   1.240   1.732   8.552
  999SOL    HW1 3533   1.324   1.757   8.513
  999SOL    HW2 3534   1.249   1.640   8.574
 1000SOL     OW 3535   0.071   1.187   8.499
 1000SOL    HW1 3536   0.055   1.215   8.589
 1000SOL    HW2 3537   0.040   1.260   8.445
 1001SOL     OW 3538   0.680   1.670   9.186
 1001SOL    HW1 3539   0.620   1.744   9.175
 1001SOL    HW2 3540   0.748   1.685   9.120
 1002SOL     OW 3541   1.720   0.128   7.931
 1002SOL    HW1 3542   1.787   0.143   7.864
 1002SOL    HW2 3543   1.756   0.058   7.986
 1003SOL     OW 3544   1.392   1.568   7.937
 1003SOL    HW1 3545   1.450   1.602   7.870
 1003SOL    HW2 3546   1.342   1.644   7.966
 1004SOL     OW 3547   0.115   1.808   9.299
 1004SOL    HW1 3548   0.075   1.737   9.349
 1004SOL    HW2 3549   0.180   1.845   9.358
 1005SOL     OW 3550   1.279   0.930   8.120
 1005SOL    HW1 3551   1.353   0.869   8.129
 1005SOL    HW2 3552   1.313   1.002   8.067
 1006SOL     OW 3553   0.806   1.277   8.873
 1006SOL    HW1 3554   0.779   1.317   8.955
 1006SOL    HW2 3555   0.736   1.297   8.812
 1007SOL     OW 3556   0.672   1.625   7.603
 1007SOL    HW1 3557   0.683   1.639   7.509
 1007SOL    HW2 3558   0.616   1.547   7.610
 1008SOL     OW 3559   1.618   1.728   8.837
 1008SOL    HW1 3560   1.669   1.734   8.756
 1008SOL    HW2 3561   1.605   1.819   8.864
 1009SOL     OW 3562   1.840   0.151   8.413
 1009SOL    HW1 3563   1.869   0.071   8.368
 1009SOL    HW2 3564   1.753   0.168   8.376
 1010SOL     OW 3565   0.256   0.322   8.163
 1010SOL    HW1 3566   0.172   0.356   8.133
 1010SOL    HW2 3567   0.245   0.311   8.258
 1011SOL     OW 3568   1.208   1.602   7.481
 1011SOL    HW1 3569   1.197   1.511   7.507
 1011SOL    HW2 3570   1.142   1.616   7.413
 1012SOL     OW 3571   0.826   1.008   8.823
 1012SOL    HW1 3572   0.868   1.002   8.737
 1012SOL    HW2 3573   0.822   1.102   8.841
 1013SOL     OW 3574   0.915   0.910   7.739
 1013SOL    HW1 3575   0.976   0.943   7.672
 1013SOL    HW2 3576   0.965   0.843   7.785
 1014SOL     OW 3577   1.490   1.628   7.492
 1014SOL    HW1 3578   1.395   1.618   7.477
 1014SOL    HW2 3579   1.527   1.633   7.404
 1015SOL     OW 3580   0.372   1.310   8.939
 1015SOL    HW1 3581   0.355   1.389   8.887
 1015SOL    HW2 3582   0.298   1.253   8.920
 1016SOL     OW 3583   1.608   1.285   8.726
 1016SOL    HW1 3584   1.669   1.270   8.799
 1016SOL    HW2 3585   1.548   1.352   8.758
 1017SOL     OW 3586   1.060   1.110   8.157
 1017SOL    HW1 3587   0.988   1.060   8.195
 1017SOL    HW2 3588   1.124   1.044   8.132
 1018SOL     OW 3589   0.999   0.247   8.462
 1018SOL    HW1 3590   1.007   0.232   8.368
 1018SOL    HW2 3591   0.990   0.159   8.500
 1019SOL     OW 3592   0.606   1.488   7.929
 1019SOL    HW1 3593   0.654   1.439   7.862
 1019SOL    HW2 3594   0.528   1.520   7.885
 1020SOL     OW 3595   1.725   0.394   8.823
 1020SOL    HW1 3596   1.799   0.455   8.823
 1020SOL    HW2 3597   1.753   0.323   8.766
 1021SOL     OW 3598   0.253   1.343   7.721
 1021SOL    HW1 3599   0.158   1.338   7.709
 1021SOL    HW2 3600   0.264   1.375   7.810
 1022SOL     OW 3601   0.116   1.004   9.141
 1022SOL    HW1 3602   0.053   1.053   9.195
 1022SOL    HW2 3603   0.195   0.999   9.194
 1023SOL     OW 3604   0.659   0.213   8.949
 1023SOL    HW1 3605   0.738   0.186   8.901
 1023SOL    HW2 3606   0.689   0.229   9.038
 1024SOL     OW 3607   0.075   0.321   7.471
 1024SOL    HW1 3608   4.482   0.325   7.493
 1024SOL    HW2 3609   0.097   0.409   7.441
 1025SOL     OW 3610   1.426   0.857   8.845
 1025SOL    HW1 3611   1.376   0.919   8.790
 1025SOL    HW2 3612   1.514   0.860   8.809
 1026SOL     OW 3613   0.087   0.187   7.750
 1026SOL    HW1 3614   0.074   0.264   7.694
 1026SOL    HW2 3615   0.167   0.147   7.717
 1027SOL     OW 3616   1.178   1.335   7.566
 1027SOL    HW1 3617   1.087   1.305   7.567
 1027SOL    HW2 3618   1.204   1.336   7.658
 1028SOL     OW 3619   0.627   0.829   8.885
 1028SOL    HW1 3620   0.682   0.906   8.869
 1028SOL    HW2 3621   0.689   0.756   8.888
 1029SOL     OW 3622   1.487   1.782   8.433
 1029SOL    HW1 3623   1.510   1.847   8.366
 1029SOL    HW2 3624   1.569   1.763   8.477
 1030SOL     OW 3625   0.710   0.564   9.154
 1030SOL    HW1 3626   0.761   0.623   9.210
 1030SOL    HW2 3627   0.734   0.476   9.183
 1031SOL     OW 3628   1.474   1.195   9.077
 1031SOL    HW1 3629   1.462   1.210   9.171
 1031SOL    HW2 3630   1.566   1.214   9.061
 1032SOL     OW 3631   0.374   1.747   9.014
 1032SOL    HW1 3632   0.290   1.789   8.995
 1032SOL    HW2 3633   0.351   1.669   9.063
 1033SOL     OW 3634   1.665   0.880   8.703
 1033SOL    HW1 3635   1.659   0.795   8.659
 1033SOL    HW2 3636   1.655   0.944   8.632
 1034SOL     OW 3637   1.222   0.334   7.892
 1034SOL    HW1 3638   1.291   0.269   7.878
 1034SOL    HW2 3639   1.250   0.383   7.970
 1035SOL     OW 3640   0.583   0.733   8.123
 1035SOL    HW1 3641   0.625   0.818   8.109
 1035SOL    HW2 3642   0.519   0.726   8.052
 1036SOL     OW 3643   1.756   0.372   9.092
 1036SOL    HW1 3644   1.742   0.385   8.998
 1036SOL    HW2 3645   1.680   0.322   9.121
 1037SOL     OW 3646   1.749   0.933   8.959
 1037SOL    HW1 3647   1.738   1.028   8.972
 1037SOL    HW2 3648   1.730   0.920   8.866
 1038SOL     OW 3649   0.865   1.365   7.490
 1038SOL    HW1 3650   0.826   1.392   7.573
 1038SOL    HW2 3651   0.879   1.447   7.442
 1039SOL     OW 3652   0.663   1.786   8.388
 1039SOL    HW1 3653   0.645   1.877   8.367
 1039SOL    HW2 3654   0.758   1.778   8.381
 1040SOL     OW 3655   0.870   0.971   8.301
 1040SOL    HW1 3656   0.921   0.899   8.338
 1040SOL    HW2 3657   0.831   1.015   8.377
 1041SOL     OW 3658   1.077   0.989   7.538
 1041SOL    HW1 3659   1.055   1.040   7.460
 1041SOL    HW2 3660   1.151   0.934   7.510
 1042SOL     OW 3661   1.848   1.554   8.291
 1042SOL    HW1 3662   1.770   1.544   8.238
 1042SOL    HW2 3663   1.833   1.498   8.367
 1043SOL     OW 3664   0.234   1.303   9.309
 1043SOL    HW1 3665   0.148   1.263   9.293
 1043SOL    HW2 3666   0.237   1.314   9.404
 1044SOL     OW 3667   0.123   1.226   8.116
 1044SOL    HW1 3668   0.144   1.187   8.201
 1044SOL    HW2 3669   0.179   1.180   8.054
 1045SOL     OW 3670   0.686   1.407   9.080
 1045SOL    HW1 3671   0.606   1.364   9.110
 1045SOL    HW2 3672   0.681   1.495   9.117
 1046SOL     OW 3673   1.802   0.176   8.685
 1046SOL    HW1 3674   1.797   0.082   8.704
 1046SOL    HW2 3675   1.821   0.180   8.591
 1047SOL     OW 3676   0.445   0.427   7.983
 1047SOL    HW1 3677   0.456   0.359   7.917
 1047SOL    HW2 3678   0.382   0.391   8.045
 1048SOL     OW 3679   1.704   1.479   8.531
 1048SOL    HW1 3680   1.620   1.461   8.487
 1048SOL    HW2 3681   1.707   1.414   8.601
 1049SOL     OW 3682   0.307   0.509   8.698
 1049SOL    HW1 3683   0.379   0.457   8.734
 1049SOL    HW2 3684   0.329   0.519   8.605
 1050SOL     OW 3685   0.831   1.578   8.123
 1050SOL    HW1 3686   0.810   1.642   8.055
 1050SOL    HW2 3687   0.756   1.519   8.125
 1051SOL     OW 3688   1.430   0.218   8.563
 1051SOL    HW1 3689   1.465   0.146   8.616
 1051SOL    HW2 3690   1.379   0.270   8.626
 1052SOL     OW 3691   0.994   4.499   8.604
 1052SOL    HW1 3692   0.958   4.411   8.597
 1052SOL    HW2 3693   1.089   4.486   8.610
 1053SOL     OW 3694   0.774   1.334   7.768
 1053SOL    HW1 3695   0.747   1.242   7.776
 1053SOL    HW2 3696   0.856   1.339   7.818
 1054SOL     OW 3697   0.621   1.555   8.735
 1054SOL    HW1 3698   0.621   1.637   8.785
 1054SOL    HW2 3699   0.709   1.549   8.698
 1055SOL     OW 3700   1.338   0.051   7.611
 1055SOL    HW1 3701   1.375   4.475   7.565
 1055SOL    HW2 3702   1.261   0.016   7.655
 1056SOL     OW 3703   1.315   0.467   8.118
 1056SOL    HW1 3704   1.260   0.545   8.120
 1056SOL    HW2 3705   1.305   0.427   8.204
 1057SOL     OW 3706   1.586   0.198   8.319
 1057SOL    HW1 3707   1.528   0.214   8.393
 1057SOL    HW2 3708   1.587   0.281   8.271
 1058SOL     OW 3709   0.039   1.049   7.741
 1058SOL    HW1 3710   0.130   1.025   7.728
 1058SOL    HW2 3711   0.021   1.026   7.832
 1059SOL     OW 3712   0.889   1.659   7.786
 1059SOL    HW1 3713   0.815   1.643   7.728
 1059SOL    HW2 3714   0.861   1.731   7.842
 1060SOL     OW 3715   0.242   0.630   9.436
 1060SOL    HW1 3716   0.169   0.601   9.490
 1060SOL    HW2 3717   0.213   0.618   9.346
 1061SOL     OW 3718   0.195   0.295  10.299
 1061SOL    HW1 3719   0.222   0.264  10.386
 1061SOL    HW2 3720   0.134   0.229  10.267
 1062SOL     OW 3721   4.499   0.395   9.945
 1062SOL    HW1 3722   4.423   0.430   9.992
 1062SOL    HW2 3723   4.463   0.321   9.895
 1063SOL     OW 3724   0.569   1.296  10.494
 1063SOL    HW1 3725   0.484   1.300  10.451
 1063SOL    HW2 3726   0.584   1.385  10.527
 1064SOL     OW 3727   1.570   1.514  10.018
 1064SOL    HW1 3728   1.527   1.491  10.101
 1064SOL    HW2 3729   1.498   1.518   9.955
 1065SOL     OW 3730   1.141   0.696  10.003
 1065SOL    HW1 3731   1.184   0.781   9.995
 1065SOL    HW2 3732   1.088   0.703  10.082
 1066SOL     OW 3733   1.777   0.601   9.534
 1066SOL    HW1 3734   1.751   0.595   9.443
 1066SOL    HW2 3735   1.739   0.524   9.576
 1067SOL     OW 3736   0.747   1.138  10.356
 1067SOL    HW1 3737   0.681   1.176  10.414
 1067SOL    HW2 3738   0.785   1.214  10.312
 1068SOL     OW 3739   0.864   0.763   0.025
 1068SOL    HW1 3740   0.868   0.817   0.104
 1068SOL    HW2 3741   0.895   0.820  11.055
 1069SOL     OW 3742   0.684   0.998   9.955
 1069SOL    HW1 3743   0.751   0.989  10.023
 1069SOL    HW2 3744   0.616   1.052   9.996
 1070SOL     OW 3745   0.334   1.416  10.376
 1070SOL    HW1 3746   0.253   1.395  10.330
 1070SOL    HW2 3747   0.383   1.471  10.314
 1071SOL     OW 3748   1.462   1.500  10.666
 1071SOL    HW1 3749   1.521   1.575  10.672
 1071SOL    HW2 3750   1.395   1.517  10.732
 1072SOL     OW 3751   0.441   0.384  10.782
 1072SOL    HW1 3752   0.523   0.336  10.774
 1072SOL    HW2 3753   0.407   0.359  10.868
 1073SOL     OW 3754   1.606   0.441  10.049
 1073SOL    HW1 3755   1.526   0.459   9.999
 1073SOL    HW2 3756   1.617   0.518  10.105
 1074SOL     OW 3757   0.246   1.691   9.783
 1074SOL    HW1 3758   0.229   1.776   9.823
 1074SOL    HW2 3759   0.319   1.706   9.724
 1075SOL     OW 3760   0.258   1.425   9.835
 1075SOL    HW1 3761   0.244   1.520   9.838
 1075SOL    HW2 3762   0.198   1.390   9.901
 1076SOL     OW 3763   0.254   1.084  10.196
 1076SOL    HW1 3764   0.268   0.992  10.218
 1076SOL    HW2 3765   0.192   1.115  10.262
 1077SOL     OW 3766   0.606   1.791  10.736
 1077SOL    HW1 3767   0.526   1.773  10.786
 1077SOL    HW2 3768   0.630   1.880  10.760
 1078SOL     OW 3769   0.570   0.993   9.455
 1078SOL    HW1 3770   0.621   1.031   9.383
 1078SOL    HW2 3771   0.615   1.022   9.534
 1079SOL     OW 3772   1.551   0.138  10.793
 1079SOL    HW1 3773   1.587   0.197  10.726
 1079SOL    HW2 3774   1.623   0.125  10.854
 1080SOL     OW 3775   0.136   0.647   9.882
 1080SOL    HW1 3776   0.088   0.568   9.906
 1080SOL    HW2 3777   0.109   0.712   9.947
 1081SOL     OW 3778   1.841   1.755   9.637
 1081SOL    HW1 3779   1.910   1.727   9.697
 1081SOL    HW2 3780   1.861   1.847   9.619
 1082SOL     OW 3781   0.032   1.605   9.462
 1082SOL    HW1 3782   0.017   1.511   9.454
 1082SOL    HW2 3783   0.047   1.619   9.556
 1083SOL     OW 3784   1.691   0.920   9.955
 1083SOL    HW1 3785   1.772   0.875   9.929
 1083SOL    HW2 3786   1.667   0.971   9.877
 1084SOL     OW 3787   1.649   1.104   9.739
 1084SOL    HW1 3788   1.736   1.106   9.698
 1084SOL    HW2 3789   1.655   1.167   9.810
 1085SOL     OW 3790   0.089   0.769  10.906
 1085SOL    HW1 3791   0.172   0.743  10.866
 1085SOL    HW2 3792   0.096   0.864  10.918
 1086SOL     OW 3793   0.616   1.390  10.047
 1086SOL    HW1 3794   0.569   1.306  10.056
 1086SOL    HW2 3795   0.599   1.417   9.956
 1087SOL     OW 3796   1.287   1.235  10.754
 1087SOL    HW1 3797   1.312   1.174  10.684
 1087SOL    HW2 3798   1.345   1.214  10.827
 1088SOL     OW 3799   0.828   0.019   9.869
 1088SOL    HW1 3800   0.864   0.103   9.841
 1088SOL    HW2 3801   0.734   0.028   9.855
 1089SOL     OW 3802   0.172   0.938  10.589
 1089SOL    HW1 3803   0.263   0.914  10.573
 1089SOL    HW2 3804   0.131   0.933  10.503
 1090SOL     OW 3805   1.531   0.997   9.510
 1090SOL    HW1 3806   1.462   0.941   9.543
 1090SOL    HW2 3807   1.574   1.032   9.589
 1091SOL     OW 3808   1.198   1.808  10.930
 1091SOL    HW1 3809   1.192   1.874  10.861
 1091SOL    HW2 3810   1.209   1.725  10.884
 1092SOL     OW 3811   0.323   0.306  11.043
 1092SOL    HW1 3812   0.386   0.341   0.006
 1092SOL    HW2 3813   0.241   0.299  11.092
 1093SOL     OW 3814   1.468   1.419  10.257
 1093SOL    HW1 3815   1.401   1.436  10.323
 1093SOL    HW2 3816   1.454   1.328  10.231
 1094SOL     OW 3817   1.656   1.750   9.886
 1094SOL    HW1 3818   1.636   1.717   9.798
 1094SOL    HW2 3819   1.635   1.677   9.944
 1095SOL     OW 3820   0.594   0.722   9.579
 1095SOL    HW1 3821   0.592   0.806   9.533
 1095SOL    HW2 3822   0.528   0.731   9.647
 1096SOL     OW 3823   1.294   0.374  10.240
 1096SOL    HW1 3824   1.205   0.344  10.223
 1096SOL    HW2 3825   1.329   0.311  10.303
 1097SOL     OW 3826   1.577   1.673   9.620
 1097SOL    HW1 3827   1.669   1.700   9.611
 1097SOL    HW2 3828   1.549   1.656   9.530
 1098SOL     OW 3829   0.801   0.617  10.761
 1098SOL    HW1 3830   0.770   0.590  10.848
 1098SOL    HW2 3831   0.765   0.552  10.701
 1099SOL     OW 3832   0.965   0.901  10.909
 1099SOL    HW1 3833   1.015   0.831  10.867
 1099SOL    HW2 3834   0.915   0.941  10.838
 1100SOL     OW 3835   1.001   0.421  10.538
 1100SOL    HW1 3836   0.911   0.423  10.572
 1100SOL    HW2 3837   0.996   0.364  10.461
 1101SOL     OW 3838   1.052   0.698   9.735
 1101SOL    HW1 3839   1.071   0.690   9.828
 1101SOL    HW2 3840   0.968   0.654   9.723
 1102SOL     OW 3841   0.091   0.829  10.096
 1102SOL    HW1 3842   0.177   0.820  10.137
 1102SOL    HW2 3843   0.029   0.829  10.169
 1103SOL     OW 3844   0.115   1.850  10.901
 1103SOL    HW1 3845   0.110   1.788  10.974
 1103SOL    HW2 3846   0.048   1.819  10.840
 1104SOL     OW 3847   0.855   0.372   9.498
 1104SOL    HW1 3848   0.922   0.405   9.437
 1104SOL    HW2 3849   0.869   0.277   9.499
 1105SOL     OW 3850   1.381   1.143   9.849
 1105SOL    HW1 3851   1.460   1.132   9.796
 1105SOL    HW2 3852   1.327   1.205   9.800
 1106SOL     OW 3853   0.538   0.212  10.209
 1106SOL    HW1 3854   0.556   0.227  10.302
 1106SOL    HW2 3855   0.535   0.299  10.170
 1107SOL     OW 3856   1.000   1.444   9.779
 1107SOL    HW1 3857   0.969   1.519   9.729
 1107SOL    HW2 3858   0.977   1.464   9.869
 1108SOL     OW 3859   0.358   1.816  10.172
 1108SOL    HW1 3860   0.400   1.731  10.183
 1108SOL    HW2 3861   0.427   1.879  10.192
 1109SOL     OW 3862   1.802   1.053  10.180
 1109SOL    HW1 3863   1.748   1.031  10.103
 1109SOL    HW2 3864   1.738   1.059  10.252
 1110SOL     OW 3865   1.231   1.535  10.819
 1110SOL    HW1 3866   1.241   1.445  10.849
 1110SOL    HW2 3867   1.160   1.531  10.755
 1111SOL     OW 3868   0.311   0.951   9.571
 1111SOL    HW1 3869   0.393   0.976   9.529
 1111SOL    HW2 3870   0.300   0.859   9.549
 1112SOL     OW 3871   1.483   0.748  10.031
 1112SOL    HW1 3872   1.476   0.708  10.117
 1112SOL    HW2 3873   1.560   0.804  10.037
 1113SOL     OW 3874   0.458   1.265  11.051
 1113SOL    HW1 3875   0.426   1.284  10.963
 1113SOL    HW2 3876   0.396   1.201  11.086
 1114SOL     OW 3877   1.124   1.778   9.539
 1114SOL    HW1 3878   1.048   1.738   9.583
 1114SOL    HW2 3879   1.148   1.715   9.471
 1115SOL     OW 3880   0.154   0.256  10.822
 1115SOL    HW1 3881   0.127   0.343  10.791
 1115SOL    HW2 3882   0.211   0.274  10.897
 1116SOL     OW 3883   1.629   1.382   9.401
 1116SOL    HW1 3884   1.587   1.467   9.385
 1116SOL    HW2 3885   1.561   1.318   9.380
 1117SOL     OW 3886   0.469   1.741   9.623
 1117SOL    HW1 3887   0.514   1.796   9.688
 1117SOL    HW2 3888   0.539   1.704   9.570
 1118SOL     OW 3889   1.429   0.148   9.731
 1118SOL    HW1 3890   1.412   0.090   9.658
 1118SOL    HW2 3891   1.522   0.135   9.751
 1119SOL     OW 3892   0.249   1.786  10.539
 1119SOL    HW1 3893   0.297   1.710  10.573
 1119SOL    HW2 3894   0.217   1.757  10.453
 1120SOL     OW 3895   0.940   1.700  10.207
 1120SOL    HW1 3896   1.020   1.651  10.227
 1120SOL    HW2 3897   0.898   1.649  10.137
 1121SOL     OW 3898   0.397   0.689   9.780
 1121SOL    HW1 3899   0.421   0.597   9.797
 1121SOL    HW2 3900   0.305   0.694   9.806
 1122SOL     OW 3901   0.630   0.120   9.429
 1122SOL    HW1 3902   0.719   0.085   9.442
 1122SOL    HW2 3903   0.599   0.078   9.349
 1123SOL     OW 3904   0.759   0.279  11.046
 1123SOL    HW1 3905   0.824   0.211  11.062
 1123SOL    HW2 3906   0.705   0.280   0.025
 1124SOL     OW 3907   0.876   1.523  10.504
 1124SOL    HW1 3908   0.859   1.487  10.418
 1124SOL    HW2 3909   0.948   1.470  10.539
 1125SOL     OW 3910   1.344   0.593  10.754
 1125SOL    HW1 3911   1.396   0.574  10.832
 1125SOL    HW2 3912   1.369   0.682  10.730
 1126SOL     OW 3913   0.819   1.390  10.256
 1126SOL    HW1 3914   0.903   1.379  10.212
 1126SOL    HW2 3915   0.755   1.396  10.184
 1127SOL     OW 3916   0.926   0.526  10.206
 1127SOL    HW1 3917   0.909   0.522  10.112
 1127SOL    HW2 3918   0.956   0.438  10.228
 1128SOL     OW 3919   0.568   0.073   9.817
 1128SOL    HW1 3920   0.484   0.058   9.859
 1128SOL    HW2 3921   0.551   0.138   9.749
 1129SOL     OW 3922   1.428   1.200   9.350
 1129SOL    HW1 3923   1.457   1.125   9.401
 1129SOL    HW2 3924   1.343   1.223   9.386
 1130SOL     OW 3925   0.306   0.068   9.503
 1130SOL    HW1 3926   0.388   0.116   9.506
 1130SOL    HW2 3927   0.317   4.497   9.567
 1131SOL     OW 3928   0.961   0.240   9.772
 1131SOL    HW1 3929   0.907   0.307   9.730
 1131SOL    HW2 3930   1.050   0.273   9.765
 1132SOL     OW 3931   1.080   0.692  10.771
 1132SOL    HW1 3932   1.008   0.628  10.772
 1132SOL    HW2 3933   1.159   0.639  10.770
 1133SOL     OW 3934   1.219   1.573  10.105
 1133SOL    HW1 3935   1.234   1.637  10.036
 1133SOL    HW2 3936   1.289   1.589  10.169
 1134SOL     OW 3937   0.469   1.153  10.041
 1134SOL    HW1 3938   0.402   1.134  10.106
 1134SOL    HW2 3939   0.426   1.139   9.957
 1135SOL     OW 3940   1.265   1.792   9.922
 1135SOL    HW1 3941   1.313   1.854   9.866
 1135SOL    HW2 3942   1.196   1.845   9.963
 1136SOL     OW 3943   1.026   0.540   9.332
 1136SOL    HW1 3944   0.979   0.622   9.316
 1136SOL    HW2 3945   1.085   0.560   9.405
 1137SOL     OW 3946   0.082   0.502  10.722
 1137SOL    HW1 3947   0.147   0.511  10.652
 1137SOL    HW2 3948   0.061   0.592  10.747
 1138SOL     OW 3949   0.554   0.249  10.479
 1138SOL    HW1 3950   0.581   0.164  10.515
 1138SOL    HW2 3951   0.460   0.253  10.498
 1139SOL     OW 3952   0.864   0.505   9.939
 1139SOL    HW1 3953   0.828   0.540   9.857
 1139SOL    HW2 3954   0.814   0.425   9.955
 1140SOL     OW 3955   0.948   0.010  10.115
 1140SOL    HW1 3956   0.907   0.015  10.029
 1140SOL    HW2 3957   0.966   4.417  10.128
 1141SOL     OW 3958   1.438   1.161  10.166
 1141SOL    HW1 3959   1.369   1.095  10.167
 1141SOL    HW2 3960   1.462   1.169  10.074
 1142SOL     OW 3961   1.464   0.610  10.276
 1142SOL    HW1 3962   1.407   0.534  10.277
 1142SOL    HW2 3963   1.519   0.600  10.354
 1143SOL     OW 3964   1.841   0.812   9.695
 1143SOL    HW1 3965   1.900   0.762   9.753
 1143SOL    HW2 3966   1.816   0.750   9.627
 1144SOL     OW 3967   0.492   1.422   9.464
 1144SOL    HW1 3968   0.414   1.395   9.511
 1144SOL    HW2 3969   0.483   1.383   9.377
 1145SOL     OW 3970   1.675   1.265   9.951
 1145SOL    HW1 3971   1.770   1.265   9.967
 1145SOL    HW2 3972   1.647   1.354   9.974
 1146SOL     OW 3973   1.395   0.574   9.379
 1146SOL    HW1 3974   1.332   0.557   9.449
 1146SOL    HW2 3975   1.480   0.559   9.419
 1147SOL     OW 3976   0.516   0.263   9.625
 1147SOL    HW1 3977   0.570   0.216   9.562
 1147SOL    HW2 3978   0.500   0.348   9.584
 1148SOL     OW 3979   1.757   1.228  10.852
 1148SOL    HW1 3980   1.849   1.203  10.849
 1148SOL    HW2 3981   1.757   1.314  10.895
 1149SOL     OW 3982   1.059   1.354  10.648
 1149SOL    HW1 3983   0.980   1.321  10.691
 1149SOL    HW2 3984   1.130   1.306  10.689
 1150SOL     OW 3985   1.136   1.214  10.412
 1150SOL    HW1 3986   1.068   1.245  10.471
 1150SOL    HW2 3987   1.108   1.244  10.326
 1151SOL     OW 3988   1.626   1.097  10.386
 1151SOL    HW1 3989   1.621   1.159  10.459
 1151SOL    HW2 3990   1.548   1.115  10.333
 1152SOL     OW 3991   0.892   0.131  10.692
 1152SOL    HW1 3992   0.919   0.087  10.611
 1152SOL    HW2 3993   0.973   0.162  10.731
 1153SOL     OW 3994   0.710   1.063   9.683
 1153SOL    HW1 3995   0.696   1.043   9.775
 1153SOL    HW2 3996   0.785   1.009   9.657
 1154SOL     OW 3997   0.428   0.828  10.558
 1154SOL    HW1 3998   0.496   0.836  10.625
 1154SOL    HW2 3999   0.374   0.755  10.589
 1155SOL     OW 4000   1.271   0.383  10.585
 1155SOL    HW1 4001   1.301   0.459  10.635
 1155SOL    HW2 4002   1.182   0.405  10.559
 1156SOL     OW 4003   0.066   1.578  10.666
 1156SOL    HW1 4004   0.044   1.665  10.633
 1156SOL    HW2 4005   0.161   1.575  10.665
 1157SOL     OW 4006   0.334   1.113   9.804
 1157SOL    HW1 4007   0.347   1.188   9.746
 1157SOL    HW2 4008   0.334   1.037   9.745
 1158SOL     OW 4009   0.561   0.515  10.160
 1158SOL    HW1 4010   0.571   0.578  10.088
 1158SOL    HW2 4011   0.622   0.546  10.227
 1159SOL     OW 4012   1.247   1.350   9.700
 1159SOL    HW1 4013   1.303   1.421   9.732
 1159SOL    HW2 4014   1.160   1.371   9.733
 1160SOL     OW 4015   1.287   1.462  10.456
 1160SOL    HW1 4016   1.345   1.465  10.532
 1160SOL    HW2 4017   1.234   1.384  10.469
 1161SOL     OW 4018   1.578   0.623   9.790
 1161SOL    HW1 4019   1.529   0.666   9.860
 1161SOL    HW2 4020   1.621   0.694   9.744
 1162SOL     OW 4021   0.344   1.532  10.619
 1162SOL    HW1 4022   0.333   1.484  10.536
 1162SOL    HW2 4023   0.439   1.544  10.626
 1163SOL     OW 4024   0.503   0.744  10.975
 1163SOL    HW1 4025   0.545   0.785  10.899
 1163SOL    HW2 4026   0.561   0.672  10.998
 1164SOL     OW 4027   1.602   0.752  10.964
 1164SOL    HW1 4028   1.524   0.806  10.956
 1164SOL    HW2 4029   1.672   0.804  10.923
 1165SOL     OW 4030   0.589   0.876  10.337
 1165SOL    HW1 4031   0.623   0.966  10.340
 1165SOL    HW2 4032   0.534   0.869  10.414
 1166SOL     OW 4033   1.349   0.861  10.338
 1166SOL    HW1 4034   1.263   0.847  10.299
 1166SOL    HW2 4035   1.395   0.778  10.327
 1167SOL     OW 4036   1.197   0.537   9.566
 1167SOL    HW1 4037   1.205   0.458   9.619
 1167SOL    HW2 4038   1.155   0.600   9.624
 1168SOL     OW 4039   0.283   0.208  10.547
 1168SOL    HW1 4040   0.249   0.226  10.635
 1168SOL    HW2 4041   0.328   0.124  10.556
 1169SOL     OW 4042   0.019   1.316  10.597
 1169SOL    HW1 4043   0.063   1.265  10.665
 1169SOL    HW2 4044   0.029   1.407  10.625
 1170SOL     OW 4045   0.720   0.629  10.361
 1170SOL    HW1 4046   0.797   0.612  10.306
 1170SOL    HW2 4047   0.693   0.718  10.338
 1171SOL     OW 4048   0.325   0.071   9.936
 1171SOL    HW1 4049   0.303   0.160   9.963
 1171SOL    HW2 4050   0.313   0.019  10.016
 1172SOL     OW 4051   1.623   0.386   9.663
 1172SOL    HW1 4052   1.646   0.319   9.728
 1172SOL    HW2 4053   1.598   0.462   9.716
 1173SOL     OW 4054   1.033   0.766  10.270
 1173SOL    HW1 4055   1.023   0.781  10.364
 1173SOL    HW2 4056   1.002   0.676  10.257
 1174SOL     OW 4057   0.974   1.573  11.003
 1174SOL    HW1 4058   0.958   1.623  10.923
 1174SOL    HW2 4059   0.994   1.485  10.973
 1175SOL     OW 4060   1.853   1.486  10.911
 1175SOL    HW1 4061   1.872   1.523  10.825
 1175SOL    HW2 4062   1.916   1.528  10.970
 1176SOL     OW 4063   0.350   0.936  11.087
 1176SOL    HW1 4064   0.418   0.964   0.049
 1176SOL    HW2 4065   0.388   0.863  11.040
 1177SOL     OW 4066   1.527   0.261   9.437
 1177SOL    HW1 4067   1.459   0.203   9.472
 1177SOL    HW2 4068   1.560   0.308   9.514
 1178SOL     OW 4069   1.287   0.826   9.337
 1178SOL    HW1 4070   1.329   0.740   9.341
 1178SOL    HW2 4071   1.319   0.865   9.256
 1179SOL     OW 4072   1.069   1.338  10.166
 1179SOL    HW1 4073   1.073   1.266  10.103
 1179SOL    HW2 4074   1.127   1.405  10.130
 1180SOL     OW 4075   0.319   0.812  10.251
 1180SOL    HW1 4076   0.413   0.830  10.252
 1180SOL    HW2 4077   0.312   0.720  10.276
 1181SOL     OW 4078   0.329   0.533  10.295
 1181SOL    HW1 4079   0.284   0.450  10.281
 1181SOL    HW2 4080   0.408   0.527  10.241
 1182SOL     OW 4081   1.142   0.217  10.770
 1182SOL    HW1 4082   1.193   0.227  10.851
 1182SOL    HW2 4083   1.188   0.271  10.706
 1183SOL     OW 4084   4.491   1.319   9.521
 1183SOL    HW1 4085   4.398   1.336   9.503
 1183SOL    HW2 4086   4.494   1.226   9.542
 1184SOL     OW 4087   0.102   1.765  10.249
 1184SOL    HW1 4088   0.063   1.723  10.172
 1184SOL    HW2 4089   0.189   1.791  10.220
 1185SOL     OW 4090   0.493   1.575  10.217
 1185SOL    HW1 4091   0.562   1.638  10.240
 1185SOL    HW2 4092   0.537   1.513  10.158
 1186SOL     OW 4093   0.975   0.794  10.536
 1186SOL    HW1 4094   1.033   0.775  10.609
 1186SOL    HW2 4095   0.895   0.745  10.555
 1187SOL     OW 4096   0.023   0.562  10.403
 1187SOL    HW1 4097   0.111   0.535  10.377
 1187SOL    HW2 4098   0.003   0.506  10.479
 1188SOL     OW 4099   0.812   0.577   9.672
 1188SOL    HW1 4100   0.817   0.506   9.607
 1188SOL    HW2 4101   0.739   0.632   9.642
 1189SOL     OW 4102   1.637   0.601  10.490
 1189SOL    HW1 4103   1.628   0.546  10.568
 1189SOL    HW2 4104   1.726   0.584  10.459
 1190SOL     OW 4105   0.260   1.577  11.050
 1190SOL    HW1 4106   0.204   1.593   0.026
 1190SOL    HW2 4107   0.246   1.484  11.029
 1191SOL     OW 4108   0.708   0.457  10.570
 1191SOL    HW1 4109   0.656   0.381  10.542
 1191SOL    HW2 4110   0.704   0.517  10.495
 1192SOL     OW 4111   0.938   1.680  10.753
 1192SOL    HW1 4112   0.905   1.644  10.671
 1192SOL    HW2 4113   0.921   1.774  10.746
 1193SOL     OW 4114   0.471   0.491   9.487
 1193SOL    HW1 4115   0.532   0.560   9.512
 1193SOL    HW2 4116   0.388   0.537   9.472
 1194SOL     OW 4117   0.162   1.146  10.761
 1194SOL    HW1 4118   0.136   1.109  10.846
 1194SOL    HW2 4119   0.166   1.071  10.702
 1195SOL     OW 4120   1.320   1.051  10.537
 1195SOL    HW1 4121   1.344   0.985  10.472
 1195SOL    HW2 4122   1.254   1.105  10.493
 1196SOL     OW 4123   1.317   0.856   9.613
 1196SOL    HW1 4124   1.242   0.827   9.667
 1196SOL    HW2 4125   1.287   0.844   9.523
 1197SOL     OW 4126   1.771   1.741  10.460
 1197SOL    HW1 4127   1.834   1.768  10.393
 1197SOL    HW2 4128   1.751   1.650  10.438
 1198SOL     OW 4129   1.240   1.734  10.416
 1198SOL    HW1 4130   1.323   1.758  10.375
 1198SOL    HW2 4131   1.249   1.641  10.435
 1199SOL     OW 4132   0.071   1.187  10.361
 1199SOL    HW1 4133   0.056   1.216  10.451
 1199SOL    HW2 4134   0.040   1.259  10.307
 1200SOL     OW 4135   1.720   0.128   9.793
 1200SOL    HW1 4136   1.787   0.143   9.726
 1200SOL    HW2 4137   1.756   0.059   9.848
 1201SOL     OW 4138   1.392   1.568   9.800
 1201SOL    HW1 4139   1.450   1.601   9.732
 1201SOL    HW2 4140   1.342   1.644   9.828
 1202SOL     OW 4141   1.280   0.931   9.983
 1202SOL    HW1 4142   1.353   0.869   9.991
 1202SOL    HW2 4143   1.314   1.002   9.929
 1203SOL     OW 4144   0.810   1.277  10.733
 1203SOL    HW1 4145   0.780   1.312  10.817
 1203SOL    HW2 4146   0.740   1.298  10.672
 1204SOL     OW 4147   0.672   1.625   9.465
 1204SOL    HW1 4148   0.683   1.639   9.371
 1204SOL    HW2 4149   0.616   1.547   9.472
 1205SOL     OW 4150   1.614   1.724  10.689
 1205SOL    HW1 4151   1.671   1.737  10.614
 1205SOL    HW2 4152   1.601   1.812  10.725
 1206SOL     OW 4153   1.839   0.152  10.275
 1206SOL    HW1 4154   1.869   0.071  10.232
 1206SOL    HW2 4155   1.753   0.168  10.238
 1207SOL     OW 4156   0.257   0.322  10.026
 1207SOL    HW1 4157   0.172   0.356   9.996
 1207SOL    HW2 4158   0.247   0.312  10.120
 1208SOL     OW 4159   1.208   1.602   9.343
 1208SOL    HW1 4160   1.197   1.511   9.369
 1208SOL    HW2 4161   1.143   1.616   9.275
 1209SOL     OW 4162   0.827   1.007  10.692
 1209SOL    HW1 4163   0.871   0.994  10.607
 1209SOL    HW2 4164   0.825   1.102  10.703
 1210SOL     OW 4165   0.915   0.910   9.601
 1210SOL    HW1 4166   0.976   0.943   9.534
 1210SOL    HW2 4167   0.965   0.843   9.647
 1211SOL     OW 4168   1.490   1.628   9.354
 1211SOL    HW1 4169   1.396   1.619   9.339
 1211SOL    HW2 4170   1.528   1.633   9.266
 1212SOL     OW 4171   0.362   1.323  10.810
 1212SOL    HW1 4172   0.350   1.395  10.748
 1212SOL    HW2 4173   0.294   1.259  10.785
 1213SOL     OW 4174   1.613   1.282  10.593
 1213SOL    HW1 4175   1.667   1.262  10.669
 1213SOL    HW2 4176   1.555   1.353  10.622
 1214SOL     OW 4177   1.060   1.110  10.020
 1214SOL    HW1 4178   0.987   1.060  10.057
 1214SOL    HW2 4179   1.124   1.044   9.994
 1215SOL     OW 4180   1.000   0.248  10.323
 1215SOL    HW1 4181   1.008   0.233  10.229
 1215SOL    HW2 4182   0.989   0.161  10.361
 1216SOL     OW 4183   0.607   1.488   9.792
 1216SOL    HW1 4184   0.654   1.439   9.725
 1216SOL    HW2 4185   0.528   1.520   9.748
 1217SOL     OW 4186   1.721   0.393  10.693
 1217SOL    HW1 4187   1.796   0.453  10.696
 1217SOL    HW2 4188   1.749   0.323  10.634
 1218SOL     OW 4189   0.253   1.343   9.583
 1218SOL    HW1 4190   0.158   1.338   9.571
 1218SOL    HW2 4191   0.264   1.375   9.673
 1219SOL     OW 4192   0.112   1.023  10.999
 1219SOL    HW1 4193   0.060   1.039  11.077
 1219SOL    HW2 4194   0.200   1.003  11.033
 1220SOL     OW 4195   0.652   0.199  10.803
 1220SOL    HW1 4196   0.730   0.172  10.755
 1220SOL    HW2 4197   0.684   0.230  10.887
 1221SOL     OW 4198   0.075   0.321   9.333
 1221SOL    HW1 4199   4.482   0.326   9.355
 1221SOL    HW2 4200   0.097   0.409   9.303
 1222SOL     OW 4201   1.426   0.851  10.710
 1222SOL    HW1 4202   1.377   0.919  10.664
 1222SOL    HW2 4203   1.515   0.859  10.675
 1223SOL     OW 4204   0.086   0.187   9.611
 1223SOL    HW1 4205   0.075   0.264   9.556
 1223SOL    HW2 4206   0.167   0.147   9.579
 1224SOL     OW 4207   1.178   1.335   9.427
 1224SOL    HW1 4208   1.087   1.306   9.429
 1224SOL    HW2 4209   1.204   1.336   9.519
 1225SOL     OW 4210   0.629   0.827  10.744
 1225SOL    HW1 4211   0.684   0.904  10.730
 1225SOL    HW2 4212   0.690   0.753  10.746
 1226SOL     OW 4213   1.484   1.784  10.294
 1226SOL    HW1 4214   1.509   1.848  10.227
 1226SOL    HW2 4215   1.567   1.760  10.335
 1227SOL     OW 4216   0.710   0.565  11.013
 1227SOL    HW1 4217   0.761   0.627  11.066
 1227SOL    HW2 4218   0.744   0.479  11.037
 1228SOL     OW 4219   0.382   1.747  10.877
 1228SOL    HW1 4220   0.305   1.803  10.866
 1228SOL    HW2 4221   0.353   1.679  10.938
 1229SOL     OW 4222   1.666   0.881  10.567
 1229SOL    HW1 4223   1.659   0.796  10.524
 1229SOL    HW2 4224   1.656   0.945  10.496
 1230SOL     OW 4225   1.222   0.335   9.754
 1230SOL    HW1 4226   1.291   0.269   9.740
 1230SOL    HW2 4227   1.250   0.383   9.832
 1231SOL     OW 4228   0.583   0.733   9.985
 1231SOL    HW1 4229   0.625   0.818   9.971
 1231SOL    HW2 4230   0.519   0.726   9.915
 1232SOL     OW 4231   1.743   0.313  10.960
 1232SOL    HW1 4232   1.727   0.351  10.874
 1232SOL    HW2 4233   1.666   0.336  11.012
 1233SOL     OW 4234   1.751   0.936  10.825
 1233SOL    HW1 4235   1.740   1.030  10.838
 1233SOL    HW2 4236   1.731   0.923  10.732
 1234SOL     OW 4237   0.865   1.365   9.352
 1234SOL    HW1 4238   0.826   1.393   9.435
 1234SOL    HW2 4239   0.879   1.446   9.304
 1235SOL     OW 4240   0.664   1.785  10.250
 1235SOL    HW1 4241   0.644   1.877  10.229
 1235SOL    HW2 4242   0.759   1.779  10.242
 1236SOL     OW 4243   0.869   0.971  10.163
 1236SOL    HW1 4244   0.920   0.899  10.200
 1236SOL    HW2 4245   0.831   1.014  10.239
 1237SOL     OW 4246   1.077   0.988   9.400
 1237SOL    HW1 4247   1.055   1.040   9.322
 1237SOL    HW2 4248   1.151   0.934   9.372
 1238SOL     OW 4249   1.850   1.555  10.153
 1238SOL    HW1 4250   1.770   1.544  10.101
 1238SOL    HW2 4251   1.838   1.495  10.227
 1239SOL     OW 4252   0.123   1.227   9.978
 1239SOL    HW1 4253   0.143   1.187  10.063
 1239SOL    HW2 4254   0.179   1.180   9.916
 1240SOL     OW 4255   0.682   1.398  10.944
 1240SOL    HW1 4256   0.614   1.346  10.986
 1240SOL    HW2 4257   0.637   1.479  10.917
 1241SOL     OW 4258   1.793   0.175  10.548
 1241SOL    HW1 4259   1.815   0.085  10.570
 1241SOL    HW2 4260   1.812   0.183  10.454
 1242SOL     OW 4261   0.444   0.428   9.845
 1242SOL    HW1 4262   0.456   0.359   9.779
 1242SOL    HW2 4263   0.382   0.391   9.907
 1243SOL     OW 4264   1.703   1.484  10.398
 1243SOL    HW1 4265   1.621   1.463  10.353
 1243SOL    HW2 4266   1.710   1.417  10.466
 1244SOL     OW 4267   0.301   0.508  10.564
 1244SOL    HW1 4268   0.368   0.455  10.607
 1244SOL    HW2 4269   0.330   0.516  10.474
 1245SOL     OW 4270   0.831   1.579   9.985
 1245SOL    HW1 4271   0.811   1.642   9.917
 1245SOL    HW2 4272   0.756   1.520   9.986
 1246SOL     OW 4273   1.429   0.220  10.426
 1246SOL    HW1 4274   1.469   0.152  10.480
 1246SOL    HW2 4275   1.380   0.274  10.488
 1247SOL     OW 4276   0.994   0.001  10.464
 1247SOL    HW1 4277   0.957   4.412  10.456
 1247SOL    HW2 4278   1.088   4.487  10.469
 1248SOL     OW 4279   0.774   1.334   9.630
 1248SOL    HW1 4280   0.747   1.242   9.638
 1248SOL    HW2 4281   0.856   1.339   9.680
 1249SOL     OW 4282   0.621   1.553  10.601
 1249SOL    HW1 4283   0.619   1.638  10.646
 1249SOL    HW2 4284   0.708   1.548  10.561
 1250SOL     OW 4285   1.338   0.051   9.473
 1250SOL    HW1 4286   1.375   4.475   9.427
 1250SOL    HW2 4287   1.261   0.016   9.517
 1251SOL     OW 4288   1.316   0.467   9.980
 1251SOL    HW1 4289   1.260   0.544   9.982
 1251SOL    HW2 4290   1.305   0.427  10.066
 1252SOL     OW 4291   1.585   0.198  10.181
 1252SOL    HW1 4292   1.527   0.214  10.255
 1252SOL    HW2 4293   1.587   0.281  10.133
 1253SOL     OW 4294   0.039   1.049   9.603
 1253SOL    HW1 4295   0.130   1.025   9.590
 1253SOL    HW2 4296   0.021   1.026   9.694
 1254SOL     OW 4297   0.889   1.659   9.648
 1254SOL    HW1 4298   0.815   1.643   9.590
 1254SOL    HW2 4299   0.861   1.731   9.704
 1255SOL     OW 4300   0.236   2.452   0.105
 1255SOL    HW1 4301   0.164   2.443   0.166
 1255SOL    HW2 4302   0.201   2.503   0.033
 1256SOL     OW 4303   0.212   2.136   0.991
 1256SOL    HW1 4304   0.249   2.109   1.075
 1256SOL    HW2 4305   0.138   2.077   0.977
 1257SOL     OW 4306   0.006   2.262   0.638
 1257SOL    HW1 4307   4.426   2.295   0.677
 1257SOL    HW2 4308   4.480   2.179   0.597
 1258SOL     OW 4309   0.569   3.158   1.182
 1258SOL    HW1 4310   0.483   3.163   1.142
 1258SOL    HW2 4311   0.585   3.246   1.217
 1259SOL     OW 4312   1.569   3.376   0.708
 1259SOL    HW1 4313   1.526   3.352   0.790
 1259SOL    HW2 4314   1.498   3.379   0.644
 1260SOL     OW 4315   1.132   2.561   0.696
 1260SOL    HW1 4316   1.181   2.643   0.684
 1260SOL    HW2 4317   1.085   2.573   0.778
 1261SOL     OW 4318   1.776   2.465   0.218
 1261SOL    HW1 4319   1.726   2.469   0.137
 1261SOL    HW2 4320   1.744   2.386   0.262
 1262SOL     OW 4321   0.746   3.000   1.045
 1262SOL    HW1 4322   0.680   3.037   1.103
 1262SOL    HW2 4323   0.786   3.075   1.002
 1263SOL     OW 4324   0.873   2.624   1.822
 1263SOL    HW1 4325   0.858   2.694   1.886
 1263SOL    HW2 4326   0.896   2.671   1.741
 1264SOL     OW 4327   0.684   2.860   0.646
 1264SOL    HW1 4328   0.751   2.851   0.714
 1264SOL    HW2 4329   0.616   2.914   0.686
 1265SOL     OW 4330   0.714   3.010   1.819
 1265SOL    HW1 4331   0.761   3.088   1.848
 1265SOL    HW2 4332   0.634   3.045   1.779
 1266SOL     OW 4333   0.333   3.279   1.068
 1266SOL    HW1 4334   0.252   3.259   1.021
 1266SOL    HW2 4335   0.382   3.334   1.007
 1267SOL     OW 4336   1.459   3.364   1.360
 1267SOL    HW1 4337   1.513   3.442   1.370
 1267SOL    HW2 4338   1.391   3.373   1.427
 1268SOL     OW 4339   0.450   2.263   1.481
 1268SOL    HW1 4340   0.528   2.209   1.490
 1268SOL    HW2 4341   0.377   2.202   1.494
 1269SOL     OW 4342   1.604   2.304   0.745
 1269SOL    HW1 4343   1.531   2.321   0.686
 1269SOL    HW2 4344   1.612   2.384   0.797
 1270SOL     OW 4345   0.245   3.554   0.478
 1270SOL    HW1 4346   0.232   3.641   0.517
 1270SOL    HW2 4347   0.312   3.567   0.412
 1271SOL     OW 4348   1.137   3.204   1.694
 1271SOL    HW1 4349   1.178   3.198   1.781
 1271SOL    HW2 4350   1.085   3.124   1.686
 1272SOL     OW 4351   0.249   3.289   0.526
 1272SOL    HW1 4352   0.240   3.384   0.526
 1272SOL    HW2 4353   0.188   3.259   0.594
 1273SOL     OW 4354   0.255   2.945   0.886
 1273SOL    HW1 4355   0.268   2.853   0.909
 1273SOL    HW2 4356   0.193   2.977   0.952
 1274SOL     OW 4357   0.607   3.654   1.429
 1274SOL    HW1 4358   0.524   3.636   1.474
 1274SOL    HW2 4359   0.629   3.744   1.455
 1275SOL     OW 4360   0.562   2.859   0.158
 1275SOL    HW1 4361   0.615   2.891   0.085
 1275SOL    HW2 4362   0.608   2.888   0.236
 1276SOL     OW 4363   1.589   1.989   1.462
 1276SOL    HW1 4364   1.618   2.068   1.416
 1276SOL    HW2 4365   1.576   2.017   1.553
 1277SOL     OW 4366   0.135   2.514   0.569
 1277SOL    HW1 4367   0.092   2.432   0.595
 1277SOL    HW2 4368   0.108   2.577   0.637
 1278SOL     OW 4369   1.844   3.618   0.328
 1278SOL    HW1 4370   1.913   3.590   0.389
 1278SOL    HW2 4371   1.864   3.709   0.310
 1279SOL     OW 4372   0.078   3.448   0.151
 1279SOL    HW1 4373   0.046   3.359   0.166
 1279SOL    HW2 4374   0.051   3.496   0.229
 1280SOL     OW 4375   1.689   2.781   0.644
 1280SOL    HW1 4376   1.769   2.735   0.617
 1280SOL    HW2 4377   1.665   2.834   0.569
 1281SOL     OW 4378   1.648   2.964   0.432
 1281SOL    HW1 4379   1.732   2.970   0.385
 1281SOL    HW2 4380   1.655   3.029   0.502
 1282SOL     OW 4381   0.109   2.629   1.570
 1282SOL    HW1 4382   0.195   2.617   1.530
 1282SOL    HW2 4383   0.109   2.720   1.600
 1283SOL     OW 4384   0.617   3.253   0.737
 1283SOL    HW1 4385   0.571   3.169   0.747
 1283SOL    HW2 4386   0.599   3.279   0.646
 1284SOL     OW 4387   1.286   3.098   1.421
 1284SOL    HW1 4388   1.316   3.030   1.361
 1284SOL    HW2 4389   1.345   3.093   1.496
 1285SOL     OW 4390   0.823   1.866   0.516
 1285SOL    HW1 4391   0.861   1.951   0.494
 1285SOL    HW2 4392   0.728   1.883   0.520
 1286SOL     OW 4393   0.176   2.800   1.278
 1286SOL    HW1 4394   0.267   2.779   1.259
 1286SOL    HW2 4395   0.132   2.800   1.193
 1287SOL     OW 4396   1.506   2.873   0.208
 1287SOL    HW1 4397   1.444   2.812   0.246
 1287SOL    HW2 4398   1.562   2.900   0.281
 1288SOL     OW 4399   1.185   3.674   1.625
 1288SOL    HW1 4400   1.190   3.734   1.551
 1288SOL    HW2 4401   1.202   3.588   1.588
 1289SOL     OW 4402   0.335   2.119   1.808
 1289SOL    HW1 4403   0.379   2.194   1.849
 1289SOL    HW2 4404   0.245   2.125   1.839
 1290SOL     OW 4405   1.468   3.281   0.947
 1290SOL    HW1 4406   1.400   3.297   1.014
 1290SOL    HW2 4407   1.454   3.190   0.921
 1291SOL     OW 4408   1.654   3.613   0.578
 1291SOL    HW1 4409   1.636   3.581   0.490
 1291SOL    HW2 4410   1.634   3.539   0.635
 1292SOL     OW 4411   0.595   2.574   0.268
 1292SOL    HW1 4412   0.598   2.659   0.225
 1292SOL    HW2 4413   0.531   2.586   0.339
 1293SOL     OW 4414   1.278   2.225   0.934
 1293SOL    HW1 4415   1.190   2.190   0.943
 1293SOL    HW2 4416   1.332   2.170   0.992
 1294SOL     OW 4417   1.582   3.535   0.314
 1294SOL    HW1 4418   1.674   3.560   0.306
 1294SOL    HW2 4419   1.554   3.516   0.225
 1295SOL     OW 4420   0.793   2.477   1.449
 1295SOL    HW1 4421   0.766   2.451   1.537
 1295SOL    HW2 4422   0.756   2.410   1.392
 1296SOL     OW 4423   1.392   2.337   1.678
 1296SOL    HW1 4424   1.397   2.380   1.763
 1296SOL    HW2 4425   1.449   2.260   1.687
 1297SOL     OW 4426   0.951   2.747   1.585
 1297SOL    HW1 4427   1.006   2.679   1.547
 1297SOL    HW2 4428   0.904   2.785   1.511
 1298SOL     OW 4429   0.993   2.275   1.235
 1298SOL    HW1 4430   0.904   2.291   1.267
 1298SOL    HW2 4431   0.980   2.229   1.151
 1299SOL     OW 4432   1.053   2.565   0.426
 1299SOL    HW1 4433   1.073   2.558   0.520
 1299SOL    HW2 4434   0.970   2.519   0.415
 1300SOL     OW 4435   0.092   2.690   0.786
 1300SOL    HW1 4436   0.177   2.681   0.829
 1300SOL    HW2 4437   0.028   2.693   0.857
 1301SOL     OW 4438   0.121   3.723   1.580
 1301SOL    HW1 4439   0.115   3.699   1.673
 1301SOL    HW2 4440   0.045   3.682   1.540
 1302SOL     OW 4441   0.892   2.215   0.213
 1302SOL    HW1 4442   0.935   2.275   0.152
 1302SOL    HW2 4443   0.905   2.128   0.174
 1303SOL     OW 4444   1.708   2.441   1.832
 1303SOL    HW1 4445   1.671   2.515   1.784
 1303SOL    HW2 4446   1.724   2.374   1.765
 1304SOL     OW 4447   1.381   3.003   0.541
 1304SOL    HW1 4448   1.459   2.991   0.486
 1304SOL    HW2 4449   1.327   3.065   0.492
 1305SOL     OW 4450   0.554   2.040   0.896
 1305SOL    HW1 4451   0.556   2.072   0.985
 1305SOL    HW2 4452   0.554   2.118   0.841
 1306SOL     OW 4453   0.998   3.304   0.472
 1306SOL    HW1 4454   0.967   3.379   0.421
 1306SOL    HW2 4455   0.975   3.325   0.562
 1307SOL     OW 4456   0.358   3.677   0.863
 1307SOL    HW1 4457   0.400   3.591   0.873
 1307SOL    HW2 4458   0.428   3.740   0.881
 1308SOL     OW 4459   1.802   2.912   0.871
 1308SOL    HW1 4460   1.749   2.894   0.793
 1308SOL    HW2 4461   1.737   2.920   0.942
 1309SOL     OW 4462   1.227   3.402   1.513
 1309SOL    HW1 4463   1.215   3.329   1.575
 1309SOL    HW2 4464   1.160   3.388   1.446
 1310SOL     OW 4465   0.305   2.813   0.285
 1310SOL    HW1 4466   0.387   2.840   0.242
 1310SOL    HW2 4467   0.315   2.719   0.297
 1311SOL     OW 4468   1.481   2.610   0.723
 1311SOL    HW1 4469   1.477   2.570   0.810
 1311SOL    HW2 4470   1.559   2.665   0.726
 1312SOL     OW 4471   0.471   3.128   1.735
 1312SOL    HW1 4472   0.445   3.134   1.643
 1312SOL    HW2 4473   0.389   3.127   1.784
 1313SOL     OW 4474   1.108   3.644   0.225
 1313SOL    HW1 4475   1.046   3.594   0.279
 1313SOL    HW2 4476   1.151   3.578   0.171
 1314SOL     OW 4477   0.201   2.137   1.485
 1314SOL    HW1 4478   0.144   2.213   1.492
 1314SOL    HW2 4479   0.180   2.083   1.560
 1315SOL     OW 4480   1.628   3.235   0.090
 1315SOL    HW1 4481   1.585   3.320   0.080
 1315SOL    HW2 4482   1.563   3.171   0.060
 1316SOL     OW 4483   0.467   3.604   0.317
 1316SOL    HW1 4484   0.510   3.661   0.381
 1316SOL    HW2 4485   0.539   3.569   0.264
 1317SOL     OW 4486   1.401   1.969   0.436
 1317SOL    HW1 4487   1.394   1.948   0.343
 1317SOL    HW2 4488   1.495   1.978   0.452
 1318SOL     OW 4489   0.257   3.654   1.223
 1318SOL    HW1 4490   0.301   3.576   1.258
 1318SOL    HW2 4491   0.216   3.624   1.142
 1319SOL     OW 4492   0.939   3.562   0.896
 1319SOL    HW1 4493   1.018   3.512   0.918
 1319SOL    HW2 4494   0.897   3.511   0.826
 1320SOL     OW 4495   0.391   2.557   0.464
 1320SOL    HW1 4496   0.416   2.466   0.479
 1320SOL    HW2 4497   0.301   2.563   0.496
 1321SOL     OW 4498   1.526   2.085   1.725
 1321SOL    HW1 4499   1.535   2.104   1.819
 1321SOL    HW2 4500   1.460   2.016   1.721
 1322SOL     OW 4501   0.619   1.968   0.124
 1322SOL    HW1 4502   0.707   1.930   0.120
 1322SOL    HW2 4503   0.579   1.944   0.040
 1323SOL     OW 4504   0.764   2.142   1.755
 1323SOL    HW1 4505   0.844   2.090   1.752
 1323SOL    HW2 4506   0.718   2.110   1.833
 1324SOL     OW 4507   0.876   3.386   1.194
 1324SOL    HW1 4508   0.859   3.348   1.108
 1324SOL    HW2 4509   0.946   3.331   1.231
 1325SOL     OW 4510   1.338   2.452   1.433
 1325SOL    HW1 4511   1.370   2.420   1.517
 1325SOL    HW2 4512   1.376   2.539   1.424
 1326SOL     OW 4513   0.819   3.252   0.946
 1326SOL    HW1 4514   0.903   3.241   0.902
 1326SOL    HW2 4515   0.755   3.258   0.875
 1327SOL     OW 4516   0.929   2.371   0.901
 1327SOL    HW1 4517   0.904   2.363   0.809
 1327SOL    HW2 4518   0.959   2.284   0.926
 1328SOL     OW 4519   0.558   1.923   0.501
 1328SOL    HW1 4520   0.477   1.920   0.551
 1328SOL    HW2 4521   0.550   2.002   0.447
 1329SOL     OW 4522   1.421   3.061   0.025
 1329SOL    HW1 4523   1.450   2.990   0.083
 1329SOL    HW2 4524   1.339   3.091   0.063
 1330SOL     OW 4525   0.284   1.910   0.190
 1330SOL    HW1 4526   0.331   1.962   0.124
 1330SOL    HW2 4527   0.349   1.847   0.221
 1331SOL     OW 4528   0.943   2.111   0.463
 1331SOL    HW1 4529   0.916   2.153   0.381
 1331SOL    HW2 4530   1.038   2.126   0.468
 1332SOL     OW 4531   1.081   2.546   1.457
 1332SOL    HW1 4532   1.015   2.476   1.461
 1332SOL    HW2 4533   1.164   2.500   1.451
 1333SOL     OW 4534   1.219   3.434   0.795
 1333SOL    HW1 4535   1.234   3.499   0.726
 1333SOL    HW2 4536   1.290   3.450   0.858
 1334SOL     OW 4537   0.472   3.016   0.735
 1334SOL    HW1 4538   0.404   2.996   0.800
 1334SOL    HW2 4539   0.428   3.006   0.650
 1335SOL     OW 4540   1.265   3.655   0.610
 1335SOL    HW1 4541   1.314   3.716   0.555
 1335SOL    HW2 4542   1.198   3.708   0.652
 1336SOL     OW 4543   1.009   2.395   0.046
 1336SOL    HW1 4544   0.975   2.483   0.033
 1336SOL    HW2 4545   1.090   2.408   0.096
 1337SOL     OW 4546   0.076   2.377   1.410
 1337SOL    HW1 4547   0.141   2.371   1.340
 1337SOL    HW2 4548   0.065   2.471   1.425
 1338SOL     OW 4549   0.559   2.090   1.169
 1338SOL    HW1 4550   0.604   2.015   1.208
 1338SOL    HW2 4551   0.467   2.078   1.194
 1339SOL     OW 4552   0.867   2.321   0.640
 1339SOL    HW1 4553   0.824   2.376   0.574
 1339SOL    HW2 4554   0.889   2.241   0.593
 1340SOL     OW 4555   1.017   1.917   0.748
 1340SOL    HW1 4556   0.958   1.910   0.673
 1340SOL    HW2 4557   0.994   1.842   0.803
 1341SOL     OW 4558   1.439   3.023   0.856
 1341SOL    HW1 4559   1.368   2.959   0.856
 1341SOL    HW2 4560   1.465   3.032   0.764
 1342SOL     OW 4561   1.464   2.472   0.970
 1342SOL    HW1 4562   1.409   2.393   0.971
 1342SOL    HW2 4563   1.520   2.463   1.046
 1343SOL     OW 4564   1.848   2.670   0.387
 1343SOL    HW1 4565   1.906   2.619   0.444
 1343SOL    HW2 4566   1.821   2.609   0.319
 1344SOL     OW 4567   0.497   3.285   0.173
 1344SOL    HW1 4568   0.417   3.260   0.220
 1344SOL    HW2 4569   0.494   3.234   0.093
 1345SOL     OW 4570   1.675   3.126   0.645
 1345SOL    HW1 4571   1.770   3.126   0.658
 1345SOL    HW2 4572   1.647   3.215   0.664
 1346SOL     OW 4573   1.389   2.430   0.081
 1346SOL    HW1 4574   1.328   2.412   0.152
 1346SOL    HW2 4575   1.447   2.353   0.080
 1347SOL     OW 4576   0.528   2.126   0.326
 1347SOL    HW1 4577   0.558   2.066   0.258
 1347SOL    HW2 4578   0.507   2.207   0.278
 1348SOL     OW 4579   1.749   3.104   1.564
 1348SOL    HW1 4580   1.836   3.065   1.559
 1348SOL    HW2 4581   1.764   3.194   1.593
 1349SOL     OW 4582   1.055   3.216   1.332
 1349SOL    HW1 4583   0.979   3.185   1.382
 1349SOL    HW2 4584   1.130   3.174   1.374
 1350SOL     OW 4585   1.610   3.490   1.658
 1350SOL    HW1 4586   1.601   3.523   1.569
 1350SOL    HW2 4587   1.691   3.440   1.657
 1351SOL     OW 4588   1.135   3.072   1.103
 1351SOL    HW1 4589   1.074   3.109   1.166
 1351SOL    HW2 4590   1.105   3.106   1.018
 1352SOL     OW 4591   1.624   2.959   1.075
 1352SOL    HW1 4592   1.618   3.021   1.147
 1352SOL    HW2 4593   1.548   2.977   1.020
 1353SOL     OW 4594   0.917   1.957   1.392
 1353SOL    HW1 4595   0.940   1.937   1.301
 1353SOL    HW2 4596   0.997   1.996   1.429
 1354SOL     OW 4597   0.984   2.977   1.723
 1354SOL    HW1 4598   0.893   2.993   1.748
 1354SOL    HW2 4599   0.981   2.898   1.669
 1355SOL     OW 4600   0.712   2.921   0.376
 1355SOL    HW1 4601   0.700   2.902   0.469
 1355SOL    HW2 4602   0.787   2.867   0.350
 1356SOL     OW 4603   0.432   2.693   1.249
 1356SOL    HW1 4604   0.503   2.708   1.312
 1356SOL    HW2 4605   0.378   2.625   1.288
 1357SOL     OW 4606   1.263   2.237   1.280
 1357SOL    HW1 4607   1.296   2.314   1.325
 1357SOL    HW2 4608   1.173   2.258   1.258
 1358SOL     OW 4609   0.065   3.436   1.347
 1358SOL    HW1 4610   0.039   3.527   1.334
 1358SOL    HW2 4611   0.161   3.438   1.351
 1359SOL     OW 4612   0.335   2.988   0.500
 1359SOL    HW1 4613   0.338   3.063   0.441
 1359SOL    HW2 4614   0.328   2.912   0.442
 1360SOL     OW 4615   0.557   2.389   0.853
 1360SOL    HW1 4616   0.570   2.449   0.780
 1360SOL    HW2 4617   0.620   2.417   0.919
 1361SOL     OW 4618   1.246   3.208   0.400
 1361SOL    HW1 4619   1.301   3.281   0.427
 1361SOL    HW2 4620   1.158   3.232   0.430
 1362SOL     OW 4621   1.288   3.322   1.148
 1362SOL    HW1 4622   1.343   3.326   1.226
 1362SOL    HW2 4623   1.232   3.246   1.161
 1363SOL     OW 4624   1.579   2.482   0.484
 1363SOL    HW1 4625   1.528   2.528   0.551
 1363SOL    HW2 4626   1.613   2.552   0.428
 1364SOL     OW 4627   0.345   3.398   1.309
 1364SOL    HW1 4628   0.332   3.349   1.228
 1364SOL    HW2 4629   0.440   3.407   1.318
 1365SOL     OW 4630   0.493   2.614   1.674
 1365SOL    HW1 4631   0.525   2.655   1.594
 1365SOL    HW2 4632   0.556   2.544   1.691
 1366SOL     OW 4633   1.606   2.646   1.687
 1366SOL    HW1 4634   1.520   2.686   1.680
 1366SOL    HW2 4635   1.658   2.687   1.617
 1367SOL     OW 4636   0.996   1.994   1.753
 1367SOL    HW1 4637   1.055   2.066   1.730
 1367SOL    HW2 4638   1.043   1.915   1.728
 1368SOL     OW 4639   0.496   1.903   1.749
 1368SOL    HW1 4640   0.452   1.848   1.685
 1368SOL    HW2 4641   0.439   1.980   1.758
 1369SOL     OW 4642   0.591   2.737   1.026
 1369SOL    HW1 4643   0.624   2.827   1.028
 1369SOL    HW2 4644   0.535   2.730   1.104
 1370SOL     OW 4645   1.349   2.720   1.023
 1370SOL    HW1 4646   1.264   2.707   0.983
 1370SOL    HW2 4647   1.394   2.636   1.014
 1371SOL     OW 4648   1.196   2.385   0.269
 1371SOL    HW1 4649   1.206   2.308   0.325
 1371SOL    HW2 4650   1.154   2.451   0.325
 1372SOL     OW 4651   0.300   2.049   1.241
 1372SOL    HW1 4652   0.262   2.080   1.323
 1372SOL    HW2 4653   0.283   1.954   1.241
 1373SOL     OW 4654   0.018   3.174   1.288
 1373SOL    HW1 4655   0.063   3.125   1.357
 1373SOL    HW2 4656   0.031   3.266   1.311
 1374SOL     OW 4657   0.722   2.490   1.053
 1374SOL    HW1 4658   0.799   2.476   0.998
 1374SOL    HW2 4659   0.695   2.580   1.033
 1375SOL     OW 4660   1.738   2.823   1.858
 1375SOL    HW1 4661   1.694   2.757   1.804
 1375SOL    HW2 4662   1.677   2.839   1.930
 1376SOL     OW 4663   0.317   1.931   0.620
 1376SOL    HW1 4664   0.289   2.019   0.643
 1376SOL    HW2 4665   0.317   1.883   0.702
 1377SOL     OW 4666   1.623   2.240   0.360
 1377SOL    HW1 4667   1.652   2.175   0.424
 1377SOL    HW2 4668   1.599   2.316   0.412
 1378SOL     OW 4669   1.029   2.620   0.958
 1378SOL    HW1 4670   1.021   2.637   1.052
 1378SOL    HW2 4671   1.002   2.529   0.948
 1379SOL     OW 4672   0.983   3.429   1.721
 1379SOL    HW1 4673   0.966   3.472   1.637
 1379SOL    HW2 4674   1.025   3.347   1.697
 1380SOL     OW 4675   1.852   3.363   1.604
 1380SOL    HW1 4676   1.873   3.391   1.515
 1380SOL    HW2 4677   1.933   3.378   1.654
 1381SOL     OW 4678   0.348   2.797   1.816
 1381SOL    HW1 4679   0.417   2.829   1.874
 1381SOL    HW2 4680   0.389   2.728   1.765
 1382SOL     OW 4681   1.524   2.167   0.112
 1382SOL    HW1 4682   1.470   2.090   0.127
 1382SOL    HW2 4683   1.564   2.186   0.197
 1383SOL     OW 4684   1.284   2.677   0.033
 1383SOL    HW1 4685   1.327   2.593   0.043
 1383SOL    HW2 4686   1.327   2.718  11.058
 1384SOL     OW 4687   1.069   3.200   0.856
 1384SOL    HW1 4688   1.073   3.128   0.793
 1384SOL    HW2 4689   1.127   3.267   0.820
 1385SOL     OW 4690   0.319   2.673   0.942
 1385SOL    HW1 4691   0.413   2.690   0.943
 1385SOL    HW2 4692   0.312   2.580   0.966
 1386SOL     OW 4693   0.324   2.389   0.984
 1386SOL    HW1 4694   0.286   2.302   0.969
 1386SOL    HW2 4695   0.404   2.390   0.932
 1387SOL     OW 4696   1.134   2.235   1.685
 1387SOL    HW1 4697   1.086   2.289   1.748
 1387SOL    HW2 4698   1.221   2.275   1.681
 1388SOL     OW 4699   1.159   2.061   1.471
 1388SOL    HW1 4700   1.149   2.124   1.542
 1388SOL    HW2 4701   1.203   2.110   1.402
 1389SOL     OW 4702   0.001   3.185   0.210
 1389SOL    HW1 4703   4.408   3.205   0.200
 1389SOL    HW2 4704   0.003   3.093   0.237
 1390SOL     OW 4705   0.102   3.631   0.941
 1390SOL    HW1 4706   0.062   3.589   0.865
 1390SOL    HW2 4707   0.190   3.654   0.911
 1391SOL     OW 4708   0.493   3.436   0.908
 1391SOL    HW1 4709   0.561   3.499   0.931
 1391SOL    HW2 4710   0.536   3.375   0.848
 1392SOL     OW 4711   0.976   2.650   1.223
 1392SOL    HW1 4712   1.035   2.631   1.296
 1392SOL    HW2 4713   0.892   2.611   1.249
 1393SOL     OW 4714   0.024   2.421   1.088
 1393SOL    HW1 4715   0.116   2.402   1.069
 1393SOL    HW2 4716   0.006   2.374   1.169
 1394SOL     OW 4717   0.179   2.391   1.718
 1394SOL    HW1 4718   0.262   2.360   1.680
 1394SOL    HW2 4719   0.158   2.470   1.668
 1395SOL     OW 4720   1.379   2.797   1.657
 1395SOL    HW1 4721   1.400   2.890   1.653
 1395SOL    HW2 4722   1.375   2.769   1.565
 1396SOL     OW 4723   0.818   2.436   0.372
 1396SOL    HW1 4724   0.827   2.360   0.315
 1396SOL    HW2 4725   0.743   2.484   0.337
 1397SOL     OW 4726   1.638   2.467   1.182
 1397SOL    HW1 4727   1.630   2.404   1.255
 1397SOL    HW2 4728   1.727   2.454   1.151
 1398SOL     OW 4729   0.275   3.424   1.740
 1398SOL    HW1 4730   0.212   3.474   1.791
 1398SOL    HW2 4731   0.258   3.333   1.764
 1399SOL     OW 4732   0.706   2.311   1.256
 1399SOL    HW1 4733   0.652   2.236   1.228
 1399SOL    HW2 4734   0.699   2.373   1.183
 1400SOL     OW 4735   0.924   3.541   1.470
 1400SOL    HW1 4736   0.899   3.501   1.386
 1400SOL    HW2 4737   0.916   3.635   1.455
 1401SOL     OW 4738   0.474   2.343   0.170
 1401SOL    HW1 4739   0.530   2.415   0.198
 1401SOL    HW2 4740   0.390   2.384   0.150
 1402SOL     OW 4741   0.160   3.004   1.456
 1402SOL    HW1 4742   0.144   2.962   1.540
 1402SOL    HW2 4743   0.167   2.932   1.393
 1403SOL     OW 4744   1.322   2.906   1.220
 1403SOL    HW1 4745   1.343   2.842   1.152
 1403SOL    HW2 4746   1.255   2.962   1.180
 1404SOL     OW 4747   1.307   2.713   0.311
 1404SOL    HW1 4748   1.233   2.677   0.359
 1404SOL    HW2 4749   1.287   2.696   0.219
 1405SOL     OW 4750   1.779   3.599   1.157
 1405SOL    HW1 4751   1.838   3.626   1.086
 1405SOL    HW2 4752   1.751   3.511   1.133
 1406SOL     OW 4753   1.240   3.595   1.108
 1406SOL    HW1 4754   1.322   3.619   1.065
 1406SOL    HW2 4755   1.249   3.502   1.127
 1407SOL     OW 4756   0.071   3.048   1.051
 1407SOL    HW1 4757   0.055   3.077   1.141
 1407SOL    HW2 4758   0.041   3.121   0.996
 1408SOL     OW 4759   0.680   3.533   1.738
 1408SOL    HW1 4760   0.619   3.605   1.727
 1408SOL    HW2 4761   0.747   3.547   1.671
 1409SOL     OW 4762   0.922   1.954   0.098
 1409SOL    HW1 4763   0.968   1.916   0.023
 1409SOL    HW2 4764   0.963   1.914   0.174
 1410SOL     OW 4765   1.722   2.015   0.505
 1410SOL    HW1 4766   1.792   1.998   0.441
 1410SOL    HW2 4767   1.706   1.929   0.545
 1411SOL     OW 4768   1.392   3.430   0.491
 1411SOL    HW1 4769   1.452   3.463   0.424
 1411SOL    HW2 4770   1.343   3.507   0.519
 1412SOL     OW 4771   0.116   3.668   1.850
 1412SOL    HW1 4772   0.074   3.598   1.900
 1412SOL    HW2 4773   0.180   3.706   1.910
 1413SOL     OW 4774   1.278   2.790   0.672
 1413SOL    HW1 4775   1.352   2.729   0.681
 1413SOL    HW2 4776   1.312   2.861   0.618
 1414SOL     OW 4777   0.806   3.139   1.425
 1414SOL    HW1 4778   0.779   3.179   1.507
 1414SOL    HW2 4779   0.735   3.158   1.364
 1415SOL     OW 4780   0.674   3.486   0.170
 1415SOL    HW1 4781   0.698   3.489   0.077
 1415SOL    HW2 4782   0.617   3.410   0.178
 1416SOL     OW 4783   1.620   3.589   1.392
 1416SOL    HW1 4784   1.673   3.594   1.312
 1416SOL    HW2 4785   1.606   3.680   1.417
 1417SOL     OW 4786   1.850   2.044   0.966
 1417SOL    HW1 4787   1.884   1.957   0.944
 1417SOL    HW2 4788   1.764   2.047   0.924
 1418SOL     OW 4789   0.260   2.181   0.717
 1418SOL    HW1 4790   0.177   2.220   0.691
 1418SOL    HW2 4791   0.252   2.166   0.811
 1419SOL     OW 4792   1.223   3.460   0.056
 1419SOL    HW1 4793   1.212   3.367   0.076
 1419SOL    HW2 4794   1.158   3.478  11.088
 1420SOL     OW 4795   0.827   2.870   1.374
 1420SOL    HW1 4796   0.869   2.865   1.288
 1420SOL    HW2 4797   0.822   2.964   1.393
 1421SOL     OW 4798   0.914   2.767   0.279
 1421SOL    HW1 4799   0.978   2.809   0.222
 1421SOL    HW2 4800   0.965   2.706   0.333
 1422SOL     OW 4801   1.497   3.484   0.051
 1422SOL    HW1 4802   1.401   3.476   0.050
 1422SOL    HW2 4803   1.520   3.498  11.059
 1423SOL     OW 4804   0.373   3.173   1.490
 1423SOL    HW1 4805   0.355   3.252   1.439
 1423SOL    HW2 4806   0.299   3.115   1.472
 1424SOL     OW 4807   1.609   3.147   1.280
 1424SOL    HW1 4808   1.666   3.130   1.355
 1424SOL    HW2 4809   1.548   3.213   1.311
 1425SOL     OW 4810   1.059   2.972   0.709
 1425SOL    HW1 4811   0.988   2.921   0.747
 1425SOL    HW2 4812   1.124   2.906   0.683
 1426SOL     OW 4813   1.023   2.104   0.966
 1426SOL    HW1 4814   1.020   2.057   0.883
 1426SOL    HW2 4815   1.018   2.035   1.033
 1427SOL     OW 4816   0.605   3.351   0.482
 1427SOL    HW1 4817   0.648   3.301   0.413
 1427SOL    HW2 4818   0.527   3.388   0.439
 1428SOL     OW 4819   1.722   2.259   1.382
 1428SOL    HW1 4820   1.797   2.319   1.383
 1428SOL    HW2 4821   1.750   2.188   1.325
 1429SOL     OW 4822   0.268   3.186   0.284
 1429SOL    HW1 4823   0.180   3.192   0.247
 1429SOL    HW2 4824   0.261   3.229   0.369
 1430SOL     OW 4825   0.117   2.868   1.691
 1430SOL    HW1 4826   0.053   2.913   1.746
 1430SOL    HW2 4827   0.195   2.861   1.746
 1431SOL     OW 4828   0.677   2.060   1.499
 1431SOL    HW1 4829   0.760   2.036   1.459
 1431SOL    HW2 4830   0.700   2.090   1.587
 1432SOL     OW 4831   0.060   2.205   0.002
 1432SOL    HW1 4832   4.478   2.175   0.042
 1432SOL    HW2 4833   0.073   2.293   0.037
 1433SOL     OW 4834   1.426   2.720   1.398
 1433SOL    HW1 4835   1.377   2.781   1.343
 1433SOL    HW2 4836   1.515   2.722   1.362
 1434SOL     OW 4837   0.078   2.027   0.310
 1434SOL    HW1 4838   0.085   2.116   0.276
 1434SOL    HW2 4839   0.153   1.981   0.273
 1435SOL     OW 4840   1.187   3.197   0.124
 1435SOL    HW1 4841   1.093   3.184   0.113
 1435SOL    HW2 4842   1.203   3.188   0.218
 1436SOL     OW 4843   0.628   2.694   1.437
 1436SOL    HW1 4844   0.685   2.769   1.422
 1436SOL    HW2 4845   0.687   2.619   1.440
 1437SOL     OW 4846   1.482   3.646   0.982
 1437SOL    HW1 4847   1.504   3.710   0.915
 1437SOL    HW2 4848   1.567   3.618   1.018
 1438SOL     OW 4849   0.710   2.426   1.704
 1438SOL    HW1 4850   0.762   2.483   1.761
 1438SOL    HW2 4851   0.731   2.337   1.733
 1439SOL     OW 4852   1.473   3.057   1.629
 1439SOL    HW1 4853   1.461   3.072   1.723
 1439SOL    HW2 4854   1.566   3.076   1.614
 1440SOL     OW 4855   0.375   3.608   1.566
 1440SOL    HW1 4856   0.291   3.650   1.548
 1440SOL    HW2 4857   0.353   3.529   1.615
 1441SOL     OW 4858   1.666   2.743   1.254
 1441SOL    HW1 4859   1.658   2.658   1.212
 1441SOL    HW2 4860   1.655   2.806   1.183
 1442SOL     OW 4861   1.215   2.179   0.460
 1442SOL    HW1 4862   1.279   2.108   0.451
 1442SOL    HW2 4863   1.245   2.229   0.536
 1443SOL     OW 4864   0.587   2.596   0.670
 1443SOL    HW1 4865   0.625   2.683   0.658
 1443SOL    HW2 4866   0.520   2.590   0.602
 1444SOL     OW 4867   1.743   2.237   1.658
 1444SOL    HW1 4868   1.738   2.244   1.563
 1444SOL    HW2 4869   1.674   2.175   1.681
 1445SOL     OW 4870   1.746   2.796   1.511
 1445SOL    HW1 4871   1.737   2.891   1.523
 1445SOL    HW2 4872   1.730   2.782   1.417
 1446SOL     OW 4873   0.914   3.217   0.080
 1446SOL    HW1 4874   0.848   3.209   0.149
 1446SOL    HW2 4875   0.889   3.296   0.031
 1447SOL     OW 4876   0.664   3.647   0.941
 1447SOL    HW1 4877   0.645   3.738   0.919
 1447SOL    HW2 4878   0.759   3.640   0.932
 1448SOL     OW 4879   0.870   2.832   0.853
 1448SOL    HW1 4880   0.919   2.759   0.891
 1448SOL    HW2 4881   0.832   2.877   0.929
 1449SOL     OW 4882   1.076   2.850   0.081
 1449SOL    HW1 4883   1.050   2.877  11.093
 1449SOL    HW2 4884   1.153   2.794   0.067
 1450SOL     OW 4885   1.848   3.416   0.843
 1450SOL    HW1 4886   1.770   3.404   0.789
 1450SOL    HW2 4887   1.839   3.350   0.912
 1451SOL     OW 4888   0.234   3.165   1.861
 1451SOL    HW1 4889   0.149   3.124   1.844
 1451SOL    HW2 4890   0.237   3.176   1.956
 1452SOL     OW 4891   0.119   3.083   0.670
 1452SOL    HW1 4892   0.145   3.046   0.754
 1452SOL    HW2 4893   0.182   3.048   0.608
 1453SOL     OW 4894   0.686   3.269   1.632
 1453SOL    HW1 4895   0.606   3.225   1.661
 1453SOL    HW2 4896   0.681   3.357   1.669
 1454SOL     OW 4897   1.811   2.061   1.231
 1454SOL    HW1 4898   1.843   1.976   1.263
 1454SOL    HW2 4899   1.823   2.057   1.136
 1455SOL     OW 4900   0.432   2.299   0.526
 1455SOL    HW1 4901   0.465   2.226   0.472
 1455SOL    HW2 4902   0.383   2.256   0.596
 1456SOL     OW 4903   1.697   3.348   1.093
 1456SOL    HW1 4904   1.618   3.329   1.042
 1456SOL    HW2 4905   1.701   3.279   1.158
 1457SOL     OW 4906   0.293   2.353   1.250
 1457SOL    HW1 4907   0.366   2.305   1.289
 1457SOL    HW2 4908   0.320   2.368   1.159
 1458SOL     OW 4909   0.830   3.440   0.676
 1458SOL    HW1 4910   0.808   3.501   0.606
 1458SOL    HW2 4911   0.756   3.380   0.680
 1459SOL     OW 4912   1.432   2.092   1.117
 1459SOL    HW1 4913   1.458   2.011   1.161
 1459SOL    HW2 4914   1.379   2.139   1.181
 1460SOL     OW 4915   1.009   1.879   1.137
 1460SOL    HW1 4916   0.954   1.812   1.094
 1460SOL    HW2 4917   1.096   1.840   1.139
 1461SOL     OW 4918   0.773   3.188   0.322
 1461SOL    HW1 4919   0.746   3.098   0.338
 1461SOL    HW2 4920   0.854   3.198   0.372
 1462SOL     OW 4921   0.621   3.417   1.288
 1462SOL    HW1 4922   0.622   3.499   1.337
 1462SOL    HW2 4923   0.709   3.411   1.250
 1463SOL     OW 4924   1.350   1.920   0.166
 1463SOL    HW1 4925   1.371   1.868   0.089
 1463SOL    HW2 4926   1.263   1.890   0.192
 1464SOL     OW 4927   1.296   2.325   0.679
 1464SOL    HW1 4928   1.244   2.405   0.683
 1464SOL    HW2 4929   1.291   2.288   0.767
 1465SOL     OW 4930   1.589   2.057   0.883
 1465SOL    HW1 4931   1.532   2.080   0.956
 1465SOL    HW2 4932   1.587   2.134   0.826
 1466SOL     OW 4933   0.035   2.917   0.289
 1466SOL    HW1 4934   0.128   2.895   0.285
 1466SOL    HW2 4935   0.008   2.892   0.377
 1467SOL     OW 4936   0.889   3.522   0.347
 1467SOL    HW1 4937   0.814   3.503   0.290
 1467SOL    HW2 4938   0.860   3.594   0.402
 1468SOL     OW 4939   0.243   2.494   1.986
 1468SOL    HW1 4940   0.170   2.465   2.040
 1468SOL    HW2 4941   0.215   2.476   1.896
 1469SOL     OW 4942   0.213   2.136   2.852
 1469SOL    HW1 4943   0.249   2.109   2.937
 1469SOL    HW2 4944   0.137   2.078   2.839
 1470SOL     OW 4945   0.005   2.263   2.502
 1470SOL    HW1 4946   4.424   2.297   2.539
 1470SOL    HW2 4947   4.479   2.183   2.455
 1471SOL     OW 4948   0.569   3.158   3.044
 1471SOL    HW1 4949   0.483   3.163   3.004
 1471SOL    HW2 4950   0.585   3.246   3.079
 1472SOL     OW 4951   1.569   3.376   2.571
 1472SOL    HW1 4952   1.526   3.353   2.653
 1472SOL    HW2 4953   1.498   3.379   2.506
 1473SOL     OW 4954   1.132   2.560   2.558
 1473SOL    HW1 4955   1.180   2.642   2.546
 1473SOL    HW2 4956   1.085   2.572   2.640
 1474SOL     OW 4957   1.781   2.463   2.088
 1474SOL    HW1 4958   1.751   2.459   1.997
 1474SOL    HW2 4959   1.741   2.386   2.129
 1475SOL     OW 4960   0.747   3.000   2.907
 1475SOL    HW1 4961   0.680   3.037   2.966
 1475SOL    HW2 4962   0.786   3.076   2.864
 1476SOL     OW 4963   0.873   2.624   3.684
 1476SOL    HW1 4964   0.858   2.694   3.748
 1476SOL    HW2 4965   0.896   2.670   3.603
 1477SOL     OW 4966   0.684   2.861   2.507
 1477SOL    HW1 4967   0.751   2.852   2.575
 1477SOL    HW2 4968   0.616   2.915   2.547
 1478SOL     OW 4969   0.714   3.010   3.681
 1478SOL    HW1 4970   0.761   3.088   3.710
 1478SOL    HW2 4971   0.634   3.045   3.641
 1479SOL     OW 4972   0.333   3.279   2.930
 1479SOL    HW1 4973   0.252   3.258   2.883
 1479SOL    HW2 4974   0.382   3.334   2.869
 1480SOL     OW 4975   1.459   3.364   3.222
 1480SOL    HW1 4976   1.513   3.442   3.232
 1480SOL    HW2 4977   1.391   3.373   3.289
 1481SOL     OW 4978   0.450   2.263   3.343
 1481SOL    HW1 4979   0.528   2.209   3.352
 1481SOL    HW2 4980   0.377   2.202   3.356
 1482SOL     OW 4981   1.600   2.306   2.605
 1482SOL    HW1 4982   1.525   2.326   2.549
 1482SOL    HW2 4983   1.612   2.385   2.658
 1483SOL     OW 4984   0.246   3.553   2.335
 1483SOL    HW1 4985   0.229   3.638   2.375
 1483SOL    HW2 4986   0.319   3.568   2.275
 1484SOL     OW 4987   1.137   3.204   3.556
 1484SOL    HW1 4988   1.178   3.198   3.643
 1484SOL    HW2 4989   1.085   3.124   3.548
 1485SOL     OW 4990   0.259   3.287   2.387
 1485SOL    HW1 4991   0.244   3.382   2.390
 1485SOL    HW2 4992   0.199   3.252   2.453
 1486SOL     OW 4993   0.255   2.945   2.748
 1486SOL    HW1 4994   0.268   2.853   2.770
 1486SOL    HW2 4995   0.193   2.977   2.813
 1487SOL     OW 4996   0.608   3.654   3.291
 1487SOL    HW1 4997   0.525   3.636   3.336
 1487SOL    HW2 4998   0.629   3.744   3.317
 1488SOL     OW 4999   0.571   2.853   2.006
 1488SOL    HW1 5000   0.622   2.892   1.935
 1488SOL    HW2 5001   0.615   2.883   2.086
 1489SOL     OW 5002   1.587   1.981   3.333
 1489SOL    HW1 5003   1.621   2.048   3.273
 1489SOL    HW2 5004   1.573   2.028   3.415
 1490SOL     OW 5005   0.137   2.513   2.434
 1490SOL    HW1 5006   0.092   2.432   2.458
 1490SOL    HW2 5007   0.107   2.577   2.500
 1491SOL     OW 5008   1.844   3.617   2.193
 1491SOL    HW1 5009   1.912   3.591   2.255
 1491SOL    HW2 5010   1.862   3.708   2.173
 1492SOL     OW 5011   0.032   3.466   2.014
 1492SOL    HW1 5012   0.017   3.372   2.005
 1492SOL    HW2 5013   0.044   3.481   2.107
 1493SOL     OW 5014   1.691   2.781   2.506
 1493SOL    HW1 5015   1.770   2.734   2.480
 1493SOL    HW2 5016   1.666   2.832   2.429
 1494SOL     OW 5017   1.648   2.965   2.292
 1494SOL    HW1 5018   1.735   2.966   2.251
 1494SOL    HW2 5019   1.654   3.029   2.363
 1495SOL     OW 5020   0.109   2.629   3.432
 1495SOL    HW1 5021   0.195   2.617   3.392
 1495SOL    HW2 5022   0.109   2.720   3.462
 1496SOL     OW 5023   0.616   3.252   2.599
 1496SOL    HW1 5024   0.570   3.169   2.608
 1496SOL    HW2 5025   0.599   3.279   2.508
 1497SOL     OW 5026   1.286   3.098   3.283
 1497SOL    HW1 5027   1.316   3.030   3.223
 1497SOL    HW2 5028   1.345   3.093   3.358
 1498SOL     OW 5029   0.823   1.865   2.375
 1498SOL    HW1 5030   0.862   1.949   2.352
 1498SOL    HW2 5031   0.729   1.883   2.380
 1499SOL     OW 5032   0.176   2.800   3.140
 1499SOL    HW1 5033   0.267   2.779   3.121
 1499SOL    HW2 5034   0.132   2.799   3.055
 1500SOL     OW 5035   1.531   2.860   2.062
 1500SOL    HW1 5036   1.462   2.803   2.094
 1500SOL    HW2 5037   1.573   2.894   2.141
 1501SOL     OW 5038   1.185   3.674   3.487
 1501SOL    HW1 5039   1.190   3.734   3.413
 1501SOL    HW2 5040   1.202   3.588   3.450
 1502SOL     OW 5041   0.335   2.119   3.670
 1502SOL    HW1 5042   0.379   2.194   3.711
 1502SOL    HW2 5043   0.245   2.125   3.701
 1503SOL     OW 5044   1.468   3.281   2.810
 1503SOL    HW1 5045   1.401   3.297   2.876
 1503SOL    HW2 5046   1.454   3.190   2.783
 1504SOL     OW 5047   1.655   3.612   2.439
 1504SOL    HW1 5048   1.636   3.580   2.351
 1504SOL    HW2 5049   1.634   3.539   2.496
 1505SOL     OW 5050   0.598   2.579   2.133
 1505SOL    HW1 5051   0.598   2.662   2.086
 1505SOL    HW2 5052   0.532   2.589   2.201
 1506SOL     OW 5053   1.277   2.226   2.797
 1506SOL    HW1 5054   1.188   2.191   2.805
 1506SOL    HW2 5055   1.329   2.172   2.856
 1507SOL     OW 5056   1.579   3.535   2.172
 1507SOL    HW1 5057   1.670   3.562   2.164
 1507SOL    HW2 5058   1.550   3.519   2.082
 1508SOL     OW 5059   0.793   2.477   3.311
 1508SOL    HW1 5060   0.766   2.451   3.399
 1508SOL    HW2 5061   0.756   2.410   3.253
 1509SOL     OW 5062   1.393   2.337   3.540
 1509SOL    HW1 5063   1.397   2.381   3.625
 1509SOL    HW2 5064   1.448   2.259   3.550
 1510SOL     OW 5065   0.951   2.747   3.447
 1510SOL    HW1 5066   1.006   2.679   3.409
 1510SOL    HW2 5067   0.904   2.785   3.373
 1511SOL     OW 5068   0.993   2.274   3.097
 1511SOL    HW1 5069   0.904   2.291   3.128
 1511SOL    HW2 5070   0.980   2.229   3.013
 1512SOL     OW 5071   1.054   2.561   2.287
 1512SOL    HW1 5072   1.072   2.554   2.380
 1512SOL    HW2 5073   0.971   2.515   2.274
 1513SOL     OW 5074   0.089   2.693   2.649
 1513SOL    HW1 5075   0.175   2.683   2.690
 1513SOL    HW2 5076   0.028   2.692   2.723
 1514SOL     OW 5077   0.121   3.722   3.442
 1514SOL    HW1 5078   0.115   3.699   3.535
 1514SOL    HW2 5079   0.044   3.683   3.402
 1515SOL     OW 5080   0.898   2.212   2.057
 1515SOL    HW1 5081   0.938   2.275   1.997
 1515SOL    HW2 5082   0.908   2.128   2.014
 1516SOL     OW 5083   1.705   2.436   3.693
 1516SOL    HW1 5084   1.668   2.510   3.645
 1516SOL    HW2 5085   1.731   2.374   3.624
 1517SOL     OW 5086   1.380   3.004   2.403
 1517SOL    HW1 5087   1.459   2.992   2.349
 1517SOL    HW2 5088   1.326   3.066   2.353
 1518SOL     OW 5089   0.554   2.040   2.757
 1518SOL    HW1 5090   0.556   2.072   2.847
 1518SOL    HW2 5091   0.554   2.119   2.704
 1519SOL     OW 5092   1.000   3.306   2.331
 1519SOL    HW1 5093   0.969   3.381   2.281
 1519SOL    HW2 5094   0.977   3.326   2.422
 1520SOL     OW 5095   0.359   3.677   2.723
 1520SOL    HW1 5096   0.400   3.591   2.735
 1520SOL    HW2 5097   0.428   3.740   2.743
 1521SOL     OW 5098   1.801   2.914   2.731
 1521SOL    HW1 5099   1.749   2.893   2.654
 1521SOL    HW2 5100   1.738   2.921   2.802
 1522SOL     OW 5101   1.227   3.402   3.375
 1522SOL    HW1 5102   1.215   3.329   3.437
 1522SOL    HW2 5103   1.160   3.388   3.309
 1523SOL     OW 5104   0.310   2.813   2.122
 1523SOL    HW1 5105   0.393   2.837   2.080
 1523SOL    HW2 5106   0.299   2.720   2.101
 1524SOL     OW 5107   1.482   2.610   2.585
 1524SOL    HW1 5108   1.476   2.570   2.672
 1524SOL    HW2 5109   1.560   2.665   2.589
 1525SOL     OW 5110   0.471   3.127   3.597
 1525SOL    HW1 5111   0.445   3.134   3.505
 1525SOL    HW2 5112   0.389   3.127   3.646
 1526SOL     OW 5113   1.124   3.640   2.091
 1526SOL    HW1 5114   1.049   3.601   2.135
 1526SOL    HW2 5115   1.148   3.577   2.023
 1527SOL     OW 5116   0.202   2.137   3.347
 1527SOL    HW1 5117   0.144   2.213   3.354
 1527SOL    HW2 5118   0.180   2.082   3.422
 1528SOL     OW 5119   1.629   3.244   1.952
 1528SOL    HW1 5120   1.587   3.329   1.937
 1528SOL    HW2 5121   1.561   3.180   1.932
 1529SOL     OW 5122   0.469   3.604   2.174
 1529SOL    HW1 5123   0.514   3.658   2.240
 1529SOL    HW2 5124   0.539   3.566   2.122
 1530SOL     OW 5125   1.399   1.969   2.301
 1530SOL    HW1 5126   1.391   1.943   2.209
 1530SOL    HW2 5127   1.494   1.976   2.315
 1531SOL     OW 5128   0.257   3.654   3.085
 1531SOL    HW1 5129   0.301   3.576   3.120
 1531SOL    HW2 5130   0.216   3.624   3.004
 1532SOL     OW 5131   0.939   3.562   2.758
 1532SOL    HW1 5132   1.017   3.512   2.781
 1532SOL    HW2 5133   0.897   3.511   2.688
 1533SOL     OW 5134   0.397   2.555   2.332
 1533SOL    HW1 5135   0.418   2.462   2.345
 1533SOL    HW2 5136   0.305   2.563   2.358
 1534SOL     OW 5137   1.530   2.092   3.588
 1534SOL    HW1 5138   1.537   2.110   3.682
 1534SOL    HW2 5139   1.468   2.019   3.582
 1535SOL     OW 5140   0.644   1.981   1.962
 1535SOL    HW1 5141   0.702   1.909   1.982
 1535SOL    HW2 5142   0.591   1.950   1.888
 1536SOL     OW 5143   0.764   2.142   3.617
 1536SOL    HW1 5144   0.844   2.090   3.614
 1536SOL    HW2 5145   0.718   2.110   3.694
 1537SOL     OW 5146   0.877   3.386   3.056
 1537SOL    HW1 5147   0.859   3.348   2.970
 1537SOL    HW2 5148   0.946   3.331   3.093
 1538SOL     OW 5149   1.338   2.452   3.295
 1538SOL    HW1 5150   1.370   2.420   3.379
 1538SOL    HW2 5151   1.376   2.539   3.286
 1539SOL     OW 5152   0.819   3.252   2.808
 1539SOL    HW1 5153   0.903   3.241   2.764
 1539SOL    HW2 5154   0.755   3.258   2.736
 1540SOL     OW 5155   0.929   2.371   2.763
 1540SOL    HW1 5156   0.904   2.362   2.671
 1540SOL    HW2 5157   0.959   2.284   2.788
 1541SOL     OW 5158   0.558   1.925   2.357
 1541SOL    HW1 5159   0.478   1.922   2.409
 1541SOL    HW2 5160   0.548   2.002   2.301
 1542SOL     OW 5161   1.428   3.063   1.902
 1542SOL    HW1 5162   1.457   2.987   1.953
 1542SOL    HW2 5163   1.343   3.085   1.938
 1543SOL     OW 5164   0.296   1.906   2.038
 1543SOL    HW1 5165   0.360   1.972   2.010
 1543SOL    HW2 5166   0.348   1.840   2.084
 1544SOL     OW 5167   0.942   2.112   2.318
 1544SOL    HW1 5168   0.917   2.150   2.234
 1544SOL    HW2 5169   1.036   2.127   2.324
 1545SOL     OW 5170   1.080   2.546   3.319
 1545SOL    HW1 5171   1.015   2.476   3.323
 1545SOL    HW2 5172   1.164   2.500   3.313
 1546SOL     OW 5173   1.221   3.434   2.657
 1546SOL    HW1 5174   1.234   3.499   2.588
 1546SOL    HW2 5175   1.290   3.451   2.721
 1547SOL     OW 5176   0.469   3.015   2.593
 1547SOL    HW1 5177   0.402   2.996   2.658
 1547SOL    HW2 5178   0.426   3.001   2.509
 1548SOL     OW 5179   1.265   3.654   2.474
 1548SOL    HW1 5180   1.313   3.715   2.418
 1548SOL    HW2 5181   1.196   3.707   2.514
 1549SOL     OW 5182   1.023   2.397   1.888
 1549SOL    HW1 5183   0.980   2.480   1.868
 1549SOL    HW2 5184   1.088   2.419   1.955
 1550SOL     OW 5185   0.076   2.377   3.272
 1550SOL    HW1 5186   0.141   2.371   3.202
 1550SOL    HW2 5187   0.065   2.471   3.287
 1551SOL     OW 5188   0.559   2.090   3.031
 1551SOL    HW1 5189   0.604   2.015   3.070
 1551SOL    HW2 5190   0.467   2.078   3.056
 1552SOL     OW 5191   0.867   2.320   2.501
 1552SOL    HW1 5192   0.822   2.376   2.437
 1552SOL    HW2 5193   0.889   2.241   2.452
 1553SOL     OW 5194   1.017   1.917   2.610
 1553SOL    HW1 5195   0.958   1.910   2.535
 1553SOL    HW2 5196   0.994   1.842   2.665
 1554SOL     OW 5197   1.439   3.022   2.718
 1554SOL    HW1 5198   1.367   2.959   2.720
 1554SOL    HW2 5199   1.462   3.031   2.626
 1555SOL     OW 5200   1.464   2.473   2.833
 1555SOL    HW1 5201   1.410   2.394   2.835
 1555SOL    HW2 5202   1.524   2.463   2.907
 1556SOL     OW 5203   1.842   2.673   2.251
 1556SOL    HW1 5204   1.899   2.621   2.308
 1556SOL    HW2 5205   1.818   2.612   2.181
 1557SOL     OW 5206   0.492   3.284   2.016
 1557SOL    HW1 5207   0.413   3.257   2.063
 1557SOL    HW2 5208   0.482   3.246   1.929
 1558SOL     OW 5209   1.675   3.127   2.503
 1558SOL    HW1 5210   1.769   3.128   2.518
 1558SOL    HW2 5211   1.646   3.216   2.525
 1559SOL     OW 5212   1.394   2.434   1.934
 1559SOL    HW1 5213   1.331   2.414   2.003
 1559SOL    HW2 5214   1.478   2.403   1.967
 1560SOL     OW 5215   0.525   2.121   2.172
 1560SOL    HW1 5216   0.576   2.078   2.104
 1560SOL    HW2 5217   0.502   2.206   2.134
 1561SOL     OW 5218   1.749   3.104   3.425
 1561SOL    HW1 5219   1.836   3.065   3.421
 1561SOL    HW2 5220   1.764   3.194   3.455
 1562SOL     OW 5221   1.055   3.216   3.194
 1562SOL    HW1 5222   0.979   3.185   3.244
 1562SOL    HW2 5223   1.130   3.174   3.236
 1563SOL     OW 5224   1.610   3.490   3.520
 1563SOL    HW1 5225   1.601   3.523   3.431
 1563SOL    HW2 5226   1.691   3.440   3.519
 1564SOL     OW 5227   1.135   3.072   2.965
 1564SOL    HW1 5228   1.074   3.108   3.028
 1564SOL    HW2 5229   1.105   3.105   2.880
 1565SOL     OW 5230   1.625   2.959   2.937
 1565SOL    HW1 5231   1.619   3.021   3.009
 1565SOL    HW2 5232   1.548   2.977   2.883
 1566SOL     OW 5233   0.917   1.957   3.254
 1566SOL    HW1 5234   0.940   1.937   3.163
 1566SOL    HW2 5235   0.997   1.995   3.291
 1567SOL     OW 5236   0.984   2.977   3.585
 1567SOL    HW1 5237   0.893   2.993   3.610
 1567SOL    HW2 5238   0.981   2.898   3.531
 1568SOL     OW 5239   0.710   2.925   2.234
 1568SOL    HW1 5240   0.696   2.905   2.327
 1568SOL    HW2 5241   0.785   2.871   2.209
 1569SOL     OW 5242   0.432   2.693   3.111
 1569SOL    HW1 5243   0.503   2.708   3.174
 1569SOL    HW2 5244   0.378   2.625   3.150
 1570SOL     OW 5245   1.264   2.237   3.142
 1570SOL    HW1 5246   1.296   2.315   3.187
 1570SOL    HW2 5247   1.173   2.258   3.120
 1571SOL     OW 5248   0.065   3.436   3.208
 1571SOL    HW1 5249   0.039   3.527   3.197
 1571SOL    HW2 5250   0.160   3.438   3.213
 1572SOL     OW 5251   0.335   2.975   2.355
 1572SOL    HW1 5252   0.347   3.050   2.297
 1572SOL    HW2 5253   0.334   2.899   2.297
 1573SOL     OW 5254   0.557   2.389   2.715
 1573SOL    HW1 5255   0.570   2.449   2.642
 1573SOL    HW2 5256   0.620   2.417   2.781
 1574SOL     OW 5257   1.247   3.212   2.252
 1574SOL    HW1 5258   1.303   3.283   2.284
 1574SOL    HW2 5259   1.160   3.233   2.286
 1575SOL     OW 5260   1.288   3.322   3.010
 1575SOL    HW1 5261   1.343   3.326   3.088
 1575SOL    HW2 5262   1.232   3.246   3.023
 1576SOL     OW 5263   1.577   2.482   2.343
 1576SOL    HW1 5264   1.528   2.530   2.410
 1576SOL    HW2 5265   1.626   2.550   2.296
 1577SOL     OW 5266   0.345   3.399   3.172
 1577SOL    HW1 5267   0.332   3.350   3.090
 1577SOL    HW2 5268   0.440   3.407   3.180
 1578SOL     OW 5269   0.494   2.614   3.536
 1578SOL    HW1 5270   0.525   2.655   3.456
 1578SOL    HW2 5271   0.556   2.544   3.553
 1579SOL     OW 5272   1.607   2.644   3.549
 1579SOL    HW1 5273   1.521   2.685   3.542
 1579SOL    HW2 5274   1.659   2.686   3.480
 1580SOL     OW 5275   0.996   1.994   3.615
 1580SOL    HW1 5276   1.055   2.066   3.592
 1580SOL    HW2 5277   1.043   1.915   3.590
 1581SOL     OW 5278   0.496   1.903   3.611
 1581SOL    HW1 5279   0.452   1.848   3.547
 1581SOL    HW2 5280   0.439   1.980   3.620
 1582SOL     OW 5281   0.591   2.737   2.889
 1582SOL    HW1 5282   0.624   2.827   2.891
 1582SOL    HW2 5283   0.535   2.730   2.966
 1583SOL     OW 5284   1.349   2.721   2.885
 1583SOL    HW1 5285   1.263   2.706   2.845
 1583SOL    HW2 5286   1.394   2.637   2.876
 1584SOL     OW 5287   1.200   2.389   2.124
 1584SOL    HW1 5288   1.209   2.311   2.179
 1584SOL    HW2 5289   1.158   2.454   2.181
 1585SOL     OW 5290   0.300   2.049   3.103
 1585SOL    HW1 5291   0.262   2.080   3.185
 1585SOL    HW2 5292   0.283   1.954   3.103
 1586SOL     OW 5293   0.018   3.173   3.150
 1586SOL    HW1 5294   0.063   3.125   3.219
 1586SOL    HW2 5295   0.031   3.266   3.172
 1587SOL     OW 5296   0.722   2.491   2.915
 1587SOL    HW1 5297   0.799   2.476   2.860
 1587SOL    HW2 5298   0.694   2.580   2.895
 1588SOL     OW 5299   1.738   2.823   3.720
 1588SOL    HW1 5300   1.694   2.756   3.666
 1588SOL    HW2 5301   1.677   2.839   3.792
 1589SOL     OW 5302   0.318   1.931   2.480
 1589SOL    HW1 5303   0.289   2.019   2.504
 1589SOL    HW2 5304   0.318   1.882   2.562
 1590SOL     OW 5305   1.621   2.240   2.224
 1590SOL    HW1 5306   1.650   2.176   2.290
 1590SOL    HW2 5307   1.597   2.317   2.275
 1591SOL     OW 5308   1.029   2.620   2.820
 1591SOL    HW1 5309   1.021   2.637   2.914
 1591SOL    HW2 5310   1.002   2.529   2.810
 1592SOL     OW 5311   0.983   3.429   3.583
 1592SOL    HW1 5312   0.966   3.472   3.499
 1592SOL    HW2 5313   1.025   3.347   3.559
 1593SOL     OW 5314   1.852   3.363   3.466
 1593SOL    HW1 5315   1.873   3.391   3.377
 1593SOL    HW2 5316   1.932   3.378   3.516
 1594SOL     OW 5317   0.348   2.797   3.678
 1594SOL    HW1 5318   0.417   2.829   3.736
 1594SOL    HW2 5319   0.389   2.728   3.627
 1595SOL     OW 5320   1.527   2.133   1.989
 1595SOL    HW1 5321   1.463   2.068   2.017
 1595SOL    HW2 5322   1.561   2.170   2.071
 1596SOL     OW 5323   1.288   2.686   1.891
 1596SOL    HW1 5324   1.331   2.601   1.895
 1596SOL    HW2 5325   1.319   2.725   1.809
 1597SOL     OW 5326   1.069   3.200   2.718
 1597SOL    HW1 5327   1.073   3.128   2.655
 1597SOL    HW2 5328   1.127   3.267   2.682
 1598SOL     OW 5329   0.319   2.673   2.803
 1598SOL    HW1 5330   0.413   2.690   2.804
 1598SOL    HW2 5331   0.311   2.580   2.827
 1599SOL     OW 5332   0.324   2.389   2.846
 1599SOL    HW1 5333   0.286   2.302   2.831
 1599SOL    HW2 5334   0.404   2.390   2.794
 1600SOL     OW 5335   1.134   2.236   3.547
 1600SOL    HW1 5336   1.086   2.290   3.610
 1600SOL    HW2 5337   1.221   2.276   3.542
 1601SOL     OW 5338   1.160   2.061   3.333
 1601SOL    HW1 5339   1.149   2.124   3.404
 1601SOL    HW2 5340   1.203   2.110   3.264
 1602SOL     OW 5341   4.491   3.181   2.073
 1602SOL    HW1 5342   4.398   3.198   2.055
 1602SOL    HW2 5343   4.494   3.088   2.094
 1603SOL     OW 5344   0.103   3.630   2.803
 1603SOL    HW1 5345   0.062   3.588   2.728
 1603SOL    HW2 5346   0.191   3.654   2.773
 1604SOL     OW 5347   0.493   3.436   2.769
 1604SOL    HW1 5348   0.561   3.499   2.793
 1604SOL    HW2 5349   0.536   3.374   2.711
 1605SOL     OW 5350   0.976   2.650   3.085
 1605SOL    HW1 5351   1.034   2.630   3.158
 1605SOL    HW2 5352   0.892   2.611   3.111
 1606SOL     OW 5353   0.025   2.422   2.950
 1606SOL    HW1 5354   0.116   2.402   2.931
 1606SOL    HW2 5355   0.006   2.374   3.031
 1607SOL     OW 5356   0.180   2.391   3.580
 1607SOL    HW1 5357   0.262   2.360   3.542
 1607SOL    HW2 5358   0.158   2.470   3.530
 1608SOL     OW 5359   1.379   2.796   3.519
 1608SOL    HW1 5360   1.401   2.889   3.515
 1608SOL    HW2 5361   1.376   2.769   3.427
 1609SOL     OW 5362   0.819   2.432   2.228
 1609SOL    HW1 5363   0.824   2.358   2.167
 1609SOL    HW2 5364   0.745   2.483   2.196
 1610SOL     OW 5365   1.647   2.465   3.039
 1610SOL    HW1 5366   1.638   2.407   3.114
 1610SOL    HW2 5367   1.735   2.447   3.005
 1611SOL     OW 5368   0.275   3.424   3.602
 1611SOL    HW1 5369   0.212   3.474   3.653
 1611SOL    HW2 5370   0.258   3.333   3.626
 1612SOL     OW 5371   0.706   2.310   3.118
 1612SOL    HW1 5372   0.652   2.236   3.090
 1612SOL    HW2 5373   0.700   2.373   3.045
 1613SOL     OW 5374   0.924   3.541   3.332
 1613SOL    HW1 5375   0.899   3.501   3.248
 1613SOL    HW2 5376   0.916   3.635   3.317
 1614SOL     OW 5377   0.469   2.351   2.039
 1614SOL    HW1 5378   0.531   2.419   2.066
 1614SOL    HW2 5379   0.387   2.398   2.025
 1615SOL     OW 5380   0.160   3.004   3.318
 1615SOL    HW1 5381   0.144   2.962   3.402
 1615SOL    HW2 5382   0.167   2.932   3.255
 1616SOL     OW 5383   1.322   2.906   3.082
 1616SOL    HW1 5384   1.343   2.842   3.013
 1616SOL    HW2 5385   1.255   2.963   3.042
 1617SOL     OW 5386   1.315   2.720   2.166
 1617SOL    HW1 5387   1.241   2.687   2.218
 1617SOL    HW2 5388   1.288   2.705   2.075
 1618SOL     OW 5389   1.779   3.599   3.018
 1618SOL    HW1 5390   1.838   3.626   2.948
 1618SOL    HW2 5391   1.751   3.511   2.994
 1619SOL     OW 5392   1.240   3.595   2.969
 1619SOL    HW1 5393   1.323   3.618   2.927
 1619SOL    HW2 5394   1.249   3.502   2.989
 1620SOL     OW 5395   0.071   3.048   2.913
 1620SOL    HW1 5396   0.055   3.077   3.003
 1620SOL    HW2 5397   0.040   3.121   2.859
 1621SOL     OW 5398   0.680   3.533   3.600
 1621SOL    HW1 5399   0.619   3.605   3.589
 1621SOL    HW2 5400   0.747   3.547   3.533
 1622SOL     OW 5401   1.720   2.012   2.369
 1622SOL    HW1 5402   1.787   1.994   2.304
 1622SOL    HW2 5403   1.702   1.927   2.409
 1623SOL     OW 5404   1.393   3.430   2.352
 1623SOL    HW1 5405   1.451   3.464   2.284
 1623SOL    HW2 5406   1.342   3.506   2.380
 1624SOL     OW 5407   0.116   3.668   3.712
 1624SOL    HW1 5408   0.074   3.598   3.762
 1624SOL    HW2 5409   0.180   3.706   3.772
 1625SOL     OW 5410   1.278   2.790   2.533
 1625SOL    HW1 5411   1.352   2.729   2.543
 1625SOL    HW2 5412   1.312   2.861   2.480
 1626SOL     OW 5413   0.806   3.139   3.287
 1626SOL    HW1 5414   0.779   3.180   3.369
 1626SOL    HW2 5415   0.735   3.158   3.226
 1627SOL     OW 5416   0.672   3.487   2.017
 1627SOL    HW1 5417   0.683   3.501   1.923
 1627SOL    HW2 5418   0.616   3.409   2.024
 1628SOL     OW 5419   1.620   3.589   3.254
 1628SOL    HW1 5420   1.673   3.594   3.174
 1628SOL    HW2 5421   1.606   3.680   3.279
 1629SOL     OW 5422   1.804   1.998   2.835
 1629SOL    HW1 5423   1.847   1.922   2.796
 1629SOL    HW2 5424   1.725   2.012   2.782
 1630SOL     OW 5425   0.260   2.180   2.578
 1630SOL    HW1 5426   0.177   2.220   2.552
 1630SOL    HW2 5427   0.252   2.166   2.672
 1631SOL     OW 5428   1.208   3.464   1.895
 1631SOL    HW1 5429   1.197   3.373   1.922
 1631SOL    HW2 5430   1.142   3.477   1.827
 1632SOL     OW 5431   0.827   2.870   3.236
 1632SOL    HW1 5432   0.869   2.865   3.150
 1632SOL    HW2 5433   0.822   2.964   3.255
 1633SOL     OW 5434   0.916   2.773   2.153
 1633SOL    HW1 5435   0.976   2.806   2.086
 1633SOL    HW2 5436   0.966   2.705   2.198
 1634SOL     OW 5437   1.489   3.491   1.907
 1634SOL    HW1 5438   1.395   3.481   1.891
 1634SOL    HW2 5439   1.527   3.496   1.819
 1635SOL     OW 5440   0.373   3.173   3.352
 1635SOL    HW1 5441   0.355   3.252   3.301
 1635SOL    HW2 5442   0.299   3.115   3.334
 1636SOL     OW 5443   1.610   3.147   3.142
 1636SOL    HW1 5444   1.666   3.130   3.218
 1636SOL    HW2 5445   1.548   3.213   3.173
 1637SOL     OW 5446   1.060   2.972   2.572
 1637SOL    HW1 5447   0.988   2.922   2.609
 1637SOL    HW2 5448   1.123   2.906   2.544
 1638SOL     OW 5449   1.023   2.104   2.828
 1638SOL    HW1 5450   1.019   2.057   2.745
 1638SOL    HW2 5451   1.018   2.035   2.895
 1639SOL     OW 5452   0.607   3.351   2.344
 1639SOL    HW1 5453   0.654   3.302   2.276
 1639SOL    HW2 5454   0.527   3.380   2.300
 1640SOL     OW 5455   1.721   2.264   3.247
 1640SOL    HW1 5456   1.798   2.321   3.240
 1640SOL    HW2 5457   1.741   2.190   3.190
 1641SOL     OW 5458   0.253   3.205   2.135
 1641SOL    HW1 5459   0.158   3.200   2.124
 1641SOL    HW2 5460   0.264   3.237   2.225
 1642SOL     OW 5461   0.117   2.868   3.553
 1642SOL    HW1 5462   0.053   2.913   3.608
 1642SOL    HW2 5463   0.195   2.861   3.608
 1643SOL     OW 5464   0.677   2.060   3.361
 1643SOL    HW1 5465   0.760   2.036   3.321
 1643SOL    HW2 5466   0.700   2.090   3.449
 1644SOL     OW 5467   0.073   2.189   1.890
 1644SOL    HW1 5468   4.481   2.205   1.911
 1644SOL    HW2 5469   0.102   2.269   1.848
 1645SOL     OW 5470   1.427   2.720   3.260
 1645SOL    HW1 5471   1.377   2.781   3.205
 1645SOL    HW2 5472   1.515   2.722   3.224
 1646SOL     OW 5473   0.087   2.034   2.163
 1646SOL    HW1 5474   0.081   2.111   2.107
 1646SOL    HW2 5475   0.162   1.985   2.130
 1647SOL     OW 5476   1.178   3.197   1.979
 1647SOL    HW1 5477   1.087   3.168   1.981
 1647SOL    HW2 5478   1.204   3.198   2.072
 1648SOL     OW 5479   0.628   2.694   3.299
 1648SOL    HW1 5480   0.685   2.769   3.284
 1648SOL    HW2 5481   0.687   2.619   3.302
 1649SOL     OW 5482   1.482   3.645   2.844
 1649SOL    HW1 5483   1.504   3.710   2.777
 1649SOL    HW2 5484   1.567   3.620   2.881
 1650SOL     OW 5485   0.710   2.426   3.566
 1650SOL    HW1 5486   0.762   2.483   3.623
 1650SOL    HW2 5487   0.731   2.337   3.595
 1651SOL     OW 5488   1.473   3.057   3.491
 1651SOL    HW1 5489   1.461   3.072   3.585
 1651SOL    HW2 5490   1.566   3.076   3.476
 1652SOL     OW 5491   0.376   3.608   3.428
 1652SOL    HW1 5492   0.291   3.649   3.410
 1652SOL    HW2 5493   0.354   3.529   3.477
 1653SOL     OW 5494   1.666   2.742   3.116
 1653SOL    HW1 5495   1.662   2.656   3.073
 1653SOL    HW2 5496   1.655   2.805   3.045
 1654SOL     OW 5497   1.216   2.182   2.319
 1654SOL    HW1 5498   1.277   2.109   2.313
 1654SOL    HW2 5499   1.245   2.231   2.396
 1655SOL     OW 5500   0.588   2.596   2.533
 1655SOL    HW1 5501   0.626   2.683   2.519
 1655SOL    HW2 5502   0.522   2.588   2.465
 1656SOL     OW 5503   1.759   2.228   3.515
 1656SOL    HW1 5504   1.734   2.252   3.426
 1656SOL    HW2 5505   1.686   2.173   3.546
 1657SOL     OW 5506   1.745   2.796   3.372
 1657SOL    HW1 5507   1.737   2.891   3.384
 1657SOL    HW2 5508   1.729   2.782   3.279
 1658SOL     OW 5509   0.865   3.227   1.904
 1658SOL    HW1 5510   0.826   3.254   1.987
 1658SOL    HW2 5511   0.879   3.309   1.856
 1659SOL     OW 5512   0.664   3.647   2.802
 1659SOL    HW1 5513   0.645   3.738   2.781
 1659SOL    HW2 5514   0.759   3.640   2.794
 1660SOL     OW 5515   0.870   2.833   2.715
 1660SOL    HW1 5516   0.919   2.760   2.753
 1660SOL    HW2 5517   0.831   2.877   2.791
 1661SOL     OW 5518   1.078   2.851   1.951
 1661SOL    HW1 5519   1.056   2.902   1.873
 1661SOL    HW2 5520   1.152   2.796   1.924
 1662SOL     OW 5521   1.848   3.415   2.704
 1662SOL    HW1 5522   1.769   3.404   2.651
 1662SOL    HW2 5523   1.838   3.352   2.776
 1663SOL     OW 5524   0.234   3.165   3.723
 1663SOL    HW1 5525   0.149   3.124   3.706
 1663SOL    HW2 5526   0.237   3.176   3.818
 1664SOL     OW 5527   0.123   3.089   2.530
 1664SOL    HW1 5528   0.142   3.050   2.615
 1664SOL    HW2 5529   0.178   3.042   2.468
 1665SOL     OW 5530   0.686   3.269   3.494
 1665SOL    HW1 5531   0.607   3.225   3.523
 1665SOL    HW2 5532   0.681   3.357   3.531
 1666SOL     OW 5533   1.766   2.039   3.107
 1666SOL    HW1 5534   1.833   1.979   3.139
 1666SOL    HW2 5535   1.770   2.031   3.012
 1667SOL     OW 5536   0.435   2.294   2.387
 1667SOL    HW1 5537   0.461   2.220   2.332
 1667SOL    HW2 5538   0.383   2.254   2.457
 1668SOL     OW 5539   1.698   3.348   2.953
 1668SOL    HW1 5540   1.618   3.328   2.904
 1668SOL    HW2 5541   1.702   3.279   3.020
 1669SOL     OW 5542   0.293   2.353   3.112
 1669SOL    HW1 5543   0.366   2.305   3.151
 1669SOL    HW2 5544   0.320   2.368   3.021
 1670SOL     OW 5545   0.831   3.440   2.537
 1670SOL    HW1 5546   0.810   3.503   2.468
 1670SOL    HW2 5547   0.756   3.381   2.540
 1671SOL     OW 5548   1.431   2.092   2.977
 1671SOL    HW1 5549   1.462   2.014   3.022
 1671SOL    HW2 5550   1.379   2.139   3.043
 1672SOL     OW 5551   1.009   1.879   2.999
 1672SOL    HW1 5552   0.954   1.812   2.957
 1672SOL    HW2 5553   1.096   1.840   3.001
 1673SOL     OW 5554   0.774   3.196   2.182
 1673SOL    HW1 5555   0.746   3.105   2.189
 1673SOL    HW2 5556   0.856   3.200   2.232
 1674SOL     OW 5557   0.621   3.417   3.150
 1674SOL    HW1 5558   0.622   3.499   3.199
 1674SOL    HW2 5559   0.709   3.411   3.112
 1675SOL     OW 5560   1.356   1.914   2.032
 1675SOL    HW1 5561   1.388   1.845   1.973
 1675SOL    HW2 5562   1.267   1.887   2.054
 1676SOL     OW 5563   1.297   2.326   2.541
 1676SOL    HW1 5564   1.243   2.405   2.545
 1676SOL    HW2 5565   1.290   2.288   2.629
 1677SOL     OW 5566   1.562   2.054   2.729
 1677SOL    HW1 5567   1.513   2.080   2.807
 1677SOL    HW2 5568   1.569   2.134   2.677
 1678SOL     OW 5569   0.039   2.911   2.156
 1678SOL    HW1 5570   0.130   2.887   2.142
 1678SOL    HW2 5571   0.021   2.888   2.247
 1679SOL     OW 5572   0.889   3.522   2.200
 1679SOL    HW1 5573   0.815   3.505   2.143
 1679SOL    HW2 5574   0.861   3.594   2.256
 1680SOL     OW 5575   0.244   2.494   3.848
 1680SOL    HW1 5576   0.170   2.465   3.902
 1680SOL    HW2 5577   0.215   2.476   3.758
 1681SOL     OW 5578   0.212   2.136   4.714
 1681SOL    HW1 5579   0.248   2.109   4.799
 1681SOL    HW2 5580   0.137   2.078   4.701
 1682SOL     OW 5581   0.005   2.262   4.364
 1682SOL    HW1 5582   4.424   2.296   4.401
 1682SOL    HW2 5583   4.479   2.183   4.317
 1683SOL     OW 5584   0.569   3.158   4.906
 1683SOL    HW1 5585   0.483   3.163   4.866
 1683SOL    HW2 5586   0.585   3.246   4.941
 1684SOL     OW 5587   1.569   3.376   4.432
 1684SOL    HW1 5588   1.525   3.353   4.515
 1684SOL    HW2 5589   1.498   3.380   4.368
 1685SOL     OW 5590   1.133   2.560   4.420
 1685SOL    HW1 5591   1.179   2.643   4.406
 1685SOL    HW2 5592   1.086   2.572   4.503
 1686SOL     OW 5593   1.781   2.463   3.949
 1686SOL    HW1 5594   1.751   2.457   3.859
 1686SOL    HW2 5595   1.744   2.387   3.993
 1687SOL     OW 5596   0.747   3.000   4.769
 1687SOL    HW1 5597   0.681   3.037   4.828
 1687SOL    HW2 5598   0.786   3.076   4.726
 1688SOL     OW 5599   0.872   2.625   5.546
 1688SOL    HW1 5600   0.857   2.693   5.612
 1688SOL    HW2 5601   0.893   2.672   5.466
 1689SOL     OW 5602   0.684   2.861   4.369
 1689SOL    HW1 5603   0.751   2.852   4.437
 1689SOL    HW2 5604   0.616   2.915   4.409
 1690SOL     OW 5605   0.713   3.011   5.544
 1690SOL    HW1 5606   0.760   3.089   5.573
 1690SOL    HW2 5607   0.634   3.045   5.503
 1691SOL     OW 5608   0.333   3.279   4.792
 1691SOL    HW1 5609   0.252   3.258   4.746
 1691SOL    HW2 5610   0.382   3.334   4.730
 1692SOL     OW 5611   1.460   3.362   5.084
 1692SOL    HW1 5612   1.513   3.441   5.092
 1692SOL    HW2 5613   1.391   3.372   5.150
 1693SOL     OW 5614   0.450   2.263   5.205
 1693SOL    HW1 5615   0.528   2.208   5.213
 1693SOL    HW2 5616   0.377   2.203   5.217
 1694SOL     OW 5617   1.616   2.300   4.473
 1694SOL    HW1 5618   1.534   2.309   4.424
 1694SOL    HW2 5619   1.630   2.386   4.513
 1695SOL     OW 5620   0.246   3.553   4.197
 1695SOL    HW1 5621   0.229   3.638   4.237
 1695SOL    HW2 5622   0.319   3.568   4.137
 1696SOL     OW 5623   1.138   3.205   5.417
 1696SOL    HW1 5624   1.178   3.199   5.504
 1696SOL    HW2 5625   1.085   3.125   5.410
 1697SOL     OW 5626   0.259   3.287   4.249
 1697SOL    HW1 5627   0.245   3.382   4.252
 1697SOL    HW2 5628   0.199   3.252   4.315
 1698SOL     OW 5629   0.256   2.945   4.610
 1698SOL    HW1 5630   0.268   2.853   4.632
 1698SOL    HW2 5631   0.193   2.977   4.676
 1699SOL     OW 5632   0.608   3.653   5.154
 1699SOL    HW1 5633   0.525   3.636   5.198
 1699SOL    HW2 5634   0.629   3.743   5.179
 1700SOL     OW 5635   0.571   2.853   3.868
 1700SOL    HW1 5636   0.622   2.892   3.797
 1700SOL    HW2 5637   0.615   2.883   3.948
 1701SOL     OW 5638   0.137   2.513   4.297
 1701SOL    HW1 5639   0.092   2.432   4.320
 1701SOL    HW2 5640   0.107   2.577   4.362
 1702SOL     OW 5641   1.844   3.617   4.055
 1702SOL    HW1 5642   1.912   3.591   4.117
 1702SOL    HW2 5643   1.862   3.708   4.035
 1703SOL     OW 5644   0.032   3.466   3.875
 1703SOL    HW1 5645   0.017   3.372   3.867
 1703SOL    HW2 5646   0.044   3.481   3.969
 1704SOL     OW 5647   1.692   2.781   4.370
 1704SOL    HW1 5648   1.770   2.735   4.340
 1704SOL    HW2 5649   1.666   2.834   4.294
 1705SOL     OW 5650   1.648   2.964   4.154
 1705SOL    HW1 5651   1.735   2.966   4.113
 1705SOL    HW2 5652   1.654   3.029   4.224
 1706SOL     OW 5653   0.108   2.629   5.293
 1706SOL    HW1 5654   0.195   2.618   5.254
 1706SOL    HW2 5655   0.108   2.720   5.324
 1707SOL     OW 5656   0.616   3.252   4.461
 1707SOL    HW1 5657   0.570   3.169   4.470
 1707SOL    HW2 5658   0.599   3.279   4.370
 1708SOL     OW 5659   1.284   3.098   5.143
 1708SOL    HW1 5660   1.317   3.031   5.083
 1708SOL    HW2 5661   1.343   3.093   5.218
 1709SOL     OW 5662   0.823   1.865   4.238
 1709SOL    HW1 5663   0.862   1.949   4.214
 1709SOL    HW2 5664   0.729   1.883   4.243
 1710SOL     OW 5665   0.176   2.801   5.002
 1710SOL    HW1 5666   0.267   2.779   4.982
 1710SOL    HW2 5667   0.132   2.799   4.917
 1711SOL     OW 5668   1.531   2.860   3.924
 1711SOL    HW1 5669   1.461   2.803   3.956
 1711SOL    HW2 5670   1.573   2.893   4.003
 1712SOL     OW 5671   1.185   3.674   5.349
 1712SOL    HW1 5672   1.191   3.734   5.275
 1712SOL    HW2 5673   1.203   3.588   5.311
 1713SOL     OW 5674   0.336   2.119   5.534
 1713SOL    HW1 5675   0.378   2.195   5.573
 1713SOL    HW2 5676   0.245   2.125   5.563
 1714SOL     OW 5677   1.466   3.282   4.670
 1714SOL    HW1 5678   1.400   3.299   4.737
 1714SOL    HW2 5679   1.449   3.193   4.641
 1715SOL     OW 5680   1.655   3.612   4.301
 1715SOL    HW1 5681   1.636   3.580   4.213
 1715SOL    HW2 5682   1.634   3.539   4.359
 1716SOL     OW 5683   0.598   2.579   3.995
 1716SOL    HW1 5684   0.597   2.662   3.948
 1716SOL    HW2 5685   0.532   2.589   4.063
 1717SOL     OW 5686   1.273   2.212   4.653
 1717SOL    HW1 5687   1.189   2.172   4.676
 1717SOL    HW2 5688   1.327   2.200   4.731
 1718SOL     OW 5689   1.579   3.535   4.034
 1718SOL    HW1 5690   1.670   3.562   4.026
 1718SOL    HW2 5691   1.550   3.518   3.944
 1719SOL     OW 5692   0.786   2.474   5.175
 1719SOL    HW1 5693   0.757   2.447   5.263
 1719SOL    HW2 5694   0.749   2.407   5.117
 1720SOL     OW 5695   1.388   2.345   5.423
 1720SOL    HW1 5696   1.384   2.386   5.509
 1720SOL    HW2 5697   1.450   2.273   5.433
 1721SOL     OW 5698   0.943   2.753   5.312
 1721SOL    HW1 5699   0.995   2.683   5.273
 1721SOL    HW2 5700   0.897   2.793   5.238
 1722SOL     OW 5701   0.978   2.274   4.954
 1722SOL    HW1 5702   0.889   2.290   4.983
 1722SOL    HW2 5703   0.969   2.228   4.871
 1723SOL     OW 5704   1.054   2.560   4.149
 1723SOL    HW1 5705   1.072   2.553   4.242
 1723SOL    HW2 5706   0.971   2.515   4.136
 1724SOL     OW 5707   0.089   2.693   4.512
 1724SOL    HW1 5708   0.175   2.683   4.552
 1724SOL    HW2 5709   0.028   2.692   4.585
 1725SOL     OW 5710   0.121   3.722   5.304
 1725SOL    HW1 5711   0.115   3.699   5.397
 1725SOL    HW2 5712   0.044   3.682   5.264
 1726SOL     OW 5713   0.899   2.212   3.920
 1726SOL    HW1 5714   0.938   2.275   3.859
 1726SOL    HW2 5715   0.908   2.128   3.876
 1727SOL     OW 5716   1.746   2.407   5.549
 1727SOL    HW1 5717   1.700   2.488   5.572
 1727SOL    HW2 5718   1.700   2.374   5.472
 1728SOL     OW 5719   1.380   3.005   4.264
 1728SOL    HW1 5720   1.458   2.993   4.210
 1728SOL    HW2 5721   1.326   3.067   4.214
 1729SOL     OW 5722   0.554   2.039   4.619
 1729SOL    HW1 5723   0.555   2.072   4.709
 1729SOL    HW2 5724   0.554   2.118   4.565
 1730SOL     OW 5725   1.000   3.306   4.193
 1730SOL    HW1 5726   0.969   3.381   4.143
 1730SOL    HW2 5727   0.977   3.326   4.283
 1731SOL     OW 5728   0.359   3.677   4.585
 1731SOL    HW1 5729   0.400   3.591   4.597
 1731SOL    HW2 5730   0.428   3.740   4.605
 1732SOL     OW 5731   1.807   2.932   4.586
 1732SOL    HW1 5732   1.750   2.906   4.513
 1732SOL    HW2 5733   1.748   2.942   4.660
 1733SOL     OW 5734   1.228   3.402   5.236
 1733SOL    HW1 5735   1.215   3.330   5.298
 1733SOL    HW2 5736   1.159   3.389   5.170
 1734SOL     OW 5737   0.311   2.813   3.984
 1734SOL    HW1 5738   0.393   2.837   3.942
 1734SOL    HW2 5739   0.299   2.720   3.963
 1735SOL     OW 5740   1.482   2.617   4.440
 1735SOL    HW1 5741   1.484   2.576   4.527
 1735SOL    HW2 5742   1.560   2.672   4.437
 1736SOL     OW 5743   0.471   3.127   5.459
 1736SOL    HW1 5744   0.445   3.134   5.367
 1736SOL    HW2 5745   0.389   3.127   5.507
 1737SOL     OW 5746   1.124   3.640   3.953
 1737SOL    HW1 5747   1.049   3.601   3.997
 1737SOL    HW2 5748   1.148   3.577   3.885
 1738SOL     OW 5749   0.203   2.137   5.209
 1738SOL    HW1 5750   0.145   2.213   5.216
 1738SOL    HW2 5751   0.179   2.082   5.284
 1739SOL     OW 5752   1.629   3.244   3.815
 1739SOL    HW1 5753   1.588   3.329   3.800
 1739SOL    HW2 5754   1.561   3.180   3.794
 1740SOL     OW 5755   0.469   3.604   4.036
 1740SOL    HW1 5756   0.514   3.658   4.102
 1740SOL    HW2 5757   0.539   3.566   3.984
 1741SOL     OW 5758   1.402   1.969   4.163
 1741SOL    HW1 5759   1.394   1.944   4.071
 1741SOL    HW2 5760   1.496   1.978   4.179
 1742SOL     OW 5761   0.257   3.654   4.947
 1742SOL    HW1 5762   0.300   3.576   4.982
 1742SOL    HW2 5763   0.216   3.624   4.866
 1743SOL     OW 5764   0.939   3.562   4.620
 1743SOL    HW1 5765   1.017   3.512   4.643
 1743SOL    HW2 5766   0.898   3.511   4.550
 1744SOL     OW 5767   0.397   2.555   4.194
 1744SOL    HW1 5768   0.418   2.462   4.207
 1744SOL    HW2 5769   0.305   2.562   4.220
 1745SOL     OW 5770   0.644   1.981   3.824
 1745SOL    HW1 5771   0.703   1.908   3.844
 1745SOL    HW2 5772   0.591   1.950   3.750
 1746SOL     OW 5773   0.765   2.142   5.480
 1746SOL    HW1 5774   0.845   2.089   5.476
 1746SOL    HW2 5775   0.717   2.109   5.556
 1747SOL     OW 5776   0.876   3.386   4.918
 1747SOL    HW1 5777   0.858   3.348   4.832
 1747SOL    HW2 5778   0.945   3.331   4.955
 1748SOL     OW 5779   1.308   2.457   5.186
 1748SOL    HW1 5780   1.345   2.425   5.268
 1748SOL    HW2 5781   1.347   2.543   5.173
 1749SOL     OW 5782   0.819   3.252   4.670
 1749SOL    HW1 5783   0.903   3.241   4.626
 1749SOL    HW2 5784   0.755   3.258   4.598
 1750SOL     OW 5785   0.929   2.372   4.624
 1750SOL    HW1 5786   0.904   2.363   4.532
 1750SOL    HW2 5787   0.961   2.286   4.650
 1751SOL     OW 5788   0.558   1.925   4.219
 1751SOL    HW1 5789   0.478   1.922   4.271
 1751SOL    HW2 5790   0.548   2.002   4.163
 1752SOL     OW 5791   1.428   3.063   3.763
 1752SOL    HW1 5792   1.457   2.987   3.815
 1752SOL    HW2 5793   1.342   3.085   3.800
 1753SOL     OW 5794   0.296   1.906   3.900
 1753SOL    HW1 5795   0.359   1.972   3.872
 1753SOL    HW2 5796   0.348   1.841   3.946
 1754SOL     OW 5797   0.943   2.112   4.180
 1754SOL    HW1 5798   0.919   2.150   4.096
 1754SOL    HW2 5799   1.037   2.127   4.187
 1755SOL     OW 5800   1.059   2.552   5.181
 1755SOL    HW1 5801   0.992   2.484   5.184
 1755SOL    HW2 5802   1.142   2.505   5.186
 1756SOL     OW 5803   1.220   3.434   4.519
 1756SOL    HW1 5804   1.234   3.499   4.450
 1756SOL    HW2 5805   1.290   3.452   4.583
 1757SOL     OW 5806   0.470   3.015   4.455
 1757SOL    HW1 5807   0.402   2.996   4.520
 1757SOL    HW2 5808   0.427   3.001   4.371
 1758SOL     OW 5809   1.265   3.654   4.336
 1758SOL    HW1 5810   1.313   3.715   4.280
 1758SOL    HW2 5811   1.196   3.707   4.376
 1759SOL     OW 5812   1.023   2.397   3.750
 1759SOL    HW1 5813   0.980   2.480   3.731
 1759SOL    HW2 5814   1.088   2.419   3.817
 1760SOL     OW 5815   0.078   2.376   5.135
 1760SOL    HW1 5816   0.141   2.371   5.064
 1760SOL    HW2 5817   0.063   2.470   5.148
 1761SOL     OW 5818   0.558   2.089   4.892
 1761SOL    HW1 5819   0.603   2.014   4.931
 1761SOL    HW2 5820   0.467   2.078   4.918
 1762SOL     OW 5821   0.867   2.321   4.363
 1762SOL    HW1 5822   0.822   2.376   4.298
 1762SOL    HW2 5823   0.890   2.241   4.314
 1763SOL     OW 5824   1.015   1.917   4.474
 1763SOL    HW1 5825   0.958   1.911   4.397
 1763SOL    HW2 5826   0.993   1.841   4.527
 1764SOL     OW 5827   1.422   3.030   4.573
 1764SOL    HW1 5828   1.356   2.960   4.576
 1764SOL    HW2 5829   1.446   3.035   4.480
 1765SOL     OW 5830   1.842   2.671   4.117
 1765SOL    HW1 5831   1.903   2.621   4.171
 1765SOL    HW2 5832   1.818   2.611   4.046
 1766SOL     OW 5833   0.492   3.284   3.878
 1766SOL    HW1 5834   0.413   3.257   3.925
 1766SOL    HW2 5835   0.482   3.246   3.791
 1767SOL     OW 5836   1.674   3.128   4.364
 1767SOL    HW1 5837   1.769   3.131   4.375
 1767SOL    HW2 5838   1.644   3.216   4.387
 1768SOL     OW 5839   1.394   2.434   3.796
 1768SOL    HW1 5840   1.331   2.413   3.865
 1768SOL    HW2 5841   1.477   2.400   3.828
 1769SOL     OW 5842   0.525   2.121   4.034
 1769SOL    HW1 5843   0.576   2.078   3.966
 1769SOL    HW2 5844   0.502   2.206   3.996
 1770SOL     OW 5845   1.748   3.108   5.296
 1770SOL    HW1 5846   1.811   3.054   5.345
 1770SOL    HW2 5847   1.777   3.198   5.311
 1771SOL     OW 5848   1.054   3.217   5.056
 1771SOL    HW1 5849   0.978   3.186   5.106
 1771SOL    HW2 5850   1.129   3.175   5.098
 1772SOL     OW 5851   1.611   3.488   5.381
 1772SOL    HW1 5852   1.602   3.523   5.292
 1772SOL    HW2 5853   1.693   3.438   5.379
 1773SOL     OW 5854   1.136   3.071   4.828
 1773SOL    HW1 5855   1.074   3.108   4.891
 1773SOL    HW2 5856   1.106   3.104   4.743
 1774SOL     OW 5857   1.625   2.998   4.778
 1774SOL    HW1 5858   1.618   3.040   4.864
 1774SOL    HW2 5859   1.537   3.005   4.741
 1775SOL     OW 5860   0.918   1.956   5.117
 1775SOL    HW1 5861   0.940   1.937   5.026
 1775SOL    HW2 5862   0.998   1.995   5.153
 1776SOL     OW 5863   0.984   2.980   5.449
 1776SOL    HW1 5864   0.893   2.997   5.475
 1776SOL    HW2 5865   0.980   2.901   5.395
 1777SOL     OW 5866   0.710   2.925   4.096
 1777SOL    HW1 5867   0.696   2.905   4.189
 1777SOL    HW2 5868   0.785   2.871   4.071
 1778SOL     OW 5869   0.432   2.693   4.972
 1778SOL    HW1 5870   0.502   2.708   5.036
 1778SOL    HW2 5871   0.378   2.624   5.012
 1779SOL     OW 5872   1.242   2.251   5.011
 1779SOL    HW1 5873   1.265   2.328   5.063
 1779SOL    HW2 5874   1.152   2.266   4.985
 1780SOL     OW 5875   0.065   3.436   5.070
 1780SOL    HW1 5876   0.038   3.527   5.059
 1780SOL    HW2 5877   0.160   3.438   5.075
 1781SOL     OW 5878   0.335   2.975   4.217
 1781SOL    HW1 5879   0.347   3.050   4.159
 1781SOL    HW2 5880   0.334   2.899   4.159
 1782SOL     OW 5881   0.557   2.389   4.577
 1782SOL    HW1 5882   0.570   2.449   4.504
 1782SOL    HW2 5883   0.621   2.417   4.643
 1783SOL     OW 5884   1.247   3.212   4.114
 1783SOL    HW1 5885   1.303   3.283   4.146
 1783SOL    HW2 5886   1.160   3.233   4.148
 1784SOL     OW 5887   1.288   3.323   4.872
 1784SOL    HW1 5888   1.343   3.326   4.950
 1784SOL    HW2 5889   1.231   3.246   4.885
 1785SOL     OW 5890   1.579   2.484   4.204
 1785SOL    HW1 5891   1.525   2.530   4.268
 1785SOL    HW2 5892   1.622   2.553   4.154
 1786SOL     OW 5893   0.345   3.399   5.034
 1786SOL    HW1 5894   0.332   3.350   4.952
 1786SOL    HW2 5895   0.440   3.407   5.042
 1787SOL     OW 5896   0.493   2.615   5.399
 1787SOL    HW1 5897   0.524   2.656   5.318
 1787SOL    HW2 5898   0.555   2.544   5.415
 1788SOL     OW 5899   0.996   1.993   5.478
 1788SOL    HW1 5900   1.055   2.065   5.456
 1788SOL    HW2 5901   1.044   1.914   5.452
 1789SOL     OW 5902   0.496   1.903   5.474
 1789SOL    HW1 5903   0.451   1.848   5.409
 1789SOL    HW2 5904   0.439   1.979   5.483
 1790SOL     OW 5905   0.592   2.736   4.751
 1790SOL    HW1 5906   0.623   2.826   4.752
 1790SOL    HW2 5907   0.535   2.730   4.828
 1791SOL     OW 5908   1.346   2.718   4.743
 1791SOL    HW1 5909   1.261   2.697   4.705
 1791SOL    HW2 5910   1.391   2.634   4.748
 1792SOL     OW 5911   1.200   2.389   3.987
 1792SOL    HW1 5912   1.210   2.311   4.042
 1792SOL    HW2 5913   1.158   2.454   4.043
 1793SOL     OW 5914   0.300   2.048   4.965
 1793SOL    HW1 5915   0.262   2.080   5.047
 1793SOL    HW2 5916   0.283   1.954   4.965
 1794SOL     OW 5917   0.018   3.173   5.012
 1794SOL    HW1 5918   0.064   3.125   5.082
 1794SOL    HW2 5919   0.031   3.265   5.035
 1795SOL     OW 5920   0.723   2.491   4.778
 1795SOL    HW1 5921   0.799   2.476   4.722
 1795SOL    HW2 5922   0.694   2.580   4.756
 1796SOL     OW 5923   0.319   1.931   4.342
 1796SOL    HW1 5924   0.289   2.019   4.365
 1796SOL    HW2 5925   0.318   1.882   4.424
 1797SOL     OW 5926   1.622   2.241   4.085
 1797SOL    HW1 5927   1.652   2.175   4.148
 1797SOL    HW2 5928   1.600   2.317   4.139
 1798SOL     OW 5929   1.034   2.619   4.681
 1798SOL    HW1 5930   1.022   2.638   4.774
 1798SOL    HW2 5931   1.005   2.528   4.671
 1799SOL     OW 5932   0.983   3.430   5.445
 1799SOL    HW1 5933   0.967   3.473   5.361
 1799SOL    HW2 5934   1.025   3.347   5.421
 1800SOL     OW 5935   1.853   3.360   5.327
 1800SOL    HW1 5936   1.873   3.386   5.237
 1800SOL    HW2 5937   1.934   3.378   5.375
 1801SOL     OW 5938   0.348   2.798   5.541
 1801SOL    HW1 5939   0.418   2.829   5.598
 1801SOL    HW2 5940   0.389   2.728   5.489
 1802SOL     OW 5941   1.525   2.135   3.852
 1802SOL    HW1 5942   1.463   2.069   3.880
 1802SOL    HW2 5943   1.561   2.171   3.933
 1803SOL     OW 5944   1.288   2.686   3.753
 1803SOL    HW1 5945   1.331   2.601   3.757
 1803SOL    HW2 5946   1.320   2.725   3.671
 1804SOL     OW 5947   1.069   3.200   4.581
 1804SOL    HW1 5948   1.073   3.128   4.518
 1804SOL    HW2 5949   1.128   3.267   4.545
 1805SOL     OW 5950   0.319   2.672   4.665
 1805SOL    HW1 5951   0.413   2.690   4.665
 1805SOL    HW2 5952   0.311   2.580   4.689
 1806SOL     OW 5953   0.324   2.389   4.708
 1806SOL    HW1 5954   0.286   2.302   4.693
 1806SOL    HW2 5955   0.404   2.390   4.656
 1807SOL     OW 5956   1.131   2.235   5.408
 1807SOL    HW1 5957   1.080   2.288   5.469
 1807SOL    HW2 5958   1.217   2.276   5.407
 1808SOL     OW 5959   1.162   2.059   5.195
 1808SOL    HW1 5960   1.149   2.122   5.266
 1808SOL    HW2 5961   1.199   2.111   5.123
 1809SOL     OW 5962   4.491   3.181   3.935
 1809SOL    HW1 5963   4.398   3.198   3.917
 1809SOL    HW2 5964   4.494   3.088   3.956
 1810SOL     OW 5965   0.103   3.630   4.665
 1810SOL    HW1 5966   0.062   3.588   4.590
 1810SOL    HW2 5967   0.191   3.654   4.635
 1811SOL     OW 5968   0.493   3.436   4.631
 1811SOL    HW1 5969   0.561   3.499   4.655
 1811SOL    HW2 5970   0.536   3.374   4.573
 1812SOL     OW 5971   0.972   2.654   4.942
 1812SOL    HW1 5972   1.025   2.635   5.019
 1812SOL    HW2 5973   0.887   2.615   4.962
 1813SOL     OW 5974   0.025   2.423   4.813
 1813SOL    HW1 5975   0.116   2.402   4.794
 1813SOL    HW2 5976   0.005   2.373   4.892
 1814SOL     OW 5977   0.180   2.391   5.441
 1814SOL    HW1 5978   0.262   2.361   5.403
 1814SOL    HW2 5979   0.157   2.470   5.392
 1815SOL     OW 5980   1.372   2.805   5.402
 1815SOL    HW1 5981   1.399   2.896   5.387
 1815SOL    HW2 5982   1.363   2.768   5.314
 1816SOL     OW 5983   0.819   2.432   4.090
 1816SOL    HW1 5984   0.824   2.358   4.030
 1816SOL    HW2 5985   0.745   2.483   4.058
 1817SOL     OW 5986   0.275   3.424   5.464
 1817SOL    HW1 5987   0.212   3.474   5.515
 1817SOL    HW2 5988   0.258   3.333   5.488
 1818SOL     OW 5989   0.701   2.310   4.979
 1818SOL    HW1 5990   0.648   2.236   4.950
 1818SOL    HW2 5991   0.696   2.373   4.907
 1819SOL     OW 5992   0.924   3.541   5.194
 1819SOL    HW1 5993   0.899   3.501   5.110
 1819SOL    HW2 5994   0.916   3.635   5.179
 1820SOL     OW 5995   0.469   2.351   3.901
 1820SOL    HW1 5996   0.531   2.419   3.928
 1820SOL    HW2 5997   0.387   2.398   3.887
 1821SOL     OW 5998   0.160   3.004   5.180
 1821SOL    HW1 5999   0.144   2.961   5.264
 1821SOL    HW2 6000   0.167   2.932   5.118
 1822SOL     OW 6001   1.331   2.909   4.939
 1822SOL    HW1 6002   1.348   2.845   4.870
 1822SOL    HW2 6003   1.261   2.964   4.904
 1823SOL     OW 6004   1.315   2.719   4.028
 1823SOL    HW1 6005   1.241   2.687   4.080
 1823SOL    HW2 6006   1.289   2.705   3.937
 1824SOL     OW 6007   1.777   3.600   4.879
 1824SOL    HW1 6008   1.837   3.626   4.809
 1824SOL    HW2 6009   1.749   3.511   4.855
 1825SOL     OW 6010   1.240   3.595   4.831
 1825SOL    HW1 6011   1.323   3.619   4.789
 1825SOL    HW2 6012   1.249   3.502   4.851
 1826SOL     OW 6013   0.072   3.048   4.775
 1826SOL    HW1 6014   0.055   3.077   4.865
 1826SOL    HW2 6015   0.040   3.121   4.721
 1827SOL     OW 6016   0.680   3.533   5.462
 1827SOL    HW1 6017   0.618   3.605   5.451
 1827SOL    HW2 6018   0.746   3.547   5.395
 1828SOL     OW 6019   1.713   2.010   4.223
 1828SOL    HW1 6020   1.789   1.997   4.166
 1828SOL    HW2 6021   1.700   1.925   4.265
 1829SOL     OW 6022   1.393   3.430   4.214
 1829SOL    HW1 6023   1.451   3.464   4.146
 1829SOL    HW2 6024   1.342   3.506   4.242
 1830SOL     OW 6025   0.116   3.668   5.574
 1830SOL    HW1 6026   0.075   3.597   5.624
 1830SOL    HW2 6027   0.180   3.706   5.634
 1831SOL     OW 6028   1.275   2.792   4.393
 1831SOL    HW1 6029   1.349   2.731   4.402
 1831SOL    HW2 6030   1.309   2.864   4.339
 1832SOL     OW 6031   0.805   3.140   5.149
 1832SOL    HW1 6032   0.779   3.180   5.231
 1832SOL    HW2 6033   0.734   3.160   5.088
 1833SOL     OW 6034   0.672   3.487   3.879
 1833SOL    HW1 6035   0.683   3.501   3.785
 1833SOL    HW2 6036   0.616   3.409   3.886
 1834SOL     OW 6037   1.618   3.589   5.115
 1834SOL    HW1 6038   1.673   3.593   5.037
 1834SOL    HW2 6039   1.604   3.680   5.140
 1835SOL     OW 6040   1.899   2.033   4.638
 1835SOL    HW1 6041   1.911   1.940   4.655
 1835SOL    HW2 6042   1.804   2.047   4.642
 1836SOL     OW 6043   0.260   2.180   4.440
 1836SOL    HW1 6044   0.177   2.220   4.414
 1836SOL    HW2 6045   0.252   2.166   4.534
 1837SOL     OW 6046   1.208   3.464   3.757
 1837SOL    HW1 6047   1.197   3.373   3.784
 1837SOL    HW2 6048   1.142   3.477   3.689
 1838SOL     OW 6049   0.825   2.872   5.097
 1838SOL    HW1 6050   0.868   2.867   5.011
 1838SOL    HW2 6051   0.820   2.966   5.115
 1839SOL     OW 6052   0.916   2.773   4.015
 1839SOL    HW1 6053   0.977   2.806   3.948
 1839SOL    HW2 6054   0.966   2.705   4.061
 1840SOL     OW 6055   1.489   3.490   3.769
 1840SOL    HW1 6056   1.395   3.480   3.754
 1840SOL    HW2 6057   1.527   3.496   3.681
 1841SOL     OW 6058   0.373   3.173   5.214
 1841SOL    HW1 6059   0.354   3.252   5.163
 1841SOL    HW2 6060   0.299   3.115   5.196
 1842SOL     OW 6061   1.631   3.156   5.018
 1842SOL    HW1 6062   1.672   3.131   5.101
 1842SOL    HW2 6063   1.564   3.220   5.044
 1843SOL     OW 6064   1.059   2.973   4.434
 1843SOL    HW1 6065   0.986   2.923   4.471
 1843SOL    HW2 6066   1.122   2.906   4.406
 1844SOL     OW 6067   1.018   2.101   4.695
 1844SOL    HW1 6068   1.016   2.057   4.611
 1844SOL    HW2 6069   1.013   2.031   4.760
 1845SOL     OW 6070   0.607   3.351   4.206
 1845SOL    HW1 6071   0.654   3.302   4.138
 1845SOL    HW2 6072   0.527   3.381   4.162
 1846SOL     OW 6073   0.253   3.205   3.998
 1846SOL    HW1 6074   0.158   3.200   3.986
 1846SOL    HW2 6075   0.264   3.237   4.087
 1847SOL     OW 6076   0.116   2.867   5.416
 1847SOL    HW1 6077   0.053   2.914   5.470
 1847SOL    HW2 6078   0.195   2.861   5.470
 1848SOL     OW 6079   0.677   2.060   5.223
 1848SOL    HW1 6080   0.760   2.037   5.183
 1848SOL    HW2 6081   0.700   2.090   5.311
 1849SOL     OW 6082   0.073   2.189   3.752
 1849SOL    HW1 6083   4.481   2.204   3.773
 1849SOL    HW2 6084   0.102   2.270   3.710
 1850SOL     OW 6085   1.399   2.727   5.141
 1850SOL    HW1 6086   1.373   2.791   5.075
 1850SOL    HW2 6087   1.490   2.748   5.161
 1851SOL     OW 6088   0.087   2.034   4.025
 1851SOL    HW1 6089   0.081   2.111   3.968
 1851SOL    HW2 6090   0.163   1.985   3.992
 1852SOL     OW 6091   1.178   3.197   3.841
 1852SOL    HW1 6092   1.087   3.168   3.842
 1852SOL    HW2 6093   1.204   3.198   3.933
 1853SOL     OW 6094   0.627   2.695   5.161
 1853SOL    HW1 6095   0.685   2.769   5.145
 1853SOL    HW2 6096   0.686   2.619   5.164
 1854SOL     OW 6097   1.483   3.645   4.706
 1854SOL    HW1 6098   1.505   3.710   4.640
 1854SOL    HW2 6099   1.567   3.621   4.745
 1855SOL     OW 6100   0.707   2.425   5.431
 1855SOL    HW1 6101   0.760   2.483   5.486
 1855SOL    HW2 6102   0.730   2.337   5.460
 1856SOL     OW 6103   1.473   3.058   5.347
 1856SOL    HW1 6104   1.458   3.079   5.439
 1856SOL    HW2 6105   1.565   3.080   5.332
 1857SOL     OW 6106   0.376   3.608   5.290
 1857SOL    HW1 6107   0.291   3.649   5.272
 1857SOL    HW2 6108   0.354   3.529   5.339
 1858SOL     OW 6109   1.218   2.183   4.183
 1858SOL    HW1 6110   1.279   2.109   4.176
 1858SOL    HW2 6111   1.249   2.232   4.260
 1859SOL     OW 6112   0.588   2.596   4.396
 1859SOL    HW1 6113   0.626   2.683   4.381
 1859SOL    HW2 6114   0.522   2.588   4.327
 1860SOL     OW 6115   0.866   3.227   3.766
 1860SOL    HW1 6116   0.826   3.254   3.849
 1860SOL    HW2 6117   0.879   3.309   3.718
 1861SOL     OW 6118   0.664   3.647   4.664
 1861SOL    HW1 6119   0.645   3.738   4.643
 1861SOL    HW2 6120   0.759   3.640   4.656
 1862SOL     OW 6121   0.870   2.832   4.578
 1862SOL    HW1 6122   0.920   2.760   4.615
 1862SOL    HW2 6123   0.831   2.877   4.653
 1863SOL     OW 6124   1.078   2.851   3.813
 1863SOL    HW1 6125   1.056   2.902   3.735
 1863SOL    HW2 6126   1.152   2.796   3.786
 1864SOL     OW 6127   1.849   3.415   4.566
 1864SOL    HW1 6128   1.767   3.403   4.517
 1864SOL    HW2 6129   1.845   3.349   4.635
 1865SOL     OW 6130   0.234   3.165   5.585
 1865SOL    HW1 6131   0.148   3.125   5.568
 1865SOL    HW2 6132   0.237   3.176   5.680
 1866SOL     OW 6133   0.123   3.090   4.392
 1866SOL    HW1 6134   0.142   3.050   4.477
 1866SOL    HW2 6135   0.178   3.042   4.330
 1867SOL     OW 6136   0.687   3.269   5.357
 1867SOL    HW1 6137   0.606   3.226   5.386
 1867SOL    HW2 6138   0.680   3.357   5.394
 1868SOL     OW 6139   0.435   2.294   4.249
 1868SOL    HW1 6140   0.461   2.220   4.194
 1868SOL    HW2 6141   0.383   2.254   4.319
 1869SOL     OW 6142   1.693   3.350   4.818
 1869SOL    HW1 6143   1.617   3.328   4.764
 1869SOL    HW2 6144   1.693   3.284   4.887
 1870SOL     OW 6145   0.293   2.353   4.973
 1870SOL    HW1 6146   0.366   2.306   5.013
 1870SOL    HW2 6147   0.320   2.368   4.883
 1871SOL     OW 6148   0.831   3.440   4.399
 1871SOL    HW1 6149   0.810   3.503   4.330
 1871SOL    HW2 6150   0.756   3.381   4.401
 1872SOL     OW 6151   1.008   1.876   4.862
 1872SOL    HW1 6152   0.956   1.809   4.817
 1872SOL    HW2 6153   1.095   1.837   4.870
 1873SOL     OW 6154   0.774   3.196   4.044
 1873SOL    HW1 6155   0.746   3.105   4.051
 1873SOL    HW2 6156   0.856   3.200   4.094
 1874SOL     OW 6157   0.621   3.417   5.012
 1874SOL    HW1 6158   0.622   3.499   5.061
 1874SOL    HW2 6159   0.708   3.411   4.973
 1875SOL     OW 6160   1.356   1.914   3.894
 1875SOL    HW1 6161   1.389   1.845   3.836
 1875SOL    HW2 6162   1.267   1.887   3.917
 1876SOL     OW 6163   1.302   2.325   4.407
 1876SOL    HW1 6164   1.245   2.401   4.412
 1876SOL    HW2 6165   1.293   2.282   4.492
 1877SOL     OW 6166   0.039   2.911   4.018
 1877SOL    HW1 6167   0.130   2.887   4.004
 1877SOL    HW2 6168   0.021   2.888   4.109
 1878SOL     OW 6169   0.889   3.522   4.062
 1878SOL    HW1 6170   0.815   3.505   4.005
 1878SOL    HW2 6171   0.861   3.594   4.118
 1879SOL     OW 6172   0.244   2.492   5.710
 1879SOL    HW1 6173   0.170   2.465   5.764
 1879SOL    HW2 6174   0.215   2.477   5.620
 1880SOL     OW 6175   0.213   2.136   6.576
 1880SOL    HW1 6176   0.249   2.109   6.661
 1880SOL    HW2 6177   0.137   2.079   6.563
 1881SOL     OW 6178   0.005   2.262   6.226
 1881SOL    HW1 6179   4.424   2.297   6.263
 1881SOL    HW2 6180   4.478   2.183   6.179
 1882SOL     OW 6181   0.569   3.158   6.768
 1882SOL    HW1 6182   0.483   3.163   6.728
 1882SOL    HW2 6183   0.584   3.246   6.803
 1883SOL     OW 6184   1.563   3.376   6.295
 1883SOL    HW1 6185   1.520   3.354   6.377
 1883SOL    HW2 6186   1.492   3.381   6.231
 1884SOL     OW 6187   1.134   2.563   6.283
 1884SOL    HW1 6188   1.186   2.643   6.272
 1884SOL    HW2 6189   1.087   2.576   6.366
 1885SOL     OW 6190   0.746   3.000   6.631
 1885SOL    HW1 6191   0.680   3.037   6.689
 1885SOL    HW2 6192   0.785   3.076   6.588
 1886SOL     OW 6193   0.873   2.624   7.408
 1886SOL    HW1 6194   0.859   2.694   7.472
 1886SOL    HW2 6195   0.896   2.671   7.327
 1887SOL     OW 6196   0.684   2.861   6.231
 1887SOL    HW1 6197   0.751   2.852   6.300
 1887SOL    HW2 6198   0.616   2.915   6.271
 1888SOL     OW 6199   0.714   3.010   7.405
 1888SOL    HW1 6200   0.761   3.088   7.434
 1888SOL    HW2 6201   0.634   3.045   7.365
 1889SOL     OW 6202   0.333   3.279   6.654
 1889SOL    HW1 6203   0.252   3.258   6.608
 1889SOL    HW2 6204   0.382   3.334   6.593
 1890SOL     OW 6205   1.459   3.364   6.946
 1890SOL    HW1 6206   1.513   3.443   6.956
 1890SOL    HW2 6207   1.391   3.373   7.013
 1891SOL     OW 6208   0.449   2.263   7.066
 1891SOL    HW1 6209   0.528   2.210   7.076
 1891SOL    HW2 6210   0.377   2.202   7.080
 1892SOL     OW 6211   0.246   3.552   6.059
 1892SOL    HW1 6212   0.229   3.638   6.099
 1892SOL    HW2 6213   0.319   3.569   5.999
 1893SOL     OW 6214   1.137   3.204   7.280
 1893SOL    HW1 6215   1.178   3.198   7.366
 1893SOL    HW2 6216   1.085   3.124   7.272
 1894SOL     OW 6217   0.259   3.287   6.111
 1894SOL    HW1 6218   0.245   3.382   6.114
 1894SOL    HW2 6219   0.199   3.252   6.177
 1895SOL     OW 6220   0.256   2.946   6.472
 1895SOL    HW1 6221   0.268   2.853   6.494
 1895SOL    HW2 6222   0.193   2.977   6.537
 1896SOL     OW 6223   0.607   3.654   7.015
 1896SOL    HW1 6224   0.525   3.636   7.059
 1896SOL    HW2 6225   0.629   3.744   7.040
 1897SOL     OW 6226   0.571   2.853   5.730
 1897SOL    HW1 6227   0.622   2.892   5.659
 1897SOL    HW2 6228   0.614   2.883   5.810
 1898SOL     OW 6229   1.596   1.991   7.050
 1898SOL    HW1 6230   1.617   2.072   7.004
 1898SOL    HW2 6231   1.577   2.018   7.140
 1899SOL     OW 6232   0.137   2.513   6.159
 1899SOL    HW1 6233   0.092   2.432   6.182
 1899SOL    HW2 6234   0.108   2.577   6.224
 1900SOL     OW 6235   1.845   3.616   5.919
 1900SOL    HW1 6236   1.913   3.589   5.981
 1900SOL    HW2 6237   1.865   3.707   5.900
 1901SOL     OW 6238   0.032   3.466   5.737
 1901SOL    HW1 6239   0.017   3.372   5.729
 1901SOL    HW2 6240   0.043   3.481   5.831
 1902SOL     OW 6241   1.625   3.004   6.007
 1902SOL    HW1 6242   1.693   3.038   5.949
 1902SOL    HW2 6243   1.642   3.047   6.091
 1903SOL     OW 6244   0.109   2.629   7.156
 1903SOL    HW1 6245   0.195   2.617   7.116
 1903SOL    HW2 6246   0.109   2.720   7.186
 1904SOL     OW 6247   0.616   3.252   6.323
 1904SOL    HW1 6248   0.570   3.169   6.332
 1904SOL    HW2 6249   0.599   3.279   6.232
 1905SOL     OW 6250   1.286   3.098   7.005
 1905SOL    HW1 6251   1.317   3.029   6.946
 1905SOL    HW2 6252   1.345   3.092   7.081
 1906SOL     OW 6253   0.822   1.865   6.100
 1906SOL    HW1 6254   0.860   1.949   6.076
 1906SOL    HW2 6255   0.728   1.882   6.105
 1907SOL     OW 6256   0.176   2.800   6.864
 1907SOL    HW1 6257   0.267   2.780   6.845
 1907SOL    HW2 6258   0.132   2.799   6.779
 1908SOL     OW 6259   1.482   2.890   5.795
 1908SOL    HW1 6260   1.424   2.822   5.830
 1908SOL    HW2 6261   1.538   2.914   5.868
 1909SOL     OW 6262   1.185   3.674   7.211
 1909SOL    HW1 6263   1.190   3.734   7.136
 1909SOL    HW2 6264   1.202   3.588   7.174
 1910SOL     OW 6265   0.335   2.120   7.393
 1910SOL    HW1 6266   0.379   2.194   7.435
 1910SOL    HW2 6267   0.245   2.125   7.424
 1911SOL     OW 6268   1.468   3.281   6.535
 1911SOL    HW1 6269   1.401   3.298   6.601
 1911SOL    HW2 6270   1.455   3.190   6.509
 1912SOL     OW 6271   1.656   3.610   6.163
 1912SOL    HW1 6272   1.637   3.579   6.075
 1912SOL    HW2 6273   1.632   3.537   6.220
 1913SOL     OW 6274   0.598   2.579   5.857
 1913SOL    HW1 6275   0.597   2.662   5.810
 1913SOL    HW2 6276   0.532   2.589   5.925
 1914SOL     OW 6277   1.286   2.212   6.514
 1914SOL    HW1 6278   1.197   2.180   6.532
 1914SOL    HW2 6279   1.342   2.158   6.569
 1915SOL     OW 6280   1.580   3.535   5.896
 1915SOL    HW1 6281   1.671   3.562   5.888
 1915SOL    HW2 6282   1.551   3.520   5.806
 1916SOL     OW 6283   0.792   2.477   7.035
 1916SOL    HW1 6284   0.765   2.451   7.123
 1916SOL    HW2 6285   0.755   2.410   6.977
 1917SOL     OW 6286   1.392   2.336   7.264
 1917SOL    HW1 6287   1.397   2.380   7.349
 1917SOL    HW2 6288   1.451   2.261   7.273
 1918SOL     OW 6289   0.951   2.747   7.171
 1918SOL    HW1 6290   1.006   2.679   7.133
 1918SOL    HW2 6291   0.904   2.785   7.097
 1919SOL     OW 6292   0.992   2.275   6.821
 1919SOL    HW1 6293   0.903   2.291   6.852
 1919SOL    HW2 6294   0.980   2.229   6.737
 1920SOL     OW 6295   1.052   2.564   6.014
 1920SOL    HW1 6296   1.069   2.557   6.108
 1920SOL    HW2 6297   0.969   2.518   6.002
 1921SOL     OW 6298   0.089   2.693   6.374
 1921SOL    HW1 6299   0.175   2.683   6.414
 1921SOL    HW2 6300   0.028   2.692   6.447
 1922SOL     OW 6301   0.121   3.722   7.166
 1922SOL    HW1 6302   0.115   3.699   7.259
 1922SOL    HW2 6303   0.044   3.683   7.126
 1923SOL     OW 6304   0.897   2.212   5.780
 1923SOL    HW1 6305   0.935   2.275   5.719
 1923SOL    HW2 6306   0.905   2.128   5.736
 1924SOL     OW 6307   1.701   2.436   7.418
 1924SOL    HW1 6308   1.666   2.509   7.366
 1924SOL    HW2 6309   1.730   2.372   7.352
 1925SOL     OW 6310   1.375   3.006   6.129
 1925SOL    HW1 6311   1.454   3.000   6.076
 1925SOL    HW2 6312   1.318   3.066   6.081
 1926SOL     OW 6313   0.555   2.040   6.482
 1926SOL    HW1 6314   0.556   2.072   6.572
 1926SOL    HW2 6315   0.553   2.120   6.428
 1927SOL     OW 6316   0.999   3.306   6.056
 1927SOL    HW1 6317   0.968   3.381   6.005
 1927SOL    HW2 6318   0.975   3.327   6.146
 1928SOL     OW 6319   0.359   3.677   6.447
 1928SOL    HW1 6320   0.400   3.591   6.459
 1928SOL    HW2 6321   0.428   3.740   6.467
 1929SOL     OW 6322   1.227   3.401   7.099
 1929SOL    HW1 6323   1.215   3.330   7.161
 1929SOL    HW2 6324   1.159   3.388   7.033
 1930SOL     OW 6325   0.311   2.813   5.847
 1930SOL    HW1 6326   0.393   2.838   5.804
 1930SOL    HW2 6327   0.299   2.721   5.825
 1931SOL     OW 6328   0.471   3.128   7.321
 1931SOL    HW1 6329   0.445   3.135   7.229
 1931SOL    HW2 6330   0.389   3.127   7.370
 1932SOL     OW 6331   1.124   3.640   5.815
 1932SOL    HW1 6332   1.048   3.601   5.859
 1932SOL    HW2 6333   1.148   3.577   5.747
 1933SOL     OW 6334   0.201   2.137   7.070
 1933SOL    HW1 6335   0.144   2.214   7.078
 1933SOL    HW2 6336   0.180   2.084   7.147
 1934SOL     OW 6337   1.627   3.247   5.676
 1934SOL    HW1 6338   1.590   3.333   5.661
 1934SOL    HW2 6339   1.557   3.186   5.653
 1935SOL     OW 6340   0.469   3.604   5.898
 1935SOL    HW1 6341   0.514   3.658   5.964
 1935SOL    HW2 6342   0.539   3.566   5.846
 1936SOL     OW 6343   0.257   3.654   6.809
 1936SOL    HW1 6344   0.301   3.576   6.844
 1936SOL    HW2 6345   0.216   3.624   6.728
 1937SOL     OW 6346   0.938   3.562   6.482
 1937SOL    HW1 6347   1.015   3.511   6.507
 1937SOL    HW2 6348   0.897   3.511   6.412
 1938SOL     OW 6349   0.398   2.554   6.056
 1938SOL    HW1 6350   0.418   2.462   6.069
 1938SOL    HW2 6351   0.306   2.562   6.082
 1939SOL     OW 6352   1.529   2.086   7.310
 1939SOL    HW1 6353   1.540   2.107   7.403
 1939SOL    HW2 6354   1.460   2.020   7.307
 1940SOL     OW 6355   0.645   1.981   5.685
 1940SOL    HW1 6356   0.702   1.907   5.706
 1940SOL    HW2 6357   0.591   1.951   5.612
 1941SOL     OW 6358   0.764   2.142   7.341
 1941SOL    HW1 6359   0.844   2.090   7.338
 1941SOL    HW2 6360   0.718   2.110   7.419
 1942SOL     OW 6361   0.877   3.386   6.780
 1942SOL    HW1 6362   0.859   3.348   6.694
 1942SOL    HW2 6363   0.946   3.331   6.817
 1943SOL     OW 6364   1.338   2.452   7.020
 1943SOL    HW1 6365   1.370   2.421   7.104
 1943SOL    HW2 6366   1.377   2.539   7.010
 1944SOL     OW 6367   0.819   3.252   6.532
 1944SOL    HW1 6368   0.903   3.241   6.488
 1944SOL    HW2 6369   0.755   3.258   6.461
 1945SOL     OW 6370   0.930   2.371   6.487
 1945SOL    HW1 6371   0.905   2.362   6.395
 1945SOL    HW2 6372   0.962   2.284   6.512
 1946SOL     OW 6373   0.558   1.924   6.081
 1946SOL    HW1 6374   0.478   1.922   6.133
 1946SOL    HW2 6375   0.548   2.001   6.025
 1947SOL     OW 6376   1.420   3.079   5.615
 1947SOL    HW1 6377   1.442   3.004   5.671
 1947SOL    HW2 6378   1.335   3.110   5.649
 1948SOL     OW 6379   0.295   1.907   5.762
 1948SOL    HW1 6380   0.358   1.973   5.733
 1948SOL    HW2 6381   0.348   1.841   5.808
 1949SOL     OW 6382   0.936   2.111   6.040
 1949SOL    HW1 6383   0.909   2.149   5.957
 1949SOL    HW2 6384   1.030   2.128   6.045
 1950SOL     OW 6385   1.081   2.546   7.043
 1950SOL    HW1 6386   1.016   2.476   7.046
 1950SOL    HW2 6387   1.165   2.502   7.037
 1951SOL     OW 6388   1.222   3.433   6.380
 1951SOL    HW1 6389   1.235   3.499   6.312
 1951SOL    HW2 6390   1.289   3.452   6.445
 1952SOL     OW 6391   0.470   3.015   6.317
 1952SOL    HW1 6392   0.402   2.996   6.382
 1952SOL    HW2 6393   0.426   3.001   6.233
 1953SOL     OW 6394   1.265   3.654   6.198
 1953SOL    HW1 6395   1.313   3.715   6.143
 1953SOL    HW2 6396   1.196   3.707   6.238
 1954SOL     OW 6397   1.020   2.398   5.609
 1954SOL    HW1 6398   0.977   2.481   5.590
 1954SOL    HW2 6399   1.080   2.418   5.681
 1955SOL     OW 6400   0.076   2.377   6.996
 1955SOL    HW1 6401   0.141   2.371   6.926
 1955SOL    HW2 6402   0.065   2.471   7.011
 1956SOL     OW 6403   0.559   2.089   6.755
 1956SOL    HW1 6404   0.604   2.015   6.796
 1956SOL    HW2 6405   0.467   2.078   6.780
 1957SOL     OW 6406   0.868   2.321   6.225
 1957SOL    HW1 6407   0.821   2.377   6.163
 1957SOL    HW2 6408   0.887   2.241   6.175
 1958SOL     OW 6409   1.026   1.909   6.328
 1958SOL    HW1 6410   0.960   1.908   6.258
 1958SOL    HW2 6411   0.999   1.839   6.387
 1959SOL     OW 6412   1.437   3.025   6.442
 1959SOL    HW1 6413   1.374   2.956   6.459
 1959SOL    HW2 6414   1.443   3.029   6.346
 1960SOL     OW 6415   1.453   2.450   6.574
 1960SOL    HW1 6416   1.402   2.370   6.584
 1960SOL    HW2 6417   1.516   2.448   6.647
 1961SOL     OW 6418   0.492   3.284   5.740
 1961SOL    HW1 6419   0.413   3.257   5.788
 1961SOL    HW2 6420   0.482   3.247   5.653
 1962SOL     OW 6421   1.687   3.139   6.232
 1962SOL    HW1 6422   1.760   3.138   6.294
 1962SOL    HW2 6423   1.643   3.222   6.249
 1963SOL     OW 6424   1.393   2.433   5.676
 1963SOL    HW1 6425   1.313   2.432   5.728
 1963SOL    HW2 6426   1.453   2.375   5.723
 1964SOL     OW 6427   0.526   2.121   5.896
 1964SOL    HW1 6428   0.576   2.078   5.827
 1964SOL    HW2 6429   0.503   2.206   5.858
 1965SOL     OW 6430   1.748   3.105   7.147
 1965SOL    HW1 6431   1.835   3.066   7.142
 1965SOL    HW2 6432   1.764   3.194   7.178
 1966SOL     OW 6433   1.055   3.216   6.918
 1966SOL    HW1 6434   0.980   3.184   6.968
 1966SOL    HW2 6435   1.130   3.174   6.959
 1967SOL     OW 6436   1.610   3.490   7.244
 1967SOL    HW1 6437   1.601   3.523   7.155
 1967SOL    HW2 6438   1.691   3.440   7.244
 1968SOL     OW 6439   1.135   3.072   6.688
 1968SOL    HW1 6440   1.075   3.108   6.753
 1968SOL    HW2 6441   1.104   3.106   6.604
 1969SOL     OW 6442   1.657   2.973   6.656
 1969SOL    HW1 6443   1.635   3.030   6.729
 1969SOL    HW2 6444   1.581   2.979   6.597
 1970SOL     OW 6445   0.918   1.957   6.978
 1970SOL    HW1 6446   0.941   1.938   6.887
 1970SOL    HW2 6447   0.997   1.996   7.015
 1971SOL     OW 6448   0.984   2.977   7.309
 1971SOL    HW1 6449   0.893   2.993   7.333
 1971SOL    HW2 6450   0.981   2.898   7.255
 1972SOL     OW 6451   0.709   2.926   5.959
 1972SOL    HW1 6452   0.695   2.906   6.051
 1972SOL    HW2 6453   0.784   2.872   5.933
 1973SOL     OW 6454   0.433   2.694   6.835
 1973SOL    HW1 6455   0.503   2.708   6.898
 1973SOL    HW2 6456   0.378   2.625   6.874
 1974SOL     OW 6457   1.262   2.238   6.868
 1974SOL    HW1 6458   1.295   2.316   6.912
 1974SOL    HW2 6459   1.172   2.260   6.845
 1975SOL     OW 6460   0.065   3.436   6.932
 1975SOL    HW1 6461   0.039   3.527   6.921
 1975SOL    HW2 6462   0.160   3.438   6.937
 1976SOL     OW 6463   0.335   2.975   6.079
 1976SOL    HW1 6464   0.346   3.050   6.021
 1976SOL    HW2 6465   0.334   2.899   6.021
 1977SOL     OW 6466   0.557   2.389   6.439
 1977SOL    HW1 6467   0.570   2.449   6.366
 1977SOL    HW2 6468   0.620   2.417   6.505
 1978SOL     OW 6469   1.245   3.212   5.977
 1978SOL    HW1 6470   1.301   3.283   6.008
 1978SOL    HW2 6471   1.158   3.235   6.010
 1979SOL     OW 6472   1.287   3.323   6.734
 1979SOL    HW1 6473   1.342   3.326   6.812
 1979SOL    HW2 6474   1.233   3.245   6.747
 1980SOL     OW 6475   0.345   3.399   6.896
 1980SOL    HW1 6476   0.332   3.350   6.814
 1980SOL    HW2 6477   0.440   3.407   6.904
 1981SOL     OW 6478   0.493   2.614   7.260
 1981SOL    HW1 6479   0.525   2.655   7.180
 1981SOL    HW2 6480   0.556   2.543   7.277
 1982SOL     OW 6481   1.607   2.644   7.271
 1982SOL    HW1 6482   1.521   2.685   7.265
 1982SOL    HW2 6483   1.658   2.686   7.202
 1983SOL     OW 6484   0.996   1.994   7.339
 1983SOL    HW1 6485   1.055   2.066   7.317
 1983SOL    HW2 6486   1.044   1.915   7.314
 1984SOL     OW 6487   0.496   1.903   7.335
 1984SOL    HW1 6488   0.452   1.848   7.271
 1984SOL    HW2 6489   0.439   1.980   7.344
 1985SOL     OW 6490   0.591   2.737   6.613
 1985SOL    HW1 6491   0.624   2.827   6.615
 1985SOL    HW2 6492   0.535   2.730   6.690
 1986SOL     OW 6493   1.355   2.716   6.604
 1986SOL    HW1 6494   1.267   2.694   6.573
 1986SOL    HW2 6495   1.405   2.636   6.591
 1987SOL     OW 6496   1.181   2.398   5.841
 1987SOL    HW1 6497   1.189   2.317   5.892
 1987SOL    HW2 6498   1.144   2.461   5.903
 1988SOL     OW 6499   0.300   2.048   6.827
 1988SOL    HW1 6500   0.262   2.080   6.909
 1988SOL    HW2 6501   0.283   1.954   6.827
 1989SOL     OW 6502   0.018   3.173   6.874
 1989SOL    HW1 6503   0.063   3.125   6.943
 1989SOL    HW2 6504   0.031   3.266   6.896
 1990SOL     OW 6505   0.721   2.490   6.639
 1990SOL    HW1 6506   0.799   2.476   6.584
 1990SOL    HW2 6507   0.694   2.580   6.619
 1991SOL     OW 6508   1.737   2.823   7.443
 1991SOL    HW1 6509   1.694   2.756   7.390
 1991SOL    HW2 6510   1.677   2.839   7.515
 1992SOL     OW 6511   0.319   1.931   6.204
 1992SOL    HW1 6512   0.289   2.019   6.228
 1992SOL    HW2 6513   0.318   1.882   6.286
 1993SOL     OW 6514   1.028   2.620   6.543
 1993SOL    HW1 6515   1.021   2.638   6.637
 1993SOL    HW2 6516   1.002   2.529   6.534
 1994SOL     OW 6517   0.983   3.429   7.307
 1994SOL    HW1 6518   0.967   3.472   7.223
 1994SOL    HW2 6519   1.025   3.347   7.284
 1995SOL     OW 6520   1.851   3.364   7.191
 1995SOL    HW1 6521   1.873   3.391   7.102
 1995SOL    HW2 6522   1.932   3.378   7.240
 1996SOL     OW 6523   0.348   2.797   7.402
 1996SOL    HW1 6524   0.418   2.829   7.460
 1996SOL    HW2 6525   0.389   2.728   7.350
 1997SOL     OW 6526   1.284   2.683   5.624
 1997SOL    HW1 6527   1.335   2.602   5.627
 1997SOL    HW2 6528   1.317   2.729   5.547
 1998SOL     OW 6529   1.069   3.201   6.442
 1998SOL    HW1 6530   1.074   3.129   6.379
 1998SOL    HW2 6531   1.127   3.267   6.406
 1999SOL     OW 6532   0.319   2.673   6.527
 1999SOL    HW1 6533   0.413   2.690   6.529
 1999SOL    HW2 6534   0.312   2.580   6.551
 2000SOL     OW 6535   0.324   2.389   6.570
 2000SOL    HW1 6536   0.286   2.302   6.555
 2000SOL    HW2 6537   0.404   2.390   6.518
 2001SOL     OW 6538   1.134   2.235   7.271
 2001SOL    HW1 6539   1.086   2.289   7.334
 2001SOL    HW2 6540   1.221   2.275   7.267
 2002SOL     OW 6541   1.160   2.061   7.058
 2002SOL    HW1 6542   1.149   2.123   7.129
 2002SOL    HW2 6543   1.202   2.111   6.988
 2003SOL     OW 6544   4.491   3.181   5.797
 2003SOL    HW1 6545   4.398   3.198   5.778
 2003SOL    HW2 6546   4.494   3.088   5.818
 2004SOL     OW 6547   0.103   3.630   6.527
 2004SOL    HW1 6548   0.062   3.588   6.452
 2004SOL    HW2 6549   0.191   3.654   6.497
 2005SOL     OW 6550   0.493   3.436   6.493
 2005SOL    HW1 6551   0.561   3.499   6.517
 2005SOL    HW2 6552   0.536   3.374   6.435
 2006SOL     OW 6553   0.975   2.651   6.809
 2006SOL    HW1 6554   1.035   2.631   6.881
 2006SOL    HW2 6555   0.892   2.612   6.835
 2007SOL     OW 6556   0.024   2.422   6.674
 2007SOL    HW1 6557   0.116   2.402   6.656
 2007SOL    HW2 6558   0.006   2.374   6.755
 2008SOL     OW 6559   0.179   2.391   7.304
 2008SOL    HW1 6560   0.262   2.361   7.267
 2008SOL    HW2 6561   0.158   2.470   7.254
 2009SOL     OW 6562   1.379   2.796   7.242
 2009SOL    HW1 6563   1.401   2.890   7.239
 2009SOL    HW2 6564   1.377   2.769   7.151
 2010SOL     OW 6565   0.819   2.433   5.951
 2010SOL    HW1 6566   0.823   2.359   5.891
 2010SOL    HW2 6567   0.745   2.485   5.920
 2011SOL     OW 6568   1.647   2.464   6.772
 2011SOL    HW1 6569   1.642   2.402   6.844
 2011SOL    HW2 6570   1.733   2.448   6.732
 2012SOL     OW 6571   0.275   3.424   7.326
 2012SOL    HW1 6572   0.212   3.474   7.377
 2012SOL    HW2 6573   0.258   3.333   7.350
 2013SOL     OW 6574   0.706   2.310   6.841
 2013SOL    HW1 6575   0.651   2.236   6.814
 2013SOL    HW2 6576   0.699   2.373   6.769
 2014SOL     OW 6577   0.924   3.541   7.056
 2014SOL    HW1 6578   0.899   3.501   6.972
 2014SOL    HW2 6579   0.916   3.635   7.041
 2015SOL     OW 6580   0.470   2.351   5.763
 2015SOL    HW1 6581   0.531   2.420   5.791
 2015SOL    HW2 6582   0.388   2.397   5.749
 2016SOL     OW 6583   0.160   3.004   7.042
 2016SOL    HW1 6584   0.144   2.962   7.126
 2016SOL    HW2 6585   0.167   2.932   6.979
 2017SOL     OW 6586   1.323   2.903   6.803
 2017SOL    HW1 6587   1.344   2.840   6.735
 2017SOL    HW2 6588   1.256   2.960   6.763
 2018SOL     OW 6589   1.305   2.707   5.900
 2018SOL    HW1 6590   1.227   2.678   5.948
 2018SOL    HW2 6591   1.282   2.696   5.808
 2019SOL     OW 6592   1.777   3.600   6.741
 2019SOL    HW1 6593   1.837   3.627   6.671
 2019SOL    HW2 6594   1.751   3.511   6.718
 2020SOL     OW 6595   1.240   3.595   6.692
 2020SOL    HW1 6596   1.323   3.618   6.650
 2020SOL    HW2 6597   1.249   3.502   6.713
 2021SOL     OW 6598   0.071   3.048   6.637
 2021SOL    HW1 6599   0.055   3.077   6.727
 2021SOL    HW2 6600   0.040   3.121   6.582
 2022SOL     OW 6601   0.680   3.533   7.324
 2022SOL    HW1 6602   0.619   3.605   7.313
 2022SOL    HW2 6603   0.747   3.547   7.257
 2023SOL     OW 6604   1.392   3.430   6.075
 2023SOL    HW1 6605   1.450   3.464   6.007
 2023SOL    HW2 6606   1.341   3.506   6.103
 2024SOL     OW 6607   0.116   3.668   7.436
 2024SOL    HW1 6608   0.074   3.598   7.486
 2024SOL    HW2 6609   0.180   3.706   7.496
 2025SOL     OW 6610   1.290   2.785   6.259
 2025SOL    HW1 6611   1.373   2.745   6.284
 2025SOL    HW2 6612   1.314   2.860   6.205
 2026SOL     OW 6613   0.806   3.139   7.011
 2026SOL    HW1 6614   0.779   3.179   7.093
 2026SOL    HW2 6615   0.734   3.158   6.950
 2027SOL     OW 6616   0.672   3.487   5.741
 2027SOL    HW1 6617   0.683   3.501   5.647
 2027SOL    HW2 6618   0.616   3.409   5.748
 2028SOL     OW 6619   1.620   3.590   6.978
 2028SOL    HW1 6620   1.673   3.595   6.898
 2028SOL    HW2 6621   1.606   3.681   7.003
 2029SOL     OW 6622   1.830   2.045   6.549
 2029SOL    HW1 6623   1.879   1.965   6.532
 2029SOL    HW2 6624   1.758   2.044   6.486
 2030SOL     OW 6625   0.260   2.180   6.302
 2030SOL    HW1 6626   0.177   2.220   6.276
 2030SOL    HW2 6627   0.252   2.166   6.396
 2031SOL     OW 6628   1.209   3.465   5.619
 2031SOL    HW1 6629   1.197   3.374   5.646
 2031SOL    HW2 6630   1.143   3.478   5.551
 2032SOL     OW 6631   0.827   2.870   6.960
 2032SOL    HW1 6632   0.870   2.865   6.875
 2032SOL    HW2 6633   0.822   2.964   6.979
 2033SOL     OW 6634   0.914   2.773   5.877
 2033SOL    HW1 6635   0.974   2.806   5.810
 2033SOL    HW2 6636   0.965   2.706   5.923
 2034SOL     OW 6637   1.490   3.491   5.630
 2034SOL    HW1 6638   1.396   3.481   5.615
 2034SOL    HW2 6639   1.528   3.497   5.542
 2035SOL     OW 6640   0.373   3.173   7.076
 2035SOL    HW1 6641   0.354   3.252   7.025
 2035SOL    HW2 6642   0.299   3.115   7.058
 2036SOL     OW 6643   1.614   3.151   6.867
 2036SOL    HW1 6644   1.664   3.129   6.945
 2036SOL    HW2 6645   1.551   3.216   6.896
 2037SOL     OW 6646   1.060   2.971   6.296
 2037SOL    HW1 6647   0.987   2.923   6.335
 2037SOL    HW2 6648   1.120   2.904   6.264
 2038SOL     OW 6649   1.025   2.102   6.553
 2038SOL    HW1 6650   1.023   2.056   6.469
 2038SOL    HW2 6651   1.019   2.033   6.619
 2039SOL     OW 6652   0.607   3.351   6.068
 2039SOL    HW1 6653   0.653   3.302   6.000
 2039SOL    HW2 6654   0.526   3.381   6.025
 2040SOL     OW 6655   1.731   2.255   6.971
 2040SOL    HW1 6656   1.802   2.319   6.971
 2040SOL    HW2 6657   1.761   2.185   6.914
 2041SOL     OW 6658   0.253   3.205   5.860
 2041SOL    HW1 6659   0.158   3.200   5.848
 2041SOL    HW2 6660   0.264   3.237   5.949
 2042SOL     OW 6661   0.116   2.867   7.277
 2042SOL    HW1 6662   0.053   2.913   7.332
 2042SOL    HW2 6663   0.195   2.861   7.332
 2043SOL     OW 6664   0.677   2.060   7.085
 2043SOL    HW1 6665   0.761   2.036   7.045
 2043SOL    HW2 6666   0.699   2.090   7.173
 2044SOL     OW 6667   0.073   2.189   5.614
 2044SOL    HW1 6668   4.481   2.204   5.634
 2044SOL    HW2 6669   0.102   2.270   5.572
 2045SOL     OW 6670   1.428   2.720   6.983
 2045SOL    HW1 6671   1.378   2.780   6.928
 2045SOL    HW2 6672   1.516   2.722   6.947
 2046SOL     OW 6673   0.087   2.034   5.888
 2046SOL    HW1 6674   0.081   2.111   5.831
 2046SOL    HW2 6675   0.162   1.986   5.854
 2047SOL     OW 6676   1.177   3.199   5.703
 2047SOL    HW1 6677   1.086   3.169   5.703
 2047SOL    HW2 6678   1.203   3.197   5.796
 2048SOL     OW 6679   0.628   2.694   7.023
 2048SOL    HW1 6680   0.685   2.769   7.008
 2048SOL    HW2 6681   0.687   2.619   7.026
 2049SOL     OW 6682   1.483   3.645   6.568
 2049SOL    HW1 6683   1.504   3.711   6.502
 2049SOL    HW2 6684   1.568   3.623   6.607
 2050SOL     OW 6685   0.710   2.426   7.290
 2050SOL    HW1 6686   0.762   2.483   7.346
 2050SOL    HW2 6687   0.731   2.338   7.319
 2051SOL     OW 6688   1.473   3.058   7.215
 2051SOL    HW1 6689   1.461   3.072   7.309
 2051SOL    HW2 6690   1.566   3.076   7.200
 2052SOL     OW 6691   0.376   3.608   7.152
 2052SOL    HW1 6692   0.291   3.649   7.134
 2052SOL    HW2 6693   0.354   3.529   7.201
 2053SOL     OW 6694   1.666   2.745   6.837
 2053SOL    HW1 6695   1.660   2.659   6.796
 2053SOL    HW2 6696   1.666   2.806   6.763
 2054SOL     OW 6697   1.202   2.184   6.029
 2054SOL    HW1 6698   1.282   2.140   6.001
 2054SOL    HW2 6699   1.226   2.228   6.111
 2055SOL     OW 6700   0.589   2.596   6.256
 2055SOL    HW1 6701   0.627   2.683   6.243
 2055SOL    HW2 6702   0.523   2.588   6.188
 2056SOL     OW 6703   1.760   2.227   7.249
 2056SOL    HW1 6704   1.755   2.239   7.155
 2056SOL    HW2 6705   1.686   2.169   7.270
 2057SOL     OW 6706   1.745   2.796   7.095
 2057SOL    HW1 6707   1.737   2.890   7.107
 2057SOL    HW2 6708   1.729   2.782   7.002
 2058SOL     OW 6709   0.866   3.227   5.629
 2058SOL    HW1 6710   0.826   3.254   5.711
 2058SOL    HW2 6711   0.879   3.309   5.581
 2059SOL     OW 6712   0.664   3.647   6.526
 2059SOL    HW1 6713   0.645   3.738   6.505
 2059SOL    HW2 6714   0.759   3.640   6.518
 2060SOL     OW 6715   0.870   2.833   6.439
 2060SOL    HW1 6716   0.919   2.760   6.477
 2060SOL    HW2 6717   0.831   2.877   6.515
 2061SOL     OW 6718   1.075   2.851   5.677
 2061SOL    HW1 6719   1.056   2.903   5.598
 2061SOL    HW2 6720   1.150   2.797   5.652
 2062SOL     OW 6721   1.847   3.405   6.427
 2062SOL    HW1 6722   1.765   3.407   6.379
 2062SOL    HW2 6723   1.827   3.356   6.507
 2063SOL     OW 6724   0.234   3.165   7.447
 2063SOL    HW1 6725   0.149   3.124   7.431
 2063SOL    HW2 6726   0.237   3.176   7.542
 2064SOL     OW 6727   0.123   3.090   6.254
 2064SOL    HW1 6728   0.142   3.050   6.339
 2064SOL    HW2 6729   0.178   3.042   6.192
 2065SOL     OW 6730   0.686   3.269   7.218
 2065SOL    HW1 6731   0.606   3.225   7.247
 2065SOL    HW2 6732   0.681   3.357   7.255
 2066SOL     OW 6733   1.821   2.055   6.820
 2066SOL    HW1 6734   1.842   1.963   6.837
 2066SOL    HW2 6735   1.823   2.063   6.725
 2067SOL     OW 6736   0.436   2.294   6.111
 2067SOL    HW1 6737   0.461   2.220   6.056
 2067SOL    HW2 6738   0.384   2.254   6.181
 2068SOL     OW 6739   1.702   3.348   6.672
 2068SOL    HW1 6740   1.619   3.328   6.627
 2068SOL    HW2 6741   1.709   3.281   6.739
 2069SOL     OW 6742   0.293   2.353   6.836
 2069SOL    HW1 6743   0.366   2.305   6.876
 2069SOL    HW2 6744   0.320   2.368   6.746
 2070SOL     OW 6745   0.831   3.440   6.261
 2070SOL    HW1 6746   0.809   3.503   6.192
 2070SOL    HW2 6747   0.756   3.380   6.264
 2071SOL     OW 6748   1.424   2.082   6.710
 2071SOL    HW1 6749   1.458   2.010   6.762
 2071SOL    HW2 6750   1.373   2.134   6.772
 2072SOL     OW 6751   1.008   1.879   6.723
 2072SOL    HW1 6752   0.953   1.811   6.683
 2072SOL    HW2 6753   1.095   1.840   6.725
 2073SOL     OW 6754   0.774   3.196   5.905
 2073SOL    HW1 6755   0.746   3.105   5.913
 2073SOL    HW2 6756   0.855   3.201   5.956
 2074SOL     OW 6757   0.621   3.417   6.873
 2074SOL    HW1 6758   0.622   3.499   6.923
 2074SOL    HW2 6759   0.709   3.411   6.836
 2075SOL     OW 6760   1.344   1.928   5.763
 2075SOL    HW1 6761   1.374   1.870   5.693
 2075SOL    HW2 6762   1.262   1.889   5.794
 2076SOL     OW 6763   1.270   2.315   6.256
 2076SOL    HW1 6764   1.222   2.397   6.269
 2076SOL    HW2 6765   1.287   2.282   6.344
 2077SOL     OW 6766   0.039   2.911   5.879
 2077SOL    HW1 6767   0.130   2.887   5.866
 2077SOL    HW2 6768   0.020   2.888   5.970
 2078SOL     OW 6769   0.889   3.522   5.924
 2078SOL    HW1 6770   0.815   3.505   5.867
 2078SOL    HW2 6771   0.861   3.594   5.980
 2079SOL     OW 6772   0.243   2.493   7.572
 2079SOL    HW1 6773   0.170   2.465   7.626
 2079SOL    HW2 6774   0.215   2.476   7.482
 2080SOL     OW 6775   0.213   2.136   8.438
 2080SOL    HW1 6776   0.249   2.109   8.523
 2080SOL    HW2 6777   0.138   2.078   8.425
 2081SOL     OW 6778   0.005   2.263   8.088
 2081SOL    HW1 6779   4.424   2.297   8.126
 2081SOL    HW2 6780   4.479   2.183   8.041
 2082SOL     OW 6781   0.569   3.158   8.630
 2082SOL    HW1 6782   0.483   3.163   8.590
 2082SOL    HW2 6783   0.585   3.246   8.665
 2083SOL     OW 6784   1.569   3.376   8.157
 2083SOL    HW1 6785   1.526   3.353   8.239
 2083SOL    HW2 6786   1.498   3.379   8.092
 2084SOL     OW 6787   1.132   2.561   8.144
 2084SOL    HW1 6788   1.180   2.642   8.132
 2084SOL    HW2 6789   1.085   2.573   8.226
 2085SOL     OW 6790   1.778   2.465   7.673
 2085SOL    HW1 6791   1.749   2.458   7.582
 2085SOL    HW2 6792   1.743   2.386   7.715
 2086SOL     OW 6793   0.746   3.000   8.493
 2086SOL    HW1 6794   0.680   3.037   8.552
 2086SOL    HW2 6795   0.786   3.076   8.450
 2087SOL     OW 6796   0.873   2.624   9.270
 2087SOL    HW1 6797   0.859   2.694   9.334
 2087SOL    HW2 6798   0.896   2.670   9.189
 2088SOL     OW 6799   0.684   2.861   8.093
 2088SOL    HW1 6800   0.751   2.852   8.161
 2088SOL    HW2 6801   0.616   2.915   8.133
 2089SOL     OW 6802   0.714   3.010   9.267
 2089SOL    HW1 6803   0.761   3.088   9.296
 2089SOL    HW2 6804   0.634   3.045   9.227
 2090SOL     OW 6805   0.333   3.279   8.516
 2090SOL    HW1 6806   0.252   3.258   8.469
 2090SOL    HW2 6807   0.382   3.334   8.455
 2091SOL     OW 6808   1.459   3.364   8.808
 2091SOL    HW1 6809   1.513   3.442   8.818
 2091SOL    HW2 6810   1.391   3.373   8.875
 2092SOL     OW 6811   0.450   2.263   8.929
 2092SOL    HW1 6812   0.528   2.210   8.938
 2092SOL    HW2 6813   0.377   2.202   8.942
 2093SOL     OW 6814   1.604   2.303   8.192
 2093SOL    HW1 6815   1.531   2.321   8.133
 2093SOL    HW2 6816   1.614   2.383   8.243
 2094SOL     OW 6817   0.246   3.552   7.921
 2094SOL    HW1 6818   0.229   3.638   7.961
 2094SOL    HW2 6819   0.319   3.568   7.861
 2095SOL     OW 6820   1.137   3.204   9.142
 2095SOL    HW1 6821   1.178   3.198   9.229
 2095SOL    HW2 6822   1.085   3.124   9.134
 2096SOL     OW 6823   0.259   3.287   7.973
 2096SOL    HW1 6824   0.244   3.382   7.976
 2096SOL    HW2 6825   0.199   3.252   8.039
 2097SOL     OW 6826   0.255   2.945   8.334
 2097SOL    HW1 6827   0.268   2.853   8.356
 2097SOL    HW2 6828   0.193   2.977   8.399
 2098SOL     OW 6829   0.608   3.654   8.877
 2098SOL    HW1 6830   0.525   3.636   8.921
 2098SOL    HW2 6831   0.629   3.744   8.902
 2099SOL     OW 6832   0.571   2.854   7.592
 2099SOL    HW1 6833   0.622   2.892   7.521
 2099SOL    HW2 6834   0.615   2.883   7.672
 2100SOL     OW 6835   1.593   1.989   8.911
 2100SOL    HW1 6836   1.619   2.068   8.865
 2100SOL    HW2 6837   1.574   2.019   9.000
 2101SOL     OW 6838   0.136   2.513   8.020
 2101SOL    HW1 6839   0.092   2.432   8.044
 2101SOL    HW2 6840   0.107   2.576   8.086
 2102SOL     OW 6841   1.843   3.617   7.779
 2102SOL    HW1 6842   1.912   3.591   7.841
 2102SOL    HW2 6843   1.862   3.708   7.759
 2103SOL     OW 6844   0.032   3.466   7.600
 2103SOL    HW1 6845   0.017   3.372   7.591
 2103SOL    HW2 6846   0.044   3.481   7.693
 2104SOL     OW 6847   1.692   2.781   8.093
 2104SOL    HW1 6848   1.770   2.733   8.065
 2104SOL    HW2 6849   1.667   2.832   8.016
 2105SOL     OW 6850   1.648   2.965   7.877
 2105SOL    HW1 6851   1.735   2.966   7.837
 2105SOL    HW2 6852   1.654   3.029   7.949
 2106SOL     OW 6853   0.109   2.629   9.018
 2106SOL    HW1 6854   0.195   2.617   8.978
 2106SOL    HW2 6855   0.109   2.720   9.048
 2107SOL     OW 6856   0.616   3.252   8.185
 2107SOL    HW1 6857   0.570   3.169   8.194
 2107SOL    HW2 6858   0.600   3.279   8.094
 2108SOL     OW 6859   1.286   3.099   8.869
 2108SOL    HW1 6860   1.316   3.030   8.809
 2108SOL    HW2 6861   1.345   3.093   8.944
 2109SOL     OW 6862   0.823   1.865   7.961
 2109SOL    HW1 6863   0.862   1.949   7.938
 2109SOL    HW2 6864   0.729   1.883   7.966
 2110SOL     OW 6865   0.176   2.800   8.726
 2110SOL    HW1 6866   0.267   2.780   8.707
 2110SOL    HW2 6867   0.133   2.799   8.640
 2111SOL     OW 6868   1.531   2.860   7.648
 2111SOL    HW1 6869   1.462   2.803   7.680
 2111SOL    HW2 6870   1.573   2.894   7.727
 2112SOL     OW 6871   1.185   3.674   9.073
 2112SOL    HW1 6872   1.190   3.734   8.999
 2112SOL    HW2 6873   1.202   3.588   9.036
 2113SOL     OW 6874   0.335   2.120   9.255
 2113SOL    HW1 6875   0.379   2.194   9.297
 2113SOL    HW2 6876   0.245   2.125   9.286
 2114SOL     OW 6877   1.468   3.281   8.396
 2114SOL    HW1 6878   1.401   3.297   8.462
 2114SOL    HW2 6879   1.454   3.190   8.369
 2115SOL     OW 6880   1.655   3.612   8.025
 2115SOL    HW1 6881   1.636   3.580   7.937
 2115SOL    HW2 6882   1.634   3.539   8.083
 2116SOL     OW 6883   0.598   2.578   7.718
 2116SOL    HW1 6884   0.598   2.662   7.672
 2116SOL    HW2 6885   0.532   2.589   7.787
 2117SOL     OW 6886   1.278   2.225   8.382
 2117SOL    HW1 6887   1.190   2.190   8.391
 2117SOL    HW2 6888   1.332   2.170   8.440
 2118SOL     OW 6889   1.579   3.536   7.758
 2118SOL    HW1 6890   1.670   3.562   7.750
 2118SOL    HW2 6891   1.550   3.519   7.668
 2119SOL     OW 6892   0.792   2.477   8.897
 2119SOL    HW1 6893   0.765   2.451   8.985
 2119SOL    HW2 6894   0.755   2.410   8.840
 2120SOL     OW 6895   1.391   2.336   9.126
 2120SOL    HW1 6896   1.396   2.380   9.211
 2120SOL    HW2 6897   1.451   2.262   9.133
 2121SOL     OW 6898   0.951   2.747   9.033
 2121SOL    HW1 6899   1.006   2.679   8.995
 2121SOL    HW2 6900   0.904   2.785   8.959
 2122SOL     OW 6901   0.992   2.275   8.683
 2122SOL    HW1 6902   0.904   2.291   8.714
 2122SOL    HW2 6903   0.980   2.229   8.599
 2123SOL     OW 6904   1.054   2.561   7.873
 2123SOL    HW1 6905   1.072   2.554   7.966
 2123SOL    HW2 6906   0.971   2.515   7.861
 2124SOL     OW 6907   0.090   2.693   8.235
 2124SOL    HW1 6908   0.176   2.683   8.276
 2124SOL    HW2 6909   0.028   2.692   8.309
 2125SOL     OW 6910   0.122   3.722   9.028
 2125SOL    HW1 6911   0.115   3.699   9.121
 2125SOL    HW2 6912   0.044   3.683   8.988
 2126SOL     OW 6913   0.898   2.212   7.643
 2126SOL    HW1 6914   0.938   2.275   7.583
 2126SOL    HW2 6915   0.910   2.128   7.600
 2127SOL     OW 6916   1.711   2.446   9.281
 2127SOL    HW1 6917   1.672   2.518   9.231
 2127SOL    HW2 6918   1.722   2.376   9.217
 2128SOL     OW 6919   1.380   3.004   7.989
 2128SOL    HW1 6920   1.459   2.992   7.935
 2128SOL    HW2 6921   1.327   3.066   7.939
 2129SOL     OW 6922   0.554   2.040   8.343
 2129SOL    HW1 6923   0.556   2.072   8.434
 2129SOL    HW2 6924   0.554   2.119   8.290
 2130SOL     OW 6925   1.000   3.306   7.917
 2130SOL    HW1 6926   0.969   3.381   7.867
 2130SOL    HW2 6927   0.977   3.326   8.008
 2131SOL     OW 6928   0.359   3.677   8.309
 2131SOL    HW1 6929   0.400   3.591   8.321
 2131SOL    HW2 6930   0.428   3.740   8.329
 2132SOL     OW 6931   1.802   2.914   8.317
 2132SOL    HW1 6932   1.750   2.892   8.240
 2132SOL    HW2 6933   1.738   2.921   8.388
 2133SOL     OW 6934   1.227   3.402   8.961
 2133SOL    HW1 6935   1.215   3.329   9.023
 2133SOL    HW2 6936   1.160   3.388   8.894
 2134SOL     OW 6937   0.310   2.813   7.708
 2134SOL    HW1 6938   0.393   2.838   7.666
 2134SOL    HW2 6939   0.299   2.720   7.687
 2135SOL     OW 6940   1.482   2.611   8.172
 2135SOL    HW1 6941   1.476   2.570   8.258
 2135SOL    HW2 6942   1.561   2.665   8.176
 2136SOL     OW 6943   0.471   3.128   9.183
 2136SOL    HW1 6944   0.445   3.134   9.091
 2136SOL    HW2 6945   0.389   3.127   9.232
 2137SOL     OW 6946   1.124   3.640   7.676
 2137SOL    HW1 6947   1.049   3.601   7.721
 2137SOL    HW2 6948   1.148   3.577   7.609
 2138SOL     OW 6949   0.201   2.137   8.932
 2138SOL    HW1 6950   0.144   2.213   8.940
 2138SOL    HW2 6951   0.180   2.083   9.009
 2139SOL     OW 6952   1.629   3.244   7.538
 2139SOL    HW1 6953   1.587   3.329   7.523
 2139SOL    HW2 6954   1.561   3.180   7.518
 2140SOL     OW 6955   0.469   3.604   7.760
 2140SOL    HW1 6956   0.514   3.658   7.826
 2140SOL    HW2 6957   0.539   3.566   7.708
 2141SOL     OW 6958   1.401   1.969   7.887
 2141SOL    HW1 6959   1.392   1.944   7.795
 2141SOL    HW2 6960   1.495   1.978   7.901
 2142SOL     OW 6961   0.257   3.654   8.671
 2142SOL    HW1 6962   0.301   3.576   8.706
 2142SOL    HW2 6963   0.216   3.624   8.590
 2143SOL     OW 6964   0.939   3.562   8.344
 2143SOL    HW1 6965   1.017   3.512   8.367
 2143SOL    HW2 6966   0.897   3.511   8.274
 2144SOL     OW 6967   0.397   2.555   7.918
 2144SOL    HW1 6968   0.418   2.462   7.931
 2144SOL    HW2 6969   0.305   2.563   7.943
 2145SOL     OW 6970   1.524   2.082   9.172
 2145SOL    HW1 6971   1.534   2.103   9.265
 2145SOL    HW2 6972   1.457   2.013   9.170
 2146SOL     OW 6973   0.643   1.981   7.548
 2146SOL    HW1 6974   0.703   1.909   7.568
 2146SOL    HW2 6975   0.591   1.950   7.474
 2147SOL     OW 6976   0.764   2.142   9.203
 2147SOL    HW1 6977   0.844   2.090   9.200
 2147SOL    HW2 6978   0.718   2.110   9.281
 2148SOL     OW 6979   0.877   3.386   8.642
 2148SOL    HW1 6980   0.859   3.348   8.556
 2148SOL    HW2 6981   0.946   3.331   8.679
 2149SOL     OW 6982   1.337   2.452   8.881
 2149SOL    HW1 6983   1.370   2.419   8.965
 2149SOL    HW2 6984   1.377   2.539   8.872
 2150SOL     OW 6985   0.819   3.252   8.394
 2150SOL    HW1 6986   0.903   3.241   8.350
 2150SOL    HW2 6987   0.755   3.258   8.322
 2151SOL     OW 6988   0.929   2.371   8.349
 2151SOL    HW1 6989   0.904   2.362   8.257
 2151SOL    HW2 6990   0.959   2.284   8.374
 2152SOL     OW 6991   0.558   1.925   7.943
 2152SOL    HW1 6992   0.478   1.922   7.995
 2152SOL    HW2 6993   0.548   2.002   7.887
 2153SOL     OW 6994   1.428   3.063   7.487
 2153SOL    HW1 6995   1.458   2.987   7.538
 2153SOL    HW2 6996   1.343   3.084   7.524
 2154SOL     OW 6997   0.296   1.906   7.624
 2154SOL    HW1 6998   0.360   1.972   7.597
 2154SOL    HW2 6999   0.348   1.840   7.670
 2155SOL     OW 7000   0.942   2.112   7.904
 2155SOL    HW1 7001   0.917   2.151   7.820
 2155SOL    HW2 7002   1.036   2.126   7.910
 2156SOL     OW 7003   1.080   2.546   8.905
 2156SOL    HW1 7004   1.016   2.476   8.909
 2156SOL    HW2 7005   1.165   2.501   8.899
 2157SOL     OW 7006   1.220   3.434   8.243
 2157SOL    HW1 7007   1.234   3.499   8.174
 2157SOL    HW2 7008   1.290   3.451   8.306
 2158SOL     OW 7009   0.469   3.015   8.179
 2158SOL    HW1 7010   0.402   2.996   8.244
 2158SOL    HW2 7011   0.426   3.001   8.095
 2159SOL     OW 7012   1.265   3.654   8.060
 2159SOL    HW1 7013   1.313   3.715   8.004
 2159SOL    HW2 7014   1.196   3.707   8.100
 2160SOL     OW 7015   1.023   2.397   7.474
 2160SOL    HW1 7016   0.980   2.480   7.455
 2160SOL    HW2 7017   1.088   2.419   7.541
 2161SOL     OW 7018   0.076   2.377   8.858
 2161SOL    HW1 7019   0.141   2.371   8.788
 2161SOL    HW2 7020   0.065   2.471   8.873
 2162SOL     OW 7021   0.559   2.090   8.617
 2162SOL    HW1 7022   0.604   2.015   8.657
 2162SOL    HW2 7023   0.467   2.078   8.642
 2163SOL     OW 7024   0.867   2.320   8.087
 2163SOL    HW1 7025   0.823   2.375   8.022
 2163SOL    HW2 7026   0.890   2.241   8.038
 2164SOL     OW 7027   1.017   1.917   8.196
 2164SOL    HW1 7028   0.958   1.910   8.121
 2164SOL    HW2 7029   0.994   1.842   8.251
 2165SOL     OW 7030   1.439   3.023   8.304
 2165SOL    HW1 7031   1.368   2.958   8.306
 2165SOL    HW2 7032   1.462   3.031   8.212
 2166SOL     OW 7033   1.464   2.472   8.418
 2166SOL    HW1 7034   1.410   2.393   8.420
 2166SOL    HW2 7035   1.521   2.463   8.495
 2167SOL     OW 7036   1.842   2.673   7.837
 2167SOL    HW1 7037   1.899   2.621   7.894
 2167SOL    HW2 7038   1.817   2.612   7.767
 2168SOL     OW 7039   0.492   3.284   7.602
 2168SOL    HW1 7040   0.413   3.257   7.650
 2168SOL    HW2 7041   0.482   3.246   7.515
 2169SOL     OW 7042   1.675   3.127   8.089
 2169SOL    HW1 7043   1.769   3.128   8.104
 2169SOL    HW2 7044   1.646   3.216   8.111
 2170SOL     OW 7045   1.394   2.435   7.519
 2170SOL    HW1 7046   1.333   2.413   7.590
 2170SOL    HW2 7047   1.479   2.405   7.550
 2171SOL     OW 7048   0.525   2.121   7.758
 2171SOL    HW1 7049   0.576   2.078   7.690
 2171SOL    HW2 7050   0.502   2.206   7.720
 2172SOL     OW 7051   1.749   3.104   9.011
 2172SOL    HW1 7052   1.836   3.065   9.007
 2172SOL    HW2 7053   1.764   3.194   9.041
 2173SOL     OW 7054   1.055   3.216   8.780
 2173SOL    HW1 7055   0.979   3.185   8.830
 2173SOL    HW2 7056   1.130   3.174   8.822
 2174SOL     OW 7057   1.610   3.490   9.106
 2174SOL    HW1 7058   1.601   3.523   9.017
 2174SOL    HW2 7059   1.691   3.440   9.105
 2175SOL     OW 7060   1.135   3.072   8.551
 2175SOL    HW1 7061   1.074   3.109   8.614
 2175SOL    HW2 7062   1.104   3.106   8.466
 2176SOL     OW 7063   1.625   2.959   8.523
 2176SOL    HW1 7064   1.619   3.021   8.595
 2176SOL    HW2 7065   1.548   2.977   8.469
 2177SOL     OW 7066   0.917   1.957   8.840
 2177SOL    HW1 7067   0.941   1.937   8.749
 2177SOL    HW2 7068   0.997   1.996   8.877
 2178SOL     OW 7069   0.984   2.977   9.171
 2178SOL    HW1 7070   0.893   2.993   9.195
 2178SOL    HW2 7071   0.981   2.898   9.117
 2179SOL     OW 7072   0.710   2.925   7.820
 2179SOL    HW1 7073   0.696   2.905   7.913
 2179SOL    HW2 7074   0.785   2.871   7.795
 2180SOL     OW 7075   0.432   2.694   8.697
 2180SOL    HW1 7076   0.503   2.708   8.760
 2180SOL    HW2 7077   0.378   2.625   8.736
 2181SOL     OW 7078   1.263   2.237   8.728
 2181SOL    HW1 7079   1.296   2.314   8.773
 2181SOL    HW2 7080   1.173   2.258   8.706
 2182SOL     OW 7081   0.065   3.436   8.794
 2182SOL    HW1 7082   0.039   3.527   8.783
 2182SOL    HW2 7083   0.160   3.438   8.799
 2183SOL     OW 7084   0.335   2.975   7.941
 2183SOL    HW1 7085   0.347   3.050   7.883
 2183SOL    HW2 7086   0.334   2.899   7.883
 2184SOL     OW 7087   0.557   2.389   8.301
 2184SOL    HW1 7088   0.570   2.449   8.228
 2184SOL    HW2 7089   0.620   2.417   8.367
 2185SOL     OW 7090   1.247   3.212   7.838
 2185SOL    HW1 7091   1.303   3.282   7.870
 2185SOL    HW2 7092   1.160   3.233   7.872
 2186SOL     OW 7093   1.288   3.322   8.596
 2186SOL    HW1 7094   1.343   3.326   8.674
 2186SOL    HW2 7095   1.233   3.245   8.609
 2187SOL     OW 7096   1.577   2.481   7.931
 2187SOL    HW1 7097   1.528   2.530   7.996
 2187SOL    HW2 7098   1.625   2.547   7.881
 2188SOL     OW 7099   0.345   3.399   8.758
 2188SOL    HW1 7100   0.332   3.350   8.676
 2188SOL    HW2 7101   0.440   3.407   8.766
 2189SOL     OW 7102   0.493   2.614   9.122
 2189SOL    HW1 7103   0.525   2.655   9.042
 2189SOL    HW2 7104   0.556   2.544   9.139
 2190SOL     OW 7105   1.606   2.647   9.135
 2190SOL    HW1 7106   1.519   2.688   9.127
 2190SOL    HW2 7107   1.657   2.687   9.065
 2191SOL     OW 7108   0.996   1.994   9.201
 2191SOL    HW1 7109   1.055   2.066   9.178
 2191SOL    HW2 7110   1.044   1.915   9.176
 2192SOL     OW 7111   0.496   1.903   9.197
 2192SOL    HW1 7112   0.452   1.848   9.133
 2192SOL    HW2 7113   0.439   1.980   9.206
 2193SOL     OW 7114   0.591   2.737   8.475
 2193SOL    HW1 7115   0.624   2.827   8.477
 2193SOL    HW2 7116   0.535   2.730   8.552
 2194SOL     OW 7117   1.349   2.721   8.471
 2194SOL    HW1 7118   1.264   2.706   8.431
 2194SOL    HW2 7119   1.395   2.637   8.462
 2195SOL     OW 7120   1.200   2.389   7.710
 2195SOL    HW1 7121   1.209   2.311   7.765
 2195SOL    HW2 7122   1.158   2.454   7.767
 2196SOL     OW 7123   0.300   2.049   8.689
 2196SOL    HW1 7124   0.262   2.080   8.771
 2196SOL    HW2 7125   0.283   1.954   8.689
 2197SOL     OW 7126   0.018   3.173   8.736
 2197SOL    HW1 7127   0.063   3.125   8.805
 2197SOL    HW2 7128   0.031   3.266   8.758
 2198SOL     OW 7129   0.722   2.490   8.501
 2198SOL    HW1 7130   0.799   2.476   8.446
 2198SOL    HW2 7131   0.694   2.580   8.481
 2199SOL     OW 7132   1.738   2.823   9.306
 2199SOL    HW1 7133   1.694   2.757   9.252
 2199SOL    HW2 7134   1.677   2.840   9.378
 2200SOL     OW 7135   0.318   1.931   8.066
 2200SOL    HW1 7136   0.289   2.018   8.089
 2200SOL    HW2 7137   0.318   1.882   8.148
 2201SOL     OW 7138   1.620   2.239   7.810
 2201SOL    HW1 7139   1.651   2.175   7.874
 2201SOL    HW2 7140   1.597   2.316   7.861
 2202SOL     OW 7141   1.029   2.620   8.406
 2202SOL    HW1 7142   1.021   2.637   8.500
 2202SOL    HW2 7143   1.002   2.529   8.396
 2203SOL     OW 7144   0.983   3.429   9.169
 2203SOL    HW1 7145   0.966   3.472   9.085
 2203SOL    HW2 7146   1.025   3.347   9.145
 2204SOL     OW 7147   1.852   3.363   9.053
 2204SOL    HW1 7148   1.873   3.391   8.963
 2204SOL    HW2 7149   1.933   3.378   9.102
 2205SOL     OW 7150   0.348   2.797   9.264
 2205SOL    HW1 7151   0.418   2.829   9.322
 2205SOL    HW2 7152   0.389   2.728   9.213
 2206SOL     OW 7153   1.525   2.134   7.574
 2206SOL    HW1 7154   1.462   2.068   7.602
 2206SOL    HW2 7155   1.561   2.170   7.655
 2207SOL     OW 7156   1.287   2.687   7.476
 2207SOL    HW1 7157   1.330   2.601   7.481
 2207SOL    HW2 7158   1.320   2.725   7.395
 2208SOL     OW 7159   1.069   3.200   8.304
 2208SOL    HW1 7160   1.073   3.128   8.241
 2208SOL    HW2 7161   1.127   3.267   8.268
 2209SOL     OW 7162   0.319   2.673   8.389
 2209SOL    HW1 7163   0.413   2.690   8.390
 2209SOL    HW2 7164   0.312   2.580   8.413
 2210SOL     OW 7165   0.324   2.389   8.433
 2210SOL    HW1 7166   0.286   2.302   8.417
 2210SOL    HW2 7167   0.404   2.390   8.380
 2211SOL     OW 7168   1.133   2.235   9.133
 2211SOL    HW1 7169   1.086   2.290   9.196
 2211SOL    HW2 7170   1.221   2.274   9.129
 2212SOL     OW 7171   1.160   2.061   8.919
 2212SOL    HW1 7172   1.149   2.124   8.991
 2212SOL    HW2 7173   1.203   2.110   8.850
 2213SOL     OW 7174   4.491   3.181   7.659
 2213SOL    HW1 7175   4.398   3.198   7.641
 2213SOL    HW2 7176   4.494   3.088   7.680
 2214SOL     OW 7177   0.103   3.630   8.389
 2214SOL    HW1 7178   0.063   3.588   8.313
 2214SOL    HW2 7179   0.191   3.654   8.358
 2215SOL     OW 7180   0.493   3.436   8.355
 2215SOL    HW1 7181   0.561   3.499   8.379
 2215SOL    HW2 7182   0.536   3.374   8.297
 2216SOL     OW 7183   0.975   2.650   8.671
 2216SOL    HW1 7184   1.034   2.631   8.744
 2216SOL    HW2 7185   0.892   2.611   8.697
 2217SOL     OW 7186   0.024   2.422   8.536
 2217SOL    HW1 7187   0.116   2.403   8.517
 2217SOL    HW2 7188   0.006   2.374   8.617
 2218SOL     OW 7189   0.179   2.391   9.166
 2218SOL    HW1 7190   0.262   2.360   9.128
 2218SOL    HW2 7191   0.158   2.470   9.116
 2219SOL     OW 7192   1.378   2.797   9.105
 2219SOL    HW1 7193   1.400   2.890   9.101
 2219SOL    HW2 7194   1.375   2.769   9.013
 2220SOL     OW 7195   0.819   2.431   7.814
 2220SOL    HW1 7196   0.824   2.357   7.753
 2220SOL    HW2 7197   0.745   2.483   7.782
 2221SOL     OW 7198   1.640   2.467   8.630
 2221SOL    HW1 7199   1.633   2.405   8.702
 2221SOL    HW2 7200   1.730   2.455   8.597
 2222SOL     OW 7201   0.275   3.424   9.188
 2222SOL    HW1 7202   0.212   3.474   9.239
 2222SOL    HW2 7203   0.258   3.333   9.212
 2223SOL     OW 7204   0.706   2.310   8.704
 2223SOL    HW1 7205   0.652   2.236   8.676
 2223SOL    HW2 7206   0.699   2.373   8.631
 2224SOL     OW 7207   0.924   3.541   8.918
 2224SOL    HW1 7208   0.899   3.501   8.835
 2224SOL    HW2 7209   0.916   3.635   8.903
 2225SOL     OW 7210   0.469   2.351   7.625
 2225SOL    HW1 7211   0.531   2.419   7.652
 2225SOL    HW2 7212   0.387   2.398   7.611
 2226SOL     OW 7213   0.160   3.004   8.904
 2226SOL    HW1 7214   0.144   2.962   8.988
 2226SOL    HW2 7215   0.167   2.932   8.841
 2227SOL     OW 7216   1.322   2.906   8.668
 2227SOL    HW1 7217   1.343   2.842   8.599
 2227SOL    HW2 7218   1.255   2.963   8.628
 2228SOL     OW 7219   1.315   2.720   7.752
 2228SOL    HW1 7220   1.241   2.687   7.804
 2228SOL    HW2 7221   1.288   2.705   7.661
 2229SOL     OW 7222   1.779   3.599   8.604
 2229SOL    HW1 7223   1.838   3.626   8.534
 2229SOL    HW2 7224   1.751   3.511   8.581
 2230SOL     OW 7225   1.240   3.595   8.555
 2230SOL    HW1 7226   1.322   3.618   8.513
 2230SOL    HW2 7227   1.249   3.502   8.575
 2231SOL     OW 7228   0.071   3.048   8.499
 2231SOL    HW1 7229   0.055   3.077   8.589
 2231SOL    HW2 7230   0.040   3.121   8.445
 2232SOL     OW 7231   0.680   3.533   9.186
 2232SOL    HW1 7232   0.619   3.605   9.175
 2232SOL    HW2 7233   0.747   3.547   9.119
 2233SOL     OW 7234   1.720   2.013   7.952
 2233SOL    HW1 7235   1.791   1.998   7.890
 2233SOL    HW2 7236   1.705   1.928   7.993
 2234SOL     OW 7237   1.393   3.430   7.938
 2234SOL    HW1 7238   1.451   3.464   7.870
 2234SOL    HW2 7239   1.342   3.506   7.966
 2235SOL     OW 7240   0.116   3.668   9.298
 2235SOL    HW1 7241   0.074   3.598   9.348
 2235SOL    HW2 7242   0.180   3.706   9.358
 2236SOL     OW 7243   1.278   2.790   8.119
 2236SOL    HW1 7244   1.352   2.730   8.129
 2236SOL    HW2 7245   1.312   2.861   8.066
 2237SOL     OW 7246   0.806   3.139   8.873
 2237SOL    HW1 7247   0.779   3.179   8.955
 2237SOL    HW2 7248   0.735   3.158   8.812
 2238SOL     OW 7249   0.672   3.487   7.603
 2238SOL    HW1 7250   0.683   3.501   7.509
 2238SOL    HW2 7251   0.617   3.409   7.610
 2239SOL     OW 7252   1.620   3.589   8.840
 2239SOL    HW1 7253   1.673   3.594   8.760
 2239SOL    HW2 7254   1.606   3.680   8.865
 2240SOL     OW 7255   1.851   2.044   8.414
 2240SOL    HW1 7256   1.884   1.957   8.391
 2240SOL    HW2 7257   1.765   2.048   8.372
 2241SOL     OW 7258   0.260   2.180   8.164
 2241SOL    HW1 7259   0.177   2.220   8.139
 2241SOL    HW2 7260   0.252   2.166   8.258
 2242SOL     OW 7261   1.208   3.464   7.481
 2242SOL    HW1 7262   1.197   3.373   7.508
 2242SOL    HW2 7263   1.142   3.477   7.413
 2243SOL     OW 7264   0.827   2.870   8.822
 2243SOL    HW1 7265   0.869   2.865   8.737
 2243SOL    HW2 7266   0.822   2.964   8.841
 2244SOL     OW 7267   0.916   2.773   7.739
 2244SOL    HW1 7268   0.976   2.806   7.672
 2244SOL    HW2 7269   0.966   2.705   7.784
 2245SOL     OW 7270   1.489   3.491   7.493
 2245SOL    HW1 7271   1.395   3.481   7.478
 2245SOL    HW2 7272   1.527   3.496   7.405
 2246SOL     OW 7273   0.373   3.173   8.938
 2246SOL    HW1 7274   0.355   3.252   8.887
 2246SOL    HW2 7275   0.299   3.115   8.920
 2247SOL     OW 7276   1.610   3.147   8.728
 2247SOL    HW1 7277   1.666   3.129   8.804
 2247SOL    HW2 7278   1.548   3.213   8.759
 2248SOL     OW 7279   1.060   2.972   8.158
 2248SOL    HW1 7280   0.988   2.922   8.195
 2248SOL    HW2 7281   1.124   2.906   8.131
 2249SOL     OW 7282   1.023   2.104   8.415
 2249SOL    HW1 7283   1.020   2.057   8.331
 2249SOL    HW2 7284   1.018   2.035   8.481
 2250SOL     OW 7285   0.607   3.351   7.929
 2250SOL    HW1 7286   0.654   3.302   7.862
 2250SOL    HW2 7287   0.527   3.380   7.886
 2251SOL     OW 7288   1.722   2.263   8.820
 2251SOL    HW1 7289   1.801   2.316   8.834
 2251SOL    HW2 7290   1.751   2.188   8.768
 2252SOL     OW 7291   0.253   3.205   7.721
 2252SOL    HW1 7292   0.158   3.200   7.709
 2252SOL    HW2 7293   0.264   3.237   7.811
 2253SOL     OW 7294   0.117   2.868   9.139
 2253SOL    HW1 7295   0.053   2.913   9.194
 2253SOL    HW2 7296   0.195   2.861   9.194
 2254SOL     OW 7297   0.677   2.060   8.947
 2254SOL    HW1 7298   0.760   2.036   8.907
 2254SOL    HW2 7299   0.700   2.090   9.035
 2255SOL     OW 7300   0.073   2.189   7.476
 2255SOL    HW1 7301   4.481   2.205   7.498
 2255SOL    HW2 7302   0.102   2.269   7.433
 2256SOL     OW 7303   1.427   2.720   8.846
 2256SOL    HW1 7304   1.377   2.781   8.791
 2256SOL    HW2 7305   1.515   2.722   8.810
 2257SOL     OW 7306   0.087   2.034   7.749
 2257SOL    HW1 7307   0.081   2.111   7.693
 2257SOL    HW2 7308   0.162   1.985   7.716
 2258SOL     OW 7309   1.178   3.197   7.566
 2258SOL    HW1 7310   1.087   3.167   7.567
 2258SOL    HW2 7311   1.204   3.198   7.658
 2259SOL     OW 7312   0.628   2.694   8.885
 2259SOL    HW1 7313   0.685   2.769   8.870
 2259SOL    HW2 7314   0.687   2.619   8.888
 2260SOL     OW 7315   1.482   3.645   8.430
 2260SOL    HW1 7316   1.504   3.710   8.364
 2260SOL    HW2 7317   1.567   3.619   8.467
 2261SOL     OW 7318   0.710   2.426   9.153
 2261SOL    HW1 7319   0.762   2.483   9.209
 2261SOL    HW2 7320   0.731   2.337   9.181
 2262SOL     OW 7321   1.473   3.057   9.077
 2262SOL    HW1 7322   1.461   3.072   9.171
 2262SOL    HW2 7323   1.566   3.076   9.062
 2263SOL     OW 7324   0.376   3.608   9.014
 2263SOL    HW1 7325   0.291   3.649   8.996
 2263SOL    HW2 7326   0.354   3.529   9.063
 2264SOL     OW 7327   1.666   2.743   8.703
 2264SOL    HW1 7328   1.659   2.657   8.661
 2264SOL    HW2 7329   1.655   2.805   8.631
 2265SOL     OW 7330   1.216   2.181   7.905
 2265SOL    HW1 7331   1.278   2.109   7.899
 2265SOL    HW2 7332   1.245   2.231   7.981
 2266SOL     OW 7333   0.588   2.596   8.119
 2266SOL    HW1 7334   0.626   2.683   8.105
 2266SOL    HW2 7335   0.522   2.588   8.051
 2267SOL     OW 7336   1.738   2.241   9.113
 2267SOL    HW1 7337   1.767   2.229   9.023
 2267SOL    HW2 7338   1.668   2.177   9.125
 2268SOL     OW 7339   1.748   2.795   8.958
 2268SOL    HW1 7340   1.738   2.889   8.971
 2268SOL    HW2 7341   1.730   2.781   8.865
 2269SOL     OW 7342   0.865   3.227   7.490
 2269SOL    HW1 7343   0.826   3.254   7.573
 2269SOL    HW2 7344   0.879   3.309   7.443
 2270SOL     OW 7345   0.664   3.647   8.388
 2270SOL    HW1 7346   0.645   3.738   8.367
 2270SOL    HW2 7347   0.759   3.640   8.380
 2271SOL     OW 7348   0.870   2.833   8.301
 2271SOL    HW1 7349   0.919   2.760   8.338
 2271SOL    HW2 7350   0.831   2.877   8.377
 2272SOL     OW 7351   1.077   2.851   7.537
 2272SOL    HW1 7352   1.056   2.902   7.459
 2272SOL    HW2 7353   1.152   2.796   7.510
 2273SOL     OW 7354   1.848   3.415   8.290
 2273SOL    HW1 7355   1.769   3.404   8.237
 2273SOL    HW2 7356   1.839   3.351   8.361
 2274SOL     OW 7357   0.234   3.165   9.309
 2274SOL    HW1 7358   0.149   3.124   9.293
 2274SOL    HW2 7359   0.237   3.176   9.404
 2275SOL     OW 7360   0.123   3.089   8.116
 2275SOL    HW1 7361   0.143   3.049   8.201
 2275SOL    HW2 7362   0.178   3.042   8.054
 2276SOL     OW 7363   0.686   3.269   9.080
 2276SOL    HW1 7364   0.606   3.226   9.109
 2276SOL    HW2 7365   0.681   3.357   9.117
 2277SOL     OW 7366   1.812   2.056   8.679
 2277SOL    HW1 7367   1.843   1.970   8.707
 2277SOL    HW2 7368   1.823   2.057   8.584
 2278SOL     OW 7369   0.434   2.294   7.973
 2278SOL    HW1 7370   0.461   2.221   7.918
 2278SOL    HW2 7371   0.383   2.254   8.043
 2279SOL     OW 7372   1.697   3.348   8.540
 2279SOL    HW1 7373   1.618   3.328   8.490
 2279SOL    HW2 7374   1.702   3.279   8.606
 2280SOL     OW 7375   0.293   2.353   8.698
 2280SOL    HW1 7376   0.366   2.305   8.737
 2280SOL    HW2 7377   0.320   2.368   8.608
 2281SOL     OW 7378   0.831   3.440   8.123
 2281SOL    HW1 7379   0.809   3.502   8.054
 2281SOL    HW2 7380   0.756   3.380   8.126
 2282SOL     OW 7381   1.431   2.091   8.564
 2282SOL    HW1 7382   1.461   2.012   8.610
 2282SOL    HW2 7383   1.380   2.139   8.629
 2283SOL     OW 7384   1.009   1.878   8.585
 2283SOL    HW1 7385   0.954   1.812   8.542
 2283SOL    HW2 7386   1.096   1.840   8.587
 2284SOL     OW 7387   0.774   3.196   7.768
 2284SOL    HW1 7388   0.747   3.105   7.775
 2284SOL    HW2 7389   0.856   3.200   7.818
 2285SOL     OW 7390   0.621   3.417   8.735
 2285SOL    HW1 7391   0.622   3.499   8.785
 2285SOL    HW2 7392   0.709   3.411   8.698
 2286SOL     OW 7393   1.356   1.914   7.619
 2286SOL    HW1 7394   1.388   1.846   7.560
 2286SOL    HW2 7395   1.267   1.887   7.641
 2287SOL     OW 7396   1.295   2.325   8.126
 2287SOL    HW1 7397   1.243   2.405   8.131
 2287SOL    HW2 7398   1.291   2.288   8.214
 2288SOL     OW 7399   1.589   2.057   8.331
 2288SOL    HW1 7400   1.532   2.080   8.404
 2288SOL    HW2 7401   1.587   2.134   8.274
 2289SOL     OW 7402   0.039   2.911   7.741
 2289SOL    HW1 7403   0.130   2.887   7.728
 2289SOL    HW2 7404   0.021   2.888   7.832
 2290SOL     OW 7405   0.890   3.522   7.786
 2290SOL    HW1 7406   0.815   3.505   7.729
 2290SOL    HW2 7407   0.861   3.594   7.842
 2291SOL     OW 7408   0.243   2.494   9.434
 2291SOL    HW1 7409   0.170   2.465   9.488
 2291SOL    HW2 7410   0.215   2.476   9.344
 2292SOL     OW 7411   0.214   2.136  10.300
 2292SOL    HW1 7412   0.249   2.110  10.385
 2292SOL    HW2 7413   0.137   2.081  10.288
 2293SOL     OW 7414   0.005   2.263   9.950
 2293SOL    HW1 7415   4.424   2.297   9.988
 2293SOL    HW2 7416   4.479   2.183   9.904
 2294SOL     OW 7417   0.569   3.158  10.494
 2294SOL    HW1 7418   0.484   3.162  10.451
 2294SOL    HW2 7419   0.584   3.246  10.527
 2295SOL     OW 7420   1.569   3.376  10.018
 2295SOL    HW1 7421   1.526   3.353  10.101
 2295SOL    HW2 7422   1.498   3.380   9.955
 2296SOL     OW 7423   1.132   2.561  10.006
 2296SOL    HW1 7424   1.180   2.642   9.994
 2296SOL    HW2 7425   1.085   2.573  10.088
 2297SOL     OW 7426   1.779   2.464   9.538
 2297SOL    HW1 7427   1.751   2.461   9.446
 2297SOL    HW2 7428   1.742   2.384   9.576
 2298SOL     OW 7429   0.748   3.001  10.357
 2298SOL    HW1 7430   0.681   3.038  10.414
 2298SOL    HW2 7431   0.786   3.076  10.312
 2299SOL     OW 7432   0.859   2.633   0.025
 2299SOL    HW1 7433   0.867   2.687   0.105
 2299SOL    HW2 7434   0.893   2.689  11.055
 2300SOL     OW 7435   0.684   2.861   9.955
 2300SOL    HW1 7436   0.751   2.852  10.023
 2300SOL    HW2 7437   0.616   2.915   9.995
 2301SOL     OW 7438   0.334   3.278  10.376
 2301SOL    HW1 7439   0.253   3.257  10.331
 2301SOL    HW2 7440   0.382   3.333  10.314
 2302SOL     OW 7441   1.462   3.362  10.666
 2302SOL    HW1 7442   1.521   3.437  10.672
 2302SOL    HW2 7443   1.395   3.379  10.731
 2303SOL     OW 7444   0.453   2.259  10.774
 2303SOL    HW1 7445   0.531   2.205  10.786
 2303SOL    HW2 7446   0.381   2.205  10.807
 2304SOL     OW 7447   1.603   2.304  10.055
 2304SOL    HW1 7448   1.530   2.322   9.996
 2304SOL    HW2 7449   1.614   2.385  10.106
 2305SOL     OW 7450   0.246   3.552   9.783
 2305SOL    HW1 7451   0.230   3.638   9.823
 2305SOL    HW2 7452   0.319   3.568   9.722
 2306SOL     OW 7453   0.259   3.287   9.835
 2306SOL    HW1 7454   0.244   3.382   9.838
 2306SOL    HW2 7455   0.199   3.252   9.901
 2307SOL     OW 7456   0.256   2.945  10.197
 2307SOL    HW1 7457   0.268   2.853  10.219
 2307SOL    HW2 7458   0.193   2.977  10.262
 2308SOL     OW 7459   0.606   3.652  10.736
 2308SOL    HW1 7460   0.526   3.634  10.786
 2308SOL    HW2 7461   0.630   3.742  10.760
 2309SOL     OW 7462   0.571   2.854   9.454
 2309SOL    HW1 7463   0.622   2.892   9.383
 2309SOL    HW2 7464   0.615   2.883   9.534
 2310SOL     OW 7465   1.594   1.983  10.778
 2310SOL    HW1 7466   1.614   2.061  10.727
 2310SOL    HW2 7467   1.613   2.008  10.869
 2311SOL     OW 7468   0.136   2.513   9.882
 2311SOL    HW1 7469   0.092   2.432   9.906
 2311SOL    HW2 7470   0.107   2.577   9.948
 2312SOL     OW 7471   1.843   3.616   9.641
 2312SOL    HW1 7472   1.911   3.591   9.703
 2312SOL    HW2 7473   1.862   3.708   9.622
 2313SOL     OW 7474   0.032   3.466   9.462
 2313SOL    HW1 7475   0.017   3.372   9.454
 2313SOL    HW2 7476   0.044   3.481   9.555
 2314SOL     OW 7477   1.691   2.781   9.954
 2314SOL    HW1 7478   1.770   2.733   9.928
 2314SOL    HW2 7479   1.667   2.831   9.877
 2315SOL     OW 7480   1.648   2.965   9.740
 2315SOL    HW1 7481   1.734   2.966   9.699
 2315SOL    HW2 7482   1.654   3.029   9.811
 2316SOL     OW 7483   0.099   2.629  10.907
 2316SOL    HW1 7484   0.182   2.606  10.866
 2316SOL    HW2 7485   0.102   2.725  10.917
 2317SOL     OW 7486   0.616   3.252  10.047
 2317SOL    HW1 7487   0.569   3.169  10.056
 2317SOL    HW2 7488   0.600   3.279   9.956
 2318SOL     OW 7489   1.286   3.097  10.754
 2318SOL    HW1 7490   1.313   3.036  10.685
 2318SOL    HW2 7491   1.344   3.076  10.827
 2319SOL     OW 7492   0.823   1.865   9.824
 2319SOL    HW1 7493   0.862   1.949   9.800
 2319SOL    HW2 7494   0.729   1.883   9.829
 2320SOL     OW 7495   0.172   2.799  10.589
 2320SOL    HW1 7496   0.263   2.776  10.572
 2320SOL    HW2 7497   0.130   2.798  10.503
 2321SOL     OW 7498   1.531   2.860   9.510
 2321SOL    HW1 7499   1.462   2.803   9.542
 2321SOL    HW2 7500   1.573   2.894   9.589
 2322SOL     OW 7501   1.198   3.671  10.930
 2322SOL    HW1 7502   1.192   3.737  10.861
 2322SOL    HW2 7503   1.209   3.588  10.883
 2323SOL     OW 7504   0.342   2.126   0.011
 2323SOL    HW1 7505   0.387   2.201   0.050
 2323SOL    HW2 7506   0.249   2.152   0.012
 2324SOL     OW 7507   1.469   3.281  10.257
 2324SOL    HW1 7508   1.401   3.298  10.323
 2324SOL    HW2 7509   1.455   3.190  10.231
 2325SOL     OW 7510   1.655   3.612   9.887
 2325SOL    HW1 7511   1.636   3.580   9.799
 2325SOL    HW2 7512   1.634   3.539   9.945
 2326SOL     OW 7513   0.598   2.579   9.581
 2326SOL    HW1 7514   0.598   2.662   9.534
 2326SOL    HW2 7515   0.532   2.589   9.649
 2327SOL     OW 7516   1.278   2.226  10.245
 2327SOL    HW1 7517   1.190   2.190  10.253
 2327SOL    HW2 7518   1.331   2.171  10.302
 2328SOL     OW 7519   1.579   3.535   9.620
 2328SOL    HW1 7520   1.670   3.562   9.612
 2328SOL    HW2 7521   1.550   3.518   9.530
 2329SOL     OW 7522   0.797   2.476  10.757
 2329SOL    HW1 7523   0.768   2.451  10.845
 2329SOL    HW2 7524   0.760   2.409  10.700
 2330SOL     OW 7525   0.966   2.765  10.908
 2330SOL    HW1 7526   1.016   2.694  10.866
 2330SOL    HW2 7527   0.916   2.804  10.837
 2331SOL     OW 7528   0.994   2.274  10.544
 2331SOL    HW1 7529   0.905   2.290  10.574
 2331SOL    HW2 7530   0.983   2.229  10.460
 2332SOL     OW 7531   1.054   2.561   9.735
 2332SOL    HW1 7532   1.071   2.554   9.828
 2332SOL    HW2 7533   0.971   2.515   9.723
 2333SOL     OW 7534   0.089   2.694  10.097
 2333SOL    HW1 7535   0.175   2.683  10.138
 2333SOL    HW2 7536   0.028   2.691  10.171
 2334SOL     OW 7537   0.115   3.710  10.901
 2334SOL    HW1 7538   0.110   3.649  10.974
 2334SOL    HW2 7539   0.048   3.682  10.840
 2335SOL     OW 7540   0.898   2.212   9.505
 2335SOL    HW1 7541   0.938   2.275   9.445
 2335SOL    HW2 7542   0.909   2.128   9.462
 2336SOL     OW 7543   1.380   3.004   9.850
 2336SOL    HW1 7544   1.459   2.992   9.797
 2336SOL    HW2 7545   1.327   3.066   9.800
 2337SOL     OW 7546   0.554   2.039  10.206
 2337SOL    HW1 7547   0.555   2.071  10.296
 2337SOL    HW2 7548   0.553   2.119  10.152
 2338SOL     OW 7549   1.000   3.306   9.779
 2338SOL    HW1 7550   0.969   3.381   9.729
 2338SOL    HW2 7551   0.977   3.326   9.869
 2339SOL     OW 7552   0.358   3.677  10.172
 2339SOL    HW1 7553   0.400   3.592  10.183
 2339SOL    HW2 7554   0.427   3.741  10.191
 2340SOL     OW 7555   1.802   2.913  10.179
 2340SOL    HW1 7556   1.749   2.892  10.102
 2340SOL    HW2 7557   1.739   2.921  10.251
 2341SOL     OW 7558   1.232   3.398  10.818
 2341SOL    HW1 7559   1.241   3.308  10.851
 2341SOL    HW2 7560   1.160   3.393  10.755
 2342SOL     OW 7561   0.310   2.813   9.570
 2342SOL    HW1 7562   0.393   2.838   9.528
 2342SOL    HW2 7563   0.299   2.720   9.549
 2343SOL     OW 7564   1.481   2.611  10.034
 2343SOL    HW1 7565   1.476   2.570  10.120
 2343SOL    HW2 7566   1.560   2.665  10.037
 2344SOL     OW 7567   0.458   3.127  11.051
 2344SOL    HW1 7568   0.426   3.146  10.963
 2344SOL    HW2 7569   0.396   3.064  11.086
 2345SOL     OW 7570   1.124   3.640   9.539
 2345SOL    HW1 7571   1.049   3.601   9.583
 2345SOL    HW2 7572   1.148   3.577   9.471
 2346SOL     OW 7573   0.196   2.137  10.797
 2346SOL    HW1 7574   0.144   2.217  10.805
 2346SOL    HW2 7575   0.185   2.093  10.881
 2347SOL     OW 7576   1.629   3.244   9.400
 2347SOL    HW1 7577   1.587   3.329   9.385
 2347SOL    HW2 7578   1.561   3.180   9.380
 2348SOL     OW 7579   0.469   3.604   9.622
 2348SOL    HW1 7580   0.514   3.658   9.687
 2348SOL    HW2 7581   0.539   3.566   9.570
 2349SOL     OW 7582   1.400   1.969   9.749
 2349SOL    HW1 7583   1.391   1.944   9.657
 2349SOL    HW2 7584   1.494   1.977   9.763
 2350SOL     OW 7585   0.253   3.653  10.537
 2350SOL    HW1 7586   0.299   3.577  10.572
 2350SOL    HW2 7587   0.218   3.622  10.453
 2351SOL     OW 7588   0.940   3.561  10.207
 2351SOL    HW1 7589   1.020   3.513  10.227
 2351SOL    HW2 7590   0.898   3.511  10.137
 2352SOL     OW 7591   0.397   2.555   9.780
 2352SOL    HW1 7592   0.418   2.462   9.793
 2352SOL    HW2 7593   0.305   2.563   9.806
 2353SOL     OW 7594   0.644   1.981   9.410
 2353SOL    HW1 7595   0.703   1.909   9.430
 2353SOL    HW2 7596   0.591   1.950   9.336
 2354SOL     OW 7597   0.765   2.144  11.047
 2354SOL    HW1 7598   0.831   2.086  11.084
 2354SOL    HW2 7599   0.699   2.152   0.017
 2355SOL     OW 7600   0.876   3.385  10.505
 2355SOL    HW1 7601   0.859   3.349  10.418
 2355SOL    HW2 7602   0.948   3.332  10.539
 2356SOL     OW 7603   1.342   2.455  10.757
 2356SOL    HW1 7604   1.398   2.434  10.832
 2356SOL    HW2 7605   1.368   2.543  10.731
 2357SOL     OW 7606   0.819   3.252  10.256
 2357SOL    HW1 7607   0.903   3.241  10.212
 2357SOL    HW2 7608   0.755   3.258  10.184
 2358SOL     OW 7609   0.929   2.371  10.210
 2358SOL    HW1 7610   0.904   2.363  10.118
 2358SOL    HW2 7611   0.959   2.284  10.236
 2359SOL     OW 7612   0.558   1.925   9.805
 2359SOL    HW1 7613   0.478   1.922   9.857
 2359SOL    HW2 7614   0.548   2.002   9.749
 2360SOL     OW 7615   1.428   3.063   9.350
 2360SOL    HW1 7616   1.458   2.987   9.400
 2360SOL    HW2 7617   1.343   3.084   9.386
 2361SOL     OW 7618   0.296   1.906   9.486
 2361SOL    HW1 7619   0.360   1.972   9.458
 2361SOL    HW2 7620   0.348   1.840   9.532
 2362SOL     OW 7621   0.942   2.112   9.766
 2362SOL    HW1 7622   0.917   2.150   9.682
 2362SOL    HW2 7623   1.037   2.127   9.772
 2363SOL     OW 7624   1.079   2.554  10.770
 2363SOL    HW1 7625   1.010   2.488  10.775
 2363SOL    HW2 7626   1.161   2.504  10.772
 2364SOL     OW 7627   1.219   3.435  10.106
 2364SOL    HW1 7628   1.234   3.499  10.036
 2364SOL    HW2 7629   1.289   3.452  10.169
 2365SOL     OW 7630   0.469   3.015  10.041
 2365SOL    HW1 7631   0.402   2.996  10.106
 2365SOL    HW2 7632   0.427   3.001   9.957
 2366SOL     OW 7633   1.265   3.654   9.922
 2366SOL    HW1 7634   1.313   3.715   9.866
 2366SOL    HW2 7635   1.196   3.707   9.962
 2367SOL     OW 7636   1.023   2.397   9.336
 2367SOL    HW1 7637   0.980   2.481   9.317
 2367SOL    HW2 7638   1.088   2.419   9.403
 2368SOL     OW 7639   0.071   2.378  10.717
 2368SOL    HW1 7640   0.141   2.374  10.652
 2368SOL    HW2 7641   0.070   2.469  10.746
 2369SOL     OW 7642   0.558   2.090  10.480
 2369SOL    HW1 7643   0.601   2.016  10.521
 2369SOL    HW2 7644   0.466   2.082  10.505
 2370SOL     OW 7645   0.867   2.320   9.949
 2370SOL    HW1 7646   0.822   2.376   9.885
 2370SOL    HW2 7647   0.890   2.241   9.900
 2371SOL     OW 7648   1.016   1.917  10.058
 2371SOL    HW1 7649   0.958   1.911   9.983
 2371SOL    HW2 7650   0.993   1.842  10.113
 2372SOL     OW 7651   1.438   3.023  10.166
 2372SOL    HW1 7652   1.368   2.958  10.167
 2372SOL    HW2 7653   1.462   3.032  10.074
 2373SOL     OW 7654   1.464   2.474  10.281
 2373SOL    HW1 7655   1.410   2.395  10.282
 2373SOL    HW2 7656   1.523   2.464  10.356
 2374SOL     OW 7657   1.842   2.674   9.697
 2374SOL    HW1 7658   1.897   2.622   9.756
 2374SOL    HW2 7659   1.816   2.613   9.628
 2375SOL     OW 7660   0.492   3.284   9.464
 2375SOL    HW1 7661   0.413   3.257   9.512
 2375SOL    HW2 7662   0.482   3.246   9.377
 2376SOL     OW 7663   1.674   3.127   9.951
 2376SOL    HW1 7664   1.769   3.128   9.966
 2376SOL    HW2 7665   1.646   3.216   9.973
 2377SOL     OW 7666   1.394   2.434   9.382
 2377SOL    HW1 7667   1.331   2.414   9.451
 2377SOL    HW2 7668   1.478   2.401   9.415
 2378SOL     OW 7669   0.525   2.121   9.620
 2378SOL    HW1 7670   0.576   2.078   9.552
 2378SOL    HW2 7671   0.502   2.206   9.582
 2379SOL     OW 7672   1.756   3.093  10.850
 2379SOL    HW1 7673   1.847   3.064  10.853
 2379SOL    HW2 7674   1.756   3.178  10.893
 2380SOL     OW 7675   1.059   3.215  10.648
 2380SOL    HW1 7676   0.980   3.183  10.692
 2380SOL    HW2 7677   1.131   3.168  10.689
 2381SOL     OW 7678   1.136   3.075  10.412
 2381SOL    HW1 7679   1.068   3.107  10.471
 2381SOL    HW2 7680   1.108   3.106  10.326
 2382SOL     OW 7681   1.627   2.959  10.386
 2382SOL    HW1 7682   1.622   3.021  10.459
 2382SOL    HW2 7683   1.549   2.978  10.333
 2383SOL     OW 7684   0.918   1.960  10.699
 2383SOL    HW1 7685   0.943   1.940  10.608
 2383SOL    HW2 7686   0.997   2.000  10.736
 2384SOL     OW 7687   0.710   2.925   9.682
 2384SOL    HW1 7688   0.696   2.905   9.775
 2384SOL    HW2 7689   0.785   2.871   9.657
 2385SOL     OW 7690   0.428   2.690  10.561
 2385SOL    HW1 7691   0.499   2.700  10.624
 2385SOL    HW2 7692   0.373   2.621  10.598
 2386SOL     OW 7693   1.265   2.240  10.595
 2386SOL    HW1 7694   1.297   2.318  10.641
 2386SOL    HW2 7695   1.175   2.262  10.570
 2387SOL     OW 7696   0.066   3.440  10.665
 2387SOL    HW1 7697   0.043   3.528  10.633
 2387SOL    HW2 7698   0.161   3.438  10.664
 2388SOL     OW 7699   0.335   2.975   9.804
 2388SOL    HW1 7700   0.347   3.050   9.745
 2388SOL    HW2 7701   0.334   2.899   9.745
 2389SOL     OW 7702   0.557   2.388  10.163
 2389SOL    HW1 7703   0.570   2.449  10.090
 2389SOL    HW2 7704   0.620   2.417  10.229
 2390SOL     OW 7705   1.247   3.212   9.700
 2390SOL    HW1 7706   1.303   3.283   9.732
 2390SOL    HW2 7707   1.160   3.233   9.734
 2391SOL     OW 7708   1.287   3.324  10.456
 2391SOL    HW1 7709   1.344   3.327  10.532
 2391SOL    HW2 7710   1.234   3.245  10.469
 2392SOL     OW 7711   1.577   2.481   9.793
 2392SOL    HW1 7712   1.528   2.530   9.858
 2392SOL    HW2 7713   1.625   2.547   9.744
 2393SOL     OW 7714   0.344   3.395  10.618
 2393SOL    HW1 7715   0.332   3.347  10.536
 2393SOL    HW2 7716   0.439   3.407  10.626
 2394SOL     OW 7717   0.499   2.603  10.972
 2394SOL    HW1 7718   0.542   2.644  10.897
 2394SOL    HW2 7719   0.557   2.531  10.996
 2395SOL     OW 7720   1.598   2.614  10.960
 2395SOL    HW1 7721   1.522   2.671  10.953
 2395SOL    HW2 7722   1.670   2.665  10.922
 2396SOL     OW 7723   0.590   2.736  10.338
 2396SOL    HW1 7724   0.622   2.827  10.340
 2396SOL    HW2 7725   0.533   2.729  10.415
 2397SOL     OW 7726   1.350   2.724  10.339
 2397SOL    HW1 7727   1.265   2.710  10.297
 2397SOL    HW2 7728   1.396   2.641  10.329
 2398SOL     OW 7729   1.200   2.389   9.572
 2398SOL    HW1 7730   1.209   2.311   9.627
 2398SOL    HW2 7731   1.158   2.454   9.629
 2399SOL     OW 7732   0.298   2.050  10.552
 2399SOL    HW1 7733   0.262   2.082  10.634
 2399SOL    HW2 7734   0.281   1.956  10.553
 2400SOL     OW 7735   0.019   3.178  10.597
 2400SOL    HW1 7736   0.063   3.127  10.665
 2400SOL    HW2 7737   0.029   3.269  10.625
 2401SOL     OW 7738   0.722   2.491  10.363
 2401SOL    HW1 7739   0.798   2.477  10.307
 2401SOL    HW2 7740   0.694   2.580  10.343
 2402SOL     OW 7741   0.318   1.931   9.928
 2402SOL    HW1 7742   0.289   2.019   9.951
 2402SOL    HW2 7743   0.318   1.882  10.010
 2403SOL     OW 7744   1.619   2.239   9.672
 2403SOL    HW1 7745   1.650   2.176   9.737
 2403SOL    HW2 7746   1.597   2.317   9.723
 2404SOL     OW 7747   1.028   2.621  10.268
 2404SOL    HW1 7748   1.020   2.638  10.362
 2404SOL    HW2 7749   1.002   2.529  10.258
 2405SOL     OW 7750   0.974   3.436  11.003
 2405SOL    HW1 7751   0.959   3.485  10.922
 2405SOL    HW2 7752   0.992   3.347  10.974
 2406SOL     OW 7753   1.851   3.350  10.911
 2406SOL    HW1 7754   1.873   3.388  10.826
 2406SOL    HW2 7755   1.917   3.385  10.971
 2407SOL     OW 7756   0.350   2.797  11.087
 2407SOL    HW1 7757   0.419   2.825   0.048
 2407SOL    HW2 7758   0.388   2.724  11.040
 2408SOL     OW 7759   1.525   2.134   9.436
 2408SOL    HW1 7760   1.461   2.069   9.464
 2408SOL    HW2 7761   1.561   2.170   9.517
 2409SOL     OW 7762   1.288   2.686   9.339
 2409SOL    HW1 7763   1.331   2.601   9.343
 2409SOL    HW2 7764   1.319   2.725   9.257
 2410SOL     OW 7765   1.069   3.200  10.166
 2410SOL    HW1 7766   1.074   3.128  10.103
 2410SOL    HW2 7767   1.127   3.267  10.130
 2411SOL     OW 7768   0.318   2.672  10.251
 2411SOL    HW1 7769   0.413   2.689  10.252
 2411SOL    HW2 7770   0.311   2.580  10.276
 2412SOL     OW 7771   0.325   2.389  10.296
 2412SOL    HW1 7772   0.286   2.302  10.282
 2412SOL    HW2 7773   0.404   2.389  10.243
 2413SOL     OW 7774   1.158   2.064  10.784
 2413SOL    HW1 7775   1.174   2.118  10.862
 2413SOL    HW2 7776   1.199   2.112  10.713
 2414SOL     OW 7777   4.491   3.181   9.521
 2414SOL    HW1 7778   4.398   3.198   9.503
 2414SOL    HW2 7779   4.494   3.088   9.542
 2415SOL     OW 7780   0.102   3.628  10.250
 2415SOL    HW1 7781   0.062   3.586  10.174
 2415SOL    HW2 7782   0.190   3.653  10.220
 2416SOL     OW 7783   0.494   3.437  10.217
 2416SOL    HW1 7784   0.562   3.500  10.240
 2416SOL    HW2 7785   0.537   3.375  10.158
 2417SOL     OW 7786   0.975   2.653  10.534
 2417SOL    HW1 7787   1.033   2.635  10.608
 2417SOL    HW2 7788   0.893   2.610  10.557
 2418SOL     OW 7789   0.024   2.420  10.397
 2418SOL    HW1 7790   0.117   2.403  10.381
 2418SOL    HW2 7791   0.007   2.383  10.484
 2419SOL     OW 7792   0.819   2.432   9.676
 2419SOL    HW1 7793   0.824   2.358   9.615
 2419SOL    HW2 7794   0.745   2.483   9.644
 2420SOL     OW 7795   1.644   2.466  10.489
 2420SOL    HW1 7796   1.638   2.407  10.564
 2420SOL    HW2 7797   1.733   2.451  10.455
 2421SOL     OW 7798   0.261   3.438  11.050
 2421SOL    HW1 7799   0.205   3.454   0.026
 2421SOL    HW2 7800   0.246   3.346  11.028
 2422SOL     OW 7801   0.711   2.308  10.564
 2422SOL    HW1 7802   0.653   2.236  10.539
 2422SOL    HW2 7803   0.703   2.372  10.492
 2423SOL     OW 7804   0.938   3.542  10.753
 2423SOL    HW1 7805   0.906   3.505  10.671
 2423SOL    HW2 7806   0.920   3.636  10.746
 2424SOL     OW 7807   0.469   2.351   9.487
 2424SOL    HW1 7808   0.531   2.419   9.514
 2424SOL    HW2 7809   0.387   2.398   9.473
 2425SOL     OW 7810   0.163   3.008  10.761
 2425SOL    HW1 7811   0.136   2.972  10.845
 2425SOL    HW2 7812   0.167   2.932  10.703
 2426SOL     OW 7813   1.320   2.913  10.537
 2426SOL    HW1 7814   1.344   2.847  10.472
 2426SOL    HW2 7815   1.255   2.968  10.493
 2427SOL     OW 7816   1.315   2.720   9.614
 2427SOL    HW1 7817   1.241   2.687   9.666
 2427SOL    HW2 7818   1.289   2.705   9.523
 2428SOL     OW 7819   1.781   3.601  10.465
 2428SOL    HW1 7820   1.840   3.626  10.394
 2428SOL    HW2 7821   1.754   3.512  10.442
 2429SOL     OW 7822   1.239   3.596  10.416
 2429SOL    HW1 7823   1.322   3.620  10.375
 2429SOL    HW2 7824   1.249   3.503  10.436
 2430SOL     OW 7825   0.072   3.049  10.361
 2430SOL    HW1 7826   0.056   3.079  10.451
 2430SOL    HW2 7827   0.040   3.121  10.307
 2431SOL     OW 7828   1.723   2.014   9.817
 2431SOL    HW1 7829   1.791   1.999   9.752
 2431SOL    HW2 7830   1.706   1.928   9.855
 2432SOL     OW 7831   1.392   3.430   9.800
 2432SOL    HW1 7832   1.451   3.463   9.732
 2432SOL    HW2 7833   1.342   3.506   9.828
 2433SOL     OW 7834   1.278   2.790   9.982
 2433SOL    HW1 7835   1.352   2.730   9.991
 2433SOL    HW2 7836   1.312   2.861   9.928
 2434SOL     OW 7837   0.810   3.139  10.734
 2434SOL    HW1 7838   0.779   3.174  10.818
 2434SOL    HW2 7839   0.740   3.160  10.672
 2435SOL     OW 7840   0.672   3.487   9.465
 2435SOL    HW1 7841   0.683   3.501   9.371
 2435SOL    HW2 7842   0.617   3.409   9.472
 2436SOL     OW 7843   1.615   3.585  10.688
 2436SOL    HW1 7844   1.675   3.597  10.615
 2436SOL    HW2 7845   1.600   3.673  10.723
 2437SOL     OW 7846   1.846   2.046  10.279
 2437SOL    HW1 7847   1.882   1.960  10.257
 2437SOL    HW2 7848   1.760   2.048  10.237
 2438SOL     OW 7849   0.260   2.180  10.026
 2438SOL    HW1 7850   0.177   2.220  10.001
 2438SOL    HW2 7851   0.253   2.166  10.120
 2439SOL     OW 7852   1.208   3.464   9.343
 2439SOL    HW1 7853   1.197   3.373   9.370
 2439SOL    HW2 7854   1.142   3.477   9.275
 2440SOL     OW 7855   0.828   2.869  10.690
 2440SOL    HW1 7856   0.871   2.859  10.605
 2440SOL    HW2 7857   0.825   2.964  10.704
 2441SOL     OW 7858   0.916   2.773   9.601
 2441SOL    HW1 7859   0.977   2.806   9.534
 2441SOL    HW2 7860   0.966   2.705   9.646
 2442SOL     OW 7861   1.489   3.491   9.355
 2442SOL    HW1 7862   1.395   3.480   9.339
 2442SOL    HW2 7863   1.527   3.496   9.267
 2443SOL     OW 7864   0.362   3.185  10.809
 2443SOL    HW1 7865   0.350   3.257  10.748
 2443SOL    HW2 7866   0.295   3.121  10.785
 2444SOL     OW 7867   1.614   3.144  10.594
 2444SOL    HW1 7868   1.667   3.123  10.671
 2444SOL    HW2 7869   1.556   3.214  10.623
 2445SOL     OW 7870   1.060   2.972  10.020
 2445SOL    HW1 7871   0.987   2.922  10.057
 2445SOL    HW2 7872   1.123   2.906   9.992
 2446SOL     OW 7873   1.024   2.104  10.277
 2446SOL    HW1 7874   1.020   2.058  10.193
 2446SOL    HW2 7875   1.018   2.035  10.343
 2447SOL     OW 7876   0.607   3.351   9.792
 2447SOL    HW1 7877   0.654   3.302   9.724
 2447SOL    HW2 7878   0.527   3.381   9.749
 2448SOL     OW 7879   1.724   2.258  10.694
 2448SOL    HW1 7880   1.798   2.318  10.698
 2448SOL    HW2 7881   1.755   2.186  10.639
 2449SOL     OW 7882   0.253   3.205   9.584
 2449SOL    HW1 7883   0.158   3.200   9.572
 2449SOL    HW2 7884   0.264   3.237   9.673
 2450SOL     OW 7885   0.113   2.886  10.998
 2450SOL    HW1 7886   0.058   2.898  11.076
 2450SOL    HW2 7887   0.200   2.865  11.033
 2451SOL     OW 7888   0.678   2.058  10.800
 2451SOL    HW1 7889   0.761   2.034  10.758
 2451SOL    HW2 7890   0.704   2.094  10.885
 2452SOL     OW 7891   0.073   2.189   9.338
 2452SOL    HW1 7892   4.481   2.205   9.359
 2452SOL    HW2 7893   0.102   2.269   9.295
 2453SOL     OW 7894   1.425   2.713  10.709
 2453SOL    HW1 7895   1.377   2.782  10.663
 2453SOL    HW2 7896   1.515   2.721  10.677
 2454SOL     OW 7897   0.087   2.034   9.611
 2454SOL    HW1 7898   0.081   2.111   9.555
 2454SOL    HW2 7899   0.162   1.985   9.578
 2455SOL     OW 7900   1.178   3.197   9.427
 2455SOL    HW1 7901   1.087   3.167   9.429
 2455SOL    HW2 7902   1.204   3.198   9.519
 2456SOL     OW 7903   0.630   2.690  10.745
 2456SOL    HW1 7904   0.687   2.766  10.731
 2456SOL    HW2 7905   0.690   2.615  10.745
 2457SOL     OW 7906   1.482   3.645  10.292
 2457SOL    HW1 7907   1.505   3.710  10.226
 2457SOL    HW2 7908   1.566   3.619  10.331
 2458SOL     OW 7909   0.714   2.431  11.012
 2458SOL    HW1 7910   0.760   2.496  11.064
 2458SOL    HW2 7911   0.752   2.347  11.038
 2459SOL     OW 7912   0.382   3.608  10.878
 2459SOL    HW1 7913   0.304   3.664  10.866
 2459SOL    HW2 7914   0.354   3.540  10.939
 2460SOL     OW 7915   1.667   2.744  10.567
 2460SOL    HW1 7916   1.661   2.658  10.525
 2460SOL    HW2 7917   1.657   2.807  10.496
 2461SOL     OW 7918   1.216   2.181   9.767
 2461SOL    HW1 7919   1.278   2.109   9.761
 2461SOL    HW2 7920   1.245   2.231   9.843
 2462SOL     OW 7921   0.588   2.597   9.982
 2462SOL    HW1 7922   0.626   2.683   9.967
 2462SOL    HW2 7923   0.522   2.588   9.913
 2463SOL     OW 7924   1.741   2.177  10.968
 2463SOL    HW1 7925   1.729   2.219  10.882
 2463SOL    HW2 7926   1.664   2.204  11.018
 2464SOL     OW 7927   1.747   2.802  10.825
 2464SOL    HW1 7928   1.736   2.897  10.837
 2464SOL    HW2 7929   1.729   2.788  10.732
 2465SOL     OW 7930   0.865   3.227   9.352
 2465SOL    HW1 7931   0.826   3.254   9.435
 2465SOL    HW2 7932   0.879   3.309   9.304
 2466SOL     OW 7933   0.664   3.647  10.250
 2466SOL    HW1 7934   0.644   3.738  10.229
 2466SOL    HW2 7935   0.759   3.641  10.242
 2467SOL     OW 7936   0.869   2.833  10.163
 2467SOL    HW1 7937   0.918   2.759  10.200
 2467SOL    HW2 7938   0.831   2.877  10.240
 2468SOL     OW 7939   1.078   2.851   9.399
 2468SOL    HW1 7940   1.056   2.902   9.321
 2468SOL    HW2 7941   1.152   2.796   9.372
 2469SOL     OW 7942   1.848   3.414  10.152
 2469SOL    HW1 7943   1.769   3.403  10.100
 2469SOL    HW2 7944   1.838   3.353  10.224
 2470SOL     OW 7945   0.123   3.090   9.978
 2470SOL    HW1 7946   0.142   3.050  10.063
 2470SOL    HW2 7947   0.178   3.042   9.916
 2471SOL     OW 7948   0.681   3.261  10.944
 2471SOL    HW1 7949   0.614   3.208  10.986
 2471SOL    HW2 7950   0.636   3.340  10.916
 2472SOL     OW 7951   1.816   2.052  10.548
 2472SOL    HW1 7952   1.833   1.959  10.564
 2472SOL    HW2 7953   1.828   2.062  10.453
 2473SOL     OW 7954   0.435   2.294   9.835
 2473SOL    HW1 7955   0.461   2.220   9.780
 2473SOL    HW2 7956   0.383   2.254   9.905
 2474SOL     OW 7957   1.700   3.348  10.401
 2474SOL    HW1 7958   1.620   3.327  10.354
 2474SOL    HW2 7959   1.707   3.280  10.468
 2475SOL     OW 7960   0.290   2.354  10.563
 2475SOL    HW1 7961   0.363   2.310  10.608
 2475SOL    HW2 7962   0.323   2.367  10.473
 2476SOL     OW 7963   0.831   3.441   9.986
 2476SOL    HW1 7964   0.811   3.504   9.916
 2476SOL    HW2 7965   0.756   3.381   9.987
 2477SOL     OW 7966   1.430   2.091  10.427
 2477SOL    HW1 7967   1.453   2.009  10.470
 2477SOL    HW2 7968   1.380   2.139  10.494
 2478SOL     OW 7969   1.009   1.878  10.446
 2478SOL    HW1 7970   0.955   1.813  10.402
 2478SOL    HW2 7971   1.096   1.840  10.448
 2479SOL     OW 7972   0.774   3.196   9.630
 2479SOL    HW1 7973   0.746   3.105   9.637
 2479SOL    HW2 7974   0.856   3.200   9.679
 2480SOL     OW 7975   0.621   3.415  10.601
 2480SOL    HW1 7976   0.619   3.500  10.646
 2480SOL    HW2 7977   0.708   3.410  10.561
 2481SOL     OW 7978   1.356   1.914   9.480
 2481SOL    HW1 7979   1.388   1.845   9.422
 2481SOL    HW2 7980   1.267   1.886   9.503
 2482SOL     OW 7981   1.296   2.325   9.988
 2482SOL    HW1 7982   1.243   2.405   9.993
 2482SOL    HW2 7983   1.291   2.288  10.077
 2483SOL     OW 7984   1.586   2.057  10.192
 2483SOL    HW1 7985   1.530   2.081  10.266
 2483SOL    HW2 7986   1.585   2.134  10.135
 2484SOL     OW 7987   0.039   2.911   9.604
 2484SOL    HW1 7988   0.130   2.887   9.590
 2484SOL    HW2 7989   0.021   2.888   9.694
 2485SOL     OW 7990   0.889   3.521   9.648
 2485SOL    HW1 7991   0.815   3.505   9.591
 2485SOL    HW2 7992   0.861   3.594   9.704
 2486SOL     OW 7993   0.198   4.285   0.091
 2486SOL    HW1 7994   0.138   4.303   0.164
 2486SOL    HW2 7995   0.228   4.372   0.063
 2487SOL     OW 7996   0.208   3.990   0.989
 2487SOL    HW1 7997   0.243   3.964   1.075
 2487SOL    HW2 7998   0.133   3.933   0.976
 2488SOL     OW 7999   4.495   4.103   0.627
 2488SOL    HW1 8000   4.408   4.127   0.660
 2488SOL    HW2 8001   4.484   4.014   0.593
 2489SOL     OW 8002   1.724   4.329   0.237
 2489SOL    HW1 8003   1.753   4.314   0.147
 2489SOL    HW2 8004   1.714   4.242   0.274
 2490SOL     OW 8005   0.736   0.279   0.686
 2490SOL    HW1 8006   0.722   0.210   0.751
 2490SOL    HW2 8007   0.652   0.285   0.640
 2491SOL     OW 8008   0.451   4.115   1.488
 2491SOL    HW1 8009   0.532   4.063   1.486
 2491SOL    HW2 8010   0.381   4.050   1.496
 2492SOL     OW 8011   1.613   4.168   0.744
 2492SOL    HW1 8012   1.560   4.198   0.670
 2492SOL    HW2 8013   1.592   4.229   0.815
 2493SOL     OW 8014   1.596   3.850   1.465
 2493SOL    HW1 8015   1.615   3.931   1.418
 2493SOL    HW2 8016   1.576   3.879   1.554
 2494SOL     OW 8017   0.152   4.323   0.643
 2494SOL    HW1 8018   0.094   4.248   0.631
 2494SOL    HW2 8019   0.113   4.392   0.590
 2495SOL     OW 8020   0.136   0.003   1.586
 2495SOL    HW1 8021   0.230   4.483   1.577
 2495SOL    HW2 8022   0.127   0.092   1.552
 2496SOL     OW 8023   0.823   3.731   0.515
 2496SOL    HW1 8024   0.861   3.816   0.494
 2496SOL    HW2 8025   0.729   3.746   0.519
 2497SOL     OW 8026   0.329   3.980   1.806
 2497SOL    HW1 8027   0.368   4.061   1.839
 2497SOL    HW2 8028   0.237   3.984   1.834
 2498SOL     OW 8029   1.277   4.082   0.935
 2498SOL    HW1 8030   1.188   4.048   0.944
 2498SOL    HW2 8031   1.329   4.028   0.993
 2499SOL     OW 8032   0.836   4.290   1.441
 2499SOL    HW1 8033   0.797   4.295   1.528
 2499SOL    HW2 8034   0.764   4.262   1.384
 2500SOL     OW 8035   1.394   4.200   1.677
 2500SOL    HW1 8036   1.399   4.245   1.761
 2500SOL    HW2 8037   1.449   4.122   1.687
 2501SOL     OW 8038   1.001   4.158   1.232
 2501SOL    HW1 8039   0.936   4.183   1.298
 2501SOL    HW2 8040   0.954   4.100   1.173
 2502SOL     OW 8041   1.059   4.407   0.415
 2502SOL    HW1 8042   1.053   4.469   0.486
 2502SOL    HW2 8043   0.969   4.382   0.396
 2503SOL     OW 8044   0.061   0.085   0.855
 2503SOL    HW1 8045   0.143   0.037   0.869
 2503SOL    HW2 8046   0.046   0.081   0.761
 2504SOL     OW 8047   0.893   4.074   0.210
 2504SOL    HW1 8048   0.934   4.135   0.148
 2504SOL    HW2 8049   0.905   3.988   0.170
 2505SOL     OW 8050   1.714   4.302   1.833
 2505SOL    HW1 8051   1.735   4.388   1.794
 2505SOL    HW2 8052   1.733   4.239   1.763
 2506SOL     OW 8053   0.553   3.899   0.896
 2506SOL    HW1 8054   0.555   3.931   0.986
 2506SOL    HW2 8055   0.547   3.978   0.842
 2507SOL     OW 8056   1.490   4.470   0.742
 2507SOL    HW1 8057   1.480   4.412   0.818
 2507SOL    HW2 8058   1.532   0.049   0.776
 2508SOL     OW 8059   0.189   4.002   1.483
 2508SOL    HW1 8060   0.144   4.085   1.498
 2508SOL    HW2 8061   0.180   3.955   1.566
 2509SOL     OW 8062   1.401   3.828   0.435
 2509SOL    HW1 8063   1.396   3.808   0.342
 2509SOL    HW2 8064   1.495   3.837   0.452
 2510SOL     OW 8065   0.343   4.380   0.402
 2510SOL    HW1 8066   0.385   4.304   0.442
 2510SOL    HW2 8067   0.308   4.430   0.476
 2511SOL     OW 8068   1.528   3.949   1.724
 2511SOL    HW1 8069   1.538   3.970   1.817
 2511SOL    HW2 8070   1.461   3.881   1.722
 2512SOL     OW 8071   0.621   3.834   0.122
 2512SOL    HW1 8072   0.706   3.791   0.119
 2512SOL    HW2 8073   0.576   3.803   0.043
 2513SOL     OW 8074   0.763   4.001   1.755
 2513SOL    HW1 8075   0.844   3.950   1.751
 2513SOL    HW2 8076   0.718   3.969   1.833
 2514SOL     OW 8077   1.337   4.315   1.432
 2514SOL    HW1 8078   1.360   4.278   1.518
 2514SOL    HW2 8079   1.391   4.394   1.426
 2515SOL     OW 8080   0.929   4.230   0.897
 2515SOL    HW1 8081   0.904   4.215   0.806
 2515SOL    HW2 8082   0.968   4.146   0.925
 2516SOL     OW 8083   0.558   3.787   0.499
 2516SOL    HW1 8084   0.477   3.783   0.549
 2516SOL    HW2 8085   0.549   3.865   0.445
 2517SOL     OW 8086   0.283   3.772   0.190
 2517SOL    HW1 8087   0.330   3.824   0.124
 2517SOL    HW2 8088   0.348   3.709   0.221
 2518SOL     OW 8089   0.942   3.979   0.463
 2518SOL    HW1 8090   0.918   4.015   0.378
 2518SOL    HW2 8091   1.037   3.991   0.468
 2519SOL     OW 8092   1.072   4.392   1.538
 2519SOL    HW1 8093   0.993   4.360   1.494
 2519SOL    HW2 8094   1.144   4.364   1.482
 2520SOL     OW 8095   1.010   4.262   0.040
 2520SOL    HW1 8096   1.034   4.302  11.057
 2520SOL    HW2 8097   1.089   4.268   0.094
 2521SOL     OW 8098   0.074   4.254   1.393
 2521SOL    HW1 8099   0.160   4.266   1.351
 2521SOL    HW2 8100   0.051   4.341   1.425
 2522SOL     OW 8101   0.558   3.952   1.168
 2522SOL    HW1 8102   0.601   3.876   1.208
 2522SOL    HW2 8103   0.467   3.944   1.195
 2523SOL     OW 8104   0.865   4.190   0.639
 2523SOL    HW1 8105   0.847   4.259   0.575
 2523SOL    HW2 8106   0.886   4.113   0.586
 2524SOL     OW 8107   1.016   3.778   0.747
 2524SOL    HW1 8108   0.957   3.771   0.672
 2524SOL    HW2 8109   0.994   3.703   0.802
 2525SOL     OW 8110   1.479   4.305   0.957
 2525SOL    HW1 8111   1.410   4.241   0.976
 2525SOL    HW2 8112   1.526   4.315   1.039
 2526SOL     OW 8113   1.404   4.290   0.075
 2526SOL    HW1 8114   1.335   4.273   0.139
 2526SOL    HW2 8115   1.460   4.213   0.079
 2527SOL     OW 8116   0.529   3.992   0.324
 2527SOL    HW1 8117   0.559   3.932   0.255
 2527SOL    HW2 8118   0.506   4.072   0.277
 2528SOL     OW 8119   0.917   3.820   1.391
 2528SOL    HW1 8120   0.941   3.798   1.301
 2528SOL    HW2 8121   0.997   3.857   1.428
 2529SOL     OW 8122   0.453   0.005   1.274
 2529SOL    HW1 8123   0.511   4.494   1.350
 2529SOL    HW2 8124   0.418   4.418   1.257
 2530SOL     OW 8125   1.265   4.099   1.280
 2530SOL    HW1 8126   1.297   4.177   1.325
 2530SOL    HW2 8127   1.176   4.122   1.253
 2531SOL     OW 8128   0.551   4.246   0.864
 2531SOL    HW1 8129   0.571   4.274   0.775
 2531SOL    HW2 8130   0.619   4.287   0.918
 2532SOL     OW 8131   1.570   4.330   0.489
 2532SOL    HW1 8132   1.538   4.398   0.547
 2532SOL    HW2 8133   1.618   4.377   0.421
 2533SOL     OW 8134   0.996   3.856   1.755
 2533SOL    HW1 8135   1.055   3.928   1.733
 2533SOL    HW2 8136   1.043   3.777   1.729
 2534SOL     OW 8137   0.495   3.766   1.750
 2534SOL    HW1 8138   0.451   3.710   1.686
 2534SOL    HW2 8139   0.437   3.842   1.759
 2535SOL     OW 8140   1.205   4.245   0.257
 2535SOL    HW1 8141   1.218   4.167   0.312
 2535SOL    HW2 8142   1.160   4.308   0.314
 2536SOL     OW 8143   0.297   3.920   1.244
 2536SOL    HW1 8144   0.255   3.948   1.325
 2536SOL    HW2 8145   0.284   3.825   1.241
 2537SOL     OW 8146   0.738   4.360   1.035
 2537SOL    HW1 8147   0.811   4.319   0.988
 2537SOL    HW2 8148   0.754   4.454   1.028
 2538SOL     OW 8149   1.754   0.126   1.849
 2538SOL    HW1 8150   1.681   0.147   1.791
 2538SOL    HW2 8151   1.719   0.139   1.937
 2539SOL     OW 8152   0.318   3.792   0.619
 2539SOL    HW1 8153   0.290   3.880   0.643
 2539SOL    HW2 8154   0.317   3.743   0.701
 2540SOL     OW 8155   1.620   4.092   0.361
 2540SOL    HW1 8156   1.651   4.027   0.424
 2540SOL    HW2 8157   1.592   4.166   0.414
 2541SOL     OW 8158   1.528   4.025   0.110
 2541SOL    HW1 8159   1.471   3.950   0.124
 2541SOL    HW2 8160   1.565   4.045   0.196
 2542SOL     OW 8161   0.322   0.011   0.902
 2542SOL    HW1 8162   0.399   0.067   0.911
 2542SOL    HW2 8163   0.341   4.434   0.955
 2543SOL     OW 8164   0.328   4.236   1.014
 2543SOL    HW1 8165   0.284   4.154   0.991
 2543SOL    HW2 8166   0.404   4.238   0.956
 2544SOL     OW 8167   1.138   4.089   1.689
 2544SOL    HW1 8168   1.084   4.148   1.741
 2544SOL    HW2 8169   1.222   4.135   1.680
 2545SOL     OW 8170   1.160   3.922   1.470
 2545SOL    HW1 8171   1.150   3.983   1.543
 2545SOL    HW2 8172   1.203   3.974   1.401
 2546SOL     OW 8173   0.013   4.268   1.090
 2546SOL    HW1 8174   0.106   4.269   1.065
 2546SOL    HW2 8175   0.013   4.237   1.181
 2547SOL     OW 8176   0.169   4.234   1.678
 2547SOL    HW1 8177   0.262   4.222   1.663
 2547SOL    HW2 8178   0.150   4.321   1.642
 2548SOL     OW 8179   0.813   4.313   0.326
 2548SOL    HW1 8180   0.827   4.226   0.288
 2548SOL    HW2 8181   0.722   4.313   0.355
 2549SOL     OW 8182   1.633   4.313   1.182
 2549SOL    HW1 8183   1.631   4.255   1.258
 2549SOL    HW2 8184   1.722   4.304   1.148
 2550SOL     OW 8185   0.669   4.194   1.250
 2550SOL    HW1 8186   0.634   4.111   1.218
 2550SOL    HW2 8187   0.682   4.247   1.171
 2551SOL     OW 8188   0.465   4.212   0.175
 2551SOL    HW1 8189   0.516   4.294   0.180
 2551SOL    HW2 8190   0.374   4.240   0.178
 2552SOL     OW 8191   0.923   3.815   0.095
 2552SOL    HW1 8192   0.968   3.776   0.019
 2552SOL    HW2 8193   0.965   3.774   0.171
 2553SOL     OW 8194   1.723   3.877   0.508
 2553SOL    HW1 8195   1.793   3.863   0.444
 2553SOL    HW2 8196   1.708   3.791   0.546
 2554SOL     OW 8197   1.277   0.133   0.677
 2554SOL    HW1 8198   1.334   0.062   0.706
 2554SOL    HW2 8199   1.324   0.173   0.603
 2555SOL     OW 8200   1.841   3.894   0.966
 2555SOL    HW1 8201   1.869   3.806   0.940
 2555SOL    HW2 8202   1.754   3.904   0.926
 2556SOL     OW 8203   0.269   4.041   0.720
 2556SOL    HW1 8204   0.193   4.092   0.693
 2556SOL    HW2 8205   0.255   4.025   0.814
 2557SOL     OW 8206   1.061   0.288   0.745
 2557SOL    HW1 8207   0.990   0.276   0.682
 2557SOL    HW2 8208   1.130   0.230   0.715
 2558SOL     OW 8209   1.023   3.964   0.962
 2558SOL    HW1 8210   1.019   3.915   0.880
 2558SOL    HW2 8211   1.018   3.897   1.030
 2559SOL     OW 8212   1.726   4.113   1.381
 2559SOL    HW1 8213   1.797   4.178   1.380
 2559SOL    HW2 8214   1.756   4.043   1.323
 2560SOL     OW 8215   0.676   3.922   1.498
 2560SOL    HW1 8216   0.760   3.899   1.458
 2560SOL    HW2 8217   0.699   3.952   1.586
 2561SOL     OW 8218   0.063   4.064   0.001
 2561SOL    HW1 8219   4.473   4.075   0.032
 2561SOL    HW2 8220   0.106   4.147   0.021
 2562SOL     OW 8221   0.081   3.894   0.313
 2562SOL    HW1 8222   0.076   3.971   0.257
 2562SOL    HW2 8223   0.155   3.843   0.279
 2563SOL     OW 8224   0.725   4.273   1.692
 2563SOL    HW1 8225   0.723   4.322   1.774
 2563SOL    HW2 8226   0.741   4.182   1.718
 2564SOL     OW 8227   1.216   4.037   0.454
 2564SOL    HW1 8228   1.280   3.966   0.447
 2564SOL    HW2 8229   1.244   4.087   0.531
 2565SOL     OW 8230   1.753   4.093   1.654
 2565SOL    HW1 8231   1.740   4.106   1.560
 2565SOL    HW2 8232   1.682   4.035   1.680
 2566SOL     OW 8233   1.101   0.206   0.048
 2566SOL    HW1 8234   1.091   0.296   0.018
 2566SOL    HW2 8235   1.187   0.180   0.015
 2567SOL     OW 8236   1.814   3.905   1.237
 2567SOL    HW1 8237   1.818   3.810   1.249
 2567SOL    HW2 8238   1.822   3.917   1.142
 2568SOL     OW 8239   0.449   4.162   0.535
 2568SOL    HW1 8240   0.473   4.088   0.479
 2568SOL    HW2 8241   0.393   4.124   0.602
 2569SOL     OW 8242   0.325   4.264   1.281
 2569SOL    HW1 8243   0.377   4.195   1.322
 2569SOL    HW2 8244   0.328   4.246   1.188
 2570SOL     OW 8245   1.430   3.951   1.117
 2570SOL    HW1 8246   1.448   3.867   1.159
 2570SOL    HW2 8247   1.380   4.000   1.182
 2571SOL     OW 8248   1.008   3.740   1.137
 2571SOL    HW1 8249   0.954   3.674   1.095
 2571SOL    HW2 8250   1.096   3.702   1.139
 2572SOL     OW 8251   1.351   3.782   0.164
 2572SOL    HW1 8252   1.373   3.726   0.090
 2572SOL    HW2 8253   1.264   3.753   0.191
 2573SOL     OW 8254   1.297   4.172   0.677
 2573SOL    HW1 8255   1.274   4.264   0.688
 2573SOL    HW2 8256   1.296   4.136   0.765
 2574SOL     OW 8257   1.584   3.921   0.881
 2574SOL    HW1 8258   1.528   3.946   0.954
 2574SOL    HW2 8259   1.585   3.997   0.824
 2575SOL     OW 8260   0.219   4.270   1.970
 2575SOL    HW1 8261   0.159   4.293   2.041
 2575SOL    HW2 8262   0.205   4.337   1.903
 2576SOL     OW 8263   0.209   3.990   2.851
 2576SOL    HW1 8264   0.243   3.964   2.937
 2576SOL    HW2 8265   0.132   3.934   2.838
 2577SOL     OW 8266   4.495   4.104   2.491
 2577SOL    HW1 8267   4.409   4.131   2.522
 2577SOL    HW2 8268   4.481   4.019   2.451
 2578SOL     OW 8269   1.717   4.336   2.104
 2578SOL    HW1 8270   1.724   4.328   2.009
 2578SOL    HW2 8271   1.725   4.246   2.136
 2579SOL     OW 8272   0.727   0.280   2.546
 2579SOL    HW1 8273   0.715   0.214   2.614
 2579SOL    HW2 8274   0.641   0.289   2.505
 2580SOL     OW 8275   0.451   4.115   3.349
 2580SOL    HW1 8276   0.532   4.063   3.348
 2580SOL    HW2 8277   0.381   4.050   3.358
 2581SOL     OW 8278   1.612   4.167   2.605
 2581SOL    HW1 8279   1.555   4.195   2.534
 2581SOL    HW2 8280   1.593   4.228   2.676
 2582SOL     OW 8281   1.596   3.851   3.327
 2582SOL    HW1 8282   1.615   3.931   3.280
 2582SOL    HW2 8283   1.576   3.879   3.416
 2583SOL     OW 8284   0.154   4.326   2.506
 2583SOL    HW1 8285   0.096   4.250   2.493
 2583SOL    HW2 8286   0.114   4.396   2.454
 2584SOL     OW 8287   0.136   0.003   3.448
 2584SOL    HW1 8288   0.230   4.483   3.439
 2584SOL    HW2 8289   0.127   0.092   3.414
 2585SOL     OW 8290   0.823   3.728   2.376
 2585SOL    HW1 8291   0.862   3.812   2.352
 2585SOL    HW2 8292   0.729   3.746   2.380
 2586SOL     OW 8293   0.329   3.980   3.668
 2586SOL    HW1 8294   0.368   4.061   3.701
 2586SOL    HW2 8295   0.237   3.984   3.696
 2587SOL     OW 8296   1.277   4.081   2.796
 2587SOL    HW1 8297   1.187   4.048   2.806
 2587SOL    HW2 8298   1.329   4.027   2.855
 2588SOL     OW 8299   0.836   4.289   3.303
 2588SOL    HW1 8300   0.797   4.295   3.390
 2588SOL    HW2 8301   0.764   4.262   3.246
 2589SOL     OW 8302   1.393   4.200   3.539
 2589SOL    HW1 8303   1.399   4.245   3.623
 2589SOL    HW2 8304   1.449   4.123   3.549
 2590SOL     OW 8305   1.001   4.159   3.094
 2590SOL    HW1 8306   0.937   4.184   3.160
 2590SOL    HW2 8307   0.954   4.100   3.035
 2591SOL     OW 8308   1.055   4.414   2.271
 2591SOL    HW1 8309   1.047   4.464   2.352
 2591SOL    HW2 8310   0.971   4.368   2.262
 2592SOL     OW 8311   0.064   0.089   2.715
 2592SOL    HW1 8312   0.145   0.040   2.730
 2592SOL    HW2 8313   0.043   0.075   2.623
 2593SOL     OW 8314   0.898   4.067   2.051
 2593SOL    HW1 8315   0.938   4.130   1.991
 2593SOL    HW2 8316   0.911   3.982   2.007
 2594SOL     OW 8317   1.714   4.303   3.695
 2594SOL    HW1 8318   1.735   4.388   3.657
 2594SOL    HW2 8319   1.733   4.240   3.625
 2595SOL     OW 8320   0.553   3.900   2.757
 2595SOL    HW1 8321   0.555   3.931   2.848
 2595SOL    HW2 8322   0.547   3.979   2.704
 2596SOL     OW 8323   1.493   4.471   2.602
 2596SOL    HW1 8324   1.482   4.413   2.677
 2596SOL    HW2 8325   1.535   0.049   2.638
 2597SOL     OW 8326   0.188   4.002   3.345
 2597SOL    HW1 8327   0.144   4.085   3.359
 2597SOL    HW2 8328   0.180   3.956   3.429
 2598SOL     OW 8329   1.400   3.828   2.300
 2598SOL    HW1 8330   1.392   3.804   2.208
 2598SOL    HW2 8331   1.494   3.838   2.315
 2599SOL     OW 8332   0.345   4.385   2.262
 2599SOL    HW1 8333   0.382   4.306   2.303
 2599SOL    HW2 8334   0.310   4.435   2.336
 2600SOL     OW 8335   1.528   3.949   3.586
 2600SOL    HW1 8336   1.538   3.970   3.679
 2600SOL    HW2 8337   1.460   3.882   3.584
 2601SOL     OW 8338   0.643   3.843   1.962
 2601SOL    HW1 8339   0.701   3.770   1.982
 2601SOL    HW2 8340   0.590   3.812   1.888
 2602SOL     OW 8341   0.763   4.001   3.617
 2602SOL    HW1 8342   0.844   3.950   3.613
 2602SOL    HW2 8343   0.718   3.969   3.695
 2603SOL     OW 8344   1.337   4.315   3.294
 2603SOL    HW1 8345   1.360   4.278   3.379
 2603SOL    HW2 8346   1.391   4.394   3.288
 2604SOL     OW 8347   0.928   4.229   2.755
 2604SOL    HW1 8348   0.904   4.214   2.664
 2604SOL    HW2 8349   0.966   4.147   2.785
 2605SOL     OW 8350   0.558   3.788   2.356
 2605SOL    HW1 8351   0.478   3.785   2.408
 2605SOL    HW2 8352   0.547   3.865   2.300
 2606SOL     OW 8353   0.294   3.768   2.038
 2606SOL    HW1 8354   0.357   3.833   2.007
 2606SOL    HW2 8355   0.348   3.703   2.084
 2607SOL     OW 8356   0.942   3.975   2.317
 2607SOL    HW1 8357   0.918   4.010   2.232
 2607SOL    HW2 8358   1.037   3.989   2.324
 2608SOL     OW 8359   1.072   4.392   3.401
 2608SOL    HW1 8360   0.993   4.360   3.356
 2608SOL    HW2 8361   1.144   4.364   3.344
 2609SOL     OW 8362   1.027   4.260   1.892
 2609SOL    HW1 8363   1.013   4.348   1.858
 2609SOL    HW2 8364   1.091   4.271   1.962
 2610SOL     OW 8365   0.074   4.254   3.255
 2610SOL    HW1 8366   0.160   4.267   3.213
 2610SOL    HW2 8367   0.051   4.341   3.287
 2611SOL     OW 8368   0.558   3.951   3.030
 2611SOL    HW1 8369   0.601   3.876   3.071
 2611SOL    HW2 8370   0.467   3.944   3.057
 2612SOL     OW 8371   0.868   4.188   2.496
 2612SOL    HW1 8372   0.840   4.250   2.428
 2612SOL    HW2 8373   0.888   4.108   2.448
 2613SOL     OW 8374   1.016   3.778   2.609
 2613SOL    HW1 8375   0.957   3.771   2.533
 2613SOL    HW2 8376   0.993   3.703   2.664
 2614SOL     OW 8377   1.479   4.305   2.817
 2614SOL    HW1 8378   1.410   4.241   2.837
 2614SOL    HW2 8379   1.527   4.315   2.900
 2615SOL     OW 8380   1.406   4.297   1.936
 2615SOL    HW1 8381   1.342   4.266   2.000
 2615SOL    HW2 8382   1.488   4.256   1.962
 2616SOL     OW 8383   0.527   3.986   2.171
 2616SOL    HW1 8384   0.575   3.940   2.102
 2616SOL    HW2 8385   0.510   4.073   2.134
 2617SOL     OW 8386   0.917   3.820   3.253
 2617SOL    HW1 8387   0.941   3.798   3.163
 2617SOL    HW2 8388   0.997   3.857   3.290
 2618SOL     OW 8389   0.453   0.006   3.136
 2618SOL    HW1 8390   0.511   4.494   3.212
 2618SOL    HW2 8391   0.418   4.418   3.119
 2619SOL     OW 8392   1.265   4.099   3.142
 2619SOL    HW1 8393   1.297   4.177   3.187
 2619SOL    HW2 8394   1.176   4.122   3.115
 2620SOL     OW 8395   0.552   4.245   2.726
 2620SOL    HW1 8396   0.570   4.275   2.637
 2620SOL    HW2 8397   0.619   4.287   2.779
 2621SOL     OW 8398   1.565   4.331   2.350
 2621SOL    HW1 8399   1.545   4.397   2.416
 2621SOL    HW2 8400   1.623   4.374   2.288
 2622SOL     OW 8401   0.996   3.856   3.617
 2622SOL    HW1 8402   1.055   3.928   3.595
 2622SOL    HW2 8403   1.044   3.777   3.591
 2623SOL     OW 8404   0.495   3.766   3.612
 2623SOL    HW1 8405   0.451   3.710   3.548
 2623SOL    HW2 8406   0.437   3.841   3.621
 2624SOL     OW 8407   1.206   4.250   2.120
 2624SOL    HW1 8408   1.217   4.171   2.173
 2624SOL    HW2 8409   1.159   4.311   2.177
 2625SOL     OW 8410   0.297   3.920   3.106
 2625SOL    HW1 8411   0.255   3.947   3.187
 2625SOL    HW2 8412   0.284   3.825   3.103
 2626SOL     OW 8413   0.738   4.359   2.897
 2626SOL    HW1 8414   0.811   4.319   2.849
 2626SOL    HW2 8415   0.754   4.453   2.891
 2627SOL     OW 8416   1.754   0.125   3.711
 2627SOL    HW1 8417   1.681   0.147   3.652
 2627SOL    HW2 8418   1.719   0.139   3.799
 2628SOL     OW 8419   0.318   3.792   2.479
 2628SOL    HW1 8420   0.290   3.880   2.504
 2628SOL    HW2 8421   0.318   3.742   2.561
 2629SOL     OW 8422   1.616   4.090   2.227
 2629SOL    HW1 8423   1.649   4.029   2.293
 2629SOL    HW2 8424   1.588   4.166   2.277
 2630SOL     OW 8425   1.521   3.999   1.988
 2630SOL    HW1 8426   1.460   3.931   2.014
 2630SOL    HW2 8427   1.558   4.031   2.070
 2631SOL     OW 8428   0.322   0.011   2.766
 2631SOL    HW1 8429   0.400   0.066   2.774
 2631SOL    HW2 8430   0.343   4.433   2.818
 2632SOL     OW 8431   0.329   4.235   2.876
 2632SOL    HW1 8432   0.284   4.153   2.853
 2632SOL    HW2 8433   0.405   4.238   2.818
 2633SOL     OW 8434   1.138   4.089   3.551
 2633SOL    HW1 8435   1.084   4.148   3.603
 2633SOL    HW2 8436   1.222   4.135   3.542
 2634SOL     OW 8437   1.160   3.922   3.332
 2634SOL    HW1 8438   1.150   3.983   3.405
 2634SOL    HW2 8439   1.203   3.974   3.263
 2635SOL     OW 8440   0.014   4.268   2.952
 2635SOL    HW1 8441   0.106   4.269   2.927
 2635SOL    HW2 8442   0.014   4.237   3.042
 2636SOL     OW 8443   0.169   4.235   3.540
 2636SOL    HW1 8444   0.263   4.222   3.525
 2636SOL    HW2 8445   0.150   4.321   3.504
 2637SOL     OW 8446   0.821   4.276   2.222
 2637SOL    HW1 8447   0.828   4.205   2.159
 2637SOL    HW2 8448   0.732   4.310   2.210
 2638SOL     OW 8449   1.633   4.312   3.043
 2638SOL    HW1 8450   1.631   4.256   3.120
 2638SOL    HW2 8451   1.722   4.304   3.009
 2639SOL     OW 8452   0.669   4.194   3.112
 2639SOL    HW1 8453   0.634   4.111   3.079
 2639SOL    HW2 8454   0.682   4.247   3.033
 2640SOL     OW 8455   0.480   4.226   2.048
 2640SOL    HW1 8456   0.500   4.308   2.094
 2640SOL    HW2 8457   0.388   4.235   2.023
 2641SOL     OW 8458   1.726   3.876   2.372
 2641SOL    HW1 8459   1.795   3.861   2.307
 2641SOL    HW2 8460   1.708   3.790   2.409
 2642SOL     OW 8461   1.279   0.134   2.540
 2642SOL    HW1 8462   1.338   0.062   2.564
 2642SOL    HW2 8463   1.327   0.182   2.472
 2643SOL     OW 8464   1.841   3.893   2.828
 2643SOL    HW1 8465   1.869   3.806   2.802
 2643SOL    HW2 8466   1.754   3.904   2.788
 2644SOL     OW 8467   0.267   4.040   2.581
 2644SOL    HW1 8468   0.189   4.088   2.554
 2644SOL    HW2 8469   0.255   4.025   2.675
 2645SOL     OW 8470   0.899   0.089   2.063
 2645SOL    HW1 8471   0.981   0.125   2.027
 2645SOL    HW2 8472   0.923   0.060   2.152
 2646SOL     OW 8473   1.066   0.289   2.615
 2646SOL    HW1 8474   1.001   0.291   2.545
 2646SOL    HW2 8475   1.132   0.227   2.584
 2647SOL     OW 8476   1.023   3.964   2.824
 2647SOL    HW1 8477   1.019   3.915   2.742
 2647SOL    HW2 8478   1.018   3.897   2.892
 2648SOL     OW 8479   1.726   4.113   3.243
 2648SOL    HW1 8480   1.797   4.178   3.242
 2648SOL    HW2 8481   1.756   4.044   3.185
 2649SOL     OW 8482   0.676   3.922   3.360
 2649SOL    HW1 8483   0.760   3.899   3.320
 2649SOL    HW2 8484   0.699   3.952   3.448
 2650SOL     OW 8485   0.065   4.045   1.909
 2650SOL    HW1 8486   4.476   4.072   1.889
 2650SOL    HW2 8487   0.115   4.127   1.915
 2651SOL     OW 8488   0.087   3.899   2.163
 2651SOL    HW1 8489   0.074   3.964   2.094
 2651SOL    HW2 8490   0.163   3.848   2.133
 2652SOL     OW 8491   0.725   4.273   3.553
 2652SOL    HW1 8492   0.723   4.322   3.635
 2652SOL    HW2 8493   0.741   4.182   3.580
 2653SOL     OW 8494   1.217   4.041   2.314
 2653SOL    HW1 8495   1.278   3.968   2.309
 2653SOL    HW2 8496   1.245   4.090   2.392
 2654SOL     OW 8497   1.753   4.093   3.516
 2654SOL    HW1 8498   1.741   4.106   3.422
 2654SOL    HW2 8499   1.682   4.035   3.542
 2655SOL     OW 8500   1.114   0.221   1.962
 2655SOL    HW1 8501   1.111   0.266   1.877
 2655SOL    HW2 8502   1.204   0.188   1.968
 2656SOL     OW 8503   1.814   3.905   3.099
 2656SOL    HW1 8504   1.819   3.811   3.111
 2656SOL    HW2 8505   1.822   3.917   3.004
 2657SOL     OW 8506   0.445   4.160   2.392
 2657SOL    HW1 8507   0.468   4.084   2.338
 2657SOL    HW2 8508   0.390   4.125   2.462
 2658SOL     OW 8509   0.325   4.264   3.143
 2658SOL    HW1 8510   0.377   4.195   3.184
 2658SOL    HW2 8511   0.329   4.246   3.050
 2659SOL     OW 8512   1.430   3.951   2.979
 2659SOL    HW1 8513   1.448   3.867   3.022
 2659SOL    HW2 8514   1.380   4.001   3.044
 2660SOL     OW 8515   1.008   3.741   2.999
 2660SOL    HW1 8516   0.954   3.674   2.957
 2660SOL    HW2 8517   1.096   3.702   3.001
 2661SOL     OW 8518   1.356   3.776   2.031
 2661SOL    HW1 8519   1.388   3.706   1.974
 2661SOL    HW2 8520   1.267   3.749   2.053
 2662SOL     OW 8521   1.297   4.173   2.540
 2662SOL    HW1 8522   1.273   4.265   2.553
 2662SOL    HW2 8523   1.296   4.135   2.627
 2663SOL     OW 8524   1.584   3.921   2.743
 2663SOL    HW1 8525   1.529   3.946   2.816
 2663SOL    HW2 8526   1.585   3.997   2.686
 2664SOL     OW 8527   0.220   4.270   3.832
 2664SOL    HW1 8528   0.159   4.293   3.903
 2664SOL    HW2 8529   0.205   4.337   3.766
 2665SOL     OW 8530   0.209   3.990   4.713
 2665SOL    HW1 8531   0.243   3.964   4.799
 2665SOL    HW2 8532   0.132   3.934   4.700
 2666SOL     OW 8533   4.495   4.104   4.353
 2666SOL    HW1 8534   4.409   4.131   4.384
 2666SOL    HW2 8535   4.481   4.019   4.312
 2667SOL     OW 8536   1.717   4.336   3.966
 2667SOL    HW1 8537   1.724   4.329   3.871
 2667SOL    HW2 8538   1.725   4.246   3.998
 2668SOL     OW 8539   0.727   0.280   4.409
 2668SOL    HW1 8540   0.715   0.214   4.476
 2668SOL    HW2 8541   0.642   0.289   4.366
 2669SOL     OW 8542   0.451   4.115   5.211
 2669SOL    HW1 8543   0.531   4.063   5.210
 2669SOL    HW2 8544   0.381   4.050   5.220
 2670SOL     OW 8545   1.612   4.167   4.467
 2670SOL    HW1 8546   1.556   4.196   4.395
 2670SOL    HW2 8547   1.594   4.229   4.538
 2671SOL     OW 8548   1.595   3.851   5.189
 2671SOL    HW1 8549   1.616   3.931   5.141
 2671SOL    HW2 8550   1.576   3.880   5.278
 2672SOL     OW 8551   0.154   4.326   4.368
 2672SOL    HW1 8552   0.096   4.250   4.355
 2672SOL    HW2 8553   0.114   4.396   4.317
 2673SOL     OW 8554   0.136   0.003   5.310
 2673SOL    HW1 8555   0.229   4.483   5.301
 2673SOL    HW2 8556   0.127   0.092   5.276
 2674SOL     OW 8557   0.823   3.728   4.238
 2674SOL    HW1 8558   0.862   3.812   4.214
 2674SOL    HW2 8559   0.729   3.746   4.243
 2675SOL     OW 8560   0.329   3.979   5.530
 2675SOL    HW1 8561   0.367   4.061   5.563
 2675SOL    HW2 8562   0.237   3.984   5.558
 2676SOL     OW 8563   1.277   4.081   4.659
 2676SOL    HW1 8564   1.187   4.048   4.668
 2676SOL    HW2 8565   1.329   4.027   4.717
 2677SOL     OW 8566   0.836   4.290   5.165
 2677SOL    HW1 8567   0.797   4.295   5.252
 2677SOL    HW2 8568   0.764   4.262   5.108
 2678SOL     OW 8569   1.393   4.200   5.401
 2678SOL    HW1 8570   1.399   4.245   5.485
 2678SOL    HW2 8571   1.449   4.123   5.411
 2679SOL     OW 8572   1.001   4.159   4.956
 2679SOL    HW1 8573   0.936   4.183   5.022
 2679SOL    HW2 8574   0.954   4.100   4.897
 2680SOL     OW 8575   1.054   4.414   4.133
 2680SOL    HW1 8576   1.047   4.463   4.214
 2680SOL    HW2 8577   0.971   4.368   4.124
 2681SOL     OW 8578   0.064   0.090   4.577
 2681SOL    HW1 8579   0.145   0.040   4.592
 2681SOL    HW2 8580   0.043   0.074   4.485
 2682SOL     OW 8581   0.898   4.067   3.913
 2682SOL    HW1 8582   0.937   4.130   3.853
 2682SOL    HW2 8583   0.911   3.982   3.869
 2683SOL     OW 8584   1.714   4.303   5.557
 2683SOL    HW1 8585   1.735   4.388   5.517
 2683SOL    HW2 8586   1.732   4.239   5.488
 2684SOL     OW 8587   0.553   3.900   4.619
 2684SOL    HW1 8588   0.555   3.932   4.710
 2684SOL    HW2 8589   0.547   3.979   4.566
 2685SOL     OW 8590   1.493   4.471   4.464
 2685SOL    HW1 8591   1.482   4.413   4.539
 2685SOL    HW2 8592   1.535   0.049   4.500
 2686SOL     OW 8593   0.189   4.002   5.207
 2686SOL    HW1 8594   0.144   4.085   5.221
 2686SOL    HW2 8595   0.180   3.956   5.291
 2687SOL     OW 8596   1.400   3.828   4.162
 2687SOL    HW1 8597   1.392   3.804   4.070
 2687SOL    HW2 8598   1.494   3.838   4.177
 2688SOL     OW 8599   0.345   4.385   4.124
 2688SOL    HW1 8600   0.382   4.306   4.165
 2688SOL    HW2 8601   0.310   4.435   4.198
 2689SOL     OW 8602   1.528   3.950   5.448
 2689SOL    HW1 8603   1.538   3.970   5.541
 2689SOL    HW2 8604   1.461   3.882   5.445
 2690SOL     OW 8605   0.643   3.843   3.824
 2690SOL    HW1 8606   0.701   3.770   3.844
 2690SOL    HW2 8607   0.590   3.812   3.750
 2691SOL     OW 8608   0.763   4.001   5.479
 2691SOL    HW1 8609   0.844   3.950   5.475
 2691SOL    HW2 8610   0.718   3.969   5.557
 2692SOL     OW 8611   1.337   4.315   5.156
 2692SOL    HW1 8612   1.359   4.278   5.241
 2692SOL    HW2 8613   1.391   4.394   5.150
 2693SOL     OW 8614   0.928   4.229   4.617
 2693SOL    HW1 8615   0.904   4.214   4.526
 2693SOL    HW2 8616   0.966   4.147   4.647
 2694SOL     OW 8617   0.558   3.788   4.218
 2694SOL    HW1 8618   0.478   3.785   4.270
 2694SOL    HW2 8619   0.547   3.865   4.162
 2695SOL     OW 8620   0.294   3.768   3.900
 2695SOL    HW1 8621   0.357   3.833   3.869
 2695SOL    HW2 8622   0.348   3.703   3.946
 2696SOL     OW 8623   0.942   3.975   4.179
 2696SOL    HW1 8624   0.918   4.010   4.094
 2696SOL    HW2 8625   1.037   3.989   4.186
 2697SOL     OW 8626   1.072   4.392   5.263
 2697SOL    HW1 8627   0.993   4.360   5.218
 2697SOL    HW2 8628   1.144   4.364   5.206
 2698SOL     OW 8629   1.027   4.260   3.754
 2698SOL    HW1 8630   1.013   4.348   3.720
 2698SOL    HW2 8631   1.091   4.271   3.824
 2699SOL     OW 8632   0.075   4.254   5.118
 2699SOL    HW1 8633   0.160   4.267   5.075
 2699SOL    HW2 8634   0.050   4.341   5.148
 2700SOL     OW 8635   0.558   3.951   4.891
 2700SOL    HW1 8636   0.601   3.876   4.932
 2700SOL    HW2 8637   0.467   3.944   4.919
 2701SOL     OW 8638   0.868   4.188   4.358
 2701SOL    HW1 8639   0.840   4.250   4.290
 2701SOL    HW2 8640   0.888   4.108   4.310
 2702SOL     OW 8641   1.016   3.778   4.471
 2702SOL    HW1 8642   0.957   3.771   4.395
 2702SOL    HW2 8643   0.993   3.703   4.526
 2703SOL     OW 8644   1.479   4.305   4.679
 2703SOL    HW1 8645   1.410   4.241   4.699
 2703SOL    HW2 8646   1.526   4.315   4.762
 2704SOL     OW 8647   1.406   4.297   3.798
 2704SOL    HW1 8648   1.343   4.266   3.862
 2704SOL    HW2 8649   1.489   4.257   3.824
 2705SOL     OW 8650   0.528   3.986   4.033
 2705SOL    HW1 8651   0.575   3.940   3.964
 2705SOL    HW2 8652   0.510   4.073   3.996
 2706SOL     OW 8653   0.917   3.820   5.115
 2706SOL    HW1 8654   0.941   3.798   5.025
 2706SOL    HW2 8655   0.997   3.857   5.152
 2707SOL     OW 8656   0.452   0.006   4.998
 2707SOL    HW1 8657   0.510   4.494   5.074
 2707SOL    HW2 8658   0.418   4.418   4.981
 2708SOL     OW 8659   1.265   4.099   5.004
 2708SOL    HW1 8660   1.297   4.177   5.049
 2708SOL    HW2 8661   1.176   4.122   4.977
 2709SOL     OW 8662   0.552   4.246   4.588
 2709SOL    HW1 8663   0.570   4.275   4.499
 2709SOL    HW2 8664   0.620   4.287   4.641
 2710SOL     OW 8665   1.565   4.330   4.212
 2710SOL    HW1 8666   1.545   4.397   4.278
 2710SOL    HW2 8667   1.623   4.374   4.150
 2711SOL     OW 8668   0.996   3.856   5.479
 2711SOL    HW1 8669   1.055   3.928   5.457
 2711SOL    HW2 8670   1.044   3.777   5.453
 2712SOL     OW 8671   0.495   3.766   5.474
 2712SOL    HW1 8672   0.451   3.710   5.410
 2712SOL    HW2 8673   0.437   3.841   5.483
 2713SOL     OW 8674   1.206   4.250   3.982
 2713SOL    HW1 8675   1.217   4.171   4.035
 2713SOL    HW2 8676   1.159   4.311   4.039
 2714SOL     OW 8677   0.297   3.920   4.968
 2714SOL    HW1 8678   0.255   3.947   5.049
 2714SOL    HW2 8679   0.284   3.825   4.965
 2715SOL     OW 8680   0.738   4.359   4.759
 2715SOL    HW1 8681   0.811   4.319   4.711
 2715SOL    HW2 8682   0.754   4.453   4.752
 2716SOL     OW 8683   1.755   0.127   5.573
 2716SOL    HW1 8684   1.682   0.147   5.514
 2716SOL    HW2 8685   1.719   0.140   5.661
 2717SOL     OW 8686   0.318   3.792   4.341
 2717SOL    HW1 8687   0.290   3.880   4.366
 2717SOL    HW2 8688   0.318   3.742   4.423
 2718SOL     OW 8689   1.615   4.089   4.089
 2718SOL    HW1 8690   1.649   4.028   4.155
 2718SOL    HW2 8691   1.588   4.166   4.139
 2719SOL     OW 8692   1.521   3.999   3.850
 2719SOL    HW1 8693   1.460   3.931   3.876
 2719SOL    HW2 8694   1.558   4.031   3.932
 2720SOL     OW 8695   0.322   0.011   4.628
 2720SOL    HW1 8696   0.400   0.066   4.636
 2720SOL    HW2 8697   0.343   4.433   4.680
 2721SOL     OW 8698   0.329   4.235   4.738
 2721SOL    HW1 8699   0.284   4.153   4.715
 2721SOL    HW2 8700   0.405   4.238   4.679
 2722SOL     OW 8701   1.138   4.089   5.413
 2722SOL    HW1 8702   1.084   4.148   5.465
 2722SOL    HW2 8703   1.222   4.135   5.404
 2723SOL     OW 8704   1.160   3.922   5.194
 2723SOL    HW1 8705   1.150   3.983   5.267
 2723SOL    HW2 8706   1.203   3.973   5.126
 2724SOL     OW 8707   0.014   4.269   4.814
 2724SOL    HW1 8708   0.106   4.269   4.789
 2724SOL    HW2 8709   0.014   4.236   4.904
 2725SOL     OW 8710   0.169   4.235   5.403
 2725SOL    HW1 8711   0.263   4.222   5.387
 2725SOL    HW2 8712   0.150   4.321   5.366
 2726SOL     OW 8713   0.821   4.276   4.084
 2726SOL    HW1 8714   0.828   4.204   4.021
 2726SOL    HW2 8715   0.732   4.310   4.072
 2727SOL     OW 8716   1.633   4.312   4.905
 2727SOL    HW1 8717   1.631   4.255   4.982
 2727SOL    HW2 8718   1.722   4.304   4.871
 2728SOL     OW 8719   0.669   4.194   4.974
 2728SOL    HW1 8720   0.634   4.111   4.941
 2728SOL    HW2 8721   0.682   4.247   4.895
 2729SOL     OW 8722   0.480   4.226   3.910
 2729SOL    HW1 8723   0.500   4.308   3.955
 2729SOL    HW2 8724   0.388   4.235   3.885
 2730SOL     OW 8725   1.726   3.876   4.234
 2730SOL    HW1 8726   1.795   3.861   4.170
 2730SOL    HW2 8727   1.708   3.790   4.271
 2731SOL     OW 8728   1.280   0.134   4.402
 2731SOL    HW1 8729   1.337   0.062   4.426
 2731SOL    HW2 8730   1.327   0.181   4.333
 2732SOL     OW 8731   1.841   3.894   4.690
 2732SOL    HW1 8732   1.869   3.806   4.665
 2732SOL    HW2 8733   1.754   3.903   4.650
 2733SOL     OW 8734   0.267   4.039   4.443
 2733SOL    HW1 8735   0.189   4.088   4.416
 2733SOL    HW2 8736   0.255   4.025   4.537
 2734SOL     OW 8737   0.899   0.089   3.926
 2734SOL    HW1 8738   0.981   0.125   3.889
 2734SOL    HW2 8739   0.923   0.060   4.013
 2735SOL     OW 8740   1.066   0.289   4.477
 2735SOL    HW1 8741   1.001   0.291   4.407
 2735SOL    HW2 8742   1.132   0.227   4.446
 2736SOL     OW 8743   1.023   3.964   4.686
 2736SOL    HW1 8744   1.019   3.915   4.604
 2736SOL    HW2 8745   1.018   3.897   4.754
 2737SOL     OW 8746   1.726   4.113   5.106
 2737SOL    HW1 8747   1.797   4.178   5.104
 2737SOL    HW2 8748   1.756   4.044   5.047
 2738SOL     OW 8749   0.676   3.922   5.222
 2738SOL    HW1 8750   0.760   3.899   5.182
 2738SOL    HW2 8751   0.699   3.952   5.310
 2739SOL     OW 8752   0.065   4.045   3.771
 2739SOL    HW1 8753   4.476   4.073   3.751
 2739SOL    HW2 8754   0.115   4.127   3.777
 2740SOL     OW 8755   0.087   3.899   4.025
 2740SOL    HW1 8756   0.074   3.964   3.956
 2740SOL    HW2 8757   0.163   3.848   3.995
 2741SOL     OW 8758   0.725   4.273   5.416
 2741SOL    HW1 8759   0.723   4.322   5.498
 2741SOL    HW2 8760   0.741   4.182   5.442
 2742SOL     OW 8761   1.217   4.041   4.176
 2742SOL    HW1 8762   1.278   3.968   4.171
 2742SOL    HW2 8763   1.245   4.090   4.254
 2743SOL     OW 8764   1.753   4.093   5.378
 2743SOL    HW1 8765   1.741   4.106   5.284
 2743SOL    HW2 8766   1.682   4.035   5.404
 2744SOL     OW 8767   1.114   0.221   3.824
 2744SOL    HW1 8768   1.111   0.266   3.739
 2744SOL    HW2 8769   1.204   0.188   3.830
 2745SOL     OW 8770   1.813   3.905   4.961
 2745SOL    HW1 8771   1.820   3.811   4.974
 2745SOL    HW2 8772   1.822   3.917   4.866
 2746SOL     OW 8773   0.446   4.160   4.254
 2746SOL    HW1 8774   0.468   4.084   4.201
 2746SOL    HW2 8775   0.390   4.125   4.324
 2747SOL     OW 8776   0.325   4.264   5.005
 2747SOL    HW1 8777   0.377   4.195   5.045
 2747SOL    HW2 8778   0.329   4.246   4.911
 2748SOL     OW 8779   1.430   3.951   4.841
 2748SOL    HW1 8780   1.450   3.868   4.885
 2748SOL    HW2 8781   1.380   4.000   4.906
 2749SOL     OW 8782   1.008   3.741   4.861
 2749SOL    HW1 8783   0.954   3.674   4.819
 2749SOL    HW2 8784   1.096   3.702   4.863
 2750SOL     OW 8785   1.356   3.776   3.893
 2750SOL    HW1 8786   1.388   3.706   3.836
 2750SOL    HW2 8787   1.267   3.749   3.916
 2751SOL     OW 8788   1.297   4.173   4.402
 2751SOL    HW1 8789   1.273   4.265   4.415
 2751SOL    HW2 8790   1.296   4.135   4.489
 2752SOL     OW 8791   1.584   3.920   4.605
 2752SOL    HW1 8792   1.529   3.946   4.678
 2752SOL    HW2 8793   1.585   3.997   4.548
 2753SOL     OW 8794   0.220   4.270   5.695
 2753SOL    HW1 8795   0.159   4.293   5.765
 2753SOL    HW2 8796   0.205   4.337   5.627
 2754SOL     OW 8797   0.209   3.990   6.575
 2754SOL    HW1 8798   0.243   3.964   6.661
 2754SOL    HW2 8799   0.132   3.935   6.562
 2755SOL     OW 8800   4.495   4.104   6.215
 2755SOL    HW1 8801   4.409   4.131   6.246
 2755SOL    HW2 8802   4.481   4.019   6.174
 2756SOL     OW 8803   1.717   4.336   5.828
 2756SOL    HW1 8804   1.724   4.329   5.733
 2756SOL    HW2 8805   1.726   4.246   5.859
 2757SOL     OW 8806   0.727   0.280   6.270
 2757SOL    HW1 8807   0.715   0.214   6.338
 2757SOL    HW2 8808   0.642   0.288   6.229
 2758SOL     OW 8809   0.451   4.115   7.073
 2758SOL    HW1 8810   0.532   4.063   7.072
 2758SOL    HW2 8811   0.381   4.050   7.082
 2759SOL     OW 8812   1.612   4.167   6.329
 2759SOL    HW1 8813   1.555   4.195   6.258
 2759SOL    HW2 8814   1.594   4.228   6.400
 2760SOL     OW 8815   1.596   3.851   7.051
 2760SOL    HW1 8816   1.615   3.932   7.004
 2760SOL    HW2 8817   1.576   3.879   7.140
 2761SOL     OW 8818   0.154   4.326   6.230
 2761SOL    HW1 8819   0.096   4.250   6.217
 2761SOL    HW2 8820   0.114   4.396   6.178
 2762SOL     OW 8821   0.136   0.003   7.172
 2762SOL    HW1 8822   0.230   4.483   7.163
 2762SOL    HW2 8823   0.127   0.092   7.138
 2763SOL     OW 8824   0.823   3.728   6.100
 2763SOL    HW1 8825   0.862   3.812   6.076
 2763SOL    HW2 8826   0.729   3.746   6.104
 2764SOL     OW 8827   0.329   3.980   7.391
 2764SOL    HW1 8828   0.368   4.060   7.425
 2764SOL    HW2 8829   0.237   3.984   7.420
 2765SOL     OW 8830   1.277   4.081   6.520
 2765SOL    HW1 8831   1.187   4.048   6.530
 2765SOL    HW2 8832   1.329   4.027   6.580
 2766SOL     OW 8833   0.836   4.289   7.027
 2766SOL    HW1 8834   0.797   4.295   7.114
 2766SOL    HW2 8835   0.764   4.261   6.970
 2767SOL     OW 8836   1.394   4.200   7.263
 2767SOL    HW1 8837   1.399   4.245   7.347
 2767SOL    HW2 8838   1.449   4.122   7.274
 2768SOL     OW 8839   1.001   4.159   6.818
 2768SOL    HW1 8840   0.937   4.184   6.884
 2768SOL    HW2 8841   0.953   4.100   6.760
 2769SOL     OW 8842   1.055   4.414   5.995
 2769SOL    HW1 8843   1.047   4.463   6.076
 2769SOL    HW2 8844   0.971   4.368   5.986
 2770SOL     OW 8845   0.064   0.090   6.439
 2770SOL    HW1 8846   0.145   0.040   6.454
 2770SOL    HW2 8847   0.043   0.074   6.347
 2771SOL     OW 8848   0.898   4.067   5.775
 2771SOL    HW1 8849   0.938   4.130   5.715
 2771SOL    HW2 8850   0.910   3.982   5.731
 2772SOL     OW 8851   1.714   4.302   7.419
 2772SOL    HW1 8852   1.735   4.388   7.380
 2772SOL    HW2 8853   1.733   4.239   7.349
 2773SOL     OW 8854   0.554   3.900   6.481
 2773SOL    HW1 8855   0.555   3.931   6.572
 2773SOL    HW2 8856   0.547   3.979   6.428
 2774SOL     OW 8857   1.493   4.471   6.326
 2774SOL    HW1 8858   1.482   4.413   6.401
 2774SOL    HW2 8859   1.535   0.049   6.362
 2775SOL     OW 8860   0.189   4.002   7.069
 2775SOL    HW1 8861   0.144   4.085   7.083
 2775SOL    HW2 8862   0.180   3.956   7.153
 2776SOL     OW 8863   1.400   3.828   6.024
 2776SOL    HW1 8864   1.392   3.804   5.932
 2776SOL    HW2 8865   1.494   3.839   6.038
 2777SOL     OW 8866   0.345   4.385   5.986
 2777SOL    HW1 8867   0.382   4.306   6.027
 2777SOL    HW2 8868   0.310   4.435   6.060
 2778SOL     OW 8869   1.528   3.949   7.310
 2778SOL    HW1 8870   1.538   3.970   7.403
 2778SOL    HW2 8871   1.460   3.881   7.308
 2779SOL     OW 8872   0.643   3.843   5.686
 2779SOL    HW1 8873   0.701   3.770   5.706
 2779SOL    HW2 8874   0.590   3.812   5.612
 2780SOL     OW 8875   0.763   4.001   7.341
 2780SOL    HW1 8876   0.844   3.950   7.337
 2780SOL    HW2 8877   0.718   3.969   7.419
 2781SOL     OW 8878   1.337   4.315   7.018
 2781SOL    HW1 8879   1.360   4.277   7.104
 2781SOL    HW2 8880   1.390   4.394   7.012
 2782SOL     OW 8881   0.928   4.230   6.479
 2782SOL    HW1 8882   0.904   4.214   6.388
 2782SOL    HW2 8883   0.966   4.147   6.509
 2783SOL     OW 8884   0.558   3.788   6.080
 2783SOL    HW1 8885   0.478   3.785   6.132
 2783SOL    HW2 8886   0.547   3.865   6.024
 2784SOL     OW 8887   0.294   3.768   5.762
 2784SOL    HW1 8888   0.357   3.834   5.731
 2784SOL    HW2 8889   0.348   3.703   5.808
 2785SOL     OW 8890   0.942   3.975   6.041
 2785SOL    HW1 8891   0.918   4.010   5.956
 2785SOL    HW2 8892   1.037   3.989   6.047
 2786SOL     OW 8893   1.072   4.392   7.124
 2786SOL    HW1 8894   0.993   4.360   7.080
 2786SOL    HW2 8895   1.144   4.364   7.068
 2787SOL     OW 8896   1.027   4.260   5.616
 2787SOL    HW1 8897   1.013   4.348   5.582
 2787SOL    HW2 8898   1.091   4.271   5.686
 2788SOL     OW 8899   0.075   4.254   6.979
 2788SOL    HW1 8900   0.160   4.267   6.937
 2788SOL    HW2 8901   0.050   4.341   7.011
 2789SOL     OW 8902   0.558   3.951   6.754
 2789SOL    HW1 8903   0.601   3.876   6.795
 2789SOL    HW2 8904   0.467   3.944   6.781
 2790SOL     OW 8905   0.868   4.188   6.220
 2790SOL    HW1 8906   0.840   4.250   6.152
 2790SOL    HW2 8907   0.888   4.108   6.172
 2791SOL     OW 8908   1.017   3.777   6.332
 2791SOL    HW1 8909   0.957   3.771   6.257
 2791SOL    HW2 8910   0.993   3.703   6.388
 2792SOL     OW 8911   1.479   4.305   6.541
 2792SOL    HW1 8912   1.410   4.241   6.561
 2792SOL    HW2 8913   1.527   4.315   6.624
 2793SOL     OW 8914   1.406   4.297   5.660
 2793SOL    HW1 8915   1.343   4.266   5.724
 2793SOL    HW2 8916   1.489   4.257   5.685
 2794SOL     OW 8917   0.528   3.986   5.895
 2794SOL    HW1 8918   0.575   3.940   5.826
 2794SOL    HW2 8919   0.510   4.073   5.858
 2795SOL     OW 8920   0.917   3.820   6.977
 2795SOL    HW1 8921   0.941   3.798   6.887
 2795SOL    HW2 8922   0.997   3.857   7.015
 2796SOL     OW 8923   0.453   0.006   6.860
 2796SOL    HW1 8924   0.511   4.494   6.936
 2796SOL    HW2 8925   0.418   4.418   6.843
 2797SOL     OW 8926   1.265   4.099   6.865
 2797SOL    HW1 8927   1.297   4.177   6.911
 2797SOL    HW2 8928   1.176   4.122   6.839
 2798SOL     OW 8929   0.552   4.245   6.450
 2798SOL    HW1 8930   0.570   4.275   6.361
 2798SOL    HW2 8931   0.619   4.287   6.503
 2799SOL     OW 8932   1.565   4.330   6.074
 2799SOL    HW1 8933   1.545   4.397   6.140
 2799SOL    HW2 8934   1.623   4.374   6.012
 2800SOL     OW 8935   0.996   3.856   7.340
 2800SOL    HW1 8936   1.055   3.928   7.319
 2800SOL    HW2 8937   1.043   3.777   7.315
 2801SOL     OW 8938   0.495   3.766   7.336
 2801SOL    HW1 8939   0.451   3.710   7.272
 2801SOL    HW2 8940   0.437   3.842   7.345
 2802SOL     OW 8941   1.206   4.250   5.844
 2802SOL    HW1 8942   1.217   4.171   5.897
 2802SOL    HW2 8943   1.159   4.311   5.901
 2803SOL     OW 8944   0.297   3.920   6.830
 2803SOL    HW1 8945   0.255   3.947   6.911
 2803SOL    HW2 8946   0.284   3.825   6.827
 2804SOL     OW 8947   0.738   4.359   6.621
 2804SOL    HW1 8948   0.811   4.319   6.573
 2804SOL    HW2 8949   0.754   4.453   6.615
 2805SOL     OW 8950   1.754   0.127   7.435
 2805SOL    HW1 8951   1.681   0.147   7.377
 2805SOL    HW2 8952   1.719   0.139   7.523
 2806SOL     OW 8953   0.318   3.792   6.203
 2806SOL    HW1 8954   0.290   3.880   6.228
 2806SOL    HW2 8955   0.318   3.742   6.285
 2807SOL     OW 8956   1.615   4.089   5.951
 2807SOL    HW1 8957   1.648   4.028   6.017
 2807SOL    HW2 8958   1.588   4.166   6.001
 2808SOL     OW 8959   1.521   3.999   5.712
 2808SOL    HW1 8960   1.459   3.931   5.738
 2808SOL    HW2 8961   1.558   4.031   5.794
 2809SOL     OW 8962   0.322   0.011   6.490
 2809SOL    HW1 8963   0.400   0.066   6.498
 2809SOL    HW2 8964   0.342   4.433   6.542
 2810SOL     OW 8965   0.329   4.235   6.600
 2810SOL    HW1 8966   0.284   4.153   6.577
 2810SOL    HW2 8967   0.405   4.238   6.542
 2811SOL     OW 8968   1.138   4.089   7.275
 2811SOL    HW1 8969   1.084   4.148   7.327
 2811SOL    HW2 8970   1.222   4.135   7.266
 2812SOL     OW 8971   1.160   3.922   7.055
 2812SOL    HW1 8972   1.150   3.983   7.129
 2812SOL    HW2 8973   1.203   3.974   6.987
 2813SOL     OW 8974   0.014   4.269   6.676
 2813SOL    HW1 8975   0.106   4.269   6.651
 2813SOL    HW2 8976   0.014   4.237   6.766
 2814SOL     OW 8977   0.169   4.235   7.265
 2814SOL    HW1 8978   0.263   4.222   7.250
 2814SOL    HW2 8979   0.150   4.321   7.228
 2815SOL     OW 8980   0.821   4.276   5.946
 2815SOL    HW1 8981   0.828   4.205   5.883
 2815SOL    HW2 8982   0.732   4.310   5.934
 2816SOL     OW 8983   1.633   4.312   6.767
 2816SOL    HW1 8984   1.631   4.256   6.844
 2816SOL    HW2 8985   1.722   4.304   6.733
 2817SOL     OW 8986   0.669   4.194   6.836
 2817SOL    HW1 8987   0.634   4.111   6.803
 2817SOL    HW2 8988   0.682   4.247   6.757
 2818SOL     OW 8989   0.480   4.227   5.772
 2818SOL    HW1 8990   0.500   4.308   5.818
 2818SOL    HW2 8991   0.388   4.235   5.747
 2819SOL     OW 8992   1.726   3.876   6.096
 2819SOL    HW1 8993   1.794   3.860   6.031
 2819SOL    HW2 8994   1.708   3.789   6.133
 2820SOL     OW 8995   1.279   0.134   6.263
 2820SOL    HW1 8996   1.337   0.062   6.288
 2820SOL    HW2 8997   1.327   0.181   6.195
 2821SOL     OW 8998   1.841   3.891   6.552
 2821SOL    HW1 8999   1.869   3.804   6.525
 2821SOL    HW2 9000   1.755   3.903   6.512
 2822SOL     OW 9001   0.267   4.040   6.305
 2822SOL    HW1 9002   0.189   4.088   6.278
 2822SOL    HW2 9003   0.255   4.025   6.399
 2823SOL     OW 9004   0.899   0.089   5.788
 2823SOL    HW1 9005   0.981   0.125   5.752
 2823SOL    HW2 9006   0.923   0.060   5.876
 2824SOL     OW 9007   1.066   0.289   6.339
 2824SOL    HW1 9008   1.001   0.291   6.268
 2824SOL    HW2 9009   1.132   0.227   6.308
 2825SOL     OW 9010   1.023   3.964   6.548
 2825SOL    HW1 9011   1.020   3.914   6.466
 2825SOL    HW2 9012   1.018   3.897   6.616
 2826SOL     OW 9013   1.726   4.114   6.967
 2826SOL    HW1 9014   1.797   4.178   6.966
 2826SOL    HW2 9015   1.756   4.044   6.909
 2827SOL     OW 9016   0.676   3.922   7.084
 2827SOL    HW1 9017   0.760   3.899   7.044
 2827SOL    HW2 9018   0.699   3.952   7.172
 2828SOL     OW 9019   0.065   4.045   5.633
 2828SOL    HW1 9020   4.476   4.072   5.613
 2828SOL    HW2 9021   0.115   4.127   5.639
 2829SOL     OW 9022   0.087   3.899   5.887
 2829SOL    HW1 9023   0.073   3.964   5.818
 2829SOL    HW2 9024   0.163   3.848   5.857
 2830SOL     OW 9025   0.725   4.273   7.277
 2830SOL    HW1 9026   0.723   4.322   7.360
 2830SOL    HW2 9027   0.741   4.182   7.304
 2831SOL     OW 9028   1.217   4.041   6.038
 2831SOL    HW1 9029   1.278   3.968   6.033
 2831SOL    HW2 9030   1.245   4.090   6.116
 2832SOL     OW 9031   1.753   4.093   7.240
 2832SOL    HW1 9032   1.740   4.106   7.146
 2832SOL    HW2 9033   1.682   4.035   7.266
 2833SOL     OW 9034   1.114   0.222   5.686
 2833SOL    HW1 9035   1.111   0.265   5.601
 2833SOL    HW2 9036   1.204   0.188   5.692
 2834SOL     OW 9037   1.814   3.906   6.822
 2834SOL    HW1 9038   1.819   3.811   6.836
 2834SOL    HW2 9039   1.823   3.917   6.728
 2835SOL     OW 9040   0.446   4.160   6.116
 2835SOL    HW1 9041   0.468   4.084   6.063
 2835SOL    HW2 9042   0.390   4.125   6.186
 2836SOL     OW 9043   0.325   4.264   6.867
 2836SOL    HW1 9044   0.377   4.195   6.908
 2836SOL    HW2 9045   0.329   4.246   6.774
 2837SOL     OW 9046   1.430   3.950   6.704
 2837SOL    HW1 9047   1.449   3.868   6.748
 2837SOL    HW2 9048   1.380   4.001   6.768
 2838SOL     OW 9049   1.009   3.741   6.723
 2838SOL    HW1 9050   0.954   3.675   6.681
 2838SOL    HW2 9051   1.096   3.702   6.725
 2839SOL     OW 9052   1.356   3.776   5.755
 2839SOL    HW1 9053   1.387   3.707   5.696
 2839SOL    HW2 9054   1.267   3.749   5.778
 2840SOL     OW 9055   1.297   4.173   6.264
 2840SOL    HW1 9056   1.273   4.265   6.277
 2840SOL    HW2 9057   1.296   4.135   6.352
 2841SOL     OW 9058   1.585   3.920   6.468
 2841SOL    HW1 9059   1.529   3.946   6.541
 2841SOL    HW2 9060   1.585   3.997   6.410
 2842SOL     OW 9061   0.220   4.270   7.556
 2842SOL    HW1 9062   0.159   4.293   7.627
 2842SOL    HW2 9063   0.205   4.337   7.489
 2843SOL     OW 9064   0.209   3.990   8.437
 2843SOL    HW1 9065   0.243   3.964   8.523
 2843SOL    HW2 9066   0.132   3.935   8.424
 2844SOL     OW 9067   4.495   4.104   8.077
 2844SOL    HW1 9068   4.409   4.131   8.108
 2844SOL    HW2 9069   4.481   4.019   8.037
 2845SOL     OW 9070   1.718   4.336   7.690
 2845SOL    HW1 9071   1.724   4.328   7.595
 2845SOL    HW2 9072   1.725   4.246   7.722
 2846SOL     OW 9073   0.727   0.280   8.132
 2846SOL    HW1 9074   0.715   0.214   8.200
 2846SOL    HW2 9075   0.641   0.289   8.091
 2847SOL     OW 9076   0.451   4.115   8.935
 2847SOL    HW1 9077   0.532   4.063   8.934
 2847SOL    HW2 9078   0.381   4.050   8.944
 2848SOL     OW 9079   1.612   4.167   8.191
 2848SOL    HW1 9080   1.555   4.195   8.120
 2848SOL    HW2 9081   1.593   4.228   8.262
 2849SOL     OW 9082   1.596   3.851   8.913
 2849SOL    HW1 9083   1.615   3.931   8.866
 2849SOL    HW2 9084   1.576   3.879   9.002
 2850SOL     OW 9085   0.154   4.326   8.092
 2850SOL    HW1 9086   0.096   4.250   8.079
 2850SOL    HW2 9087   0.114   4.396   8.040
 2851SOL     OW 9088   0.136   0.003   9.033
 2851SOL    HW1 9089   0.230   4.483   9.025
 2851SOL    HW2 9090   0.127   0.092   9.000
 2852SOL     OW 9091   0.823   3.728   7.961
 2852SOL    HW1 9092   0.862   3.812   7.938
 2852SOL    HW2 9093   0.729   3.746   7.966
 2853SOL     OW 9094   0.329   3.980   9.253
 2853SOL    HW1 9095   0.368   4.060   9.287
 2853SOL    HW2 9096   0.237   3.984   9.281
 2854SOL     OW 9097   1.277   4.081   8.382
 2854SOL    HW1 9098   1.187   4.048   8.392
 2854SOL    HW2 9099   1.329   4.027   8.441
 2855SOL     OW 9100   0.836   4.289   8.889
 2855SOL    HW1 9101   0.797   4.295   8.976
 2855SOL    HW2 9102   0.764   4.261   8.832
 2856SOL     OW 9103   1.394   4.200   9.125
 2856SOL    HW1 9104   1.399   4.245   9.209
 2856SOL    HW2 9105   1.449   4.122   9.135
 2857SOL     OW 9106   1.001   4.159   8.680
 2857SOL    HW1 9107   0.937   4.184   8.746
 2857SOL    HW2 9108   0.954   4.100   8.621
 2858SOL     OW 9109   1.055   4.414   7.857
 2858SOL    HW1 9110   1.047   4.464   7.938
 2858SOL    HW2 9111   0.971   4.368   7.848
 2859SOL     OW 9112   0.064   0.089   8.301
 2859SOL    HW1 9113   0.145   0.040   8.316
 2859SOL    HW2 9114   0.043   0.075   8.209
 2860SOL     OW 9115   0.898   4.067   7.637
 2860SOL    HW1 9116   0.938   4.130   7.577
 2860SOL    HW2 9117   0.911   3.982   7.593
 2861SOL     OW 9118   1.714   4.302   9.281
 2861SOL    HW1 9119   1.735   4.388   9.242
 2861SOL    HW2 9120   1.733   4.239   9.211
 2862SOL     OW 9121   0.553   3.900   8.343
 2862SOL    HW1 9122   0.555   3.931   8.434
 2862SOL    HW2 9123   0.547   3.979   8.290
 2863SOL     OW 9124   1.494   4.471   8.188
 2863SOL    HW1 9125   1.482   4.413   8.263
 2863SOL    HW2 9126   1.535   0.049   8.224
 2864SOL     OW 9127   0.188   4.002   8.931
 2864SOL    HW1 9128   0.144   4.085   8.945
 2864SOL    HW2 9129   0.181   3.956   9.015
 2865SOL     OW 9130   1.400   3.828   7.886
 2865SOL    HW1 9131   1.392   3.804   7.794
 2865SOL    HW2 9132   1.494   3.837   7.901
 2866SOL     OW 9133   0.345   4.385   7.848
 2866SOL    HW1 9134   0.382   4.306   7.889
 2866SOL    HW2 9135   0.310   4.435   7.922
 2867SOL     OW 9136   1.528   3.949   9.172
 2867SOL    HW1 9137   1.538   3.970   9.265
 2867SOL    HW2 9138   1.460   3.881   9.170
 2868SOL     OW 9139   0.643   3.843   7.548
 2868SOL    HW1 9140   0.701   3.770   7.569
 2868SOL    HW2 9141   0.590   3.812   7.474
 2869SOL     OW 9142   0.763   4.001   9.203
 2869SOL    HW1 9143   0.844   3.950   9.199
 2869SOL    HW2 9144   0.718   3.969   9.281
 2870SOL     OW 9145   1.337   4.315   8.880
 2870SOL    HW1 9146   1.360   4.278   8.965
 2870SOL    HW2 9147   1.391   4.394   8.874
 2871SOL     OW 9148   0.928   4.230   8.341
 2871SOL    HW1 9149   0.904   4.214   8.250
 2871SOL    HW2 9150   0.966   4.147   8.371
 2872SOL     OW 9151   0.558   3.788   7.942
 2872SOL    HW1 9152   0.478   3.785   7.994
 2872SOL    HW2 9153   0.547   3.865   7.886
 2873SOL     OW 9154   0.294   3.768   7.624
 2873SOL    HW1 9155   0.357   3.834   7.593
 2873SOL    HW2 9156   0.348   3.703   7.670
 2874SOL     OW 9157   0.942   3.975   7.903
 2874SOL    HW1 9158   0.918   4.010   7.818
 2874SOL    HW2 9159   1.037   3.989   7.910
 2875SOL     OW 9160   1.072   4.392   8.986
 2875SOL    HW1 9161   0.993   4.360   8.942
 2875SOL    HW2 9162   1.144   4.364   8.930
 2876SOL     OW 9163   1.027   4.259   7.478
 2876SOL    HW1 9164   1.013   4.348   7.444
 2876SOL    HW2 9165   1.091   4.271   7.548
 2877SOL     OW 9166   0.074   4.255   8.840
 2877SOL    HW1 9167   0.160   4.267   8.799
 2877SOL    HW2 9168   0.051   4.341   8.873
 2878SOL     OW 9169   0.558   3.951   8.616
 2878SOL    HW1 9170   0.601   3.876   8.657
 2878SOL    HW2 9171   0.467   3.944   8.643
 2879SOL     OW 9172   0.868   4.188   8.082
 2879SOL    HW1 9173   0.840   4.250   8.014
 2879SOL    HW2 9174   0.888   4.108   8.034
 2880SOL     OW 9175   1.016   3.778   8.195
 2880SOL    HW1 9176   0.957   3.770   8.119
 2880SOL    HW2 9177   0.993   3.703   8.250
 2881SOL     OW 9178   1.479   4.305   8.403
 2881SOL    HW1 9179   1.410   4.241   8.423
 2881SOL    HW2 9180   1.527   4.315   8.486
 2882SOL     OW 9181   1.406   4.297   7.522
 2882SOL    HW1 9182   1.342   4.266   7.586
 2882SOL    HW2 9183   1.488   4.256   7.548
 2883SOL     OW 9184   0.527   3.986   7.757
 2883SOL    HW1 9185   0.575   3.940   7.688
 2883SOL    HW2 9186   0.510   4.073   7.720
 2884SOL     OW 9187   0.917   3.820   8.839
 2884SOL    HW1 9188   0.941   3.798   8.749
 2884SOL    HW2 9189   0.997   3.857   8.876
 2885SOL     OW 9190   0.453   0.006   8.722
 2885SOL    HW1 9191   0.511   4.494   8.798
 2885SOL    HW2 9192   0.418   4.418   8.705
 2886SOL     OW 9193   1.265   4.099   8.728
 2886SOL    HW1 9194   1.297   4.177   8.773
 2886SOL    HW2 9195   1.176   4.122   8.701
 2887SOL     OW 9196   0.552   4.245   8.312
 2887SOL    HW1 9197   0.570   4.275   8.223
 2887SOL    HW2 9198   0.619   4.287   8.365
 2888SOL     OW 9199   1.565   4.331   7.936
 2888SOL    HW1 9200   1.545   4.397   8.002
 2888SOL    HW2 9201   1.623   4.374   7.874
 2889SOL     OW 9202   0.996   3.856   9.202
 2889SOL    HW1 9203   1.055   3.928   9.181
 2889SOL    HW2 9204   1.043   3.777   9.177
 2890SOL     OW 9205   0.495   3.766   9.198
 2890SOL    HW1 9206   0.451   3.710   9.134
 2890SOL    HW2 9207   0.437   3.841   9.207
 2891SOL     OW 9208   1.206   4.250   7.706
 2891SOL    HW1 9209   1.217   4.171   7.759
 2891SOL    HW2 9210   1.159   4.311   7.763
 2892SOL     OW 9211   0.297   3.920   8.692
 2892SOL    HW1 9212   0.254   3.947   8.773
 2892SOL    HW2 9213   0.284   3.825   8.689
 2893SOL     OW 9214   0.738   4.359   8.483
 2893SOL    HW1 9215   0.811   4.319   8.435
 2893SOL    HW2 9216   0.754   4.453   8.477
 2894SOL     OW 9217   1.754   0.126   9.297
 2894SOL    HW1 9218   1.681   0.147   9.239
 2894SOL    HW2 9219   1.719   0.139   9.385
 2895SOL     OW 9220   0.318   3.792   8.065
 2895SOL    HW1 9221   0.290   3.880   8.090
 2895SOL    HW2 9222   0.318   3.742   8.147
 2896SOL     OW 9223   1.616   4.090   7.813
 2896SOL    HW1 9224   1.649   4.029   7.878
 2896SOL    HW2 9225   1.588   4.166   7.863
 2897SOL     OW 9226   1.521   3.999   7.574
 2897SOL    HW1 9227   1.460   3.931   7.600
 2897SOL    HW2 9228   1.559   4.031   7.656
 2898SOL     OW 9229   0.322   0.011   8.352
 2898SOL    HW1 9230   0.400   0.066   8.360
 2898SOL    HW2 9231   0.343   4.433   8.404
 2899SOL     OW 9232   0.329   4.235   8.462
 2899SOL    HW1 9233   0.284   4.153   8.439
 2899SOL    HW2 9234   0.405   4.238   8.404
 2900SOL     OW 9235   1.138   4.089   9.137
 2900SOL    HW1 9236   1.084   4.148   9.189
 2900SOL    HW2 9237   1.222   4.135   9.128
 2901SOL     OW 9238   1.160   3.922   8.917
 2901SOL    HW1 9239   1.150   3.983   8.991
 2901SOL    HW2 9240   1.203   3.974   8.849
 2902SOL     OW 9241   0.014   4.268   8.538
 2902SOL    HW1 9242   0.106   4.269   8.513
 2902SOL    HW2 9243   0.014   4.238   8.628
 2903SOL     OW 9244   0.169   4.234   9.126
 2903SOL    HW1 9245   0.263   4.222   9.112
 2903SOL    HW2 9246   0.150   4.321   9.090
 2904SOL     OW 9247   0.821   4.276   7.808
 2904SOL    HW1 9248   0.828   4.205   7.745
 2904SOL    HW2 9249   0.732   4.310   7.796
 2905SOL     OW 9250   1.633   4.313   8.629
 2905SOL    HW1 9251   1.631   4.256   8.706
 2905SOL    HW2 9252   1.722   4.304   8.595
 2906SOL     OW 9253   0.669   4.194   8.698
 2906SOL    HW1 9254   0.634   4.111   8.665
 2906SOL    HW2 9255   0.682   4.247   8.619
 2907SOL     OW 9256   0.480   4.226   7.634
 2907SOL    HW1 9257   0.500   4.308   7.680
 2907SOL    HW2 9258   0.388   4.235   7.609
 2908SOL     OW 9259   1.726   3.876   7.958
 2908SOL    HW1 9260   1.795   3.861   7.893
 2908SOL    HW2 9261   1.708   3.790   7.995
 2909SOL     OW 9262   1.279   0.134   8.126
 2909SOL    HW1 9263   1.338   0.062   8.150
 2909SOL    HW2 9264   1.327   0.182   8.058
 2910SOL     OW 9265   1.841   3.893   8.414
 2910SOL    HW1 9266   1.869   3.806   8.388
 2910SOL    HW2 9267   1.754   3.904   8.374
 2911SOL     OW 9268   0.267   4.039   8.167
 2911SOL    HW1 9269   0.189   4.088   8.140
 2911SOL    HW2 9270   0.255   4.025   8.261
 2912SOL     OW 9271   0.899   0.089   7.649
 2912SOL    HW1 9272   0.981   0.125   7.613
 2912SOL    HW2 9273   0.923   0.060   7.738
 2913SOL     OW 9274   1.066   0.289   8.201
 2913SOL    HW1 9275   1.001   0.291   8.130
 2913SOL    HW2 9276   1.132   0.227   8.170
 2914SOL     OW 9277   1.023   3.964   8.410
 2914SOL    HW1 9278   1.019   3.914   8.328
 2914SOL    HW2 9279   1.018   3.897   8.478
 2915SOL     OW 9280   1.726   4.113   8.829
 2915SOL    HW1 9281   1.797   4.178   8.827
 2915SOL    HW2 9282   1.756   4.044   8.771
 2916SOL     OW 9283   0.676   3.922   8.946
 2916SOL    HW1 9284   0.760   3.899   8.906
 2916SOL    HW2 9285   0.699   3.952   9.034
 2917SOL     OW 9286   0.065   4.045   7.495
 2917SOL    HW1 9287   4.476   4.072   7.475
 2917SOL    HW2 9288   0.115   4.127   7.501
 2918SOL     OW 9289   0.087   3.899   7.749
 2918SOL    HW1 9290   0.074   3.964   7.680
 2918SOL    HW2 9291   0.163   3.848   7.719
 2919SOL     OW 9292   0.725   4.273   9.139
 2919SOL    HW1 9293   0.723   4.322   9.222
 2919SOL    HW2 9294   0.741   4.182   9.166
 2920SOL     OW 9295   1.217   4.041   7.900
 2920SOL    HW1 9296   1.278   3.968   7.895
 2920SOL    HW2 9297   1.245   4.090   7.978
 2921SOL     OW 9298   1.753   4.093   9.101
 2921SOL    HW1 9299   1.740   4.106   9.007
 2921SOL    HW2 9300   1.682   4.035   9.128
 2922SOL     OW 9301   1.114   0.222   7.548
 2922SOL    HW1 9302   1.111   0.266   7.463
 2922SOL    HW2 9303   1.204   0.188   7.554
 2923SOL     OW 9304   1.814   3.905   8.685
 2923SOL    HW1 9305   1.818   3.811   8.697
 2923SOL    HW2 9306   1.823   3.917   8.590
 2924SOL     OW 9307   0.446   4.160   7.978
 2924SOL    HW1 9308   0.468   4.084   7.925
 2924SOL    HW2 9309   0.390   4.125   8.048
 2925SOL     OW 9310   0.325   4.264   8.730
 2925SOL    HW1 9311   0.377   4.195   8.770
 2925SOL    HW2 9312   0.328   4.246   8.636
 2926SOL     OW 9313   1.430   3.951   8.565
 2926SOL    HW1 9314   1.448   3.867   8.608
 2926SOL    HW2 9315   1.380   4.001   8.630
 2927SOL     OW 9316   1.008   3.741   8.585
 2927SOL    HW1 9317   0.954   3.674   8.543
 2927SOL    HW2 9318   1.096   3.702   8.587
 2928SOL     OW 9319   1.356   3.776   7.617
 2928SOL    HW1 9320   1.389   3.705   7.560
 2928SOL    HW2 9321   1.267   3.749   7.639
 2929SOL     OW 9322   1.298   4.173   8.126
 2929SOL    HW1 9323   1.273   4.265   8.139
 2929SOL    HW2 9324   1.296   4.135   8.213
 2930SOL     OW 9325   1.584   3.921   8.329
 2930SOL    HW1 9326   1.529   3.946   8.402
 2930SOL    HW2 9327   1.585   3.997   8.272
 2931SOL     OW 9328   0.219   4.270   9.418
 2931SOL    HW1 9329   0.159   4.293   9.489
 2931SOL    HW2 9330   0.205   4.337   9.352
 2932SOL     OW 9331   0.210   3.990  10.298
 2932SOL    HW1 9332   0.244   3.965  10.384
 2932SOL    HW2 9333   0.132   3.935  10.287
 2933SOL     OW 9334   4.494   4.104   9.939
 2933SOL    HW1 9335   4.408   4.131   9.970
 2933SOL    HW2 9336   4.480   4.019   9.899
 2934SOL     OW 9337   1.718   4.336   9.552
 2934SOL    HW1 9338   1.724   4.328   9.457
 2934SOL    HW2 9339   1.725   4.246   9.584
 2935SOL     OW 9340   0.728   0.280   9.994
 2935SOL    HW1 9341   0.715   0.216  10.064
 2935SOL    HW2 9342   0.642   0.289   9.953
 2936SOL     OW 9343   0.450   4.120  10.780
 2936SOL    HW1 9344   0.531   4.069  10.785
 2936SOL    HW2 9345   0.382   4.060  10.810
 2937SOL     OW 9346   1.612   4.167  10.053
 2937SOL    HW1 9347   1.555   4.195   9.982
 2937SOL    HW2 9348   1.594   4.228  10.124
 2938SOL     OW 9349   1.591   3.843  10.775
 2938SOL    HW1 9350   1.616   3.923  10.729
 2938SOL    HW2 9351   1.595   3.867  10.868
 2939SOL     OW 9352   0.154   4.324   9.952
 2939SOL    HW1 9353   0.095   4.250   9.940
 2939SOL    HW2 9354   0.114   4.395   9.902
 2940SOL     OW 9355   0.104   0.003  10.925
 2940SOL    HW1 9356   0.195   4.480  10.940
 2940SOL    HW2 9357   0.107   0.091  10.887
 2941SOL     OW 9358   0.823   3.728   9.824
 2941SOL    HW1 9359   0.862   3.812   9.800
 2941SOL    HW2 9360   0.729   3.746   9.829
 2942SOL     OW 9361   0.343   3.986   0.009
 2942SOL    HW1 9362   0.384   4.065   0.042
 2942SOL    HW2 9363   0.249   4.006   0.011
 2943SOL     OW 9364   1.277   4.082  10.245
 2943SOL    HW1 9365   1.188   4.048  10.254
 2943SOL    HW2 9366   1.329   4.027  10.304
 2944SOL     OW 9367   0.828   4.293  10.757
 2944SOL    HW1 9368   0.782   4.305  10.840
 2944SOL    HW2 9369   0.762   4.260  10.697
 2945SOL     OW 9370   1.001   4.158  10.544
 2945SOL    HW1 9371   0.932   4.182  10.605
 2945SOL    HW2 9372   0.958   4.103  10.479
 2946SOL     OW 9373   1.055   4.414   9.719
 2946SOL    HW1 9374   1.047   4.464   9.800
 2946SOL    HW2 9375   0.971   4.369   9.711
 2947SOL     OW 9376   0.063   0.088  10.164
 2947SOL    HW1 9377   0.144   0.041  10.179
 2947SOL    HW2 9378   0.045   0.076  10.071
 2948SOL     OW 9379   0.898   4.066   9.498
 2948SOL    HW1 9380   0.937   4.130   9.439
 2948SOL    HW2 9381   0.911   3.982   9.455
 2949SOL     OW 9382   0.554   3.900  10.205
 2949SOL    HW1 9383   0.555   3.931  10.296
 2949SOL    HW2 9384   0.550   3.980  10.153
 2950SOL     OW 9385   1.494   4.471  10.050
 2950SOL    HW1 9386   1.482   4.413  10.125
 2950SOL    HW2 9387   1.535   0.049  10.086
 2951SOL     OW 9388   0.191   3.999  10.796
 2951SOL    HW1 9389   0.148   4.085  10.803
 2951SOL    HW2 9390   0.181   3.960  10.883
 2952SOL     OW 9391   1.400   3.828   9.748
 2952SOL    HW1 9392   1.392   3.804   9.656
 2952SOL    HW2 9393   1.494   3.838   9.763
 2953SOL     OW 9394   0.345   4.385   9.710
 2953SOL    HW1 9395   0.382   4.306   9.750
 2953SOL    HW2 9396   0.309   4.435   9.784
 2954SOL     OW 9397   0.643   3.843   9.410
 2954SOL    HW1 9398   0.701   3.770   9.430
 2954SOL    HW2 9399   0.590   3.812   9.336
 2955SOL     OW 9400   0.765   4.008  11.046
 2955SOL    HW1 9401   0.833   3.950  11.078
 2955SOL    HW2 9402   0.699   4.008   0.014
 2956SOL     OW 9403   1.348   4.314  10.742
 2956SOL    HW1 9404   1.360   4.299  10.836
 2956SOL    HW2 9405   1.389   4.399  10.726
 2957SOL     OW 9406   0.929   4.231  10.203
 2957SOL    HW1 9407   0.904   4.215  10.112
 2957SOL    HW2 9408   0.966   4.148  10.232
 2958SOL     OW 9409   0.558   3.788   9.804
 2958SOL    HW1 9410   0.478   3.785   9.856
 2958SOL    HW2 9411   0.547   3.865   9.748
 2959SOL     OW 9412   0.294   3.768   9.486
 2959SOL    HW1 9413   0.357   3.834   9.456
 2959SOL    HW2 9414   0.348   3.703   9.531
 2960SOL     OW 9415   0.942   3.975   9.765
 2960SOL    HW1 9416   0.918   4.010   9.680
 2960SOL    HW2 9417   1.037   3.989   9.771
 2961SOL     OW 9418   1.077   4.353  10.855
 2961SOL    HW1 9419   0.991   4.350  10.813
 2961SOL    HW2 9420   1.139   4.355  10.782
 2962SOL     OW 9421   1.027   4.260   9.340
 2962SOL    HW1 9422   1.013   4.348   9.306
 2962SOL    HW2 9423   1.091   4.271   9.410
 2963SOL     OW 9424   0.090   4.252  10.728
 2963SOL    HW1 9425   0.159   4.260  10.662
 2963SOL    HW2 9426   0.052   4.339  10.734
 2964SOL     OW 9427   0.556   3.951  10.477
 2964SOL    HW1 9428   0.600   3.878  10.521
 2964SOL    HW2 9429   0.465   3.944  10.505
 2965SOL     OW 9430   0.868   4.189   9.944
 2965SOL    HW1 9431   0.841   4.251   9.876
 2965SOL    HW2 9432   0.888   4.108   9.896
 2966SOL     OW 9433   1.016   3.778  10.057
 2966SOL    HW1 9434   0.957   3.771   9.982
 2966SOL    HW2 9435   0.993   3.703  10.112
 2967SOL     OW 9436   1.479   4.305  10.265
 2967SOL    HW1 9437   1.411   4.241  10.284
 2967SOL    HW2 9438   1.527   4.314  10.348
 2968SOL     OW 9439   1.406   4.297   9.384
 2968SOL    HW1 9440   1.342   4.266   9.448
 2968SOL    HW2 9441   1.488   4.256   9.410
 2969SOL     OW 9442   0.527   3.986   9.619
 2969SOL    HW1 9443   0.575   3.940   9.550
 2969SOL    HW2 9444   0.510   4.073   9.582
 2970SOL     OW 9445   0.918   3.823  10.698
 2970SOL    HW1 9446   0.943   3.801  10.608
 2970SOL    HW2 9447   0.997   3.862  10.736
 2971SOL     OW 9448   0.448   4.494  10.571
 2971SOL    HW1 9449   0.498   4.490  10.653
 2971SOL    HW2 9450   0.400   4.411  10.569
 2972SOL     OW 9451   1.266   4.097  10.592
 2972SOL    HW1 9452   1.301   4.175  10.636
 2972SOL    HW2 9453   1.177   4.123  10.566
 2973SOL     OW 9454   0.559   4.240  10.168
 2973SOL    HW1 9455   0.577   4.276  10.081
 2973SOL    HW2 9456   0.621   4.283  10.226
 2974SOL     OW 9457   1.565   4.331   9.798
 2974SOL    HW1 9458   1.545   4.397   9.864
 2974SOL    HW2 9459   1.623   4.375   9.736
 2975SOL     OW 9460   0.502   0.006  11.011
 2975SOL    HW1 9461   0.486   0.057  10.932
 2975SOL    HW2 9462   0.505   4.415  10.980
 2976SOL     OW 9463   1.206   4.250   9.568
 2976SOL    HW1 9464   1.217   4.171   9.621
 2976SOL    HW2 9465   1.159   4.311   9.625
 2977SOL     OW 9466   0.296   3.918  10.554
 2977SOL    HW1 9467   0.259   3.947  10.637
 2977SOL    HW2 9468   0.282   3.824  10.553
 2978SOL     OW 9469   0.737   4.359  10.343
 2978SOL    HW1 9470   0.811   4.321  10.296
 2978SOL    HW2 9471   0.751   4.453  10.339
 2979SOL     OW 9472   0.318   3.791   9.927
 2979SOL    HW1 9473   0.290   3.879   9.951
 2979SOL    HW2 9474   0.317   3.742  10.009
 2980SOL     OW 9475   1.616   4.090   9.675
 2980SOL    HW1 9476   1.649   4.029   9.740
 2980SOL    HW2 9477   1.588   4.167   9.725
 2981SOL     OW 9478   1.521   3.999   9.436
 2981SOL    HW1 9479   1.460   3.931   9.462
 2981SOL    HW2 9480   1.559   4.031   9.518
 2982SOL     OW 9481   0.321   0.012  10.213
 2982SOL    HW1 9482   0.399   0.066  10.225
 2982SOL    HW2 9483   0.340   4.433  10.264
 2983SOL     OW 9484   0.329   4.236  10.306
 2983SOL    HW1 9485   0.286   4.153  10.286
 2983SOL    HW2 9486   0.407   4.236  10.250
 2984SOL     OW 9487   1.157   3.926  10.783
 2984SOL    HW1 9488   1.165   3.986  10.858
 2984SOL    HW2 9489   1.200   3.973  10.712
 2985SOL     OW 9490   0.015   4.269  10.397
 2985SOL    HW1 9491   0.107   4.275  10.371
 2985SOL    HW2 9492   0.018   4.229  10.484
 2986SOL     OW 9493   1.340   0.210  10.975
 2986SOL    HW1 9494   1.405   0.253  11.031
 2986SOL    HW2 9495   1.393   0.167  10.907
 2987SOL     OW 9496   0.821   4.276   9.670
 2987SOL    HW1 9497   0.828   4.205   9.606
 2987SOL    HW2 9498   0.733   4.311   9.658
 2988SOL     OW 9499   1.632   4.311  10.492
 2988SOL    HW1 9500   1.632   4.253  10.568
 2988SOL    HW2 9501   1.722   4.306  10.459
 2989SOL     OW 9502   0.682   4.186  10.557
 2989SOL    HW1 9503   0.638   4.108  10.525
 2989SOL    HW2 9504   0.686   4.244  10.481
 2990SOL     OW 9505   0.480   4.226   9.496
 2990SOL    HW1 9506   0.500   4.307   9.542
 2990SOL    HW2 9507   0.388   4.235   9.471
 2991SOL     OW 9508   1.726   3.876   9.820
 2991SOL    HW1 9509   1.795   3.861   9.756
 2991SOL    HW2 9510   1.707   3.790   9.857
 2992SOL     OW 9511   1.279   0.134   9.987
 2992SOL    HW1 9512   1.338   0.062  10.012
 2992SOL    HW2 9513   1.328   0.181   9.920
 2993SOL     OW 9514   1.840   3.894  10.276
 2993SOL    HW1 9515   1.869   3.806  10.251
 2993SOL    HW2 9516   1.754   3.904  10.236
 2994SOL     OW 9517   0.267   4.039  10.028
 2994SOL    HW1 9518   0.190   4.090  10.002
 2994SOL    HW2 9519   0.255   4.023  10.122
 2995SOL     OW 9520   0.899   0.089   9.511
 2995SOL    HW1 9521   0.981   0.125   9.475
 2995SOL    HW2 9522   0.922   0.061   9.600
 2996SOL     OW 9523   1.066   0.289  10.062
 2996SOL    HW1 9524   1.000   0.290   9.992
 2996SOL    HW2 9525   1.132   0.227  10.031
 2997SOL     OW 9526   1.023   3.965  10.272
 2997SOL    HW1 9527   1.019   3.916  10.190
 2997SOL    HW2 9528   1.018   3.898  10.341
 2998SOL     OW 9529   1.720   4.114  10.695
 2998SOL    HW1 9530   1.792   4.176  10.699
 2998SOL    HW2 9531   1.750   4.045  10.636
 2999SOL     OW 9532   0.678   3.919  10.800
 2999SOL    HW1 9533   0.760   3.896  10.757
 2999SOL    HW2 9534   0.704   3.958  10.883
 3000SOL     OW 9535   0.065   4.045   9.357
 3000SOL    HW1 9536   4.476   4.073   9.337
 3000SOL    HW2 9537   0.115   4.127   9.363
 3001SOL     OW 9538   0.087   3.898   9.611
 3001SOL    HW1 9539   0.074   3.964   9.542
 3001SOL    HW2 9540   0.162   3.847   9.581
 3002SOL     OW 9541   0.725   4.289  11.016
 3002SOL    HW1 9542   0.776   4.337  11.081
 3002SOL    HW2 9543   0.755   4.198  11.025
 3003SOL     OW 9544   1.217   4.041   9.762
 3003SOL    HW1 9545   1.278   3.968   9.757
 3003SOL    HW2 9546   1.245   4.090   9.840
 3004SOL     OW 9547   1.749   4.055  10.967
 3004SOL    HW1 9548   1.727   4.084  10.879
 3004SOL    HW2 9549   1.668   4.062  11.017
 3005SOL     OW 9550   1.114   0.222   9.410
 3005SOL    HW1 9551   1.111   0.266   9.325
 3005SOL    HW2 9552   1.204   0.188   9.416
 3006SOL     OW 9553   1.805   3.906  10.547
 3006SOL    HW1 9554   1.816   3.811  10.559
 3006SOL    HW2 9555   1.818   3.920  10.453
 3007SOL     OW 9556   0.445   4.160   9.839
 3007SOL    HW1 9557   0.468   4.083   9.786
 3007SOL    HW2 9558   0.391   4.125   9.910
 3008SOL     OW 9559   0.310   4.247  10.570
 3008SOL    HW1 9560   0.369   4.185  10.612
 3008SOL    HW2 9561   0.327   4.236  10.476
 3009SOL     OW 9562   1.430   3.950  10.427
 3009SOL    HW1 9563   1.454   3.868  10.471
 3009SOL    HW2 9564   1.381   3.999  10.493
 3010SOL     OW 9565   1.008   3.741  10.447
 3010SOL    HW1 9566   0.955   3.676  10.401
 3010SOL    HW2 9567   1.096   3.702  10.448
 3011SOL     OW 9568   1.356   3.776   9.479
 3011SOL    HW1 9569   1.389   3.706   9.422
 3011SOL    HW2 9570   1.267   3.749   9.501
 3012SOL     OW 9571   1.297   4.173   9.988
 3012SOL    HW1 9572   1.272   4.265  10.001
 3012SOL    HW2 9573   1.296   4.136  10.076
 3013SOL     OW 9574   1.584   3.920  10.191
 3013SOL    HW1 9575   1.528   3.945  10.264
 3013SOL    HW2 9576   1.585   3.997  10.134
 3014SOL     OW 9577   2.070   0.607   0.107
 3014SOL    HW1 9578   1.990   0.618   0.158
 3014SOL    HW2 9579   2.054   0.655   0.026
 3015SOL     OW 9580   2.066   0.303   0.991
 3015SOL    HW1 9581   2.098   0.270   1.075
 3015SOL    HW2 9582   1.985   0.255   0.976
 3016SOL     OW 9583   1.866   0.391   0.634
 3016SOL    HW1 9584   1.780   0.409   0.673
 3016SOL    HW2 9585   1.851   0.319   0.574
 3017SOL     OW 9586   2.431   1.295   1.181
 3017SOL    HW1 9587   2.343   1.298   1.143
 3017SOL    HW2 9588   2.446   1.384   1.214
 3018SOL     OW 9589   3.431   1.514   0.708
 3018SOL    HW1 9590   3.388   1.490   0.791
 3018SOL    HW2 9591   3.361   1.516   0.644
 3019SOL     OW 9592   3.003   0.697   0.692
 3019SOL    HW1 9593   3.046   0.782   0.686
 3019SOL    HW2 9594   2.950   0.703   0.771
 3020SOL     OW 9595   3.644   0.599   0.208
 3020SOL    HW1 9596   3.578   0.618   0.141
 3020SOL    HW2 9597   3.606   0.528   0.260
 3021SOL     OW 9598   2.610   1.139   1.046
 3021SOL    HW1 9599   2.544   1.176   1.104
 3021SOL    HW2 9600   2.649   1.214   1.002
 3022SOL     OW 9601   2.734   0.765   1.824
 3022SOL    HW1 9602   2.720   0.835   1.888
 3022SOL    HW2 9603   2.757   0.811   1.743
 3023SOL     OW 9604   2.548   0.997   0.645
 3023SOL    HW1 9605   2.614   0.988   0.713
 3023SOL    HW2 9606   2.479   1.051   0.684
 3024SOL     OW 9607   2.575   1.149   1.817
 3024SOL    HW1 9608   2.623   1.227   1.847
 3024SOL    HW2 9609   2.495   1.184   1.779
 3025SOL     OW 9610   2.193   1.417   1.069
 3025SOL    HW1 9611   2.118   1.377   1.024
 3025SOL    HW2 9612   2.239   1.465   1.001
 3026SOL     OW 9613   3.321   1.502   1.360
 3026SOL    HW1 9614   3.375   1.580   1.370
 3026SOL    HW2 9615   3.253   1.511   1.427
 3027SOL     OW 9616   2.307   0.392   1.481
 3027SOL    HW1 9617   2.389   0.342   1.487
 3027SOL    HW2 9618   2.238   0.328   1.497
 3028SOL     OW 9619   3.466   0.441   0.739
 3028SOL    HW1 9620   3.384   0.456   0.693
 3028SOL    HW2 9621   3.477   0.519   0.794
 3029SOL     OW 9622   2.078   1.714   0.470
 3029SOL    HW1 9623   2.100   1.787   0.528
 3029SOL    HW2 9624   2.155   1.704   0.413
 3030SOL     OW 9625   3.000   1.342   1.694
 3030SOL    HW1 9626   3.040   1.336   1.781
 3030SOL    HW2 9627   2.947   1.263   1.687
 3031SOL     OW 9628   2.090   1.443   0.535
 3031SOL    HW1 9629   2.069   1.536   0.535
 3031SOL    HW2 9630   2.031   1.405   0.600
 3032SOL     OW 9631   2.129   1.091   0.893
 3032SOL    HW1 9632   2.123   1.003   0.930
 3032SOL    HW2 9633   2.070   1.144   0.946
 3033SOL     OW 9634   2.462   1.791   1.416
 3033SOL    HW1 9635   2.384   1.771   1.468
 3033SOL    HW2 9636   2.492   1.875   1.451
 3034SOL     OW 9637   2.440   0.991   0.149
 3034SOL    HW1 9638   2.490   1.036   0.081
 3034SOL    HW2 9639   2.480   1.019   0.232
 3035SOL     OW 9640   3.438   0.119   1.464
 3035SOL    HW1 9641   3.476   0.185   1.407
 3035SOL    HW2 9642   3.428   0.163   1.549
 3036SOL     OW 9643   1.981   0.655   0.560
 3036SOL    HW1 9644   1.949   0.568   0.583
 3036SOL    HW2 9645   1.972   0.705   0.641
 3037SOL     OW 9646   3.706   1.756   0.328
 3037SOL    HW1 9647   3.774   1.728   0.390
 3037SOL    HW2 9648   3.726   1.848   0.311
 3038SOL     OW 9649   1.916   1.597   0.117
 3038SOL    HW1 9650   1.887   1.509   0.143
 3038SOL    HW2 9651   1.886   1.654   0.187
 3039SOL     OW 9652   3.551   0.920   0.646
 3039SOL    HW1 9653   3.635   0.878   0.625
 3039SOL    HW2 9654   3.530   0.972   0.569
 3040SOL     OW 9655   3.511   1.101   0.432
 3040SOL    HW1 9656   3.594   1.109   0.384
 3040SOL    HW2 9657   3.518   1.166   0.502
 3041SOL     OW 9658   1.984   0.747   1.582
 3041SOL    HW1 9659   2.074   0.779   1.586
 3041SOL    HW2 9660   1.931   0.827   1.585
 3042SOL     OW 9661   2.481   1.388   0.734
 3042SOL    HW1 9662   2.436   1.305   0.743
 3042SOL    HW2 9663   2.463   1.415   0.644
 3043SOL     OW 9664   3.148   1.237   1.421
 3043SOL    HW1 9665   3.178   1.168   1.361
 3043SOL    HW2 9666   3.207   1.231   1.496
 3044SOL     OW 9667   2.684   0.014   0.558
 3044SOL    HW1 9668   2.723   0.090   0.516
 3044SOL    HW2 9669   2.589   0.029   0.551
 3045SOL     OW 9670   2.050   0.961   1.280
 3045SOL    HW1 9671   2.136   0.922   1.263
 3045SOL    HW2 9672   1.991   0.915   1.220
 3046SOL     OW 9673   3.370   1.010   0.208
 3046SOL    HW1 9674   3.307   0.949   0.246
 3046SOL    HW2 9675   3.424   1.037   0.282
 3047SOL     OW 9676   3.047   1.812   1.625
 3047SOL    HW1 9677   3.054   1.872   1.551
 3047SOL    HW2 9678   3.064   1.725   1.588
 3048SOL     OW 9679   2.178   0.251   1.778
 3048SOL    HW1 9680   2.242   0.314   1.812
 3048SOL    HW2 9681   2.104   0.257   1.838
 3049SOL     OW 9682   3.329   1.419   0.947
 3049SOL    HW1 9683   3.262   1.435   1.014
 3049SOL    HW2 9684   3.316   1.328   0.921
 3050SOL     OW 9685   3.515   1.752   0.578
 3050SOL    HW1 9686   3.498   1.719   0.490
 3050SOL    HW2 9687   3.496   1.677   0.635
 3051SOL     OW 9688   2.449   0.713   0.264
 3051SOL    HW1 9689   2.457   0.800   0.225
 3051SOL    HW2 9690   2.387   0.725   0.336
 3052SOL     OW 9691   3.153   0.373   0.933
 3052SOL    HW1 9692   3.062   0.343   0.922
 3052SOL    HW2 9693   3.192   0.309   0.993
 3053SOL     OW 9694   3.443   1.673   0.314
 3053SOL    HW1 9695   3.535   1.698   0.306
 3053SOL    HW2 9696   3.415   1.654   0.225
 3054SOL     OW 9697   2.657   0.621   1.452
 3054SOL    HW1 9698   2.630   0.593   1.539
 3054SOL    HW2 9699   2.624   0.554   1.393
 3055SOL     OW 9700   3.250   0.483   1.676
 3055SOL    HW1 9701   3.255   0.527   1.761
 3055SOL    HW2 9702   3.316   0.414   1.681
 3056SOL     OW 9703   2.813   0.886   1.586
 3056SOL    HW1 9704   2.867   0.817   1.549
 3056SOL    HW2 9705   2.764   0.921   1.512
 3057SOL     OW 9706   2.861   0.417   1.230
 3057SOL    HW1 9707   2.771   0.423   1.261
 3057SOL    HW2 9708   2.857   0.364   1.151
 3058SOL     OW 9709   2.913   0.702   0.426
 3058SOL    HW1 9710   2.934   0.693   0.519
 3058SOL    HW2 9711   2.829   0.657   0.416
 3059SOL     OW 9712   1.951   0.823   0.776
 3059SOL    HW1 9713   2.031   0.816   0.828
 3059SOL    HW2 9714   1.905   0.898   0.812
 3060SOL     OW 9715   1.982   1.818   1.569
 3060SOL    HW1 9716   1.975   1.814   1.664
 3060SOL    HW2 9717   1.950   1.906   1.547
 3061SOL     OW 9718   2.733   0.362   0.200
 3061SOL    HW1 9719   2.788   0.417   0.143
 3061SOL    HW2 9720   2.771   0.275   0.191
 3062SOL     OW 9721   3.563   0.570   1.829
 3062SOL    HW1 9722   3.529   0.645   1.780
 3062SOL    HW2 9723   3.598   0.511   1.763
 3063SOL     OW 9724   3.243   1.142   0.540
 3063SOL    HW1 9725   3.322   1.130   0.486
 3063SOL    HW2 9726   3.190   1.204   0.491
 3064SOL     OW 9727   2.398   0.209   0.902
 3064SOL    HW1 9728   2.419   0.227   0.993
 3064SOL    HW2 9729   2.394   0.296   0.861
 3065SOL     OW 9730   2.860   1.441   0.471
 3065SOL    HW1 9731   2.829   1.517   0.422
 3065SOL    HW2 9732   2.840   1.462   0.563
 3066SOL     OW 9733   2.220   1.798   0.874
 3066SOL    HW1 9734   2.247   1.706   0.875
 3066SOL    HW2 9735   2.298   1.846   0.902
 3067SOL     OW 9736   3.662   1.054   0.873
 3067SOL    HW1 9737   3.609   1.035   0.795
 3067SOL    HW2 9738   3.598   1.060   0.944
 3068SOL     OW 9739   3.089   1.540   1.513
 3068SOL    HW1 9740   3.077   1.468   1.575
 3068SOL    HW2 9741   3.022   1.524   1.446
 3069SOL     OW 9742   2.174   0.962   0.280
 3069SOL    HW1 9743   2.252   0.984   0.229
 3069SOL    HW2 9744   2.150   0.874   0.250
 3070SOL     OW 9745   3.344   0.746   0.720
 3070SOL    HW1 9746   3.338   0.707   0.807
 3070SOL    HW2 9747   3.421   0.803   0.724
 3071SOL     OW 9748   2.332   1.266   1.737
 3071SOL    HW1 9749   2.305   1.271   1.646
 3071SOL    HW2 9750   2.249   1.263   1.786
 3072SOL     OW 9751   2.970   1.781   0.226
 3072SOL    HW1 9752   2.908   1.731   0.279
 3072SOL    HW2 9753   3.013   1.716   0.171
 3073SOL     OW 9754   2.049   0.268   1.518
 3073SOL    HW1 9755   1.983   0.338   1.510
 3073SOL    HW2 9756   2.073   0.269   1.610
 3074SOL     OW 9757   3.489   1.373   0.090
 3074SOL    HW1 9758   3.447   1.458   0.079
 3074SOL    HW2 9759   3.425   1.309   0.060
 3075SOL     OW 9760   2.323   1.730   0.329
 3075SOL    HW1 9761   2.367   1.794   0.385
 3075SOL    HW2 9762   2.392   1.699   0.271
 3076SOL     OW 9763   3.289   0.150   0.426
 3076SOL    HW1 9764   3.273   0.109   0.341
 3076SOL    HW2 9765   3.383   0.138   0.440
 3077SOL     OW 9766   2.120   1.790   1.231
 3077SOL    HW1 9767   2.167   1.717   1.272
 3077SOL    HW2 9768   2.105   1.760   1.141
 3078SOL     OW 9769   2.794   1.699   0.899
 3078SOL    HW1 9770   2.873   1.651   0.922
 3078SOL    HW2 9771   2.756   1.650   0.826
 3079SOL     OW 9772   2.256   0.691   0.469
 3079SOL    HW1 9773   2.277   0.599   0.487
 3079SOL    HW2 9774   2.164   0.699   0.493
 3080SOL     OW 9775   3.385   0.234   1.723
 3080SOL    HW1 9776   3.385   0.254   1.816
 3080SOL    HW2 9777   3.305   0.184   1.710
 3081SOL     OW 9778   2.461   0.088   0.127
 3081SOL    HW1 9779   2.555   0.075   0.134
 3081SOL    HW2 9780   2.445   0.103   0.034
 3082SOL     OW 9781   2.630   0.271   1.756
 3082SOL    HW1 9782   2.700   0.205   1.753
 3082SOL    HW2 9783   2.592   0.262   1.844
 3083SOL     OW 9784   2.739   1.524   1.194
 3083SOL    HW1 9785   2.722   1.485   1.108
 3083SOL    HW2 9786   2.808   1.469   1.232
 3084SOL     OW 9787   3.201   0.590   1.428
 3084SOL    HW1 9788   3.229   0.562   1.515
 3084SOL    HW2 9789   3.236   0.679   1.419
 3085SOL     OW 9790   2.680   1.391   0.945
 3085SOL    HW1 9791   2.765   1.379   0.903
 3085SOL    HW2 9792   2.617   1.393   0.873
 3086SOL     OW 9793   2.790   0.524   0.896
 3086SOL    HW1 9794   2.771   0.524   0.802
 3086SOL    HW2 9795   2.822   0.436   0.914
 3087SOL     OW 9796   2.420   0.081   0.529
 3087SOL    HW1 9797   2.334   0.051   0.557
 3087SOL    HW2 9798   2.402   0.139   0.455
 3088SOL     OW 9799   3.284   1.198   0.026
 3088SOL    HW1 9800   3.313   1.128   0.084
 3088SOL    HW2 9801   3.201   1.228   0.063
 3089SOL     OW 9802   2.144   0.052   0.203
 3089SOL    HW1 9803   2.219   0.095   0.161
 3089SOL    HW2 9804   2.183   0.001   0.274
 3090SOL     OW 9805   2.820   0.225   0.445
 3090SOL    HW1 9806   2.769   0.291   0.398
 3090SOL    HW2 9807   2.909   0.260   0.448
 3091SOL     OW 9808   2.942   0.685   1.458
 3091SOL    HW1 9809   2.873   0.619   1.457
 3091SOL    HW2 9810   3.023   0.635   1.447
 3092SOL     OW 9811   3.080   1.572   0.795
 3092SOL    HW1 9812   3.097   1.637   0.726
 3092SOL    HW2 9813   3.151   1.587   0.858
 3093SOL     OW 9814   2.337   1.153   0.732
 3093SOL    HW1 9815   2.271   1.132   0.797
 3093SOL    HW2 9816   2.292   1.144   0.648
 3094SOL     OW 9817   3.127   1.793   0.609
 3094SOL    HW1 9818   3.176   1.855   0.555
 3094SOL    HW2 9819   3.061   1.846   0.653
 3095SOL     OW 9820   2.882   0.525   0.042
 3095SOL    HW1 9821   2.844   0.611   0.023
 3095SOL    HW2 9822   2.955   0.543   0.101
 3096SOL     OW 9823   1.949   0.548   1.397
 3096SOL    HW1 9824   2.040   0.553   1.367
 3096SOL    HW2 9825   1.941   0.620   1.459
 3097SOL     OW 9826   2.421   0.249   1.171
 3097SOL    HW1 9827   2.445   0.167   1.215
 3097SOL    HW2 9828   2.328   0.261   1.192
 3098SOL     OW 9829   2.721   0.514   0.632
 3098SOL    HW1 9830   2.688   0.543   0.547
 3098SOL    HW2 9831   2.677   0.430   0.647
 3099SOL     OW 9832   2.805   0.019   0.802
 3099SOL    HW1 9833   2.764   0.018   0.716
 3099SOL    HW2 9834   2.833   4.429   0.817
 3100SOL     OW 9835   3.301   1.161   0.856
 3100SOL    HW1 9836   3.231   1.095   0.856
 3100SOL    HW2 9837   3.325   1.169   0.764
 3101SOL     OW 9838   3.326   0.609   0.966
 3101SOL    HW1 9839   3.269   0.532   0.967
 3101SOL    HW2 9840   3.381   0.599   1.044
 3102SOL     OW 9841   3.711   0.809   0.376
 3102SOL    HW1 9842   3.762   0.760   0.441
 3102SOL    HW2 9843   3.684   0.743   0.312
 3103SOL     OW 9844   2.356   1.425   0.172
 3103SOL    HW1 9845   2.279   1.398   0.223
 3103SOL    HW2 9846   2.353   1.369   0.095
 3104SOL     OW 9847   3.539   1.264   0.643
 3104SOL    HW1 9848   3.633   1.264   0.658
 3104SOL    HW2 9849   3.511   1.353   0.664
 3105SOL     OW 9850   3.254   0.568   0.080
 3105SOL    HW1 9851   3.190   0.554   0.149
 3105SOL    HW2 9852   3.309   0.489   0.082
 3106SOL     OW 9853   2.379   0.260   0.324
 3106SOL    HW1 9854   2.413   0.199   0.258
 3106SOL    HW2 9855   2.360   0.340   0.275
 3107SOL     OW 9856   3.611   1.242   1.564
 3107SOL    HW1 9857   3.698   1.203   1.559
 3107SOL    HW2 9858   3.627   1.332   1.594
 3108SOL     OW 9859   2.917   1.355   1.333
 3108SOL    HW1 9860   2.841   1.323   1.383
 3108SOL    HW2 9861   2.992   1.312   1.374
 3109SOL     OW 9862   3.471   1.628   1.658
 3109SOL    HW1 9863   3.463   1.661   1.569
 3109SOL    HW2 9864   3.553   1.577   1.657
 3110SOL     OW 9865   2.998   1.211   1.103
 3110SOL    HW1 9866   2.935   1.246   1.167
 3110SOL    HW2 9867   2.966   1.243   1.018
 3111SOL     OW 9868   3.484   1.096   1.077
 3111SOL    HW1 9869   3.478   1.159   1.149
 3111SOL    HW2 9870   3.408   1.114   1.022
 3112SOL     OW 9871   2.758   0.138   1.383
 3112SOL    HW1 9872   2.782   0.091   1.303
 3112SOL    HW2 9873   2.842   0.159   1.424
 3113SOL     OW 9874   2.846   1.116   1.723
 3113SOL    HW1 9875   2.755   1.132   1.747
 3113SOL    HW2 9876   2.843   1.037   1.669
 3114SOL     OW 9877   2.575   1.060   0.375
 3114SOL    HW1 9878   2.561   1.040   0.468
 3114SOL    HW2 9879   2.650   1.005   0.350
 3115SOL     OW 9880   2.284   0.820   1.251
 3115SOL    HW1 9881   2.352   0.829   1.318
 3115SOL    HW2 9882   2.249   0.731   1.264
 3116SOL     OW 9883   3.130   0.374   1.276
 3116SOL    HW1 9884   3.162   0.453   1.319
 3116SOL    HW2 9885   3.040   0.395   1.251
 3117SOL     OW 9886   1.932   1.570   1.351
 3117SOL    HW1 9887   1.903   1.653   1.315
 3117SOL    HW2 9888   2.027   1.577   1.353
 3118SOL     OW 9889   2.199   1.128   0.498
 3118SOL    HW1 9890   2.198   1.202   0.436
 3118SOL    HW2 9891   2.195   1.050   0.442
 3119SOL     OW 9892   2.414   0.521   0.856
 3119SOL    HW1 9893   2.425   0.582   0.783
 3119SOL    HW2 9894   2.480   0.549   0.920
 3120SOL     OW 9895   3.108   1.346   0.399
 3120SOL    HW1 9896   3.163   1.419   0.427
 3120SOL    HW2 9897   3.021   1.369   0.429
 3121SOL     OW 9898   3.150   1.460   1.148
 3121SOL    HW1 9899   3.205   1.464   1.226
 3121SOL    HW2 9900   3.095   1.382   1.160
 3122SOL     OW 9901   3.443   0.627   0.478
 3122SOL    HW1 9902   3.392   0.661   0.552
 3122SOL    HW2 9903   3.473   0.706   0.432
 3123SOL     OW 9904   2.209   1.529   1.313
 3123SOL    HW1 9905   2.195   1.484   1.229
 3123SOL    HW2 9906   2.304   1.539   1.318
 3124SOL     OW 9907   2.282   0.742   1.605
 3124SOL    HW1 9908   2.340   0.788   1.546
 3124SOL    HW2 9909   2.328   0.660   1.624
 3125SOL     OW 9910   3.469   0.780   1.685
 3125SOL    HW1 9911   3.384   0.822   1.679
 3125SOL    HW2 9912   3.522   0.822   1.617
 3126SOL     OW 9913   2.857   0.090   1.712
 3126SOL    HW1 9914   2.904   0.165   1.675
 3126SOL    HW2 9915   2.879   0.018   1.654
 3127SOL     OW 9916   2.363   0.040   1.764
 3127SOL    HW1 9917   2.377   0.015   1.673
 3127SOL    HW2 9918   2.296   0.108   1.760
 3128SOL     OW 9919   2.445   0.875   1.030
 3128SOL    HW1 9920   2.479   0.965   1.034
 3128SOL    HW2 9921   2.390   0.867   1.108
 3129SOL     OW 9922   3.210   0.858   1.022
 3129SOL    HW1 9923   3.124   0.843   0.984
 3129SOL    HW2 9924   3.256   0.775   1.012
 3130SOL     OW 9925   3.055   0.532   0.262
 3130SOL    HW1 9926   3.066   0.455   0.318
 3130SOL    HW2 9927   3.013   0.597   0.318
 3131SOL     OW 9928   2.151   0.230   1.244
 3131SOL    HW1 9929   2.102   0.247   1.325
 3131SOL    HW2 9930   2.192   0.145   1.258
 3132SOL     OW 9931   1.908   1.309   1.274
 3132SOL    HW1 9932   1.941   1.257   1.347
 3132SOL    HW2 9933   1.913   1.400   1.305
 3133SOL     OW 9934   2.581   0.629   1.050
 3133SOL    HW1 9935   2.659   0.614   0.996
 3133SOL    HW2 9936   2.554   0.718   1.030
 3134SOL     OW 9937   3.600   0.959   1.857
 3134SOL    HW1 9938   3.556   0.893   1.804
 3134SOL    HW2 9939   3.540   0.977   1.929
 3135SOL     OW 9940   2.161   0.050   0.651
 3135SOL    HW1 9941   2.146   0.144   0.652
 3135SOL    HW2 9942   2.171   0.027   0.744
 3136SOL     OW 9943   3.491   0.388   0.350
 3136SOL    HW1 9944   3.510   0.318   0.413
 3136SOL    HW2 9945   3.463   0.462   0.404
 3137SOL     OW 9946   2.895   0.765   0.960
 3137SOL    HW1 9947   2.885   0.780   1.054
 3137SOL    HW2 9948   2.865   0.675   0.947
 3138SOL     OW 9949   2.844   1.567   1.721
 3138SOL    HW1 9950   2.828   1.610   1.637
 3138SOL    HW2 9951   2.887   1.484   1.698
 3139SOL     OW 9952   3.714   1.501   1.604
 3139SOL    HW1 9953   3.735   1.529   1.515
 3139SOL    HW2 9954   3.795   1.517   1.653
 3140SOL     OW 9955   2.215   0.917   1.809
 3140SOL    HW1 9956   2.296   0.936   1.857
 3140SOL    HW2 9957   2.241   0.853   1.743
 3141SOL     OW 9958   3.382   0.302   0.104
 3141SOL    HW1 9959   3.334   0.223   0.128
 3141SOL    HW2 9960   3.428   0.327   0.184
 3142SOL     OW 9961   3.146   0.815   0.033
 3142SOL    HW1 9962   3.191   0.731   0.041
 3142SOL    HW2 9963   3.185   0.855  11.055
 3143SOL     OW 9964   2.929   1.338   0.856
 3143SOL    HW1 9965   2.934   1.266   0.793
 3143SOL    HW2 9966   2.988   1.404   0.820
 3144SOL     OW 9967   2.170   0.810   0.946
 3144SOL    HW1 9968   2.263   0.832   0.940
 3144SOL    HW2 9969   2.169   0.720   0.978
 3145SOL     OW 9970   2.197   0.536   1.014
 3145SOL    HW1 9971   2.153   0.453   0.997
 3145SOL    HW2 9972   2.273   0.535   0.956
 3146SOL     OW 9973   3.001   0.369   1.703
 3146SOL    HW1 9974   2.947   0.431   1.753
 3146SOL    HW2 9975   3.083   0.416   1.689
 3147SOL     OW 9976   3.012   0.216   1.474
 3147SOL    HW1 9977   3.010   0.280   1.546
 3147SOL    HW2 9978   3.058   0.261   1.404
 3148SOL     OW 9979   1.872   1.326   0.194
 3148SOL    HW1 9980   1.786   1.339   0.155
 3148SOL    HW2 9981   1.871   1.236   0.226
 3149SOL     OW 9982   1.950   1.787   0.939
 3149SOL    HW1 9983   1.918   1.709   0.894
 3149SOL    HW2 9984   2.042   1.795   0.912
 3150SOL     OW 9985   2.359   1.567   0.904
 3150SOL    HW1 9986   2.427   1.631   0.927
 3150SOL    HW2 9987   2.403   1.505   0.846
 3151SOL     OW 9988   2.836   0.791   1.225
 3151SOL    HW1 9989   2.896   0.771   1.297
 3151SOL    HW2 9990   2.755   0.747   1.248
 3152SOL     OW 9991   1.894   0.547   1.120
 3152SOL    HW1 9992   1.970   0.528   1.064
 3152SOL    HW2 9993   1.929   0.548   1.209
 3153SOL     OW 9994   2.046   0.524   1.725
 3153SOL    HW1 9995   2.125   0.507   1.675
 3153SOL    HW2 9996   2.006   0.600   1.683
 3154SOL     OW 9997   3.243   0.934   1.657
 3154SOL    HW1 9998   3.263   1.027   1.653
 3154SOL    HW2 9999   3.238   0.907   1.565
 3155SOL     OW10000   2.673   0.578   0.363
 3155SOL    HW110001   2.680   0.503   0.304
 3155SOL    HW210002   2.598   0.627   0.330
 3156SOL     OW10003   3.499   0.602   1.180
 3156SOL    HW110004   3.489   0.543   1.256
 3156SOL    HW210005   3.587   0.584   1.148
 3157SOL     OW10006   2.106   1.545   1.728
 3157SOL    HW110007   2.082   1.608   1.796
 3157SOL    HW210008   2.108   1.460   1.773
 3158SOL     OW10009   2.576   0.456   1.258
 3158SOL    HW110010   2.523   0.381   1.231
 3158SOL    HW210011   2.570   0.517   1.185
 3159SOL     OW10012   2.784   1.678   1.472
 3159SOL    HW110013   2.761   1.639   1.387
 3159SOL    HW210014   2.783   1.772   1.456
 3160SOL     OW10015   2.316   0.482   0.171
 3160SOL    HW110016   2.376   0.553   0.194
 3160SOL    HW210017   2.232   0.525   0.159
 3161SOL     OW10018   2.004   1.143   1.475
 3161SOL    HW110019   2.006   1.094   1.558
 3161SOL    HW210020   2.021   1.076   1.408
 3162SOL     OW10021   3.184   1.044   1.219
 3162SOL    HW110022   3.204   0.980   1.151
 3162SOL    HW210023   3.117   1.100   1.180
 3163SOL     OW10024   3.171   0.850   0.311
 3163SOL    HW110025   3.096   0.817   0.360
 3163SOL    HW210026   3.148   0.834   0.219
 3164SOL     OW10027   3.642   1.737   1.157
 3164SOL    HW110028   3.701   1.763   1.086
 3164SOL    HW210029   3.614   1.649   1.132
 3165SOL     OW10030   3.102   1.732   1.106
 3165SOL    HW110031   3.185   1.756   1.065
 3165SOL    HW210032   3.112   1.639   1.127
 3166SOL     OW10033   1.952   1.263   1.012
 3166SOL    HW110034   1.934   1.279   1.104
 3166SOL    HW210035   1.876   1.213   0.981
 3167SOL     OW10036   2.544   1.667   1.736
 3167SOL    HW110037   2.488   1.745   1.732
 3167SOL    HW210038   2.614   1.684   1.672
 3168SOL     OW10039   2.740   0.066   0.131
 3168SOL    HW110040   2.826   0.094   0.100
 3168SOL    HW210041   2.758   0.002   0.199
 3169SOL     OW10042   3.581   0.133   0.485
 3169SOL    HW110043   3.650   0.146   0.420
 3169SOL    HW210044   3.611   0.061   0.540
 3170SOL     OW10045   3.254   1.568   0.490
 3170SOL    HW110046   3.314   1.600   0.423
 3170SOL    HW210047   3.205   1.645   0.519
 3171SOL     OW10048   2.000   1.801   1.845
 3171SOL    HW110049   1.951   1.729   1.885
 3171SOL    HW210050   2.031   1.854   1.920
 3172SOL     OW10051   3.142   0.931   0.674
 3172SOL    HW110052   3.215   0.869   0.681
 3172SOL    HW210053   3.175   1.002   0.620
 3173SOL     OW10054   2.668   1.276   1.424
 3173SOL    HW110055   2.640   1.317   1.506
 3173SOL    HW210056   2.596   1.294   1.363
 3174SOL     OW10057   2.532   1.627   0.171
 3174SOL    HW110058   2.564   1.628   0.080
 3174SOL    HW210059   2.476   1.550   0.176
 3175SOL     OW10060   3.482   1.727   1.392
 3175SOL    HW110061   3.535   1.733   1.312
 3175SOL    HW210062   3.468   1.819   1.417
 3176SOL     OW10063   3.703   0.152   0.965
 3176SOL    HW110064   3.734   0.072   0.923
 3176SOL    HW210065   3.616   0.167   0.928
 3177SOL     OW10066   2.121   0.318   0.713
 3177SOL    HW110067   2.035   0.353   0.688
 3177SOL    HW210068   2.118   0.313   0.808
 3178SOL     OW10069   3.085   1.599   0.057
 3178SOL    HW110070   3.074   1.506   0.076
 3178SOL    HW210071   3.022   1.618  11.087
 3179SOL     OW10072   2.685   1.006   1.376
 3179SOL    HW110073   2.729   0.998   1.291
 3179SOL    HW210074   2.683   1.101   1.393
 3180SOL     OW10075   2.776   0.905   0.279
 3180SOL    HW110076   2.841   0.946   0.222
 3180SOL    HW210077   2.826   0.844   0.333
 3181SOL     OW10078   3.359   1.622   0.050
 3181SOL    HW110079   3.264   1.614   0.050
 3181SOL    HW210080   3.382   1.636  11.059
 3182SOL     OW10081   2.230   1.304   1.492
 3182SOL    HW110082   2.216   1.381   1.437
 3182SOL    HW210083   2.153   1.250   1.477
 3183SOL     OW10084   3.470   1.284   1.280
 3183SOL    HW110085   3.528   1.268   1.354
 3183SOL    HW210086   3.410   1.351   1.311
 3184SOL     OW10087   2.921   1.110   0.709
 3184SOL    HW110088   2.849   1.059   0.747
 3184SOL    HW210089   2.987   1.044   0.685
 3185SOL     OW10090   2.870   0.245   1.009
 3185SOL    HW110091   2.871   0.225   0.916
 3185SOL    HW210092   2.858   0.161   1.052
 3186SOL     OW10093   2.467   1.490   0.480
 3186SOL    HW110094   2.513   1.437   0.414
 3186SOL    HW210095   2.392   1.526   0.434
 3187SOL     OW10096   3.587   0.395   1.375
 3187SOL    HW110097   3.661   0.455   1.375
 3187SOL    HW210098   3.614   0.323   1.318
 3188SOL     OW10099   2.131   1.334   0.296
 3188SOL    HW110100   2.045   1.335   0.254
 3188SOL    HW210101   2.117   1.376   0.380
 3189SOL     OW10102   1.976   1.030   1.724
 3189SOL    HW110103   1.900   1.003   1.775
 3189SOL    HW210104   2.050   0.988   1.768
 3190SOL     OW10105   2.518   0.206   1.504
 3190SOL    HW110106   2.597   0.182   1.455
 3190SOL    HW210107   2.551   0.231   1.591
 3191SOL     OW10108   1.938   0.333   0.057
 3191SOL    HW110109   1.868   0.314  11.094
 3191SOL    HW210110   1.951   0.427   0.051
 3192SOL     OW10111   3.288   0.858   1.397
 3192SOL    HW110112   3.238   0.919   1.342
 3192SOL    HW210113   3.376   0.860   1.361
 3193SOL     OW10114   1.925   0.189   0.315
 3193SOL    HW110115   1.919   0.250   0.241
 3193SOL    HW210116   1.997   0.130   0.291
 3194SOL     OW10117   3.049   1.335   0.123
 3194SOL    HW110118   2.955   1.322   0.113
 3194SOL    HW210119   3.065   1.326   0.217
 3195SOL     OW10120   2.482   0.831   1.435
 3195SOL    HW110121   2.539   0.906   1.420
 3195SOL    HW210122   2.543   0.757   1.444
 3196SOL     OW10123   3.345   1.784   0.982
 3196SOL    HW110124   3.368   1.848   0.915
 3196SOL    HW210125   3.429   1.755   1.019
 3197SOL     OW10126   2.578   0.560   1.703
 3197SOL    HW110127   2.621   0.621   1.762
 3197SOL    HW210128   2.602   0.473   1.737
 3198SOL     OW10129   3.335   1.195   1.629
 3198SOL    HW110130   3.323   1.210   1.723
 3198SOL    HW210131   3.428   1.214   1.614
 3199SOL     OW10132   2.240   1.732   1.567
 3199SOL    HW110133   2.154   1.768   1.545
 3199SOL    HW210134   2.220   1.648   1.609
 3200SOL     OW10135   3.527   0.880   1.255
 3200SOL    HW110136   3.522   0.794   1.212
 3200SOL    HW210137   3.517   0.943   1.185
 3201SOL     OW10138   3.080   0.331   0.446
 3201SOL    HW110139   3.150   0.268   0.432
 3201SOL    HW210140   3.106   0.378   0.526
 3202SOL     OW10141   2.442   0.734   0.676
 3202SOL    HW110142   2.486   0.818   0.662
 3202SOL    HW210143   2.379   0.728   0.604
 3203SOL     OW10144   3.618   0.373   1.644
 3203SOL    HW110145   3.604   0.386   1.550
 3203SOL    HW210146   3.542   0.322   1.673
 3204SOL     OW10147   3.612   0.933   1.511
 3204SOL    HW110148   3.600   1.027   1.524
 3204SOL    HW210149   3.593   0.919   1.418
 3205SOL     OW10150   2.776   1.354   0.080
 3205SOL    HW110151   2.708   1.348   0.148
 3205SOL    HW210152   2.752   1.431   0.029
 3206SOL     OW10153   2.517   1.807   0.945
 3206SOL    HW110154   2.521   1.887   0.998
 3206SOL    HW210155   2.609   1.780   0.934
 3207SOL     OW10156   2.731   0.970   0.854
 3207SOL    HW110157   2.782   0.898   0.891
 3207SOL    HW210158   2.693   1.014   0.929
 3208SOL     OW10159   2.939   0.988   0.081
 3208SOL    HW110160   2.911   1.013  11.093
 3208SOL    HW210161   3.015   0.932   0.066
 3209SOL     OW10162   3.711   1.555   0.843
 3209SOL    HW110163   3.633   1.542   0.790
 3209SOL    HW210164   3.706   1.487   0.911
 3210SOL     OW10165   2.088   1.297   1.854
 3210SOL    HW110166   2.024   1.234   1.821
 3210SOL    HW210167   2.064   1.309   1.946
 3211SOL     OW10168   1.951   1.230   0.667
 3211SOL    HW110169   1.956   1.184   0.750
 3211SOL    HW210170   2.021   1.192   0.614
 3212SOL     OW10171   2.546   1.406   1.629
 3212SOL    HW110172   2.467   1.363   1.663
 3212SOL    HW210173   2.543   1.494   1.667
 3213SOL     OW10174   3.663   0.176   1.238
 3213SOL    HW110175   3.660   0.082   1.256
 3213SOL    HW210176   3.683   0.181   1.144
 3214SOL     OW10177   2.298   0.431   0.531
 3214SOL    HW110178   2.320   0.362   0.469
 3214SOL    HW210179   2.243   0.389   0.596
 3215SOL     OW10180   3.558   1.487   1.093
 3215SOL    HW110181   3.479   1.466   1.042
 3215SOL    HW210182   3.564   1.417   1.158
 3216SOL     OW10183   2.197   0.562   1.293
 3216SOL    HW110184   2.251   0.503   1.347
 3216SOL    HW210185   2.215   0.535   1.203
 3217SOL     OW10186   2.690   1.578   0.677
 3217SOL    HW110187   2.668   1.635   0.603
 3217SOL    HW210188   2.619   1.515   0.681
 3218SOL     OW10189   3.292   0.219   1.115
 3218SOL    HW110190   3.328   0.146   1.167
 3218SOL    HW210191   3.242   0.271   1.177
 3219SOL     OW10192   2.857   0.002   1.155
 3219SOL    HW110193   2.818   4.414   1.151
 3219SOL    HW210194   2.951   4.487   1.164
 3220SOL     OW10195   2.634   1.327   0.323
 3220SOL    HW110196   2.607   1.236   0.338
 3220SOL    HW210197   2.716   1.336   0.371
 3221SOL     OW10198   2.483   1.553   1.283
 3221SOL    HW110199   2.482   1.636   1.331
 3221SOL    HW210200   2.573   1.547   1.249
 3222SOL     OW10201   3.223   0.056   0.171
 3222SOL    HW110202   3.256   4.481   0.120
 3222SOL    HW210203   3.136   0.029   0.200
 3223SOL     OW10204   3.178   0.466   0.672
 3223SOL    HW110205   3.122   0.543   0.673
 3223SOL    HW210206   3.164   0.424   0.757
 3224SOL     OW10207   3.448   0.197   0.870
 3224SOL    HW110208   3.391   0.213   0.945
 3224SOL    HW210209   3.450   0.280   0.822
 3225SOL     OW10210   1.903   1.067   0.302
 3225SOL    HW110211   1.998   1.062   0.298
 3225SOL    HW210212   1.875   0.979   0.326
 3226SOL     OW10213   2.749   1.659   0.348
 3226SOL    HW110214   2.675   1.640   0.291
 3226SOL    HW210215   2.720   1.732   0.402
 3227SOL     OW10216   2.086   0.624   1.987
 3227SOL    HW110217   1.999   0.617   2.028
 3227SOL    HW210218   2.072   0.597   1.896
 3228SOL     OW10219   2.066   0.303   2.853
 3228SOL    HW110220   2.098   0.270   2.937
 3228SOL    HW210221   1.985   0.254   2.838
 3229SOL     OW10222   1.867   0.392   2.497
 3229SOL    HW110223   1.781   0.409   2.535
 3229SOL    HW210224   1.852   0.321   2.435
 3230SOL     OW10225   2.430   1.296   3.044
 3230SOL    HW110226   2.344   1.301   3.003
 3230SOL    HW210227   2.447   1.384   3.077
 3231SOL     OW10228   3.431   1.514   2.571
 3231SOL    HW110229   3.388   1.490   2.653
 3231SOL    HW210230   3.360   1.517   2.507
 3232SOL     OW10231   3.003   0.696   2.555
 3232SOL    HW110232   3.046   0.781   2.547
 3232SOL    HW210233   2.950   0.703   2.634
 3233SOL     OW10234   3.639   0.601   2.086
 3233SOL    HW110235   3.613   0.595   1.995
 3233SOL    HW210236   3.601   0.524   2.128
 3234SOL     OW10237   2.610   1.139   2.909
 3234SOL    HW110238   2.543   1.176   2.966
 3234SOL    HW210239   2.648   1.214   2.865
 3235SOL     OW10240   2.734   0.765   3.686
 3235SOL    HW110241   2.721   0.835   3.750
 3235SOL    HW210242   2.757   0.811   3.605
 3236SOL     OW10243   2.548   0.997   2.506
 3236SOL    HW110244   2.614   0.989   2.575
 3236SOL    HW210245   2.479   1.051   2.545
 3237SOL     OW10246   2.575   1.149   3.679
 3237SOL    HW110247   2.623   1.227   3.709
 3237SOL    HW210248   2.494   1.184   3.641
 3238SOL     OW10249   2.193   1.418   2.930
 3238SOL    HW110250   2.118   1.378   2.885
 3238SOL    HW210251   2.237   1.470   2.863
 3239SOL     OW10252   3.321   1.502   3.222
 3239SOL    HW110253   3.375   1.580   3.232
 3239SOL    HW210254   3.253   1.511   3.289
 3240SOL     OW10255   2.307   0.392   3.344
 3240SOL    HW110256   2.389   0.342   3.349
 3240SOL    HW210257   2.238   0.327   3.360
 3241SOL     OW10258   3.468   0.441   2.601
 3241SOL    HW110259   3.388   0.459   2.551
 3241SOL    HW210260   3.479   0.518   2.657
 3242SOL     OW10261   2.082   1.724   2.342
 3242SOL    HW110262   2.118   1.762   2.422
 3242SOL    HW210263   2.159   1.710   2.286
 3243SOL     OW10264   2.999   1.343   3.557
 3243SOL    HW110265   3.040   1.336   3.643
 3243SOL    HW210266   2.947   1.263   3.549
 3244SOL     OW10267   2.088   1.444   2.398
 3244SOL    HW110268   2.063   1.536   2.406
 3244SOL    HW210269   2.033   1.398   2.462
 3245SOL     OW10270   2.128   1.091   2.753
 3245SOL    HW110271   2.123   1.003   2.791
 3245SOL    HW210272   2.070   1.144   2.807
 3246SOL     OW10273   2.465   1.793   3.281
 3246SOL    HW110274   2.387   1.773   3.332
 3246SOL    HW210275   2.491   1.881   3.311
 3247SOL     OW10276   2.441   0.985   2.001
 3247SOL    HW110277   2.490   1.030   1.932
 3247SOL    HW210278   2.481   1.016   2.082
 3248SOL     OW10279   3.438   0.119   3.326
 3248SOL    HW110280   3.477   0.185   3.269
 3248SOL    HW210281   3.428   0.163   3.411
 3249SOL     OW10282   1.981   0.656   2.423
 3249SOL    HW110283   1.950   0.568   2.445
 3249SOL    HW210284   1.973   0.706   2.504
 3250SOL     OW10285   3.705   1.755   2.192
 3250SOL    HW110286   3.773   1.729   2.255
 3250SOL    HW210287   3.724   1.847   2.174
 3251SOL     OW10288   1.902   1.592   1.981
 3251SOL    HW110289   1.882   1.500   1.999
 3251SOL    HW210290   1.875   1.638   2.061
 3252SOL     OW10291   3.553   0.921   2.508
 3252SOL    HW110292   3.634   0.876   2.485
 3252SOL    HW210293   3.530   0.971   2.430
 3253SOL     OW10294   3.511   1.104   2.291
 3253SOL    HW110295   3.598   1.105   2.250
 3253SOL    HW210296   3.517   1.167   2.362
 3254SOL     OW10297   1.984   0.747   3.444
 3254SOL    HW110298   2.075   0.779   3.448
 3254SOL    HW210299   1.931   0.827   3.447
 3255SOL     OW10300   2.478   1.390   2.596
 3255SOL    HW110301   2.434   1.306   2.605
 3255SOL    HW210302   2.462   1.417   2.506
 3256SOL     OW10303   3.148   1.236   3.283
 3256SOL    HW110304   3.178   1.168   3.223
 3256SOL    HW210305   3.207   1.231   3.358
 3257SOL     OW10306   2.684   0.021   2.420
 3257SOL    HW110307   2.722   0.104   2.391
 3257SOL    HW210308   2.589   0.034   2.411
 3258SOL     OW10309   2.050   0.961   3.141
 3258SOL    HW110310   2.136   0.922   3.125
 3258SOL    HW210311   1.991   0.915   3.081
 3259SOL     OW10312   3.394   0.998   2.062
 3259SOL    HW110313   3.324   0.941   2.095
 3259SOL    HW210314   3.436   1.032   2.141
 3260SOL     OW10315   3.047   1.811   3.487
 3260SOL    HW110316   3.054   1.871   3.413
 3260SOL    HW210317   3.064   1.725   3.449
 3261SOL     OW10318   2.178   0.251   3.640
 3261SOL    HW110319   2.242   0.314   3.674
 3261SOL    HW210320   2.105   0.257   3.701
 3262SOL     OW10321   3.330   1.419   2.809
 3262SOL    HW110322   3.263   1.435   2.876
 3262SOL    HW210323   3.316   1.328   2.783
 3263SOL     OW10324   3.516   1.751   2.439
 3263SOL    HW110325   3.498   1.718   2.351
 3263SOL    HW210326   3.496   1.677   2.497
 3264SOL     OW10327   2.452   0.721   2.130
 3264SOL    HW110328   2.454   0.805   2.084
 3264SOL    HW210329   2.387   0.733   2.199
 3265SOL     OW10330   3.156   0.374   2.793
 3265SOL    HW110331   3.067   0.344   2.775
 3265SOL    HW210332   3.191   0.310   2.854
 3266SOL     OW10333   3.440   1.673   2.172
 3266SOL    HW110334   3.532   1.700   2.164
 3266SOL    HW210335   3.412   1.657   2.082
 3267SOL     OW10336   2.658   0.621   3.315
 3267SOL    HW110337   2.629   0.593   3.402
 3267SOL    HW210338   2.624   0.554   3.256
 3268SOL     OW10339   3.250   0.483   3.538
 3268SOL    HW110340   3.254   0.527   3.623
 3268SOL    HW210341   3.316   0.414   3.543
 3269SOL     OW10342   2.813   0.886   3.448
 3269SOL    HW110343   2.867   0.817   3.411
 3269SOL    HW210344   2.764   0.921   3.374
 3270SOL     OW10345   2.861   0.417   3.094
 3270SOL    HW110346   2.770   0.424   3.123
 3270SOL    HW210347   2.857   0.362   3.015
 3271SOL     OW10348   2.914   0.698   2.287
 3271SOL    HW110349   2.933   0.690   2.380
 3271SOL    HW210350   2.829   0.655   2.275
 3272SOL     OW10351   1.950   0.822   2.639
 3272SOL    HW110352   2.031   0.815   2.691
 3272SOL    HW210353   1.906   0.899   2.674
 3273SOL     OW10354   1.990   1.816   3.433
 3273SOL    HW110355   1.974   1.807   3.527
 3273SOL    HW210356   1.914   1.865   3.401
 3274SOL     OW10357   2.720   0.372   2.054
 3274SOL    HW110358   2.784   0.405   1.991
 3274SOL    HW210359   2.730   0.277   2.051
 3275SOL     OW10360   3.563   0.570   3.691
 3275SOL    HW110361   3.529   0.645   3.642
 3275SOL    HW210362   3.598   0.511   3.625
 3276SOL     OW10363   3.243   1.143   2.402
 3276SOL    HW110364   3.322   1.132   2.348
 3276SOL    HW210365   3.189   1.205   2.352
 3277SOL     OW10366   2.396   0.209   2.765
 3277SOL    HW110367   2.419   0.227   2.856
 3277SOL    HW210368   2.393   0.296   2.724
 3278SOL     OW10369   2.863   1.444   2.330
 3278SOL    HW110370   2.830   1.519   2.281
 3278SOL    HW210371   2.839   1.463   2.421
 3279SOL     OW10372   2.220   1.811   2.695
 3279SOL    HW110373   2.260   1.726   2.713
 3279SOL    HW210374   2.288   1.875   2.716
 3280SOL     OW10375   3.662   1.056   2.734
 3280SOL    HW110376   3.610   1.034   2.656
 3280SOL    HW210377   3.598   1.061   2.805
 3281SOL     OW10378   3.089   1.540   3.375
 3281SOL    HW110379   3.077   1.468   3.437
 3281SOL    HW210380   3.022   1.524   3.308
 3282SOL     OW10381   2.177   0.959   2.116
 3282SOL    HW110382   2.259   0.979   2.071
 3282SOL    HW210383   2.148   0.876   2.078
 3283SOL     OW10384   3.345   0.748   2.582
 3283SOL    HW110385   3.338   0.707   2.669
 3283SOL    HW210386   3.422   0.804   2.588
 3284SOL     OW10387   2.332   1.267   3.600
 3284SOL    HW110388   2.305   1.272   3.508
 3284SOL    HW210389   2.249   1.263   3.649
 3285SOL     OW10390   2.987   1.777   2.092
 3285SOL    HW110391   2.910   1.738   2.135
 3285SOL    HW210392   3.010   1.714   2.024
 3286SOL     OW10393   2.048   0.268   3.380
 3286SOL    HW110394   1.984   0.338   3.371
 3286SOL    HW210395   2.073   0.269   3.472
 3287SOL     OW10396   3.491   1.382   1.952
 3287SOL    HW110397   3.449   1.467   1.937
 3287SOL    HW210398   3.423   1.318   1.932
 3288SOL     OW10399   2.331   1.716   2.211
 3288SOL    HW110400   2.368   1.794   2.252
 3288SOL    HW210401   2.388   1.700   2.136
 3289SOL     OW10402   3.292   0.148   2.283
 3289SOL    HW110403   3.274   0.090   2.209
 3289SOL    HW210404   3.384   0.134   2.304
 3290SOL     OW10405   2.108   1.789   3.085
 3290SOL    HW110406   2.163   1.725   3.130
 3290SOL    HW210407   2.105   1.760   2.994
 3291SOL     OW10408   2.804   1.697   2.757
 3291SOL    HW110409   2.883   1.648   2.780
 3291SOL    HW210410   2.763   1.647   2.687
 3292SOL     OW10411   2.258   0.692   2.335
 3292SOL    HW110412   2.278   0.600   2.351
 3292SOL    HW210413   2.164   0.699   2.352
 3293SOL     OW10414   3.385   0.234   3.585
 3293SOL    HW110415   3.385   0.254   3.678
 3293SOL    HW210416   3.304   0.184   3.571
 3294SOL     OW10417   2.496   0.122   1.987
 3294SOL    HW110418   2.584   0.086   1.998
 3294SOL    HW210419   2.462   0.080   1.908
 3295SOL     OW10420   2.630   0.271   3.618
 3295SOL    HW110421   2.700   0.205   3.615
 3295SOL    HW210422   2.593   0.263   3.706
 3296SOL     OW10423   2.739   1.524   3.056
 3296SOL    HW110424   2.721   1.486   2.970
 3296SOL    HW210425   2.808   1.469   3.093
 3297SOL     OW10426   3.201   0.590   3.290
 3297SOL    HW110427   3.229   0.562   3.377
 3297SOL    HW210428   3.235   0.679   3.280
 3298SOL     OW10429   2.680   1.390   2.808
 3298SOL    HW110430   2.765   1.378   2.764
 3298SOL    HW210431   2.617   1.396   2.736
 3299SOL     OW10432   2.788   0.526   2.757
 3299SOL    HW110433   2.771   0.523   2.663
 3299SOL    HW210434   2.818   0.438   2.780
 3300SOL     OW10435   2.419   0.085   2.388
 3300SOL    HW110436   2.334   0.049   2.412
 3300SOL    HW210437   2.401   0.143   2.313
 3301SOL     OW10438   3.290   1.200   1.902
 3301SOL    HW110439   3.319   1.125   1.953
 3301SOL    HW210440   3.205   1.222   1.938
 3302SOL     OW10441   2.154   0.062   2.069
 3302SOL    HW110442   2.229   0.120   2.056
 3302SOL    HW210443   2.183   0.000   2.136
 3303SOL     OW10444   2.821   0.240   2.323
 3303SOL    HW110445   2.769   0.306   2.279
 3303SOL    HW210446   2.911   0.272   2.317
 3304SOL     OW10447   2.942   0.685   3.320
 3304SOL    HW110448   2.873   0.619   3.319
 3304SOL    HW210449   3.023   0.635   3.309
 3305SOL     OW10450   3.082   1.572   2.657
 3305SOL    HW110451   3.097   1.637   2.588
 3305SOL    HW210452   3.152   1.588   2.720
 3306SOL     OW10453   2.334   1.153   2.589
 3306SOL    HW110454   2.268   1.133   2.655
 3306SOL    HW210455   2.291   1.139   2.505
 3307SOL     OW10456   3.127   1.792   2.474
 3307SOL    HW110457   3.174   1.854   2.419
 3307SOL    HW210458   3.058   1.844   2.515
 3308SOL     OW10459   2.888   0.540   1.884
 3308SOL    HW110460   2.841   0.622   1.868
 3308SOL    HW210461   2.947   0.560   1.957
 3309SOL     OW10462   1.950   0.548   3.259
 3309SOL    HW110463   2.040   0.553   3.229
 3309SOL    HW210464   1.941   0.620   3.321
 3310SOL     OW10465   2.421   0.249   3.033
 3310SOL    HW110466   2.445   0.168   3.078
 3310SOL    HW210467   2.328   0.261   3.055
 3311SOL     OW10468   2.726   0.505   2.491
 3311SOL    HW110469   2.690   0.540   2.409
 3311SOL    HW210470   2.674   0.426   2.508
 3312SOL     OW10471   2.808   0.011   2.665
 3312SOL    HW110472   2.767   0.015   2.578
 3312SOL    HW210473   2.827   4.418   2.679
 3313SOL     OW10474   3.300   1.161   2.718
 3313SOL    HW110475   3.230   1.096   2.720
 3313SOL    HW210476   3.323   1.169   2.626
 3314SOL     OW10477   3.326   0.609   2.828
 3314SOL    HW110478   3.269   0.532   2.828
 3314SOL    HW210479   3.381   0.599   2.906
 3315SOL     OW10480   3.703   0.812   2.247
 3315SOL    HW110481   3.761   0.763   2.305
 3315SOL    HW210482   3.678   0.749   2.179
 3316SOL     OW10483   2.352   1.422   2.013
 3316SOL    HW110484   2.277   1.394   2.066
 3316SOL    HW210485   2.344   1.372   1.932
 3317SOL     OW10486   3.538   1.265   2.502
 3317SOL    HW110487   3.633   1.265   2.519
 3317SOL    HW210488   3.510   1.354   2.525
 3318SOL     OW10489   3.257   0.574   1.931
 3318SOL    HW110490   3.193   0.557   2.001
 3318SOL    HW210491   3.342   0.558   1.972
 3319SOL     OW10492   2.376   0.264   2.181
 3319SOL    HW110493   2.430   0.216   2.118
 3319SOL    HW210494   2.357   0.347   2.138
 3320SOL     OW10495   3.611   1.242   3.426
 3320SOL    HW110496   3.698   1.203   3.421
 3320SOL    HW210497   3.626   1.332   3.456
 3321SOL     OW10498   2.917   1.355   3.195
 3321SOL    HW110499   2.842   1.323   3.245
 3321SOL    HW210500   2.992   1.312   3.236
 3322SOL     OW10501   3.472   1.628   3.520
 3322SOL    HW110502   3.463   1.661   3.431
 3322SOL    HW210503   3.553   1.578   3.519
 3323SOL     OW10504   2.998   1.211   2.965
 3323SOL    HW110505   2.935   1.246   3.028
 3323SOL    HW210506   2.967   1.243   2.880
 3324SOL     OW10507   3.485   1.096   2.939
 3324SOL    HW110508   3.479   1.159   3.010
 3324SOL    HW210509   3.408   1.114   2.884
 3325SOL     OW10510   2.758   0.137   3.245
 3325SOL    HW110511   2.782   0.090   3.165
 3325SOL    HW210512   2.842   0.158   3.286
 3326SOL     OW10513   2.846   1.115   3.586
 3326SOL    HW110514   2.755   1.132   3.609
 3326SOL    HW210515   2.843   1.037   3.531
 3327SOL     OW10516   2.572   1.063   2.233
 3327SOL    HW110517   2.557   1.043   2.325
 3327SOL    HW210518   2.647   1.009   2.208
 3328SOL     OW10519   2.284   0.820   3.114
 3328SOL    HW110520   2.352   0.829   3.180
 3328SOL    HW210521   2.249   0.732   3.126
 3329SOL     OW10522   3.130   0.374   3.138
 3329SOL    HW110523   3.162   0.453   3.181
 3329SOL    HW210524   3.040   0.395   3.113
 3330SOL     OW10525   1.933   1.570   3.214
 3330SOL    HW110526   1.904   1.649   3.169
 3330SOL    HW210527   2.029   1.576   3.213
 3331SOL     OW10528   2.200   1.117   2.351
 3331SOL    HW110529   2.205   1.190   2.290
 3331SOL    HW210530   2.199   1.039   2.296
 3332SOL     OW10531   2.414   0.522   2.719
 3332SOL    HW110532   2.425   0.582   2.645
 3332SOL    HW210533   2.480   0.550   2.782
 3333SOL     OW10534   3.109   1.350   2.252
 3333SOL    HW110535   3.165   1.421   2.284
 3333SOL    HW210536   3.022   1.371   2.285
 3334SOL     OW10537   3.150   1.460   3.009
 3334SOL    HW110538   3.205   1.463   3.088
 3334SOL    HW210539   3.095   1.383   3.022
 3335SOL     OW10540   3.439   0.623   2.342
 3335SOL    HW110541   3.391   0.666   2.412
 3335SOL    HW210542   3.483   0.694   2.296
 3336SOL     OW10543   2.209   1.528   3.175
 3336SOL    HW110544   2.196   1.485   3.090
 3336SOL    HW210545   2.304   1.540   3.181
 3337SOL     OW10546   2.282   0.741   3.467
 3337SOL    HW110547   2.340   0.788   3.407
 3337SOL    HW210548   2.328   0.660   3.486
 3338SOL     OW10549   3.470   0.780   3.547
 3338SOL    HW110550   3.384   0.822   3.541
 3338SOL    HW210551   3.522   0.822   3.479
 3339SOL     OW10552   2.856   0.090   3.574
 3339SOL    HW110553   2.904   0.165   3.538
 3339SOL    HW210554   2.879   0.017   3.516
 3340SOL     OW10555   2.363   0.040   3.626
 3340SOL    HW110556   2.378   0.016   3.535
 3340SOL    HW210557   2.296   0.108   3.622
 3341SOL     OW10558   2.446   0.875   2.893
 3341SOL    HW110559   2.479   0.965   2.896
 3341SOL    HW210560   2.390   0.868   2.970
 3342SOL     OW10561   3.210   0.858   2.884
 3342SOL    HW110562   3.123   0.843   2.846
 3342SOL    HW210563   3.256   0.775   2.874
 3343SOL     OW10564   3.059   0.537   2.118
 3343SOL    HW110565   3.067   0.457   2.171
 3343SOL    HW210566   3.017   0.600   2.176
 3344SOL     OW10567   2.150   0.230   3.106
 3344SOL    HW110568   2.102   0.247   3.187
 3344SOL    HW210569   2.192   0.145   3.120
 3345SOL     OW10570   1.906   1.310   3.136
 3345SOL    HW110571   1.940   1.256   3.208
 3345SOL    HW210572   1.913   1.400   3.168
 3346SOL     OW10573   2.581   0.629   2.913
 3346SOL    HW110574   2.658   0.615   2.858
 3346SOL    HW210575   2.553   0.719   2.892
 3347SOL     OW10576   3.600   0.959   3.719
 3347SOL    HW110577   3.556   0.893   3.666
 3347SOL    HW210578   3.540   0.977   3.791
 3348SOL     OW10579   2.154   0.045   2.512
 3348SOL    HW110580   2.143   0.140   2.511
 3348SOL    HW210581   2.167   0.022   2.604
 3349SOL     OW10582   3.486   0.386   2.215
 3349SOL    HW110583   3.508   0.319   2.280
 3349SOL    HW210584   3.460   0.462   2.268
 3350SOL     OW10585   2.896   0.765   2.822
 3350SOL    HW110586   2.886   0.780   2.916
 3350SOL    HW210587   2.864   0.676   2.808
 3351SOL     OW10588   2.844   1.567   3.583
 3351SOL    HW110589   2.829   1.610   3.499
 3351SOL    HW210590   2.887   1.485   3.560
 3352SOL     OW10591   3.714   1.501   3.467
 3352SOL    HW110592   3.734   1.529   3.377
 3352SOL    HW210593   3.795   1.517   3.516
 3353SOL     OW10594   2.215   0.917   3.671
 3353SOL    HW110595   2.296   0.936   3.719
 3353SOL    HW210596   2.241   0.853   3.605
 3354SOL     OW10597   3.389   0.261   1.989
 3354SOL    HW110598   3.321   0.203   2.024
 3354SOL    HW210599   3.422   0.308   2.066
 3355SOL     OW10600   3.149   0.826   1.889
 3355SOL    HW110601   3.191   0.739   1.893
 3355SOL    HW210602   3.181   0.864   1.808
 3356SOL     OW10603   2.930   1.338   2.718
 3356SOL    HW110604   2.935   1.266   2.655
 3356SOL    HW210605   2.989   1.405   2.682
 3357SOL     OW10606   2.170   0.811   2.808
 3357SOL    HW110607   2.263   0.832   2.801
 3357SOL    HW210608   2.169   0.720   2.840
 3358SOL     OW10609   2.196   0.536   2.876
 3358SOL    HW110610   2.152   0.453   2.858
 3358SOL    HW210611   2.273   0.535   2.819
 3359SOL     OW10612   3.001   0.369   3.565
 3359SOL    HW110613   2.947   0.431   3.615
 3359SOL    HW210614   3.083   0.415   3.551
 3360SOL     OW10615   3.012   0.216   3.336
 3360SOL    HW110616   3.010   0.280   3.408
 3360SOL    HW210617   3.057   0.261   3.265
 3361SOL     OW10618   1.869   1.318   2.055
 3361SOL    HW110619   1.782   1.334   2.020
 3361SOL    HW210620   1.865   1.229   2.090
 3362SOL     OW10621   1.961   1.777   2.793
 3362SOL    HW110622   1.930   1.697   2.751
 3362SOL    HW210623   2.047   1.793   2.753
 3363SOL     OW10624   2.349   1.573   2.762
 3363SOL    HW110625   2.419   1.633   2.789
 3363SOL    HW210626   2.393   1.509   2.706
 3364SOL     OW10627   2.837   0.791   3.087
 3364SOL    HW110628   2.896   0.771   3.160
 3364SOL    HW210629   2.755   0.747   3.110
 3365SOL     OW10630   1.894   0.546   2.982
 3365SOL    HW110631   1.970   0.528   2.926
 3365SOL    HW210632   1.929   0.548   3.071
 3366SOL     OW10633   2.046   0.524   3.587
 3366SOL    HW110634   2.125   0.507   3.537
 3366SOL    HW210635   2.006   0.600   3.544
 3367SOL     OW10636   3.243   0.934   3.519
 3367SOL    HW110637   3.263   1.027   3.515
 3367SOL    HW210638   3.238   0.907   3.427
 3368SOL     OW10639   2.672   0.578   2.224
 3368SOL    HW110640   2.678   0.507   2.161
 3368SOL    HW210641   2.599   0.632   2.194
 3369SOL     OW10642   3.499   0.602   3.043
 3369SOL    HW110643   3.489   0.543   3.118
 3369SOL    HW210644   3.587   0.584   3.010
 3370SOL     OW10645   2.106   1.546   3.594
 3370SOL    HW110646   2.077   1.606   3.663
 3370SOL    HW210647   2.109   1.460   3.636
 3371SOL     OW10648   2.576   0.456   3.121
 3371SOL    HW110649   2.523   0.381   3.093
 3371SOL    HW210650   2.570   0.517   3.047
 3372SOL     OW10651   2.784   1.678   3.333
 3372SOL    HW110652   2.760   1.639   3.249
 3372SOL    HW210653   2.781   1.772   3.317
 3373SOL     OW10654   2.322   0.492   2.043
 3373SOL    HW110655   2.382   0.563   2.066
 3373SOL    HW210656   2.237   0.535   2.031
 3374SOL     OW10657   2.004   1.143   3.337
 3374SOL    HW110658   2.006   1.094   3.419
 3374SOL    HW210659   2.021   1.076   3.270
 3375SOL     OW10660   3.184   1.044   3.081
 3375SOL    HW110661   3.204   0.980   3.013
 3375SOL    HW210662   3.117   1.100   3.042
 3376SOL     OW10663   3.179   0.856   2.165
 3376SOL    HW110664   3.105   0.827   2.219
 3376SOL    HW210665   3.149   0.844   2.075
 3377SOL     OW10666   3.642   1.737   3.019
 3377SOL    HW110667   3.701   1.763   2.948
 3377SOL    HW210668   3.614   1.649   2.995
 3378SOL     OW10669   3.102   1.732   2.969
 3378SOL    HW110670   3.185   1.756   2.927
 3378SOL    HW210671   3.111   1.639   2.989
 3379SOL     OW10672   1.951   1.263   2.874
 3379SOL    HW110673   1.933   1.279   2.966
 3379SOL    HW210674   1.877   1.212   2.843
 3380SOL     OW10675   2.543   1.668   3.599
 3380SOL    HW110676   2.487   1.745   3.587
 3380SOL    HW210677   2.614   1.681   3.536
 3381SOL     OW10678   3.583   0.128   2.345
 3381SOL    HW110679   3.649   0.143   2.278
 3381SOL    HW210680   3.619   0.058   2.400
 3382SOL     OW10681   3.255   1.568   2.352
 3382SOL    HW110682   3.313   1.602   2.284
 3382SOL    HW210683   3.204   1.644   2.380
 3383SOL     OW10684   1.989   1.807   3.705
 3383SOL    HW110685   1.943   1.735   3.749
 3383SOL    HW210686   2.042   1.847   3.773
 3384SOL     OW10687   3.141   0.930   2.535
 3384SOL    HW110688   3.215   0.869   2.543
 3384SOL    HW210689   3.176   1.002   2.481
 3385SOL     OW10690   2.668   1.276   3.286
 3385SOL    HW110691   2.640   1.317   3.368
 3385SOL    HW210692   2.598   1.296   3.224
 3386SOL     OW10693   2.530   1.627   2.016
 3386SOL    HW110694   2.545   1.639   1.923
 3386SOL    HW210695   2.475   1.549   2.023
 3387SOL     OW10696   3.482   1.727   3.254
 3387SOL    HW110697   3.535   1.732   3.174
 3387SOL    HW210698   3.468   1.818   3.279
 3388SOL     OW10699   3.703   0.151   2.827
 3388SOL    HW110700   3.734   0.073   2.783
 3388SOL    HW210701   3.616   0.167   2.789
 3389SOL     OW10702   2.121   0.315   2.574
 3389SOL    HW110703   2.036   0.352   2.550
 3389SOL    HW210704   2.119   0.311   2.670
 3390SOL     OW10705   3.071   1.602   1.895
 3390SOL    HW110706   3.059   1.511   1.922
 3390SOL    HW210707   3.004   1.616   1.827
 3391SOL     OW10708   2.685   1.007   3.238
 3391SOL    HW110709   2.728   0.999   3.153
 3391SOL    HW210710   2.683   1.101   3.255
 3392SOL     OW10711   2.778   0.911   2.153
 3392SOL    HW110712   2.839   0.943   2.086
 3392SOL    HW210713   2.827   0.843   2.199
 3393SOL     OW10714   3.351   1.628   1.907
 3393SOL    HW110715   3.257   1.618   1.892
 3393SOL    HW210716   3.389   1.634   1.819
 3394SOL     OW10717   2.230   1.305   3.355
 3394SOL    HW110718   2.217   1.381   3.298
 3394SOL    HW210719   2.153   1.250   3.339
 3395SOL     OW10720   3.471   1.285   3.142
 3395SOL    HW110721   3.528   1.268   3.217
 3395SOL    HW210722   3.410   1.352   3.173
 3396SOL     OW10723   2.922   1.110   2.572
 3396SOL    HW110724   2.849   1.060   2.609
 3396SOL    HW210725   2.986   1.044   2.546
 3397SOL     OW10726   2.862   0.247   2.876
 3397SOL    HW110727   2.870   0.232   2.782
 3397SOL    HW210728   2.852   0.160   2.913
 3398SOL     OW10729   2.467   1.489   2.343
 3398SOL    HW110730   2.511   1.439   2.274
 3398SOL    HW210731   2.402   1.542   2.296
 3399SOL     OW10732   3.587   0.395   3.237
 3399SOL    HW110733   3.661   0.455   3.237
 3399SOL    HW210734   3.614   0.323   3.179
 3400SOL     OW10735   2.124   1.343   2.154
 3400SOL    HW110736   2.032   1.339   2.130
 3400SOL    HW210737   2.125   1.383   2.241
 3401SOL     OW10738   1.976   1.030   3.586
 3401SOL    HW110739   1.900   1.003   3.637
 3401SOL    HW210740   2.050   0.988   3.629
 3402SOL     OW10741   2.518   0.205   3.366
 3402SOL    HW110742   2.596   0.182   3.317
 3402SOL    HW210743   2.551   0.230   3.453
 3403SOL     OW10744   1.946   0.328   1.909
 3403SOL    HW110745   1.876   0.272   1.873
 3403SOL    HW210746   1.952   0.401   1.848
 3404SOL     OW10747   3.288   0.858   3.259
 3404SOL    HW110748   3.238   0.919   3.204
 3404SOL    HW210749   3.376   0.860   3.223
 3405SOL     OW10750   1.923   0.191   2.170
 3405SOL    HW110751   1.926   0.258   2.102
 3405SOL    HW210752   1.997   0.133   2.150
 3406SOL     OW10753   3.040   1.335   1.980
 3406SOL    HW110754   2.949   1.304   1.981
 3406SOL    HW210755   3.067   1.336   2.072
 3407SOL     OW10756   2.483   0.831   3.297
 3407SOL    HW110757   2.539   0.907   3.282
 3407SOL    HW210758   2.543   0.757   3.305
 3408SOL     OW10759   3.344   1.783   2.844
 3408SOL    HW110760   3.367   1.847   2.777
 3408SOL    HW210761   3.429   1.756   2.880
 3409SOL     OW10762   2.577   0.560   3.565
 3409SOL    HW110763   2.621   0.622   3.623
 3409SOL    HW210764   2.601   0.474   3.599
 3410SOL     OW10765   3.335   1.195   3.492
 3410SOL    HW110766   3.323   1.210   3.585
 3410SOL    HW210767   3.428   1.214   3.476
 3411SOL     OW10768   2.244   1.731   3.431
 3411SOL    HW110769   2.158   1.767   3.410
 3411SOL    HW210770   2.225   1.647   3.473
 3412SOL     OW10771   3.527   0.880   3.117
 3412SOL    HW110772   3.522   0.794   3.074
 3412SOL    HW210773   3.517   0.943   3.046
 3413SOL     OW10774   3.084   0.334   2.307
 3413SOL    HW110775   3.153   0.269   2.292
 3413SOL    HW210776   3.112   0.382   2.384
 3414SOL     OW10777   2.444   0.734   2.538
 3414SOL    HW110778   2.488   0.818   2.523
 3414SOL    HW210779   2.381   0.726   2.467
 3415SOL     OW10780   3.618   0.372   3.506
 3415SOL    HW110781   3.604   0.386   3.412
 3415SOL    HW210782   3.542   0.322   3.535
 3416SOL     OW10783   3.612   0.933   3.373
 3416SOL    HW110784   3.600   1.027   3.385
 3416SOL    HW210785   3.593   0.919   3.280
 3417SOL     OW10786   2.725   1.365   1.903
 3417SOL    HW110787   2.687   1.391   1.987
 3417SOL    HW210788   2.740   1.448   1.857
 3418SOL     OW10789   2.532   1.768   2.798
 3418SOL    HW110790   2.516   1.860   2.776
 3418SOL    HW210791   2.627   1.759   2.798
 3419SOL     OW10792   2.731   0.971   2.716
 3419SOL    HW110793   2.782   0.899   2.753
 3419SOL    HW210794   2.693   1.015   2.792
 3420SOL     OW10795   2.940   0.990   1.952
 3420SOL    HW110796   2.918   1.040   1.873
 3420SOL    HW210797   3.013   0.934   1.924
 3421SOL     OW10798   3.711   1.555   2.705
 3421SOL    HW110799   3.632   1.542   2.653
 3421SOL    HW210800   3.706   1.487   2.773
 3422SOL     OW10801   2.087   1.297   3.716
 3422SOL    HW110802   2.024   1.234   3.681
 3422SOL    HW210803   2.061   1.309   3.807
 3423SOL     OW10804   1.952   1.229   2.526
 3423SOL    HW110805   1.960   1.186   2.611
 3423SOL    HW210806   2.018   1.186   2.472
 3424SOL     OW10807   2.545   1.406   3.492
 3424SOL    HW110808   2.467   1.363   3.525
 3424SOL    HW210809   2.543   1.494   3.530
 3425SOL     OW10810   3.664   0.176   3.099
 3425SOL    HW110811   3.660   0.082   3.118
 3425SOL    HW210812   3.683   0.181   3.006
 3426SOL     OW10813   2.300   0.432   2.395
 3426SOL    HW110814   2.319   0.364   2.330
 3426SOL    HW210815   2.243   0.388   2.458
 3427SOL     OW10816   3.558   1.487   2.955
 3427SOL    HW110817   3.480   1.467   2.904
 3427SOL    HW210818   3.564   1.417   3.020
 3428SOL     OW10819   2.197   0.562   3.155
 3428SOL    HW110820   2.251   0.503   3.208
 3428SOL    HW210821   2.215   0.535   3.065
 3429SOL     OW10822   2.693   1.577   2.537
 3429SOL    HW110823   2.670   1.636   2.465
 3429SOL    HW210824   2.619   1.517   2.543
 3430SOL     OW10825   3.292   0.218   2.977
 3430SOL    HW110826   3.327   0.146   3.029
 3430SOL    HW210827   3.241   0.270   3.039
 3431SOL     OW10828   2.856   4.500   3.017
 3431SOL    HW110829   2.820   4.411   3.013
 3431SOL    HW210830   2.951   4.487   3.024
 3432SOL     OW10831   2.636   1.334   2.181
 3432SOL    HW110832   2.608   1.243   2.189
 3432SOL    HW210833   2.717   1.338   2.232
 3433SOL     OW10834   2.483   1.554   3.148
 3433SOL    HW110835   2.482   1.638   3.194
 3433SOL    HW210836   2.571   1.548   3.111
 3434SOL     OW10837   3.200   0.051   2.024
 3434SOL    HW110838   3.237   4.475   1.979
 3434SOL    HW210839   3.123   0.016   2.069
 3435SOL     OW10840   3.178   0.467   2.532
 3435SOL    HW110841   3.122   0.544   2.534
 3435SOL    HW210842   3.166   0.427   2.619
 3436SOL     OW10843   3.448   0.197   2.732
 3436SOL    HW110844   3.390   0.213   2.807
 3436SOL    HW210845   3.450   0.281   2.685
 3437SOL     OW10846   1.905   1.067   2.170
 3437SOL    HW110847   1.999   1.058   2.151
 3437SOL    HW210848   1.877   0.978   2.192
 3438SOL     OW10849   2.749   1.659   2.200
 3438SOL    HW110850   2.675   1.642   2.142
 3438SOL    HW210851   2.719   1.732   2.255
 3439SOL     OW10852   2.086   0.624   3.849
 3439SOL    HW110853   1.999   0.617   3.890
 3439SOL    HW210854   2.072   0.597   3.758
 3440SOL     OW10855   2.066   0.303   4.715
 3440SOL    HW110856   2.098   0.270   4.799
 3440SOL    HW210857   1.985   0.254   4.700
 3441SOL     OW10858   1.867   0.392   4.359
 3441SOL    HW110859   1.781   0.408   4.397
 3441SOL    HW210860   1.853   0.320   4.297
 3442SOL     OW10861   2.431   1.253   4.912
 3442SOL    HW110862   2.341   1.229   4.888
 3442SOL    HW210863   2.434   1.349   4.902
 3443SOL     OW10864   3.430   1.514   4.433
 3443SOL    HW110865   3.388   1.491   4.515
 3443SOL    HW210866   3.359   1.517   4.369
 3444SOL     OW10867   3.003   0.695   4.417
 3444SOL    HW110868   3.046   0.781   4.408
 3444SOL    HW210869   2.951   0.703   4.497
 3445SOL     OW10870   3.640   0.601   3.948
 3445SOL    HW110871   3.613   0.595   3.856
 3445SOL    HW210872   3.601   0.524   3.990
 3446SOL     OW10873   2.619   1.125   4.770
 3446SOL    HW110874   2.555   1.159   4.832
 3446SOL    HW210875   2.649   1.202   4.722
 3447SOL     OW10876   2.734   0.766   5.547
 3447SOL    HW110877   2.717   0.836   5.609
 3447SOL    HW210878   2.758   0.811   5.466
 3448SOL     OW10879   2.548   0.996   4.368
 3448SOL    HW110880   2.614   0.988   4.436
 3448SOL    HW210881   2.479   1.051   4.407
 3449SOL     OW10882   2.574   1.148   5.541
 3449SOL    HW110883   2.620   1.226   5.572
 3449SOL    HW210884   2.492   1.181   5.504
 3450SOL     OW10885   3.321   1.497   5.088
 3450SOL    HW110886   3.370   1.580   5.095
 3450SOL    HW210887   3.253   1.504   5.155
 3451SOL     OW10888   2.307   0.393   5.207
 3451SOL    HW110889   2.389   0.343   5.211
 3451SOL    HW210890   2.238   0.327   5.221
 3452SOL     OW10891   3.468   0.441   4.463
 3452SOL    HW110892   3.388   0.459   4.413
 3452SOL    HW210893   3.479   0.518   4.519
 3453SOL     OW10894   2.081   1.720   4.195
 3453SOL    HW110895   2.100   1.792   4.255
 3453SOL    HW210896   2.160   1.712   4.142
 3454SOL     OW10897   3.004   1.351   5.428
 3454SOL    HW110898   3.036   1.333   5.517
 3454SOL    HW210899   2.945   1.278   5.409
 3455SOL     OW10900   2.092   1.446   4.260
 3455SOL    HW110901   2.074   1.539   4.265
 3455SOL    HW210902   2.038   1.406   4.328
 3456SOL     OW10903   2.124   1.095   4.615
 3456SOL    HW110904   2.119   1.008   4.654
 3456SOL    HW210905   2.066   1.149   4.669
 3457SOL     OW10906   2.441   0.985   3.863
 3457SOL    HW110907   2.490   1.030   3.794
 3457SOL    HW210908   2.481   1.016   3.944
 3458SOL     OW10909   3.438   0.119   5.188
 3458SOL    HW110910   3.477   0.185   5.131
 3458SOL    HW210911   3.428   0.163   5.273
 3459SOL     OW10912   1.981   0.656   4.285
 3459SOL    HW110913   1.950   0.568   4.307
 3459SOL    HW210914   1.973   0.706   4.366
 3460SOL     OW10915   3.705   1.755   4.054
 3460SOL    HW110916   3.772   1.729   4.117
 3460SOL    HW210917   3.725   1.847   4.035
 3461SOL     OW10918   1.904   1.592   3.844
 3461SOL    HW110919   1.883   1.500   3.862
 3461SOL    HW210920   1.876   1.639   3.922
 3462SOL     OW10921   3.553   0.921   4.369
 3462SOL    HW110922   3.634   0.877   4.345
 3462SOL    HW210923   3.529   0.972   4.292
 3463SOL     OW10924   3.511   1.104   4.152
 3463SOL    HW110925   3.598   1.106   4.112
 3463SOL    HW210926   3.517   1.167   4.224
 3464SOL     OW10927   1.985   0.747   5.306
 3464SOL    HW110928   2.076   0.777   5.310
 3464SOL    HW210929   1.933   0.827   5.309
 3465SOL     OW10930   2.477   1.385   4.441
 3465SOL    HW110931   2.431   1.303   4.453
 3465SOL    HW210932   2.457   1.412   4.351
 3466SOL     OW10933   3.151   1.229   5.153
 3466SOL    HW110934   3.181   1.164   5.089
 3466SOL    HW210935   3.215   1.222   5.225
 3467SOL     OW10936   2.684   0.021   4.282
 3467SOL    HW110937   2.722   0.104   4.253
 3467SOL    HW210938   2.590   0.034   4.273
 3468SOL     OW10939   2.049   0.960   5.000
 3468SOL    HW110940   2.136   0.921   4.987
 3468SOL    HW210941   1.992   0.914   4.938
 3469SOL     OW10942   3.394   0.997   3.924
 3469SOL    HW110943   3.324   0.941   3.957
 3469SOL    HW210944   3.436   1.032   4.003
 3470SOL     OW10945   3.074   1.788   5.338
 3470SOL    HW110946   3.092   1.847   5.265
 3470SOL    HW210947   3.095   1.701   5.304
 3471SOL     OW10948   2.178   0.251   5.502
 3471SOL    HW110949   2.242   0.314   5.535
 3471SOL    HW210950   2.104   0.257   5.563
 3472SOL     OW10951   3.334   1.415   4.672
 3472SOL    HW110952   3.266   1.429   4.738
 3472SOL    HW210953   3.321   1.325   4.643
 3473SOL     OW10954   3.516   1.751   4.301
 3473SOL    HW110955   3.497   1.718   4.213
 3473SOL    HW210956   3.495   1.678   4.359
 3474SOL     OW10957   2.452   0.721   3.992
 3474SOL    HW110958   2.455   0.805   3.946
 3474SOL    HW210959   2.387   0.733   4.061
 3475SOL     OW10960   3.156   0.374   4.655
 3475SOL    HW110961   3.067   0.344   4.637
 3475SOL    HW210962   3.191   0.310   4.716
 3476SOL     OW10963   3.441   1.675   4.034
 3476SOL    HW110964   3.532   1.701   4.026
 3476SOL    HW210965   3.412   1.658   3.944
 3477SOL     OW10966   2.657   0.621   5.177
 3477SOL    HW110967   2.629   0.593   5.264
 3477SOL    HW210968   2.624   0.554   5.117
 3478SOL     OW10969   3.250   0.483   5.400
 3478SOL    HW110970   3.254   0.527   5.485
 3478SOL    HW210971   3.316   0.414   5.405
 3479SOL     OW10972   2.814   0.888   5.310
 3479SOL    HW110973   2.868   0.818   5.273
 3479SOL    HW210974   2.766   0.923   5.235
 3480SOL     OW10975   2.861   0.416   4.956
 3480SOL    HW110976   2.770   0.424   4.985
 3480SOL    HW210977   2.857   0.362   4.877
 3481SOL     OW10978   2.914   0.698   4.149
 3481SOL    HW110979   2.933   0.690   4.242
 3481SOL    HW210980   2.829   0.655   4.137
 3482SOL     OW10981   1.950   0.821   4.501
 3482SOL    HW110982   2.031   0.816   4.553
 3482SOL    HW210983   1.904   0.897   4.537
 3483SOL     OW10984   2.719   0.372   3.914
 3483SOL    HW110985   2.784   0.405   3.853
 3483SOL    HW210986   2.731   0.277   3.913
 3484SOL     OW10987   3.563   0.571   5.553
 3484SOL    HW110988   3.529   0.645   5.504
 3484SOL    HW210989   3.598   0.511   5.487
 3485SOL     OW10990   3.243   1.143   4.264
 3485SOL    HW110991   3.322   1.132   4.210
 3485SOL    HW210992   3.189   1.205   4.216
 3486SOL     OW10993   2.395   0.210   4.627
 3486SOL    HW110994   2.419   0.227   4.718
 3486SOL    HW210995   2.393   0.296   4.586
 3487SOL     OW10996   2.862   1.442   4.190
 3487SOL    HW110997   2.832   1.519   4.142
 3487SOL    HW210998   2.839   1.460   4.281
 3488SOL     OW10999   2.228   1.802   4.582
 3488SOL    HW111000   2.192   1.722   4.619
 3488SOL    HW211001   2.320   1.801   4.607
 3489SOL     OW11002   3.662   1.056   4.595
 3489SOL    HW111003   3.610   1.034   4.518
 3489SOL    HW211004   3.598   1.062   4.666
 3490SOL     OW11005   3.084   1.533   5.238
 3490SOL    HW111006   3.066   1.466   5.305
 3490SOL    HW211007   3.030   1.507   5.163
 3491SOL     OW11008   2.177   0.959   3.977
 3491SOL    HW111009   2.259   0.978   3.932
 3491SOL    HW211010   2.148   0.876   3.939
 3492SOL     OW11011   3.345   0.747   4.444
 3492SOL    HW111012   3.338   0.708   4.531
 3492SOL    HW211013   3.422   0.804   4.450
 3493SOL     OW11014   2.337   1.264   5.455
 3493SOL    HW111015   2.307   1.263   5.364
 3493SOL    HW211016   2.256   1.269   5.506
 3494SOL     OW11017   2.986   1.779   3.951
 3494SOL    HW111018   2.911   1.740   3.997
 3494SOL    HW211019   3.010   1.715   3.885
 3495SOL     OW11020   2.048   0.267   5.242
 3495SOL    HW111021   1.984   0.338   5.233
 3495SOL    HW211022   2.073   0.269   5.334
 3496SOL     OW11023   3.491   1.382   3.813
 3496SOL    HW111024   3.449   1.467   3.799
 3496SOL    HW211025   3.423   1.318   3.794
 3497SOL     OW11026   2.326   1.736   4.045
 3497SOL    HW111027   2.371   1.793   4.107
 3497SOL    HW211028   2.396   1.700   3.991
 3498SOL     OW11029   3.292   0.148   4.145
 3498SOL    HW111030   3.274   0.090   4.071
 3498SOL    HW211031   3.384   0.135   4.165
 3499SOL     OW11032   2.837   1.686   4.595
 3499SOL    HW111033   2.909   1.625   4.606
 3499SOL    HW211034   2.780   1.644   4.530
 3500SOL     OW11035   2.258   0.692   4.196
 3500SOL    HW111036   2.278   0.600   4.213
 3500SOL    HW211037   2.164   0.699   4.214
 3501SOL     OW11038   3.385   0.234   5.447
 3501SOL    HW111039   3.385   0.254   5.540
 3501SOL    HW211040   3.304   0.184   5.433
 3502SOL     OW11041   2.496   0.121   3.850
 3502SOL    HW111042   2.584   0.086   3.860
 3502SOL    HW211043   2.462   0.079   3.771
 3503SOL     OW11044   2.630   0.271   5.481
 3503SOL    HW111045   2.700   0.206   5.477
 3503SOL    HW211046   2.592   0.261   5.568
 3504SOL     OW11047   3.201   0.590   5.151
 3504SOL    HW111048   3.229   0.563   5.239
 3504SOL    HW211049   3.235   0.679   5.142
 3505SOL     OW11050   2.669   1.357   4.645
 3505SOL    HW111051   2.759   1.370   4.615
 3505SOL    HW211052   2.615   1.378   4.569
 3506SOL     OW11053   2.788   0.526   4.620
 3506SOL    HW111054   2.771   0.523   4.526
 3506SOL    HW211055   2.818   0.438   4.641
 3507SOL     OW11056   2.419   0.085   4.249
 3507SOL    HW111057   2.334   0.049   4.273
 3507SOL    HW211058   2.401   0.143   4.175
 3508SOL     OW11059   3.290   1.200   3.764
 3508SOL    HW111060   3.319   1.125   3.815
 3508SOL    HW211061   3.205   1.223   3.801
 3509SOL     OW11062   2.154   0.062   3.931
 3509SOL    HW111063   2.229   0.119   3.917
 3509SOL    HW211064   2.183   4.500   3.998
 3510SOL     OW11065   2.821   0.239   4.185
 3510SOL    HW111066   2.769   0.307   4.142
 3510SOL    HW211067   2.911   0.272   4.179
 3511SOL     OW11068   2.942   0.684   5.184
 3511SOL    HW111069   2.872   0.619   5.181
 3511SOL    HW211070   3.023   0.634   5.171
 3512SOL     OW11071   3.094   1.567   4.514
 3512SOL    HW111072   3.104   1.635   4.448
 3512SOL    HW211073   3.161   1.587   4.580
 3513SOL     OW11074   2.332   1.150   4.449
 3513SOL    HW111075   2.266   1.133   4.516
 3513SOL    HW211076   2.288   1.135   4.366
 3514SOL     OW11077   3.134   1.787   4.330
 3514SOL    HW111078   3.178   1.855   4.279
 3514SOL    HW211079   3.056   1.829   4.365
 3515SOL     OW11080   2.888   0.540   3.746
 3515SOL    HW111081   2.841   0.622   3.730
 3515SOL    HW211082   2.946   0.560   3.819
 3516SOL     OW11083   1.950   0.548   5.121
 3516SOL    HW111084   2.041   0.553   5.091
 3516SOL    HW211085   1.942   0.620   5.184
 3517SOL     OW11086   2.421   0.249   4.895
 3517SOL    HW111087   2.446   0.167   4.939
 3517SOL    HW211088   2.329   0.261   4.917
 3518SOL     OW11089   2.726   0.504   4.353
 3518SOL    HW111090   2.690   0.540   4.272
 3518SOL    HW211091   2.674   0.426   4.370
 3519SOL     OW11092   2.808   0.011   4.527
 3519SOL    HW111093   2.767   0.015   4.441
 3519SOL    HW211094   2.826   4.418   4.540
 3520SOL     OW11095   3.302   1.159   4.579
 3520SOL    HW111096   3.229   1.097   4.583
 3520SOL    HW211097   3.322   1.167   4.485
 3521SOL     OW11098   3.326   0.609   4.690
 3521SOL    HW111099   3.269   0.533   4.690
 3521SOL    HW211100   3.381   0.599   4.768
 3522SOL     OW11101   3.704   0.812   4.109
 3522SOL    HW111102   3.762   0.762   4.167
 3522SOL    HW211103   3.679   0.749   4.041
 3523SOL     OW11104   2.350   1.422   3.877
 3523SOL    HW111105   2.274   1.393   3.928
 3523SOL    HW211106   2.345   1.372   3.796
 3524SOL     OW11107   3.538   1.266   4.363
 3524SOL    HW111108   3.632   1.266   4.380
 3524SOL    HW211109   3.509   1.354   4.387
 3525SOL     OW11110   3.256   0.574   3.793
 3525SOL    HW111111   3.193   0.557   3.863
 3525SOL    HW211112   3.342   0.559   3.834
 3526SOL     OW11113   2.376   0.264   4.044
 3526SOL    HW111114   2.430   0.216   3.981
 3526SOL    HW211115   2.357   0.347   4.000
 3527SOL     OW11116   3.612   1.242   5.289
 3527SOL    HW111117   3.699   1.203   5.283
 3527SOL    HW211118   3.628   1.332   5.318
 3528SOL     OW11119   2.933   1.362   5.066
 3528SOL    HW111120   2.850   1.331   5.103
 3528SOL    HW211121   3.000   1.307   5.107
 3529SOL     OW11122   3.471   1.627   5.381
 3529SOL    HW111123   3.464   1.662   5.292
 3529SOL    HW211124   3.553   1.577   5.381
 3530SOL     OW11125   2.984   1.208   4.829
 3530SOL    HW111126   2.927   1.253   4.892
 3530SOL    HW211127   2.958   1.243   4.744
 3531SOL     OW11128   3.485   1.096   4.801
 3531SOL    HW111129   3.479   1.159   4.872
 3531SOL    HW211130   3.409   1.114   4.746
 3532SOL     OW11131   2.758   0.137   5.107
 3532SOL    HW111132   2.781   0.090   5.027
 3532SOL    HW211133   2.842   0.158   5.148
 3533SOL     OW11134   2.846   1.118   5.449
 3533SOL    HW111135   2.754   1.133   5.469
 3533SOL    HW211136   2.846   1.041   5.392
 3534SOL     OW11137   2.572   1.063   4.095
 3534SOL    HW111138   2.557   1.043   4.187
 3534SOL    HW211139   2.647   1.009   4.070
 3535SOL     OW11140   2.284   0.821   4.978
 3535SOL    HW111141   2.353   0.829   5.043
 3535SOL    HW211142   2.250   0.732   4.989
 3536SOL     OW11143   3.130   0.373   5.000
 3536SOL    HW111144   3.162   0.452   5.043
 3536SOL    HW211145   3.040   0.395   4.975
 3537SOL     OW11146   2.199   1.116   4.212
 3537SOL    HW111147   2.204   1.190   4.150
 3537SOL    HW211148   2.198   1.038   4.156
 3538SOL     OW11149   2.414   0.522   4.581
 3538SOL    HW111150   2.424   0.582   4.507
 3538SOL    HW211151   2.480   0.550   4.644
 3539SOL     OW11152   3.110   1.350   4.114
 3539SOL    HW111153   3.165   1.421   4.146
 3539SOL    HW211154   3.023   1.370   4.147
 3540SOL     OW11155   3.155   1.448   4.871
 3540SOL    HW111156   3.206   1.451   4.952
 3540SOL    HW211157   3.083   1.389   4.890
 3541SOL     OW11158   3.439   0.623   4.204
 3541SOL    HW111159   3.391   0.665   4.275
 3541SOL    HW211160   3.482   0.695   4.158
 3542SOL     OW11161   2.282   0.741   5.328
 3542SOL    HW111162   2.341   0.788   5.269
 3542SOL    HW211163   2.328   0.659   5.347
 3543SOL     OW11164   3.470   0.781   5.409
 3543SOL    HW111165   3.384   0.822   5.402
 3543SOL    HW211166   3.522   0.822   5.340
 3544SOL     OW11167   2.856   0.090   5.436
 3544SOL    HW111168   2.904   0.165   5.399
 3544SOL    HW211169   2.879   0.017   5.378
 3545SOL     OW11170   2.363   0.040   5.488
 3545SOL    HW111171   2.379   0.016   5.397
 3545SOL    HW211172   2.296   0.108   5.484
 3546SOL     OW11173   2.444   0.875   4.753
 3546SOL    HW111174   2.486   0.961   4.756
 3546SOL    HW211175   2.391   0.871   4.832
 3547SOL     OW11176   3.210   0.859   4.747
 3547SOL    HW111177   3.123   0.844   4.709
 3547SOL    HW211178   3.255   0.775   4.736
 3548SOL     OW11179   3.059   0.537   3.980
 3548SOL    HW111180   3.067   0.457   4.033
 3548SOL    HW211181   3.017   0.600   4.038
 3549SOL     OW11182   2.150   0.230   4.968
 3549SOL    HW111183   2.102   0.246   5.049
 3549SOL    HW211184   2.192   0.145   4.982
 3550SOL     OW11185   1.913   1.318   5.013
 3550SOL    HW111186   1.942   1.250   5.075
 3550SOL    HW211187   1.899   1.395   5.067
 3551SOL     OW11188   2.581   0.629   4.775
 3551SOL    HW111189   2.658   0.614   4.720
 3551SOL    HW211190   2.553   0.719   4.754
 3552SOL     OW11191   3.600   0.959   5.581
 3552SOL    HW111192   3.556   0.893   5.527
 3552SOL    HW211193   3.540   0.976   5.653
 3553SOL     OW11194   2.154   0.044   4.373
 3553SOL    HW111195   2.143   0.139   4.373
 3553SOL    HW211196   2.167   0.022   4.465
 3554SOL     OW11197   3.486   0.386   4.077
 3554SOL    HW111198   3.508   0.319   4.142
 3554SOL    HW211199   3.460   0.462   4.130
 3555SOL     OW11200   2.898   0.764   4.684
 3555SOL    HW111201   2.887   0.780   4.778
 3555SOL    HW211202   2.865   0.675   4.671
 3556SOL     OW11203   3.714   1.501   5.329
 3556SOL    HW111204   3.734   1.529   5.240
 3556SOL    HW211205   3.795   1.517   5.378
 3557SOL     OW11206   2.212   0.917   5.530
 3557SOL    HW111207   2.291   0.940   5.577
 3557SOL    HW211208   2.240   0.852   5.465
 3558SOL     OW11209   3.390   0.261   3.851
 3558SOL    HW111210   3.321   0.203   3.886
 3558SOL    HW211211   3.422   0.308   3.928
 3559SOL     OW11212   3.149   0.825   3.751
 3559SOL    HW111213   3.190   0.739   3.755
 3559SOL    HW211214   3.181   0.864   3.670
 3560SOL     OW11215   2.934   1.341   4.576
 3560SOL    HW111216   2.937   1.267   4.515
 3560SOL    HW211217   2.997   1.403   4.541
 3561SOL     OW11218   2.170   0.811   4.671
 3561SOL    HW111219   2.262   0.834   4.664
 3561SOL    HW211220   2.169   0.721   4.702
 3562SOL     OW11221   2.196   0.536   4.738
 3562SOL    HW111222   2.153   0.453   4.720
 3562SOL    HW211223   2.273   0.536   4.681
 3563SOL     OW11224   3.001   0.369   5.428
 3563SOL    HW111225   2.947   0.431   5.477
 3563SOL    HW211226   3.083   0.415   5.413
 3564SOL     OW11227   3.012   0.216   5.199
 3564SOL    HW111228   3.010   0.280   5.270
 3564SOL    HW211229   3.057   0.261   5.127
 3565SOL     OW11230   1.870   1.318   3.917
 3565SOL    HW111231   1.782   1.334   3.881
 3565SOL    HW211232   1.865   1.229   3.952
 3566SOL     OW11233   2.391   1.561   4.631
 3566SOL    HW111234   2.442   1.640   4.611
 3566SOL    HW211235   2.416   1.498   4.563
 3567SOL     OW11236   2.838   0.788   4.948
 3567SOL    HW111237   2.897   0.770   5.022
 3567SOL    HW211238   2.755   0.748   4.973
 3568SOL     OW11239   1.894   0.547   4.844
 3568SOL    HW111240   1.969   0.528   4.787
 3568SOL    HW211241   1.930   0.548   4.932
 3569SOL     OW11242   2.047   0.524   5.450
 3569SOL    HW111243   2.126   0.506   5.399
 3569SOL    HW211244   2.007   0.599   5.406
 3570SOL     OW11245   3.242   0.933   5.381
 3570SOL    HW111246   3.264   1.026   5.378
 3570SOL    HW211247   3.236   0.907   5.289
 3571SOL     OW11248   2.672   0.578   4.086
 3571SOL    HW111249   2.678   0.507   4.022
 3571SOL    HW211250   2.599   0.632   4.056
 3572SOL     OW11251   3.499   0.602   4.905
 3572SOL    HW111252   3.489   0.543   4.980
 3572SOL    HW211253   3.587   0.584   4.872
 3573SOL     OW11254   2.575   0.456   4.983
 3573SOL    HW111255   2.523   0.381   4.955
 3573SOL    HW211256   2.570   0.518   4.909
 3574SOL     OW11257   2.322   0.491   3.905
 3574SOL    HW111258   2.382   0.562   3.928
 3574SOL    HW211259   2.237   0.535   3.893
 3575SOL     OW11260   2.010   1.138   5.197
 3575SOL    HW111261   2.010   1.091   5.281
 3575SOL    HW211262   2.024   1.070   5.131
 3576SOL     OW11263   3.180   1.046   4.943
 3576SOL    HW111264   3.201   0.983   4.874
 3576SOL    HW211265   3.111   1.100   4.906
 3577SOL     OW11266   3.179   0.856   4.027
 3577SOL    HW111267   3.106   0.828   4.082
 3577SOL    HW211268   3.149   0.844   3.937
 3578SOL     OW11269   3.642   1.737   4.881
 3578SOL    HW111270   3.702   1.762   4.810
 3578SOL    HW211271   3.613   1.649   4.857
 3579SOL     OW11272   3.152   1.723   4.862
 3579SOL    HW111273   3.219   1.741   4.796
 3579SOL    HW211274   3.143   1.627   4.861
 3580SOL     OW11275   1.939   1.253   4.743
 3580SOL    HW111276   1.925   1.276   4.835
 3580SOL    HW211277   1.864   1.197   4.721
 3581SOL     OW11278   2.590   1.640   5.485
 3581SOL    HW111279   2.504   1.672   5.457
 3581SOL    HW211280   2.651   1.679   5.422
 3582SOL     OW11281   3.583   0.128   4.207
 3582SOL    HW111282   3.649   0.143   4.140
 3582SOL    HW211283   3.618   0.059   4.262
 3583SOL     OW11284   3.255   1.567   4.212
 3583SOL    HW111285   3.313   1.602   4.144
 3583SOL    HW211286   3.206   1.642   4.243
 3584SOL     OW11287   1.988   1.823   5.594
 3584SOL    HW111288   1.952   1.736   5.610
 3584SOL    HW211289   2.066   1.827   5.650
 3585SOL     OW11290   3.141   0.929   4.395
 3585SOL    HW111291   3.215   0.869   4.404
 3585SOL    HW211292   3.175   1.001   4.343
 3586SOL     OW11293   2.680   1.273   5.146
 3586SOL    HW111294   2.643   1.314   5.224
 3586SOL    HW211295   2.617   1.292   5.077
 3587SOL     OW11296   2.529   1.626   3.879
 3587SOL    HW111297   2.544   1.640   3.786
 3587SOL    HW211298   2.474   1.548   3.884
 3588SOL     OW11299   3.481   1.731   5.118
 3588SOL    HW111300   3.532   1.733   5.037
 3588SOL    HW211301   3.466   1.822   5.140
 3589SOL     OW11302   3.702   0.152   4.689
 3589SOL    HW111303   3.734   0.073   4.645
 3589SOL    HW211304   3.616   0.167   4.651
 3590SOL     OW11305   2.121   0.314   4.436
 3590SOL    HW111306   2.037   0.352   4.412
 3590SOL    HW211307   2.119   0.310   4.532
 3591SOL     OW11308   3.071   1.602   3.757
 3591SOL    HW111309   3.059   1.510   3.784
 3591SOL    HW211310   3.005   1.615   3.689
 3592SOL     OW11311   2.687   1.005   5.097
 3592SOL    HW111312   2.730   0.998   5.011
 3592SOL    HW211313   2.688   1.099   5.116
 3593SOL     OW11314   2.778   0.910   4.014
 3593SOL    HW111315   2.839   0.943   3.948
 3593SOL    HW211316   2.827   0.843   4.061
 3594SOL     OW11317   3.351   1.628   3.769
 3594SOL    HW111318   3.257   1.618   3.754
 3594SOL    HW211319   3.389   1.634   3.681
 3595SOL     OW11320   2.233   1.295   5.209
 3595SOL    HW111321   2.201   1.381   5.183
 3595SOL    HW211322   2.158   1.237   5.198
 3596SOL     OW11323   3.473   1.284   5.004
 3596SOL    HW111324   3.528   1.268   5.081
 3596SOL    HW211325   3.410   1.351   5.035
 3597SOL     OW11326   2.922   1.110   4.432
 3597SOL    HW111327   2.849   1.061   4.470
 3597SOL    HW211328   2.986   1.043   4.408
 3598SOL     OW11329   2.862   0.247   4.738
 3598SOL    HW111330   2.870   0.232   4.644
 3598SOL    HW211331   2.852   0.159   4.775
 3599SOL     OW11332   2.464   1.490   4.191
 3599SOL    HW111333   2.514   1.439   4.128
 3599SOL    HW211334   2.387   1.521   4.142
 3600SOL     OW11335   3.587   0.394   5.099
 3600SOL    HW111336   3.661   0.455   5.099
 3600SOL    HW211337   3.615   0.323   5.042
 3601SOL     OW11338   2.124   1.343   4.016
 3601SOL    HW111339   2.031   1.339   3.991
 3601SOL    HW211340   2.123   1.382   4.104
 3602SOL     OW11341   1.973   1.032   5.448
 3602SOL    HW111342   1.898   1.003   5.499
 3602SOL    HW211343   2.048   0.990   5.489
 3603SOL     OW11344   2.518   0.206   5.229
 3603SOL    HW111345   2.596   0.182   5.179
 3603SOL    HW211346   2.551   0.231   5.315
 3604SOL     OW11347   1.945   0.328   3.771
 3604SOL    HW111348   1.876   0.273   3.734
 3604SOL    HW211349   1.952   0.401   3.710
 3605SOL     OW11350   3.287   0.858   5.120
 3605SOL    HW111351   3.236   0.919   5.066
 3605SOL    HW211352   3.375   0.861   5.083
 3606SOL     OW11353   1.923   0.191   4.032
 3606SOL    HW111354   1.926   0.258   3.964
 3606SOL    HW211355   1.997   0.133   4.012
 3607SOL     OW11356   3.040   1.335   3.842
 3607SOL    HW111357   2.950   1.303   3.844
 3607SOL    HW211358   3.067   1.337   3.934
 3608SOL     OW11359   2.483   0.831   5.159
 3608SOL    HW111360   2.540   0.907   5.143
 3608SOL    HW211361   2.544   0.758   5.167
 3609SOL     OW11362   3.360   1.778   4.693
 3609SOL    HW111363   3.377   1.842   4.624
 3609SOL    HW211364   3.445   1.760   4.731
 3610SOL     OW11365   2.577   0.560   5.428
 3610SOL    HW111366   2.622   0.622   5.485
 3610SOL    HW211367   2.602   0.473   5.461
 3611SOL     OW11368   3.340   1.192   5.356
 3611SOL    HW111369   3.327   1.209   5.449
 3611SOL    HW211370   3.432   1.213   5.340
 3612SOL     OW11371   3.526   0.880   4.979
 3612SOL    HW111372   3.521   0.795   4.936
 3612SOL    HW211373   3.516   0.944   4.909
 3613SOL     OW11374   3.084   0.334   4.169
 3613SOL    HW111375   3.153   0.269   4.155
 3613SOL    HW211376   3.111   0.382   4.246
 3614SOL     OW11377   2.444   0.734   4.400
 3614SOL    HW111378   2.488   0.818   4.386
 3614SOL    HW211379   2.381   0.727   4.328
 3615SOL     OW11380   3.618   0.373   5.368
 3615SOL    HW111381   3.604   0.386   5.275
 3615SOL    HW211382   3.542   0.322   5.397
 3616SOL     OW11383   3.613   0.933   5.234
 3616SOL    HW111384   3.600   1.027   5.247
 3616SOL    HW211385   3.594   0.918   5.142
 3617SOL     OW11386   2.724   1.365   3.764
 3617SOL    HW111387   2.689   1.390   3.850
 3617SOL    HW211388   2.741   1.448   3.720
 3618SOL     OW11389   2.500   1.818   4.644
 3618SOL    HW111390   2.501   1.913   4.652
 3618SOL    HW211391   2.578   1.788   4.691
 3619SOL     OW11392   2.733   0.968   4.574
 3619SOL    HW111393   2.786   0.898   4.613
 3619SOL    HW211394   2.698   1.016   4.649
 3620SOL     OW11395   2.941   0.990   3.814
 3620SOL    HW111396   2.918   1.040   3.735
 3620SOL    HW211397   3.013   0.934   3.786
 3621SOL     OW11398   3.710   1.555   4.567
 3621SOL    HW111399   3.631   1.542   4.514
 3621SOL    HW211400   3.704   1.488   4.635
 3622SOL     OW11401   2.091   1.289   5.571
 3622SOL    HW111402   2.030   1.221   5.542
 3622SOL    HW211403   2.057   1.317   5.656
 3623SOL     OW11404   1.950   1.232   4.393
 3623SOL    HW111405   1.965   1.188   4.477
 3623SOL    HW211406   2.014   1.192   4.334
 3624SOL     OW11407   2.544   1.405   5.341
 3624SOL    HW111408   2.469   1.360   5.379
 3624SOL    HW211409   2.557   1.482   5.396
 3625SOL     OW11410   3.664   0.176   4.962
 3625SOL    HW111411   3.659   0.082   4.980
 3625SOL    HW211412   3.683   0.181   4.868
 3626SOL     OW11413   2.300   0.432   4.257
 3626SOL    HW111414   2.319   0.364   4.192
 3626SOL    HW211415   2.243   0.388   4.320
 3627SOL     OW11416   3.559   1.487   4.818
 3627SOL    HW111417   3.481   1.467   4.766
 3627SOL    HW211418   3.563   1.417   4.883
 3628SOL     OW11419   2.197   0.562   5.017
 3628SOL    HW111420   2.251   0.504   5.070
 3628SOL    HW211421   2.215   0.536   4.926
 3629SOL     OW11422   2.689   1.573   4.392
 3629SOL    HW111423   2.665   1.634   4.322
 3629SOL    HW211424   2.616   1.512   4.397
 3630SOL     OW11425   3.292   0.218   4.839
 3630SOL    HW111426   3.327   0.146   4.892
 3630SOL    HW211427   3.241   0.270   4.901
 3631SOL     OW11428   2.856   4.499   4.879
 3631SOL    HW111429   2.820   4.411   4.875
 3631SOL    HW211430   2.950   4.487   4.886
 3632SOL     OW11431   2.637   1.333   4.041
 3632SOL    HW111432   2.610   1.242   4.051
 3632SOL    HW211433   2.717   1.340   4.093
 3633SOL     OW11434   3.200   0.051   3.886
 3633SOL    HW111435   3.237   4.475   3.841
 3633SOL    HW211436   3.123   0.016   3.931
 3634SOL     OW11437   3.177   0.466   4.394
 3634SOL    HW111438   3.122   0.544   4.395
 3634SOL    HW211439   3.166   0.427   4.481
 3635SOL     OW11440   3.448   0.198   4.594
 3635SOL    HW111441   3.390   0.213   4.669
 3635SOL    HW211442   3.450   0.281   4.547
 3636SOL     OW11443   1.905   1.067   4.032
 3636SOL    HW111444   1.998   1.059   4.014
 3636SOL    HW211445   1.877   0.978   4.054
 3637SOL     OW11446   2.751   1.658   4.060
 3637SOL    HW111447   2.676   1.641   4.003
 3637SOL    HW211448   2.723   1.731   4.116
 3638SOL     OW11449   2.086   0.625   5.711
 3638SOL    HW111450   1.999   0.616   5.752
 3638SOL    HW211451   2.073   0.597   5.620
 3639SOL     OW11452   2.066   0.303   6.577
 3639SOL    HW111453   2.098   0.270   6.661
 3639SOL    HW211454   1.985   0.254   6.562
 3640SOL     OW11455   1.867   0.393   6.220
 3640SOL    HW111456   1.781   0.409   6.259
 3640SOL    HW211457   1.853   0.321   6.159
 3641SOL     OW11458   2.433   1.294   6.769
 3641SOL    HW111459   2.344   1.293   6.736
 3641SOL    HW211460   2.448   1.385   6.797
 3642SOL     OW11461   3.431   1.513   6.295
 3642SOL    HW111462   3.387   1.490   6.377
 3642SOL    HW211463   3.361   1.512   6.230
 3643SOL     OW11464   3.003   0.696   6.278
 3643SOL    HW111465   3.046   0.781   6.271
 3643SOL    HW211466   2.950   0.703   6.358
 3644SOL     OW11467   3.639   0.601   5.811
 3644SOL    HW111468   3.613   0.595   5.719
 3644SOL    HW211469   3.601   0.523   5.851
 3645SOL     OW11470   2.613   1.141   6.630
 3645SOL    HW111471   2.547   1.181   6.687
 3645SOL    HW211472   2.650   1.215   6.581
 3646SOL     OW11473   2.734   0.765   7.410
 3646SOL    HW111474   2.720   0.835   7.473
 3646SOL    HW211475   2.757   0.810   7.329
 3647SOL     OW11476   2.549   0.992   6.229
 3647SOL    HW111477   2.615   0.988   6.298
 3647SOL    HW211478   2.477   1.040   6.268
 3648SOL     OW11479   2.575   1.149   7.403
 3648SOL    HW111480   2.623   1.227   7.433
 3648SOL    HW211481   2.495   1.184   7.365
 3649SOL     OW11482   2.185   1.397   6.674
 3649SOL    HW111483   2.108   1.368   6.623
 3649SOL    HW211484   2.230   1.459   6.616
 3650SOL     OW11485   3.321   1.502   6.946
 3650SOL    HW111486   3.375   1.580   6.955
 3650SOL    HW211487   3.253   1.511   7.013
 3651SOL     OW11488   2.307   0.392   7.068
 3651SOL    HW111489   2.389   0.343   7.073
 3651SOL    HW211490   2.238   0.328   7.083
 3652SOL     OW11491   3.468   0.441   6.325
 3652SOL    HW111492   3.388   0.459   6.275
 3652SOL    HW211493   3.479   0.518   6.380
 3653SOL     OW11494   2.999   1.343   7.281
 3653SOL    HW111495   3.040   1.336   7.367
 3653SOL    HW211496   2.947   1.263   7.272
 3654SOL     OW11497   2.118   1.088   6.477
 3654SOL    HW111498   2.117   1.002   6.519
 3654SOL    HW211499   2.061   1.142   6.532
 3655SOL     OW11500   2.463   1.795   7.004
 3655SOL    HW111501   2.385   1.774   7.054
 3655SOL    HW211502   2.491   1.881   7.036
 3656SOL     OW11503   2.440   0.984   5.725
 3656SOL    HW111504   2.487   1.030   5.656
 3656SOL    HW211505   2.479   1.016   5.806
 3657SOL     OW11506   3.438   0.119   7.050
 3657SOL    HW111507   3.477   0.184   6.993
 3657SOL    HW211508   3.428   0.163   7.135
 3658SOL     OW11509   1.981   0.656   6.147
 3658SOL    HW111510   1.950   0.569   6.168
 3658SOL    HW211511   1.972   0.706   6.228
 3659SOL     OW11512   3.706   1.756   5.916
 3659SOL    HW111513   3.773   1.730   5.979
 3659SOL    HW211514   3.725   1.848   5.898
 3660SOL     OW11515   1.871   1.581   5.653
 3660SOL    HW111516   1.875   1.491   5.684
 3660SOL    HW211517   1.823   1.628   5.722
 3661SOL     OW11518   3.553   0.921   6.232
 3661SOL    HW111519   3.634   0.876   6.209
 3661SOL    HW211520   3.530   0.971   6.154
 3662SOL     OW11521   3.511   1.104   6.015
 3662SOL    HW111522   3.598   1.105   5.974
 3662SOL    HW211523   3.517   1.167   6.086
 3663SOL     OW11524   1.984   0.747   7.168
 3663SOL    HW111525   2.074   0.779   7.172
 3663SOL    HW211526   1.930   0.827   7.171
 3664SOL     OW11527   2.515   1.317   6.348
 3664SOL    HW111528   2.450   1.247   6.338
 3664SOL    HW211529   2.471   1.395   6.315
 3665SOL     OW11530   3.147   1.237   7.007
 3665SOL    HW111531   3.177   1.169   6.947
 3665SOL    HW211532   3.206   1.231   7.082
 3666SOL     OW11533   2.684   0.021   6.144
 3666SOL    HW111534   2.722   0.104   6.115
 3666SOL    HW211535   2.589   0.034   6.136
 3667SOL     OW11536   2.050   0.961   6.865
 3667SOL    HW111537   2.136   0.922   6.849
 3667SOL    HW211538   1.991   0.914   6.806
 3668SOL     OW11539   3.394   0.997   5.786
 3668SOL    HW111540   3.324   0.940   5.819
 3668SOL    HW211541   3.436   1.031   5.865
 3669SOL     OW11542   3.045   1.811   7.211
 3669SOL    HW111543   3.055   1.871   7.137
 3669SOL    HW211544   3.064   1.724   7.173
 3670SOL     OW11545   2.178   0.251   7.364
 3670SOL    HW111546   2.242   0.314   7.397
 3670SOL    HW211547   2.104   0.257   7.424
 3671SOL     OW11548   3.334   1.417   6.537
 3671SOL    HW111549   3.265   1.434   6.601
 3671SOL    HW211550   3.318   1.327   6.508
 3672SOL     OW11551   3.517   1.750   6.164
 3672SOL    HW111552   3.497   1.720   6.075
 3672SOL    HW211553   3.496   1.676   6.220
 3673SOL     OW11554   2.452   0.722   5.853
 3673SOL    HW111555   2.454   0.806   5.807
 3673SOL    HW211556   2.387   0.734   5.922
 3674SOL     OW11557   3.156   0.375   6.517
 3674SOL    HW111558   3.067   0.344   6.499
 3674SOL    HW211559   3.191   0.310   6.578
 3675SOL     OW11560   3.444   1.670   5.895
 3675SOL    HW111561   3.535   1.699   5.888
 3675SOL    HW211562   3.416   1.656   5.804
 3676SOL     OW11563   2.657   0.622   7.039
 3676SOL    HW111564   2.629   0.593   7.126
 3676SOL    HW211565   2.624   0.554   6.980
 3677SOL     OW11566   3.250   0.483   7.262
 3677SOL    HW111567   3.255   0.527   7.347
 3677SOL    HW211568   3.316   0.414   7.267
 3678SOL     OW11569   2.813   0.886   7.172
 3678SOL    HW111570   2.867   0.817   7.135
 3678SOL    HW211571   2.764   0.921   7.098
 3679SOL     OW11572   2.861   0.417   6.818
 3679SOL    HW111573   2.770   0.424   6.847
 3679SOL    HW211574   2.857   0.362   6.739
 3680SOL     OW11575   2.914   0.699   6.010
 3680SOL    HW111576   2.933   0.690   6.104
 3680SOL    HW211577   2.829   0.655   5.999
 3681SOL     OW11578   1.951   0.823   6.362
 3681SOL    HW111579   2.030   0.816   6.415
 3681SOL    HW211580   1.905   0.899   6.398
 3682SOL     OW11581   1.991   1.845   7.161
 3682SOL    HW111582   1.988   1.828   7.256
 3682SOL    HW211583   1.900   1.852   7.135
 3683SOL     OW11584   2.720   0.372   5.779
 3683SOL    HW111585   2.784   0.406   5.716
 3683SOL    HW211586   2.731   0.277   5.775
 3684SOL     OW11587   3.563   0.570   7.416
 3684SOL    HW111588   3.529   0.645   7.366
 3684SOL    HW211589   3.598   0.511   7.349
 3685SOL     OW11590   3.243   1.142   6.125
 3685SOL    HW111591   3.322   1.131   6.072
 3685SOL    HW211592   3.189   1.204   6.076
 3686SOL     OW11593   2.395   0.209   6.489
 3686SOL    HW111594   2.418   0.227   6.580
 3686SOL    HW211595   2.393   0.295   6.447
 3687SOL     OW11596   2.874   1.469   6.056
 3687SOL    HW111597   2.791   1.448   6.014
 3687SOL    HW211598   2.857   1.460   6.150
 3688SOL     OW11599   2.218   1.811   6.439
 3688SOL    HW111600   2.264   1.733   6.467
 3688SOL    HW211601   2.285   1.879   6.437
 3689SOL     OW11602   3.662   1.056   6.458
 3689SOL    HW111603   3.610   1.034   6.381
 3689SOL    HW211604   3.598   1.061   6.529
 3690SOL     OW11605   3.088   1.540   7.099
 3690SOL    HW111606   3.077   1.468   7.162
 3690SOL    HW211607   3.024   1.522   7.030
 3691SOL     OW11608   2.174   0.956   5.835
 3691SOL    HW111609   2.257   0.977   5.792
 3691SOL    HW211610   2.148   0.873   5.796
 3692SOL     OW11611   3.344   0.749   6.307
 3692SOL    HW111612   3.338   0.707   6.393
 3692SOL    HW211613   3.422   0.804   6.313
 3693SOL     OW11614   2.332   1.267   7.325
 3693SOL    HW111615   2.305   1.271   7.233
 3693SOL    HW211616   2.249   1.264   7.374
 3694SOL     OW11617   3.016   1.761   5.801
 3694SOL    HW111618   2.968   1.712   5.868
 3694SOL    HW211619   3.031   1.698   5.731
 3695SOL     OW11620   2.048   0.268   7.104
 3695SOL    HW111621   1.983   0.338   7.096
 3695SOL    HW211622   2.073   0.269   7.196
 3696SOL     OW11623   3.492   1.382   5.676
 3696SOL    HW111624   3.450   1.467   5.662
 3696SOL    HW211625   3.424   1.318   5.656
 3697SOL     OW11626   3.291   0.148   6.008
 3697SOL    HW111627   3.274   0.090   5.934
 3697SOL    HW211628   3.384   0.135   6.028
 3698SOL     OW11629   2.108   1.784   6.819
 3698SOL    HW111630   2.163   1.715   6.855
 3698SOL    HW211631   2.108   1.769   6.724
 3699SOL     OW11632   2.257   0.693   6.059
 3699SOL    HW111633   2.278   0.601   6.074
 3699SOL    HW211634   2.163   0.699   6.077
 3700SOL     OW11635   3.385   0.234   7.309
 3700SOL    HW111636   3.385   0.254   7.402
 3700SOL    HW211637   3.305   0.184   7.295
 3701SOL     OW11638   2.496   0.122   5.711
 3701SOL    HW111639   2.584   0.086   5.722
 3701SOL    HW211640   2.462   0.080   5.632
 3702SOL     OW11641   2.630   0.271   7.343
 3702SOL    HW111642   2.700   0.206   7.339
 3702SOL    HW211643   2.592   0.261   7.430
 3703SOL     OW11644   2.741   1.533   6.778
 3703SOL    HW111645   2.723   1.494   6.692
 3703SOL    HW211646   2.809   1.476   6.816
 3704SOL     OW11647   3.201   0.590   7.014
 3704SOL    HW111648   3.229   0.562   7.101
 3704SOL    HW211649   3.236   0.679   7.004
 3705SOL     OW11650   2.688   1.406   6.535
 3705SOL    HW111651   2.774   1.390   6.495
 3705SOL    HW211652   2.625   1.383   6.468
 3706SOL     OW11653   2.788   0.526   6.481
 3706SOL    HW111654   2.771   0.523   6.387
 3706SOL    HW211655   2.818   0.438   6.504
 3707SOL     OW11656   2.419   0.086   6.112
 3707SOL    HW111657   2.334   0.049   6.135
 3707SOL    HW211658   2.401   0.144   6.038
 3708SOL     OW11659   3.292   1.200   5.627
 3708SOL    HW111660   3.321   1.124   5.678
 3708SOL    HW211661   3.205   1.220   5.661
 3709SOL     OW11662   2.154   0.062   5.793
 3709SOL    HW111663   2.229   0.119   5.779
 3709SOL    HW211664   2.183   0.000   5.860
 3710SOL     OW11665   2.821   0.240   6.048
 3710SOL    HW111666   2.769   0.306   6.001
 3710SOL    HW211667   2.911   0.272   6.041
 3711SOL     OW11668   2.942   0.685   7.044
 3711SOL    HW111669   2.873   0.618   7.042
 3711SOL    HW211670   3.023   0.635   7.033
 3712SOL     OW11671   3.096   1.547   6.365
 3712SOL    HW111672   3.112   1.616   6.301
 3712SOL    HW211673   3.141   1.577   6.445
 3713SOL     OW11674   2.324   1.130   6.310
 3713SOL    HW111675   2.255   1.115   6.375
 3713SOL    HW211676   2.279   1.122   6.226
 3714SOL     OW11677   3.159   1.773   6.205
 3714SOL    HW111678   3.199   1.832   6.142
 3714SOL    HW211679   3.130   1.831   6.276
 3715SOL     OW11680   2.887   0.540   5.608
 3715SOL    HW111681   2.841   0.622   5.591
 3715SOL    HW211682   2.946   0.560   5.680
 3716SOL     OW11683   1.949   0.548   6.983
 3716SOL    HW111684   2.040   0.553   6.953
 3716SOL    HW211685   1.941   0.620   7.045
 3717SOL     OW11686   2.421   0.249   6.757
 3717SOL    HW111687   2.446   0.168   6.801
 3717SOL    HW211688   2.329   0.261   6.779
 3718SOL     OW11689   2.725   0.505   6.215
 3718SOL    HW111690   2.690   0.540   6.133
 3718SOL    HW211691   2.674   0.426   6.232
 3719SOL     OW11692   2.808   0.011   6.389
 3719SOL    HW111693   2.767   0.015   6.303
 3719SOL    HW211694   2.827   4.418   6.403
 3720SOL     OW11695   3.301   1.160   6.442
 3720SOL    HW111696   3.231   1.095   6.443
 3720SOL    HW211697   3.324   1.169   6.350
 3721SOL     OW11698   3.326   0.609   6.552
 3721SOL    HW111699   3.269   0.532   6.552
 3721SOL    HW211700   3.381   0.599   6.630
 3722SOL     OW11701   3.703   0.812   5.971
 3722SOL    HW111702   3.761   0.762   6.029
 3722SOL    HW211703   3.678   0.749   5.903
 3723SOL     OW11704   2.366   1.378   5.763
 3723SOL    HW111705   2.281   1.353   5.801
 3723SOL    HW211706   2.346   1.404   5.673
 3724SOL     OW11707   3.538   1.265   6.227
 3724SOL    HW111708   3.633   1.264   6.243
 3724SOL    HW211709   3.510   1.353   6.250
 3725SOL     OW11710   3.257   0.574   5.655
 3725SOL    HW111711   3.194   0.556   5.725
 3725SOL    HW211712   3.342   0.558   5.695
 3726SOL     OW11713   2.376   0.264   5.906
 3726SOL    HW111714   2.430   0.216   5.843
 3726SOL    HW211715   2.357   0.347   5.862
 3727SOL     OW11716   3.611   1.242   7.150
 3727SOL    HW111717   3.698   1.203   7.145
 3727SOL    HW211718   3.627   1.332   7.180
 3728SOL     OW11719   2.916   1.359   6.921
 3728SOL    HW111720   2.841   1.325   6.968
 3728SOL    HW211721   2.991   1.314   6.960
 3729SOL     OW11722   3.471   1.628   7.244
 3729SOL    HW111723   3.463   1.662   7.155
 3729SOL    HW211724   3.553   1.578   7.243
 3730SOL     OW11725   2.998   1.213   6.690
 3730SOL    HW111726   2.933   1.247   6.752
 3730SOL    HW211727   2.967   1.243   6.604
 3731SOL     OW11728   3.485   1.095   6.663
 3731SOL    HW111729   3.478   1.159   6.734
 3731SOL    HW211730   3.408   1.114   6.608
 3732SOL     OW11731   2.758   0.137   6.969
 3732SOL    HW111732   2.781   0.090   6.889
 3732SOL    HW211733   2.842   0.158   7.010
 3733SOL     OW11734   2.846   1.115   7.309
 3733SOL    HW111735   2.755   1.131   7.333
 3733SOL    HW211736   2.843   1.037   7.255
 3734SOL     OW11737   2.568   1.058   5.958
 3734SOL    HW111738   2.556   1.039   6.051
 3734SOL    HW211739   2.644   1.006   5.933
 3735SOL     OW11740   2.284   0.820   6.838
 3735SOL    HW111741   2.352   0.829   6.904
 3735SOL    HW211742   2.249   0.732   6.850
 3736SOL     OW11743   3.130   0.373   6.862
 3736SOL    HW111744   3.162   0.453   6.905
 3736SOL    HW211745   3.040   0.395   6.837
 3737SOL     OW11746   1.935   1.570   6.941
 3737SOL    HW111747   1.908   1.648   6.893
 3737SOL    HW211748   2.031   1.573   6.940
 3738SOL     OW11749   2.197   1.115   6.069
 3738SOL    HW111750   2.215   1.175   5.997
 3738SOL    HW211751   2.193   1.029   6.029
 3739SOL     OW11752   2.414   0.521   6.444
 3739SOL    HW111753   2.424   0.581   6.370
 3739SOL    HW211754   2.480   0.549   6.507
 3740SOL     OW11755   3.108   1.350   5.976
 3740SOL    HW111756   3.172   1.415   6.004
 3740SOL    HW211757   3.024   1.383   6.008
 3741SOL     OW11758   3.150   1.462   6.732
 3741SOL    HW111759   3.204   1.465   6.811
 3741SOL    HW211760   3.095   1.385   6.743
 3742SOL     OW11761   3.439   0.622   6.066
 3742SOL    HW111762   3.391   0.666   6.136
 3742SOL    HW211763   3.483   0.693   6.020
 3743SOL     OW11764   2.210   1.529   6.905
 3743SOL    HW111765   2.194   1.477   6.826
 3743SOL    HW211766   2.305   1.540   6.907
 3744SOL     OW11767   2.282   0.742   7.191
 3744SOL    HW111768   2.340   0.788   7.132
 3744SOL    HW211769   2.327   0.659   7.210
 3745SOL     OW11770   3.469   0.780   7.271
 3745SOL    HW111771   3.384   0.822   7.265
 3745SOL    HW211772   3.522   0.822   7.203
 3746SOL     OW11773   2.856   0.091   7.298
 3746SOL    HW111774   2.903   0.165   7.261
 3746SOL    HW211775   2.879   0.017   7.240
 3747SOL     OW11776   2.363   0.040   7.350
 3747SOL    HW111777   2.378   0.015   7.259
 3747SOL    HW211778   2.296   0.108   7.346
 3748SOL     OW11779   2.445   0.876   6.617
 3748SOL    HW111780   2.478   0.965   6.620
 3748SOL    HW211781   2.390   0.868   6.694
 3749SOL     OW11782   3.210   0.858   6.608
 3749SOL    HW111783   3.123   0.843   6.570
 3749SOL    HW211784   3.256   0.775   6.598
 3750SOL     OW11785   3.060   0.537   5.842
 3750SOL    HW111786   3.067   0.457   5.895
 3750SOL    HW211787   3.017   0.600   5.900
 3751SOL     OW11788   2.151   0.230   6.830
 3751SOL    HW111789   2.102   0.247   6.911
 3751SOL    HW211790   2.192   0.145   6.844
 3752SOL     OW11791   1.904   1.309   6.861
 3752SOL    HW111792   1.940   1.256   6.931
 3752SOL    HW211793   1.912   1.399   6.892
 3753SOL     OW11794   2.582   0.630   6.637
 3753SOL    HW111795   2.658   0.614   6.582
 3753SOL    HW211796   2.554   0.719   6.616
 3754SOL     OW11797   3.600   0.960   7.443
 3754SOL    HW111798   3.556   0.893   7.390
 3754SOL    HW211799   3.540   0.976   7.515
 3755SOL     OW11800   2.153   0.044   6.236
 3755SOL    HW111801   2.142   0.139   6.236
 3755SOL    HW211802   2.166   0.022   6.328
 3756SOL     OW11803   3.485   0.386   5.940
 3756SOL    HW111804   3.508   0.319   6.004
 3756SOL    HW211805   3.460   0.462   5.992
 3757SOL     OW11806   2.896   0.766   6.546
 3757SOL    HW111807   2.885   0.780   6.640
 3757SOL    HW211808   2.864   0.676   6.533
 3758SOL     OW11809   2.843   1.566   7.308
 3758SOL    HW111810   2.828   1.610   7.224
 3758SOL    HW211811   2.887   1.484   7.284
 3759SOL     OW11812   3.714   1.502   7.191
 3759SOL    HW111813   3.734   1.529   7.101
 3759SOL    HW211814   3.795   1.517   7.240
 3760SOL     OW11815   2.215   0.917   7.395
 3760SOL    HW111816   2.296   0.936   7.443
 3760SOL    HW211817   2.241   0.853   7.328
 3761SOL     OW11818   3.389   0.261   5.713
 3761SOL    HW111819   3.321   0.203   5.748
 3761SOL    HW211820   3.421   0.308   5.790
 3762SOL     OW11821   3.149   0.826   5.614
 3762SOL    HW111822   3.190   0.740   5.617
 3762SOL    HW211823   3.180   0.865   5.533
 3763SOL     OW11824   2.932   1.335   6.441
 3763SOL    HW111825   2.935   1.263   6.378
 3763SOL    HW211826   2.992   1.400   6.406
 3764SOL     OW11827   2.170   0.810   6.532
 3764SOL    HW111828   2.263   0.832   6.525
 3764SOL    HW211829   2.169   0.720   6.564
 3765SOL     OW11830   2.196   0.536   6.600
 3765SOL    HW111831   2.152   0.453   6.583
 3765SOL    HW211832   2.273   0.535   6.543
 3766SOL     OW11833   3.001   0.369   7.289
 3766SOL    HW111834   2.947   0.431   7.339
 3766SOL    HW211835   3.083   0.416   7.275
 3767SOL     OW11836   3.012   0.216   7.061
 3767SOL    HW111837   3.010   0.280   7.132
 3767SOL    HW211838   3.058   0.261   6.990
 3768SOL     OW11839   1.871   1.318   5.779
 3768SOL    HW111840   1.781   1.335   5.749
 3768SOL    HW211841   1.868   1.229   5.813
 3769SOL     OW11842   1.961   1.800   6.534
 3769SOL    HW111843   1.933   1.714   6.502
 3769SOL    HW211844   2.047   1.813   6.495
 3770SOL     OW11845   2.351   1.582   6.556
 3770SOL    HW111846   2.419   1.637   6.593
 3770SOL    HW211847   2.388   1.549   6.475
 3771SOL     OW11848   2.836   0.791   6.811
 3771SOL    HW111849   2.895   0.771   6.884
 3771SOL    HW211850   2.755   0.746   6.833
 3772SOL     OW11851   1.894   0.547   6.706
 3772SOL    HW111852   1.969   0.528   6.650
 3772SOL    HW211853   1.929   0.548   6.795
 3773SOL     OW11854   2.046   0.524   7.311
 3773SOL    HW111855   2.125   0.507   7.260
 3773SOL    HW211856   2.006   0.600   7.269
 3774SOL     OW11857   3.243   0.934   7.243
 3774SOL    HW111858   3.263   1.028   7.239
 3774SOL    HW211859   3.238   0.907   7.151
 3775SOL     OW11860   2.672   0.579   5.949
 3775SOL    HW111861   2.679   0.508   5.885
 3775SOL    HW211862   2.599   0.632   5.918
 3776SOL     OW11863   3.499   0.602   6.767
 3776SOL    HW111864   3.489   0.543   6.842
 3776SOL    HW211865   3.587   0.584   6.734
 3777SOL     OW11866   2.104   1.547   7.312
 3777SOL    HW111867   2.078   1.611   7.378
 3777SOL    HW211868   2.108   1.464   7.359
 3778SOL     OW11869   2.576   0.456   6.845
 3778SOL    HW111870   2.523   0.381   6.817
 3778SOL    HW211871   2.570   0.517   6.771
 3779SOL     OW11872   2.781   1.680   7.060
 3779SOL    HW111873   2.762   1.641   6.975
 3779SOL    HW211874   2.781   1.774   7.044
 3780SOL     OW11875   2.322   0.492   5.767
 3780SOL    HW111876   2.382   0.563   5.790
 3780SOL    HW211877   2.237   0.535   5.755
 3781SOL     OW11878   2.004   1.143   7.060
 3781SOL    HW111879   2.006   1.095   7.143
 3781SOL    HW211880   2.021   1.076   6.994
 3782SOL     OW11881   3.183   1.044   6.805
 3782SOL    HW111882   3.204   0.980   6.737
 3782SOL    HW211883   3.117   1.101   6.766
 3783SOL     OW11884   3.178   0.857   5.890
 3783SOL    HW111885   3.104   0.826   5.943
 3783SOL    HW211886   3.149   0.844   5.799
 3784SOL     OW11887   3.643   1.737   6.743
 3784SOL    HW111888   3.701   1.764   6.673
 3784SOL    HW211889   3.614   1.649   6.719
 3785SOL     OW11890   3.109   1.738   6.696
 3785SOL    HW111891   3.191   1.758   6.651
 3785SOL    HW211892   3.113   1.644   6.713
 3786SOL     OW11893   1.943   1.263   6.597
 3786SOL    HW111894   1.924   1.278   6.690
 3786SOL    HW211895   1.870   1.210   6.566
 3787SOL     OW11896   2.542   1.669   7.323
 3787SOL    HW111897   2.484   1.744   7.309
 3787SOL    HW211898   2.614   1.682   7.261
 3788SOL     OW11899   3.583   0.128   6.069
 3788SOL    HW111900   3.650   0.143   6.002
 3788SOL    HW211901   3.619   0.058   6.124
 3789SOL     OW11902   3.263   1.557   6.067
 3789SOL    HW111903   3.322   1.593   6.001
 3789SOL    HW211904   3.218   1.633   6.104
 3790SOL     OW11905   1.996   1.794   7.427
 3790SOL    HW111906   1.945   1.727   7.472
 3790SOL    HW211907   2.045   1.838   7.496
 3791SOL     OW11908   3.141   0.931   6.260
 3791SOL    HW111909   3.214   0.869   6.268
 3791SOL    HW211910   3.175   1.002   6.206
 3792SOL     OW11911   2.668   1.277   7.009
 3792SOL    HW111912   2.640   1.318   7.091
 3792SOL    HW211913   2.595   1.293   6.948
 3793SOL     OW11914   3.482   1.728   6.978
 3793SOL    HW111915   3.535   1.732   6.898
 3793SOL    HW211916   3.468   1.819   7.003
 3794SOL     OW11917   3.703   0.151   6.551
 3794SOL    HW111918   3.734   0.073   6.507
 3794SOL    HW211919   3.616   0.167   6.513
 3795SOL     OW11920   2.121   0.315   6.298
 3795SOL    HW111921   2.037   0.352   6.274
 3795SOL    HW211922   2.119   0.311   6.394
 3796SOL     OW11923   3.079   1.583   5.607
 3796SOL    HW111924   3.063   1.494   5.637
 3796SOL    HW211925   3.044   1.585   5.518
 3797SOL     OW11926   2.685   1.007   6.962
 3797SOL    HW111927   2.728   0.998   6.877
 3797SOL    HW211928   2.683   1.101   6.978
 3798SOL     OW11929   2.781   0.915   5.879
 3798SOL    HW111930   2.841   0.945   5.811
 3798SOL    HW211931   2.828   0.845   5.923
 3799SOL     OW11932   3.355   1.629   5.631
 3799SOL    HW111933   3.261   1.616   5.616
 3799SOL    HW211934   3.392   1.635   5.543
 3800SOL     OW11935   2.231   1.303   7.080
 3800SOL    HW111936   2.218   1.381   7.026
 3800SOL    HW211937   2.154   1.249   7.063
 3801SOL     OW11938   3.470   1.284   6.867
 3801SOL    HW111939   3.528   1.268   6.941
 3801SOL    HW211940   3.410   1.351   6.897
 3802SOL     OW11941   2.920   1.110   6.290
 3802SOL    HW111942   2.848   1.061   6.330
 3802SOL    HW211943   2.986   1.044   6.269
 3803SOL     OW11944   2.862   0.247   6.600
 3803SOL    HW111945   2.870   0.232   6.506
 3803SOL    HW211946   2.852   0.160   6.637
 3804SOL     OW11947   3.587   0.395   6.961
 3804SOL    HW111948   3.661   0.455   6.961
 3804SOL    HW211949   3.614   0.323   6.903
 3805SOL     OW11950   2.124   1.328   5.888
 3805SOL    HW111951   2.034   1.328   5.855
 3805SOL    HW211952   2.115   1.345   5.981
 3806SOL     OW11953   1.976   1.031   7.310
 3806SOL    HW111954   1.900   1.004   7.361
 3806SOL    HW211955   2.050   0.988   7.353
 3807SOL     OW11956   2.518   0.206   7.090
 3807SOL    HW111957   2.597   0.182   7.041
 3807SOL    HW211958   2.551   0.231   7.177
 3808SOL     OW11959   1.945   0.328   5.634
 3808SOL    HW111960   1.877   0.273   5.598
 3808SOL    HW211961   1.952   0.401   5.572
 3809SOL     OW11962   3.288   0.858   6.983
 3809SOL    HW111963   3.238   0.919   6.928
 3809SOL    HW211964   3.376   0.860   6.947
 3810SOL     OW11965   1.923   0.191   5.894
 3810SOL    HW111966   1.925   0.258   5.826
 3810SOL    HW211967   1.997   0.134   5.874
 3811SOL     OW11968   3.040   1.326   5.707
 3811SOL    HW111969   2.951   1.291   5.709
 3811SOL    HW211970   3.067   1.330   5.799
 3812SOL     OW11971   2.482   0.831   7.021
 3812SOL    HW111972   2.539   0.907   7.006
 3812SOL    HW211973   2.543   0.757   7.029
 3813SOL     OW11974   3.347   1.787   6.566
 3813SOL    HW111975   3.376   1.851   6.501
 3813SOL    HW211976   3.428   1.752   6.603
 3814SOL     OW11977   2.577   0.559   7.289
 3814SOL    HW111978   2.622   0.621   7.348
 3814SOL    HW211979   2.602   0.473   7.323
 3815SOL     OW11980   3.335   1.195   7.215
 3815SOL    HW111981   3.323   1.210   7.309
 3815SOL    HW211982   3.428   1.214   7.200
 3816SOL     OW11983   2.241   1.737   7.154
 3816SOL    HW111984   2.158   1.779   7.133
 3816SOL    HW211985   2.216   1.653   7.193
 3817SOL     OW11986   3.527   0.879   6.841
 3817SOL    HW111987   3.522   0.794   6.798
 3817SOL    HW211988   3.517   0.943   6.771
 3818SOL     OW11989   3.084   0.334   6.031
 3818SOL    HW111990   3.153   0.269   6.016
 3818SOL    HW211991   3.112   0.382   6.108
 3819SOL     OW11992   2.443   0.732   6.263
 3819SOL    HW111993   2.489   0.815   6.247
 3819SOL    HW211994   2.381   0.725   6.191
 3820SOL     OW11995   3.618   0.373   7.230
 3820SOL    HW111996   3.604   0.386   7.136
 3820SOL    HW211997   3.542   0.322   7.259
 3821SOL     OW11998   3.612   0.933   7.097
 3821SOL    HW111999   3.600   1.027   7.109
 3821SOL    HW212000   3.593   0.918   7.004
 3822SOL     OW12001   2.712   1.368   5.629
 3822SOL    HW112002   2.690   1.379   5.722
 3822SOL    HW212003   2.701   1.456   5.592
 3823SOL     OW12004   2.545   1.784   6.550
 3823SOL    HW112005   2.498   1.859   6.513
 3823SOL    HW212006   2.606   1.823   6.613
 3824SOL     OW12007   2.733   0.972   6.439
 3824SOL    HW112008   2.784   0.900   6.477
 3824SOL    HW212009   2.694   1.017   6.514
 3825SOL     OW12010   2.942   0.993   5.676
 3825SOL    HW112011   2.918   1.042   5.597
 3825SOL    HW212012   3.014   0.937   5.649
 3826SOL     OW12013   3.712   1.555   6.429
 3826SOL    HW112014   3.633   1.542   6.377
 3826SOL    HW212015   3.707   1.486   6.496
 3827SOL     OW12016   2.087   1.298   7.440
 3827SOL    HW112017   2.025   1.234   7.404
 3827SOL    HW212018   2.058   1.311   7.530
 3828SOL     OW12019   1.962   1.229   6.244
 3828SOL    HW112020   1.965   1.187   6.330
 3828SOL    HW212021   2.028   1.184   6.192
 3829SOL     OW12022   2.545   1.407   7.216
 3829SOL    HW112023   2.467   1.363   7.249
 3829SOL    HW212024   2.542   1.494   7.255
 3830SOL     OW12025   3.663   0.176   6.823
 3830SOL    HW112026   3.660   0.082   6.842
 3830SOL    HW212027   3.683   0.181   6.730
 3831SOL     OW12028   2.299   0.433   6.118
 3831SOL    HW112029   2.320   0.365   6.054
 3831SOL    HW212030   2.243   0.389   6.182
 3832SOL     OW12031   3.559   1.488   6.681
 3832SOL    HW112032   3.481   1.466   6.629
 3832SOL    HW212033   3.565   1.417   6.745
 3833SOL     OW12034   2.197   0.562   6.879
 3833SOL    HW112035   2.251   0.503   6.932
 3833SOL    HW212036   2.215   0.535   6.789
 3834SOL     OW12037   3.292   0.218   6.701
 3834SOL    HW112038   3.327   0.146   6.753
 3834SOL    HW212039   3.241   0.270   6.763
 3835SOL     OW12040   2.856   4.500   6.741
 3835SOL    HW112041   2.820   4.411   6.737
 3835SOL    HW212042   2.951   4.486   6.748
 3836SOL     OW12043   2.674   1.332   5.908
 3836SOL    HW112044   2.587   1.294   5.892
 3836SOL    HW212045   2.725   1.259   5.943
 3837SOL     OW12046   2.484   1.556   6.871
 3837SOL    HW112047   2.484   1.638   6.920
 3837SOL    HW212048   2.574   1.548   6.837
 3838SOL     OW12049   3.200   0.051   5.749
 3838SOL    HW112050   3.238   4.475   5.703
 3838SOL    HW212051   3.123   0.016   5.793
 3839SOL     OW12052   3.178   0.467   6.256
 3839SOL    HW112053   3.122   0.545   6.258
 3839SOL    HW212054   3.166   0.427   6.342
 3840SOL     OW12055   3.448   0.197   6.456
 3840SOL    HW112056   3.390   0.213   6.531
 3840SOL    HW212057   3.450   0.280   6.409
 3841SOL     OW12058   1.908   1.067   5.892
 3841SOL    HW112059   2.001   1.055   5.871
 3841SOL    HW212060   1.878   0.979   5.915
 3842SOL     OW12061   2.086   0.624   7.573
 3842SOL    HW112062   1.999   0.617   7.614
 3842SOL    HW212063   2.072   0.597   7.482
 3843SOL     OW12064   2.066   0.303   8.439
 3843SOL    HW112065   2.098   0.270   8.523
 3843SOL    HW212066   1.985   0.254   8.424
 3844SOL     OW12067   1.867   0.392   8.082
 3844SOL    HW112068   1.781   0.409   8.121
 3844SOL    HW212069   1.852   0.321   8.021
 3845SOL     OW12070   2.431   1.296   8.630
 3845SOL    HW112071   2.344   1.299   8.591
 3845SOL    HW212072   2.446   1.384   8.662
 3846SOL     OW12073   3.432   1.514   8.157
 3846SOL    HW112074   3.389   1.490   8.239
 3846SOL    HW212075   3.361   1.517   8.092
 3847SOL     OW12076   3.003   0.696   8.141
 3847SOL    HW112077   3.046   0.781   8.133
 3847SOL    HW212078   2.950   0.703   8.220
 3848SOL     OW12079   3.639   0.601   7.673
 3848SOL    HW112080   3.613   0.595   7.581
 3848SOL    HW212081   3.601   0.524   7.714
 3849SOL     OW12082   2.610   1.139   8.494
 3849SOL    HW112083   2.544   1.176   8.552
 3849SOL    HW212084   2.649   1.214   8.450
 3850SOL     OW12085   2.734   0.765   9.272
 3850SOL    HW112086   2.720   0.835   9.336
 3850SOL    HW212087   2.757   0.810   9.191
 3851SOL     OW12088   2.548   0.997   8.092
 3851SOL    HW112089   2.614   0.989   8.161
 3851SOL    HW212090   2.479   1.051   8.131
 3852SOL     OW12091   2.575   1.150   9.265
 3852SOL    HW112092   2.623   1.227   9.295
 3852SOL    HW212093   2.495   1.184   9.227
 3853SOL     OW12094   2.192   1.417   8.517
 3853SOL    HW112095   2.117   1.377   8.473
 3853SOL    HW212096   2.238   1.465   8.448
 3854SOL     OW12097   3.321   1.502   8.808
 3854SOL    HW112098   3.375   1.580   8.818
 3854SOL    HW212099   3.253   1.511   8.875
 3855SOL     OW12100   2.307   0.392   8.930
 3855SOL    HW112101   2.389   0.342   8.935
 3855SOL    HW212102   2.238   0.328   8.945
 3856SOL     OW12103   3.468   0.441   8.187
 3856SOL    HW112104   3.388   0.459   8.137
 3856SOL    HW212105   3.479   0.518   8.242
 3857SOL     OW12106   2.081   1.721   7.922
 3857SOL    HW112107   2.103   1.797   7.976
 3857SOL    HW212108   2.158   1.708   7.867
 3858SOL     OW12109   3.000   1.342   9.142
 3858SOL    HW112110   3.040   1.336   9.229
 3858SOL    HW212111   2.947   1.262   9.134
 3859SOL     OW12112   2.095   1.446   7.986
 3859SOL    HW112113   2.071   1.538   7.990
 3859SOL    HW212114   2.036   1.403   8.049
 3860SOL     OW12115   2.129   1.091   8.340
 3860SOL    HW112116   2.124   1.003   8.377
 3860SOL    HW212117   2.070   1.143   8.394
 3861SOL     OW12118   2.472   1.783   8.877
 3861SOL    HW112119   2.390   1.769   8.923
 3861SOL    HW212120   2.494   1.874   8.895
 3862SOL     OW12121   2.441   0.985   7.587
 3862SOL    HW112122   2.490   1.030   7.518
 3862SOL    HW212123   2.481   1.016   7.668
 3863SOL     OW12124   3.438   0.119   8.912
 3863SOL    HW112125   3.477   0.185   8.855
 3863SOL    HW212126   3.428   0.163   8.997
 3864SOL     OW12127   1.981   0.656   8.009
 3864SOL    HW112128   1.950   0.568   8.031
 3864SOL    HW212129   1.973   0.705   8.090
 3865SOL     OW12130   3.705   1.755   7.779
 3865SOL    HW112131   3.773   1.729   7.841
 3865SOL    HW212132   3.724   1.847   7.760
 3866SOL     OW12133   1.900   1.589   7.569
 3866SOL    HW112134   1.880   1.498   7.590
 3866SOL    HW212135   1.873   1.637   7.648
 3867SOL     OW12136   3.553   0.921   8.094
 3867SOL    HW112137   3.635   0.876   8.071
 3867SOL    HW212138   3.530   0.971   8.016
 3868SOL     OW12139   3.511   1.104   7.877
 3868SOL    HW112140   3.598   1.105   7.836
 3868SOL    HW212141   3.517   1.167   7.948
 3869SOL     OW12142   1.984   0.747   9.030
 3869SOL    HW112143   2.074   0.779   9.034
 3869SOL    HW212144   1.930   0.827   9.033
 3870SOL     OW12145   2.480   1.388   8.181
 3870SOL    HW112146   2.435   1.304   8.190
 3870SOL    HW212147   2.463   1.415   8.091
 3871SOL     OW12148   3.148   1.237   8.869
 3871SOL    HW112149   3.178   1.168   8.809
 3871SOL    HW212150   3.207   1.231   8.944
 3872SOL     OW12151   2.684   0.021   8.006
 3872SOL    HW112152   2.722   0.104   7.977
 3872SOL    HW212153   2.589   0.034   7.998
 3873SOL     OW12154   2.050   0.961   8.727
 3873SOL    HW112155   2.136   0.922   8.711
 3873SOL    HW212156   1.991   0.915   8.668
 3874SOL     OW12157   3.394   0.998   7.648
 3874SOL    HW112158   3.324   0.941   7.681
 3874SOL    HW212159   3.436   1.031   7.727
 3875SOL     OW12160   3.046   1.812   9.074
 3875SOL    HW112161   3.055   1.872   9.000
 3875SOL    HW212162   3.064   1.726   9.036
 3876SOL     OW12163   2.178   0.251   9.226
 3876SOL    HW112164   2.242   0.314   9.260
 3876SOL    HW212165   2.104   0.257   9.286
 3877SOL     OW12166   3.329   1.419   8.395
 3877SOL    HW112167   3.263   1.435   8.462
 3877SOL    HW212168   3.316   1.328   8.369
 3878SOL     OW12169   3.515   1.752   8.025
 3878SOL    HW112170   3.498   1.718   7.937
 3878SOL    HW212171   3.496   1.678   8.083
 3879SOL     OW12172   2.452   0.721   7.716
 3879SOL    HW112173   2.454   0.805   7.670
 3879SOL    HW212174   2.387   0.733   7.785
 3880SOL     OW12175   3.156   0.375   8.379
 3880SOL    HW112176   3.067   0.344   8.361
 3880SOL    HW212177   3.191   0.310   8.440
 3881SOL     OW12178   3.440   1.673   7.758
 3881SOL    HW112179   3.532   1.699   7.750
 3881SOL    HW212180   3.412   1.656   7.668
 3882SOL     OW12181   2.657   0.621   8.901
 3882SOL    HW112182   2.629   0.593   8.988
 3882SOL    HW212183   2.624   0.554   8.842
 3883SOL     OW12184   3.250   0.483   9.124
 3883SOL    HW112185   3.255   0.527   9.209
 3883SOL    HW212186   3.316   0.414   9.129
 3884SOL     OW12187   2.813   0.886   9.034
 3884SOL    HW112188   2.867   0.817   8.997
 3884SOL    HW212189   2.764   0.921   8.960
 3885SOL     OW12190   2.861   0.417   8.679
 3885SOL    HW112191   2.770   0.424   8.709
 3885SOL    HW212192   2.857   0.362   8.601
 3886SOL     OW12193   2.914   0.699   7.873
 3886SOL    HW112194   2.933   0.690   7.966
 3886SOL    HW212195   2.829   0.655   7.861
 3887SOL     OW12196   1.951   0.822   8.225
 3887SOL    HW112197   2.031   0.815   8.277
 3887SOL    HW212198   1.905   0.899   8.260
 3888SOL     OW12199   1.992   1.837   9.023
 3888SOL    HW112200   1.984   1.819   9.117
 3888SOL    HW212201   1.910   1.881   9.000
 3889SOL     OW12202   2.720   0.372   7.641
 3889SOL    HW112203   2.784   0.405   7.578
 3889SOL    HW212204   2.730   0.277   7.637
 3890SOL     OW12205   3.563   0.570   9.278
 3890SOL    HW112206   3.529   0.645   9.228
 3890SOL    HW212207   3.598   0.511   9.211
 3891SOL     OW12208   3.243   1.143   7.988
 3891SOL    HW112209   3.322   1.131   7.935
 3891SOL    HW212210   3.190   1.204   7.937
 3892SOL     OW12211   2.396   0.209   8.351
 3892SOL    HW112212   2.418   0.227   8.442
 3892SOL    HW212213   2.393   0.295   8.309
 3893SOL     OW12214   2.863   1.443   7.917
 3893SOL    HW112215   2.831   1.519   7.867
 3893SOL    HW212216   2.842   1.463   8.008
 3894SOL     OW12217   2.218   1.800   8.313
 3894SOL    HW112218   2.241   1.707   8.312
 3894SOL    HW212219   2.298   1.845   8.340
 3895SOL     OW12220   3.662   1.057   8.320
 3895SOL    HW112221   3.610   1.034   8.243
 3895SOL    HW212222   3.598   1.062   8.391
 3896SOL     OW12223   3.089   1.540   8.961
 3896SOL    HW112224   3.077   1.467   9.023
 3896SOL    HW212225   3.021   1.526   8.895
 3897SOL     OW12226   2.176   0.959   7.701
 3897SOL    HW112227   2.259   0.978   7.656
 3897SOL    HW212228   2.147   0.876   7.664
 3898SOL     OW12229   3.345   0.748   8.169
 3898SOL    HW112230   3.338   0.707   8.255
 3898SOL    HW212231   3.422   0.804   8.175
 3899SOL     OW12232   2.331   1.267   9.187
 3899SOL    HW112233   2.305   1.272   9.095
 3899SOL    HW212234   2.249   1.263   9.235
 3900SOL     OW12235   2.986   1.777   7.677
 3900SOL    HW112236   2.910   1.738   7.721
 3900SOL    HW212237   3.010   1.715   7.609
 3901SOL     OW12238   2.048   0.268   8.966
 3901SOL    HW112239   1.983   0.338   8.958
 3901SOL    HW212240   2.073   0.269   9.058
 3902SOL     OW12241   3.491   1.382   7.538
 3902SOL    HW112242   3.449   1.467   7.523
 3902SOL    HW212243   3.423   1.318   7.518
 3903SOL     OW12244   2.327   1.732   7.773
 3903SOL    HW112245   2.373   1.793   7.831
 3903SOL    HW212246   2.396   1.696   7.716
 3904SOL     OW12247   3.291   0.148   7.869
 3904SOL    HW112248   3.274   0.090   7.796
 3904SOL    HW212249   3.384   0.134   7.890
 3905SOL     OW12250   2.104   1.784   8.681
 3905SOL    HW112251   2.163   1.720   8.721
 3905SOL    HW212252   2.104   1.762   8.588
 3906SOL     OW12253   2.794   1.697   8.345
 3906SOL    HW112254   2.873   1.650   8.370
 3906SOL    HW212255   2.758   1.647   8.272
 3907SOL     OW12256   2.258   0.692   7.921
 3907SOL    HW112257   2.278   0.600   7.937
 3907SOL    HW212258   2.164   0.699   7.939
 3908SOL     OW12259   3.385   0.234   9.171
 3908SOL    HW112260   3.385   0.254   9.264
 3908SOL    HW212261   3.305   0.184   9.157
 3909SOL     OW12262   2.497   0.122   7.573
 3909SOL    HW112263   2.584   0.086   7.584
 3909SOL    HW212264   2.462   0.080   7.494
 3910SOL     OW12265   2.630   0.271   9.205
 3910SOL    HW112266   2.700   0.206   9.201
 3910SOL    HW212267   2.592   0.261   9.292
 3911SOL     OW12268   2.739   1.524   8.641
 3911SOL    HW112269   2.722   1.484   8.555
 3911SOL    HW212270   2.808   1.470   8.679
 3912SOL     OW12271   3.201   0.590   8.876
 3912SOL    HW112272   3.229   0.562   8.963
 3912SOL    HW212273   3.236   0.679   8.867
 3913SOL     OW12274   2.679   1.392   8.393
 3913SOL    HW112275   2.764   1.379   8.351
 3913SOL    HW212276   2.617   1.393   8.320
 3914SOL     OW12277   2.788   0.526   8.343
 3914SOL    HW112278   2.771   0.523   8.249
 3914SOL    HW212279   2.818   0.438   8.366
 3915SOL     OW12280   2.419   0.086   7.974
 3915SOL    HW112281   2.334   0.049   7.997
 3915SOL    HW212282   2.401   0.143   7.899
 3916SOL     OW12283   3.290   1.200   7.488
 3916SOL    HW112284   3.320   1.125   7.539
 3916SOL    HW212285   3.205   1.222   7.524
 3917SOL     OW12286   2.154   0.062   7.655
 3917SOL    HW112287   2.229   0.120   7.642
 3917SOL    HW212288   2.183   0.000   7.722
 3918SOL     OW12289   2.821   0.240   7.909
 3918SOL    HW112290   2.769   0.306   7.864
 3918SOL    HW212291   2.911   0.272   7.903
 3919SOL     OW12292   2.942   0.685   8.906
 3919SOL    HW112293   2.873   0.618   8.905
 3919SOL    HW212294   3.023   0.635   8.895
 3920SOL     OW12295   3.081   1.573   8.243
 3920SOL    HW112296   3.097   1.638   8.174
 3920SOL    HW212297   3.151   1.587   8.306
 3921SOL     OW12298   2.334   1.153   8.175
 3921SOL    HW112299   2.268   1.132   8.241
 3921SOL    HW212300   2.291   1.139   8.091
 3922SOL     OW12301   3.128   1.792   8.059
 3922SOL    HW112302   3.176   1.854   8.004
 3922SOL    HW212303   3.060   1.846   8.101
 3923SOL     OW12304   2.888   0.540   7.470
 3923SOL    HW112305   2.841   0.622   7.454
 3923SOL    HW212306   2.947   0.560   7.543
 3924SOL     OW12307   1.949   0.548   8.845
 3924SOL    HW112308   2.040   0.553   8.815
 3924SOL    HW212309   1.941   0.620   8.907
 3925SOL     OW12310   2.421   0.249   8.619
 3925SOL    HW112311   2.445   0.168   8.663
 3925SOL    HW212312   2.328   0.261   8.641
 3926SOL     OW12313   2.725   0.505   8.077
 3926SOL    HW112314   2.690   0.540   7.995
 3926SOL    HW212315   2.674   0.426   8.094
 3927SOL     OW12316   2.808   0.011   8.251
 3927SOL    HW112317   2.767   0.015   8.165
 3927SOL    HW212318   2.827   4.418   8.265
 3928SOL     OW12319   3.300   1.161   8.304
 3928SOL    HW112320   3.230   1.095   8.306
 3928SOL    HW212321   3.324   1.168   8.212
 3929SOL     OW12322   3.326   0.609   8.414
 3929SOL    HW112323   3.269   0.532   8.414
 3929SOL    HW212324   3.381   0.599   8.492
 3930SOL     OW12325   3.703   0.812   7.833
 3930SOL    HW112326   3.761   0.763   7.891
 3930SOL    HW212327   3.678   0.749   7.765
 3931SOL     OW12328   2.350   1.422   7.601
 3931SOL    HW112329   2.275   1.393   7.652
 3931SOL    HW212330   2.345   1.372   7.519
 3932SOL     OW12331   3.538   1.265   8.088
 3932SOL    HW112332   3.633   1.264   8.105
 3932SOL    HW212333   3.511   1.354   8.111
 3933SOL     OW12334   3.257   0.574   7.517
 3933SOL    HW112335   3.194   0.557   7.587
 3933SOL    HW212336   3.342   0.558   7.558
 3934SOL     OW12337   2.376   0.264   7.767
 3934SOL    HW112338   2.430   0.216   7.704
 3934SOL    HW212339   2.357   0.347   7.724
 3935SOL     OW12340   3.611   1.242   9.012
 3935SOL    HW112341   3.698   1.203   9.007
 3935SOL    HW212342   3.627   1.332   9.042
 3936SOL     OW12343   2.916   1.355   8.781
 3936SOL    HW112344   2.841   1.323   8.831
 3936SOL    HW212345   2.992   1.313   8.822
 3937SOL     OW12346   3.472   1.628   9.106
 3937SOL    HW112347   3.463   1.661   9.017
 3937SOL    HW212348   3.553   1.578   9.105
 3938SOL     OW12349   2.998   1.212   8.551
 3938SOL    HW112350   2.935   1.246   8.615
 3938SOL    HW212351   2.966   1.243   8.466
 3939SOL     OW12352   3.485   1.095   8.525
 3939SOL    HW112353   3.479   1.159   8.596
 3939SOL    HW212354   3.408   1.114   8.470
 3940SOL     OW12355   2.758   0.137   8.831
 3940SOL    HW112356   2.782   0.090   8.751
 3940SOL    HW212357   2.842   0.158   8.872
 3941SOL     OW12358   2.846   1.115   9.171
 3941SOL    HW112359   2.755   1.131   9.195
 3941SOL    HW212360   2.843   1.037   9.117
 3942SOL     OW12361   2.572   1.064   7.819
 3942SOL    HW112362   2.557   1.043   7.911
 3942SOL    HW212363   2.647   1.009   7.794
 3943SOL     OW12364   2.284   0.820   8.699
 3943SOL    HW112365   2.352   0.828   8.766
 3943SOL    HW212366   2.249   0.732   8.712
 3944SOL     OW12367   3.130   0.374   8.724
 3944SOL    HW112368   3.162   0.453   8.767
 3944SOL    HW212369   3.040   0.395   8.699
 3945SOL     OW12370   1.933   1.570   8.802
 3945SOL    HW112371   1.904   1.650   8.758
 3945SOL    HW212372   2.028   1.574   8.800
 3946SOL     OW12373   2.202   1.117   7.937
 3946SOL    HW112374   2.204   1.189   7.874
 3946SOL    HW212375   2.200   1.038   7.882
 3947SOL     OW12376   2.414   0.522   8.305
 3947SOL    HW112377   2.425   0.582   8.231
 3947SOL    HW212378   2.480   0.549   8.368
 3948SOL     OW12379   3.110   1.350   7.837
 3948SOL    HW112380   3.166   1.420   7.870
 3948SOL    HW212381   3.023   1.370   7.871
 3949SOL     OW12382   3.150   1.460   8.596
 3949SOL    HW112383   3.205   1.464   8.674
 3949SOL    HW212384   3.095   1.383   8.608
 3950SOL     OW12385   3.439   0.623   7.928
 3950SOL    HW112386   3.391   0.666   7.998
 3950SOL    HW212387   3.483   0.694   7.882
 3951SOL     OW12388   2.209   1.526   8.761
 3951SOL    HW112389   2.196   1.483   8.677
 3951SOL    HW212390   2.304   1.538   8.767
 3952SOL     OW12391   2.282   0.742   9.053
 3952SOL    HW112392   2.340   0.788   8.994
 3952SOL    HW212393   2.327   0.659   9.072
 3953SOL     OW12394   3.469   0.780   9.133
 3953SOL    HW112395   3.384   0.822   9.127
 3953SOL    HW212396   3.522   0.822   9.065
 3954SOL     OW12397   2.857   0.090   9.160
 3954SOL    HW112398   2.903   0.165   9.123
 3954SOL    HW212399   2.879   0.017   9.102
 3955SOL     OW12400   2.363   0.040   9.212
 3955SOL    HW112401   2.378   0.015   9.121
 3955SOL    HW212402   2.296   0.108   9.209
 3956SOL     OW12403   2.446   0.875   8.479
 3956SOL    HW112404   2.479   0.965   8.483
 3956SOL    HW212405   2.390   0.867   8.556
 3957SOL     OW12406   3.210   0.858   8.470
 3957SOL    HW112407   3.124   0.843   8.432
 3957SOL    HW212408   3.256   0.775   8.460
 3958SOL     OW12409   3.059   0.537   7.704
 3958SOL    HW112410   3.067   0.457   7.757
 3958SOL    HW212411   3.016   0.600   7.762
 3959SOL     OW12412   2.151   0.230   8.692
 3959SOL    HW112413   2.102   0.247   8.773
 3959SOL    HW212414   2.192   0.145   8.706
 3960SOL     OW12415   1.908   1.310   8.722
 3960SOL    HW112416   1.941   1.256   8.794
 3960SOL    HW212417   1.913   1.400   8.754
 3961SOL     OW12418   2.582   0.630   8.499
 3961SOL    HW112419   2.658   0.614   8.444
 3961SOL    HW212420   2.554   0.719   8.478
 3962SOL     OW12421   3.600   0.960   9.305
 3962SOL    HW112422   3.556   0.893   9.252
 3962SOL    HW212423   3.540   0.976   9.377
 3963SOL     OW12424   2.154   0.045   8.098
 3963SOL    HW112425   2.143   0.140   8.098
 3963SOL    HW212426   2.167   0.022   8.190
 3964SOL     OW12427   3.486   0.386   7.801
 3964SOL    HW112428   3.508   0.319   7.866
 3964SOL    HW212429   3.460   0.462   7.854
 3965SOL     OW12430   2.896   0.766   8.408
 3965SOL    HW112431   2.885   0.780   8.502
 3965SOL    HW212432   2.864   0.676   8.395
 3966SOL     OW12433   2.845   1.566   9.170
 3966SOL    HW112434   2.829   1.610   9.086
 3966SOL    HW212435   2.888   1.484   9.146
 3967SOL     OW12436   3.714   1.501   9.053
 3967SOL    HW112437   3.735   1.529   8.963
 3967SOL    HW212438   3.795   1.517   9.102
 3968SOL     OW12439   2.215   0.917   9.257
 3968SOL    HW112440   2.296   0.936   9.305
 3968SOL    HW212441   2.241   0.853   9.191
 3969SOL     OW12442   3.389   0.261   7.575
 3969SOL    HW112443   3.321   0.203   7.610
 3969SOL    HW212444   3.422   0.308   7.652
 3970SOL     OW12445   3.149   0.826   7.476
 3970SOL    HW112446   3.190   0.740   7.479
 3970SOL    HW212447   3.181   0.864   7.394
 3971SOL     OW12448   2.929   1.339   8.304
 3971SOL    HW112449   2.934   1.266   8.242
 3971SOL    HW212450   2.988   1.405   8.268
 3972SOL     OW12451   2.170   0.810   8.394
 3972SOL    HW112452   2.263   0.832   8.387
 3972SOL    HW212453   2.168   0.720   8.426
 3973SOL     OW12454   2.196   0.536   8.462
 3973SOL    HW112455   2.152   0.453   8.445
 3973SOL    HW212456   2.273   0.535   8.405
 3974SOL     OW12457   3.001   0.369   9.151
 3974SOL    HW112458   2.947   0.431   9.201
 3974SOL    HW212459   3.083   0.416   9.137
 3975SOL     OW12460   3.012   0.216   8.923
 3975SOL    HW112461   3.010   0.280   8.994
 3975SOL    HW212462   3.058   0.261   8.852
 3976SOL     OW12463   1.870   1.317   7.642
 3976SOL    HW112464   1.783   1.333   7.606
 3976SOL    HW212465   1.865   1.228   7.677
 3977SOL     OW12466   1.950   1.787   8.386
 3977SOL    HW112467   1.917   1.709   8.342
 3977SOL    HW212468   2.040   1.796   8.355
 3978SOL     OW12469   2.355   1.568   8.349
 3978SOL    HW112470   2.423   1.631   8.372
 3978SOL    HW212471   2.399   1.504   8.292
 3979SOL     OW12472   2.836   0.791   8.673
 3979SOL    HW112473   2.895   0.771   8.746
 3979SOL    HW212474   2.755   0.747   8.695
 3980SOL     OW12475   1.894   0.547   8.568
 3980SOL    HW112476   1.969   0.528   8.512
 3980SOL    HW212477   1.929   0.548   8.657
 3981SOL     OW12478   2.046   0.524   9.173
 3981SOL    HW112479   2.125   0.507   9.122
 3981SOL    HW212480   2.006   0.600   9.131
 3982SOL     OW12481   3.243   0.934   9.105
 3982SOL    HW112482   3.263   1.027   9.101
 3982SOL    HW212483   3.238   0.907   9.013
 3983SOL     OW12484   2.672   0.579   7.811
 3983SOL    HW112485   2.679   0.507   7.747
 3983SOL    HW212486   2.599   0.632   7.780
 3984SOL     OW12487   3.499   0.602   8.629
 3984SOL    HW112488   3.489   0.543   8.704
 3984SOL    HW212489   3.587   0.584   8.596
 3985SOL     OW12490   2.104   1.547   9.177
 3985SOL    HW112491   2.079   1.610   9.245
 3985SOL    HW212492   2.107   1.463   9.222
 3986SOL     OW12493   2.576   0.456   8.707
 3986SOL    HW112494   2.523   0.381   8.679
 3986SOL    HW212495   2.570   0.517   8.633
 3987SOL     OW12496   2.787   1.676   8.919
 3987SOL    HW112497   2.760   1.638   8.836
 3987SOL    HW212498   2.784   1.771   8.905
 3988SOL     OW12499   2.322   0.492   7.629
 3988SOL    HW112500   2.382   0.563   7.652
 3988SOL    HW212501   2.237   0.535   7.617
 3989SOL     OW12502   2.004   1.143   8.923
 3989SOL    HW112503   2.005   1.094   9.006
 3989SOL    HW212504   2.021   1.076   8.856
 3990SOL     OW12505   3.184   1.044   8.667
 3990SOL    HW112506   3.204   0.980   8.599
 3990SOL    HW212507   3.117   1.100   8.628
 3991SOL     OW12508   3.178   0.857   7.752
 3991SOL    HW112509   3.105   0.827   7.805
 3991SOL    HW212510   3.149   0.844   7.661
 3992SOL     OW12511   3.642   1.737   8.605
 3992SOL    HW112512   3.701   1.763   8.534
 3992SOL    HW212513   3.614   1.649   8.580
 3993SOL     OW12514   3.102   1.733   8.555
 3993SOL    HW112515   3.185   1.756   8.513
 3993SOL    HW212516   3.111   1.640   8.575
 3994SOL     OW12517   1.952   1.263   8.460
 3994SOL    HW112518   1.933   1.279   8.552
 3994SOL    HW212519   1.877   1.213   8.428
 3995SOL     OW12520   2.543   1.668   9.185
 3995SOL    HW112521   2.485   1.744   9.179
 3995SOL    HW212522   2.610   1.683   9.117
 3996SOL     OW12523   3.583   0.128   7.931
 3996SOL    HW112524   3.649   0.143   7.864
 3996SOL    HW212525   3.619   0.058   7.986
 3997SOL     OW12526   3.254   1.567   7.938
 3997SOL    HW112527   3.313   1.601   7.870
 3997SOL    HW212528   3.204   1.644   7.966
 3998SOL     OW12529   2.000   1.802   9.293
 3998SOL    HW112530   1.951   1.733   9.338
 3998SOL    HW212531   2.048   1.847   9.363
 3999SOL     OW12532   3.141   0.931   8.121
 3999SOL    HW112533   3.214   0.869   8.129
 3999SOL    HW212534   3.176   1.002   8.067
 4000SOL     OW12535   2.668   1.276   8.872
 4000SOL    HW112536   2.640   1.317   8.954
 4000SOL    HW212537   2.596   1.294   8.811
 4001SOL     OW12538   2.530   1.626   7.604
 4001SOL    HW112539   2.544   1.640   7.510
 4001SOL    HW212540   2.475   1.547   7.609
 4002SOL     OW12541   3.482   1.727   8.840
 4002SOL    HW112542   3.535   1.733   8.760
 4002SOL    HW212543   3.468   1.819   8.865
 4003SOL     OW12544   3.703   0.151   8.413
 4003SOL    HW112545   3.734   0.073   8.369
 4003SOL    HW212546   3.616   0.167   8.375
 4004SOL     OW12547   2.121   0.315   8.160
 4004SOL    HW112548   2.036   0.352   8.136
 4004SOL    HW212549   2.119   0.311   8.256
 4005SOL     OW12550   3.070   1.602   7.481
 4005SOL    HW112551   3.059   1.511   7.508
 4005SOL    HW212552   3.004   1.615   7.413
 4006SOL     OW12553   2.685   1.006   8.824
 4006SOL    HW112554   2.729   0.998   8.739
 4006SOL    HW212555   2.683   1.101   8.840
 4007SOL     OW12556   2.779   0.911   7.739
 4007SOL    HW112557   2.840   0.944   7.672
 4007SOL    HW212558   2.827   0.843   7.785
 4008SOL     OW12559   3.351   1.629   7.493
 4008SOL    HW112560   3.257   1.618   7.477
 4008SOL    HW212561   3.389   1.634   7.405
 4009SOL     OW12562   2.231   1.303   8.941
 4009SOL    HW112563   2.217   1.380   8.885
 4009SOL    HW212564   2.153   1.249   8.926
 4010SOL     OW12565   3.470   1.284   8.728
 4010SOL    HW112566   3.528   1.268   8.803
 4010SOL    HW212567   3.410   1.351   8.759
 4011SOL     OW12568   2.922   1.110   8.158
 4011SOL    HW112569   2.849   1.060   8.195
 4011SOL    HW212570   2.986   1.044   8.132
 4012SOL     OW12571   2.862   0.247   8.462
 4012SOL    HW112572   2.870   0.232   8.368
 4012SOL    HW212573   2.852   0.160   8.499
 4013SOL     OW12574   2.469   1.490   7.927
 4013SOL    HW112575   2.517   1.438   7.863
 4013SOL    HW212576   2.392   1.521   7.880
 4014SOL     OW12577   3.587   0.395   8.823
 4014SOL    HW112578   3.661   0.455   8.823
 4014SOL    HW212579   3.614   0.323   8.766
 4015SOL     OW12580   2.125   1.343   7.742
 4015SOL    HW112581   2.032   1.339   7.717
 4015SOL    HW212582   2.124   1.382   7.829
 4016SOL     OW12583   1.976   1.030   9.172
 4016SOL    HW112584   1.900   1.003   9.223
 4016SOL    HW212585   2.050   0.988   9.216
 4017SOL     OW12586   2.518   0.206   8.952
 4017SOL    HW112587   2.597   0.182   8.903
 4017SOL    HW212588   2.551   0.231   9.039
 4018SOL     OW12589   1.946   0.328   7.495
 4018SOL    HW112590   1.876   0.272   7.459
 4018SOL    HW212591   1.952   0.401   7.434
 4019SOL     OW12592   3.288   0.858   8.845
 4019SOL    HW112593   3.238   0.919   8.790
 4019SOL    HW212594   3.376   0.860   8.809
 4020SOL     OW12595   1.923   0.191   7.756
 4020SOL    HW112596   1.926   0.258   7.688
 4020SOL    HW212597   1.997   0.133   7.736
 4021SOL     OW12598   3.040   1.335   7.566
 4021SOL    HW112599   2.950   1.303   7.567
 4021SOL    HW212600   3.067   1.336   7.658
 4022SOL     OW12601   2.482   0.831   8.883
 4022SOL    HW112602   2.539   0.906   8.868
 4022SOL    HW212603   2.543   0.757   8.892
 4023SOL     OW12604   3.345   1.784   8.431
 4023SOL    HW112605   3.368   1.848   8.363
 4023SOL    HW212606   3.429   1.755   8.467
 4024SOL     OW12607   2.578   0.559   9.151
 4024SOL    HW112608   2.621   0.621   9.210
 4024SOL    HW212609   2.602   0.473   9.185
 4025SOL     OW12610   3.335   1.195   9.077
 4025SOL    HW112611   3.323   1.210   9.171
 4025SOL    HW212612   3.428   1.214   9.062
 4026SOL     OW12613   2.240   1.731   9.014
 4026SOL    HW112614   2.155   1.771   8.995
 4026SOL    HW212615   2.219   1.647   9.056
 4027SOL     OW12616   3.527   0.879   8.703
 4027SOL    HW112617   3.522   0.794   8.660
 4027SOL    HW212618   3.517   0.943   8.632
 4028SOL     OW12619   3.084   0.334   7.893
 4028SOL    HW112620   3.153   0.269   7.878
 4028SOL    HW212621   3.112   0.382   7.970
 4029SOL     OW12622   2.444   0.735   8.125
 4029SOL    HW112623   2.488   0.818   8.109
 4029SOL    HW212624   2.381   0.726   8.053
 4030SOL     OW12625   3.618   0.373   9.092
 4030SOL    HW112626   3.604   0.386   8.998
 4030SOL    HW212627   3.542   0.322   9.121
 4031SOL     OW12628   3.612   0.933   8.959
 4031SOL    HW112629   3.600   1.027   8.971
 4031SOL    HW212630   3.593   0.919   8.866
 4032SOL     OW12631   2.724   1.365   7.489
 4032SOL    HW112632   2.688   1.393   7.573
 4032SOL    HW212633   2.742   1.447   7.443
 4033SOL     OW12634   2.524   1.795   8.384
 4033SOL    HW112635   2.536   1.881   8.426
 4033SOL    HW212636   2.613   1.760   8.375
 4034SOL     OW12637   2.731   0.971   8.302
 4034SOL    HW112638   2.782   0.899   8.339
 4034SOL    HW212639   2.692   1.014   8.378
 4035SOL     OW12640   2.941   0.990   7.538
 4035SOL    HW112641   2.918   1.040   7.459
 4035SOL    HW212642   3.014   0.935   7.510
 4036SOL     OW12643   3.712   1.554   8.291
 4036SOL    HW112644   3.632   1.541   8.239
 4036SOL    HW212645   3.707   1.487   8.358
 4037SOL     OW12646   2.087   1.297   9.302
 4037SOL    HW112647   2.025   1.234   9.267
 4037SOL    HW212648   2.060   1.310   9.393
 4038SOL     OW12649   1.952   1.231   8.113
 4038SOL    HW112650   1.957   1.186   8.197
 4038SOL    HW212651   2.018   1.188   8.058
 4039SOL     OW12652   2.546   1.407   9.078
 4039SOL    HW112653   2.467   1.364   9.111
 4039SOL    HW212654   2.543   1.494   9.117
 4040SOL     OW12655   3.663   0.176   8.685
 4040SOL    HW112656   3.660   0.082   8.704
 4040SOL    HW212657   3.683   0.181   8.592
 4041SOL     OW12658   2.300   0.432   7.981
 4041SOL    HW112659   2.319   0.364   7.916
 4041SOL    HW212660   2.243   0.388   8.044
 4042SOL     OW12661   3.558   1.487   8.541
 4042SOL    HW112662   3.479   1.466   8.491
 4042SOL    HW212663   3.564   1.417   8.606
 4043SOL     OW12664   2.197   0.562   8.741
 4043SOL    HW112665   2.251   0.503   8.794
 4043SOL    HW212666   2.215   0.535   8.651
 4044SOL     OW12667   2.691   1.578   8.123
 4044SOL    HW112668   2.670   1.637   8.050
 4044SOL    HW212669   2.619   1.516   8.126
 4045SOL     OW12670   3.292   0.218   8.563
 4045SOL    HW112671   3.327   0.146   8.615
 4045SOL    HW212672   3.241   0.270   8.625
 4046SOL     OW12673   2.856   4.500   8.603
 4046SOL    HW112674   2.819   4.411   8.600
 4046SOL    HW212675   2.951   4.486   8.610
 4047SOL     OW12676   2.636   1.334   7.768
 4047SOL    HW112677   2.608   1.243   7.775
 4047SOL    HW212678   2.718   1.337   7.817
 4048SOL     OW12679   2.483   1.554   8.731
 4048SOL    HW112680   2.484   1.634   8.784
 4048SOL    HW212681   2.572   1.547   8.696
 4049SOL     OW12682   3.200   0.051   7.611
 4049SOL    HW112683   3.238   4.475   7.565
 4049SOL    HW212684   3.123   0.016   7.655
 4050SOL     OW12685   3.178   0.467   8.118
 4050SOL    HW112686   3.122   0.544   8.120
 4050SOL    HW212687   3.166   0.427   8.204
 4051SOL     OW12688   3.448   0.197   8.318
 4051SOL    HW112689   3.390   0.213   8.393
 4051SOL    HW212690   3.450   0.280   8.271
 4052SOL     OW12691   1.906   1.066   7.756
 4052SOL    HW112692   1.999   1.057   7.737
 4052SOL    HW212693   1.877   0.977   7.778
 4053SOL     OW12694   2.750   1.659   7.787
 4053SOL    HW112695   2.676   1.642   7.729
 4053SOL    HW212696   2.722   1.732   7.842
 4054SOL     OW12697   2.086   0.624   9.435
 4054SOL    HW112698   1.999   0.617   9.476
 4054SOL    HW212699   2.072   0.597   9.344
 4055SOL     OW12700   2.066   0.303  10.301
 4055SOL    HW112701   2.098   0.270  10.385
 4055SOL    HW212702   1.985   0.255  10.285
 4056SOL     OW12703   1.867   0.393   9.944
 4056SOL    HW112704   1.781   0.409   9.983
 4056SOL    HW212705   1.852   0.321   9.883
 4057SOL     OW12706   2.431   1.295  10.494
 4057SOL    HW112707   2.345   1.297  10.453
 4057SOL    HW212708   2.446   1.385  10.524
 4058SOL     OW12709   3.432   1.514  10.018
 4058SOL    HW112710   3.389   1.491  10.101
 4058SOL    HW212711   3.361   1.517   9.954
 4059SOL     OW12712   3.003   0.696  10.003
 4059SOL    HW112713   3.046   0.781   9.995
 4059SOL    HW212714   2.950   0.703  10.082
 4060SOL     OW12715   3.639   0.601   9.535
 4060SOL    HW112716   3.613   0.595   9.443
 4060SOL    HW212717   3.601   0.524   9.576
 4061SOL     OW12718   2.612   1.140  10.358
 4061SOL    HW112719   2.545   1.177  10.415
 4061SOL    HW212720   2.649   1.216  10.312
 4062SOL     OW12721   2.726   0.765   0.026
 4062SOL    HW112722   2.730   0.820   0.104
 4062SOL    HW212723   2.757   0.822  11.056
 4063SOL     OW12724   2.548   0.997   9.954
 4063SOL    HW112725   2.614   0.989  10.023
 4063SOL    HW212726   2.479   1.051   9.993
 4064SOL     OW12727   2.195   1.415  10.377
 4064SOL    HW112728   2.119   1.377  10.333
 4064SOL    HW212729   2.240   1.464  10.309
 4065SOL     OW12730   3.324   1.500  10.666
 4065SOL    HW112731   3.383   1.575  10.672
 4065SOL    HW212732   3.257   1.517  10.733
 4066SOL     OW12733   2.316   0.391  10.776
 4066SOL    HW112734   2.392   0.334  10.786
 4066SOL    HW212735   2.244   0.341  10.816
 4067SOL     OW12736   3.468   0.441  10.049
 4067SOL    HW112737   3.388   0.459   9.999
 4067SOL    HW212738   3.480   0.518  10.104
 4068SOL     OW12739   2.078   1.706   9.771
 4068SOL    HW112740   2.103   1.775   9.833
 4068SOL    HW212741   2.155   1.696   9.715
 4069SOL     OW12742   2.097   1.440   9.850
 4069SOL    HW112743   2.071   1.532   9.847
 4069SOL    HW212744   2.037   1.400   9.912
 4070SOL     OW12745   2.129   1.091  10.203
 4070SOL    HW112746   2.123   1.003  10.240
 4070SOL    HW212747   2.070   1.144  10.256
 4071SOL     OW12748   2.462   1.790  10.729
 4071SOL    HW112749   2.386   1.771  10.784
 4071SOL    HW212750   2.491   1.877  10.757
 4072SOL     OW12751   2.441   0.985   9.449
 4072SOL    HW112752   2.490   1.030   9.380
 4072SOL    HW212753   2.481   1.016   9.530
 4073SOL     OW12754   3.412   0.138  10.791
 4073SOL    HW112755   3.450   0.196  10.725
 4073SOL    HW212756   3.483   0.124  10.854
 4074SOL     OW12757   1.981   0.656   9.871
 4074SOL    HW112758   1.950   0.568   9.893
 4074SOL    HW212759   1.973   0.705   9.952
 4075SOL     OW12760   3.705   1.755   9.641
 4075SOL    HW112761   3.773   1.729   9.703
 4075SOL    HW212762   3.724   1.847   9.622
 4076SOL     OW12763   1.904   1.591   9.430
 4076SOL    HW112764   1.882   1.499   9.448
 4076SOL    HW212765   1.874   1.639   9.507
 4077SOL     OW12766   3.553   0.921   9.956
 4077SOL    HW112767   3.635   0.876   9.934
 4077SOL    HW212768   3.530   0.971   9.878
 4078SOL     OW12769   3.511   1.104   9.739
 4078SOL    HW112770   3.598   1.105   9.698
 4078SOL    HW212771   3.517   1.167   9.810
 4079SOL     OW12772   1.993   0.725  10.922
 4079SOL    HW112773   2.085   0.744  10.904
 4079SOL    HW212774   1.949   0.809  10.913
 4080SOL     OW12775   2.480   1.387  10.043
 4080SOL    HW112776   2.435   1.304  10.052
 4080SOL    HW212777   2.463   1.415   9.953
 4081SOL     OW12778   3.149   1.235  10.754
 4081SOL    HW112779   3.174   1.174  10.684
 4081SOL    HW212780   3.207   1.213  10.827
 4082SOL     OW12781   2.684   0.021   9.868
 4082SOL    HW112782   2.722   0.104   9.839
 4082SOL    HW212783   2.590   0.034   9.860
 4083SOL     OW12784   2.051   0.960  10.582
 4083SOL    HW112785   2.136   0.919  10.567
 4083SOL    HW212786   1.990   0.909  10.528
 4084SOL     OW12787   3.394   0.998   9.510
 4084SOL    HW112788   3.324   0.941   9.543
 4084SOL    HW212789   3.436   1.032   9.589
 4085SOL     OW12790   3.059   1.807  10.930
 4085SOL    HW112791   3.055   1.874  10.862
 4085SOL    HW212792   3.070   1.725  10.883
 4086SOL     OW12793   2.198   0.283  11.083
 4086SOL    HW112794   2.253   0.345   0.031
 4086SOL    HW212795   2.115   0.284   0.029
 4087SOL     OW12796   3.330   1.419  10.257
 4087SOL    HW112797   3.263   1.436  10.322
 4087SOL    HW212798   3.317   1.328  10.231
 4088SOL     OW12799   3.515   1.752   9.887
 4088SOL    HW112800   3.498   1.718   9.799
 4088SOL    HW212801   3.496   1.678   9.945
 4089SOL     OW12802   2.452   0.721   9.578
 4089SOL    HW112803   2.454   0.805   9.532
 4089SOL    HW212804   2.387   0.733   9.647
 4090SOL     OW12805   3.156   0.374  10.240
 4090SOL    HW112806   3.067   0.344  10.223
 4090SOL    HW212807   3.191   0.311  10.302
 4091SOL     OW12808   3.440   1.673   9.620
 4091SOL    HW112809   3.532   1.699   9.612
 4091SOL    HW212810   3.412   1.656   9.530
 4092SOL     OW12811   2.659   0.620  10.762
 4092SOL    HW112812   2.627   0.594  10.848
 4092SOL    HW212813   2.627   0.552  10.702
 4093SOL     OW12814   2.828   0.903  10.909
 4093SOL    HW112815   2.877   0.832  10.867
 4093SOL    HW212816   2.776   0.941  10.839
 4094SOL     OW12817   2.863   0.420  10.538
 4094SOL    HW112818   2.772   0.426  10.569
 4094SOL    HW212819   2.859   0.363  10.461
 4095SOL     OW12820   2.914   0.698   9.735
 4095SOL    HW112821   2.933   0.690   9.828
 4095SOL    HW212822   2.829   0.655   9.723
 4096SOL     OW12823   1.951   0.822  10.087
 4096SOL    HW112824   2.031   0.815  10.139
 4096SOL    HW212825   1.905   0.899  10.123
 4097SOL     OW12826   1.994   1.845  10.902
 4097SOL    HW112827   1.964   1.812  10.987
 4097SOL    HW212828   1.914   1.852  10.849
 4098SOL     OW12829   2.720   0.372   9.503
 4098SOL    HW112830   2.784   0.405   9.440
 4098SOL    HW212831   2.730   0.277   9.499
 4099SOL     OW12832   3.243   1.143   9.849
 4099SOL    HW112833   3.322   1.131   9.796
 4099SOL    HW212834   3.189   1.205   9.799
 4100SOL     OW12835   2.397   0.210  10.213
 4100SOL    HW112836   2.419   0.228  10.305
 4100SOL    HW212837   2.393   0.296  10.172
 4101SOL     OW12838   2.863   1.444   9.779
 4101SOL    HW112839   2.831   1.519   9.729
 4101SOL    HW212840   2.840   1.464   9.870
 4102SOL     OW12841   2.219   1.799  10.189
 4102SOL    HW112842   2.247   1.708  10.188
 4102SOL    HW212843   2.297   1.848  10.217
 4103SOL     OW12844   3.662   1.056  10.182
 4103SOL    HW112845   3.610   1.033  10.105
 4103SOL    HW212846   3.598   1.061  10.253
 4104SOL     OW12847   3.092   1.534  10.820
 4104SOL    HW112848   3.104   1.443  10.849
 4104SOL    HW212849   3.022   1.529  10.755
 4105SOL     OW12850   2.176   0.959   9.563
 4105SOL    HW112851   2.259   0.979   9.518
 4105SOL    HW212852   2.147   0.876   9.526
 4106SOL     OW12853   3.344   0.748  10.031
 4106SOL    HW112854   3.338   0.708  10.117
 4106SOL    HW212855   3.422   0.804  10.037
 4107SOL     OW12856   2.314   1.264  11.054
 4107SOL    HW112857   2.284   1.281  10.965
 4107SOL    HW212858   2.260   1.190  11.084
 4108SOL     OW12859   2.986   1.778   9.539
 4108SOL    HW112860   2.910   1.738   9.582
 4108SOL    HW212861   3.011   1.715   9.471
 4109SOL     OW12862   2.060   0.264  10.825
 4109SOL    HW112863   1.991   0.331  10.821
 4109SOL    HW212864   2.089   0.265  10.916
 4110SOL     OW12865   3.491   1.382   9.400
 4110SOL    HW112866   3.449   1.467   9.385
 4110SOL    HW212867   3.423   1.318   9.380
 4111SOL     OW12868   2.327   1.728   9.633
 4111SOL    HW112869   2.371   1.789   9.691
 4111SOL    HW212870   2.396   1.695   9.576
 4112SOL     OW12871   3.291   0.148   9.732
 4112SOL    HW112872   3.274   0.090   9.658
 4112SOL    HW212873   3.384   0.134   9.752
 4113SOL     OW12874   2.104   1.786  10.547
 4113SOL    HW112875   2.163   1.723  10.589
 4113SOL    HW212876   2.114   1.770  10.453
 4114SOL     OW12877   2.798   1.699  10.210
 4114SOL    HW112878   2.879   1.651  10.228
 4114SOL    HW212879   2.756   1.650  10.139
 4115SOL     OW12880   2.258   0.692   9.783
 4115SOL    HW112881   2.278   0.600   9.799
 4115SOL    HW212882   2.164   0.699   9.801
 4116SOL     OW12883   2.497   0.123   9.435
 4116SOL    HW112884   2.584   0.086   9.446
 4116SOL    HW212885   2.462   0.080   9.356
 4117SOL     OW12886   2.616   0.268  11.050
 4117SOL    HW112887   2.687   0.206  11.065
 4117SOL    HW212888   2.595   0.303   0.036
 4118SOL     OW12889   2.738   1.523  10.505
 4118SOL    HW112890   2.722   1.487  10.418
 4118SOL    HW212891   2.810   1.471  10.540
 4119SOL     OW12892   3.205   0.593  10.754
 4119SOL    HW112893   3.258   0.574  10.832
 4119SOL    HW212894   3.230   0.682  10.730
 4120SOL     OW12895   2.680   1.391  10.255
 4120SOL    HW112896   2.765   1.379  10.212
 4120SOL    HW212897   2.618   1.395  10.183
 4121SOL     OW12898   2.788   0.527  10.205
 4121SOL    HW112899   2.771   0.523  10.111
 4121SOL    HW212900   2.818   0.438  10.228
 4122SOL     OW12901   2.419   0.086   9.836
 4122SOL    HW112902   2.334   0.049   9.860
 4122SOL    HW212903   2.401   0.143   9.761
 4123SOL     OW12904   3.290   1.200   9.350
 4123SOL    HW112905   3.320   1.125   9.401
 4123SOL    HW212906   3.205   1.222   9.386
 4124SOL     OW12907   2.154   0.062   9.517
 4124SOL    HW112908   2.229   0.120   9.504
 4124SOL    HW212909   2.183   0.000   9.584
 4125SOL     OW12910   2.821   0.240   9.771
 4125SOL    HW112911   2.769   0.306   9.726
 4125SOL    HW212912   2.911   0.272   9.765
 4126SOL     OW12913   2.941   0.692  10.772
 4126SOL    HW112914   2.869   0.628  10.772
 4126SOL    HW212915   3.020   0.638  10.770
 4127SOL     OW12916   3.080   1.574  10.106
 4127SOL    HW112917   3.095   1.638  10.036
 4127SOL    HW212918   3.151   1.589  10.168
 4128SOL     OW12919   2.334   1.153  10.038
 4128SOL    HW112920   2.268   1.132  10.103
 4128SOL    HW212921   2.291   1.139   9.954
 4129SOL     OW12922   3.127   1.792   9.922
 4129SOL    HW112923   3.174   1.854   9.867
 4129SOL    HW212924   3.058   1.845   9.963
 4130SOL     OW12925   2.888   0.540   9.332
 4130SOL    HW112926   2.841   0.622   9.316
 4130SOL    HW212927   2.946   0.560   9.405
 4131SOL     OW12928   1.949   0.544  10.715
 4131SOL    HW112929   2.039   0.553  10.683
 4131SOL    HW212930   1.943   0.607  10.787
 4132SOL     OW12931   2.420   0.248  10.482
 4132SOL    HW112932   2.438   0.162  10.519
 4132SOL    HW212933   2.329   0.266  10.505
 4133SOL     OW12934   2.725   0.505   9.939
 4133SOL    HW112935   2.690   0.540   9.857
 4133SOL    HW212936   2.674   0.426   9.956
 4134SOL     OW12937   2.809   0.011  10.113
 4134SOL    HW112938   2.767   0.015  10.027
 4134SOL    HW212939   2.827   4.418  10.126
 4135SOL     OW12940   3.299   1.161  10.166
 4135SOL    HW112941   3.231   1.094  10.167
 4135SOL    HW212942   3.325   1.169  10.074
 4136SOL     OW12943   3.325   0.611  10.276
 4136SOL    HW112944   3.269   0.534  10.276
 4136SOL    HW212945   3.381   0.600  10.354
 4137SOL     OW12946   3.703   0.812   9.695
 4137SOL    HW112947   3.761   0.763   9.753
 4137SOL    HW212948   3.678   0.749   9.627
 4138SOL     OW12949   2.351   1.422   9.462
 4138SOL    HW112950   2.275   1.393   9.513
 4138SOL    HW212951   2.344   1.372   9.380
 4139SOL     OW12952   3.538   1.265   9.951
 4139SOL    HW112953   3.632   1.264   9.967
 4139SOL    HW212954   3.511   1.354   9.973
 4140SOL     OW12955   3.257   0.574   9.379
 4140SOL    HW112956   3.194   0.557   9.449
 4140SOL    HW212957   3.342   0.558   9.420
 4141SOL     OW12958   2.376   0.264   9.629
 4141SOL    HW112959   2.430   0.216   9.566
 4141SOL    HW212960   2.357   0.347   9.586
 4142SOL     OW12961   3.617   1.229  10.852
 4142SOL    HW112962   3.709   1.202  10.849
 4142SOL    HW212963   3.618   1.314  10.896
 4143SOL     OW12964   2.920   1.356  10.650
 4143SOL    HW112965   2.842   1.322  10.693
 4143SOL    HW212966   2.992   1.306  10.689
 4144SOL     OW12967   2.999   1.216  10.412
 4144SOL    HW112968   2.928   1.243  10.470
 4144SOL    HW212969   2.971   1.244  10.325
 4145SOL     OW12970   3.486   1.096  10.388
 4145SOL    HW112971   3.481   1.158  10.460
 4145SOL    HW212972   3.409   1.115  10.334
 4146SOL     OW12973   2.752   0.130  10.694
 4146SOL    HW112974   2.778   0.088  10.612
 4146SOL    HW212975   2.834   0.161  10.733
 4147SOL     OW12976   2.572   1.063   9.681
 4147SOL    HW112977   2.557   1.043   9.773
 4147SOL    HW212978   2.647   1.009   9.656
 4148SOL     OW12979   2.286   0.819  10.561
 4148SOL    HW112980   2.353   0.827  10.628
 4148SOL    HW212981   2.250   0.731  10.574
 4149SOL     OW12982   3.133   0.383  10.585
 4149SOL    HW112983   3.163   0.459  10.635
 4149SOL    HW212984   3.043   0.405  10.559
 4150SOL     OW12985   1.933   1.575  10.665
 4150SOL    HW112986   1.906   1.649  10.612
 4150SOL    HW212987   2.029   1.576  10.661
 4151SOL     OW12988   2.202   1.116   9.799
 4151SOL    HW112989   2.205   1.189   9.737
 4151SOL    HW212990   2.200   1.038   9.744
 4152SOL     OW12991   2.414   0.522  10.168
 4152SOL    HW112992   2.425   0.582  10.094
 4152SOL    HW212993   2.481   0.549  10.231
 4153SOL     OW12994   3.110   1.350   9.700
 4153SOL    HW112995   3.165   1.421   9.732
 4153SOL    HW212996   3.022   1.371   9.733
 4154SOL     OW12997   3.149   1.462  10.455
 4154SOL    HW112998   3.206   1.464  10.532
 4154SOL    HW212999   3.096   1.383  10.466
 4155SOL     OW13000   3.439   0.623   9.790
 4155SOL    HW113001   3.391   0.666   9.860
 4155SOL    HW213002   3.484   0.694   9.744
 4156SOL     OW13003   2.209   1.526  10.621
 4156SOL    HW113004   2.195   1.482  10.537
 4156SOL    HW213005   2.304   1.538  10.626
 4157SOL     OW13006   2.279   0.732  10.904
 4157SOL    HW113007   2.344   0.774  10.848
 4157SOL    HW213008   2.312   0.643  10.918
 4158SOL     OW13009   3.463   0.753  10.965
 4158SOL    HW113010   3.385   0.806  10.952
 4158SOL    HW213011   3.533   0.804  10.924
 4159SOL     OW13012   2.446   0.874  10.340
 4159SOL    HW113013   2.478   0.965  10.344
 4159SOL    HW213014   2.390   0.866  10.417
 4160SOL     OW13015   3.211   0.861  10.339
 4160SOL    HW113016   3.125   0.847  10.299
 4160SOL    HW213017   3.257   0.778  10.328
 4161SOL     OW13018   3.059   0.537   9.566
 4161SOL    HW113019   3.067   0.457   9.619
 4161SOL    HW213020   3.017   0.600   9.624
 4162SOL     OW13021   2.149   0.228  10.552
 4162SOL    HW113022   2.111   0.246  10.638
 4162SOL    HW213023   2.191   0.143  10.562
 4163SOL     OW13024   1.916   1.313  10.581
 4163SOL    HW113025   1.942   1.257  10.654
 4163SOL    HW213026   1.914   1.401  10.618
 4164SOL     OW13027   2.582   0.630  10.362
 4164SOL    HW113028   2.658   0.614  10.306
 4164SOL    HW213029   2.554   0.718  10.341
 4165SOL     OW13030   2.155   0.045   9.960
 4165SOL    HW113031   2.143   0.140   9.960
 4165SOL    HW213032   2.168   0.022  10.052
 4166SOL     OW13033   3.486   0.386   9.663
 4166SOL    HW113034   3.508   0.319   9.728
 4166SOL    HW213035   3.460   0.462   9.716
 4167SOL     OW13036   2.895   0.766  10.271
 4167SOL    HW113037   2.885   0.781  10.365
 4167SOL    HW213038   2.864   0.677  10.257
 4168SOL     OW13039   2.833   1.573  11.004
 4168SOL    HW113040   2.818   1.623  10.924
 4168SOL    HW213041   2.859   1.486  10.974
 4169SOL     OW13042   3.713   1.487  10.911
 4169SOL    HW113043   3.734   1.525  10.826
 4169SOL    HW213044   3.777   1.526  10.971
 4170SOL     OW13045   2.225   0.919  11.093
 4170SOL    HW113046   2.308   0.933   0.039
 4170SOL    HW213047   2.245   0.852  11.028
 4171SOL     OW13048   3.389   0.261   9.437
 4171SOL    HW113049   3.321   0.203   9.472
 4171SOL    HW213050   3.422   0.308   9.514
 4172SOL     OW13051   3.149   0.826   9.338
 4172SOL    HW113052   3.191   0.740   9.341
 4172SOL    HW213053   3.181   0.865   9.256
 4173SOL     OW13054   2.930   1.338  10.166
 4173SOL    HW113055   2.935   1.266  10.103
 4173SOL    HW213056   2.989   1.405  10.130
 4174SOL     OW13057   2.170   0.810  10.256
 4174SOL    HW113058   2.263   0.831  10.248
 4174SOL    HW213059   2.168   0.720  10.288
 4175SOL     OW13060   2.195   0.536  10.324
 4175SOL    HW113061   2.152   0.452  10.306
 4175SOL    HW213062   2.272   0.535  10.267
 4176SOL     OW13063   3.003   0.216  10.769
 4176SOL    HW113064   3.052   0.230  10.850
 4176SOL    HW213065   3.049   0.270  10.704
 4177SOL     OW13066   1.870   1.317   9.504
 4177SOL    HW113067   1.783   1.334   9.468
 4177SOL    HW213068   1.865   1.228   9.539
 4178SOL     OW13069   1.948   1.790  10.246
 4178SOL    HW113070   1.917   1.711  10.203
 4178SOL    HW213071   2.041   1.796  10.223
 4179SOL     OW13072   2.358   1.567  10.212
 4179SOL    HW113073   2.425   1.633  10.231
 4179SOL    HW213074   2.401   1.504  10.155
 4180SOL     OW13075   2.835   0.794  10.536
 4180SOL    HW113076   2.894   0.775  10.609
 4180SOL    HW213077   2.756   0.745  10.555
 4181SOL     OW13078   1.895   0.548  10.433
 4181SOL    HW113079   1.971   0.529  10.378
 4181SOL    HW213080   1.929   0.547  10.522
 4182SOL     OW13081   2.672   0.579   9.673
 4182SOL    HW113082   2.679   0.507   9.609
 4182SOL    HW213083   2.599   0.632   9.642
 4183SOL     OW13084   3.499   0.601  10.491
 4183SOL    HW113085   3.490   0.545  10.568
 4183SOL    HW213086   3.587   0.584  10.459
 4184SOL     OW13087   2.122   1.560  11.049
 4184SOL    HW113088   2.058   1.586   0.016
 4184SOL    HW213089   2.139   1.467  11.067
 4185SOL     OW13090   2.580   0.453  10.568
 4185SOL    HW113091   2.525   0.379  10.543
 4185SOL    HW213092   2.572   0.515  10.495
 4186SOL     OW13093   2.799   1.679  10.754
 4186SOL    HW113094   2.769   1.643  10.671
 4186SOL    HW213095   2.787   1.774  10.745
 4187SOL     OW13096   2.322   0.492   9.491
 4187SOL    HW113097   2.382   0.563   9.514
 4187SOL    HW213098   2.237   0.535   9.479
 4188SOL     OW13099   2.014   1.140  10.779
 4188SOL    HW113100   2.007   1.088  10.859
 4188SOL    HW213101   2.027   1.075  10.709
 4189SOL     OW13102   3.181   1.051  10.537
 4189SOL    HW113103   3.206   0.985  10.473
 4189SOL    HW213104   3.117   1.106  10.493
 4190SOL     OW13105   3.178   0.857   9.614
 4190SOL    HW113106   3.105   0.827   9.667
 4190SOL    HW213107   3.149   0.844   9.523
 4191SOL     OW13108   3.646   1.739  10.466
 4191SOL    HW113109   3.704   1.764  10.395
 4191SOL    HW213110   3.616   1.651  10.443
 4192SOL     OW13111   3.102   1.733  10.417
 4192SOL    HW113112   3.185   1.758  10.375
 4192SOL    HW213113   3.112   1.640  10.436
 4193SOL     OW13114   1.951   1.266  10.319
 4193SOL    HW113115   1.936   1.281  10.412
 4193SOL    HW213116   1.877   1.212  10.291
 4194SOL     OW13117   3.583   0.128   9.793
 4194SOL    HW113118   3.650   0.142   9.726
 4194SOL    HW213119   3.619   0.058   9.848
 4195SOL     OW13120   3.254   1.568   9.800
 4195SOL    HW113121   3.313   1.601   9.732
 4195SOL    HW213122   3.204   1.644   9.828
 4196SOL     OW13123   3.142   0.931   9.984
 4196SOL    HW113124   3.215   0.869   9.991
 4196SOL    HW213125   3.176   1.002   9.929
 4197SOL     OW13126   2.671   1.277  10.733
 4197SOL    HW113127   2.641   1.311  10.817
 4197SOL    HW213128   2.600   1.296  10.672
 4198SOL     OW13129   2.531   1.625   9.466
 4198SOL    HW113130   2.545   1.639   9.372
 4198SOL    HW213131   2.475   1.547   9.470
 4199SOL     OW13132   3.476   1.723  10.689
 4199SOL    HW113133   3.537   1.736  10.616
 4199SOL    HW213134   3.462   1.811  10.724
 4200SOL     OW13135   3.702   0.152  10.276
 4200SOL    HW113136   3.734   0.073  10.233
 4200SOL    HW213137   3.616   0.167  10.238
 4201SOL     OW13138   2.121   0.315  10.022
 4201SOL    HW113139   2.036   0.353   9.998
 4201SOL    HW213140   2.119   0.310  10.118
 4202SOL     OW13141   3.070   1.602   9.343
 4202SOL    HW113142   3.059   1.511   9.370
 4202SOL    HW213143   3.004   1.615   9.275
 4203SOL     OW13144   2.687   1.006  10.693
 4203SOL    HW113145   2.730   0.991  10.609
 4203SOL    HW213146   2.686   1.101  10.703
 4204SOL     OW13147   2.779   0.911   9.601
 4204SOL    HW113148   2.840   0.944   9.534
 4204SOL    HW213149   2.827   0.843   9.647
 4205SOL     OW13150   3.351   1.628   9.355
 4205SOL    HW113151   3.257   1.618   9.340
 4205SOL    HW213152   3.389   1.634   9.267
 4206SOL     OW13153   2.224   1.314  10.809
 4206SOL    HW113154   2.212   1.386  10.747
 4206SOL    HW213155   2.153   1.253  10.789
 4207SOL     OW13156   3.475   1.281  10.594
 4207SOL    HW113157   3.528   1.261  10.671
 4207SOL    HW213158   3.417   1.352  10.623
 4208SOL     OW13159   2.921   1.110  10.020
 4208SOL    HW113160   2.849   1.060  10.057
 4208SOL    HW213161   2.986   1.044   9.994
 4209SOL     OW13162   2.863   0.248  10.323
 4209SOL    HW113163   2.871   0.233  10.229
 4209SOL    HW213164   2.852   0.161  10.361
 4210SOL     OW13165   2.469   1.489   9.790
 4210SOL    HW113166   2.517   1.438   9.725
 4210SOL    HW213167   2.393   1.523   9.742
 4211SOL     OW13168   3.584   0.393  10.693
 4211SOL    HW113169   3.658   0.453  10.695
 4211SOL    HW213170   3.611   0.323  10.633
 4212SOL     OW13171   2.125   1.343   9.603
 4212SOL    HW113172   2.032   1.340   9.578
 4212SOL    HW213173   2.125   1.380   9.691
 4213SOL     OW13174   1.984   1.013  11.016
 4213SOL    HW113175   1.916   1.007  11.084
 4213SOL    HW213176   2.063   0.981  11.058
 4214SOL     OW13177   2.508   0.180  10.813
 4214SOL    HW113178   2.586   0.160  10.761
 4214SOL    HW213179   2.541   0.219  10.893
 4215SOL     OW13180   1.946   0.328   9.357
 4215SOL    HW113181   1.876   0.272   9.321
 4215SOL    HW213182   1.952   0.401   9.296
 4216SOL     OW13183   3.289   0.852  10.711
 4216SOL    HW113184   3.239   0.919  10.665
 4216SOL    HW213185   3.377   0.859  10.675
 4217SOL     OW13186   1.923   0.191   9.618
 4217SOL    HW113187   1.926   0.258   9.550
 4217SOL    HW213188   1.997   0.133   9.598
 4218SOL     OW13189   3.040   1.335   9.427
 4218SOL    HW113190   2.950   1.304   9.429
 4218SOL    HW213191   3.067   1.336   9.519
 4219SOL     OW13192   2.484   0.829  10.746
 4219SOL    HW113193   2.541   0.905  10.732
 4219SOL    HW213194   2.545   0.755  10.752
 4220SOL     OW13195   3.344   1.783  10.292
 4220SOL    HW113196   3.368   1.848  10.225
 4220SOL    HW213197   3.427   1.755  10.329
 4221SOL     OW13198   2.573   0.568  11.011
 4221SOL    HW113199   2.616   0.636  11.063
 4221SOL    HW213200   2.614   0.486  11.040
 4222SOL     OW13201   2.247   1.737  10.883
 4222SOL    HW113202   2.167   1.789  10.869
 4222SOL    HW213203   2.219   1.665  10.939
 4223SOL     OW13204   3.527   0.880  10.568
 4223SOL    HW113205   3.522   0.795  10.524
 4223SOL    HW213206   3.518   0.944  10.497
 4224SOL     OW13207   3.084   0.334   9.755
 4224SOL    HW113208   3.153   0.269   9.740
 4224SOL    HW213209   3.112   0.382   9.832
 4225SOL     OW13210   2.444   0.735   9.987
 4225SOL    HW113211   2.488   0.818   9.971
 4225SOL    HW213212   2.381   0.726   9.915
 4226SOL     OW13213   3.606   0.313  10.959
 4226SOL    HW113214   3.589   0.351  10.873
 4226SOL    HW213215   3.529   0.336  11.011
 4227SOL     OW13216   3.614   0.935  10.825
 4227SOL    HW113217   3.603   1.029  10.838
 4227SOL    HW213218   3.594   0.921  10.732
 4228SOL     OW13219   2.725   1.366   9.351
 4228SOL    HW113220   2.688   1.393   9.435
 4228SOL    HW213221   2.742   1.447   9.304
 4229SOL     OW13222   2.514   1.795  10.249
 4229SOL    HW113223   2.502   1.867  10.312
 4229SOL    HW213224   2.609   1.784  10.244
 4230SOL     OW13225   2.731   0.971  10.164
 4230SOL    HW113226   2.782   0.899  10.200
 4230SOL    HW213227   2.693   1.014  10.240
 4231SOL     OW13228   2.941   0.990   9.400
 4231SOL    HW113229   2.918   1.040   9.321
 4231SOL    HW213230   3.014   0.935   9.372
 4232SOL     OW13231   3.712   1.554  10.152
 4232SOL    HW113232   3.632   1.541  10.101
 4232SOL    HW213233   3.708   1.487  10.220
 4233SOL     OW13234   1.950   1.230   9.975
 4233SOL    HW113235   1.955   1.185  10.060
 4233SOL    HW213236   2.017   1.188   9.922
 4234SOL     OW13237   2.541   1.397  10.944
 4234SOL    HW113238   2.472   1.345  10.985
 4234SOL    HW213239   2.497   1.477  10.915
 4235SOL     OW13240   3.656   0.175  10.548
 4235SOL    HW113241   3.676   0.084  10.569
 4235SOL    HW213242   3.675   0.183  10.455
 4236SOL     OW13243   2.300   0.432   9.843
 4236SOL    HW113244   2.319   0.364   9.778
 4236SOL    HW213245   2.243   0.388   9.907
 4237SOL     OW13246   3.560   1.488  10.404
 4237SOL    HW113247   3.481   1.466  10.355
 4237SOL    HW213248   3.568   1.418  10.469
 4238SOL     OW13249   2.195   0.563  10.602
 4238SOL    HW113250   2.248   0.503  10.654
 4238SOL    HW213251   2.211   0.536  10.511
 4239SOL     OW13252   2.692   1.580   9.986
 4239SOL    HW113253   2.672   1.641   9.916
 4239SOL    HW213254   2.619   1.518   9.987
 4240SOL     OW13255   3.291   0.220  10.426
 4240SOL    HW113256   3.331   0.151  10.480
 4240SOL    HW213257   3.242   0.274  10.488
 4241SOL     OW13258   2.855   0.001  10.464
 4241SOL    HW113259   2.819   4.413  10.457
 4241SOL    HW213260   2.950   4.488  10.469
 4242SOL     OW13261   2.636   1.334   9.630
 4242SOL    HW113262   2.608   1.243   9.637
 4242SOL    HW213263   2.718   1.337   9.679
 4243SOL     OW13264   2.483   1.552  10.599
 4243SOL    HW113265   2.481   1.637  10.642
 4243SOL    HW213266   2.571   1.547  10.562
 4244SOL     OW13267   3.200   0.051   9.473
 4244SOL    HW113268   3.238   4.475   9.427
 4244SOL    HW213269   3.123   0.016   9.517
 4245SOL     OW13270   3.178   0.467   9.980
 4245SOL    HW113271   3.122   0.544   9.982
 4245SOL    HW213272   3.166   0.427  10.066
 4246SOL     OW13273   3.448   0.197  10.180
 4246SOL    HW113274   3.389   0.213  10.255
 4246SOL    HW213275   3.450   0.280  10.133
 4247SOL     OW13276   1.905   1.066   9.618
 4247SOL    HW113277   1.999   1.058   9.599
 4247SOL    HW213278   1.877   0.978   9.640
 4248SOL     OW13279   2.750   1.659   9.648
 4248SOL    HW113280   2.676   1.641   9.590
 4248SOL    HW213281   2.721   1.731   9.703
 4249SOL     OW13282   2.066   2.527   0.120
 4249SOL    HW113283   1.980   2.497   0.149
 4249SOL    HW213284   2.103   2.452   0.073
 4250SOL     OW13285   1.854   2.256   0.623
 4250SOL    HW113286   1.775   2.275   0.673
 4250SOL    HW213287   1.838   2.170   0.585
 4251SOL     OW13288   2.429   3.157   1.182
 4251SOL    HW113289   2.344   3.163   1.140
 4251SOL    HW213290   2.446   3.246   1.214
 4252SOL     OW13291   3.431   3.375   0.708
 4252SOL    HW113292   3.388   3.352   0.790
 4252SOL    HW213293   3.361   3.378   0.644
 4253SOL     OW13294   2.994   2.560   0.696
 4253SOL    HW113295   3.042   2.642   0.684
 4253SOL    HW213296   2.948   2.571   0.779
 4254SOL     OW13297   3.641   2.461   0.210
 4254SOL    HW113298   3.578   2.477   0.140
 4254SOL    HW213299   3.604   2.389   0.260
 4255SOL     OW13300   2.607   2.999   1.045
 4255SOL    HW113301   2.542   3.037   1.103
 4255SOL    HW213302   2.647   3.074   1.002
 4256SOL     OW13303   2.734   2.627   1.823
 4256SOL    HW113304   2.726   2.697   1.887
 4256SOL    HW213305   2.757   2.671   1.742
 4257SOL     OW13306   2.550   2.863   0.644
 4257SOL    HW113307   2.615   2.852   0.714
 4257SOL    HW213308   2.481   2.916   0.684
 4258SOL     OW13309   2.576   3.013   1.816
 4258SOL    HW113310   2.624   3.090   1.846
 4258SOL    HW213311   2.495   3.048   1.778
 4259SOL     OW13312   2.193   3.280   1.067
 4259SOL    HW113313   2.119   3.241   1.020
 4259SOL    HW213314   2.239   3.332   1.001
 4260SOL     OW13315   3.321   3.364   1.360
 4260SOL    HW113316   3.375   3.442   1.369
 4260SOL    HW213317   3.253   3.373   1.427
 4261SOL     OW13318   3.468   2.305   0.744
 4261SOL    HW113319   3.393   2.324   0.688
 4261SOL    HW213320   3.475   2.382   0.801
 4262SOL     OW13321   2.080   3.577   0.471
 4262SOL    HW113322   2.101   3.653   0.524
 4262SOL    HW213323   2.153   3.571   0.409
 4263SOL     OW13324   2.999   3.205   1.694
 4263SOL    HW113325   3.041   3.198   1.781
 4263SOL    HW213326   2.948   3.125   1.686
 4264SOL     OW13327   2.090   3.306   0.534
 4264SOL    HW113328   2.073   3.401   0.533
 4264SOL    HW213329   2.030   3.272   0.601
 4265SOL     OW13330   2.127   2.959   0.891
 4265SOL    HW113331   2.121   2.870   0.925
 4265SOL    HW213332   2.067   3.010   0.945
 4266SOL     OW13333   2.466   3.653   1.428
 4266SOL    HW113334   2.385   3.636   1.475
 4266SOL    HW213335   2.491   3.742   1.454
 4267SOL     OW13336   2.442   2.850   0.148
 4267SOL    HW113337   2.490   2.901   0.083
 4267SOL    HW213338   2.480   2.877   0.232
 4268SOL     OW13339   3.457   1.989   1.465
 4268SOL    HW113340   3.478   2.069   1.418
 4268SOL    HW213341   3.438   2.017   1.554
 4269SOL     OW13342   1.988   2.507   0.563
 4269SOL    HW113343   1.947   2.422   0.581
 4269SOL    HW213344   1.973   2.559   0.642
 4270SOL     OW13345   3.706   3.617   0.327
 4270SOL    HW113346   3.774   3.590   0.390
 4270SOL    HW213347   3.725   3.709   0.310
 4271SOL     OW13348   1.914   3.459   0.117
 4271SOL    HW113349   1.887   3.371   0.145
 4271SOL    HW213350   1.887   3.516   0.189
 4272SOL     OW13351   3.549   2.779   0.646
 4272SOL    HW113352   3.634   2.739   0.626
 4272SOL    HW213353   3.530   2.832   0.568
 4273SOL     OW13354   3.511   2.963   0.432
 4273SOL    HW113355   3.594   2.971   0.385
 4273SOL    HW213356   3.518   3.027   0.503
 4274SOL     OW13357   1.985   2.603   1.580
 4274SOL    HW113358   2.074   2.630   1.602
 4274SOL    HW213359   1.932   2.682   1.595
 4275SOL     OW13360   2.479   3.253   0.735
 4275SOL    HW113361   2.434   3.169   0.744
 4275SOL    HW213362   2.461   3.280   0.645
 4276SOL     OW13363   3.148   3.098   1.421
 4276SOL    HW113364   3.178   3.030   1.361
 4276SOL    HW213365   3.207   3.093   1.496
 4277SOL     OW13366   2.677   1.868   0.509
 4277SOL    HW113367   2.718   1.953   0.491
 4277SOL    HW213368   2.584   1.888   0.516
 4278SOL     OW13369   2.050   2.826   1.277
 4278SOL    HW113370   2.134   2.784   1.260
 4278SOL    HW213371   1.988   2.779   1.222
 4279SOL     OW13372   3.369   2.872   0.208
 4279SOL    HW113373   3.306   2.811   0.247
 4279SOL    HW213374   3.424   2.899   0.281
 4280SOL     OW13375   3.045   3.674   1.625
 4280SOL    HW113376   3.052   3.734   1.551
 4280SOL    HW213377   3.064   3.588   1.587
 4281SOL     OW13378   3.329   3.282   0.947
 4281SOL    HW113379   3.262   3.297   1.014
 4281SOL    HW213380   3.316   3.190   0.921
 4282SOL     OW13381   3.516   3.613   0.578
 4282SOL    HW113382   3.498   3.581   0.490
 4282SOL    HW213383   3.497   3.539   0.635
 4283SOL     OW13384   2.468   2.584   0.275
 4283SOL    HW113385   2.464   2.664   0.222
 4283SOL    HW213386   2.393   2.592   0.335
 4284SOL     OW13387   3.141   2.224   0.933
 4284SOL    HW113388   3.052   2.190   0.942
 4284SOL    HW213389   3.193   2.170   0.992
 4285SOL     OW13390   3.444   3.534   0.314
 4285SOL    HW113391   3.536   3.560   0.306
 4285SOL    HW213392   3.416   3.516   0.225
 4286SOL     OW13393   2.651   2.482   1.448
 4286SOL    HW113394   2.628   2.453   1.536
 4286SOL    HW213395   2.625   2.409   1.391
 4287SOL     OW13396   3.255   2.336   1.678
 4287SOL    HW113397   3.259   2.381   1.763
 4287SOL    HW213398   3.312   2.260   1.688
 4288SOL     OW13399   2.812   2.747   1.585
 4288SOL    HW113400   2.867   2.679   1.547
 4288SOL    HW213401   2.764   2.784   1.511
 4289SOL     OW13402   2.862   2.270   1.231
 4289SOL    HW113403   2.772   2.287   1.259
 4289SOL    HW213404   2.852   2.227   1.146
 4290SOL     OW13405   2.915   2.564   0.426
 4290SOL    HW113406   2.934   2.558   0.519
 4290SOL    HW213407   2.831   2.520   0.416
 4291SOL     OW13408   1.950   2.683   0.772
 4291SOL    HW113409   2.032   2.680   0.823
 4291SOL    HW213410   1.903   2.758   0.808
 4292SOL     OW13411   1.987   3.730   1.583
 4292SOL    HW113412   1.991   3.706   1.675
 4292SOL    HW213413   1.902   3.696   1.553
 4293SOL     OW13414   2.751   2.214   0.210
 4293SOL    HW113415   2.794   2.276   0.151
 4293SOL    HW213416   2.769   2.128   0.172
 4294SOL     OW13417   3.567   2.433   1.829
 4294SOL    HW113418   3.531   2.506   1.780
 4294SOL    HW213419   3.595   2.370   1.763
 4295SOL     OW13420   3.243   3.002   0.541
 4295SOL    HW113421   3.321   2.991   0.487
 4295SOL    HW213422   3.189   3.065   0.492
 4296SOL     OW13423   2.860   3.304   0.472
 4296SOL    HW113424   2.829   3.380   0.422
 4296SOL    HW213425   2.838   3.324   0.562
 4297SOL     OW13426   2.216   3.675   0.870
 4297SOL    HW113427   2.260   3.590   0.875
 4297SOL    HW213428   2.285   3.739   0.887
 4298SOL     OW13429   3.661   2.916   0.873
 4298SOL    HW113430   3.608   2.898   0.795
 4298SOL    HW213431   3.598   2.922   0.944
 4299SOL     OW13432   3.089   3.402   1.513
 4299SOL    HW113433   3.077   3.330   1.575
 4299SOL    HW213434   3.023   3.387   1.446
 4300SOL     OW13435   2.166   2.817   0.272
 4300SOL    HW113436   2.246   2.837   0.223
 4300SOL    HW213437   2.138   2.732   0.240
 4301SOL     OW13438   3.344   2.607   0.721
 4301SOL    HW113439   3.339   2.570   0.810
 4301SOL    HW213440   3.420   2.664   0.723
 4302SOL     OW13441   2.331   3.130   1.738
 4302SOL    HW113442   2.305   3.135   1.646
 4302SOL    HW213443   2.249   3.125   1.786
 4303SOL     OW13444   2.970   3.644   0.225
 4303SOL    HW113445   2.908   3.595   0.279
 4303SOL    HW213446   3.013   3.578   0.171
 4304SOL     OW13447   1.978   2.093   1.512
 4304SOL    HW113448   1.947   2.183   1.504
 4304SOL    HW213449   2.073   2.101   1.520
 4305SOL     OW13450   3.489   3.234   0.090
 4305SOL    HW113451   3.447   3.320   0.080
 4305SOL    HW213452   3.424   3.171   0.059
 4306SOL     OW13453   2.329   3.594   0.327
 4306SOL    HW113454   2.369   3.655   0.388
 4306SOL    HW213455   2.400   3.565   0.270
 4307SOL     OW13456   3.263   1.970   0.436
 4307SOL    HW113457   3.258   1.948   0.343
 4307SOL    HW213458   3.357   1.975   0.453
 4308SOL     OW13459   2.119   3.652   1.229
 4308SOL    HW113460   2.168   3.581   1.270
 4308SOL    HW213461   2.108   3.624   1.138
 4309SOL     OW13462   2.801   3.561   0.897
 4309SOL    HW113463   2.880   3.512   0.918
 4309SOL    HW213464   2.759   3.511   0.827
 4310SOL     OW13465   2.254   2.556   0.458
 4310SOL    HW113466   2.267   2.465   0.434
 4310SOL    HW213467   2.164   2.560   0.490
 4311SOL     OW13468   3.391   2.086   1.724
 4311SOL    HW113469   3.402   2.107   1.817
 4311SOL    HW213470   3.322   2.020   1.722
 4312SOL     OW13471   2.460   1.972   0.114
 4312SOL    HW113472   2.544   1.943   0.148
 4312SOL    HW213473   2.452   1.928   0.029
 4313SOL     OW13474   2.627   2.144   1.755
 4313SOL    HW113475   2.707   2.091   1.750
 4313SOL    HW213476   2.580   2.109   1.830
 4314SOL     OW13477   2.737   3.384   1.195
 4314SOL    HW113478   2.720   3.347   1.108
 4314SOL    HW213479   2.807   3.331   1.231
 4315SOL     OW13480   3.200   2.452   1.433
 4315SOL    HW113481   3.232   2.421   1.518
 4315SOL    HW213482   3.238   2.540   1.424
 4316SOL     OW13483   2.680   3.251   0.946
 4316SOL    HW113484   2.765   3.240   0.903
 4316SOL    HW213485   2.617   3.258   0.874
 4317SOL     OW13486   2.784   2.369   0.900
 4317SOL    HW113487   2.759   2.361   0.808
 4317SOL    HW213488   2.817   2.282   0.924
 4318SOL     OW13489   2.407   1.933   0.497
 4318SOL    HW113490   2.330   1.924   0.552
 4318SOL    HW213491   2.399   2.021   0.459
 4319SOL     OW13492   3.283   3.060   0.025
 4319SOL    HW113493   3.312   2.990   0.084
 4319SOL    HW213494   3.201   3.091   0.064
 4320SOL     OW13495   2.159   1.910   0.193
 4320SOL    HW113496   2.228   1.949   0.138
 4320SOL    HW213497   2.200   1.833   0.232
 4321SOL     OW13498   2.803   2.111   0.460
 4321SOL    HW113499   2.779   2.154   0.378
 4321SOL    HW213500   2.898   2.125   0.468
 4322SOL     OW13501   2.942   2.547   1.454
 4322SOL    HW113502   2.878   2.475   1.461
 4322SOL    HW213503   3.027   2.502   1.449
 4323SOL     OW13504   3.081   3.435   0.795
 4323SOL    HW113505   3.096   3.499   0.726
 4323SOL    HW213506   3.152   3.450   0.858
 4324SOL     OW13507   2.337   3.016   0.730
 4324SOL    HW113508   2.269   2.997   0.795
 4324SOL    HW213509   2.292   3.005   0.646
 4325SOL     OW13510   3.127   3.655   0.610
 4325SOL    HW113511   3.176   3.716   0.555
 4325SOL    HW213512   3.060   3.708   0.652
 4326SOL     OW13513   2.869   2.395   0.047
 4326SOL    HW113514   2.835   2.484   0.034
 4326SOL    HW213515   2.951   2.408   0.096
 4327SOL     OW13516   1.951   2.409   1.396
 4327SOL    HW113517   2.044   2.391   1.412
 4327SOL    HW213518   1.931   2.481   1.456
 4328SOL     OW13519   2.472   2.036   1.147
 4328SOL    HW113520   2.475   1.981   1.225
 4328SOL    HW213521   2.389   2.084   1.154
 4329SOL     OW13522   2.722   2.317   0.639
 4329SOL    HW113523   2.686   2.377   0.574
 4329SOL    HW213524   2.748   2.240   0.588
 4330SOL     OW13525   2.878   1.915   0.749
 4330SOL    HW113526   2.820   1.908   0.674
 4330SOL    HW213527   2.854   1.841   0.805
 4331SOL     OW13528   3.301   3.023   0.857
 4331SOL    HW113529   3.230   2.958   0.857
 4331SOL    HW213530   3.326   3.031   0.764
 4332SOL     OW13531   3.328   2.471   0.969
 4332SOL    HW113532   3.272   2.394   0.973
 4332SOL    HW213533   3.385   2.463   1.045
 4333SOL     OW13534   3.711   2.671   0.376
 4333SOL    HW113535   3.762   2.622   0.440
 4333SOL    HW213536   3.684   2.605   0.312
 4334SOL     OW13537   2.355   3.287   0.169
 4334SOL    HW113538   2.280   3.261   0.223
 4334SOL    HW213539   2.352   3.228   0.093
 4335SOL     OW13540   3.538   3.125   0.644
 4335SOL    HW113541   3.633   3.125   0.658
 4335SOL    HW213542   3.511   3.215   0.664
 4336SOL     OW13543   3.253   2.429   0.082
 4336SOL    HW113544   3.190   2.413   0.153
 4336SOL    HW213545   3.308   2.350   0.081
 4337SOL     OW13546   3.611   3.104   1.564
 4337SOL    HW113547   3.698   3.065   1.559
 4337SOL    HW213548   3.627   3.194   1.594
 4338SOL     OW13549   2.917   3.217   1.333
 4338SOL    HW113550   2.842   3.185   1.382
 4338SOL    HW213551   2.993   3.174   1.374
 4339SOL     OW13552   3.471   3.490   1.658
 4339SOL    HW113553   3.463   3.523   1.569
 4339SOL    HW213554   3.553   3.440   1.657
 4340SOL     OW13555   2.997   3.072   1.103
 4340SOL    HW113556   2.935   3.109   1.166
 4340SOL    HW213557   2.967   3.106   1.018
 4341SOL     OW13558   3.484   2.957   1.077
 4341SOL    HW113559   3.478   3.021   1.149
 4341SOL    HW213560   3.408   2.976   1.022
 4342SOL     OW13561   2.789   1.951   1.392
 4342SOL    HW113562   2.810   1.936   1.300
 4342SOL    HW213563   2.868   1.992   1.428
 4343SOL     OW13564   2.846   2.977   1.722
 4343SOL    HW113565   2.755   2.994   1.746
 4343SOL    HW213566   2.843   2.899   1.668
 4344SOL     OW13567   2.575   2.922   0.375
 4344SOL    HW113568   2.561   2.903   0.467
 4344SOL    HW213569   2.649   2.867   0.349
 4345SOL     OW13570   2.282   2.674   1.250
 4345SOL    HW113571   2.351   2.694   1.313
 4345SOL    HW213572   2.264   2.581   1.262
 4346SOL     OW13573   3.129   2.237   1.280
 4346SOL    HW113574   3.160   2.316   1.325
 4346SOL    HW213575   3.038   2.257   1.258
 4347SOL     OW13576   1.936   3.437   1.357
 4347SOL    HW113577   1.906   3.506   1.299
 4347SOL    HW213578   2.031   3.436   1.348
 4348SOL     OW13579   2.201   2.986   0.494
 4348SOL    HW113580   2.199   3.059   0.432
 4348SOL    HW213581   2.194   2.908   0.439
 4349SOL     OW13582   3.108   3.208   0.399
 4349SOL    HW113583   3.163   3.281   0.427
 4349SOL    HW213584   3.020   3.232   0.430
 4350SOL     OW13585   3.150   3.322   1.148
 4350SOL    HW113586   3.205   3.326   1.226
 4350SOL    HW213587   3.095   3.245   1.161
 4351SOL     OW13588   3.443   2.486   0.481
 4351SOL    HW113589   3.392   2.525   0.552
 4351SOL    HW213590   3.475   2.561   0.431
 4352SOL     OW13591   2.207   3.393   1.310
 4352SOL    HW113592   2.196   3.347   1.226
 4352SOL    HW213593   2.302   3.403   1.319
 4353SOL     OW13594   2.283   2.626   1.605
 4353SOL    HW113595   2.343   2.667   1.543
 4353SOL    HW213596   2.332   2.553   1.642
 4354SOL     OW13597   3.470   2.643   1.686
 4354SOL    HW113598   3.384   2.684   1.680
 4354SOL    HW213599   3.522   2.684   1.617
 4355SOL     OW13600   2.857   1.994   1.748
 4355SOL    HW113601   2.917   2.066   1.729
 4355SOL    HW213602   2.906   1.915   1.726
 4356SOL     OW13603   2.362   1.887   1.752
 4356SOL    HW113604   2.318   1.829   1.689
 4356SOL    HW213605   2.310   1.967   1.750
 4357SOL     OW13606   2.440   2.740   1.025
 4357SOL    HW113607   2.482   2.826   1.026
 4357SOL    HW213608   2.389   2.737   1.106
 4358SOL     OW13609   3.211   2.720   1.023
 4358SOL    HW113610   3.124   2.705   0.984
 4358SOL    HW213611   3.256   2.637   1.014
 4359SOL     OW13612   3.058   2.385   0.269
 4359SOL    HW113613   3.068   2.308   0.326
 4359SOL    HW213614   3.016   2.451   0.324
 4360SOL     OW13615   1.911   3.174   1.275
 4360SOL    HW113616   1.941   3.118   1.347
 4360SOL    HW213617   1.914   3.262   1.311
 4361SOL     OW13618   2.590   2.503   1.064
 4361SOL    HW113619   2.644   2.471   0.992
 4361SOL    HW213620   2.545   2.580   1.029
 4362SOL     OW13621   3.600   2.822   1.857
 4362SOL    HW113622   3.557   2.755   1.804
 4362SOL    HW213623   3.540   2.838   1.929
 4363SOL     OW13624   2.165   1.916   0.638
 4363SOL    HW113625   2.118   1.996   0.663
 4363SOL    HW213626   2.179   1.869   0.720
 4364SOL     OW13627   3.488   2.243   0.358
 4364SOL    HW113628   3.512   2.176   0.422
 4364SOL    HW213629   3.462   2.318   0.411
 4365SOL     OW13630   2.891   2.618   0.957
 4365SOL    HW113631   2.883   2.638   1.050
 4365SOL    HW213632   2.858   2.528   0.948
 4366SOL     OW13633   2.843   3.428   1.721
 4366SOL    HW113634   2.828   3.472   1.637
 4366SOL    HW213635   2.887   3.347   1.698
 4367SOL     OW13636   3.714   3.364   1.605
 4367SOL    HW113637   3.735   3.391   1.515
 4367SOL    HW213638   3.795   3.379   1.654
 4368SOL     OW13639   2.218   2.792   1.813
 4368SOL    HW113640   2.301   2.806   1.860
 4368SOL    HW213641   2.242   2.735   1.740
 4369SOL     OW13642   3.388   2.167   0.111
 4369SOL    HW113643   3.334   2.089   0.126
 4369SOL    HW213644   3.427   2.186   0.196
 4370SOL     OW13645   3.146   2.677   0.033
 4370SOL    HW113646   3.190   2.592   0.042
 4370SOL    HW213647   3.193   2.720  11.061
 4371SOL     OW13648   2.930   3.200   0.856
 4371SOL    HW113649   2.935   3.128   0.793
 4371SOL    HW213650   2.989   3.267   0.821
 4372SOL     OW13651   2.171   2.683   0.941
 4372SOL    HW113652   2.264   2.702   0.931
 4372SOL    HW213653   2.168   2.603   0.993
 4373SOL     OW13654   2.996   2.236   1.684
 4373SOL    HW113655   2.948   2.289   1.748
 4373SOL    HW213656   3.083   2.276   1.681
 4374SOL     OW13657   3.026   2.061   1.472
 4374SOL    HW113658   3.013   2.124   1.543
 4374SOL    HW213659   3.069   2.112   1.402
 4375SOL     OW13660   1.872   3.187   0.195
 4375SOL    HW113661   1.786   3.200   0.156
 4375SOL    HW213662   1.871   3.097   0.227
 4376SOL     OW13663   1.952   3.644   0.942
 4376SOL    HW113664   1.922   3.567   0.895
 4376SOL    HW213665   2.041   3.658   0.910
 4377SOL     OW13666   2.355   3.437   0.905
 4377SOL    HW113667   2.423   3.499   0.929
 4377SOL    HW213668   2.398   3.374   0.847
 4378SOL     OW13669   2.838   2.655   1.222
 4378SOL    HW113670   2.891   2.631   1.298
 4378SOL    HW213671   2.755   2.609   1.235
 4379SOL     OW13672   1.899   2.422   1.122
 4379SOL    HW113673   1.928   2.342   1.079
 4379SOL    HW213674   1.927   2.412   1.213
 4380SOL     OW13675   3.242   2.796   1.657
 4380SOL    HW113676   3.263   2.889   1.653
 4380SOL    HW213677   3.239   2.769   1.565
 4381SOL     OW13678   2.678   2.435   0.375
 4381SOL    HW113679   2.685   2.363   0.312
 4381SOL    HW213680   2.605   2.488   0.343
 4382SOL     OW13681   3.502   2.463   1.181
 4382SOL    HW113682   3.493   2.405   1.256
 4382SOL    HW213683   3.590   2.445   1.147
 4383SOL     OW13684   2.101   3.411   1.723
 4383SOL    HW113685   2.079   3.476   1.790
 4383SOL    HW213686   2.107   3.328   1.771
 4384SOL     OW13687   2.585   2.308   1.249
 4384SOL    HW113688   2.545   2.231   1.208
 4384SOL    HW213689   2.578   2.377   1.183
 4385SOL     OW13690   2.784   3.541   1.471
 4385SOL    HW113691   2.760   3.502   1.387
 4385SOL    HW213692   2.778   3.635   1.456
 4386SOL     OW13693   2.004   3.004   1.476
 4386SOL    HW113694   2.005   2.955   1.558
 4386SOL    HW213695   2.021   2.938   1.408
 4387SOL     OW13696   3.183   2.906   1.220
 4387SOL    HW113697   3.205   2.842   1.152
 4387SOL    HW213698   3.117   2.962   1.180
 4388SOL     OW13699   3.170   2.712   0.311
 4388SOL    HW113700   3.095   2.678   0.359
 4388SOL    HW213701   3.148   2.696   0.219
 4389SOL     OW13702   3.643   3.599   1.157
 4389SOL    HW113703   3.702   3.626   1.087
 4389SOL    HW213704   3.614   3.511   1.133
 4390SOL     OW13705   3.102   3.595   1.107
 4390SOL    HW113706   3.184   3.619   1.065
 4390SOL    HW213707   3.111   3.502   1.127
 4391SOL     OW13708   1.947   3.129   1.011
 4391SOL    HW113709   1.931   3.143   1.104
 4391SOL    HW213710   1.874   3.074   0.982
 4392SOL     OW13711   2.541   3.532   1.737
 4392SOL    HW113712   2.482   3.608   1.729
 4392SOL    HW213713   2.609   3.547   1.672
 4393SOL     OW13714   2.787   1.956   0.099
 4393SOL    HW113715   2.828   1.916   0.023
 4393SOL    HW213716   2.830   1.914   0.174
 4394SOL     OW13717   3.580   2.016   0.505
 4394SOL    HW113718   3.652   2.002   0.443
 4394SOL    HW213719   3.566   1.931   0.545
 4395SOL     OW13720   3.254   3.430   0.490
 4395SOL    HW113721   3.314   3.463   0.424
 4395SOL    HW213722   3.205   3.507   0.519
 4396SOL     OW13723   2.003   3.656   1.842
 4396SOL    HW113724   1.952   3.590   1.889
 4396SOL    HW213725   2.047   3.706   1.911
 4397SOL     OW13726   3.140   2.789   0.671
 4397SOL    HW113727   3.214   2.728   0.679
 4397SOL    HW213728   3.174   2.860   0.617
 4398SOL     OW13729   2.669   3.139   1.425
 4398SOL    HW113730   2.641   3.179   1.507
 4398SOL    HW213731   2.599   3.160   1.363
 4399SOL     OW13732   2.535   3.487   0.171
 4399SOL    HW113733   2.561   3.491   0.079
 4399SOL    HW213734   2.478   3.410   0.176
 4400SOL     OW13735   3.482   3.589   1.392
 4400SOL    HW113736   3.535   3.594   1.312
 4400SOL    HW213737   3.468   3.680   1.417
 4401SOL     OW13738   3.705   2.033   0.966
 4401SOL    HW113739   3.735   1.945   0.941
 4401SOL    HW213740   3.619   2.041   0.926
 4402SOL     OW13741   3.086   3.461   0.056
 4402SOL    HW113742   3.074   3.368   0.076
 4402SOL    HW213743   3.021   3.479  11.088
 4403SOL     OW13744   2.686   2.870   1.375
 4403SOL    HW113745   2.733   2.861   1.292
 4403SOL    HW213746   2.685   2.964   1.391
 4404SOL     OW13747   2.777   2.768   0.279
 4404SOL    HW113748   2.842   2.809   0.222
 4404SOL    HW213749   2.827   2.707   0.332
 4405SOL     OW13750   3.359   3.484   0.050
 4405SOL    HW113751   3.264   3.476   0.050
 4405SOL    HW213752   3.382   3.498  11.059
 4406SOL     OW13753   2.230   3.167   1.492
 4406SOL    HW113754   2.216   3.242   1.435
 4406SOL    HW213755   2.153   3.112   1.477
 4407SOL     OW13756   3.470   3.146   1.280
 4407SOL    HW113757   3.529   3.130   1.354
 4407SOL    HW213758   3.410   3.213   1.311
 4408SOL     OW13759   2.922   2.971   0.710
 4408SOL    HW113760   2.850   2.921   0.748
 4408SOL    HW213761   2.986   2.905   0.683
 4409SOL     OW13762   2.886   2.103   0.966
 4409SOL    HW113763   2.883   2.057   0.883
 4409SOL    HW213764   2.880   2.035   1.033
 4410SOL     OW13765   2.467   3.352   0.481
 4410SOL    HW113766   2.511   3.300   0.413
 4410SOL    HW213767   2.394   3.394   0.435
 4411SOL     OW13768   3.588   2.254   1.380
 4411SOL    HW113769   3.660   2.317   1.380
 4411SOL    HW213770   3.617   2.183   1.323
 4412SOL     OW13771   2.131   3.195   0.296
 4412SOL    HW113772   2.045   3.197   0.254
 4412SOL    HW213773   2.118   3.238   0.380
 4413SOL     OW13774   1.975   2.892   1.724
 4413SOL    HW113775   1.898   2.866   1.775
 4413SOL    HW213776   2.049   2.853   1.771
 4414SOL     OW13777   2.550   2.037   1.499
 4414SOL    HW113778   2.636   2.018   1.463
 4414SOL    HW213779   2.568   2.083   1.582
 4415SOL     OW13780   1.927   2.199   0.079
 4415SOL    HW113781   1.866   2.186   0.006
 4415SOL    HW213782   2.009   2.224   0.037
 4416SOL     OW13783   3.288   2.720   1.398
 4416SOL    HW113784   3.238   2.780   1.343
 4416SOL    HW213785   3.377   2.722   1.362
 4417SOL     OW13786   1.929   2.018   0.299
 4417SOL    HW113787   1.909   2.091   0.239
 4417SOL    HW213788   2.011   1.982   0.266
 4418SOL     OW13789   3.049   3.197   0.124
 4418SOL    HW113790   2.955   3.184   0.114
 4418SOL    HW213791   3.065   3.188   0.218
 4419SOL     OW13792   2.484   2.695   1.429
 4419SOL    HW113793   2.541   2.771   1.416
 4419SOL    HW213794   2.544   2.621   1.437
 4420SOL     OW13795   3.344   3.646   0.982
 4420SOL    HW113796   3.366   3.711   0.916
 4420SOL    HW213797   3.429   3.618   1.017
 4421SOL     OW13798   2.578   2.422   1.701
 4421SOL    HW113799   2.623   2.482   1.759
 4421SOL    HW213800   2.598   2.335   1.735
 4422SOL     OW13801   3.335   3.057   1.629
 4422SOL    HW113802   3.324   3.072   1.723
 4422SOL    HW213803   3.428   3.076   1.614
 4423SOL     OW13804   2.234   3.603   1.566
 4423SOL    HW113805   2.151   3.648   1.550
 4423SOL    HW213806   2.209   3.520   1.607
 4424SOL     OW13807   3.527   2.741   1.255
 4424SOL    HW113808   3.523   2.656   1.212
 4424SOL    HW213809   3.517   2.805   1.184
 4425SOL     OW13810   3.076   2.178   0.461
 4425SOL    HW113811   3.140   2.107   0.452
 4425SOL    HW213812   3.106   2.228   0.536
 4426SOL     OW13813   2.451   2.601   0.656
 4426SOL    HW113814   2.489   2.688   0.646
 4426SOL    HW213815   2.384   2.596   0.589
 4427SOL     OW13816   3.619   2.225   1.653
 4427SOL    HW113817   3.604   2.241   1.559
 4427SOL    HW213818   3.546   2.169   1.679
 4428SOL     OW13819   3.611   2.795   1.511
 4428SOL    HW113820   3.600   2.889   1.523
 4428SOL    HW213821   3.593   2.781   1.418
 4429SOL     OW13822   2.776   3.216   0.080
 4429SOL    HW113823   2.710   3.210   0.149
 4429SOL    HW213824   2.752   3.295   0.031
 4430SOL     OW13825   2.525   3.647   0.940
 4430SOL    HW113826   2.506   3.738   0.919
 4430SOL    HW213827   2.620   3.640   0.933
 4431SOL     OW13828   2.732   2.832   0.854
 4431SOL    HW113829   2.780   2.758   0.891
 4431SOL    HW213830   2.694   2.876   0.930
 4432SOL     OW13831   2.940   2.850   0.081
 4432SOL    HW113832   2.914   2.881  11.094
 4432SOL    HW213833   3.015   2.793   0.065
 4433SOL     OW13834   3.712   3.416   0.843
 4433SOL    HW113835   3.633   3.404   0.790
 4433SOL    HW213836   3.706   3.348   0.910
 4434SOL     OW13837   2.086   3.161   1.853
 4434SOL    HW113838   2.025   3.096   1.818
 4434SOL    HW213839   2.058   3.175   1.943
 4435SOL     OW13840   1.949   3.093   0.667
 4435SOL    HW113841   1.959   3.045   0.750
 4435SOL    HW213842   2.018   3.058   0.611
 4436SOL     OW13843   2.546   3.270   1.630
 4436SOL    HW113844   2.467   3.227   1.663
 4436SOL    HW213845   2.543   3.358   1.668
 4437SOL     OW13846   3.673   2.044   1.237
 4437SOL    HW113847   3.680   1.949   1.250
 4437SOL    HW213848   3.685   2.056   1.142
 4438SOL     OW13849   3.558   3.349   1.094
 4438SOL    HW113850   3.480   3.329   1.043
 4438SOL    HW213851   3.564   3.279   1.158
 4439SOL     OW13852   2.692   3.440   0.676
 4439SOL    HW113853   2.670   3.500   0.605
 4439SOL    HW213854   2.618   3.379   0.680
 4440SOL     OW13855   3.292   2.090   1.116
 4440SOL    HW113856   3.312   2.007   1.159
 4440SOL    HW213857   3.242   2.140   1.181
 4441SOL     OW13858   2.873   1.878   1.135
 4441SOL    HW113859   2.818   1.812   1.094
 4441SOL    HW213860   2.960   1.840   1.137
 4442SOL     OW13861   2.634   3.189   0.321
 4442SOL    HW113862   2.607   3.098   0.337
 4442SOL    HW213863   2.715   3.198   0.371
 4443SOL     OW13864   2.482   3.417   1.287
 4443SOL    HW113865   2.482   3.500   1.336
 4443SOL    HW213866   2.570   3.411   1.250
 4444SOL     OW13867   3.213   1.920   0.166
 4444SOL    HW113868   3.236   1.865   0.090
 4444SOL    HW213869   3.126   1.890   0.191
 4445SOL     OW13870   3.158   2.325   0.678
 4445SOL    HW113871   3.106   2.405   0.683
 4445SOL    HW213872   3.153   2.288   0.766
 4446SOL     OW13873   3.447   2.058   0.882
 4446SOL    HW113874   3.391   2.082   0.955
 4446SOL    HW213875   3.447   2.135   0.825
 4447SOL     OW13876   1.902   2.928   0.304
 4447SOL    HW113877   1.997   2.921   0.295
 4447SOL    HW213878   1.874   2.840   0.329
 4448SOL     OW13879   2.750   3.522   0.347
 4448SOL    HW113880   2.676   3.503   0.291
 4448SOL    HW213881   2.721   3.595   0.402
 4449SOL     OW13882   2.077   2.545   2.007
 4449SOL    HW113883   1.989   2.516   2.030
 4449SOL    HW213884   2.103   2.487   1.935
 4450SOL     OW13885   1.990   2.155   2.942
 4450SOL    HW113886   2.054   2.093   2.978
 4450SOL    HW213887   1.927   2.099   2.896
 4451SOL     OW13888   1.847   2.249   2.489
 4451SOL    HW113889   1.767   2.273   2.536
 4451SOL    HW213890   1.829   2.162   2.453
 4452SOL     OW13891   2.429   3.157   3.043
 4452SOL    HW113892   2.343   3.164   3.002
 4452SOL    HW213893   2.446   3.246   3.076
 4453SOL     OW13894   3.431   3.376   2.570
 4453SOL    HW113895   3.388   3.352   2.653
 4453SOL    HW213896   3.360   3.379   2.506
 4454SOL     OW13897   2.995   2.560   2.556
 4454SOL    HW113898   3.042   2.643   2.547
 4454SOL    HW213899   2.948   2.567   2.639
 4455SOL     OW13900   3.638   2.462   2.088
 4455SOL    HW113901   3.612   2.456   1.996
 4455SOL    HW213902   3.597   2.385   2.129
 4456SOL     OW13903   2.607   2.999   2.905
 4456SOL    HW113904   2.541   3.035   2.964
 4456SOL    HW213905   2.647   3.075   2.863
 4457SOL     OW13906   2.737   2.628   3.687
 4457SOL    HW113907   2.723   2.699   3.750
 4457SOL    HW213908   2.760   2.673   3.605
 4458SOL     OW13909   2.548   2.861   2.506
 4458SOL    HW113910   2.615   2.852   2.574
 4458SOL    HW213911   2.482   2.918   2.544
 4459SOL     OW13912   2.575   3.012   3.679
 4459SOL    HW113913   2.623   3.089   3.709
 4459SOL    HW213914   2.495   3.047   3.641
 4460SOL     OW13915   2.193   3.280   2.929
 4460SOL    HW113916   2.119   3.242   2.883
 4460SOL    HW213917   2.239   3.332   2.863
 4461SOL     OW13918   3.321   3.364   3.222
 4461SOL    HW113919   3.375   3.442   3.231
 4461SOL    HW213920   3.253   3.373   3.289
 4462SOL     OW13921   3.468   2.306   2.605
 4462SOL    HW113922   3.394   2.324   2.548
 4462SOL    HW213923   3.473   2.382   2.663
 4463SOL     OW13924   2.081   3.577   2.331
 4463SOL    HW113925   2.102   3.653   2.386
 4463SOL    HW213926   2.156   3.570   2.272
 4464SOL     OW13927   2.999   3.204   3.556
 4464SOL    HW113928   3.041   3.197   3.642
 4464SOL    HW213929   2.947   3.124   3.548
 4465SOL     OW13930   2.095   3.306   2.399
 4465SOL    HW113931   2.076   3.399   2.400
 4465SOL    HW213932   2.036   3.268   2.464
 4466SOL     OW13933   2.128   2.960   2.752
 4466SOL    HW113934   2.121   2.871   2.786
 4466SOL    HW213935   2.068   3.011   2.806
 4467SOL     OW13936   2.466   3.653   3.289
 4467SOL    HW113937   2.385   3.636   3.337
 4467SOL    HW213938   2.491   3.742   3.316
 4468SOL     OW13939   2.445   2.845   1.994
 4468SOL    HW113940   2.494   2.893   1.928
 4468SOL    HW213941   2.481   2.875   2.077
 4469SOL     OW13942   3.457   1.988   3.327
 4469SOL    HW113943   3.477   2.069   3.279
 4469SOL    HW213944   3.438   2.018   3.416
 4470SOL     OW13945   1.966   2.503   2.425
 4470SOL    HW113946   1.933   2.416   2.449
 4470SOL    HW213947   1.963   2.553   2.507
 4471SOL     OW13948   3.705   3.617   2.193
 4471SOL    HW113949   3.773   3.591   2.255
 4471SOL    HW213950   3.724   3.709   2.174
 4472SOL     OW13951   1.900   3.453   1.983
 4472SOL    HW113952   1.880   3.361   2.004
 4472SOL    HW213953   1.874   3.501   2.062
 4473SOL     OW13954   3.552   2.782   2.508
 4473SOL    HW113955   3.634   2.737   2.486
 4473SOL    HW213956   3.530   2.832   2.430
 4474SOL     OW13957   3.511   2.966   2.291
 4474SOL    HW113958   3.598   2.967   2.250
 4474SOL    HW213959   3.517   3.029   2.363
 4475SOL     OW13960   1.986   2.602   3.444
 4475SOL    HW113961   2.076   2.626   3.467
 4475SOL    HW213962   1.935   2.681   3.460
 4476SOL     OW13963   2.478   3.252   2.597
 4476SOL    HW113964   2.433   3.168   2.605
 4476SOL    HW213965   2.462   3.280   2.507
 4477SOL     OW13966   3.148   3.098   3.283
 4477SOL    HW113967   3.178   3.030   3.223
 4477SOL    HW213968   3.207   3.092   3.358
 4478SOL     OW13969   2.672   1.867   2.366
 4478SOL    HW113970   2.717   1.949   2.346
 4478SOL    HW213971   2.579   1.891   2.371
 4479SOL     OW13972   2.049   2.827   3.138
 4479SOL    HW113973   2.134   2.789   3.117
 4479SOL    HW213974   1.987   2.778   3.084
 4480SOL     OW13975   3.393   2.860   2.062
 4480SOL    HW113976   3.324   2.803   2.095
 4480SOL    HW213977   3.436   2.894   2.141
 4481SOL     OW13978   3.045   3.674   3.487
 4481SOL    HW113979   3.052   3.734   3.414
 4481SOL    HW213980   3.064   3.588   3.449
 4482SOL     OW13981   3.329   3.281   2.809
 4482SOL    HW113982   3.263   3.297   2.876
 4482SOL    HW213983   3.316   3.190   2.783
 4483SOL     OW13984   3.516   3.612   2.439
 4483SOL    HW113985   3.498   3.580   2.351
 4483SOL    HW213986   3.496   3.539   2.497
 4484SOL     OW13987   2.466   2.585   2.130
 4484SOL    HW113988   2.482   2.658   2.069
 4484SOL    HW213989   2.378   2.601   2.164
 4485SOL     OW13990   3.142   2.224   2.796
 4485SOL    HW113991   3.053   2.191   2.804
 4485SOL    HW213992   3.194   2.169   2.854
 4486SOL     OW13993   3.441   3.535   2.172
 4486SOL    HW113994   3.532   3.561   2.164
 4486SOL    HW213995   3.412   3.518   2.082
 4487SOL     OW13996   2.641   2.459   3.305
 4487SOL    HW113997   2.629   2.451   3.400
 4487SOL    HW213998   2.594   2.385   3.268
 4488SOL     OW13999   3.255   2.336   3.540
 4488SOL    HW114000   3.260   2.380   3.625
 4488SOL    HW214001   3.312   2.260   3.549
 4489SOL     OW14002   2.812   2.746   3.447
 4489SOL    HW114003   2.866   2.678   3.407
 4489SOL    HW214004   2.764   2.784   3.373
 4490SOL     OW14005   2.864   2.274   3.094
 4490SOL    HW114006   2.786   2.324   3.116
 4490SOL    HW214007   2.845   2.236   3.008
 4491SOL     OW14008   2.913   2.559   2.286
 4491SOL    HW114009   2.933   2.554   2.380
 4491SOL    HW214010   2.830   2.514   2.277
 4492SOL     OW14011   1.949   2.684   2.636
 4492SOL    HW114012   2.030   2.681   2.687
 4492SOL    HW214013   1.902   2.760   2.671
 4493SOL     OW14014   1.986   3.729   3.445
 4493SOL    HW114015   1.991   3.706   3.537
 4493SOL    HW214016   1.901   3.697   3.416
 4494SOL     OW14017   2.758   2.216   2.060
 4494SOL    HW114018   2.802   2.274   1.998
 4494SOL    HW214019   2.746   2.134   2.011
 4495SOL     OW14020   3.567   2.433   3.692
 4495SOL    HW114021   3.531   2.507   3.642
 4495SOL    HW214022   3.595   2.370   3.625
 4496SOL     OW14023   3.242   3.004   2.402
 4496SOL    HW114024   3.322   2.992   2.349
 4496SOL    HW214025   3.189   3.066   2.352
 4497SOL     OW14026   2.440   2.021   2.729
 4497SOL    HW114027   2.445   2.032   2.824
 4497SOL    HW214028   2.443   2.110   2.695
 4498SOL     OW14029   2.862   3.305   2.331
 4498SOL    HW114030   2.831   3.381   2.281
 4498SOL    HW214031   2.840   3.326   2.422
 4499SOL     OW14032   2.216   3.675   2.730
 4499SOL    HW114033   2.260   3.590   2.737
 4499SOL    HW214034   2.284   3.739   2.749
 4500SOL     OW14035   3.661   2.918   2.734
 4500SOL    HW114036   3.609   2.896   2.657
 4500SOL    HW214037   3.598   2.923   2.805
 4501SOL     OW14038   3.089   3.402   3.375
 4501SOL    HW114039   3.077   3.329   3.437
 4501SOL    HW214040   3.023   3.387   3.308
 4502SOL     OW14041   2.183   2.801   2.122
 4502SOL    HW114042   2.257   2.824   2.065
 4502SOL    HW214043   2.143   2.726   2.079
 4503SOL     OW14044   3.343   2.610   2.584
 4503SOL    HW114045   3.338   2.570   2.671
 4503SOL    HW214046   3.421   2.666   2.588
 4504SOL     OW14047   2.331   3.129   3.600
 4504SOL    HW114048   2.305   3.134   3.508
 4504SOL    HW214049   2.249   3.126   3.648
 4505SOL     OW14050   2.986   3.640   2.091
 4505SOL    HW114051   2.911   3.601   2.135
 4505SOL    HW214052   3.010   3.577   2.023
 4506SOL     OW14053   1.972   2.100   3.364
 4506SOL    HW114054   1.908   2.166   3.392
 4506SOL    HW214055   1.995   2.053   3.444
 4507SOL     OW14056   3.491   3.244   1.952
 4507SOL    HW114057   3.449   3.329   1.937
 4507SOL    HW214058   3.423   3.180   1.931
 4508SOL     OW14059   2.326   3.598   2.181
 4508SOL    HW114060   2.371   3.654   2.245
 4508SOL    HW214061   2.396   3.564   2.126
 4509SOL     OW14062   3.262   1.969   2.301
 4509SOL    HW114063   3.253   1.944   2.209
 4509SOL    HW214064   3.357   1.974   2.315
 4510SOL     OW14065   2.119   3.652   3.091
 4510SOL    HW114066   2.168   3.581   3.133
 4510SOL    HW214067   2.108   3.624   3.000
 4511SOL     OW14068   2.801   3.561   2.759
 4511SOL    HW114069   2.880   3.512   2.780
 4511SOL    HW214070   2.760   3.511   2.689
 4512SOL     OW14071   3.391   2.086   3.586
 4512SOL    HW114072   3.401   2.107   3.679
 4512SOL    HW214073   3.323   2.018   3.584
 4513SOL     OW14074   2.517   1.988   1.955
 4513SOL    HW114075   2.561   1.916   2.000
 4513SOL    HW214076   2.461   1.945   1.890
 4514SOL     OW14077   2.631   2.141   3.618
 4514SOL    HW114078   2.710   2.087   3.613
 4514SOL    HW214079   2.583   2.105   3.693
 4515SOL     OW14080   2.737   3.384   3.057
 4515SOL    HW114081   2.721   3.347   2.970
 4515SOL    HW214082   2.807   3.331   3.093
 4516SOL     OW14083   3.197   2.454   3.296
 4516SOL    HW114084   3.230   2.422   3.380
 4516SOL    HW214085   3.238   2.541   3.287
 4517SOL     OW14086   2.680   3.251   2.808
 4517SOL    HW114087   2.765   3.240   2.765
 4517SOL    HW214088   2.617   3.258   2.735
 4518SOL     OW14089   2.804   2.366   2.774
 4518SOL    HW114090   2.758   2.366   2.690
 4518SOL    HW214091   2.832   2.275   2.786
 4519SOL     OW14092   2.402   1.944   2.360
 4519SOL    HW114093   2.369   1.946   2.450
 4519SOL    HW214094   2.371   2.026   2.321
 4520SOL     OW14095   3.290   3.062   1.901
 4520SOL    HW114096   3.320   2.987   1.953
 4520SOL    HW214097   3.205   3.084   1.939
 4521SOL     OW14098   2.804   2.109   2.315
 4521SOL    HW114099   2.781   2.149   2.231
 4521SOL    HW214100   2.898   2.123   2.324
 4522SOL     OW14101   2.937   2.542   3.315
 4522SOL    HW114102   2.879   2.466   3.325
 4522SOL    HW214103   3.025   2.505   3.310
 4523SOL     OW14104   3.081   3.434   2.657
 4523SOL    HW114105   3.096   3.500   2.588
 4523SOL    HW214106   3.151   3.450   2.720
 4524SOL     OW14107   2.335   3.015   2.587
 4524SOL    HW114108   2.267   2.998   2.652
 4524SOL    HW214109   2.291   3.000   2.503
 4525SOL     OW14110   3.127   3.654   2.474
 4525SOL    HW114111   3.175   3.715   2.418
 4525SOL    HW214112   3.059   3.707   2.515
 4526SOL     OW14113   2.886   2.398   1.887
 4526SOL    HW114114   2.842   2.481   1.869
 4526SOL    HW214115   2.951   2.419   1.955
 4527SOL     OW14116   1.943   2.423   3.248
 4527SOL    HW114117   2.030   2.386   3.263
 4527SOL    HW214118   1.935   2.491   3.315
 4528SOL     OW14119   2.436   2.025   3.000
 4528SOL    HW114120   2.455   1.969   3.075
 4528SOL    HW214121   2.360   2.076   3.027
 4529SOL     OW14122   2.733   2.316   2.499
 4529SOL    HW114123   2.695   2.374   2.433
 4529SOL    HW214124   2.758   2.238   2.449
 4530SOL     OW14125   2.882   1.915   2.609
 4530SOL    HW114126   2.820   1.911   2.536
 4530SOL    HW214127   2.858   1.840   2.665
 4531SOL     OW14128   3.300   3.023   2.719
 4531SOL    HW114129   3.231   2.957   2.720
 4531SOL    HW214130   3.324   3.031   2.626
 4532SOL     OW14131   3.328   2.471   2.830
 4532SOL    HW114132   3.271   2.394   2.834
 4532SOL    HW214133   3.385   2.462   2.907
 4533SOL     OW14134   3.704   2.673   2.247
 4533SOL    HW114135   3.762   2.624   2.305
 4533SOL    HW214136   3.678   2.610   2.179
 4534SOL     OW14137   2.351   3.284   2.015
 4534SOL    HW114138   2.275   3.255   2.066
 4534SOL    HW214139   2.344   3.234   1.933
 4535SOL     OW14140   3.538   3.126   2.503
 4535SOL    HW114141   3.633   3.126   2.519
 4535SOL    HW214142   3.511   3.215   2.526
 4536SOL     OW14143   3.255   2.435   1.933
 4536SOL    HW114144   3.194   2.414   2.004
 4536SOL    HW214145   3.340   2.403   1.966
 4537SOL     OW14146   3.611   3.104   3.426
 4537SOL    HW114147   3.698   3.065   3.421
 4537SOL    HW214148   3.627   3.194   3.456
 4538SOL     OW14149   2.918   3.217   3.195
 4538SOL    HW114150   2.842   3.185   3.244
 4538SOL    HW214151   2.993   3.174   3.236
 4539SOL     OW14152   3.471   3.489   3.520
 4539SOL    HW114153   3.463   3.523   3.431
 4539SOL    HW214154   3.553   3.440   3.519
 4540SOL     OW14155   2.997   3.073   2.965
 4540SOL    HW114156   2.935   3.109   3.028
 4540SOL    HW214157   2.967   3.106   2.880
 4541SOL     OW14158   3.484   2.957   2.939
 4541SOL    HW114159   3.478   3.020   3.010
 4541SOL    HW214160   3.408   2.976   2.884
 4542SOL     OW14161   2.787   1.952   3.256
 4542SOL    HW114162   2.807   1.936   3.163
 4542SOL    HW214163   2.867   1.993   3.290
 4543SOL     OW14164   2.846   2.976   3.585
 4543SOL    HW114165   2.755   2.993   3.608
 4543SOL    HW214166   2.843   2.898   3.530
 4544SOL     OW14167   2.571   2.924   2.231
 4544SOL    HW114168   2.558   2.906   2.324
 4544SOL    HW214169   2.646   2.870   2.206
 4545SOL     OW14170   2.283   2.678   3.114
 4545SOL    HW114171   2.354   2.695   3.175
 4545SOL    HW214172   2.239   2.601   3.150
 4546SOL     OW14173   3.131   2.236   3.143
 4546SOL    HW114174   3.161   2.315   3.188
 4546SOL    HW214175   3.040   2.255   3.119
 4547SOL     OW14176   1.936   3.436   3.219
 4547SOL    HW114177   1.907   3.507   3.162
 4547SOL    HW214178   2.031   3.436   3.210
 4548SOL     OW14179   2.205   2.974   2.346
 4548SOL    HW114180   2.208   3.051   2.289
 4548SOL    HW214181   2.201   2.900   2.286
 4549SOL     OW14182   2.524   2.453   2.713
 4549SOL    HW114183   2.506   2.483   2.624
 4549SOL    HW214184   2.464   2.504   2.768
 4550SOL     OW14185   3.109   3.212   2.252
 4550SOL    HW114186   3.165   3.283   2.284
 4550SOL    HW214187   3.022   3.233   2.285
 4551SOL     OW14188   3.150   3.322   3.010
 4551SOL    HW114189   3.205   3.326   3.088
 4551SOL    HW214190   3.096   3.245   3.023
 4552SOL     OW14191   3.440   2.482   2.345
 4552SOL    HW114192   3.391   2.529   2.412
 4552SOL    HW214193   3.483   2.551   2.294
 4553SOL     OW14194   2.207   3.393   3.172
 4553SOL    HW114195   2.196   3.347   3.089
 4553SOL    HW214196   2.302   3.403   3.181
 4554SOL     OW14197   2.283   2.611   3.459
 4554SOL    HW114198   2.349   2.656   3.408
 4554SOL    HW214199   2.313   2.521   3.465
 4555SOL     OW14200   3.470   2.643   3.548
 4555SOL    HW114201   3.384   2.684   3.542
 4555SOL    HW214202   3.522   2.684   3.479
 4556SOL     OW14203   2.859   1.993   3.612
 4556SOL    HW114204   2.919   2.064   3.591
 4556SOL    HW214205   2.907   1.914   3.588
 4557SOL     OW14206   2.353   1.897   3.613
 4557SOL    HW114207   2.314   1.836   3.550
 4557SOL    HW214208   2.295   1.973   3.612
 4558SOL     OW14209   2.441   2.723   2.889
 4558SOL    HW114210   2.481   2.809   2.883
 4558SOL    HW214211   2.390   2.726   2.970
 4559SOL     OW14212   3.210   2.720   2.884
 4559SOL    HW114213   3.124   2.704   2.846
 4559SOL    HW214214   3.256   2.637   2.875
 4560SOL     OW14215   3.061   2.389   2.125
 4560SOL    HW114216   3.070   2.311   2.179
 4560SOL    HW214217   3.019   2.454   2.182
 4561SOL     OW14218   1.912   3.174   3.137
 4561SOL    HW114219   1.941   3.118   3.209
 4561SOL    HW214220   1.914   3.262   3.172
 4562SOL     OW14221   2.629   2.519   2.969
 4562SOL    HW114222   2.650   2.466   2.892
 4562SOL    HW214223   2.573   2.589   2.935
 4563SOL     OW14224   3.600   2.822   3.719
 4563SOL    HW114225   3.557   2.755   3.666
 4563SOL    HW214226   3.540   2.838   3.791
 4564SOL     OW14227   3.484   2.241   2.223
 4564SOL    HW114228   3.511   2.175   2.287
 4564SOL    HW214229   3.460   2.317   2.275
 4565SOL     OW14230   2.894   2.622   2.819
 4565SOL    HW114231   2.886   2.643   2.912
 4565SOL    HW214232   2.863   2.531   2.812
 4566SOL     OW14233   2.843   3.428   3.583
 4566SOL    HW114234   2.828   3.472   3.499
 4566SOL    HW214235   2.887   3.347   3.559
 4567SOL     OW14236   3.714   3.364   3.467
 4567SOL    HW114237   3.735   3.391   3.377
 4567SOL    HW214238   3.795   3.379   3.516
 4568SOL     OW14239   2.218   2.782   3.667
 4568SOL    HW114240   2.298   2.799   3.718
 4568SOL    HW214241   2.246   2.721   3.599
 4569SOL     OW14242   3.388   2.134   1.988
 4569SOL    HW114243   3.324   2.069   2.016
 4569SOL    HW214244   3.423   2.170   2.070
 4570SOL     OW14245   3.149   2.686   1.890
 4570SOL    HW114246   3.192   2.601   1.895
 4570SOL    HW214247   3.182   2.725   1.809
 4571SOL     OW14248   2.930   3.200   2.718
 4571SOL    HW114249   2.935   3.128   2.655
 4571SOL    HW214250   2.989   3.267   2.683
 4572SOL     OW14251   2.168   2.684   2.807
 4572SOL    HW114252   2.262   2.698   2.805
 4572SOL    HW214253   2.157   2.601   2.853
 4573SOL     OW14254   2.996   2.237   3.545
 4573SOL    HW114255   2.948   2.290   3.610
 4573SOL    HW214256   3.083   2.276   3.542
 4574SOL     OW14257   3.026   2.061   3.334
 4574SOL    HW114258   3.013   2.125   3.404
 4574SOL    HW214259   3.069   2.111   3.264
 4575SOL     OW14260   1.870   3.178   2.055
 4575SOL    HW114261   1.783   3.195   2.019
 4575SOL    HW214262   1.864   3.090   2.091
 4576SOL     OW14263   1.952   3.644   2.804
 4576SOL    HW114264   1.922   3.566   2.757
 4576SOL    HW214265   2.041   3.658   2.771
 4577SOL     OW14266   2.354   3.436   2.767
 4577SOL    HW114267   2.423   3.499   2.791
 4577SOL    HW214268   2.398   3.374   2.709
 4578SOL     OW14269   2.839   2.662   3.085
 4578SOL    HW114270   2.882   2.628   3.164
 4578SOL    HW214271   2.762   2.607   3.074
 4579SOL     OW14272   1.908   2.409   2.978
 4579SOL    HW114273   1.939   2.322   2.952
 4579SOL    HW214274   1.927   2.414   3.072
 4580SOL     OW14275   3.242   2.796   3.519
 4580SOL    HW114276   3.263   2.890   3.516
 4580SOL    HW214277   3.239   2.769   3.427
 4581SOL     OW14278   2.675   2.430   2.233
 4581SOL    HW114279   2.685   2.359   2.168
 4581SOL    HW214280   2.604   2.483   2.199
 4582SOL     OW14281   3.502   2.463   3.043
 4582SOL    HW114282   3.493   2.404   3.118
 4582SOL    HW214283   3.590   2.445   3.009
 4583SOL     OW14284   2.101   3.411   3.585
 4583SOL    HW114285   2.079   3.476   3.652
 4583SOL    HW214286   2.107   3.328   3.633
 4584SOL     OW14287   2.784   3.541   3.333
 4584SOL    HW114288   2.761   3.502   3.249
 4584SOL    HW214289   2.779   3.635   3.318
 4585SOL     OW14290   2.004   3.004   3.338
 4585SOL    HW114291   2.005   2.956   3.420
 4585SOL    HW214292   2.020   2.938   3.271
 4586SOL     OW14293   3.184   2.906   3.082
 4586SOL    HW114294   3.204   2.842   3.014
 4586SOL    HW214295   3.117   2.962   3.042
 4587SOL     OW14296   3.177   2.720   2.166
 4587SOL    HW114297   3.104   2.687   2.218
 4587SOL    HW214298   3.150   2.705   2.075
 4588SOL     OW14299   3.643   3.599   3.019
 4588SOL    HW114300   3.701   3.626   2.949
 4588SOL    HW214301   3.614   3.511   2.995
 4589SOL     OW14302   3.102   3.595   2.969
 4589SOL    HW114303   3.184   3.619   2.927
 4589SOL    HW214304   3.111   3.502   2.989
 4590SOL     OW14305   1.948   3.128   2.873
 4590SOL    HW114306   1.932   3.143   2.966
 4590SOL    HW214307   1.874   3.074   2.844
 4591SOL     OW14308   2.540   3.532   3.599
 4591SOL    HW114309   2.482   3.608   3.591
 4591SOL    HW214310   2.609   3.548   3.534
 4592SOL     OW14311   3.584   2.016   2.368
 4592SOL    HW114312   3.655   2.000   2.305
 4592SOL    HW214313   3.567   1.931   2.408
 4593SOL     OW14314   3.254   3.430   2.352
 4593SOL    HW114315   3.313   3.463   2.284
 4593SOL    HW214316   3.204   3.506   2.380
 4594SOL     OW14317   2.003   3.656   3.704
 4594SOL    HW114318   1.952   3.590   3.752
 4594SOL    HW214319   2.048   3.706   3.773
 4595SOL     OW14320   3.140   2.791   2.534
 4595SOL    HW114321   3.213   2.730   2.543
 4595SOL    HW214322   3.174   2.862   2.480
 4596SOL     OW14323   2.669   3.139   3.287
 4596SOL    HW114324   2.641   3.179   3.369
 4596SOL    HW214325   2.599   3.159   3.225
 4597SOL     OW14326   2.531   3.487   2.018
 4597SOL    HW114327   2.544   3.501   1.924
 4597SOL    HW214328   2.475   3.409   2.023
 4598SOL     OW14329   3.482   3.589   3.254
 4598SOL    HW114330   3.535   3.594   3.174
 4598SOL    HW214331   3.468   3.680   3.279
 4599SOL     OW14332   3.705   2.033   2.828
 4599SOL    HW114333   3.735   1.945   2.803
 4599SOL    HW214334   3.619   2.041   2.789
 4600SOL     OW14335   3.070   3.464   1.895
 4600SOL    HW114336   3.059   3.373   1.921
 4600SOL    HW214337   3.005   3.478   1.827
 4601SOL     OW14338   2.685   2.869   3.239
 4601SOL    HW114339   2.734   2.855   3.158
 4601SOL    HW214340   2.685   2.964   3.252
 4602SOL     OW14341   2.778   2.772   2.152
 4602SOL    HW114342   2.839   2.805   2.086
 4602SOL    HW214343   2.827   2.704   2.198
 4603SOL     OW14344   3.351   3.490   1.907
 4603SOL    HW114345   3.257   3.480   1.891
 4603SOL    HW214346   3.389   3.496   1.819
 4604SOL     OW14347   2.230   3.166   3.354
 4604SOL    HW114348   2.216   3.242   3.297
 4604SOL    HW214349   2.153   3.112   3.340
 4605SOL     OW14350   3.470   3.146   3.142
 4605SOL    HW114351   3.529   3.130   3.216
 4605SOL    HW214352   3.410   3.213   3.173
 4606SOL     OW14353   2.921   2.971   2.573
 4606SOL    HW114354   2.849   2.920   2.609
 4606SOL    HW214355   2.986   2.906   2.546
 4607SOL     OW14356   2.889   2.101   2.827
 4607SOL    HW114357   2.885   2.053   2.744
 4607SOL    HW214358   2.881   2.033   2.894
 4608SOL     OW14359   2.467   3.350   2.342
 4608SOL    HW114360   2.516   3.300   2.277
 4608SOL    HW214361   2.393   3.386   2.294
 4609SOL     OW14362   3.588   2.254   3.242
 4609SOL    HW114363   3.660   2.317   3.242
 4609SOL    HW214364   3.617   2.183   3.185
 4610SOL     OW14365   2.124   3.203   2.155
 4610SOL    HW114366   2.032   3.200   2.130
 4610SOL    HW214367   2.124   3.243   2.242
 4611SOL     OW14368   1.976   2.891   3.586
 4611SOL    HW114369   1.899   2.865   3.638
 4611SOL    HW214370   2.050   2.850   3.630
 4612SOL     OW14371   2.548   2.048   3.356
 4612SOL    HW114372   2.634   2.023   3.322
 4612SOL    HW214373   2.567   2.088   3.441
 4613SOL     OW14374   1.897   2.183   1.918
 4613SOL    HW114375   1.826   2.141   1.869
 4613SOL    HW214376   1.909   2.268   1.876
 4614SOL     OW14377   3.288   2.720   3.260
 4614SOL    HW114378   3.238   2.781   3.205
 4614SOL    HW214379   3.377   2.722   3.224
 4615SOL     OW14380   1.928   2.021   2.162
 4615SOL    HW114381   1.906   2.084   2.094
 4615SOL    HW214382   2.014   2.049   2.194
 4616SOL     OW14383   3.040   3.197   1.980
 4616SOL    HW114384   2.950   3.166   1.981
 4616SOL    HW214385   3.067   3.198   2.072
 4617SOL     OW14386   2.487   2.689   3.291
 4617SOL    HW114387   2.544   2.765   3.279
 4617SOL    HW214388   2.546   2.614   3.293
 4618SOL     OW14389   3.344   3.645   2.844
 4618SOL    HW114390   3.366   3.711   2.778
 4618SOL    HW214391   3.429   3.618   2.880
 4619SOL     OW14392   2.590   2.424   3.565
 4619SOL    HW114393   2.634   2.486   3.624
 4619SOL    HW214394   2.614   2.338   3.600
 4620SOL     OW14395   3.336   3.057   3.491
 4620SOL    HW114396   3.324   3.072   3.585
 4620SOL    HW214397   3.428   3.076   3.475
 4621SOL     OW14398   2.234   3.602   3.428
 4621SOL    HW114399   2.151   3.647   3.412
 4621SOL    HW214400   2.209   3.520   3.469
 4622SOL     OW14401   3.527   2.741   3.117
 4622SOL    HW114402   3.523   2.656   3.074
 4622SOL    HW214403   3.517   2.804   3.046
 4623SOL     OW14404   3.077   2.181   2.320
 4623SOL    HW114405   3.140   2.108   2.313
 4623SOL    HW214406   3.107   2.231   2.396
 4624SOL     OW14407   2.436   2.608   2.506
 4624SOL    HW114408   2.486   2.690   2.502
 4624SOL    HW214409   2.356   2.626   2.457
 4625SOL     OW14410   3.619   2.225   3.515
 4625SOL    HW114411   3.604   2.241   3.422
 4625SOL    HW214412   3.546   2.169   3.541
 4626SOL     OW14413   3.611   2.795   3.373
 4626SOL    HW114414   3.600   2.889   3.385
 4626SOL    HW214415   3.593   2.781   3.280
 4627SOL     OW14416   2.725   3.228   1.903
 4627SOL    HW114417   2.688   3.256   1.987
 4627SOL    HW214418   2.742   3.309   1.856
 4628SOL     OW14419   2.525   3.647   2.801
 4628SOL    HW114420   2.506   3.738   2.781
 4628SOL    HW214421   2.620   3.640   2.795
 4629SOL     OW14422   2.730   2.831   2.715
 4629SOL    HW114423   2.780   2.757   2.751
 4629SOL    HW214424   2.696   2.877   2.792
 4630SOL     OW14425   2.939   2.850   1.950
 4630SOL    HW114426   2.918   2.902   1.872
 4630SOL    HW214427   3.013   2.796   1.924
 4631SOL     OW14428   3.712   3.416   2.705
 4631SOL    HW114429   3.632   3.404   2.653
 4631SOL    HW214430   3.707   3.349   2.772
 4632SOL     OW14431   2.087   3.161   3.715
 4632SOL    HW114432   2.026   3.096   3.681
 4632SOL    HW214433   2.060   3.174   3.806
 4633SOL     OW14434   1.948   3.094   2.528
 4633SOL    HW114435   1.955   3.048   2.612
 4633SOL    HW214436   2.014   3.052   2.472
 4634SOL     OW14437   2.546   3.269   3.493
 4634SOL    HW114438   2.467   3.226   3.525
 4634SOL    HW214439   2.543   3.357   3.530
 4635SOL     OW14440   3.674   2.044   3.099
 4635SOL    HW114441   3.680   1.949   3.112
 4635SOL    HW214442   3.685   2.056   3.005
 4636SOL     OW14443   3.558   3.349   2.955
 4636SOL    HW114444   3.480   3.329   2.905
 4636SOL    HW214445   3.564   3.279   3.020
 4637SOL     OW14446   2.693   3.441   2.537
 4637SOL    HW114447   2.672   3.503   2.468
 4637SOL    HW214448   2.618   3.381   2.539
 4638SOL     OW14449   3.293   2.089   2.978
 4638SOL    HW114450   3.310   2.005   3.020
 4638SOL    HW214451   3.244   2.139   3.043
 4639SOL     OW14452   2.872   1.878   2.999
 4639SOL    HW114453   2.816   1.812   2.958
 4639SOL    HW214454   2.959   1.838   3.000
 4640SOL     OW14455   2.635   3.196   2.182
 4640SOL    HW114456   2.608   3.104   2.189
 4640SOL    HW214457   2.717   3.200   2.231
 4641SOL     OW14458   2.482   3.417   3.149
 4641SOL    HW114459   2.482   3.499   3.198
 4641SOL    HW214460   2.570   3.410   3.112
 4642SOL     OW14461   3.218   1.914   2.032
 4642SOL    HW114462   3.250   1.845   1.974
 4642SOL    HW214463   3.129   1.887   2.055
 4643SOL     OW14464   3.159   2.325   2.540
 4643SOL    HW114465   3.106   2.404   2.544
 4643SOL    HW214466   3.153   2.288   2.628
 4644SOL     OW14467   3.448   2.058   2.744
 4644SOL    HW114468   3.391   2.082   2.817
 4644SOL    HW214469   3.447   2.135   2.687
 4645SOL     OW14470   1.903   2.927   2.172
 4645SOL    HW114471   1.997   2.920   2.154
 4645SOL    HW214472   1.876   2.838   2.194
 4646SOL     OW14473   2.750   3.521   2.201
 4646SOL    HW114474   2.676   3.505   2.143
 4646SOL    HW214475   2.722   3.594   2.256
 4647SOL     OW14476   2.059   2.535   3.864
 4647SOL    HW114477   1.971   2.510   3.891
 4647SOL    HW214478   2.076   2.482   3.786
 4648SOL     OW14479   1.858   2.264   4.341
 4648SOL    HW114480   1.779   2.276   4.394
 4648SOL    HW214481   1.857   2.172   4.316
 4649SOL     OW14482   2.419   3.195   4.932
 4649SOL    HW114483   2.345   3.201   4.871
 4649SOL    HW214484   2.443   3.285   4.950
 4650SOL     OW14485   3.430   3.375   4.433
 4650SOL    HW114486   3.387   3.353   4.515
 4650SOL    HW214487   3.359   3.379   4.369
 4651SOL     OW14488   2.995   2.554   4.434
 4651SOL    HW114489   3.040   2.637   4.420
 4651SOL    HW214490   2.943   2.568   4.514
 4652SOL     OW14491   3.636   2.462   3.951
 4652SOL    HW114492   3.611   2.456   3.858
 4652SOL    HW214493   3.597   2.384   3.991
 4653SOL     OW14494   2.551   2.878   4.371
 4653SOL    HW114495   2.596   2.864   4.455
 4653SOL    HW214496   2.473   2.928   4.393
 4654SOL     OW14497   2.588   3.014   5.524
 4654SOL    HW114498   2.626   3.097   5.556
 4654SOL    HW214499   2.496   3.034   5.509
 4655SOL     OW14500   2.184   3.295   4.786
 4655SOL    HW114501   2.110   3.261   4.736
 4655SOL    HW214502   2.237   3.343   4.722
 4656SOL     OW14503   3.321   3.364   5.084
 4656SOL    HW114504   3.375   3.443   5.095
 4656SOL    HW214505   3.254   3.372   5.152
 4657SOL     OW14506   3.471   2.306   4.464
 4657SOL    HW114507   3.396   2.325   4.407
 4657SOL    HW214508   3.477   2.383   4.521
 4658SOL     OW14509   2.082   3.578   4.193
 4658SOL    HW114510   2.102   3.653   4.249
 4658SOL    HW214511   2.156   3.571   4.133
 4659SOL     OW14512   2.993   3.199   5.415
 4659SOL    HW114513   3.029   3.193   5.504
 4659SOL    HW214514   2.945   3.118   5.403
 4660SOL     OW14515   2.096   3.308   4.261
 4660SOL    HW114516   2.077   3.402   4.260
 4660SOL    HW214517   2.035   3.272   4.325
 4661SOL     OW14518   2.107   2.948   4.599
 4661SOL    HW114519   2.118   2.860   4.633
 4661SOL    HW214520   2.023   2.977   4.635
 4662SOL     OW14521   2.468   3.663   5.160
 4662SOL    HW114522   2.386   3.643   5.205
 4662SOL    HW214523   2.489   3.753   5.187
 4663SOL     OW14524   2.441   2.844   3.859
 4663SOL    HW114525   2.490   2.891   3.791
 4663SOL    HW214526   2.478   2.875   3.941
 4664SOL     OW14527   3.452   1.995   5.186
 4664SOL    HW114528   3.487   2.075   5.146
 4664SOL    HW214529   3.435   2.020   5.277
 4665SOL     OW14530   1.988   2.510   4.287
 4665SOL    HW114531   1.948   2.424   4.302
 4665SOL    HW214532   1.973   2.558   4.369
 4666SOL     OW14533   3.705   3.617   4.055
 4666SOL    HW114534   3.773   3.591   4.117
 4666SOL    HW214535   3.724   3.709   4.036
 4667SOL     OW14536   1.900   3.453   3.845
 4667SOL    HW114537   1.880   3.361   3.866
 4667SOL    HW214538   1.874   3.501   3.924
 4668SOL     OW14539   3.550   2.779   4.370
 4668SOL    HW114540   3.633   2.736   4.350
 4668SOL    HW214541   3.530   2.830   4.291
 4669SOL     OW14542   3.511   2.965   4.154
 4669SOL    HW114543   3.597   2.967   4.113
 4669SOL    HW214544   3.517   3.028   4.226
 4670SOL     OW14545   2.478   3.250   4.459
 4670SOL    HW114546   2.430   3.168   4.467
 4670SOL    HW214547   2.462   3.278   4.369
 4671SOL     OW14548   3.151   3.098   5.147
 4671SOL    HW114549   3.180   3.030   5.087
 4671SOL    HW214550   3.209   3.091   5.222
 4672SOL     OW14551   2.673   1.864   4.224
 4672SOL    HW114552   2.716   1.948   4.208
 4672SOL    HW214553   2.581   1.886   4.236
 4673SOL     OW14554   3.393   2.861   3.924
 4673SOL    HW114555   3.324   2.803   3.957
 4673SOL    HW214556   3.436   2.894   4.003
 4674SOL     OW14557   3.046   3.674   5.349
 4674SOL    HW114558   3.051   3.734   5.275
 4674SOL    HW214559   3.063   3.588   5.312
 4675SOL     OW14560   3.329   3.282   4.674
 4675SOL    HW114561   3.262   3.297   4.740
 4675SOL    HW214562   3.317   3.191   4.647
 4676SOL     OW14563   3.516   3.612   4.301
 4676SOL    HW114564   3.498   3.579   4.213
 4676SOL    HW214565   3.496   3.538   4.359
 4677SOL     OW14566   2.466   2.585   3.994
 4677SOL    HW114567   2.461   2.662   3.937
 4677SOL    HW214568   2.391   2.593   4.053
 4678SOL     OW14569   3.169   2.201   4.643
 4678SOL    HW114570   3.079   2.168   4.642
 4678SOL    HW214571   3.209   2.159   4.720
 4679SOL     OW14572   3.441   3.535   4.034
 4679SOL    HW114573   3.532   3.562   4.026
 4679SOL    HW214574   3.413   3.518   3.944
 4680SOL     OW14575   3.280   2.351   5.389
 4680SOL    HW114576   3.249   2.380   5.475
 4680SOL    HW214577   3.308   2.261   5.403
 4681SOL     OW14578   2.914   2.558   4.153
 4681SOL    HW114579   2.932   2.546   4.246
 4681SOL    HW214580   2.830   2.513   4.138
 4682SOL     OW14581   1.948   2.680   4.503
 4682SOL    HW114582   2.028   2.674   4.555
 4682SOL    HW214583   1.904   2.758   4.536
 4683SOL     OW14584   1.987   3.732   5.308
 4683SOL    HW114585   1.990   3.708   5.400
 4683SOL    HW214586   1.906   3.693   5.275
 4684SOL     OW14587   2.760   2.216   3.921
 4684SOL    HW114588   2.801   2.276   3.859
 4684SOL    HW214589   2.761   2.131   3.877
 4685SOL     OW14590   3.556   2.432   5.556
 4685SOL    HW114591   3.526   2.507   5.505
 4685SOL    HW214592   3.586   2.369   5.491
 4686SOL     OW14593   3.239   3.001   4.262
 4686SOL    HW114594   3.319   2.990   4.212
 4686SOL    HW214595   3.188   3.066   4.213
 4687SOL     OW14596   2.861   3.305   4.194
 4687SOL    HW114597   2.831   3.380   4.143
 4687SOL    HW214598   2.839   3.328   4.284
 4688SOL     OW14599   2.217   3.674   4.592
 4688SOL    HW114600   2.262   3.590   4.598
 4688SOL    HW214601   2.285   3.739   4.612
 4689SOL     OW14602   3.661   2.917   4.596
 4689SOL    HW114603   3.608   2.896   4.519
 4689SOL    HW214604   3.598   2.922   4.668
 4690SOL     OW14605   3.088   3.400   5.238
 4690SOL    HW114606   3.076   3.327   5.299
 4690SOL    HW214607   3.020   3.388   5.172
 4691SOL     OW14608   2.170   2.816   3.974
 4691SOL    HW114609   2.252   2.832   3.926
 4691SOL    HW214610   2.138   2.733   3.939
 4692SOL     OW14611   3.340   2.613   4.450
 4692SOL    HW114612   3.340   2.570   4.536
 4692SOL    HW214613   3.420   2.666   4.450
 4693SOL     OW14614   2.335   3.144   5.472
 4693SOL    HW114615   2.305   3.155   5.382
 4693SOL    HW214616   2.255   3.126   5.522
 4694SOL     OW14617   2.986   3.641   3.953
 4694SOL    HW114618   2.911   3.601   3.997
 4694SOL    HW214619   3.010   3.577   3.885
 4695SOL     OW14620   1.982   2.105   5.234
 4695SOL    HW114621   2.042   2.176   5.213
 4695SOL    HW214622   2.025   2.057   5.305
 4696SOL     OW14623   3.491   3.244   3.814
 4696SOL    HW114624   3.449   3.329   3.799
 4696SOL    HW214625   3.423   3.180   3.793
 4697SOL     OW14626   2.326   3.598   4.043
 4697SOL    HW114627   2.370   3.654   4.107
 4697SOL    HW214628   2.396   3.564   3.988
 4698SOL     OW14629   3.263   1.972   4.161
 4698SOL    HW114630   3.254   1.944   4.069
 4698SOL    HW214631   3.357   1.973   4.176
 4699SOL     OW14632   2.117   3.654   4.953
 4699SOL    HW114633   2.161   3.582   4.999
 4699SOL    HW214634   2.109   3.623   4.863
 4700SOL     OW14635   2.798   3.565   4.621
 4700SOL    HW114636   2.869   3.511   4.654
 4700SOL    HW214637   2.758   3.513   4.551
 4701SOL     OW14638   2.254   2.559   4.180
 4701SOL    HW114639   2.263   2.470   4.145
 4701SOL    HW214640   2.164   2.565   4.210
 4702SOL     OW14641   3.389   2.084   5.449
 4702SOL    HW114642   3.401   2.109   5.541
 4702SOL    HW214643   3.317   2.020   5.450
 4703SOL     OW14644   2.502   1.990   3.818
 4703SOL    HW114645   2.551   1.919   3.860
 4703SOL    HW214646   2.454   1.948   3.747
 4704SOL     OW14647   2.639   2.151   5.500
 4704SOL    HW114648   2.719   2.115   5.539
 4704SOL    HW214649   2.569   2.122   5.558
 4705SOL     OW14650   2.739   3.393   4.922
 4705SOL    HW114651   2.715   3.356   4.837
 4705SOL    HW214652   2.803   3.332   4.958
 4706SOL     OW14653   3.241   2.440   5.125
 4706SOL    HW114654   3.243   2.405   5.215
 4706SOL    HW214655   3.245   2.535   5.136
 4707SOL     OW14656   2.681   3.275   4.677
 4707SOL    HW114657   2.763   3.245   4.637
 4707SOL    HW214658   2.614   3.256   4.611
 4708SOL     OW14659   2.404   1.934   4.221
 4708SOL    HW114660   2.328   1.926   4.278
 4708SOL    HW214661   2.404   2.026   4.193
 4709SOL     OW14662   3.290   3.062   3.763
 4709SOL    HW114663   3.320   2.987   3.815
 4709SOL    HW214664   3.205   3.085   3.800
 4710SOL     OW14665   2.159   1.903   3.902
 4710SOL    HW114666   2.229   1.961   3.870
 4710SOL    HW214667   2.205   1.834   3.949
 4711SOL     OW14668   2.799   2.112   4.181
 4711SOL    HW114669   2.781   2.152   4.096
 4711SOL    HW214670   2.894   2.120   4.191
 4712SOL     OW14671   3.085   3.428   4.516
 4712SOL    HW114672   3.096   3.496   4.449
 4712SOL    HW214673   3.151   3.449   4.583
 4713SOL     OW14674   2.327   3.014   4.446
 4713SOL    HW114675   2.259   2.997   4.511
 4713SOL    HW214676   2.283   3.002   4.361
 4714SOL     OW14677   3.127   3.653   4.336
 4714SOL    HW114678   3.175   3.715   4.281
 4714SOL    HW214679   3.058   3.706   4.377
 4715SOL     OW14680   2.886   2.398   3.750
 4715SOL    HW114681   2.844   2.483   3.732
 4715SOL    HW214682   2.951   2.418   3.817
 4716SOL     OW14683   2.722   2.326   4.359
 4716SOL    HW114684   2.689   2.376   4.285
 4716SOL    HW214685   2.751   2.243   4.322
 4717SOL     OW14686   2.907   1.896   4.430
 4717SOL    HW114687   2.824   1.903   4.382
 4717SOL    HW214688   2.887   1.839   4.505
 4718SOL     OW14689   3.303   3.024   4.581
 4718SOL    HW114690   3.231   2.960   4.580
 4718SOL    HW214691   3.330   3.032   4.490
 4719SOL     OW14692   3.327   2.470   4.692
 4719SOL    HW114693   3.280   2.386   4.693
 4719SOL    HW214694   3.385   2.465   4.768
 4720SOL     OW14695   3.704   2.673   4.108
 4720SOL    HW114696   3.762   2.624   4.167
 4720SOL    HW214697   3.678   2.610   4.041
 4721SOL     OW14698   2.351   3.283   3.876
 4721SOL    HW114699   2.275   3.255   3.928
 4721SOL    HW214700   2.344   3.234   3.794
 4722SOL     OW14701   3.536   3.125   4.367
 4722SOL    HW114702   3.631   3.125   4.382
 4722SOL    HW214703   3.509   3.215   4.388
 4723SOL     OW14704   3.256   2.435   3.795
 4723SOL    HW114705   3.194   2.413   3.865
 4723SOL    HW214706   3.340   2.402   3.827
 4724SOL     OW14707   3.610   3.104   5.288
 4724SOL    HW114708   3.697   3.064   5.284
 4724SOL    HW214709   3.626   3.194   5.317
 4725SOL     OW14710   2.924   3.214   5.048
 4725SOL    HW114711   2.845   3.187   5.094
 4725SOL    HW214712   2.996   3.172   5.096
 4726SOL     OW14713   3.472   3.490   5.382
 4726SOL    HW114714   3.464   3.524   5.293
 4726SOL    HW214715   3.553   3.440   5.381
 4727SOL     OW14716   2.984   3.058   4.824
 4727SOL    HW114717   2.936   3.105   4.893
 4727SOL    HW214718   2.960   3.102   4.743
 4728SOL     OW14719   3.485   2.958   4.801
 4728SOL    HW114720   3.479   3.021   4.873
 4728SOL    HW214721   3.409   2.978   4.746
 4729SOL     OW14722   2.839   2.960   5.429
 4729SOL    HW114723   2.750   2.982   5.455
 4729SOL    HW214724   2.830   2.886   5.369
 4730SOL     OW14725   2.572   2.926   4.092
 4730SOL    HW114726   2.559   2.910   4.185
 4730SOL    HW214727   2.647   2.872   4.068
 4731SOL     OW14728   1.932   3.435   5.082
 4731SOL    HW114729   1.905   3.498   5.016
 4731SOL    HW214730   2.026   3.423   5.067
 4732SOL     OW14731   2.202   2.977   4.206
 4732SOL    HW114732   2.204   3.051   4.144
 4732SOL    HW214733   2.197   2.900   4.150
 4733SOL     OW14734   3.108   3.212   4.115
 4733SOL    HW114735   3.165   3.283   4.146
 4733SOL    HW214736   3.021   3.234   4.149
 4734SOL     OW14737   3.150   3.323   4.875
 4734SOL    HW114738   3.209   3.329   4.950
 4734SOL    HW214739   3.083   3.261   4.902
 4735SOL     OW14740   3.441   2.483   4.207
 4735SOL    HW114741   3.390   2.533   4.271
 4735SOL    HW214742   3.486   2.549   4.155
 4736SOL     OW14743   2.206   3.396   5.035
 4736SOL    HW114744   2.196   3.352   4.950
 4736SOL    HW214745   2.300   3.414   5.042
 4737SOL     OW14746   3.473   2.648   5.414
 4737SOL    HW114747   3.384   2.681   5.403
 4737SOL    HW214748   3.523   2.687   5.342
 4738SOL     OW14749   3.215   2.719   4.751
 4738SOL    HW114750   3.130   2.703   4.708
 4738SOL    HW214751   3.262   2.636   4.743
 4739SOL     OW14752   3.061   2.390   3.986
 4739SOL    HW114753   3.070   2.311   4.039
 4739SOL    HW214754   3.019   2.453   4.044
 4740SOL     OW14755   2.571   2.488   4.732
 4740SOL    HW114756   2.602   2.464   4.644
 4740SOL    HW214757   2.600   2.578   4.744
 4741SOL     OW14758   3.603   2.824   5.583
 4741SOL    HW114759   3.560   2.758   5.529
 4741SOL    HW214760   3.542   2.839   5.656
 4742SOL     OW14761   2.162   1.929   4.360
 4742SOL    HW114762   2.123   2.011   4.392
 4742SOL    HW214763   2.180   1.879   4.439
 4743SOL     OW14764   3.486   2.241   4.085
 4743SOL    HW114765   3.511   2.174   4.149
 4743SOL    HW214766   3.460   2.317   4.138
 4744SOL     OW14767   2.842   3.425   5.443
 4744SOL    HW114768   2.827   3.470   5.360
 4744SOL    HW214769   2.887   3.344   5.419
 4745SOL     OW14770   3.714   3.363   5.329
 4745SOL    HW114771   3.735   3.391   5.239
 4745SOL    HW214772   3.795   3.378   5.378
 4746SOL     OW14773   3.387   2.135   3.850
 4746SOL    HW114774   3.324   2.069   3.878
 4746SOL    HW214775   3.423   2.170   3.932
 4747SOL     OW14776   3.150   2.687   3.753
 4747SOL    HW114777   3.193   2.601   3.757
 4747SOL    HW214778   3.182   2.725   3.671
 4748SOL     OW14779   2.928   3.199   4.585
 4748SOL    HW114780   2.934   3.125   4.524
 4748SOL    HW214781   2.986   3.265   4.548
 4749SOL     OW14782   2.176   2.684   4.666
 4749SOL    HW114783   2.266   2.706   4.641
 4749SOL    HW214784   2.184   2.604   4.717
 4750SOL     OW14785   1.870   3.178   3.918
 4750SOL    HW114786   1.783   3.195   3.882
 4750SOL    HW214787   1.865   3.089   3.953
 4751SOL     OW14788   1.953   3.645   4.665
 4751SOL    HW114789   1.922   3.567   4.618
 4751SOL    HW214790   2.042   3.658   4.633
 4752SOL     OW14791   2.357   3.437   4.628
 4752SOL    HW114792   2.425   3.499   4.654
 4752SOL    HW214793   2.402   3.373   4.572
 4753SOL     OW14794   1.917   2.348   4.811
 4753SOL    HW114795   1.998   2.319   4.770
 4753SOL    HW214796   1.941   2.369   4.901
 4754SOL     OW14797   3.239   2.796   5.383
 4754SOL    HW114798   3.260   2.889   5.381
 4754SOL    HW214799   3.240   2.769   5.291
 4755SOL     OW14800   2.677   2.431   4.092
 4755SOL    HW114801   2.686   2.359   4.030
 4755SOL    HW214802   2.604   2.483   4.058
 4756SOL     OW14803   3.500   2.469   4.902
 4756SOL    HW114804   3.482   2.418   4.981
 4756SOL    HW214805   3.588   2.442   4.876
 4757SOL     OW14806   2.099   3.411   5.447
 4757SOL    HW114807   2.079   3.475   5.516
 4757SOL    HW214808   2.105   3.327   5.493
 4758SOL     OW14809   2.545   2.324   4.948
 4758SOL    HW114810   2.479   2.266   4.909
 4758SOL    HW214811   2.559   2.392   4.882
 4759SOL     OW14812   2.786   3.541   5.194
 4759SOL    HW114813   2.762   3.500   5.111
 4759SOL    HW214814   2.777   3.635   5.178
 4760SOL     OW14815   3.179   2.906   4.944
 4760SOL    HW114816   3.204   2.844   4.876
 4760SOL    HW214817   3.111   2.960   4.903
 4761SOL     OW14818   3.177   2.720   4.028
 4761SOL    HW114819   3.103   2.686   4.079
 4761SOL    HW214820   3.151   2.705   3.937
 4762SOL     OW14821   3.642   3.599   4.881
 4762SOL    HW114822   3.701   3.626   4.810
 4762SOL    HW214823   3.614   3.511   4.857
 4763SOL     OW14824   3.102   3.595   4.830
 4763SOL    HW114825   3.184   3.619   4.788
 4763SOL    HW214826   3.111   3.502   4.851
 4764SOL     OW14827   1.934   3.155   4.720
 4764SOL    HW114828   1.912   3.124   4.808
 4764SOL    HW214829   1.872   3.109   4.663
 4765SOL     OW14830   2.542   3.535   5.463
 4765SOL    HW114831   2.484   3.610   5.452
 4765SOL    HW214832   2.610   3.548   5.396
 4766SOL     OW14833   3.584   2.016   4.230
 4766SOL    HW114834   3.655   1.999   4.167
 4766SOL    HW214835   3.567   1.930   4.270
 4767SOL     OW14836   3.254   3.430   4.213
 4767SOL    HW114837   3.313   3.464   4.145
 4767SOL    HW214838   3.204   3.506   4.242
 4768SOL     OW14839   2.001   3.657   5.567
 4768SOL    HW114840   1.950   3.590   5.614
 4768SOL    HW214841   2.046   3.706   5.636
 4769SOL     OW14842   3.137   2.788   4.396
 4769SOL    HW114843   3.210   2.727   4.408
 4769SOL    HW214844   3.172   2.858   4.340
 4770SOL     OW14845   2.679   3.154   5.143
 4770SOL    HW114846   2.645   3.189   5.226
 4770SOL    HW214847   2.603   3.151   5.085
 4771SOL     OW14848   2.531   3.487   3.879
 4771SOL    HW114849   2.544   3.501   3.786
 4771SOL    HW214850   2.475   3.409   3.885
 4772SOL     OW14851   3.483   3.589   5.116
 4772SOL    HW114852   3.535   3.595   5.036
 4772SOL    HW214853   3.468   3.681   5.141
 4773SOL     OW14854   3.707   2.033   4.690
 4773SOL    HW114855   3.735   1.945   4.664
 4773SOL    HW214856   3.620   2.042   4.651
 4774SOL     OW14857   3.070   3.464   3.757
 4774SOL    HW114858   3.059   3.373   3.783
 4774SOL    HW214859   3.005   3.478   3.689
 4775SOL     OW14860   2.783   2.777   4.022
 4775SOL    HW114861   2.841   2.806   3.951
 4775SOL    HW214862   2.831   2.704   4.062
 4776SOL     OW14863   3.351   3.490   3.769
 4776SOL    HW114864   3.257   3.480   3.753
 4776SOL    HW214865   3.389   3.496   3.681
 4777SOL     OW14866   2.219   3.186   5.230
 4777SOL    HW114867   2.224   3.262   5.172
 4777SOL    HW214868   2.136   3.143   5.208
 4778SOL     OW14869   3.471   3.146   5.005
 4778SOL    HW114870   3.528   3.129   5.080
 4778SOL    HW214871   3.410   3.213   5.035
 4779SOL     OW14872   2.920   2.963   4.442
 4779SOL    HW114873   2.844   2.913   4.413
 4779SOL    HW214874   2.995   2.908   4.417
 4780SOL     OW14875   2.466   3.349   4.204
 4780SOL    HW114876   2.515   3.301   4.138
 4780SOL    HW214877   2.392   3.387   4.157
 4781SOL     OW14878   3.591   2.247   5.106
 4781SOL    HW114879   3.659   2.314   5.104
 4781SOL    HW214880   3.622   2.179   5.046
 4782SOL     OW14881   2.125   3.203   4.018
 4782SOL    HW114882   2.032   3.200   3.993
 4782SOL    HW214883   2.125   3.244   4.104
 4783SOL     OW14884   1.969   2.925   5.508
 4783SOL    HW114885   1.925   2.843   5.532
 4783SOL    HW214886   2.054   2.898   5.475
 4784SOL     OW14887   1.915   2.187   3.791
 4784SOL    HW114888   1.834   2.183   3.739
 4784SOL    HW214889   1.974   2.241   3.739
 4785SOL     OW14890   3.287   2.728   5.124
 4785SOL    HW114891   3.241   2.790   5.067
 4785SOL    HW214892   3.375   2.723   5.087
 4786SOL     OW14893   1.930   2.015   4.022
 4786SOL    HW114894   1.909   2.087   3.962
 4786SOL    HW214895   2.013   1.980   3.990
 4787SOL     OW14896   3.040   3.197   3.842
 4787SOL    HW114897   2.949   3.168   3.843
 4787SOL    HW214898   3.066   3.198   3.934
 4788SOL     OW14899   3.344   3.645   4.706
 4788SOL    HW114900   3.366   3.711   4.640
 4788SOL    HW214901   3.429   3.619   4.742
 4789SOL     OW14902   2.578   2.411   5.447
 4789SOL    HW114903   2.607   2.444   5.532
 4789SOL    HW214904   2.598   2.317   5.449
 4790SOL     OW14905   3.335   3.057   5.356
 4790SOL    HW114906   3.324   3.072   5.450
 4790SOL    HW214907   3.428   3.075   5.340
 4791SOL     OW14908   2.234   3.603   5.291
 4791SOL    HW114909   2.151   3.648   5.274
 4791SOL    HW214910   2.209   3.520   5.331
 4792SOL     OW14911   3.527   2.742   4.980
 4792SOL    HW114912   3.522   2.656   4.937
 4792SOL    HW214913   3.517   2.804   4.908
 4793SOL     OW14914   3.078   2.183   4.178
 4793SOL    HW114915   3.138   2.108   4.172
 4793SOL    HW214916   3.109   2.232   4.254
 4794SOL     OW14917   2.435   2.620   4.391
 4794SOL    HW114918   2.480   2.699   4.362
 4794SOL    HW214919   2.375   2.599   4.320
 4795SOL     OW14920   3.618   2.223   5.380
 4795SOL    HW114921   3.604   2.243   5.287
 4795SOL    HW214922   3.542   2.170   5.405
 4796SOL     OW14923   3.614   2.795   5.233
 4796SOL    HW114924   3.600   2.889   5.246
 4796SOL    HW214925   3.594   2.780   5.141
 4797SOL     OW14926   2.726   3.227   3.765
 4797SOL    HW114927   2.688   3.255   3.848
 4797SOL    HW214928   2.742   3.309   3.717
 4798SOL     OW14929   2.525   3.648   4.663
 4798SOL    HW114930   2.508   3.740   4.643
 4798SOL    HW214931   2.620   3.640   4.657
 4799SOL     OW14932   2.938   2.849   3.813
 4799SOL    HW114933   2.917   2.901   3.735
 4799SOL    HW214934   3.013   2.795   3.786
 4800SOL     OW14935   3.712   3.416   4.567
 4800SOL    HW114936   3.632   3.404   4.515
 4800SOL    HW214937   3.706   3.349   4.635
 4801SOL     OW14938   2.084   3.166   5.581
 4801SOL    HW114939   2.033   3.088   5.560
 4801SOL    HW214940   2.084   3.170   5.676
 4802SOL     OW14941   1.947   3.093   4.378
 4802SOL    HW114942   1.949   3.035   4.454
 4802SOL    HW214943   2.016   3.059   4.320
 4803SOL     OW14944   2.544   3.275   5.348
 4803SOL    HW114945   2.475   3.225   5.393
 4803SOL    HW214946   2.543   3.361   5.390
 4804SOL     OW14947   3.676   2.040   4.960
 4804SOL    HW114948   3.680   1.945   4.970
 4804SOL    HW214949   3.687   2.054   4.866
 4805SOL     OW14950   3.559   3.349   4.817
 4805SOL    HW114951   3.480   3.329   4.767
 4805SOL    HW214952   3.565   3.279   4.882
 4806SOL     OW14953   2.694   3.439   4.398
 4806SOL    HW114954   2.666   3.499   4.328
 4806SOL    HW214955   2.621   3.379   4.409
 4807SOL     OW14956   3.292   2.087   4.855
 4807SOL    HW114957   3.305   1.995   4.876
 4807SOL    HW214958   3.294   2.132   4.939
 4808SOL     OW14959   2.635   3.197   4.042
 4808SOL    HW114960   2.608   3.106   4.048
 4808SOL    HW214961   2.716   3.202   4.093
 4809SOL     OW14962   2.480   3.446   5.002
 4809SOL    HW114963   2.484   3.524   5.057
 4809SOL    HW214964   2.570   3.433   4.972
 4810SOL     OW14965   3.218   1.914   3.893
 4810SOL    HW114966   3.251   1.843   3.837
 4810SOL    HW214967   3.129   1.887   3.915
 4811SOL     OW14968   3.167   2.326   4.397
 4811SOL    HW114969   3.111   2.402   4.411
 4811SOL    HW214970   3.168   2.281   4.482
 4812SOL     OW14971   3.452   2.060   4.602
 4812SOL    HW114972   3.384   2.081   4.666
 4812SOL    HW214973   3.452   2.135   4.542
 4813SOL     OW14974   1.905   2.926   4.033
 4813SOL    HW114975   1.997   2.916   4.010
 4813SOL    HW214976   1.876   2.838   4.057
 4814SOL     OW14977   2.751   3.521   4.061
 4814SOL    HW114978   2.676   3.505   4.004
 4814SOL    HW214979   2.723   3.593   4.117
 4815SOL     OW14980   2.072   2.498   5.642
 4815SOL    HW114981   2.014   2.438   5.689
 4815SOL    HW214982   2.144   2.443   5.613
 4816SOL     OW14983   2.415   3.162   6.777
 4816SOL    HW114984   2.329   3.163   6.733
 4816SOL    HW214985   2.428   3.253   6.804
 4817SOL     OW14986   3.431   3.375   6.295
 4817SOL    HW114987   3.388   3.352   6.377
 4817SOL    HW214988   3.361   3.379   6.230
 4818SOL     OW14989   3.641   2.461   5.810
 4818SOL    HW114990   3.612   2.456   5.719
 4818SOL    HW214991   3.599   2.387   5.853
 4819SOL     OW14992   2.619   3.024   6.676
 4819SOL    HW114993   2.542   3.058   6.721
 4819SOL    HW214994   2.649   3.097   6.620
 4820SOL     OW14995   2.735   2.627   7.410
 4820SOL    HW114996   2.723   2.696   7.476
 4820SOL    HW214997   2.758   2.675   7.330
 4821SOL     OW14998   2.576   3.012   7.402
 4821SOL    HW114999   2.623   3.089   7.433
 4821SOL    HW215000   2.495   3.047   7.364
 4822SOL     OW15001   2.185   3.293   6.652
 4822SOL    HW115002   2.128   3.239   6.598
 4822SOL    HW215003   2.240   3.341   6.589
 4823SOL     OW15004   3.321   3.363   6.947
 4823SOL    HW115005   3.375   3.442   6.955
 4823SOL    HW215006   3.253   3.373   7.013
 4824SOL     OW15007   3.472   2.305   6.331
 4824SOL    HW115008   3.388   2.313   6.287
 4824SOL    HW215009   3.482   2.387   6.380
 4825SOL     OW15010   2.085   3.570   6.057
 4825SOL    HW115011   2.104   3.647   6.112
 4825SOL    HW215012   2.159   3.567   5.995
 4826SOL     OW15013   3.000   3.205   7.281
 4826SOL    HW115014   3.040   3.198   7.367
 4826SOL    HW215015   2.948   3.125   7.272
 4827SOL     OW15016   2.078   3.297   6.118
 4827SOL    HW115017   2.072   3.392   6.112
 4827SOL    HW215018   2.051   3.277   6.208
 4828SOL     OW15019   2.171   2.970   6.542
 4828SOL    HW115020   2.155   2.877   6.531
 4828SOL    HW215021   2.084   3.009   6.548
 4829SOL     OW15022   2.465   3.655   7.013
 4829SOL    HW115023   2.385   3.636   7.061
 4829SOL    HW215024   2.490   3.743   7.040
 4830SOL     OW15025   3.456   1.989   7.050
 4830SOL    HW115026   3.480   2.069   7.003
 4830SOL    HW215027   3.438   2.018   7.139
 4831SOL     OW15028   2.028   2.479   6.174
 4831SOL    HW115029   1.944   2.439   6.152
 4831SOL    HW215030   2.009   2.535   6.249
 4832SOL     OW15031   3.705   3.617   5.916
 4832SOL    HW115032   3.773   3.591   5.979
 4832SOL    HW215033   3.724   3.709   5.897
 4833SOL     OW15034   1.897   3.452   5.708
 4833SOL    HW115035   1.873   3.362   5.728
 4833SOL    HW215036   1.874   3.501   5.788
 4834SOL     OW15037   3.550   2.781   6.231
 4834SOL    HW115038   3.633   2.738   6.209
 4834SOL    HW215039   3.528   2.832   6.154
 4835SOL     OW15040   3.512   2.965   6.015
 4835SOL    HW115041   3.598   2.967   5.973
 4835SOL    HW215042   3.518   3.029   6.086
 4836SOL     OW15043   1.985   2.604   7.170
 4836SOL    HW115044   2.075   2.630   7.190
 4836SOL    HW215045   1.934   2.684   7.184
 4837SOL     OW15046   2.473   3.260   6.313
 4837SOL    HW115047   2.443   3.169   6.310
 4837SOL    HW215048   2.458   3.293   6.224
 4838SOL     OW15049   3.147   3.098   7.008
 4838SOL    HW115050   3.177   3.030   6.947
 4838SOL    HW215051   3.207   3.092   7.082
 4839SOL     OW15052   2.047   2.821   6.869
 4839SOL    HW115053   2.133   2.792   6.839
 4839SOL    HW215054   1.986   2.786   6.804
 4840SOL     OW15055   3.396   2.855   5.787
 4840SOL    HW115056   3.326   2.797   5.818
 4840SOL    HW215057   3.436   2.891   5.866
 4841SOL     OW15058   3.046   3.673   7.211
 4841SOL    HW115059   3.052   3.734   7.137
 4841SOL    HW215060   3.063   3.587   7.173
 4842SOL     OW15061   3.329   3.280   6.533
 4842SOL    HW115062   3.262   3.297   6.599
 4842SOL    HW215063   3.315   3.189   6.507
 4843SOL     OW15064   3.516   3.612   6.163
 4843SOL    HW115065   3.497   3.580   6.075
 4843SOL    HW215066   3.496   3.539   6.221
 4844SOL     OW15067   3.156   2.210   6.523
 4844SOL    HW115068   3.074   2.161   6.528
 4844SOL    HW215069   3.213   2.170   6.589
 4845SOL     OW15070   3.440   3.536   5.896
 4845SOL    HW115071   3.532   3.562   5.888
 4845SOL    HW215072   3.412   3.519   5.807
 4846SOL     OW15073   2.649   2.456   7.025
 4846SOL    HW115074   2.633   2.447   7.119
 4846SOL    HW215075   2.586   2.395   6.984
 4847SOL     OW15076   3.255   2.336   7.264
 4847SOL    HW115077   3.259   2.380   7.349
 4847SOL    HW215078   3.313   2.260   7.274
 4848SOL     OW15079   2.811   2.747   7.171
 4848SOL    HW115080   2.867   2.679   7.132
 4848SOL    HW215081   2.767   2.786   7.096
 4849SOL     OW15082   2.860   2.274   6.831
 4849SOL    HW115083   2.795   2.336   6.864
 4849SOL    HW215084   2.813   2.223   6.765
 4850SOL     OW15085   1.986   3.729   7.169
 4850SOL    HW115086   1.991   3.706   7.262
 4850SOL    HW215087   1.901   3.696   7.140
 4851SOL     OW15088   3.566   2.433   7.416
 4851SOL    HW115089   3.531   2.507   7.366
 4851SOL    HW215090   3.595   2.371   7.349
 4852SOL     OW15091   3.244   3.000   6.123
 4852SOL    HW115092   3.324   2.992   6.070
 4852SOL    HW215093   3.191   3.064   6.076
 4853SOL     OW15094   2.422   2.009   6.459
 4853SOL    HW115095   2.432   2.040   6.549
 4853SOL    HW215096   2.434   2.087   6.405
 4854SOL     OW15097   2.864   3.304   6.053
 4854SOL    HW115098   2.832   3.381   6.006
 4854SOL    HW215099   2.843   3.321   6.144
 4855SOL     OW15100   2.215   3.675   6.455
 4855SOL    HW115101   2.261   3.591   6.462
 4855SOL    HW215102   2.283   3.740   6.474
 4856SOL     OW15103   3.661   2.917   6.458
 4856SOL    HW115104   3.609   2.896   6.380
 4856SOL    HW215105   3.597   2.923   6.529
 4857SOL     OW15106   3.088   3.402   7.099
 4857SOL    HW115107   3.077   3.330   7.161
 4857SOL    HW215108   3.023   3.385   7.031
 4858SOL     OW15109   3.339   2.611   6.305
 4858SOL    HW115110   3.337   2.572   6.392
 4858SOL    HW215111   3.415   2.669   6.307
 4859SOL     OW15112   2.331   3.130   7.324
 4859SOL    HW115113   2.305   3.134   7.232
 4859SOL    HW215114   2.249   3.125   7.373
 4860SOL     OW15115   2.985   3.641   5.815
 4860SOL    HW115116   2.911   3.600   5.859
 4860SOL    HW215117   3.010   3.578   5.747
 4861SOL     OW15118   3.488   3.243   5.676
 4861SOL    HW115119   3.447   3.328   5.661
 4861SOL    HW215120   3.419   3.179   5.660
 4862SOL     OW15121   2.327   3.597   5.905
 4862SOL    HW115122   2.371   3.654   5.968
 4862SOL    HW215123   2.396   3.565   5.848
 4863SOL     OW15124   3.269   1.948   6.031
 4863SOL    HW115125   3.250   1.943   5.937
 4863SOL    HW215126   3.358   1.982   6.036
 4864SOL     OW15127   2.118   3.652   6.815
 4864SOL    HW115128   2.167   3.583   6.860
 4864SOL    HW215129   2.111   3.621   6.724
 4865SOL     OW15130   2.801   3.561   6.483
 4865SOL    HW115131   2.880   3.512   6.504
 4865SOL    HW215132   2.760   3.511   6.413
 4866SOL     OW15133   3.391   2.086   7.310
 4866SOL    HW115134   3.402   2.107   7.403
 4866SOL    HW215135   3.324   2.018   7.308
 4867SOL     OW15136   2.470   2.028   5.671
 4867SOL    HW115137   2.531   1.965   5.710
 4867SOL    HW215138   2.406   1.974   5.625
 4868SOL     OW15139   2.628   2.142   7.343
 4868SOL    HW115140   2.707   2.089   7.338
 4868SOL    HW215141   2.580   2.107   7.419
 4869SOL     OW15142   2.735   3.384   6.782
 4869SOL    HW115143   2.721   3.349   6.694
 4869SOL    HW215144   2.806   3.331   6.818
 4870SOL     OW15145   3.199   2.453   7.020
 4870SOL    HW115146   3.232   2.422   7.104
 4870SOL    HW215147   3.238   2.540   7.010
 4871SOL     OW15148   2.678   3.253   6.530
 4871SOL    HW115149   2.763   3.237   6.490
 4871SOL    HW215150   2.617   3.257   6.456
 4872SOL     OW15151   2.778   2.385   6.527
 4872SOL    HW115152   2.694   2.380   6.482
 4872SOL    HW215153   2.838   2.335   6.471
 4873SOL     OW15154   2.397   1.994   6.091
 4873SOL    HW115155   2.332   1.935   6.129
 4873SOL    HW215156   2.347   2.047   6.029
 4874SOL     OW15157   3.290   3.056   5.629
 4874SOL    HW115158   3.327   2.983   5.678
 4874SOL    HW215159   3.196   3.051   5.646
 4875SOL     OW15160   2.940   2.542   7.046
 4875SOL    HW115161   2.883   2.466   7.061
 4875SOL    HW215162   3.028   2.504   7.039
 4876SOL     OW15163   3.081   3.435   6.381
 4876SOL    HW115164   3.097   3.500   6.312
 4876SOL    HW215165   3.152   3.450   6.444
 4877SOL     OW15166   3.127   3.654   6.198
 4877SOL    HW115167   3.175   3.716   6.142
 4877SOL    HW215168   3.059   3.708   6.239
 4878SOL     OW15169   2.915   2.392   5.600
 4878SOL    HW115170   2.911   2.454   5.526
 4878SOL    HW215171   2.972   2.435   5.664
 4879SOL     OW15172   1.949   2.425   6.972
 4879SOL    HW115173   2.029   2.384   7.004
 4879SOL    HW215174   1.933   2.498   7.033
 4880SOL     OW15175   2.434   2.024   6.734
 4880SOL    HW115176   2.470   1.979   6.810
 4880SOL    HW215177   2.342   2.037   6.755
 4881SOL     OW15178   3.299   3.021   6.441
 4881SOL    HW115179   3.228   2.957   6.440
 4881SOL    HW215180   3.325   3.030   6.350
 4882SOL     OW15181   3.328   2.475   6.556
 4882SOL    HW115182   3.275   2.395   6.560
 4882SOL    HW215183   3.387   2.468   6.631
 4883SOL     OW15184   3.703   2.673   5.971
 4883SOL    HW115185   3.761   2.624   6.029
 4883SOL    HW215186   3.679   2.611   5.903
 4884SOL     OW15187   2.356   3.281   5.740
 4884SOL    HW115188   2.274   3.254   5.784
 4884SOL    HW215189   2.355   3.234   5.657
 4885SOL     OW15190   3.538   3.126   6.227
 4885SOL    HW115191   3.633   3.126   6.243
 4885SOL    HW215192   3.510   3.215   6.249
 4886SOL     OW15193   3.259   2.434   5.664
 4886SOL    HW115194   3.240   2.409   5.754
 4886SOL    HW215195   3.352   2.412   5.652
 4887SOL     OW15196   3.611   3.104   7.150
 4887SOL    HW115197   3.698   3.065   7.145
 4887SOL    HW215198   3.627   3.194   7.180
 4888SOL     OW15199   2.917   3.220   6.923
 4888SOL    HW115200   2.842   3.186   6.971
 4888SOL    HW215201   2.992   3.175   6.961
 4889SOL     OW15202   3.472   3.490   7.244
 4889SOL    HW115203   3.463   3.523   7.155
 4889SOL    HW215204   3.553   3.440   7.243
 4890SOL     OW15205   2.999   3.076   6.691
 4890SOL    HW115206   2.931   3.105   6.751
 4890SOL    HW215207   2.966   3.100   6.604
 4891SOL     OW15208   3.484   2.957   6.662
 4891SOL    HW115209   3.478   3.021   6.734
 4891SOL    HW215210   3.407   2.975   6.608
 4892SOL     OW15211   2.787   1.955   6.983
 4892SOL    HW115212   2.810   1.933   6.893
 4892SOL    HW215213   2.867   1.995   7.018
 4893SOL     OW15214   2.846   2.977   7.309
 4893SOL    HW115215   2.755   2.994   7.332
 4893SOL    HW215216   2.843   2.899   7.254
 4894SOL     OW15217   2.285   2.674   6.837
 4894SOL    HW115218   2.358   2.689   6.897
 4894SOL    HW215219   2.232   2.607   6.880
 4895SOL     OW15220   3.130   2.237   6.866
 4895SOL    HW115221   3.160   2.315   6.911
 4895SOL    HW215222   3.039   2.255   6.844
 4896SOL     OW15223   1.935   3.438   6.945
 4896SOL    HW115224   1.908   3.509   6.886
 4896SOL    HW215225   2.030   3.435   6.936
 4897SOL     OW15226   2.532   2.396   6.431
 4897SOL    HW115227   2.496   2.441   6.354
 4897SOL    HW215228   2.489   2.437   6.505
 4898SOL     OW15229   3.113   3.210   5.980
 4898SOL    HW115230   3.167   3.282   6.011
 4898SOL    HW215231   3.024   3.231   6.010
 4899SOL     OW15232   3.149   3.322   6.733
 4899SOL    HW115233   3.203   3.324   6.812
 4899SOL    HW215234   3.095   3.244   6.742
 4900SOL     OW15235   3.437   2.485   6.063
 4900SOL    HW115236   3.390   2.527   6.135
 4900SOL    HW215237   3.483   2.557   6.020
 4901SOL     OW15238   2.205   3.393   6.899
 4901SOL    HW115239   2.192   3.351   6.814
 4901SOL    HW215240   2.300   3.404   6.906
 4902SOL     OW15241   2.282   2.622   7.186
 4902SOL    HW115242   2.347   2.664   7.129
 4902SOL    HW215243   2.320   2.537   7.207
 4903SOL     OW15244   3.469   2.642   7.272
 4903SOL    HW115245   3.384   2.685   7.265
 4903SOL    HW215246   3.522   2.684   7.203
 4904SOL     OW15247   2.858   1.994   7.337
 4904SOL    HW115248   2.918   2.065   7.316
 4904SOL    HW215249   2.906   1.915   7.312
 4905SOL     OW15250   2.349   1.903   7.338
 4905SOL    HW115251   2.310   1.842   7.275
 4905SOL    HW215252   2.295   1.981   7.333
 4906SOL     OW15253   2.439   2.731   6.612
 4906SOL    HW115254   2.472   2.821   6.609
 4906SOL    HW215255   2.387   2.728   6.692
 4907SOL     OW15256   3.209   2.722   6.609
 4907SOL    HW115257   3.129   2.714   6.557
 4907SOL    HW215258   3.253   2.637   6.598
 4908SOL     OW15259   1.923   3.176   6.857
 4908SOL    HW115260   1.947   3.119   6.930
 4908SOL    HW215261   1.920   3.264   6.895
 4909SOL     OW15262   2.594   2.513   6.701
 4909SOL    HW115263   2.662   2.483   6.642
 4909SOL    HW215264   2.558   2.591   6.659
 4910SOL     OW15265   3.600   2.821   7.443
 4910SOL    HW115266   3.557   2.755   7.390
 4910SOL    HW215267   3.540   2.838   7.515
 4911SOL     OW15268   3.480   2.239   5.951
 4911SOL    HW115269   3.511   2.176   6.016
 4911SOL    HW215270   3.458   2.317   6.002
 4912SOL     OW15271   2.880   2.643   6.550
 4912SOL    HW115272   2.880   2.651   6.645
 4912SOL    HW215273   2.866   2.550   6.534
 4913SOL     OW15274   2.843   3.428   7.307
 4913SOL    HW115275   2.827   3.472   7.223
 4913SOL    HW215276   2.887   3.347   7.283
 4914SOL     OW15277   3.714   3.364   7.191
 4914SOL    HW115278   3.734   3.391   7.101
 4914SOL    HW215279   3.795   3.379   7.240
 4915SOL     OW15280   2.218   2.787   7.397
 4915SOL    HW115281   2.300   2.803   7.444
 4915SOL    HW215282   2.243   2.729   7.325
 4916SOL     OW15283   3.391   2.141   5.712
 4916SOL    HW115284   3.327   2.074   5.738
 4916SOL    HW215285   3.425   2.174   5.794
 4917SOL     OW15286   3.140   2.680   5.609
 4917SOL    HW115287   3.186   2.596   5.615
 4917SOL    HW215288   3.173   2.721   5.529
 4918SOL     OW15289   2.928   3.201   6.442
 4918SOL    HW115290   2.931   3.129   6.379
 4918SOL    HW215291   2.988   3.267   6.406
 4919SOL     OW15292   2.173   2.690   6.522
 4919SOL    HW115293   2.268   2.697   6.531
 4919SOL    HW215294   2.151   2.609   6.567
 4920SOL     OW15295   2.995   2.238   7.270
 4920SOL    HW115296   2.948   2.291   7.334
 4920SOL    HW215297   3.083   2.277   7.267
 4921SOL     OW15298   3.027   2.062   7.059
 4921SOL    HW115299   3.015   2.126   7.130
 4921SOL    HW215300   3.070   2.112   6.989
 4922SOL     OW15301   1.850   3.161   5.795
 4922SOL    HW115302   1.769   3.194   5.756
 4922SOL    HW215303   1.855   3.070   5.764
 4923SOL     OW15304   1.950   3.640   6.524
 4923SOL    HW115305   1.923   3.561   6.477
 4923SOL    HW215306   2.040   3.656   6.494
 4924SOL     OW15307   2.355   3.437   6.491
 4924SOL    HW115308   2.424   3.499   6.516
 4924SOL    HW215309   2.398   3.376   6.432
 4925SOL     OW15310   2.836   2.651   6.816
 4925SOL    HW115311   2.887   2.626   6.893
 4925SOL    HW215312   2.752   2.607   6.829
 4926SOL     OW15313   1.911   2.412   6.701
 4926SOL    HW115314   1.955   2.332   6.675
 4926SOL    HW215315   1.930   2.420   6.795
 4927SOL     OW15316   3.242   2.796   7.242
 4927SOL    HW115317   3.263   2.889   7.239
 4927SOL    HW215318   3.239   2.769   7.150
 4928SOL     OW15319   3.503   2.463   6.767
 4928SOL    HW115320   3.493   2.404   6.842
 4928SOL    HW215321   3.590   2.445   6.733
 4929SOL     OW15322   2.101   3.411   7.310
 4929SOL    HW115323   2.079   3.475   7.377
 4929SOL    HW215324   2.107   3.328   7.357
 4930SOL     OW15325   2.782   3.542   7.058
 4930SOL    HW115326   2.761   3.501   6.974
 4930SOL    HW215327   2.777   3.636   7.041
 4931SOL     OW15328   2.002   3.004   7.063
 4931SOL    HW115329   2.004   2.957   7.146
 4931SOL    HW215330   2.019   2.937   6.997
 4932SOL     OW15331   3.183   2.906   6.806
 4932SOL    HW115332   3.202   2.842   6.738
 4932SOL    HW215333   3.117   2.964   6.767
 4933SOL     OW15334   3.174   2.711   5.878
 4933SOL    HW115335   3.089   2.716   5.921
 4933SOL    HW215336   3.153   2.699   5.785
 4934SOL     OW15337   3.643   3.599   6.743
 4934SOL    HW115338   3.701   3.625   6.673
 4934SOL    HW215339   3.614   3.511   6.719
 4935SOL     OW15340   3.102   3.595   6.694
 4935SOL    HW115341   3.184   3.618   6.651
 4935SOL    HW215342   3.111   3.502   6.713
 4936SOL     OW15343   1.919   3.094   6.599
 4936SOL    HW115344   1.930   3.128   6.688
 4936SOL    HW215345   1.833   3.051   6.600
 4937SOL     OW15346   2.541   3.533   7.323
 4937SOL    HW115347   2.483   3.608   7.315
 4937SOL    HW215348   2.610   3.547   7.258
 4938SOL     OW15349   3.587   2.017   6.094
 4938SOL    HW115350   3.656   2.000   6.030
 4938SOL    HW215351   3.568   1.932   6.132
 4939SOL     OW15352   3.255   3.430   6.077
 4939SOL    HW115353   3.313   3.463   6.008
 4939SOL    HW215354   3.204   3.506   6.104
 4940SOL     OW15355   2.003   3.657   7.428
 4940SOL    HW115356   1.952   3.591   7.475
 4940SOL    HW215357   2.047   3.706   7.497
 4941SOL     OW15358   3.137   2.803   6.276
 4941SOL    HW115359   3.199   2.730   6.276
 4941SOL    HW215360   3.175   2.866   6.215
 4942SOL     OW15361   2.668   3.139   7.013
 4942SOL    HW115362   2.639   3.180   7.094
 4942SOL    HW215363   2.600   3.161   6.949
 4943SOL     OW15364   2.531   3.488   5.741
 4943SOL    HW115365   2.544   3.502   5.648
 4943SOL    HW215366   2.477   3.409   5.747
 4944SOL     OW15367   3.482   3.589   6.978
 4944SOL    HW115368   3.535   3.594   6.898
 4944SOL    HW215369   3.468   3.680   7.003
 4945SOL     OW15370   3.705   2.032   6.552
 4945SOL    HW115371   3.736   1.945   6.528
 4945SOL    HW215372   3.619   2.040   6.511
 4946SOL     OW15373   3.070   3.469   5.617
 4946SOL    HW115374   3.056   3.379   5.647
 4946SOL    HW215375   3.005   3.481   5.548
 4947SOL     OW15376   2.687   2.871   6.962
 4947SOL    HW115377   2.725   2.866   6.875
 4947SOL    HW215378   2.682   2.965   6.981
 4948SOL     OW15379   3.351   3.491   5.631
 4948SOL    HW115380   3.257   3.481   5.616
 4948SOL    HW215381   3.389   3.496   5.543
 4949SOL     OW15382   2.228   3.167   7.079
 4949SOL    HW115383   2.216   3.242   7.022
 4949SOL    HW215384   2.152   3.111   7.064
 4950SOL     OW15385   3.470   3.146   6.866
 4950SOL    HW115386   3.528   3.130   6.940
 4950SOL    HW215387   3.410   3.213   6.897
 4951SOL     OW15388   2.921   2.975   6.292
 4951SOL    HW115389   2.852   2.939   6.348
 4951SOL    HW215390   2.986   2.905   6.286
 4952SOL     OW15391   2.463   3.358   6.062
 4952SOL    HW115392   2.517   3.307   6.001
 4952SOL    HW215393   2.394   3.395   6.007
 4953SOL     OW15394   3.588   2.253   6.967
 4953SOL    HW115395   3.660   2.316   6.966
 4953SOL    HW215396   3.617   2.183   6.909
 4954SOL     OW15397   2.109   3.214   5.861
 4954SOL    HW115398   2.015   3.208   5.848
 4954SOL    HW215399   2.118   3.244   5.952
 4955SOL     OW15400   1.975   2.893   7.312
 4955SOL    HW115401   1.899   2.866   7.362
 4955SOL    HW215402   2.049   2.852   7.357
 4956SOL     OW15403   2.548   2.046   7.083
 4956SOL    HW115404   2.634   2.023   7.049
 4956SOL    HW215405   2.565   2.088   7.167
 4957SOL     OW15406   1.899   2.191   5.600
 4957SOL    HW115407   1.841   2.132   5.551
 4957SOL    HW215408   1.862   2.278   5.585
 4958SOL     OW15409   3.288   2.719   6.983
 4958SOL    HW115410   3.238   2.780   6.928
 4958SOL    HW215411   3.377   2.722   6.947
 4959SOL     OW15412   3.034   3.214   5.709
 4959SOL    HW115413   2.988   3.130   5.701
 4959SOL    HW215414   3.071   3.212   5.797
 4960SOL     OW15415   2.489   2.689   7.015
 4960SOL    HW115416   2.545   2.766   7.004
 4960SOL    HW215417   2.550   2.616   7.018
 4961SOL     OW15418   3.344   3.646   6.568
 4961SOL    HW115419   3.366   3.711   6.502
 4961SOL    HW215420   3.429   3.618   6.604
 4962SOL     OW15421   2.586   2.424   7.286
 4962SOL    HW115422   2.628   2.487   7.344
 4962SOL    HW215423   2.608   2.339   7.322
 4963SOL     OW15424   3.336   3.057   7.215
 4963SOL    HW115425   3.324   3.072   7.309
 4963SOL    HW215426   3.428   3.076   7.199
 4964SOL     OW15427   2.234   3.603   7.152
 4964SOL    HW115428   2.151   3.647   7.137
 4964SOL    HW215429   2.210   3.520   7.193
 4965SOL     OW15430   3.527   2.742   6.841
 4965SOL    HW115431   3.523   2.657   6.797
 4965SOL    HW215432   3.516   2.805   6.770
 4966SOL     OW15433   2.441   2.560   6.239
 4966SOL    HW115434   2.507   2.619   6.203
 4966SOL    HW215435   2.360   2.583   6.194
 4967SOL     OW15436   3.619   2.225   7.239
 4967SOL    HW115437   3.605   2.241   7.146
 4967SOL    HW215438   3.546   2.169   7.265
 4968SOL     OW15439   3.611   2.795   7.097
 4968SOL    HW115440   3.600   2.889   7.109
 4968SOL    HW215441   3.593   2.781   7.004
 4969SOL     OW15442   2.707   3.240   5.621
 4969SOL    HW115443   2.689   3.285   5.704
 4969SOL    HW215444   2.746   3.308   5.566
 4970SOL     OW15445   2.525   3.647   6.526
 4970SOL    HW115446   2.507   3.739   6.505
 4970SOL    HW215447   2.620   3.639   6.520
 4971SOL     OW15448   2.764   2.886   6.496
 4971SOL    HW115449   2.797   2.801   6.526
 4971SOL    HW215450   2.711   2.918   6.568
 4972SOL     OW15451   3.017   2.941   5.635
 4972SOL    HW115452   2.955   2.942   5.562
 4972SOL    HW215453   3.044   2.850   5.642
 4973SOL     OW15454   3.711   3.416   6.429
 4973SOL    HW115455   3.632   3.404   6.376
 4973SOL    HW215456   3.706   3.349   6.496
 4974SOL     OW15457   2.086   3.161   7.439
 4974SOL    HW115458   2.026   3.095   7.404
 4974SOL    HW215459   2.057   3.174   7.529
 4975SOL     OW15460   2.545   3.270   7.217
 4975SOL    HW115461   2.466   3.227   7.250
 4975SOL    HW215462   2.542   3.358   7.255
 4976SOL     OW15463   3.673   2.043   6.823
 4976SOL    HW115464   3.681   1.949   6.836
 4976SOL    HW215465   3.684   2.056   6.729
 4977SOL     OW15466   3.558   3.349   6.679
 4977SOL    HW115467   3.479   3.329   6.628
 4977SOL    HW215468   3.564   3.279   6.744
 4978SOL     OW15469   2.693   3.443   6.261
 4978SOL    HW115470   2.673   3.504   6.189
 4978SOL    HW215471   2.619   3.383   6.263
 4979SOL     OW15472   3.303   2.090   6.711
 4979SOL    HW115473   3.321   2.005   6.752
 4979SOL    HW215474   3.251   2.137   6.776
 4980SOL     OW15475   2.867   1.862   6.739
 4980SOL    HW115476   2.823   1.782   6.710
 4980SOL    HW215477   2.960   1.843   6.729
 4981SOL     OW15478   2.634   3.209   5.908
 4981SOL    HW115479   2.632   3.131   5.852
 4981SOL    HW215480   2.720   3.206   5.949
 4982SOL     OW15481   2.478   3.420   6.871
 4982SOL    HW115482   2.481   3.502   6.920
 4982SOL    HW215483   2.567   3.410   6.835
 4983SOL     OW15484   3.223   1.928   5.753
 4983SOL    HW115485   3.261   1.858   5.700
 4983SOL    HW215486   3.135   1.896   5.775
 4984SOL     OW15487   3.199   2.327   6.280
 4984SOL    HW115488   3.141   2.403   6.283
 4984SOL    HW215489   3.181   2.280   6.361
 4985SOL     OW15490   3.448   2.056   6.466
 4985SOL    HW115491   3.397   2.083   6.543
 4985SOL    HW215492   3.450   2.134   6.410
 4986SOL     OW15493   2.750   3.522   5.926
 4986SOL    HW115494   2.675   3.506   5.868
 4986SOL    HW215495   2.722   3.596   5.981
 4987SOL     OW15496   2.060   2.537   7.581
 4987SOL    HW115497   1.977   2.511   7.621
 4987SOL    HW215498   2.061   2.493   7.496
 4988SOL     OW15499   1.856   2.252   8.077
 4988SOL    HW115500   1.774   2.271   8.124
 4988SOL    HW215501   1.841   2.166   8.038
 4989SOL     OW15502   2.430   3.158   8.630
 4989SOL    HW115503   2.343   3.163   8.589
 4989SOL    HW215504   2.446   3.246   8.662
 4990SOL     OW15505   3.431   3.375   8.156
 4990SOL    HW115506   3.388   3.352   8.239
 4990SOL    HW215507   3.360   3.379   8.092
 4991SOL     OW15508   2.994   2.559   8.144
 4991SOL    HW115509   3.042   2.641   8.131
 4991SOL    HW215510   2.949   2.571   8.228
 4992SOL     OW15511   3.637   2.462   7.674
 4992SOL    HW115512   3.612   2.457   7.582
 4992SOL    HW215513   3.597   2.385   7.714
 4993SOL     OW15514   2.607   2.999   8.493
 4993SOL    HW115515   2.541   3.036   8.551
 4993SOL    HW215516   2.647   3.075   8.450
 4994SOL     OW15517   2.734   2.627   9.272
 4994SOL    HW115518   2.726   2.697   9.337
 4994SOL    HW215519   2.757   2.672   9.191
 4995SOL     OW15520   2.549   2.860   8.093
 4995SOL    HW115521   2.614   2.852   8.162
 4995SOL    HW215522   2.480   2.916   8.131
 4996SOL     OW15523   2.576   3.013   9.263
 4996SOL    HW115524   2.624   3.090   9.294
 4996SOL    HW215525   2.495   3.048   9.226
 4997SOL     OW15526   2.193   3.280   8.515
 4997SOL    HW115527   2.119   3.241   8.469
 4997SOL    HW215528   2.238   3.332   8.448
 4998SOL     OW15529   3.321   3.364   8.808
 4998SOL    HW115530   3.375   3.442   8.817
 4998SOL    HW215531   3.253   3.373   8.875
 4999SOL     OW15532   3.469   2.306   8.192
 4999SOL    HW115533   3.396   2.325   8.133
 4999SOL    HW215534   3.475   2.382   8.249
 5000SOL     OW15535   2.081   3.578   7.917
 5000SOL    HW115536   2.102   3.653   7.972
 5000SOL    HW215537   2.156   3.570   7.858
 5001SOL     OW15538   2.999   3.204   9.142
 5001SOL    HW115539   3.040   3.198   9.229
 5001SOL    HW215540   2.948   3.124   9.134
 5002SOL     OW15541   2.095   3.306   7.985
 5002SOL    HW115542   2.075   3.399   7.987
 5002SOL    HW215543   2.036   3.268   8.050
 5003SOL     OW15544   2.128   2.958   8.338
 5003SOL    HW115545   2.122   2.869   8.374
 5003SOL    HW215546   2.068   3.009   8.392
 5004SOL     OW15547   2.466   3.654   8.875
 5004SOL    HW115548   2.385   3.636   8.923
 5004SOL    HW215549   2.491   3.742   8.902
 5005SOL     OW15550   2.444   2.844   7.582
 5005SOL    HW115551   2.493   2.892   7.515
 5005SOL    HW215552   2.480   2.875   7.665
 5006SOL     OW15553   3.457   1.989   8.913
 5006SOL    HW115554   3.478   2.069   8.866
 5006SOL    HW215555   3.438   2.018   9.002
 5007SOL     OW15556   1.966   2.505   8.011
 5007SOL    HW115557   1.937   2.417   8.035
 5007SOL    HW215558   1.964   2.554   8.094
 5008SOL     OW15559   3.705   3.617   7.779
 5008SOL    HW115560   3.773   3.591   7.841
 5008SOL    HW215561   3.724   3.709   7.760
 5009SOL     OW15562   1.900   3.453   7.569
 5009SOL    HW115563   1.880   3.361   7.589
 5009SOL    HW215564   1.874   3.501   7.648
 5010SOL     OW15565   3.551   2.781   8.094
 5010SOL    HW115566   3.633   2.737   8.072
 5010SOL    HW215567   3.529   2.831   8.015
 5011SOL     OW15568   3.511   2.965   7.877
 5011SOL    HW115569   3.598   2.967   7.836
 5011SOL    HW215570   3.517   3.029   7.949
 5012SOL     OW15571   1.990   2.599   9.021
 5012SOL    HW115572   2.076   2.631   9.048
 5012SOL    HW215573   1.931   2.674   9.036
 5013SOL     OW15574   2.478   3.252   8.183
 5013SOL    HW115575   2.433   3.168   8.191
 5013SOL    HW215576   2.462   3.280   8.093
 5014SOL     OW15577   3.148   3.098   8.869
 5014SOL    HW115578   3.178   3.030   8.809
 5014SOL    HW215579   3.207   3.093   8.944
 5015SOL     OW15580   2.680   1.867   7.957
 5015SOL    HW115581   2.721   1.950   7.935
 5015SOL    HW215582   2.586   1.888   7.963
 5016SOL     OW15583   2.049   2.828   8.724
 5016SOL    HW115584   2.134   2.787   8.706
 5016SOL    HW215585   1.987   2.777   8.672
 5017SOL     OW15586   3.393   2.860   7.648
 5017SOL    HW115587   3.324   2.803   7.681
 5017SOL    HW215588   3.436   2.894   7.727
 5018SOL     OW15589   3.045   3.674   9.073
 5018SOL    HW115590   3.052   3.734   8.999
 5018SOL    HW215591   3.064   3.588   9.035
 5019SOL     OW15592   3.330   3.281   8.395
 5019SOL    HW115593   3.263   3.297   8.462
 5019SOL    HW215594   3.316   3.190   8.369
 5020SOL     OW15595   3.516   3.612   8.025
 5020SOL    HW115596   3.498   3.580   7.937
 5020SOL    HW215597   3.496   3.539   8.083
 5021SOL     OW15598   2.473   2.581   7.705
 5021SOL    HW115599   2.473   2.662   7.655
 5021SOL    HW215600   2.388   2.580   7.749
 5022SOL     OW15601   3.140   2.224   8.382
 5022SOL    HW115602   3.052   2.190   8.391
 5022SOL    HW215603   3.193   2.170   8.440
 5023SOL     OW15604   3.441   3.535   7.758
 5023SOL    HW115605   3.532   3.561   7.750
 5023SOL    HW215606   3.412   3.518   7.668
 5024SOL     OW15607   2.646   2.459   8.887
 5024SOL    HW115608   2.632   2.451   8.981
 5024SOL    HW215609   2.600   2.384   8.849
 5025SOL     OW15610   3.254   2.336   9.126
 5025SOL    HW115611   3.259   2.380   9.211
 5025SOL    HW215612   3.312   2.260   9.136
 5026SOL     OW15613   2.811   2.745   9.033
 5026SOL    HW115614   2.867   2.678   8.993
 5026SOL    HW215615   2.764   2.784   8.959
 5027SOL     OW15616   2.865   2.276   8.679
 5027SOL    HW115617   2.789   2.328   8.703
 5027SOL    HW215618   2.841   2.235   8.596
 5028SOL     OW15619   2.914   2.560   7.872
 5028SOL    HW115620   2.932   2.554   7.966
 5028SOL    HW215621   2.831   2.515   7.860
 5029SOL     OW15622   1.951   2.682   8.225
 5029SOL    HW115623   2.032   2.679   8.275
 5029SOL    HW215624   1.904   2.759   8.259
 5030SOL     OW15625   1.986   3.730   9.031
 5030SOL    HW115626   1.991   3.706   9.123
 5030SOL    HW215627   1.901   3.697   9.001
 5031SOL     OW15628   2.762   2.212   7.644
 5031SOL    HW115629   2.802   2.275   7.584
 5031SOL    HW215630   2.763   2.129   7.596
 5032SOL     OW15631   3.566   2.433   9.278
 5032SOL    HW115632   3.531   2.506   9.228
 5032SOL    HW215633   3.595   2.370   9.211
 5033SOL     OW15634   3.242   3.004   7.988
 5033SOL    HW115635   3.322   2.993   7.935
 5033SOL    HW215636   3.189   3.066   7.938
 5034SOL     OW15637   2.862   3.306   7.917
 5034SOL    HW115638   2.831   3.381   7.867
 5034SOL    HW215639   2.840   3.326   8.007
 5035SOL     OW15640   2.216   3.675   8.316
 5035SOL    HW115641   2.260   3.590   8.323
 5035SOL    HW215642   2.285   3.739   8.335
 5036SOL     OW15643   3.661   2.917   8.320
 5036SOL    HW115644   3.609   2.897   8.243
 5036SOL    HW215645   3.598   2.923   8.391
 5037SOL     OW15646   3.089   3.402   8.961
 5037SOL    HW115647   3.077   3.330   9.023
 5037SOL    HW215648   3.022   3.387   8.894
 5038SOL     OW15649   2.179   2.807   7.705
 5038SOL    HW115650   2.257   2.826   7.652
 5038SOL    HW215651   2.140   2.730   7.663
 5039SOL     OW15652   3.343   2.610   8.170
 5039SOL    HW115653   3.339   2.570   8.258
 5039SOL    HW215654   3.421   2.666   8.173
 5040SOL     OW15655   2.331   3.130   9.186
 5040SOL    HW115656   2.305   3.134   9.094
 5040SOL    HW215657   2.249   3.125   9.234
 5041SOL     OW15658   2.986   3.640   7.677
 5041SOL    HW115659   2.911   3.601   7.721
 5041SOL    HW215660   3.010   3.577   7.609
 5042SOL     OW15661   1.964   2.112   8.964
 5042SOL    HW115662   2.010   2.177   8.910
 5042SOL    HW215663   2.026   2.041   8.975
 5043SOL     OW15664   3.491   3.244   7.538
 5043SOL    HW115665   3.449   3.329   7.523
 5043SOL    HW215666   3.423   3.180   7.517
 5044SOL     OW15667   2.326   3.599   7.767
 5044SOL    HW115668   2.371   3.654   7.831
 5044SOL    HW215669   2.395   3.564   7.712
 5045SOL     OW15670   3.263   1.969   7.887
 5045SOL    HW115671   3.254   1.944   7.795
 5045SOL    HW215672   3.357   1.975   7.901
 5046SOL     OW15673   2.119   3.652   8.677
 5046SOL    HW115674   2.168   3.581   8.719
 5046SOL    HW215675   2.108   3.624   8.586
 5047SOL     OW15676   2.801   3.561   8.345
 5047SOL    HW115677   2.880   3.512   8.366
 5047SOL    HW215678   2.759   3.511   8.275
 5048SOL     OW15679   3.391   2.086   9.172
 5048SOL    HW115680   3.402   2.107   9.265
 5048SOL    HW215681   3.323   2.019   9.170
 5049SOL     OW15682   2.504   1.987   7.542
 5049SOL    HW115683   2.553   1.913   7.578
 5049SOL    HW215684   2.452   1.949   7.472
 5050SOL     OW15685   2.623   2.143   9.201
 5050SOL    HW115686   2.703   2.090   9.201
 5050SOL    HW215687   2.574   2.112   9.277
 5051SOL     OW15688   2.737   3.384   8.643
 5051SOL    HW115689   2.721   3.347   8.556
 5051SOL    HW215690   2.807   3.331   8.679
 5052SOL     OW15691   3.198   2.454   8.883
 5052SOL    HW115692   3.230   2.422   8.967
 5052SOL    HW215693   3.238   2.541   8.873
 5053SOL     OW15694   2.680   3.251   8.394
 5053SOL    HW115695   2.765   3.240   8.351
 5053SOL    HW215696   2.617   3.258   8.322
 5054SOL     OW15697   2.780   2.365   8.353
 5054SOL    HW115698   2.755   2.361   8.260
 5054SOL    HW215699   2.818   2.279   8.371
 5055SOL     OW15700   2.411   1.936   7.939
 5055SOL    HW115701   2.333   1.932   7.994
 5055SOL    HW215702   2.411   2.025   7.904
 5056SOL     OW15703   3.290   3.062   7.488
 5056SOL    HW115704   3.320   2.987   7.539
 5056SOL    HW215705   3.205   3.085   7.525
 5057SOL     OW15706   2.154   1.891   7.630
 5057SOL    HW115707   2.222   1.948   7.594
 5057SOL    HW215708   2.203   1.823   7.677
 5058SOL     OW15709   2.803   2.112   7.903
 5058SOL    HW115710   2.780   2.150   7.818
 5058SOL    HW215711   2.897   2.126   7.911
 5059SOL     OW15712   2.938   2.543   8.900
 5059SOL    HW115713   2.880   2.468   8.913
 5059SOL    HW215714   3.026   2.506   8.895
 5060SOL     OW15715   3.082   3.434   8.243
 5060SOL    HW115716   3.096   3.499   8.174
 5060SOL    HW215717   3.152   3.450   8.306
 5061SOL     OW15718   2.334   3.015   8.173
 5061SOL    HW115719   2.267   2.997   8.239
 5061SOL    HW215720   2.291   3.001   8.089
 5062SOL     OW15721   3.127   3.654   8.060
 5062SOL    HW115722   3.175   3.715   8.004
 5062SOL    HW215723   3.059   3.707   8.101
 5063SOL     OW15724   2.886   2.398   7.474
 5063SOL    HW115725   2.842   2.482   7.456
 5063SOL    HW215726   2.950   2.419   7.542
 5064SOL     OW15727   1.969   2.401   8.837
 5064SOL    HW115728   2.055   2.368   8.862
 5064SOL    HW215729   1.952   2.474   8.897
 5065SOL     OW15730   2.722   2.316   8.087
 5065SOL    HW115731   2.683   2.378   8.025
 5065SOL    HW215732   2.749   2.242   8.034
 5066SOL     OW15733   2.877   1.915   8.197
 5066SOL    HW115734   2.820   1.908   8.121
 5066SOL    HW215735   2.852   1.840   8.252
 5067SOL     OW15736   3.301   3.023   8.305
 5067SOL    HW115737   3.230   2.958   8.306
 5067SOL    HW215738   3.324   3.031   8.212
 5068SOL     OW15739   3.328   2.472   8.417
 5068SOL    HW115740   3.272   2.394   8.421
 5068SOL    HW215741   3.385   2.463   8.493
 5069SOL     OW15742   3.704   2.673   7.833
 5069SOL    HW115743   3.762   2.624   7.891
 5069SOL    HW215744   3.678   2.610   7.765
 5070SOL     OW15745   2.351   3.284   7.600
 5070SOL    HW115746   2.275   3.255   7.652
 5070SOL    HW215747   2.344   3.234   7.519
 5071SOL     OW15748   3.538   3.126   8.090
 5071SOL    HW115749   3.633   3.126   8.105
 5071SOL    HW215750   3.511   3.215   8.112
 5072SOL     OW15751   3.255   2.435   7.519
 5072SOL    HW115752   3.194   2.414   7.589
 5072SOL    HW215753   3.340   2.404   7.551
 5073SOL     OW15754   3.611   3.104   9.012
 5073SOL    HW115755   3.698   3.065   9.007
 5073SOL    HW215756   3.627   3.194   9.042
 5074SOL     OW15757   2.917   3.217   8.781
 5074SOL    HW115758   2.842   3.185   8.830
 5074SOL    HW215759   2.993   3.174   8.822
 5075SOL     OW15760   3.471   3.490   9.106
 5075SOL    HW115761   3.463   3.523   9.017
 5075SOL    HW215762   3.553   3.440   9.105
 5076SOL     OW15763   2.997   3.073   8.551
 5076SOL    HW115764   2.935   3.108   8.614
 5076SOL    HW215765   2.967   3.106   8.466
 5077SOL     OW15766   3.484   2.957   8.525
 5077SOL    HW115767   3.479   3.020   8.596
 5077SOL    HW215768   3.408   2.976   8.470
 5078SOL     OW15769   2.792   1.950   8.841
 5078SOL    HW115770   2.812   1.934   8.749
 5078SOL    HW215771   2.871   1.991   8.876
 5079SOL     OW15772   2.846   2.976   9.170
 5079SOL    HW115773   2.755   2.993   9.194
 5079SOL    HW215774   2.843   2.898   9.116
 5080SOL     OW15775   2.571   2.925   7.818
 5080SOL    HW115776   2.557   2.905   7.910
 5080SOL    HW215777   2.646   2.871   7.793
 5081SOL     OW15778   2.282   2.678   8.700
 5081SOL    HW115779   2.353   2.693   8.763
 5081SOL    HW215780   2.248   2.591   8.722
 5082SOL     OW15781   3.132   2.237   8.729
 5082SOL    HW115782   3.162   2.316   8.774
 5082SOL    HW215783   3.041   2.256   8.705
 5083SOL     OW15784   1.936   3.437   8.806
 5083SOL    HW115785   1.907   3.507   8.747
 5083SOL    HW215786   2.031   3.436   8.796
 5084SOL     OW15787   2.205   2.975   7.932
 5084SOL    HW115788   2.207   3.052   7.875
 5084SOL    HW215789   2.200   2.900   7.873
 5085SOL     OW15790   3.109   3.212   7.838
 5085SOL    HW115791   3.165   3.282   7.870
 5085SOL    HW215792   3.022   3.233   7.872
 5086SOL     OW15793   3.150   3.322   8.596
 5086SOL    HW115794   3.205   3.326   8.674
 5086SOL    HW215795   3.095   3.245   8.609
 5087SOL     OW15796   3.440   2.482   7.931
 5087SOL    HW115797   3.391   2.530   7.998
 5087SOL    HW215798   3.484   2.550   7.880
 5088SOL     OW15799   2.207   3.393   8.758
 5088SOL    HW115800   2.196   3.347   8.675
 5088SOL    HW215801   2.302   3.403   8.767
 5089SOL     OW15802   2.285   2.633   9.061
 5089SOL    HW115803   2.347   2.669   8.997
 5089SOL    HW215804   2.331   2.559   9.100
 5090SOL     OW15805   3.469   2.643   9.134
 5090SOL    HW115806   3.384   2.684   9.128
 5090SOL    HW215807   3.522   2.684   9.065
 5091SOL     OW15808   2.856   1.995   9.200
 5091SOL    HW115809   2.916   2.067   9.178
 5091SOL    HW215810   2.904   1.916   9.177
 5092SOL     OW15811   2.361   1.888   9.196
 5092SOL    HW115812   2.317   1.830   9.134
 5092SOL    HW215813   2.310   1.969   9.194
 5093SOL     OW15814   2.439   2.735   8.475
 5093SOL    HW115815   2.483   2.820   8.475
 5093SOL    HW215816   2.389   2.733   8.556
 5094SOL     OW15817   3.210   2.720   8.470
 5094SOL    HW115818   3.124   2.704   8.432
 5094SOL    HW215819   3.256   2.637   8.461
 5095SOL     OW15820   3.061   2.389   7.710
 5095SOL    HW115821   3.070   2.311   7.765
 5095SOL    HW215822   3.019   2.454   7.767
 5096SOL     OW15823   1.912   3.174   8.722
 5096SOL    HW115824   1.942   3.118   8.794
 5096SOL    HW215825   1.914   3.262   8.759
 5097SOL     OW15826   2.621   2.516   8.541
 5097SOL    HW115827   2.654   2.464   8.467
 5097SOL    HW215828   2.559   2.577   8.502
 5098SOL     OW15829   3.600   2.822   9.305
 5098SOL    HW115830   3.557   2.755   9.252
 5098SOL    HW215831   3.540   2.838   9.377
 5099SOL     OW15832   2.171   1.935   8.079
 5099SOL    HW115833   2.149   2.024   8.105
 5099SOL    HW215834   2.175   1.887   8.162
 5100SOL     OW15835   3.484   2.240   7.809
 5100SOL    HW115836   3.511   2.175   7.873
 5100SOL    HW215837   3.460   2.317   7.861
 5101SOL     OW15838   2.893   2.617   8.403
 5101SOL    HW115839   2.885   2.640   8.496
 5101SOL    HW215840   2.856   2.529   8.396
 5102SOL     OW15841   2.843   3.428   9.169
 5102SOL    HW115842   2.828   3.472   9.085
 5102SOL    HW215843   2.887   3.347   9.145
 5103SOL     OW15844   3.714   3.364   9.053
 5103SOL    HW115845   3.735   3.391   8.963
 5103SOL    HW215846   3.795   3.379   9.102
 5104SOL     OW15847   2.217   2.796   9.267
 5104SOL    HW115848   2.300   2.810   9.313
 5104SOL    HW215849   2.240   2.739   9.193
 5105SOL     OW15850   3.388   2.134   7.574
 5105SOL    HW115851   3.324   2.068   7.602
 5105SOL    HW215852   3.423   2.170   7.655
 5106SOL     OW15853   3.149   2.686   7.476
 5106SOL    HW115854   3.193   2.601   7.481
 5106SOL    HW215855   3.182   2.725   7.394
 5107SOL     OW15856   2.930   3.200   8.304
 5107SOL    HW115857   2.935   3.128   8.242
 5107SOL    HW215858   2.989   3.267   8.269
 5108SOL     OW15859   2.173   2.680   8.390
 5108SOL    HW115860   2.267   2.700   8.389
 5108SOL    HW215861   2.167   2.596   8.436
 5109SOL     OW15862   2.995   2.237   9.132
 5109SOL    HW115863   2.948   2.290   9.196
 5109SOL    HW215864   3.083   2.276   9.128
 5110SOL     OW15865   3.028   2.062   8.920
 5110SOL    HW115866   3.015   2.125   8.991
 5110SOL    HW215867   3.071   2.112   8.851
 5111SOL     OW15868   1.870   3.178   7.641
 5111SOL    HW115869   1.783   3.195   7.605
 5111SOL    HW215870   1.864   3.090   7.677
 5112SOL     OW15871   1.952   3.644   8.390
 5112SOL    HW115872   1.922   3.566   8.343
 5112SOL    HW215873   2.041   3.658   8.357
 5113SOL     OW15874   2.354   3.436   8.353
 5113SOL    HW115875   2.423   3.498   8.377
 5113SOL    HW215876   2.398   3.374   8.295
 5114SOL     OW15877   2.838   2.659   8.668
 5114SOL    HW115878   2.880   2.628   8.748
 5114SOL    HW215879   2.757   2.608   8.661
 5115SOL     OW15880   1.902   2.424   8.569
 5115SOL    HW115881   1.932   2.344   8.524
 5115SOL    HW215882   1.931   2.412   8.660
 5116SOL     OW15883   3.242   2.796   9.105
 5116SOL    HW115884   3.263   2.889   9.102
 5116SOL    HW215885   3.239   2.769   9.013
 5117SOL     OW15886   2.679   2.430   7.816
 5117SOL    HW115887   2.684   2.357   7.754
 5117SOL    HW215888   2.607   2.483   7.783
 5118SOL     OW15889   3.502   2.463   8.629
 5118SOL    HW115890   3.493   2.404   8.704
 5118SOL    HW215891   3.590   2.445   8.595
 5119SOL     OW15892   2.101   3.411   9.171
 5119SOL    HW115893   2.079   3.476   9.238
 5119SOL    HW215894   2.107   3.328   9.219
 5120SOL     OW15895   2.784   3.541   8.919
 5120SOL    HW115896   2.760   3.502   8.835
 5120SOL    HW215897   2.779   3.635   8.904
 5121SOL     OW15898   2.004   3.004   8.924
 5121SOL    HW115899   2.004   2.955   9.006
 5121SOL    HW215900   2.020   2.938   8.856
 5122SOL     OW15901   3.184   2.906   8.668
 5122SOL    HW115902   3.205   2.842   8.599
 5122SOL    HW215903   3.117   2.962   8.628
 5123SOL     OW15904   3.178   2.719   7.751
 5123SOL    HW115905   3.103   2.688   7.804
 5123SOL    HW215906   3.150   2.705   7.661
 5124SOL     OW15907   3.642   3.599   8.605
 5124SOL    HW115908   3.701   3.626   8.534
 5124SOL    HW215909   3.614   3.511   8.581
 5125SOL     OW15910   3.102   3.595   8.555
 5125SOL    HW115911   3.184   3.619   8.513
 5125SOL    HW215912   3.111   3.502   8.575
 5126SOL     OW15913   1.948   3.128   8.458
 5126SOL    HW115914   1.932   3.143   8.552
 5126SOL    HW215915   1.875   3.074   8.430
 5127SOL     OW15916   2.541   3.532   9.185
 5127SOL    HW115917   2.482   3.608   9.177
 5127SOL    HW215918   2.609   3.547   9.120
 5128SOL     OW15919   3.583   2.016   7.953
 5128SOL    HW115920   3.654   2.000   7.891
 5128SOL    HW215921   3.567   1.931   7.994
 5129SOL     OW15922   3.254   3.429   7.938
 5129SOL    HW115923   3.313   3.463   7.870
 5129SOL    HW215924   3.204   3.506   7.966
 5130SOL     OW15925   2.003   3.656   9.290
 5130SOL    HW115926   1.952   3.590   9.337
 5130SOL    HW215927   2.047   3.706   9.359
 5131SOL     OW15928   3.139   2.789   8.118
 5131SOL    HW115929   3.213   2.729   8.128
 5131SOL    HW215930   3.174   2.861   8.065
 5132SOL     OW15931   2.669   3.139   8.872
 5132SOL    HW115932   2.641   3.179   8.955
 5132SOL    HW215933   2.599   3.159   8.811
 5133SOL     OW15934   2.531   3.487   7.604
 5133SOL    HW115935   2.544   3.501   7.510
 5133SOL    HW215936   2.475   3.409   7.609
 5134SOL     OW15937   3.482   3.589   8.840
 5134SOL    HW115938   3.535   3.594   8.760
 5134SOL    HW215939   3.468   3.680   8.865
 5135SOL     OW15940   3.705   2.033   8.414
 5135SOL    HW115941   3.735   1.945   8.389
 5135SOL    HW215942   3.619   2.041   8.374
 5136SOL     OW15943   3.070   3.464   7.481
 5136SOL    HW115944   3.059   3.373   7.507
 5136SOL    HW215945   3.005   3.478   7.413
 5137SOL     OW15946   2.685   2.868   8.824
 5137SOL    HW115947   2.732   2.857   8.742
 5137SOL    HW215948   2.684   2.963   8.838
 5138SOL     OW15949   2.779   2.774   7.738
 5138SOL    HW115950   2.840   2.806   7.672
 5138SOL    HW215951   2.827   2.705   7.784
 5139SOL     OW15952   3.351   3.490   7.493
 5139SOL    HW115953   3.257   3.480   7.477
 5139SOL    HW215954   3.389   3.496   7.405
 5140SOL     OW15955   2.230   3.166   8.940
 5140SOL    HW115956   2.216   3.242   8.883
 5140SOL    HW215957   2.153   3.112   8.925
 5141SOL     OW15958   3.470   3.146   8.728
 5141SOL    HW115959   3.529   3.130   8.802
 5141SOL    HW215960   3.410   3.213   8.759
 5142SOL     OW15961   2.922   2.971   8.159
 5142SOL    HW115962   2.850   2.921   8.196
 5142SOL    HW215963   2.986   2.905   8.131
 5143SOL     OW15964   2.885   2.102   8.413
 5143SOL    HW115965   2.883   2.054   8.330
 5143SOL    HW215966   2.882   2.034   8.480
 5144SOL     OW15967   2.468   3.351   7.928
 5144SOL    HW115968   2.516   3.300   7.863
 5144SOL    HW215969   2.392   3.386   7.880
 5145SOL     OW15970   3.588   2.254   8.828
 5145SOL    HW115971   3.660   2.317   8.828
 5145SOL    HW215972   3.617   2.183   8.771
 5146SOL     OW15973   2.124   3.203   7.741
 5146SOL    HW115974   2.032   3.200   7.716
 5146SOL    HW215975   2.124   3.243   7.828
 5147SOL     OW15976   1.975   2.893   9.173
 5147SOL    HW115977   1.898   2.866   9.223
 5147SOL    HW215978   2.049   2.854   9.220
 5148SOL     OW15979   2.554   2.042   8.944
 5148SOL    HW115980   2.639   2.016   8.909
 5148SOL    HW215981   2.574   2.082   9.029
 5149SOL     OW15982   1.920   2.187   7.508
 5149SOL    HW115983   1.844   2.190   7.450
 5149SOL    HW215984   1.992   2.217   7.453
 5150SOL     OW15985   3.288   2.720   8.846
 5150SOL    HW115986   3.238   2.781   8.791
 5150SOL    HW215987   3.377   2.722   8.810
 5151SOL     OW15988   1.928   2.015   7.746
 5151SOL    HW115989   1.908   2.087   7.686
 5151SOL    HW215990   2.011   1.979   7.712
 5152SOL     OW15991   3.040   3.197   7.566
 5152SOL    HW115992   2.949   3.167   7.568
 5152SOL    HW215993   3.067   3.198   7.658
 5153SOL     OW15994   2.487   2.688   8.878
 5153SOL    HW115995   2.543   2.765   8.865
 5153SOL    HW215996   2.547   2.614   8.878
 5154SOL     OW15997   3.344   3.645   8.430
 5154SOL    HW115998   3.366   3.711   8.364
 5154SOL    HW215999   3.429   3.618   8.466
 5155SOL     OW16000   2.581   2.425   9.144
 5155SOL    HW116001   2.624   2.484   9.206
 5155SOL    HW216002   2.593   2.337   9.181
 5156SOL     OW16003   3.335   3.057   9.077
 5156SOL    HW116004   3.324   3.072   9.171
 5156SOL    HW216005   3.428   3.076   9.062
 5157SOL     OW16006   2.234   3.602   9.014
 5157SOL    HW116007   2.151   3.647   8.998
 5157SOL    HW216008   2.209   3.520   9.055
 5158SOL     OW16009   3.527   2.741   8.703
 5158SOL    HW116010   3.523   2.656   8.660
 5158SOL    HW216011   3.517   2.805   8.632
 5159SOL     OW16012   3.077   2.181   7.906
 5159SOL    HW116013   3.140   2.109   7.899
 5159SOL    HW216014   3.107   2.231   7.982
 5160SOL     OW16015   2.452   2.598   8.090
 5160SOL    HW116016   2.499   2.681   8.088
 5160SOL    HW216017   2.364   2.619   8.059
 5161SOL     OW16018   3.619   2.225   9.101
 5161SOL    HW116019   3.605   2.241   9.007
 5161SOL    HW216020   3.546   2.169   9.127
 5162SOL     OW16021   3.610   2.795   8.959
 5162SOL    HW116022   3.600   2.890   8.971
 5162SOL    HW216023   3.593   2.781   8.866
 5163SOL     OW16024   2.725   3.227   7.489
 5163SOL    HW116025   2.688   3.255   7.573
 5163SOL    HW216026   2.742   3.309   7.442
 5164SOL     OW16027   2.525   3.647   8.387
 5164SOL    HW116028   2.507   3.738   8.367
 5164SOL    HW216029   2.620   3.640   8.381
 5165SOL     OW16030   2.731   2.832   8.302
 5165SOL    HW116031   2.779   2.757   8.339
 5165SOL    HW216032   2.694   2.877   8.378
 5166SOL     OW16033   2.940   2.851   7.536
 5166SOL    HW116034   2.919   2.902   7.459
 5166SOL    HW216035   3.014   2.796   7.510
 5167SOL     OW16036   3.712   3.416   8.291
 5167SOL    HW116037   3.632   3.404   8.239
 5167SOL    HW216038   3.707   3.349   8.358
 5168SOL     OW16039   2.086   3.161   9.301
 5168SOL    HW116040   2.025   3.096   9.266
 5168SOL    HW216041   2.058   3.175   9.391
 5169SOL     OW16042   1.949   3.094   8.114
 5169SOL    HW116043   1.954   3.047   8.197
 5169SOL    HW216044   2.014   3.052   8.058
 5170SOL     OW16045   2.546   3.270   9.078
 5170SOL    HW116046   2.467   3.227   9.111
 5170SOL    HW216047   2.543   3.357   9.116
 5171SOL     OW16048   3.673   2.044   8.685
 5171SOL    HW116049   3.681   1.949   8.698
 5171SOL    HW216050   3.685   2.056   8.591
 5172SOL     OW16051   3.558   3.349   8.541
 5172SOL    HW116052   3.480   3.329   8.491
 5172SOL    HW216053   3.565   3.279   8.606
 5173SOL     OW16054   2.693   3.440   8.123
 5173SOL    HW116055   2.672   3.502   8.053
 5173SOL    HW216056   2.618   3.381   8.126
 5174SOL     OW16057   3.293   2.089   8.563
 5174SOL    HW116058   3.313   2.006   8.606
 5174SOL    HW216059   3.244   2.139   8.629
 5175SOL     OW16060   2.872   1.878   8.582
 5175SOL    HW116061   2.818   1.809   8.544
 5175SOL    HW216062   2.960   1.840   8.585
 5176SOL     OW16063   2.636   3.196   7.768
 5176SOL    HW116064   2.608   3.104   7.775
 5176SOL    HW216065   2.717   3.199   7.818
 5177SOL     OW16066   2.482   3.417   8.735
 5177SOL    HW116067   2.482   3.500   8.784
 5177SOL    HW216068   2.570   3.411   8.698
 5178SOL     OW16069   3.218   1.914   7.618
 5178SOL    HW116070   3.251   1.844   7.561
 5178SOL    HW216071   3.129   1.887   7.640
 5179SOL     OW16072   3.158   2.325   8.126
 5179SOL    HW116073   3.106   2.405   8.131
 5179SOL    HW216074   3.153   2.288   8.214
 5180SOL     OW16075   3.448   2.058   8.329
 5180SOL    HW116076   3.391   2.082   8.403
 5180SOL    HW216077   3.447   2.135   8.273
 5181SOL     OW16078   1.904   2.927   7.758
 5181SOL    HW116079   1.997   2.919   7.739
 5181SOL    HW216080   1.876   2.838   7.781
 5182SOL     OW16081   2.750   3.521   7.787
 5182SOL    HW116082   2.676   3.505   7.729
 5182SOL    HW216083   2.722   3.594   7.842
 5183SOL     OW16084   2.071   2.543   9.448
 5183SOL    HW116085   1.988   2.514   9.484
 5183SOL    HW216086   2.075   2.505   9.361
 5184SOL     OW16087   1.852   2.244   9.943
 5184SOL    HW116088   1.773   2.268   9.991
 5184SOL    HW216089   1.830   2.162   9.899
 5185SOL     OW16090   2.430   3.157  10.492
 5185SOL    HW116091   2.344   3.162  10.450
 5185SOL    HW216092   2.445   3.245  10.525
 5186SOL     OW16093   3.432   3.376  10.018
 5186SOL    HW116094   3.389   3.353  10.101
 5186SOL    HW216095   3.361   3.379   9.954
 5187SOL     OW16096   2.996   2.560  10.004
 5187SOL    HW116097   3.042   2.643   9.995
 5187SOL    HW216098   2.948   2.567  10.087
 5188SOL     OW16099   3.638   2.462   9.536
 5188SOL    HW116100   3.612   2.456   9.444
 5188SOL    HW216101   3.597   2.385   9.577
 5189SOL     OW16102   2.609   3.000  10.355
 5189SOL    HW116103   2.542   3.036  10.413
 5189SOL    HW216104   2.647   3.076  10.311
 5190SOL     OW16105   2.722   2.634   0.026
 5190SOL    HW116106   2.725   2.687   0.105
 5190SOL    HW216107   2.757   2.691  11.057
 5191SOL     OW16108   2.549   2.864   9.953
 5191SOL    HW116109   2.615   2.854  10.022
 5191SOL    HW216110   2.482   2.920   9.992
 5192SOL     OW16111   2.195   3.278  10.375
 5192SOL    HW116112   2.119   3.240  10.330
 5192SOL    HW216113   2.239   3.331  10.308
 5193SOL     OW16114   3.324   3.362  10.666
 5193SOL    HW116115   3.383   3.437  10.672
 5193SOL    HW216116   3.257   3.379  10.733
 5194SOL     OW16117   3.468   2.306  10.053
 5194SOL    HW116118   3.394   2.324   9.996
 5194SOL    HW216119   3.474   2.383  10.110
 5195SOL     OW16120   2.081   3.577   9.779
 5195SOL    HW116121   2.102   3.653   9.834
 5195SOL    HW216122   2.156   3.570   9.720
 5196SOL     OW16123   2.095   3.306   9.847
 5196SOL    HW116124   2.076   3.399   9.848
 5196SOL    HW216125   2.036   3.268   9.912
 5197SOL     OW16126   2.129   2.959  10.201
 5197SOL    HW116127   2.120   2.871  10.236
 5197SOL    HW216128   2.068   3.012  10.254
 5198SOL     OW16129   2.465   3.651  10.736
 5198SOL    HW116130   2.387   3.632  10.787
 5198SOL    HW216131   2.490   3.740  10.761
 5199SOL     OW16132   2.446   2.845   9.442
 5199SOL    HW116133   2.495   2.894   9.376
 5199SOL    HW216134   2.481   2.876   9.525
 5200SOL     OW16135   3.452   1.982  10.776
 5200SOL    HW116136   3.477   2.059  10.725
 5200SOL    HW216137   3.470   2.007  10.867
 5201SOL     OW16138   1.961   2.506   9.873
 5201SOL    HW116139   1.935   2.417   9.898
 5201SOL    HW216140   1.962   2.555   9.956
 5202SOL     OW16141   3.705   3.617   9.641
 5202SOL    HW116142   3.773   3.591   9.703
 5202SOL    HW216143   3.724   3.709   9.622
 5203SOL     OW16144   1.900   3.453   9.431
 5203SOL    HW116145   1.880   3.361   9.451
 5203SOL    HW216146   1.874   3.501   9.510
 5204SOL     OW16147   3.551   2.781   9.956
 5204SOL    HW116148   3.634   2.738   9.935
 5204SOL    HW216149   3.530   2.831   9.877
 5205SOL     OW16150   3.511   2.966   9.739
 5205SOL    HW116151   3.598   2.967   9.698
 5205SOL    HW216152   3.518   3.029   9.811
 5206SOL     OW16153   1.979   2.605  10.882
 5206SOL    HW116154   2.063   2.617  10.928
 5206SOL    HW216155   1.930   2.685  10.901
 5207SOL     OW16156   2.478   3.252  10.045
 5207SOL    HW116157   2.433   3.169  10.054
 5207SOL    HW216158   2.462   3.280   9.955
 5208SOL     OW16159   3.149   3.097  10.754
 5208SOL    HW116160   3.174   3.036  10.684
 5208SOL    HW216161   3.207   3.076  10.827
 5209SOL     OW16162   2.677   1.865   9.818
 5209SOL    HW116163   2.719   1.948   9.797
 5209SOL    HW216164   2.584   1.887   9.825
 5210SOL     OW16165   2.051   2.828  10.577
 5210SOL    HW116166   2.134   2.783  10.560
 5210SOL    HW216167   1.985   2.772  10.537
 5211SOL     OW16168   3.393   2.860   9.510
 5211SOL    HW116169   3.324   2.803   9.543
 5211SOL    HW216170   3.436   2.894   9.589
 5212SOL     OW16171   3.060   3.670  10.930
 5212SOL    HW116172   3.054   3.737  10.862
 5212SOL    HW216173   3.071   3.588  10.883
 5213SOL     OW16174   3.330   3.281  10.257
 5213SOL    HW116175   3.263   3.298  10.323
 5213SOL    HW216176   3.317   3.190  10.231
 5214SOL     OW16177   3.516   3.613   9.887
 5214SOL    HW116178   3.498   3.580   9.799
 5214SOL    HW216179   3.497   3.539   9.945
 5215SOL     OW16180   2.468   2.586   9.576
 5215SOL    HW116181   2.481   2.660   9.517
 5215SOL    HW216182   2.380   2.600   9.612
 5216SOL     OW16183   3.143   2.225  10.244
 5216SOL    HW116184   3.054   2.191  10.252
 5216SOL    HW216185   3.194   2.170  10.303
 5217SOL     OW16186   3.441   3.535   9.620
 5217SOL    HW116187   3.532   3.561   9.612
 5217SOL    HW216188   3.412   3.518   9.530
 5218SOL     OW16189   2.647   2.456  10.753
 5218SOL    HW116190   2.628   2.449  10.846
 5218SOL    HW216191   2.590   2.391  10.712
 5219SOL     OW16192   2.828   2.763  10.907
 5219SOL    HW116193   2.876   2.693  10.863
 5219SOL    HW216194   2.777   2.804  10.837
 5220SOL     OW16195   2.864   2.276  10.542
 5220SOL    HW116196   2.787   2.328  10.565
 5220SOL    HW216197   2.845   2.240  10.456
 5221SOL     OW16198   2.913   2.559   9.735
 5221SOL    HW116199   2.933   2.553   9.828
 5221SOL    HW216200   2.830   2.513   9.725
 5222SOL     OW16201   1.950   2.684  10.085
 5222SOL    HW116202   2.031   2.680  10.136
 5222SOL    HW216203   1.903   2.760  10.120
 5223SOL     OW16204   1.988   3.722  10.903
 5223SOL    HW116205   1.977   3.680  10.988
 5223SOL    HW216206   1.909   3.699  10.854
 5224SOL     OW16207   2.759   2.214   9.505
 5224SOL    HW116208   2.801   2.276   9.445
 5224SOL    HW216209   2.762   2.130   9.459
 5225SOL     OW16210   3.242   3.004   9.849
 5225SOL    HW116211   3.322   2.993   9.797
 5225SOL    HW216212   3.189   3.066   9.799
 5226SOL     OW16213   2.862   3.306   9.779
 5226SOL    HW116214   2.831   3.381   9.729
 5226SOL    HW216215   2.840   3.326   9.869
 5227SOL     OW16216   2.216   3.675  10.178
 5227SOL    HW116217   2.260   3.590  10.185
 5227SOL    HW216218   2.284   3.739  10.198
 5228SOL     OW16219   3.661   2.917  10.182
 5228SOL    HW116220   3.609   2.896  10.105
 5228SOL    HW216221   3.598   2.923  10.253
 5229SOL     OW16222   3.093   3.397  10.820
 5229SOL    HW116223   3.103   3.306  10.849
 5229SOL    HW216224   3.022   3.392  10.755
 5230SOL     OW16225   2.184   2.801   9.571
 5230SOL    HW116226   2.257   2.825   9.514
 5230SOL    HW216227   2.142   2.727   9.528
 5231SOL     OW16228   3.343   2.610  10.032
 5231SOL    HW116229   3.338   2.570  10.119
 5231SOL    HW216230   3.421   2.665  10.036
 5232SOL     OW16231   2.313   3.125  11.052
 5232SOL    HW116232   2.282   3.142  10.963
 5232SOL    HW216233   2.264   3.047  11.080
 5233SOL     OW16234   2.986   3.640   9.539
 5233SOL    HW116235   2.911   3.601   9.583
 5233SOL    HW216236   3.010   3.577   9.471
 5234SOL     OW16237   3.491   3.244   9.400
 5234SOL    HW116238   3.449   3.329   9.385
 5234SOL    HW216239   3.423   3.180   9.379
 5235SOL     OW16240   2.326   3.598   9.629
 5235SOL    HW116241   2.371   3.654   9.693
 5235SOL    HW216242   2.396   3.564   9.574
 5236SOL     OW16243   3.262   1.969   9.749
 5236SOL    HW116244   3.254   1.944   9.657
 5236SOL    HW216245   3.357   1.974   9.764
 5237SOL     OW16246   2.119   3.654  10.541
 5237SOL    HW116247   2.167   3.585  10.588
 5237SOL    HW216248   2.111   3.620  10.452
 5238SOL     OW16249   2.802   3.561  10.207
 5238SOL    HW116250   2.882   3.513  10.226
 5238SOL    HW216251   2.760   3.511  10.137
 5239SOL     OW16252   2.500   1.989   9.406
 5239SOL    HW116253   2.554   1.921   9.446
 5239SOL    HW216254   2.454   1.944   9.335
 5240SOL     OW16255   2.625   2.141  11.046
 5240SOL    HW116256   2.697   2.085  11.077
 5240SOL    HW216257   2.563   2.144   0.019
 5241SOL     OW16258   2.737   3.385  10.505
 5241SOL    HW116259   2.721   3.349  10.418
 5241SOL    HW216260   2.810   3.333  10.539
 5242SOL     OW16261   3.202   2.457  10.758
 5242SOL    HW116262   3.258   2.436  10.832
 5242SOL    HW216263   3.229   2.545  10.731
 5243SOL     OW16264   2.680   3.252  10.256
 5243SOL    HW116265   2.765   3.240  10.212
 5243SOL    HW216266   2.617   3.258  10.184
 5244SOL     OW16267   2.804   2.365  10.223
 5244SOL    HW116268   2.759   2.366  10.138
 5244SOL    HW216269   2.832   2.275  10.235
 5245SOL     OW16270   2.405   1.932   9.802
 5245SOL    HW116271   2.329   1.919   9.859
 5245SOL    HW216272   2.397   2.022   9.771
 5246SOL     OW16273   3.290   3.062   9.349
 5246SOL    HW116274   3.320   2.987   9.401
 5246SOL    HW216275   3.205   3.085   9.387
 5247SOL     OW16276   2.159   1.906   9.503
 5247SOL    HW116277   2.226   1.974   9.493
 5247SOL    HW216278   2.205   1.831   9.541
 5248SOL     OW16279   2.803   2.109   9.762
 5248SOL    HW116280   2.781   2.150   9.679
 5248SOL    HW216281   2.898   2.123   9.771
 5249SOL     OW16282   2.935   2.550  10.765
 5249SOL    HW116283   2.872   2.479  10.776
 5249SOL    HW216284   3.021   2.507  10.768
 5250SOL     OW16285   3.081   3.435  10.106
 5250SOL    HW116286   3.096   3.500  10.036
 5250SOL    HW216287   3.151   3.451  10.168
 5251SOL     OW16288   2.334   3.015  10.036
 5251SOL    HW116289   2.267   2.998  10.101
 5251SOL    HW216290   2.291   3.001   9.952
 5252SOL     OW16291   3.127   3.654   9.922
 5252SOL    HW116292   3.175   3.715   9.866
 5252SOL    HW216293   3.059   3.708   9.963
 5253SOL     OW16294   2.886   2.398   9.336
 5253SOL    HW116295   2.842   2.482   9.318
 5253SOL    HW216296   2.951   2.419   9.403
 5254SOL     OW16297   1.952   2.418  10.694
 5254SOL    HW116298   2.033   2.378  10.725
 5254SOL    HW216299   1.937   2.491  10.753
 5255SOL     OW16300   2.442   1.985  10.433
 5255SOL    HW116301   2.458   1.967  10.525
 5255SOL    HW216302   2.366   2.044  10.433
 5256SOL     OW16303   2.740   2.318   9.948
 5256SOL    HW116304   2.693   2.374   9.887
 5256SOL    HW216305   2.760   2.239   9.897
 5257SOL     OW16306   2.881   1.913  10.058
 5257SOL    HW116307   2.820   1.910   9.984
 5257SOL    HW216308   2.855   1.840  10.113
 5258SOL     OW16309   3.300   3.023  10.167
 5258SOL    HW116310   3.231   2.957  10.167
 5258SOL    HW216311   3.325   3.031  10.074
 5259SOL     OW16312   3.327   2.473  10.279
 5259SOL    HW116313   3.271   2.395  10.281
 5259SOL    HW216314   3.385   2.464  10.354
 5260SOL     OW16315   3.704   2.673   9.694
 5260SOL    HW116316   3.761   2.624   9.753
 5260SOL    HW216317   3.678   2.610   9.627
 5261SOL     OW16318   2.350   3.283   9.463
 5261SOL    HW116319   2.275   3.255   9.514
 5261SOL    HW216320   2.344   3.234   9.381
 5262SOL     OW16321   3.538   3.126   9.952
 5262SOL    HW116322   3.632   3.125   9.968
 5262SOL    HW216323   3.511   3.215   9.974
 5263SOL     OW16324   3.255   2.435   9.381
 5263SOL    HW116325   3.194   2.414   9.452
 5263SOL    HW216326   3.340   2.403   9.414
 5264SOL     OW16327   3.617   3.091  10.851
 5264SOL    HW116328   3.709   3.064  10.849
 5264SOL    HW216329   3.618   3.176  10.895
 5265SOL     OW16330   2.921   3.216  10.648
 5265SOL    HW116331   2.842   3.183  10.692
 5265SOL    HW216332   2.993   3.168  10.689
 5266SOL     OW16333   2.999   3.077  10.412
 5266SOL    HW116334   2.930   3.107  10.471
 5266SOL    HW216335   2.970   3.106  10.325
 5267SOL     OW16336   3.486   2.958  10.388
 5267SOL    HW116337   3.481   3.020  10.460
 5267SOL    HW216338   3.409   2.978  10.334
 5268SOL     OW16339   2.788   1.956  10.699
 5268SOL    HW116340   2.810   1.939  10.608
 5268SOL    HW216341   2.867   1.998  10.735
 5269SOL     OW16342   2.572   2.925   9.678
 5269SOL    HW116343   2.558   2.907   9.771
 5269SOL    HW216344   2.646   2.870   9.654
 5270SOL     OW16345   2.281   2.668  10.566
 5270SOL    HW116346   2.354   2.687  10.624
 5270SOL    HW216347   2.233   2.598  10.611
 5271SOL     OW16348   3.131   2.239  10.596
 5271SOL    HW116349   3.161   2.318  10.640
 5271SOL    HW216350   3.042   2.258  10.569
 5272SOL     OW16351   1.936   3.440  10.668
 5272SOL    HW116352   1.908   3.509  10.609
 5272SOL    HW216353   2.031   3.437  10.658
 5273SOL     OW16354   2.206   2.974   9.794
 5273SOL    HW116355   2.207   3.051   9.737
 5273SOL    HW216356   2.201   2.900   9.734
 5274SOL     OW16357   2.522   2.452  10.157
 5274SOL    HW116358   2.506   2.485  10.069
 5274SOL    HW216359   2.459   2.498  10.212
 5275SOL     OW16360   3.109   3.212   9.700
 5275SOL    HW116361   3.165   3.283   9.732
 5275SOL    HW216362   3.022   3.233   9.733
 5276SOL     OW16363   3.149   3.324  10.456
 5276SOL    HW116364   3.207   3.327  10.532
 5276SOL    HW216365   3.097   3.245  10.468
 5277SOL     OW16366   3.440   2.482   9.793
 5277SOL    HW116367   3.391   2.529   9.860
 5277SOL    HW216368   3.484   2.551   9.742
 5278SOL     OW16369   2.206   3.391  10.618
 5278SOL    HW116370   2.195   3.345  10.534
 5278SOL    HW216371   2.301   3.403  10.626
 5279SOL     OW16372   2.290   2.596  10.910
 5279SOL    HW116373   2.354   2.639  10.853
 5279SOL    HW216374   2.334   2.516  10.939
 5280SOL     OW16375   3.461   2.616  10.963
 5280SOL    HW116376   3.383   2.669  10.945
 5280SOL    HW216377   3.533   2.666  10.925
 5281SOL     OW16378   2.440   2.722  10.339
 5281SOL    HW116379   2.479   2.809  10.334
 5281SOL    HW216380   2.389   2.724  10.420
 5282SOL     OW16381   3.211   2.724  10.339
 5282SOL    HW116382   3.125   2.708  10.299
 5282SOL    HW216383   3.258   2.641  10.328
 5283SOL     OW16384   3.061   2.389   9.573
 5283SOL    HW116385   3.070   2.311   9.627
 5283SOL    HW216386   3.018   2.453   9.630
 5284SOL     OW16387   1.919   3.177  10.582
 5284SOL    HW116388   1.942   3.118  10.655
 5284SOL    HW216389   1.914   3.264  10.622
 5285SOL     OW16390   2.629   2.518  10.415
 5285SOL    HW116391   2.650   2.465  10.338
 5285SOL    HW216392   2.571   2.587  10.382
 5286SOL     OW16393   2.164   1.898   9.944
 5286SOL    HW116394   2.102   1.969   9.959
 5286SOL    HW216395   2.180   1.860  10.030
 5287SOL     OW16396   3.484   2.241   9.671
 5287SOL    HW116397   3.511   2.175   9.735
 5287SOL    HW216398   3.460   2.317   9.723
 5288SOL     OW16399   2.893   2.622  10.266
 5288SOL    HW116400   2.885   2.643  10.359
 5288SOL    HW216401   2.862   2.531  10.259
 5289SOL     OW16402   2.834   3.435  11.003
 5289SOL    HW116403   2.820   3.485  10.923
 5289SOL    HW216404   2.857   3.347  10.973
 5290SOL     OW16405   3.713   3.349  10.911
 5290SOL    HW116406   3.735   3.387  10.826
 5290SOL    HW216407   3.775   3.389  10.972
 5291SOL     OW16408   2.233   2.802  11.079
 5291SOL    HW116409   2.311   2.805   0.035
 5291SOL    HW216410   2.246   2.726  11.023
 5292SOL     OW16411   3.388   2.134   9.436
 5292SOL    HW116412   3.324   2.068   9.464
 5292SOL    HW216413   3.423   2.170   9.518
 5293SOL     OW16414   3.149   2.686   9.338
 5293SOL    HW116415   3.192   2.601   9.343
 5293SOL    HW216416   3.182   2.725   9.257
 5294SOL     OW16417   2.931   3.200  10.166
 5294SOL    HW116418   2.935   3.128  10.103
 5294SOL    HW216419   2.989   3.267  10.130
 5295SOL     OW16420   2.169   2.683  10.254
 5295SOL    HW116421   2.264   2.699  10.250
 5295SOL    HW216422   2.160   2.604  10.308
 5296SOL     OW16423   3.023   2.065  10.785
 5296SOL    HW116424   3.040   2.120  10.862
 5296SOL    HW216425   3.065   2.113  10.713
 5297SOL     OW16426   1.870   3.178   9.503
 5297SOL    HW116427   1.783   3.195   9.467
 5297SOL    HW216428   1.864   3.090   9.539
 5298SOL     OW16429   1.951   3.645  10.249
 5298SOL    HW116430   1.922   3.566  10.203
 5298SOL    HW216431   2.041   3.659  10.218
 5299SOL     OW16432   2.355   3.437  10.214
 5299SOL    HW116433   2.424   3.499  10.238
 5299SOL    HW216434   2.398   3.374  10.156
 5300SOL     OW16435   2.837   2.665  10.533
 5300SOL    HW116436   2.880   2.633  10.612
 5300SOL    HW216437   2.762   2.608  10.521
 5301SOL     OW16438   1.906   2.416  10.424
 5301SOL    HW116439   1.945   2.336  10.388
 5301SOL    HW216440   1.930   2.414  10.517
 5302SOL     OW16441   2.676   2.430   9.678
 5302SOL    HW116442   2.684   2.359   9.613
 5302SOL    HW216443   2.604   2.484   9.645
 5303SOL     OW16444   3.502   2.463  10.490
 5303SOL    HW116445   3.494   2.406  10.566
 5303SOL    HW216446   3.590   2.446  10.457
 5304SOL     OW16447   2.114   3.423  11.045
 5304SOL    HW116448   2.053   3.448   0.014
 5304SOL    HW216449   2.143   3.335  11.068
 5305SOL     OW16450   2.799   3.542  10.753
 5305SOL    HW116451   2.767   3.506  10.671
 5305SOL    HW216452   2.783   3.636  10.746
 5306SOL     OW16453   2.014   3.001  10.781
 5306SOL    HW116454   2.006   2.948  10.860
 5306SOL    HW216455   2.028   2.937  10.711
 5307SOL     OW16456   3.182   2.913  10.538
 5307SOL    HW116457   3.206   2.847  10.473
 5307SOL    HW216458   3.116   2.967  10.493
 5308SOL     OW16459   3.177   2.719   9.614
 5308SOL    HW116460   3.104   2.687   9.666
 5308SOL    HW216461   3.150   2.705   9.523
 5309SOL     OW16462   3.646   3.601  10.466
 5309SOL    HW116463   3.704   3.626  10.394
 5309SOL    HW216464   3.616   3.513  10.443
 5310SOL     OW16465   3.101   3.596  10.416
 5310SOL    HW116466   3.184   3.620  10.375
 5310SOL    HW216467   3.111   3.503  10.436
 5311SOL     OW16468   1.949   3.129  10.319
 5311SOL    HW116469   1.936   3.145  10.413
 5311SOL    HW216470   1.874   3.075  10.294
 5312SOL     OW16471   3.584   2.016   9.815
 5312SOL    HW116472   3.655   2.000   9.753
 5312SOL    HW216473   3.567   1.931   9.856
 5313SOL     OW16474   3.254   3.430   9.800
 5313SOL    HW116475   3.313   3.463   9.732
 5313SOL    HW216476   3.204   3.506   9.828
 5314SOL     OW16477   3.140   2.791   9.983
 5314SOL    HW116478   3.213   2.730   9.991
 5314SOL    HW216479   3.175   2.862   9.928
 5315SOL     OW16480   2.673   3.140  10.733
 5315SOL    HW116481   2.642   3.173  10.818
 5315SOL    HW216482   2.602   3.161  10.672
 5316SOL     OW16483   2.531   3.487   9.466
 5316SOL    HW116484   2.544   3.501   9.372
 5316SOL    HW216485   2.475   3.409   9.471
 5317SOL     OW16486   3.477   3.585  10.689
 5317SOL    HW116487   3.537   3.597  10.615
 5317SOL    HW216488   3.463   3.673  10.723
 5318SOL     OW16489   3.705   2.033  10.277
 5318SOL    HW116490   3.735   1.946  10.252
 5318SOL    HW216491   3.619   2.041  10.237
 5319SOL     OW16492   3.070   3.464   9.343
 5319SOL    HW116493   3.059   3.373   9.369
 5319SOL    HW216494   3.005   3.478   9.275
 5320SOL     OW16495   2.688   2.868  10.692
 5320SOL    HW116496   2.736   2.851  10.611
 5320SOL    HW216497   2.688   2.963  10.700
 5321SOL     OW16498   2.778   2.771   9.600
 5321SOL    HW116499   2.839   2.804   9.534
 5321SOL    HW216500   2.827   2.704   9.647
 5322SOL     OW16501   3.351   3.490   9.355
 5322SOL    HW116502   3.257   3.480   9.339
 5322SOL    HW216503   3.389   3.496   9.267
 5323SOL     OW16504   2.224   3.177  10.807
 5323SOL    HW116505   2.210   3.248  10.745
 5323SOL    HW216506   2.153   3.115  10.789
 5324SOL     OW16507   3.474   3.143  10.594
 5324SOL    HW116508   3.528   3.123  10.671
 5324SOL    HW216509   3.417   3.214  10.623
 5325SOL     OW16510   2.921   2.971  10.021
 5325SOL    HW116511   2.849   2.920  10.057
 5325SOL    HW216512   2.986   2.906   9.994
 5326SOL     OW16513   2.890   2.101  10.275
 5326SOL    HW116514   2.885   2.053  10.192
 5326SOL    HW216515   2.882   2.033  10.342
 5327SOL     OW16516   2.468   3.350   9.790
 5327SOL    HW116517   2.516   3.300   9.725
 5327SOL    HW216518   2.393   3.386   9.743
 5328SOL     OW16519   3.583   2.255  10.693
 5328SOL    HW116520   3.656   2.317  10.696
 5328SOL    HW216521   3.613   2.185  10.635
 5329SOL     OW16522   2.124   3.203   9.604
 5329SOL    HW116523   2.032   3.200   9.578
 5329SOL    HW216524   2.124   3.243   9.690
 5330SOL     OW16525   1.979   2.871  11.017
 5330SOL    HW116526   1.915   2.861  11.088
 5330SOL    HW216527   2.063   2.847  11.056
 5331SOL     OW16528   2.548   2.043  10.796
 5331SOL    HW116529   2.634   2.020  10.759
 5331SOL    HW216530   2.569   2.090  10.877
 5332SOL     OW16531   1.891   2.184   9.365
 5332SOL    HW116532   1.823   2.139   9.315
 5332SOL    HW216533   1.902   2.269   9.322
 5333SOL     OW16534   3.288   2.713  10.711
 5333SOL    HW116535   3.239   2.781  10.665
 5333SOL    HW216536   3.377   2.721  10.675
 5334SOL     OW16537   1.925   2.016   9.612
 5334SOL    HW116538   1.905   2.090   9.554
 5334SOL    HW216539   2.012   1.987   9.585
 5335SOL     OW16540   3.040   3.197   9.428
 5335SOL    HW116541   2.949   3.167   9.429
 5335SOL    HW216542   3.067   3.198   9.520
 5336SOL     OW16543   2.490   2.687  10.739
 5336SOL    HW116544   2.545   2.764  10.730
 5336SOL    HW216545   2.551   2.613  10.740
 5337SOL     OW16546   3.344   3.645  10.292
 5337SOL    HW116547   3.367   3.711  10.226
 5337SOL    HW216548   3.427   3.617  10.329
 5338SOL     OW16549   2.578   2.432  11.012
 5338SOL    HW116550   2.618   2.503  11.063
 5338SOL    HW216551   2.622   2.353  11.042
 5339SOL     OW16552   2.240   3.597  10.875
 5339SOL    HW116553   2.165   3.656  10.867
 5339SOL    HW216554   2.210   3.527  10.932
 5340SOL     OW16555   3.527   2.742  10.568
 5340SOL    HW116556   3.523   2.657  10.525
 5340SOL    HW216557   3.518   2.806  10.497
 5341SOL     OW16558   3.077   2.181   9.767
 5341SOL    HW116559   3.140   2.108   9.761
 5341SOL    HW216560   3.106   2.231   9.844
 5342SOL     OW16561   2.438   2.611   9.953
 5342SOL    HW116562   2.485   2.694   9.947
 5342SOL    HW216563   2.356   2.626   9.905
 5343SOL     OW16564   3.600   2.178  10.963
 5343SOL    HW116565   3.585   2.219  10.877
 5343SOL    HW216566   3.524   2.203  11.015
 5344SOL     OW16567   3.614   2.798  10.825
 5344SOL    HW116568   3.602   2.892  10.838
 5344SOL    HW216569   3.594   2.784  10.732
 5345SOL     OW16570   2.725   3.228   9.351
 5345SOL    HW116571   2.688   3.255   9.435
 5345SOL    HW216572   2.742   3.309   9.304
 5346SOL     OW16573   2.525   3.647  10.249
 5346SOL    HW116574   2.506   3.739  10.230
 5346SOL    HW216575   2.621   3.641  10.243
 5347SOL     OW16576   2.730   2.832  10.163
 5347SOL    HW116577   2.778   2.757  10.198
 5347SOL    HW216578   2.696   2.876  10.241
 5348SOL     OW16579   2.939   2.850   9.398
 5348SOL    HW116580   2.918   2.902   9.320
 5348SOL    HW216581   3.013   2.796   9.372
 5349SOL     OW16582   3.712   3.416  10.152
 5349SOL    HW116583   3.632   3.403  10.101
 5349SOL    HW216584   3.708   3.349  10.220
 5350SOL     OW16585   1.948   3.094   9.976
 5350SOL    HW116586   1.953   3.048  10.060
 5350SOL    HW216587   2.014   3.051   9.921
 5351SOL     OW16588   2.541   3.258  10.944
 5351SOL    HW116589   2.471   3.207  10.985
 5351SOL    HW216590   2.498   3.340  10.918
 5352SOL     OW16591   3.667   2.043  10.548
 5352SOL    HW116592   3.677   1.948  10.559
 5352SOL    HW216593   3.681   2.058  10.455
 5353SOL     OW16594   3.560   3.350  10.404
 5353SOL    HW116595   3.481   3.328  10.355
 5353SOL    HW216596   3.569   3.280  10.469
 5354SOL     OW16597   2.693   3.441   9.986
 5354SOL    HW116598   2.672   3.503   9.916
 5354SOL    HW216599   2.618   3.381   9.987
 5355SOL     OW16600   3.292   2.089  10.427
 5355SOL    HW116601   3.313   2.006  10.470
 5355SOL    HW216602   3.244   2.139  10.494
 5356SOL     OW16603   2.871   1.876  10.446
 5356SOL    HW116604   2.819   1.812  10.397
 5356SOL    HW216605   2.959   1.838  10.448
 5357SOL     OW16606   2.636   3.196   9.630
 5357SOL    HW116607   2.608   3.104   9.636
 5357SOL    HW216608   2.717   3.200   9.679
 5358SOL     OW16609   2.482   3.414  10.601
 5358SOL    HW116610   2.480   3.499  10.645
 5358SOL    HW216611   2.569   3.410  10.561
 5359SOL     OW16612   3.218   1.914   9.480
 5359SOL    HW116613   3.250   1.845   9.423
 5359SOL    HW216614   3.129   1.887   9.502
 5360SOL     OW16615   3.159   2.325   9.988
 5360SOL    HW116616   3.105   2.404   9.992
 5360SOL    HW216617   3.153   2.288  10.076
 5361SOL     OW16618   3.448   2.058  10.192
 5361SOL    HW116619   3.391   2.082  10.265
 5361SOL    HW216620   3.447   2.135  10.135
 5362SOL     OW16621   1.903   2.928   9.620
 5362SOL    HW116622   1.997   2.920   9.602
 5362SOL    HW216623   1.876   2.839   9.642
 5363SOL     OW16624   2.750   3.521   9.649
 5363SOL    HW116625   2.676   3.505   9.591
 5363SOL    HW216626   2.722   3.594   9.704
 5364SOL     OW16627   2.057   4.301   0.087
 5364SOL    HW116628   2.047   4.366   0.157
 5364SOL    HW216629   2.064   4.353   0.007
 5365SOL     OW16630   2.086   4.002   0.991
 5365SOL    HW116631   2.113   3.967   1.076
 5365SOL    HW216632   1.996   3.971   0.981
 5366SOL     OW16633   1.863   4.101   0.643
 5366SOL    HW116634   1.783   4.132   0.686
 5366SOL    HW216635   1.836   4.026   0.592
 5367SOL     OW16636   3.590   4.329   0.237
 5367SOL    HW116637   3.610   4.311   0.145
 5367SOL    HW216638   3.578   4.243   0.276
 5368SOL     OW16639   2.598   0.279   0.687
 5368SOL    HW116640   2.588   0.213   0.756
 5368SOL    HW216641   2.515   0.276   0.639
 5369SOL     OW16642   2.314   4.107   1.478
 5369SOL    HW116643   2.391   4.051   1.486
 5369SOL    HW216644   2.240   4.051   1.502
 5370SOL     OW16645   3.475   4.167   0.744
 5370SOL    HW116646   3.420   4.197   0.671
 5370SOL    HW216647   3.455   4.228   0.815
 5371SOL     OW16648   3.458   3.850   1.465
 5371SOL    HW116649   3.477   3.931   1.417
 5371SOL    HW216650   3.438   3.880   1.554
 5372SOL     OW16651   1.939   4.376   0.567
 5372SOL    HW116652   1.927   4.284   0.590
 5372SOL    HW216653   2.009   4.406   0.624
 5373SOL     OW16654   1.980   4.481   1.582
 5373SOL    HW116655   2.042   0.002   1.652
 5373SOL    HW216656   1.954   0.066   1.547
 5374SOL     OW16657   2.682   3.731   0.514
 5374SOL    HW116658   2.720   3.817   0.494
 5374SOL    HW216659   2.587   3.748   0.519
 5375SOL     OW16660   2.201   3.971   1.825
 5375SOL    HW116661   2.234   4.060   1.835
 5375SOL    HW216662   2.107   3.978   1.843
 5376SOL     OW16663   3.139   4.082   0.934
 5376SOL    HW116664   3.049   4.049   0.944
 5376SOL    HW216665   3.191   4.028   0.993
 5377SOL     OW16666   2.698   4.294   1.443
 5377SOL    HW116667   2.659   4.298   1.530
 5377SOL    HW216668   2.629   4.261   1.386
 5378SOL     OW16669   3.255   4.200   1.677
 5378SOL    HW116670   3.261   4.245   1.761
 5378SOL    HW216671   3.311   4.123   1.688
 5379SOL     OW16672   2.863   4.157   1.232
 5379SOL    HW116673   2.796   4.183   1.296
 5379SOL    HW216674   2.816   4.100   1.170
 5380SOL     OW16675   2.921   4.408   0.415
 5380SOL    HW116676   2.915   4.470   0.487
 5380SOL    HW216677   2.830   4.382   0.398
 5381SOL     OW16678   2.756   4.074   0.209
 5381SOL    HW116679   2.797   4.135   0.147
 5381SOL    HW216680   2.768   3.988   0.170
 5382SOL     OW16681   3.577   4.302   1.833
 5382SOL    HW116682   3.595   4.387   1.793
 5382SOL    HW216683   3.594   4.239   1.763
 5383SOL     OW16684   2.413   3.899   0.896
 5383SOL    HW116685   2.414   3.929   0.987
 5383SOL    HW216686   2.410   3.980   0.844
 5384SOL     OW16687   3.352   4.470   0.741
 5384SOL    HW116688   3.342   4.412   0.817
 5384SOL    HW216689   3.394   0.048   0.776
 5385SOL     OW16690   2.061   3.994   1.507
 5385SOL    HW116691   1.977   4.040   1.505
 5385SOL    HW216692   2.041   3.909   1.547
 5386SOL     OW16693   3.264   3.828   0.435
 5386SOL    HW116694   3.259   3.808   0.342
 5386SOL    HW216695   3.357   3.838   0.453
 5387SOL     OW16696   2.211   4.384   0.403
 5387SOL    HW116697   2.251   4.310   0.449
 5387SOL    HW216698   2.142   4.414   0.461
 5388SOL     OW16699   3.390   3.949   1.724
 5388SOL    HW116700   3.400   3.970   1.817
 5388SOL    HW216701   3.322   3.882   1.721
 5389SOL     OW16702   2.483   3.832   0.129
 5389SOL    HW116703   2.568   3.791   0.118
 5389SOL    HW216704   2.435   3.812   0.048
 5390SOL     OW16705   2.624   4.001   1.755
 5390SOL    HW116706   2.705   3.950   1.752
 5390SOL    HW216707   2.579   3.971   1.834
 5391SOL     OW16708   3.199   4.314   1.432
 5391SOL    HW116709   3.222   4.277   1.517
 5391SOL    HW216710   3.252   4.394   1.426
 5392SOL     OW16711   2.791   4.232   0.896
 5392SOL    HW116712   2.766   4.216   0.805
 5392SOL    HW216713   2.829   4.149   0.925
 5393SOL     OW16714   2.414   3.788   0.501
 5393SOL    HW116715   2.333   3.785   0.551
 5393SOL    HW216716   2.407   3.867   0.448
 5394SOL     OW16717   2.146   3.771   0.205
 5394SOL    HW116718   2.187   3.827   0.139
 5394SOL    HW216719   2.214   3.708   0.229
 5395SOL     OW16720   2.804   3.978   0.463
 5395SOL    HW116721   2.780   4.015   0.378
 5395SOL    HW216722   2.899   3.990   0.468
 5396SOL     OW16723   2.935   4.392   1.539
 5396SOL    HW116724   2.855   4.362   1.496
 5396SOL    HW216725   3.006   4.363   1.481
 5397SOL     OW16726   2.872   4.262   0.040
 5397SOL    HW116727   2.896   4.301  11.056
 5397SOL    HW216728   2.951   4.269   0.094
 5398SOL     OW16729   1.940   4.281   1.396
 5398SOL    HW116730   2.032   4.273   1.369
 5398SOL    HW216731   1.940   4.355   1.456
 5399SOL     OW16732   2.418   3.951   1.167
 5399SOL    HW116733   2.462   3.880   1.214
 5399SOL    HW216734   2.328   3.947   1.197
 5400SOL     OW16735   2.727   4.190   0.638
 5400SOL    HW116736   2.707   4.258   0.574
 5400SOL    HW216737   2.748   4.113   0.585
 5401SOL     OW16738   2.878   3.778   0.747
 5401SOL    HW116739   2.819   3.771   0.672
 5401SOL    HW216740   2.855   3.703   0.802
 5402SOL     OW16741   3.340   4.305   0.957
 5402SOL    HW116742   3.272   4.241   0.976
 5402SOL    HW216743   3.388   4.315   1.039
 5403SOL     OW16744   3.266   4.289   0.075
 5403SOL    HW116745   3.197   4.273   0.140
 5403SOL    HW216746   3.321   4.211   0.079
 5404SOL     OW16747   2.391   3.996   0.327
 5404SOL    HW116748   2.421   3.934   0.260
 5404SOL    HW216749   2.365   4.074   0.278
 5405SOL     OW16750   2.781   3.818   1.391
 5405SOL    HW116751   2.804   3.798   1.301
 5405SOL    HW216752   2.860   3.857   1.429
 5406SOL     OW16753   2.303   0.011   1.291
 5406SOL    HW116754   2.373   4.496   1.354
 5406SOL    HW216755   2.257   4.426   1.286
 5407SOL     OW16756   3.126   4.098   1.280
 5407SOL    HW116757   3.159   4.176   1.325
 5407SOL    HW216758   3.037   4.121   1.254
 5408SOL     OW16759   2.414   4.246   0.864
 5408SOL    HW116760   2.432   4.278   0.776
 5408SOL    HW216761   2.480   4.288   0.919
 5409SOL     OW16762   3.432   4.331   0.488
 5409SOL    HW116763   3.400   4.398   0.549
 5409SOL    HW216764   3.482   4.379   0.423
 5410SOL     OW16765   2.857   3.856   1.756
 5410SOL    HW116766   2.916   3.928   1.734
 5410SOL    HW216767   2.905   3.777   1.730
 5411SOL     OW16768   2.359   3.760   1.750
 5411SOL    HW116769   2.312   3.707   1.686
 5411SOL    HW216770   2.302   3.836   1.765
 5412SOL     OW16771   3.067   4.246   0.258
 5412SOL    HW116772   3.080   4.168   0.312
 5412SOL    HW216773   3.022   4.308   0.315
 5413SOL     OW16774   2.158   3.920   1.248
 5413SOL    HW116775   2.121   3.952   1.330
 5413SOL    HW216776   2.140   3.826   1.248
 5414SOL     OW16777   2.598   4.361   1.033
 5414SOL    HW116778   2.672   4.321   0.988
 5414SOL    HW216779   2.615   4.455   1.029
 5415SOL     OW16780   3.617   0.127   1.849
 5415SOL    HW116781   3.543   0.147   1.791
 5415SOL    HW216782   3.581   0.139   1.937
 5416SOL     OW16783   2.169   3.786   0.625
 5416SOL    HW116784   2.146   3.877   0.645
 5416SOL    HW216785   2.176   3.744   0.710
 5417SOL     OW16786   3.482   4.093   0.361
 5417SOL    HW116787   3.513   4.028   0.424
 5417SOL    HW216788   3.453   4.167   0.414
 5418SOL     OW16789   3.390   4.026   0.110
 5418SOL    HW116790   3.333   3.950   0.124
 5418SOL    HW216791   3.427   4.045   0.196
 5419SOL     OW16792   2.183   0.013   0.917
 5419SOL    HW116793   2.259   0.069   0.929
 5419SOL    HW216794   2.199   4.438   0.975
 5420SOL     OW16795   2.198   4.242   1.024
 5420SOL    HW116796   2.157   4.157   1.006
 5420SOL    HW216797   2.273   4.245   0.965
 5421SOL     OW16798   3.000   4.089   1.689
 5421SOL    HW116799   2.945   4.148   1.741
 5421SOL    HW216800   3.083   4.135   1.680
 5422SOL     OW16801   3.022   3.922   1.470
 5422SOL    HW116802   3.012   3.982   1.543
 5422SOL    HW216803   3.065   3.974   1.402
 5423SOL     OW16804   1.898   4.279   1.117
 5423SOL    HW116805   1.978   4.267   1.066
 5423SOL    HW216806   1.926   4.278   1.208
 5424SOL     OW16807   2.060   4.247   1.714
 5424SOL    HW116808   2.107   4.192   1.651
 5424SOL    HW216809   2.010   4.307   1.659
 5425SOL     OW16810   2.676   4.311   0.328
 5425SOL    HW116811   2.690   4.225   0.288
 5425SOL    HW216812   2.583   4.313   0.351
 5426SOL     OW16813   3.495   4.313   1.182
 5426SOL    HW116814   3.493   4.256   1.258
 5426SOL    HW216815   3.584   4.304   1.148
 5427SOL     OW16816   2.549   4.185   1.245
 5427SOL    HW116817   2.501   4.107   1.216
 5427SOL    HW216818   2.550   4.243   1.169
 5428SOL     OW16819   2.323   4.215   0.175
 5428SOL    HW116820   2.367   4.298   0.189
 5428SOL    HW216821   2.230   4.237   0.172
 5429SOL     OW16822   2.785   3.815   0.094
 5429SOL    HW116823   2.830   3.777   0.018
 5429SOL    HW216824   2.826   3.774   0.170
 5430SOL     OW16825   3.584   3.877   0.508
 5430SOL    HW116826   3.654   3.863   0.444
 5430SOL    HW216827   3.569   3.791   0.546
 5431SOL     OW16828   3.139   0.133   0.677
 5431SOL    HW116829   3.196   0.061   0.706
 5431SOL    HW216830   3.187   0.173   0.604
 5432SOL     OW16831   3.704   3.894   0.967
 5432SOL    HW116832   3.733   3.806   0.940
 5432SOL    HW216833   3.617   3.903   0.926
 5433SOL     OW16834   2.122   4.040   0.716
 5433SOL    HW116835   2.033   4.068   0.692
 5433SOL    HW216836   2.118   4.031   0.811
 5434SOL     OW16837   2.923   0.290   0.742
 5434SOL    HW116838   2.850   0.271   0.683
 5434SOL    HW216839   2.992   0.230   0.714
 5435SOL     OW16840   2.885   3.965   0.962
 5435SOL    HW116841   2.881   3.915   0.880
 5435SOL    HW216842   2.880   3.898   1.031
 5436SOL     OW16843   3.588   4.113   1.381
 5436SOL    HW116844   3.659   4.178   1.379
 5436SOL    HW216845   3.618   4.043   1.323
 5437SOL     OW16846   2.538   3.917   1.500
 5437SOL    HW116847   2.623   3.897   1.459
 5437SOL    HW216848   2.561   3.951   1.586
 5438SOL     OW16849   1.947   4.049   0.062
 5438SOL    HW116850   1.880   4.048  11.094
 5438SOL    HW216851   1.974   4.140   0.069
 5439SOL     OW16852   1.921   3.881   0.306
 5439SOL    HW116853   1.909   3.951   0.242
 5439SOL    HW216854   2.006   3.843   0.284
 5440SOL     OW16855   2.597   4.277   1.696
 5440SOL    HW116856   2.583   4.321   1.780
 5440SOL    HW216857   2.606   4.184   1.719
 5441SOL     OW16858   3.078   4.037   0.454
 5441SOL    HW116859   3.141   3.966   0.447
 5441SOL    HW216860   3.106   4.087   0.531
 5442SOL     OW16861   3.615   4.094   1.653
 5442SOL    HW116862   3.602   4.106   1.559
 5442SOL    HW216863   3.544   4.035   1.679
 5443SOL     OW16864   2.962   0.208   0.049
 5443SOL    HW116865   2.955   0.298   0.017
 5443SOL    HW216866   3.047   0.179   0.019
 5444SOL     OW16867   3.676   3.905   1.237
 5444SOL    HW116868   3.681   3.810   1.249
 5444SOL    HW216869   3.685   3.917   1.143
 5445SOL     OW16870   2.303   4.163   0.539
 5445SOL    HW116871   2.331   4.093   0.479
 5445SOL    HW216872   2.246   4.119   0.602
 5446SOL     OW16873   2.188   4.265   1.297
 5446SOL    HW116874   2.244   4.208   1.350
 5446SOL    HW216875   2.206   4.240   1.207
 5447SOL     OW16876   3.292   3.951   1.117
 5447SOL    HW116877   3.311   3.868   1.160
 5447SOL    HW216878   3.242   4.001   1.182
 5448SOL     OW16879   2.871   3.741   1.137
 5448SOL    HW116880   2.817   3.675   1.093
 5448SOL    HW216881   2.958   3.702   1.139
 5449SOL     OW16882   3.213   3.782   0.164
 5449SOL    HW116883   3.234   3.726   0.090
 5449SOL    HW216884   3.126   3.754   0.191
 5450SOL     OW16885   3.159   4.173   0.677
 5450SOL    HW116886   3.136   4.265   0.689
 5450SOL    HW216887   3.158   4.136   0.765
 5451SOL     OW16888   3.447   3.920   0.881
 5451SOL    HW116889   3.391   3.946   0.955
 5451SOL    HW216890   3.448   3.997   0.824
 5452SOL     OW16891   2.080   4.278   1.983
 5452SOL    HW116892   2.051   4.362   2.020
 5452SOL    HW216893   2.078   4.292   1.888
 5453SOL     OW16894   2.086   4.001   2.853
 5453SOL    HW116895   2.113   3.967   2.938
 5453SOL    HW216896   1.996   3.971   2.842
 5454SOL     OW16897   1.863   4.099   2.505
 5454SOL    HW116898   1.784   4.133   2.548
 5454SOL    HW216899   1.833   4.022   2.456
 5455SOL     OW16900   3.582   4.335   2.103
 5455SOL    HW116901   3.587   4.327   2.008
 5455SOL    HW216902   3.587   4.245   2.136
 5456SOL     OW16903   2.589   0.280   2.550
 5456SOL    HW116904   2.581   0.215   2.620
 5456SOL    HW216905   2.506   0.274   2.502
 5457SOL     OW16906   2.314   4.107   3.340
 5457SOL    HW116907   2.391   4.051   3.349
 5457SOL    HW216908   2.240   4.051   3.364
 5458SOL     OW16909   3.474   4.167   2.605
 5458SOL    HW116910   3.416   4.195   2.534
 5458SOL    HW216911   3.456   4.228   2.676
 5459SOL     OW16912   3.458   3.850   3.327
 5459SOL    HW116913   3.478   3.931   3.280
 5459SOL    HW216914   3.438   3.880   3.416
 5460SOL     OW16915   1.918   4.387   2.446
 5460SOL    HW116916   1.921   4.292   2.455
 5460SOL    HW216917   2.001   4.417   2.483
 5461SOL     OW16918   1.980   4.482   3.444
 5461SOL    HW116919   2.042   0.003   3.514
 5461SOL    HW216920   1.954   0.067   3.409
 5462SOL     OW16921   2.681   3.728   2.374
 5462SOL    HW116922   2.722   3.812   2.351
 5462SOL    HW216923   2.588   3.747   2.380
 5463SOL     OW16924   2.201   3.971   3.686
 5463SOL    HW116925   2.234   4.060   3.697
 5463SOL    HW216926   2.107   3.978   3.704
 5464SOL     OW16927   3.139   4.081   2.796
 5464SOL    HW116928   3.049   4.048   2.806
 5464SOL    HW216929   3.191   4.027   2.855
 5465SOL     OW16930   2.698   4.293   3.305
 5465SOL    HW116931   2.659   4.298   3.391
 5465SOL    HW216932   2.629   4.260   3.248
 5466SOL     OW16933   3.255   4.200   3.539
 5466SOL    HW116934   3.261   4.245   3.623
 5466SOL    HW216935   3.311   4.123   3.550
 5467SOL     OW16936   2.862   4.157   3.094
 5467SOL    HW116937   2.796   4.184   3.158
 5467SOL    HW216938   2.815   4.101   3.033
 5468SOL     OW16939   2.916   4.414   2.272
 5468SOL    HW116940   2.910   4.464   2.354
 5468SOL    HW216941   2.832   4.369   2.265
 5469SOL     OW16942   2.761   4.067   2.050
 5469SOL    HW116943   2.800   4.131   1.991
 5469SOL    HW216944   2.775   3.983   2.007
 5470SOL     OW16945   3.577   4.302   3.695
 5470SOL    HW116946   3.595   4.387   3.655
 5470SOL    HW216947   3.594   4.239   3.625
 5471SOL     OW16948   2.412   3.900   2.758
 5471SOL    HW116949   2.414   3.929   2.849
 5471SOL    HW216950   2.410   3.981   2.707
 5472SOL     OW16951   3.355   4.470   2.601
 5472SOL    HW116952   3.344   4.413   2.677
 5472SOL    HW216953   3.397   0.049   2.637
 5473SOL     OW16954   2.061   3.994   3.368
 5473SOL    HW116955   1.977   4.041   3.368
 5473SOL    HW216956   2.041   3.910   3.410
 5474SOL     OW16957   3.262   3.829   2.300
 5474SOL    HW116958   3.255   3.804   2.208
 5474SOL    HW216959   3.356   3.838   2.315
 5475SOL     OW16960   2.215   4.392   2.269
 5475SOL    HW116961   2.249   4.312   2.309
 5475SOL    HW216962   2.155   4.428   2.334
 5476SOL     OW16963   3.390   3.950   3.586
 5476SOL    HW116964   3.400   3.970   3.679
 5476SOL    HW216965   3.322   3.882   3.583
 5477SOL     OW16966   2.504   3.842   1.965
 5477SOL    HW116967   2.565   3.770   1.982
 5477SOL    HW216968   2.451   3.812   1.891
 5478SOL     OW16969   2.624   4.001   3.617
 5478SOL    HW116970   2.705   3.950   3.614
 5478SOL    HW216971   2.579   3.971   3.696
 5479SOL     OW16972   3.200   4.314   3.294
 5479SOL    HW116973   3.222   4.277   3.379
 5479SOL    HW216974   3.252   4.394   3.288
 5480SOL     OW16975   2.789   4.231   2.754
 5480SOL    HW116976   2.765   4.214   2.663
 5480SOL    HW216977   2.828   4.149   2.784
 5481SOL     OW16978   2.414   3.788   2.359
 5481SOL    HW116979   2.334   3.787   2.411
 5481SOL    HW216980   2.406   3.865   2.303
 5482SOL     OW16981   2.151   3.772   2.048
 5482SOL    HW116982   2.208   3.836   2.005
 5482SOL    HW216983   2.212   3.710   2.089
 5483SOL     OW16984   2.804   3.974   2.317
 5483SOL    HW116985   2.780   4.010   2.232
 5483SOL    HW216986   2.898   3.989   2.324
 5484SOL     OW16987   2.935   4.391   3.401
 5484SOL    HW116988   2.855   4.361   3.358
 5484SOL    HW216989   3.006   4.363   3.343
 5485SOL     OW16990   2.889   4.259   1.892
 5485SOL    HW116991   2.873   4.347   1.857
 5485SOL    HW216992   2.953   4.273   1.962
 5486SOL     OW16993   1.940   4.281   3.258
 5486SOL    HW116994   2.031   4.273   3.231
 5486SOL    HW216995   1.940   4.356   3.319
 5487SOL     OW16996   2.418   3.950   3.029
 5487SOL    HW116997   2.462   3.880   3.077
 5487SOL    HW216998   2.327   3.947   3.059
 5488SOL     OW16999   2.729   4.188   2.495
 5488SOL    HW117000   2.701   4.249   2.426
 5488SOL    HW217001   2.750   4.107   2.449
 5489SOL     OW17002   2.878   3.778   2.609
 5489SOL    HW117003   2.819   3.771   2.534
 5489SOL    HW217004   2.855   3.703   2.664
 5490SOL     OW17005   3.341   4.305   2.817
 5490SOL    HW117006   3.272   4.241   2.837
 5490SOL    HW217007   3.388   4.315   2.900
 5491SOL     OW17008   3.268   4.296   1.936
 5491SOL    HW117009   3.204   4.266   2.001
 5491SOL    HW217010   3.350   4.255   1.962
 5492SOL     OW17011   2.391   3.989   2.176
 5492SOL    HW117012   2.436   3.941   2.107
 5492SOL    HW217013   2.371   4.074   2.137
 5493SOL     OW17014   2.781   3.818   3.253
 5493SOL    HW117015   2.804   3.798   3.163
 5493SOL    HW217016   2.860   3.857   3.291
 5494SOL     OW17017   2.302   0.011   3.154
 5494SOL    HW117018   2.374   4.496   3.216
 5494SOL    HW217019   2.257   4.426   3.149
 5495SOL     OW17020   3.126   4.098   3.142
 5495SOL    HW117021   3.159   4.176   3.187
 5495SOL    HW217022   3.037   4.121   3.115
 5496SOL     OW17023   2.414   4.246   2.726
 5496SOL    HW117024   2.432   4.279   2.638
 5496SOL    HW217025   2.480   4.287   2.781
 5497SOL     OW17026   3.426   4.332   2.349
 5497SOL    HW117027   3.407   4.397   2.416
 5497SOL    HW217028   3.487   4.375   2.289
 5498SOL     OW17029   2.857   3.856   3.618
 5498SOL    HW117030   2.916   3.928   3.596
 5498SOL    HW217031   2.906   3.777   3.591
 5499SOL     OW17032   2.359   3.760   3.612
 5499SOL    HW117033   2.312   3.707   3.548
 5499SOL    HW217034   2.302   3.836   3.627
 5500SOL     OW17035   3.068   4.251   2.121
 5500SOL    HW117036   3.078   4.172   2.174
 5500SOL    HW217037   3.021   4.312   2.178
 5501SOL     OW17038   2.158   3.920   3.109
 5501SOL    HW117039   2.121   3.952   3.192
 5501SOL    HW217040   2.140   3.826   3.110
 5502SOL     OW17041   2.598   4.361   2.895
 5502SOL    HW117042   2.671   4.321   2.848
 5502SOL    HW217043   2.615   4.455   2.892
 5503SOL     OW17044   3.616   0.127   3.711
 5503SOL    HW117045   3.543   0.147   3.652
 5503SOL    HW217046   3.581   0.139   3.799
 5504SOL     OW17047   2.170   3.786   2.486
 5504SOL    HW117048   2.146   3.877   2.507
 5504SOL    HW217049   2.177   3.743   2.571
 5505SOL     OW17050   3.478   4.091   2.226
 5505SOL    HW117051   3.511   4.029   2.292
 5505SOL    HW217052   3.450   4.167   2.277
 5506SOL     OW17053   3.383   3.999   1.988
 5506SOL    HW117054   3.322   3.931   2.014
 5506SOL    HW217055   3.421   4.031   2.070
 5507SOL     OW17056   2.184   0.012   2.778
 5507SOL    HW117057   2.259   0.070   2.790
 5507SOL    HW217058   2.200   4.440   2.838
 5508SOL     OW17059   2.199   4.241   2.886
 5508SOL    HW117060   2.158   4.156   2.868
 5508SOL    HW217061   2.273   4.245   2.827
 5509SOL     OW17062   3.000   4.089   3.551
 5509SOL    HW117063   2.945   4.148   3.603
 5509SOL    HW217064   3.083   4.135   3.542
 5510SOL     OW17065   3.023   3.922   3.332
 5510SOL    HW117066   3.012   3.982   3.405
 5510SOL    HW217067   3.065   3.974   3.264
 5511SOL     OW17068   1.898   4.278   2.979
 5511SOL    HW117069   1.978   4.268   2.928
 5511SOL    HW217070   1.927   4.277   3.070
 5512SOL     OW17071   2.061   4.247   3.575
 5512SOL    HW117072   2.108   4.193   3.513
 5512SOL    HW217073   2.010   4.308   3.521
 5513SOL     OW17074   2.682   4.274   2.223
 5513SOL    HW117075   2.691   4.203   2.160
 5513SOL    HW217076   2.596   4.312   2.206
 5514SOL     OW17077   3.494   4.312   3.043
 5514SOL    HW117078   3.492   4.256   3.120
 5514SOL    HW217079   3.584   4.304   3.009
 5515SOL     OW17080   2.548   4.185   3.107
 5515SOL    HW117081   2.500   4.108   3.078
 5515SOL    HW217082   2.550   4.243   3.031
 5516SOL     OW17083   2.339   4.225   2.052
 5516SOL    HW117084   2.363   4.312   2.085
 5516SOL    HW217085   2.246   4.231   2.033
 5517SOL     OW17086   3.587   3.876   2.371
 5517SOL    HW117087   3.657   3.860   2.308
 5517SOL    HW217088   3.569   3.790   2.409
 5518SOL     OW17089   3.141   0.133   2.539
 5518SOL    HW117090   3.200   0.062   2.563
 5518SOL    HW217091   3.189   0.182   2.472
 5519SOL     OW17092   3.704   3.894   2.829
 5519SOL    HW117093   3.733   3.806   2.803
 5519SOL    HW217094   3.617   3.903   2.788
 5520SOL     OW17095   2.122   4.039   2.578
 5520SOL    HW117096   2.033   4.068   2.553
 5520SOL    HW217097   2.119   4.030   2.673
 5521SOL     OW17098   2.764   0.087   2.064
 5521SOL    HW117099   2.844   0.124   2.027
 5521SOL    HW217100   2.788   0.061   2.152
 5522SOL     OW17101   2.928   0.289   2.614
 5522SOL    HW117102   2.862   0.292   2.544
 5522SOL    HW217103   2.994   0.227   2.583
 5523SOL     OW17104   2.885   3.964   2.824
 5523SOL    HW117105   2.882   3.915   2.742
 5523SOL    HW217106   2.880   3.898   2.892
 5524SOL     OW17107   3.588   4.113   3.243
 5524SOL    HW117108   3.659   4.178   3.241
 5524SOL    HW217109   3.618   4.043   3.185
 5525SOL     OW17110   2.538   3.917   3.361
 5525SOL    HW117111   2.623   3.897   3.321
 5525SOL    HW217112   2.561   3.951   3.448
 5526SOL     OW17113   1.937   4.034   1.891
 5526SOL    HW117114   1.860   4.036   1.834
 5526SOL    HW217115   1.968   4.124   1.893
 5527SOL     OW17116   1.925   3.877   2.166
 5527SOL    HW117117   1.909   3.953   2.110
 5527SOL    HW217118   2.010   3.844   2.137
 5528SOL     OW17119   2.596   4.277   3.558
 5528SOL    HW117120   2.584   4.322   3.641
 5528SOL    HW217121   2.606   4.184   3.581
 5529SOL     OW17122   3.079   4.041   2.315
 5529SOL    HW117123   3.140   3.968   2.309
 5529SOL    HW217124   3.107   4.090   2.392
 5530SOL     OW17125   3.615   4.093   3.515
 5530SOL    HW117126   3.602   4.106   3.421
 5530SOL    HW217127   3.544   4.035   3.541
 5531SOL     OW17128   2.977   0.222   1.961
 5531SOL    HW117129   2.972   0.266   1.876
 5531SOL    HW217130   3.066   0.188   1.967
 5532SOL     OW17131   3.675   3.904   3.099
 5532SOL    HW117132   3.681   3.810   3.111
 5532SOL    HW217133   3.685   3.917   3.005
 5533SOL     OW17134   2.298   4.162   2.396
 5533SOL    HW117135   2.327   4.092   2.338
 5533SOL    HW217136   2.244   4.118   2.462
 5534SOL     OW17137   2.188   4.265   3.159
 5534SOL    HW117138   2.244   4.208   3.212
 5534SOL    HW217139   2.206   4.240   3.069
 5535SOL     OW17140   3.292   3.951   2.979
 5535SOL    HW117141   3.311   3.868   3.023
 5535SOL    HW217142   3.242   4.001   3.044
 5536SOL     OW17143   2.871   3.741   2.999
 5536SOL    HW117144   2.817   3.675   2.955
 5536SOL    HW217145   2.959   3.702   3.001
 5537SOL     OW17146   3.218   3.776   2.031
 5537SOL    HW117147   3.250   3.706   1.974
 5537SOL    HW217148   3.129   3.749   2.054
 5538SOL     OW17149   3.159   4.174   2.540
 5538SOL    HW117150   3.136   4.266   2.553
 5538SOL    HW217151   3.158   4.135   2.627
 5539SOL     OW17152   3.447   3.920   2.743
 5539SOL    HW117153   3.391   3.946   2.816
 5539SOL    HW217154   3.447   3.997   2.686
 5540SOL     OW17155   2.080   4.278   3.845
 5540SOL    HW117156   2.052   4.362   3.882
 5540SOL    HW217157   2.078   4.292   3.750
 5541SOL     OW17158   2.086   4.002   4.715
 5541SOL    HW117159   2.113   3.967   4.800
 5541SOL    HW217160   1.996   3.971   4.705
 5542SOL     OW17161   1.863   4.099   4.366
 5542SOL    HW117162   1.784   4.132   4.410
 5542SOL    HW217163   1.833   4.022   4.318
 5543SOL     OW17164   3.581   4.335   3.965
 5543SOL    HW117165   3.587   4.327   3.870
 5543SOL    HW217166   3.587   4.246   3.998
 5544SOL     OW17167   2.589   0.280   4.412
 5544SOL    HW117168   2.581   0.215   4.482
 5544SOL    HW217169   2.506   0.275   4.365
 5545SOL     OW17170   2.313   4.108   5.203
 5545SOL    HW117171   2.391   4.052   5.211
 5545SOL    HW217172   2.241   4.050   5.226
 5546SOL     OW17173   3.474   4.167   4.467
 5546SOL    HW117174   3.416   4.195   4.396
 5546SOL    HW217175   3.456   4.228   4.538
 5547SOL     OW17176   3.458   3.851   5.189
 5547SOL    HW117177   3.477   3.931   5.142
 5547SOL    HW217178   3.438   3.879   5.278
 5548SOL     OW17179   1.917   4.388   4.310
 5548SOL    HW117180   1.920   4.292   4.318
 5548SOL    HW217181   2.001   4.418   4.345
 5549SOL     OW17182   1.980   4.481   5.306
 5549SOL    HW117183   2.043   0.002   5.376
 5549SOL    HW217184   1.956   0.067   5.270
 5550SOL     OW17185   2.681   3.728   4.233
 5550SOL    HW117186   2.721   3.813   4.212
 5550SOL    HW217187   2.588   3.747   4.240
 5551SOL     OW17188   2.200   3.971   5.550
 5551SOL    HW117189   2.234   4.060   5.559
 5551SOL    HW217190   2.106   3.978   5.567
 5552SOL     OW17191   3.139   4.081   4.658
 5552SOL    HW117192   3.049   4.048   4.668
 5552SOL    HW217193   3.191   4.027   4.717
 5553SOL     OW17194   2.698   4.294   5.167
 5553SOL    HW117195   2.658   4.298   5.254
 5553SOL    HW217196   2.629   4.260   5.110
 5554SOL     OW17197   3.256   4.200   5.401
 5554SOL    HW117198   3.261   4.245   5.485
 5554SOL    HW217199   3.310   4.122   5.411
 5555SOL     OW17200   2.862   4.157   4.956
 5555SOL    HW117201   2.796   4.183   5.020
 5555SOL    HW217202   2.816   4.100   4.895
 5556SOL     OW17203   2.916   4.414   4.134
 5556SOL    HW117204   2.910   4.464   4.216
 5556SOL    HW217205   2.832   4.369   4.127
 5557SOL     OW17206   2.761   4.067   3.912
 5557SOL    HW117207   2.800   4.131   3.852
 5557SOL    HW217208   2.776   3.983   3.869
 5558SOL     OW17209   3.577   4.302   5.557
 5558SOL    HW117210   3.594   4.387   5.516
 5558SOL    HW217211   3.594   4.238   5.487
 5559SOL     OW17212   2.412   3.901   4.619
 5559SOL    HW117213   2.414   3.929   4.711
 5559SOL    HW217214   2.410   3.983   4.569
 5560SOL     OW17215   3.356   4.470   4.463
 5560SOL    HW117216   3.344   4.413   4.539
 5560SOL    HW217217   3.397   0.049   4.499
 5561SOL     OW17218   2.061   3.993   5.231
 5561SOL    HW117219   1.977   4.039   5.230
 5561SOL    HW217220   2.041   3.908   5.269
 5562SOL     OW17221   3.262   3.829   4.162
 5562SOL    HW117222   3.255   3.804   4.070
 5562SOL    HW217223   3.356   3.838   4.177
 5563SOL     OW17224   2.215   4.392   4.131
 5563SOL    HW117225   2.249   4.311   4.171
 5563SOL    HW217226   2.156   4.428   4.198
 5564SOL     OW17227   3.390   3.949   5.448
 5564SOL    HW117228   3.400   3.969   5.541
 5564SOL    HW217229   3.322   3.881   5.445
 5565SOL     OW17230   2.503   3.842   3.827
 5565SOL    HW117231   2.564   3.771   3.845
 5565SOL    HW217232   2.451   3.812   3.753
 5566SOL     OW17233   2.625   4.002   5.480
 5566SOL    HW117234   2.705   3.950   5.477
 5566SOL    HW217235   2.579   3.971   5.558
 5567SOL     OW17236   3.200   4.315   5.156
 5567SOL    HW117237   3.222   4.277   5.241
 5567SOL    HW217238   3.252   4.394   5.150
 5568SOL     OW17239   2.789   4.231   4.617
 5568SOL    HW117240   2.765   4.214   4.525
 5568SOL    HW217241   2.828   4.148   4.646
 5569SOL     OW17242   2.414   3.788   4.221
 5569SOL    HW117243   2.334   3.787   4.274
 5569SOL    HW217244   2.405   3.865   4.166
 5570SOL     OW17245   2.152   3.772   3.910
 5570SOL    HW117246   2.209   3.836   3.867
 5570SOL    HW217247   2.212   3.710   3.951
 5571SOL     OW17248   2.804   3.975   4.179
 5571SOL    HW117249   2.780   4.011   4.094
 5571SOL    HW217250   2.898   3.989   4.186
 5572SOL     OW17251   2.935   4.391   5.264
 5572SOL    HW117252   2.855   4.361   5.221
 5572SOL    HW217253   3.005   4.363   5.205
 5573SOL     OW17254   2.888   4.260   3.754
 5573SOL    HW117255   2.873   4.347   3.718
 5573SOL    HW217256   2.953   4.273   3.824
 5574SOL     OW17257   1.940   4.281   5.120
 5574SOL    HW117258   2.031   4.273   5.093
 5574SOL    HW217259   1.940   4.355   5.181
 5575SOL     OW17260   2.419   3.950   4.891
 5575SOL    HW117261   2.463   3.879   4.937
 5575SOL    HW217262   2.328   3.947   4.921
 5576SOL     OW17263   2.728   4.188   4.357
 5576SOL    HW117264   2.701   4.249   4.288
 5576SOL    HW217265   2.750   4.107   4.311
 5577SOL     OW17266   2.880   3.777   4.470
 5577SOL    HW117267   2.821   3.771   4.395
 5577SOL    HW217268   2.856   3.703   4.526
 5578SOL     OW17269   3.341   4.305   4.679
 5578SOL    HW117270   3.272   4.241   4.699
 5578SOL    HW217271   3.388   4.315   4.762
 5579SOL     OW17272   3.267   4.296   3.798
 5579SOL    HW117273   3.204   4.266   3.863
 5579SOL    HW217274   3.350   4.256   3.825
 5580SOL     OW17275   2.391   3.989   4.038
 5580SOL    HW117276   2.436   3.941   3.969
 5580SOL    HW217277   2.371   4.074   3.999
 5581SOL     OW17278   2.780   3.820   5.115
 5581SOL    HW117279   2.803   3.799   5.025
 5581SOL    HW217280   2.859   3.857   5.153
 5582SOL     OW17281   2.302   0.010   5.016
 5582SOL    HW117282   2.374   4.495   5.077
 5582SOL    HW217283   2.257   4.426   5.011
 5583SOL     OW17284   3.126   4.099   5.004
 5583SOL    HW117285   3.159   4.176   5.049
 5583SOL    HW217286   3.037   4.122   4.977
 5584SOL     OW17287   2.414   4.246   4.588
 5584SOL    HW117288   2.432   4.279   4.500
 5584SOL    HW217289   2.480   4.287   4.643
 5585SOL     OW17290   3.427   4.331   4.211
 5585SOL    HW117291   3.407   4.397   4.278
 5585SOL    HW217292   3.486   4.375   4.151
 5586SOL     OW17293   2.857   3.856   5.480
 5586SOL    HW117294   2.917   3.928   5.458
 5586SOL    HW217295   2.905   3.777   5.454
 5587SOL     OW17296   2.359   3.761   5.474
 5587SOL    HW117297   2.311   3.707   5.411
 5587SOL    HW217298   2.301   3.837   5.489
 5588SOL     OW17299   3.068   4.251   3.983
 5588SOL    HW117300   3.078   4.172   4.036
 5588SOL    HW217301   3.021   4.312   4.040
 5589SOL     OW17302   2.158   3.921   4.971
 5589SOL    HW117303   2.121   3.952   5.054
 5589SOL    HW217304   2.141   3.827   4.971
 5590SOL     OW17305   2.598   4.361   4.757
 5590SOL    HW117306   2.671   4.321   4.710
 5590SOL    HW217307   2.616   4.455   4.754
 5591SOL     OW17308   3.617   0.128   5.573
 5591SOL    HW117309   3.544   0.147   5.514
 5591SOL    HW217310   3.581   0.140   5.661
 5592SOL     OW17311   2.170   3.786   4.348
 5592SOL    HW117312   2.146   3.877   4.369
 5592SOL    HW217313   2.178   3.743   4.433
 5593SOL     OW17314   3.478   4.091   4.088
 5593SOL    HW117315   3.511   4.029   4.154
 5593SOL    HW217316   3.450   4.167   4.139
 5594SOL     OW17317   3.384   3.999   3.850
 5594SOL    HW117318   3.322   3.931   3.876
 5594SOL    HW217319   3.421   4.031   3.932
 5595SOL     OW17320   2.183   0.012   4.640
 5595SOL    HW117321   2.259   0.070   4.651
 5595SOL    HW217322   2.200   4.440   4.700
 5596SOL     OW17323   2.199   4.241   4.748
 5596SOL    HW117324   2.158   4.157   4.730
 5596SOL    HW217325   2.274   4.245   4.689
 5597SOL     OW17326   3.000   4.089   5.413
 5597SOL    HW117327   2.945   4.148   5.464
 5597SOL    HW217328   3.083   4.135   5.404
 5598SOL     OW17329   3.022   3.922   5.194
 5598SOL    HW117330   3.012   3.982   5.267
 5598SOL    HW217331   3.065   3.974   5.125
 5599SOL     OW17332   1.897   4.279   4.841
 5599SOL    HW117333   1.978   4.267   4.790
 5599SOL    HW217334   1.927   4.277   4.932
 5600SOL     OW17335   2.060   4.247   5.438
 5600SOL    HW117336   2.108   4.192   5.375
 5600SOL    HW217337   2.010   4.307   5.383
 5601SOL     OW17338   2.683   4.274   4.086
 5601SOL    HW117339   2.691   4.203   4.022
 5601SOL    HW217340   2.597   4.312   4.068
 5602SOL     OW17341   3.494   4.313   4.905
 5602SOL    HW117342   3.492   4.256   4.982
 5602SOL    HW217343   3.584   4.304   4.871
 5603SOL     OW17344   2.547   4.186   4.969
 5603SOL    HW117345   2.500   4.108   4.940
 5603SOL    HW217346   2.550   4.243   4.893
 5604SOL     OW17347   2.339   4.225   3.914
 5604SOL    HW117348   2.363   4.312   3.946
 5604SOL    HW217349   2.245   4.231   3.895
 5605SOL     OW17350   3.587   3.876   4.233
 5605SOL    HW117351   3.657   3.860   4.170
 5605SOL    HW217352   3.569   3.790   4.271
 5606SOL     OW17353   3.141   0.133   4.401
 5606SOL    HW117354   3.200   0.061   4.425
 5606SOL    HW217355   3.189   0.183   4.335
 5607SOL     OW17356   3.704   3.894   4.691
 5607SOL    HW117357   3.733   3.806   4.664
 5607SOL    HW217358   3.617   3.903   4.650
 5608SOL     OW17359   2.122   4.039   4.440
 5608SOL    HW117360   2.033   4.068   4.416
 5608SOL    HW217361   2.119   4.030   4.535
 5609SOL     OW17362   2.764   0.087   3.926
 5609SOL    HW117363   2.844   0.124   3.888
 5609SOL    HW217364   2.788   0.061   4.014
 5610SOL     OW17365   2.928   0.289   4.476
 5610SOL    HW117366   2.863   0.292   4.406
 5610SOL    HW217367   2.993   0.227   4.445
 5611SOL     OW17368   2.885   3.964   4.685
 5611SOL    HW117369   2.882   3.914   4.604
 5611SOL    HW217370   2.879   3.898   4.754
 5612SOL     OW17371   3.588   4.113   5.105
 5612SOL    HW117372   3.659   4.178   5.103
 5612SOL    HW217373   3.618   4.043   5.047
 5613SOL     OW17374   2.539   3.923   5.225
 5613SOL    HW117375   2.622   3.901   5.184
 5613SOL    HW217376   2.563   3.955   5.311
 5614SOL     OW17377   1.937   4.034   3.753
 5614SOL    HW117378   1.861   4.037   3.695
 5614SOL    HW217379   1.968   4.124   3.757
 5615SOL     OW17380   1.925   3.877   4.028
 5615SOL    HW117381   1.909   3.953   3.972
 5615SOL    HW217382   2.010   3.844   3.999
 5616SOL     OW17383   2.596   4.277   5.420
 5616SOL    HW117384   2.586   4.321   5.504
 5616SOL    HW217385   2.606   4.184   5.443
 5617SOL     OW17386   3.079   4.041   4.177
 5617SOL    HW117387   3.140   3.968   4.171
 5617SOL    HW217388   3.107   4.090   4.254
 5618SOL     OW17389   3.615   4.094   5.377
 5618SOL    HW117390   3.602   4.106   5.283
 5618SOL    HW217391   3.544   4.035   5.403
 5619SOL     OW17392   2.976   0.222   3.823
 5619SOL    HW117393   2.973   0.266   3.739
 5619SOL    HW217394   3.066   0.188   3.829
 5620SOL     OW17395   3.676   3.905   4.961
 5620SOL    HW117396   3.680   3.810   4.973
 5620SOL    HW217397   3.685   3.917   4.867
 5621SOL     OW17398   2.297   4.162   4.258
 5621SOL    HW117399   2.327   4.092   4.201
 5621SOL    HW217400   2.244   4.118   4.324
 5622SOL     OW17401   2.188   4.265   5.021
 5622SOL    HW117402   2.244   4.208   5.074
 5622SOL    HW217403   2.206   4.240   4.931
 5623SOL     OW17404   3.292   3.951   4.841
 5623SOL    HW117405   3.310   3.867   4.885
 5623SOL    HW217406   3.242   4.001   4.906
 5624SOL     OW17407   2.871   3.742   4.862
 5624SOL    HW117408   2.815   3.675   4.820
 5624SOL    HW217409   2.958   3.703   4.863
 5625SOL     OW17410   3.218   3.776   3.893
 5625SOL    HW117411   3.250   3.706   3.836
 5625SOL    HW217412   3.129   3.749   3.916
 5626SOL     OW17413   3.159   4.174   4.402
 5626SOL    HW117414   3.135   4.265   4.415
 5626SOL    HW217415   3.157   4.135   4.489
 5627SOL     OW17416   3.447   3.920   4.605
 5627SOL    HW117417   3.391   3.946   4.679
 5627SOL    HW217418   3.447   3.997   4.548
 5628SOL     OW17419   2.080   4.279   5.707
 5628SOL    HW117420   2.052   4.363   5.744
 5628SOL    HW217421   2.078   4.292   5.612
 5629SOL     OW17422   2.086   4.001   6.577
 5629SOL    HW117423   2.113   3.967   6.662
 5629SOL    HW217424   1.996   3.970   6.566
 5630SOL     OW17425   1.863   4.099   6.229
 5630SOL    HW117426   1.784   4.133   6.272
 5630SOL    HW217427   1.833   4.022   6.180
 5631SOL     OW17428   3.582   4.335   5.827
 5631SOL    HW117429   3.587   4.327   5.732
 5631SOL    HW217430   3.587   4.245   5.860
 5632SOL     OW17431   2.589   0.281   6.275
 5632SOL    HW117432   2.583   0.215   6.344
 5632SOL    HW217433   2.507   0.272   6.226
 5633SOL     OW17434   2.314   4.107   7.064
 5633SOL    HW117435   2.391   4.051   7.073
 5633SOL    HW217436   2.240   4.050   7.088
 5634SOL     OW17437   3.474   4.167   6.329
 5634SOL    HW117438   3.416   4.195   6.258
 5634SOL    HW217439   3.456   4.229   6.400
 5635SOL     OW17440   3.458   3.850   7.051
 5635SOL    HW117441   3.477   3.931   7.003
 5635SOL    HW217442   3.438   3.880   7.140
 5636SOL     OW17443   1.918   4.387   6.171
 5636SOL    HW117444   1.921   4.292   6.180
 5636SOL    HW217445   2.001   4.418   6.207
 5637SOL     OW17446   1.980   4.481   7.168
 5637SOL    HW117447   2.042   0.003   7.238
 5637SOL    HW217448   1.954   0.067   7.133
 5638SOL     OW17449   2.681   3.729   6.098
 5638SOL    HW117450   2.721   3.813   6.076
 5638SOL    HW217451   2.587   3.748   6.104
 5639SOL     OW17452   2.201   3.971   7.410
 5639SOL    HW117453   2.234   4.060   7.421
 5639SOL    HW217454   2.107   3.978   7.428
 5640SOL     OW17455   3.138   4.081   6.520
 5640SOL    HW117456   3.049   4.048   6.530
 5640SOL    HW217457   3.191   4.027   6.579
 5641SOL     OW17458   2.698   4.294   7.029
 5641SOL    HW117459   2.658   4.298   7.116
 5641SOL    HW217460   2.629   4.260   6.972
 5642SOL     OW17461   3.255   4.200   7.263
 5642SOL    HW117462   3.261   4.245   7.347
 5642SOL    HW217463   3.311   4.123   7.273
 5643SOL     OW17464   2.862   4.157   6.818
 5643SOL    HW117465   2.796   4.183   6.882
 5643SOL    HW217466   2.816   4.100   6.757
 5644SOL     OW17467   2.915   4.414   5.996
 5644SOL    HW117468   2.909   4.463   6.078
 5644SOL    HW217469   2.832   4.369   5.989
 5645SOL     OW17470   2.761   4.067   5.774
 5645SOL    HW117471   2.800   4.131   5.714
 5645SOL    HW217472   2.775   3.983   5.731
 5646SOL     OW17473   3.577   4.302   7.419
 5646SOL    HW117474   3.595   4.387   7.379
 5646SOL    HW217475   3.594   4.238   7.349
 5647SOL     OW17476   2.411   3.900   6.482
 5647SOL    HW117477   2.414   3.929   6.573
 5647SOL    HW217478   2.410   3.981   6.431
 5648SOL     OW17479   3.355   4.470   6.326
 5648SOL    HW117480   3.344   4.413   6.401
 5648SOL    HW217481   3.397   0.049   6.361
 5649SOL     OW17482   2.061   3.994   7.092
 5649SOL    HW117483   1.977   4.041   7.092
 5649SOL    HW217484   2.041   3.910   7.134
 5650SOL     OW17485   3.262   3.829   6.024
 5650SOL    HW117486   3.254   3.804   5.932
 5650SOL    HW217487   3.356   3.837   6.039
 5651SOL     OW17488   2.216   4.392   5.994
 5651SOL    HW117489   2.249   4.312   6.033
 5651SOL    HW217490   2.156   4.428   6.059
 5652SOL     OW17491   3.390   3.950   7.310
 5652SOL    HW117492   3.400   3.970   7.403
 5652SOL    HW217493   3.322   3.882   7.307
 5653SOL     OW17494   2.504   3.841   5.689
 5653SOL    HW117495   2.565   3.770   5.705
 5653SOL    HW217496   2.451   3.812   5.615
 5654SOL     OW17497   2.624   4.001   7.341
 5654SOL    HW117498   2.705   3.950   7.338
 5654SOL    HW217499   2.579   3.971   7.420
 5655SOL     OW17500   3.199   4.315   7.018
 5655SOL    HW117501   3.222   4.277   7.103
 5655SOL    HW217502   3.252   4.394   7.012
 5656SOL     OW17503   2.789   4.231   6.478
 5656SOL    HW117504   2.765   4.214   6.387
 5656SOL    HW217505   2.828   4.148   6.508
 5657SOL     OW17506   2.413   3.788   6.083
 5657SOL    HW117507   2.333   3.787   6.135
 5657SOL    HW217508   2.405   3.865   6.027
 5658SOL     OW17509   2.152   3.772   5.773
 5658SOL    HW117510   2.207   3.835   5.727
 5658SOL    HW217511   2.213   3.710   5.813
 5659SOL     OW17512   2.804   3.975   6.041
 5659SOL    HW117513   2.780   4.010   5.956
 5659SOL    HW217514   2.898   3.989   6.048
 5660SOL     OW17515   2.935   4.392   7.125
 5660SOL    HW117516   2.855   4.361   7.082
 5660SOL    HW217517   3.006   4.363   7.067
 5661SOL     OW17518   2.888   4.260   5.616
 5661SOL    HW117519   2.874   4.347   5.580
 5661SOL    HW217520   2.953   4.273   5.686
 5662SOL     OW17521   1.940   4.281   6.982
 5662SOL    HW117522   2.031   4.273   6.955
 5662SOL    HW217523   1.940   4.355   7.043
 5663SOL     OW17524   2.418   3.950   6.753
 5663SOL    HW117525   2.463   3.880   6.801
 5663SOL    HW217526   2.328   3.947   6.783
 5664SOL     OW17527   2.728   4.188   6.219
 5664SOL    HW117528   2.701   4.248   6.150
 5664SOL    HW217529   2.750   4.107   6.173
 5665SOL     OW17530   2.877   3.778   6.334
 5665SOL    HW117531   2.819   3.770   6.258
 5665SOL    HW217532   2.855   3.702   6.388
 5666SOL     OW17533   3.341   4.305   6.542
 5666SOL    HW117534   3.272   4.241   6.561
 5666SOL    HW217535   3.388   4.315   6.624
 5667SOL     OW17536   3.268   4.296   5.660
 5667SOL    HW117537   3.204   4.266   5.725
 5667SOL    HW217538   3.350   4.255   5.686
 5668SOL     OW17539   2.391   3.989   5.900
 5668SOL    HW117540   2.436   3.940   5.831
 5668SOL    HW217541   2.371   4.074   5.861
 5669SOL     OW17542   2.780   3.818   6.977
 5669SOL    HW117543   2.804   3.798   6.886
 5669SOL    HW217544   2.860   3.857   7.014
 5670SOL     OW17545   2.302   0.011   6.878
 5670SOL    HW117546   2.374   4.496   6.940
 5670SOL    HW217547   2.257   4.426   6.873
 5671SOL     OW17548   3.126   4.098   6.866
 5671SOL    HW117549   3.159   4.176   6.911
 5671SOL    HW217550   3.037   4.121   6.839
 5672SOL     OW17551   2.414   4.246   6.450
 5672SOL    HW117552   2.432   4.279   6.362
 5672SOL    HW217553   2.480   4.287   6.505
 5673SOL     OW17554   3.427   4.331   6.073
 5673SOL    HW117555   3.407   4.397   6.140
 5673SOL    HW217556   3.487   4.375   6.013
 5674SOL     OW17557   2.857   3.856   7.341
 5674SOL    HW117558   2.917   3.928   7.320
 5674SOL    HW217559   2.905   3.777   7.315
 5675SOL     OW17560   2.359   3.760   7.336
 5675SOL    HW117561   2.312   3.707   7.272
 5675SOL    HW217562   2.302   3.836   7.351
 5676SOL     OW17563   3.068   4.251   5.845
 5676SOL    HW117564   3.078   4.172   5.898
 5676SOL    HW217565   3.020   4.312   5.902
 5677SOL     OW17566   2.158   3.920   6.833
 5677SOL    HW117567   2.121   3.952   6.916
 5677SOL    HW217568   2.140   3.826   6.834
 5678SOL     OW17569   2.598   4.361   6.619
 5678SOL    HW117570   2.671   4.321   6.572
 5678SOL    HW217571   2.616   4.455   6.616
 5679SOL     OW17572   3.617   0.128   7.435
 5679SOL    HW117573   3.544   0.147   7.376
 5679SOL    HW217574   3.581   0.140   7.523
 5680SOL     OW17575   2.168   3.785   6.210
 5680SOL    HW117576   2.145   3.875   6.230
 5680SOL    HW217577   2.177   3.742   6.295
 5681SOL     OW17578   3.478   4.090   5.950
 5681SOL    HW117579   3.511   4.029   6.016
 5681SOL    HW217580   3.450   4.167   6.001
 5682SOL     OW17581   3.383   3.999   5.712
 5682SOL    HW117582   3.322   3.931   5.738
 5682SOL    HW217583   3.420   4.031   5.794
 5683SOL     OW17584   2.183   0.012   6.502
 5683SOL    HW117585   2.259   0.070   6.513
 5683SOL    HW217586   2.200   4.440   6.562
 5684SOL     OW17587   2.198   4.241   6.610
 5684SOL    HW117588   2.158   4.156   6.592
 5684SOL    HW217589   2.273   4.245   6.551
 5685SOL     OW17590   3.000   4.089   7.275
 5685SOL    HW117591   2.945   4.148   7.327
 5685SOL    HW217592   3.083   4.135   7.266
 5686SOL     OW17593   3.022   3.922   7.056
 5686SOL    HW117594   3.012   3.982   7.129
 5686SOL    HW217595   3.065   3.974   6.988
 5687SOL     OW17596   1.898   4.278   6.703
 5687SOL    HW117597   1.978   4.268   6.652
 5687SOL    HW217598   1.926   4.277   6.794
 5688SOL     OW17599   2.060   4.247   7.300
 5688SOL    HW117600   2.108   4.193   7.237
 5688SOL    HW217601   2.010   4.308   7.245
 5689SOL     OW17602   2.682   4.274   5.947
 5689SOL    HW117603   2.691   4.203   5.884
 5689SOL    HW217604   2.596   4.311   5.930
 5690SOL     OW17605   3.494   4.313   6.767
 5690SOL    HW117606   3.492   4.256   6.844
 5690SOL    HW217607   3.583   4.304   6.733
 5691SOL     OW17608   2.548   4.185   6.831
 5691SOL    HW117609   2.500   4.108   6.802
 5691SOL    HW217610   2.550   4.243   6.755
 5692SOL     OW17611   2.339   4.225   5.776
 5692SOL    HW117612   2.363   4.312   5.807
 5692SOL    HW217613   2.246   4.231   5.757
 5693SOL     OW17614   3.587   3.876   6.095
 5693SOL    HW117615   3.657   3.860   6.032
 5693SOL    HW217616   3.569   3.790   6.133
 5694SOL     OW17617   3.141   0.134   6.263
 5694SOL    HW117618   3.199   0.062   6.288
 5694SOL    HW217619   3.189   0.180   6.194
 5695SOL     OW17620   3.704   3.894   6.553
 5695SOL    HW117621   3.733   3.806   6.527
 5695SOL    HW217622   3.618   3.903   6.512
 5696SOL     OW17623   2.122   4.038   6.301
 5696SOL    HW117624   2.034   4.067   6.277
 5696SOL    HW217625   2.119   4.030   6.396
 5697SOL     OW17626   2.764   0.087   5.788
 5697SOL    HW117627   2.844   0.124   5.750
 5697SOL    HW217628   2.789   0.059   5.876
 5698SOL     OW17629   2.928   0.289   6.338
 5698SOL    HW117630   2.863   0.292   6.268
 5698SOL    HW217631   2.994   0.228   6.307
 5699SOL     OW17632   2.885   3.964   6.548
 5699SOL    HW117633   2.881   3.915   6.466
 5699SOL    HW217634   2.880   3.898   6.617
 5700SOL     OW17635   3.588   4.113   6.967
 5700SOL    HW117636   3.659   4.178   6.965
 5700SOL    HW217637   3.618   4.043   6.909
 5701SOL     OW17638   2.539   3.917   7.085
 5701SOL    HW117639   2.623   3.897   7.045
 5701SOL    HW217640   2.561   3.951   7.172
 5702SOL     OW17641   1.936   4.034   5.615
 5702SOL    HW117642   1.861   4.036   5.557
 5702SOL    HW217643   1.967   4.125   5.617
 5703SOL     OW17644   1.925   3.877   5.890
 5703SOL    HW117645   1.908   3.953   5.834
 5703SOL    HW217646   2.011   3.845   5.862
 5704SOL     OW17647   2.596   4.277   7.282
 5704SOL    HW117648   2.584   4.321   7.366
 5704SOL    HW217649   2.606   4.184   7.305
 5705SOL     OW17650   3.079   4.041   6.038
 5705SOL    HW117651   3.140   3.968   6.033
 5705SOL    HW217652   3.107   4.090   6.116
 5706SOL     OW17653   3.615   4.094   7.239
 5706SOL    HW117654   3.602   4.106   7.145
 5706SOL    HW217655   3.544   4.035   7.265
 5707SOL     OW17656   2.977   0.222   5.685
 5707SOL    HW117657   2.973   0.266   5.601
 5707SOL    HW217658   3.066   0.188   5.691
 5708SOL     OW17659   3.676   3.904   6.823
 5708SOL    HW117660   3.680   3.810   6.835
 5708SOL    HW217661   3.685   3.917   6.729
 5709SOL     OW17662   2.297   4.162   6.120
 5709SOL    HW117663   2.328   4.092   6.062
 5709SOL    HW217664   2.244   4.118   6.186
 5710SOL     OW17665   2.188   4.265   6.883
 5710SOL    HW117666   2.244   4.208   6.936
 5710SOL    HW217667   2.206   4.240   6.793
 5711SOL     OW17668   3.292   3.951   6.703
 5711SOL    HW117669   3.310   3.867   6.746
 5711SOL    HW217670   3.242   4.000   6.768
 5712SOL     OW17671   2.871   3.740   6.723
 5712SOL    HW117672   2.817   3.675   6.679
 5712SOL    HW217673   2.959   3.702   6.725
 5713SOL     OW17674   3.218   3.775   5.754
 5713SOL    HW117675   3.251   3.705   5.698
 5713SOL    HW217676   3.129   3.749   5.777
 5714SOL     OW17677   3.159   4.174   6.264
 5714SOL    HW117678   3.136   4.266   6.277
 5714SOL    HW217679   3.158   4.135   6.351
 5715SOL     OW17680   3.447   3.920   6.467
 5715SOL    HW117681   3.391   3.946   6.540
 5715SOL    HW217682   3.448   3.997   6.410
 5716SOL     OW17683   2.080   4.278   7.569
 5716SOL    HW117684   2.051   4.362   7.607
 5716SOL    HW217685   2.078   4.293   7.475
 5717SOL     OW17686   2.086   4.002   8.439
 5717SOL    HW117687   2.113   3.967   8.524
 5717SOL    HW217688   1.996   3.971   8.428
 5718SOL     OW17689   1.863   4.099   8.091
 5718SOL    HW117690   1.784   4.133   8.134
 5718SOL    HW217691   1.833   4.022   8.042
 5719SOL     OW17692   3.582   4.335   7.689
 5719SOL    HW117693   3.587   4.327   7.594
 5719SOL    HW217694   3.587   4.245   7.722
 5720SOL     OW17695   2.589   0.280   8.136
 5720SOL    HW117696   2.582   0.215   8.206
 5720SOL    HW217697   2.507   0.273   8.088
 5721SOL     OW17698   2.314   4.107   8.926
 5721SOL    HW117699   2.391   4.051   8.934
 5721SOL    HW217700   2.240   4.051   8.950
 5722SOL     OW17701   3.474   4.167   8.191
 5722SOL    HW117702   3.416   4.195   8.120
 5722SOL    HW217703   3.456   4.228   8.262
 5723SOL     OW17704   3.458   3.850   8.913
 5723SOL    HW117705   3.478   3.931   8.866
 5723SOL    HW217706   3.438   3.880   9.002
 5724SOL     OW17707   1.919   4.387   8.032
 5724SOL    HW117708   1.921   4.291   8.041
 5724SOL    HW217709   2.002   4.416   8.069
 5725SOL     OW17710   1.980   4.481   9.030
 5725SOL    HW117711   2.042   0.003   9.100
 5725SOL    HW217712   1.954   0.066   8.995
 5726SOL     OW17713   2.682   3.728   7.960
 5726SOL    HW117714   2.722   3.812   7.937
 5726SOL    HW217715   2.588   3.747   7.966
 5727SOL     OW17716   2.201   3.971   9.272
 5727SOL    HW117717   2.234   4.060   9.283
 5727SOL    HW217718   2.107   3.978   9.290
 5728SOL     OW17719   3.139   4.081   8.382
 5728SOL    HW117720   3.049   4.048   8.392
 5728SOL    HW217721   3.191   4.027   8.441
 5729SOL     OW17722   2.698   4.294   8.891
 5729SOL    HW117723   2.659   4.298   8.978
 5729SOL    HW217724   2.629   4.260   8.834
 5730SOL     OW17725   3.255   4.200   9.125
 5730SOL    HW117726   3.261   4.245   9.209
 5730SOL    HW217727   3.311   4.123   9.135
 5731SOL     OW17728   2.862   4.157   8.680
 5731SOL    HW117729   2.796   4.183   8.744
 5731SOL    HW217730   2.816   4.101   8.619
 5732SOL     OW17731   2.916   4.414   7.858
 5732SOL    HW117732   2.909   4.463   7.940
 5732SOL    HW217733   2.832   4.369   7.851
 5733SOL     OW17734   2.761   4.067   7.636
 5733SOL    HW117735   2.800   4.131   7.577
 5733SOL    HW217736   2.775   3.983   7.593
 5734SOL     OW17737   3.577   4.302   9.281
 5734SOL    HW117738   3.595   4.387   9.241
 5734SOL    HW217739   3.594   4.239   9.211
 5735SOL     OW17740   2.413   3.900   8.344
 5735SOL    HW117741   2.414   3.929   8.435
 5735SOL    HW217742   2.410   3.981   8.293
 5736SOL     OW17743   3.355   4.470   8.187
 5736SOL    HW117744   3.344   4.413   8.263
 5736SOL    HW217745   3.397   0.049   8.223
 5737SOL     OW17746   2.061   3.994   8.955
 5737SOL    HW117747   1.977   4.041   8.954
 5737SOL    HW217748   2.041   3.910   8.996
 5738SOL     OW17749   3.262   3.829   7.886
 5738SOL    HW117750   3.255   3.804   7.794
 5738SOL    HW217751   3.356   3.838   7.901
 5739SOL     OW17752   2.216   4.392   7.855
 5739SOL    HW117753   2.249   4.312   7.895
 5739SOL    HW217754   2.155   4.427   7.920
 5740SOL     OW17755   3.390   3.949   9.172
 5740SOL    HW117756   3.400   3.970   9.265
 5740SOL    HW217757   3.322   3.882   9.169
 5741SOL     OW17758   2.504   3.842   7.551
 5741SOL    HW117759   2.564   3.770   7.568
 5741SOL    HW217760   2.451   3.812   7.477
 5742SOL     OW17761   2.624   4.001   9.203
 5742SOL    HW117762   2.705   3.950   9.200
 5742SOL    HW217763   2.579   3.971   9.282
 5743SOL     OW17764   3.200   4.315   8.880
 5743SOL    HW117765   3.222   4.277   8.965
 5743SOL    HW217766   3.252   4.394   8.874
 5744SOL     OW17767   2.789   4.231   8.340
 5744SOL    HW117768   2.765   4.214   8.249
 5744SOL    HW217769   2.828   4.149   8.370
 5745SOL     OW17770   2.414   3.788   7.945
 5745SOL    HW117771   2.334   3.787   7.997
 5745SOL    HW217772   2.406   3.865   7.889
 5746SOL     OW17773   2.152   3.772   7.634
 5746SOL    HW117774   2.209   3.836   7.591
 5746SOL    HW217775   2.212   3.710   7.675
 5747SOL     OW17776   2.804   3.974   7.903
 5747SOL    HW117777   2.780   4.010   7.818
 5747SOL    HW217778   2.898   3.989   7.910
 5748SOL     OW17779   2.935   4.392   8.987
 5748SOL    HW117780   2.855   4.361   8.944
 5748SOL    HW217781   3.006   4.363   8.929
 5749SOL     OW17782   2.888   4.260   7.478
 5749SOL    HW117783   2.874   4.347   7.442
 5749SOL    HW217784   2.953   4.273   7.548
 5750SOL     OW17785   1.940   4.281   8.844
 5750SOL    HW117786   2.032   4.273   8.817
 5750SOL    HW217787   1.940   4.355   8.905
 5751SOL     OW17788   2.418   3.950   8.615
 5751SOL    HW117789   2.462   3.880   8.663
 5751SOL    HW217790   2.327   3.947   8.645
 5752SOL     OW17791   2.729   4.188   8.081
 5752SOL    HW117792   2.701   4.249   8.012
 5752SOL    HW217793   2.750   4.107   8.035
 5753SOL     OW17794   2.878   3.778   8.195
 5753SOL    HW117795   2.819   3.771   8.120
 5753SOL    HW217796   2.855   3.703   8.250
 5754SOL     OW17797   3.341   4.305   8.403
 5754SOL    HW117798   3.272   4.241   8.423
 5754SOL    HW217799   3.388   4.315   8.486
 5755SOL     OW17800   3.268   4.296   7.522
 5755SOL    HW117801   3.204   4.266   7.587
 5755SOL    HW217802   3.350   4.255   7.548
 5756SOL     OW17803   2.391   3.989   7.762
 5756SOL    HW117804   2.436   3.941   7.693
 5756SOL    HW217805   2.371   4.074   7.723
 5757SOL     OW17806   2.781   3.818   8.839
 5757SOL    HW117807   2.804   3.798   8.749
 5757SOL    HW217808   2.860   3.857   8.877
 5758SOL     OW17809   2.302   0.011   8.739
 5758SOL    HW117810   2.373   4.496   8.802
 5758SOL    HW217811   2.257   4.426   8.734
 5759SOL     OW17812   3.126   4.098   8.728
 5759SOL    HW117813   3.159   4.176   8.773
 5759SOL    HW217814   3.037   4.121   8.701
 5760SOL     OW17815   2.414   4.246   8.312
 5760SOL    HW117816   2.432   4.279   8.224
 5760SOL    HW217817   2.480   4.287   8.367
 5761SOL     OW17818   3.426   4.332   7.935
 5761SOL    HW117819   3.407   4.397   8.002
 5761SOL    HW217820   3.487   4.375   7.875
 5762SOL     OW17821   2.857   3.856   9.204
 5762SOL    HW117822   2.916   3.928   9.182
 5762SOL    HW217823   2.905   3.777   9.177
 5763SOL     OW17824   2.359   3.760   9.198
 5763SOL    HW117825   2.312   3.707   9.134
 5763SOL    HW217826   2.302   3.836   9.213
 5764SOL     OW17827   3.068   4.251   7.707
 5764SOL    HW117828   3.078   4.172   7.760
 5764SOL    HW217829   3.021   4.312   7.764
 5765SOL     OW17830   2.158   3.920   8.695
 5765SOL    HW117831   2.121   3.952   8.778
 5765SOL    HW217832   2.140   3.826   8.696
 5766SOL     OW17833   2.598   4.361   8.481
 5766SOL    HW117834   2.671   4.321   8.434
 5766SOL    HW217835   2.615   4.455   8.478
 5767SOL     OW17836   3.617   0.127   9.297
 5767SOL    HW117837   3.543   0.147   9.238
 5767SOL    HW217838   3.581   0.139   9.385
 5768SOL     OW17839   2.170   3.787   8.072
 5768SOL    HW117840   2.146   3.877   8.093
 5768SOL    HW217841   2.177   3.743   8.157
 5769SOL     OW17842   3.478   4.091   7.812
 5769SOL    HW117843   3.511   4.029   7.878
 5769SOL    HW217844   3.450   4.167   7.863
 5770SOL     OW17845   3.383   3.999   7.574
 5770SOL    HW117846   3.322   3.931   7.600
 5770SOL    HW217847   3.421   4.031   7.656
 5771SOL     OW17848   2.184   0.012   8.364
 5771SOL    HW117849   2.259   0.070   8.376
 5771SOL    HW217850   2.200   4.439   8.424
 5772SOL     OW17851   2.199   4.241   8.472
 5772SOL    HW117852   2.158   4.157   8.454
 5772SOL    HW217853   2.273   4.245   8.413
 5773SOL     OW17854   3.000   4.089   9.137
 5773SOL    HW117855   2.945   4.148   9.189
 5773SOL    HW217856   3.083   4.135   9.128
 5774SOL     OW17857   3.023   3.922   8.918
 5774SOL    HW117858   3.012   3.982   8.991
 5774SOL    HW217859   3.065   3.974   8.850
 5775SOL     OW17860   1.898   4.278   8.565
 5775SOL    HW117861   1.978   4.268   8.514
 5775SOL    HW217862   1.926   4.277   8.656
 5776SOL     OW17863   2.061   4.247   9.162
 5776SOL    HW117864   2.108   4.192   9.099
 5776SOL    HW217865   2.010   4.308   9.107
 5777SOL     OW17866   2.682   4.274   7.809
 5777SOL    HW117867   2.691   4.203   7.746
 5777SOL    HW217868   2.596   4.311   7.792
 5778SOL     OW17869   3.494   4.312   8.629
 5778SOL    HW117870   3.492   4.256   8.706
 5778SOL    HW217871   3.584   4.304   8.595
 5779SOL     OW17872   2.548   4.185   8.693
 5779SOL    HW117873   2.501   4.108   8.664
 5779SOL    HW217874   2.550   4.243   8.617
 5780SOL     OW17875   2.339   4.225   7.638
 5780SOL    HW117876   2.363   4.312   7.671
 5780SOL    HW217877   2.246   4.231   7.619
 5781SOL     OW17878   3.587   3.876   7.957
 5781SOL    HW117879   3.657   3.860   7.894
 5781SOL    HW217880   3.569   3.790   7.995
 5782SOL     OW17881   3.141   0.134   8.125
 5782SOL    HW117882   3.199   0.062   8.150
 5782SOL    HW217883   3.189   0.181   8.057
 5783SOL     OW17884   3.704   3.894   8.415
 5783SOL    HW117885   3.733   3.806   8.389
 5783SOL    HW217886   3.617   3.903   8.374
 5784SOL     OW17887   2.122   4.040   8.164
 5784SOL    HW117888   2.033   4.068   8.140
 5784SOL    HW217889   2.119   4.030   8.259
 5785SOL     OW17890   2.764   0.087   7.650
 5785SOL    HW117891   2.844   0.124   7.613
 5785SOL    HW217892   2.789   0.060   7.738
 5786SOL     OW17893   2.928   0.289   8.200
 5786SOL    HW117894   2.862   0.291   8.130
 5786SOL    HW217895   2.994   0.227   8.169
 5787SOL     OW17896   2.885   3.964   8.410
 5787SOL    HW117897   2.881   3.915   8.328
 5787SOL    HW217898   2.880   3.898   8.478
 5788SOL     OW17899   3.588   4.113   8.829
 5788SOL    HW117900   3.659   4.178   8.827
 5788SOL    HW217901   3.618   4.043   8.771
 5789SOL     OW17902   2.538   3.917   8.947
 5789SOL    HW117903   2.623   3.897   8.907
 5789SOL    HW217904   2.561   3.951   9.034
 5790SOL     OW17905   1.937   4.034   7.477
 5790SOL    HW117906   1.860   4.036   7.421
 5790SOL    HW217907   1.968   4.124   7.479
 5791SOL     OW17908   1.925   3.877   7.752
 5791SOL    HW117909   1.909   3.953   7.696
 5791SOL    HW217910   2.010   3.844   7.723
 5792SOL     OW17911   2.596   4.277   9.144
 5792SOL    HW117912   2.583   4.321   9.228
 5792SOL    HW217913   2.606   4.184   9.167
 5793SOL     OW17914   3.079   4.041   7.901
 5793SOL    HW117915   3.140   3.968   7.895
 5793SOL    HW217916   3.107   4.090   7.978
 5794SOL     OW17917   3.615   4.093   9.101
 5794SOL    HW117918   3.603   4.106   9.007
 5794SOL    HW217919   3.544   4.035   9.127
 5795SOL     OW17920   2.977   0.222   7.547
 5795SOL    HW117921   2.972   0.265   7.462
 5795SOL    HW217922   3.066   0.188   7.553
 5796SOL     OW17923   3.675   3.904   8.685
 5796SOL    HW117924   3.681   3.810   8.697
 5796SOL    HW217925   3.685   3.917   8.591
 5797SOL     OW17926   2.298   4.162   7.982
 5797SOL    HW117927   2.327   4.092   7.924
 5797SOL    HW217928   2.244   4.119   8.048
 5798SOL     OW17929   2.188   4.265   8.745
 5798SOL    HW117930   2.244   4.208   8.798
 5798SOL    HW217931   2.206   4.240   8.655
 5799SOL     OW17932   3.292   3.951   8.565
 5799SOL    HW117933   3.311   3.868   8.609
 5799SOL    HW217934   3.242   4.001   8.630
 5800SOL     OW17935   2.871   3.741   8.585
 5800SOL    HW117936   2.817   3.675   8.541
 5800SOL    HW217937   2.959   3.702   8.587
 5801SOL     OW17938   3.218   3.776   7.617
 5801SOL    HW117939   3.250   3.706   7.560
 5801SOL    HW217940   3.129   3.749   7.640
 5802SOL     OW17941   3.159   4.174   8.126
 5802SOL    HW117942   3.136   4.266   8.139
 5802SOL    HW217943   3.158   4.135   8.213
 5803SOL     OW17944   3.447   3.920   8.329
 5803SOL    HW117945   3.391   3.946   8.402
 5803SOL    HW217946   3.447   3.997   8.272
 5804SOL     OW17947   2.080   4.278   9.431
 5804SOL    HW117948   2.051   4.361   9.469
 5804SOL    HW217949   2.078   4.293   9.336
 5805SOL     OW17950   2.086   4.001  10.300
 5805SOL    HW117951   2.113   3.968  10.386
 5805SOL    HW217952   1.996   3.971  10.290
 5806SOL     OW17953   1.863   4.099   9.952
 5806SOL    HW117954   1.784   4.133   9.996
 5806SOL    HW217955   1.833   4.022   9.904
 5807SOL     OW17956   3.581   4.335   9.551
 5807SOL    HW117957   3.587   4.327   9.456
 5807SOL    HW217958   3.587   4.245   9.584
 5808SOL     OW17959   2.589   0.280   9.998
 5808SOL    HW117960   2.581   0.216  10.069
 5808SOL    HW217961   2.507   0.273   9.950
 5809SOL     OW17962   2.320   4.111  10.785
 5809SOL    HW117963   2.390   4.046  10.791
 5809SOL    HW217964   2.242   4.065  10.814
 5810SOL     OW17965   3.474   4.167  10.053
 5810SOL    HW117966   3.416   4.195   9.982
 5810SOL    HW217967   3.457   4.229  10.124
 5811SOL     OW17968   3.453   3.843  10.775
 5811SOL    HW117969   3.478   3.923  10.729
 5811SOL    HW217970   3.457   3.867  10.868
 5812SOL     OW17971   1.919   4.386   9.894
 5812SOL    HW117972   1.921   4.291   9.903
 5812SOL    HW217973   2.002   4.416   9.932
 5813SOL     OW17974   2.002   4.463  10.903
 5813SOL    HW117975   2.098   4.463  10.901
 5813SOL    HW217976   1.977   0.055  10.895
 5814SOL     OW17977   2.681   3.728   9.823
 5814SOL    HW117978   2.722   3.812   9.799
 5814SOL    HW217979   2.588   3.747   9.828
 5815SOL     OW17980   2.213   3.974   0.025
 5815SOL    HW117981   2.253   4.059   0.042
 5815SOL    HW217982   2.119   3.991   0.032
 5816SOL     OW17983   3.139   4.082  10.245
 5816SOL    HW117984   3.050   4.048  10.254
 5816SOL    HW217985   3.191   4.027  10.303
 5817SOL     OW17986   2.689   4.297  10.760
 5817SOL    HW117987   2.640   4.310  10.842
 5817SOL    HW217988   2.625   4.260  10.700
 5818SOL     OW17989   2.863   4.156  10.543
 5818SOL    HW117990   2.791   4.180  10.601
 5818SOL    HW217991   2.822   4.101  10.475
 5819SOL     OW17992   2.916   4.414   9.720
 5819SOL    HW117993   2.909   4.463   9.802
 5819SOL    HW217994   2.832   4.369   9.713
 5820SOL     OW17995   2.761   4.067   9.498
 5820SOL    HW117996   2.800   4.131   9.439
 5820SOL    HW217997   2.775   3.983   9.455
 5821SOL     OW17998   2.413   3.900  10.207
 5821SOL    HW117999   2.414   3.929  10.298
 5821SOL    HW218000   2.410   3.981  10.156
 5822SOL     OW18001   3.355   4.470  10.050
 5822SOL    HW118002   3.344   4.413  10.125
 5822SOL    HW218003   3.397   0.049  10.085
 5823SOL     OW18004   2.067   3.994  10.810
 5823SOL    HW118005   1.990   4.050  10.819
 5823SOL    HW218006   2.048   3.917  10.864
 5824SOL     OW18007   3.262   3.828   9.748
 5824SOL    HW118008   3.255   3.804   9.656
 5824SOL    HW218009   3.356   3.838   9.763
 5825SOL     OW18010   2.215   4.392   9.717
 5825SOL    HW118011   2.249   4.312   9.757
 5825SOL    HW218012   2.155   4.428   9.782
 5826SOL     OW18013   2.504   3.842   9.413
 5826SOL    HW118014   2.565   3.770   9.430
 5826SOL    HW218015   2.451   3.812   9.339
 5827SOL     OW18016   2.622   4.012  11.047
 5827SOL    HW118017   2.691   3.954  11.078
 5827SOL    HW218018   2.559   4.015   0.019
 5828SOL     OW18019   3.210   4.314  10.742
 5828SOL    HW118020   3.221   4.300  10.836
 5828SOL    HW218021   3.252   4.399  10.725
 5829SOL     OW18022   2.790   4.231  10.202
 5829SOL    HW118023   2.765   4.215  10.111
 5829SOL    HW218024   2.827   4.148  10.232
 5830SOL     OW18025   2.414   3.788   9.807
 5830SOL    HW118026   2.334   3.787   9.859
 5830SOL    HW218027   2.406   3.865   9.751
 5831SOL     OW18028   2.152   3.772   9.496
 5831SOL    HW118029   2.209   3.836   9.453
 5831SOL    HW218030   2.212   3.710   9.537
 5832SOL     OW18031   2.804   3.974   9.765
 5832SOL    HW118032   2.779   4.010   9.680
 5832SOL    HW218033   2.898   3.989   9.771
 5833SOL     OW18034   2.939   4.352  10.857
 5833SOL    HW118035   2.853   4.349  10.816
 5833SOL    HW218036   3.001   4.356  10.783
 5834SOL     OW18037   2.888   4.260   9.340
 5834SOL    HW118038   2.873   4.347   9.304
 5834SOL    HW218039   2.953   4.273   9.410
 5835SOL     OW18040   1.938   4.277  10.712
 5835SOL    HW118041   2.028   4.268  10.682
 5835SOL    HW218042   1.942   4.339  10.784
 5836SOL     OW18043   2.418   3.951  10.477
 5836SOL    HW118044   2.460   3.880  10.526
 5836SOL    HW218045   2.327   3.949  10.506
 5837SOL     OW18046   2.729   4.188   9.943
 5837SOL    HW118047   2.701   4.249   9.875
 5837SOL    HW218048   2.750   4.107   9.897
 5838SOL     OW18049   2.877   3.778  10.058
 5838SOL    HW118050   2.819   3.772   9.982
 5838SOL    HW218051   2.855   3.703  10.112
 5839SOL     OW18052   3.341   4.305  10.266
 5839SOL    HW118053   3.273   4.241  10.285
 5839SOL    HW218054   3.388   4.315  10.348
 5840SOL     OW18055   3.268   4.296   9.384
 5840SOL    HW118056   3.204   4.266   9.449
 5840SOL    HW218057   3.350   4.256   9.410
 5841SOL     OW18058   2.391   3.989   9.624
 5841SOL    HW118059   2.436   3.941   9.555
 5841SOL    HW218060   2.371   4.074   9.585
 5842SOL     OW18061   2.781   3.822  10.698
 5842SOL    HW118062   2.805   3.802  10.608
 5842SOL    HW218063   2.860   3.861  10.736
 5843SOL     OW18064   2.304   0.008  10.588
 5843SOL    HW118065   2.357   0.004  10.668
 5843SOL    HW218066   2.255   4.425  10.589
 5844SOL     OW18067   3.127   4.097  10.592
 5844SOL    HW118068   3.163   4.175  10.636
 5844SOL    HW218069   3.039   4.123  10.566
 5845SOL     OW18070   2.414   4.244  10.174
 5845SOL    HW118071   2.432   4.279  10.086
 5845SOL    HW218072   2.479   4.286  10.230
 5846SOL     OW18073   3.426   4.331   9.797
 5846SOL    HW118074   3.408   4.397   9.864
 5846SOL    HW218075   3.487   4.375   9.737
 5847SOL     OW18076   2.277   4.461  10.901
 5847SOL    HW118077   2.340   0.033  10.895
 5847SOL    HW218078   2.330   4.383  10.916
 5848SOL     OW18079   3.068   4.251   9.569
 5848SOL    HW118080   3.078   4.172   9.622
 5848SOL    HW218081   3.021   4.312   9.626
 5849SOL     OW18082   2.158   3.921  10.556
 5849SOL    HW118083   2.124   3.954  10.639
 5849SOL    HW218084   2.140   3.827  10.557
 5850SOL     OW18085   2.597   4.361  10.343
 5850SOL    HW118086   2.671   4.322  10.295
 5850SOL    HW218087   2.613   4.455  10.339
 5851SOL     OW18088   2.170   3.787   9.934
 5851SOL    HW118089   2.146   3.877   9.955
 5851SOL    HW218090   2.177   3.743  10.019
 5852SOL     OW18091   3.478   4.090   9.674
 5852SOL    HW118092   3.511   4.029   9.740
 5852SOL    HW218093   3.450   4.167   9.725
 5853SOL     OW18094   3.383   3.999   9.436
 5853SOL    HW118095   3.322   3.931   9.462
 5853SOL    HW218096   3.421   4.031   9.518
 5854SOL     OW18097   2.185   0.012  10.225
 5854SOL    HW118098   2.259   0.070  10.239
 5854SOL    HW218099   2.199   4.440  10.287
 5855SOL     OW18100   2.198   4.241  10.333
 5855SOL    HW118101   2.157   4.156  10.315
 5855SOL    HW218102   2.273   4.244  10.274
 5856SOL     OW18103   3.020   3.926  10.784
 5856SOL    HW118104   3.027   3.987  10.858
 5856SOL    HW218105   3.062   3.973  10.712
 5857SOL     OW18106   1.898   4.282  10.430
 5857SOL    HW118107   1.979   4.269  10.381
 5857SOL    HW218108   1.926   4.278  10.522
 5858SOL     OW18109   3.201   0.210  10.976
 5858SOL    HW118110   3.269   0.253  11.029
 5858SOL    HW218111   3.250   0.165  10.907
 5859SOL     OW18112   2.682   4.274   9.671
 5859SOL    HW118113   2.691   4.203   9.607
 5859SOL    HW218114   2.596   4.312   9.655
 5860SOL     OW18115   3.494   4.312  10.493
 5860SOL    HW118116   3.493   4.253  10.568
 5860SOL    HW218117   3.583   4.306  10.459
 5861SOL     OW18118   2.557   4.181  10.554
 5861SOL    HW118119   2.504   4.107  10.527
 5861SOL    HW218120   2.553   4.242  10.480
 5862SOL     OW18121   2.339   4.225   9.500
 5862SOL    HW118122   2.362   4.312   9.534
 5862SOL    HW218123   2.246   4.231   9.481
 5863SOL     OW18124   3.587   3.876   9.819
 5863SOL    HW118125   3.657   3.860   9.756
 5863SOL    HW218126   3.569   3.790   9.857
 5864SOL     OW18127   3.141   0.133   9.987
 5864SOL    HW118128   3.200   0.062  10.012
 5864SOL    HW218129   3.189   0.181   9.919
 5865SOL     OW18130   3.704   3.894  10.277
 5865SOL    HW118131   3.733   3.807  10.251
 5865SOL    HW218132   3.617   3.903  10.236
 5866SOL     OW18133   2.122   4.039  10.025
 5866SOL    HW118134   2.033   4.068  10.001
 5866SOL    HW218135   2.119   4.030  10.120
 5867SOL     OW18136   2.764   0.087   9.512
 5867SOL    HW118137   2.844   0.124   9.475
 5867SOL    HW218138   2.789   0.060   9.600
 5868SOL     OW18139   2.928   0.289  10.062
 5868SOL    HW118140   2.862   0.291   9.992
 5868SOL    HW218141   2.994   0.227  10.031
 5869SOL     OW18142   2.885   3.965  10.273
 5869SOL    HW118143   2.881   3.916  10.191
 5869SOL    HW218144   2.880   3.898  10.341
 5870SOL     OW18145   3.582   4.114  10.695
 5870SOL    HW118146   3.654   4.176  10.698
 5870SOL    HW218147   3.613   4.044  10.636
 5871SOL     OW18148   2.539   3.914  10.802
 5871SOL    HW118149   2.622   3.893  10.759
 5871SOL    HW218150   2.564   3.957  10.884
 5872SOL     OW18151   1.937   4.034   9.339
 5872SOL    HW118152   1.860   4.036   9.282
 5872SOL    HW218153   1.968   4.124   9.341
 5873SOL     OW18154   1.925   3.877   9.614
 5873SOL    HW118155   1.909   3.953   9.558
 5873SOL    HW218156   2.010   3.844   9.585
 5874SOL     OW18157   2.584   4.299  11.020
 5874SOL    HW118158   2.640   4.340  11.086
 5874SOL    HW218159   2.606   4.206  11.024
 5875SOL     OW18160   3.079   4.041   9.763
 5875SOL    HW118161   3.140   3.968   9.757
 5875SOL    HW218162   3.106   4.090   9.840
 5876SOL     OW18163   3.611   4.055  10.967
 5876SOL    HW118164   3.589   4.084  10.879
 5876SOL    HW218165   3.529   4.062  11.016
 5877SOL     OW18166   2.977   0.222   9.409
 5877SOL    HW118167   2.972   0.266   9.324
 5877SOL    HW218168   3.066   0.188   9.415
 5878SOL     OW18169   3.668   3.905  10.548
 5878SOL    HW118170   3.677   3.810  10.559
 5878SOL    HW218171   3.681   3.919  10.454
 5879SOL     OW18172   2.298   4.162   9.844
 5879SOL    HW118173   2.327   4.091   9.786
 5879SOL    HW218174   2.244   4.119   9.910
 5880SOL     OW18175   2.184   4.264  10.606
 5880SOL    HW118176   2.242   4.209  10.659
 5880SOL    HW218177   2.204   4.238  10.516
 5881SOL     OW18178   3.292   3.950  10.427
 5881SOL    HW118179   3.315   3.868  10.471
 5881SOL    HW218180   3.242   3.999  10.493
 5882SOL     OW18181   2.871   3.741  10.447
 5882SOL    HW118182   2.817   3.676  10.401
 5882SOL    HW218183   2.958   3.702  10.448
 5883SOL     OW18184   3.218   3.776   9.479
 5883SOL    HW118185   3.250   3.706   9.422
 5883SOL    HW218186   3.129   3.749   9.502
 5884SOL     OW18187   3.159   4.174   9.988
 5884SOL    HW118188   3.136   4.266  10.001
 5884SOL    HW218189   3.157   4.136  10.076
 5885SOL     OW18190   3.447   3.920  10.191
 5885SOL    HW118191   3.391   3.945  10.264
 5885SOL    HW218192   3.448   3.997  10.134
 5886SOL     OW18193   3.928   0.603   0.103
 5886SOL    HW118194   3.851   0.618   0.157
 5886SOL    HW218195   3.912   0.656   0.024
 5887SOL     OW18196   3.926   0.311   0.990
 5887SOL    HW118197   3.962   0.277   1.072
 5887SOL    HW218198   3.847   0.258   0.976
 5888SOL     OW18199   3.727   0.392   0.635
 5888SOL    HW118200   3.641   0.409   0.673
 5888SOL    HW218201   3.712   0.320   0.574
 5889SOL     OW18202   4.265   1.232   1.147
 5889SOL    HW118203   4.204   1.302   1.123
 5889SOL    HW218204   4.337   1.277   1.189
 5890SOL     OW18205   0.015   0.773   1.857
 5890SOL    HW118206   0.063   0.808   1.932
 5890SOL    HW218207   0.054   0.817   1.781
 5891SOL     OW18208   4.397   0.983   0.625
 5891SOL    HW118209   4.478   0.992   0.676
 5891SOL    HW218210   4.336   1.044   0.668
 5892SOL     OW18211   4.418   1.156   1.809
 5892SOL    HW118212   4.454   1.236   1.772
 5892SOL    HW218213   4.324   1.161   1.791
 5893SOL     OW18214   4.064   1.429   1.068
 5893SOL    HW118215   3.992   1.383   1.026
 5893SOL    HW218216   4.106   1.478   0.997
 5894SOL     OW18217   4.161   0.394   1.478
 5894SOL    HW118218   4.240   0.340   1.481
 5894SOL    HW218219   4.090   0.333   1.493
 5895SOL     OW18220   3.940   1.715   0.472
 5895SOL    HW118221   3.959   1.791   0.527
 5895SOL    HW218222   4.014   1.710   0.411
 5896SOL     OW18223   3.950   1.444   0.532
 5896SOL    HW118224   3.933   1.538   0.534
 5896SOL    HW218225   3.894   1.407   0.600
 5897SOL     OW18226   3.980   1.089   0.886
 5897SOL    HW118227   3.984   1.003   0.928
 5897SOL    HW218228   3.930   1.143   0.946
 5898SOL     OW18229   4.359   1.795   1.459
 5898SOL    HW118230   4.270   1.767   1.478
 5898SOL    HW218231   4.354   1.891   1.458
 5899SOL     OW18232   4.293   1.014   0.141
 5899SOL    HW118233   4.303   1.088   0.081
 5899SOL    HW218234   4.376   1.009   0.188
 5900SOL     OW18235   3.839   0.654   0.562
 5900SOL    HW118236   3.807   0.567   0.585
 5900SOL    HW218237   3.831   0.705   0.642
 5901SOL     OW18238   3.777   1.596   0.118
 5901SOL    HW118239   3.749   1.509   0.145
 5901SOL    HW218240   3.749   1.654   0.188
 5902SOL     OW18241   3.844   0.746   1.582
 5902SOL    HW118242   3.934   0.778   1.587
 5902SOL    HW218243   3.790   0.826   1.583
 5903SOL     OW18244   4.304   1.389   0.738
 5903SOL    HW118245   4.270   1.300   0.739
 5903SOL    HW218246   4.309   1.412   0.645
 5904SOL     OW18247   0.012   0.001   0.488
 5904SOL    HW118248   0.046   0.068   0.429
 5904SOL    HW218249   4.427   0.033   0.517
 5905SOL     OW18250   3.909   0.960   1.279
 5905SOL    HW118251   3.996   0.923   1.262
 5905SOL    HW218252   3.852   0.914   1.218
 5906SOL     OW18253   4.039   0.248   1.783
 5906SOL    HW118254   4.100   0.316   1.812
 5906SOL    HW218255   3.965   0.255   1.843
 5907SOL     OW18256   4.306   0.707   0.265
 5907SOL    HW118257   4.334   0.789   0.224
 5907SOL    HW218258   4.249   0.735   0.337
 5908SOL     OW18259   3.812   0.824   0.775
 5908SOL    HW118260   3.892   0.815   0.827
 5908SOL    HW218261   3.768   0.901   0.811
 5909SOL     OW18262   3.853   1.865   1.582
 5909SOL    HW118263   3.856   1.842   1.675
 5909SOL    HW218264   3.766   1.836   1.553
 5910SOL     OW18265   4.233   0.207   0.898
 5910SOL    HW118266   4.276   0.220   0.982
 5910SOL    HW218267   4.258   0.283   0.846
 5911SOL     OW18268   4.083   1.818   0.870
 5911SOL    HW118269   4.136   1.739   0.877
 5911SOL    HW218270   4.146   1.890   0.879
 5912SOL     OW18271   4.039   0.966   0.279
 5912SOL    HW118272   4.120   0.988   0.233
 5912SOL    HW218273   4.017   0.878   0.248
 5913SOL     OW18274   4.176   1.250   1.734
 5913SOL    HW118275   4.150   1.264   1.642
 5913SOL    HW218276   4.095   1.260   1.783
 5914SOL     OW18277   3.909   0.269   1.519
 5914SOL    HW118278   3.845   0.339   1.508
 5914SOL    HW218279   3.931   0.271   1.612
 5915SOL     OW18280   4.188   1.728   0.327
 5915SOL    HW118281   4.224   1.793   0.388
 5915SOL    HW218282   4.261   1.708   0.268
 5916SOL     OW18283   3.980   1.792   1.228
 5916SOL    HW118284   4.025   1.718   1.268
 5916SOL    HW218285   3.967   1.767   1.137
 5917SOL     OW18286   4.109   0.691   0.472
 5917SOL    HW118287   4.134   0.600   0.488
 5917SOL    HW218288   4.017   0.696   0.497
 5918SOL     OW18289   4.347   0.128   0.108
 5918SOL    HW118290   4.433   0.102   0.142
 5918SOL    HW218291   4.334   0.072   0.032
 5919SOL     OW18292   0.026   1.416   0.903
 5919SOL    HW118293   0.067   1.483   0.848
 5919SOL    HW218294   4.448   1.389   0.853
 5920SOL     OW18295   4.276   0.115   0.542
 5920SOL    HW118296   4.193   0.082   0.576
 5920SOL    HW218297   4.252   0.161   0.461
 5921SOL     OW18298   4.006   0.051   0.205
 5921SOL    HW118299   4.073   0.105   0.164
 5921SOL    HW218300   4.052   0.003   0.274
 5922SOL     OW18301   0.325   0.672   1.463
 5922SOL    HW118302   0.288   0.601   1.411
 5922SOL    HW218303   0.413   0.642   1.486
 5923SOL     OW18304   4.194   1.143   0.728
 5923SOL    HW118305   4.128   1.123   0.795
 5923SOL    HW218306   4.146   1.135   0.645
 5924SOL     OW18307   3.811   0.547   1.397
 5924SOL    HW118308   3.901   0.553   1.365
 5924SOL    HW218309   3.803   0.619   1.460
 5925SOL     OW18310   4.297   0.241   1.160
 5925SOL    HW118311   4.301   0.150   1.191
 5925SOL    HW218312   4.213   0.273   1.192
 5926SOL     OW18313   4.240   1.392   0.194
 5926SOL    HW118314   4.155   1.382   0.236
 5926SOL    HW218315   4.225   1.368   0.103
 5927SOL     OW18316   4.234   0.265   0.316
 5927SOL    HW118317   4.280   0.213   0.250
 5927SOL    HW218318   4.212   0.347   0.271
 5928SOL     OW18319   4.145   0.817   1.253
 5928SOL    HW118320   4.214   0.823   1.319
 5928SOL    HW218321   4.110   0.729   1.263
 5929SOL     OW18322   3.797   1.574   1.357
 5929SOL    HW118323   3.765   1.643   1.299
 5929SOL    HW218324   3.892   1.576   1.347
 5930SOL     OW18325   4.051   1.130   0.497
 5930SOL    HW118326   4.054   1.203   0.436
 5930SOL    HW218327   4.052   1.052   0.441
 5931SOL     OW18328   4.310   0.533   0.863
 5931SOL    HW118329   4.306   0.601   0.796
 5931SOL    HW218330   4.374   0.566   0.926
 5932SOL     OW18331   4.071   1.539   1.312
 5932SOL    HW118332   4.069   1.494   1.228
 5932SOL    HW218333   4.164   1.539   1.337
 5933SOL     OW18334   4.145   0.736   1.609
 5933SOL    HW118335   4.200   0.781   1.546
 5933SOL    HW218336   4.195   0.659   1.635
 5934SOL     OW18337   4.245   0.074   1.720
 5934SOL    HW118338   4.215   4.484   1.705
 5934SOL    HW218339   4.165   0.124   1.734
 5935SOL     OW18340   4.283   0.901   1.026
 5935SOL    HW118341   4.306   0.993   1.041
 5935SOL    HW218342   4.242   0.873   1.107
 5936SOL     OW18343   4.014   0.236   1.241
 5936SOL    HW118344   3.965   0.247   1.323
 5936SOL    HW218345   4.058   0.152   1.250
 5937SOL     OW18346   3.771   1.312   1.275
 5937SOL    HW118347   3.802   1.255   1.346
 5937SOL    HW218348   3.775   1.400   1.311
 5938SOL     OW18349   4.020   0.052   0.651
 5938SOL    HW118350   4.003   0.146   0.654
 5938SOL    HW218351   4.028   0.027   0.743
 5939SOL     OW18352   4.075   0.914   1.808
 5939SOL    HW118353   4.155   0.928   1.859
 5939SOL    HW218354   4.099   0.848   1.743
 5940SOL     OW18355   4.030   0.809   0.944
 5940SOL    HW118356   4.121   0.840   0.948
 5940SOL    HW218357   4.035   0.718   0.974
 5941SOL     OW18358   4.075   0.536   1.010
 5941SOL    HW118359   4.028   0.454   0.990
 5941SOL    HW218360   4.154   0.531   0.957
 5942SOL     OW18361   3.734   1.325   0.193
 5942SOL    HW118362   3.647   1.338   0.154
 5942SOL    HW218363   3.733   1.236   0.226
 5943SOL     OW18364   3.818   1.783   0.943
 5943SOL    HW118365   3.787   1.706   0.896
 5943SOL    HW218366   3.907   1.797   0.910
 5944SOL     OW18367   4.233   1.588   0.906
 5944SOL    HW118368   4.320   1.610   0.941
 5944SOL    HW218369   4.250   1.520   0.841
 5945SOL     OW18370   3.755   0.545   1.118
 5945SOL    HW118371   3.826   0.515   1.062
 5945SOL    HW218372   3.793   0.548   1.206
 5946SOL     OW18373   3.909   0.523   1.725
 5946SOL    HW118374   3.990   0.510   1.675
 5946SOL    HW218375   3.867   0.598   1.683
 5947SOL     OW18376   0.021   0.534   0.261
 5947SOL    HW118377   0.030   0.511   0.354
 5947SOL    HW218378   4.453   0.601   0.260
 5948SOL     OW18379   3.965   1.552   1.723
 5948SOL    HW118380   3.940   1.617   1.789
 5948SOL    HW218381   3.966   1.469   1.770
 5949SOL     OW18382   4.175   0.486   0.165
 5949SOL    HW118383   4.232   0.556   0.198
 5949SOL    HW218384   4.091   0.528   0.151
 5950SOL     OW18385   3.865   1.141   1.474
 5950SOL    HW118386   3.867   1.094   1.557
 5950SOL    HW218387   3.882   1.074   1.408
 5951SOL     OW18388   3.812   1.270   1.011
 5951SOL    HW118389   3.794   1.282   1.104
 5951SOL    HW218390   3.742   1.213   0.980
 5952SOL     OW18391   4.389   1.653   1.695
 5952SOL    HW118392   4.355   1.732   1.737
 5952SOL    HW218393   4.401   1.677   1.603
 5953SOL     OW18394   3.865   1.795   1.843
 5953SOL    HW118395   3.814   1.730   1.891
 5953SOL    HW218396   3.911   1.845   1.911
 5954SOL     OW18397   3.983   0.321   0.712
 5954SOL    HW118398   3.897   0.355   0.689
 5954SOL    HW218399   3.982   0.314   0.807
 5955SOL     OW18400   4.084   1.311   1.490
 5955SOL    HW118401   4.064   1.385   1.432
 5955SOL    HW218402   4.012   1.249   1.475
 5956SOL     OW18403   4.325   1.491   0.481
 5956SOL    HW118404   4.340   1.436   0.404
 5956SOL    HW218405   4.254   1.550   0.455
 5957SOL     OW18406   3.993   1.339   0.291
 5957SOL    HW118407   3.907   1.338   0.249
 5957SOL    HW218408   3.979   1.381   0.376
 5958SOL     OW18409   3.838   1.033   1.725
 5958SOL    HW118410   3.761   1.005   1.775
 5958SOL    HW218411   3.911   0.989   1.767
 5959SOL     OW18412   4.363   0.204   1.491
 5959SOL    HW118413   4.455   0.228   1.484
 5959SOL    HW218414   4.355   0.163   1.577
 5960SOL     OW18415   3.798   0.332   0.059
 5960SOL    HW118416   3.729   0.316  11.095
 5960SOL    HW218417   3.812   0.427   0.055
 5961SOL     OW18418   3.786   0.189   0.315
 5961SOL    HW118419   3.781   0.249   0.241
 5961SOL    HW218420   3.857   0.129   0.292
 5962SOL     OW18421   4.344   0.841   1.442
 5962SOL    HW118422   4.374   0.929   1.419
 5962SOL    HW218423   4.422   0.797   1.476
 5963SOL     OW18424   4.384   0.564   1.731
 5963SOL    HW118425   4.411   0.636   1.789
 5963SOL    HW218426   4.467   0.527   1.701
 5964SOL     OW18427   4.104   1.741   1.561
 5964SOL    HW118428   4.021   1.786   1.546
 5964SOL    HW218429   4.079   1.660   1.607
 5965SOL     OW18430   4.307   0.725   0.669
 5965SOL    HW118431   4.347   0.811   0.657
 5965SOL    HW218432   4.238   0.721   0.603
 5966SOL     OW18433   3.940   1.305   1.852
 5966SOL    HW118434   3.880   1.238   1.820
 5966SOL    HW218435   3.918   1.316   1.945
 5967SOL     OW18436   3.814   1.229   0.667
 5967SOL    HW118437   3.825   1.183   0.750
 5967SOL    HW218438   3.883   1.194   0.611
 5968SOL     OW18439   4.427   1.387   1.676
 5968SOL    HW118440   4.338   1.359   1.657
 5968SOL    HW218441   4.422   1.482   1.684
 5969SOL     OW18442   4.165   0.433   0.533
 5969SOL    HW118443   4.183   0.364   0.470
 5969SOL    HW218444   4.107   0.392   0.598
 5970SOL     OW18445   4.056   0.561   1.288
 5970SOL    HW118446   4.108   0.502   1.343
 5970SOL    HW218447   4.077   0.534   1.198
 5971SOL     OW18448   0.034   1.609   0.689
 5971SOL    HW118449   0.064   1.676   0.628
 5971SOL    HW218450   4.467   1.561   0.640
 5972SOL     OW18451   3.765   1.067   0.301
 5972SOL    HW118452   3.860   1.063   0.298
 5972SOL    HW218453   3.737   0.979   0.325
 5973SOL     OW18454   3.949   0.625   1.986
 5973SOL    HW118455   3.863   0.617   2.027
 5973SOL    HW218456   3.934   0.597   1.896
 5974SOL     OW18457   3.925   0.311   2.852
 5974SOL    HW118458   3.962   0.277   2.934
 5974SOL    HW218459   3.846   0.259   2.838
 5975SOL     OW18460   3.728   0.393   2.497
 5975SOL    HW118461   3.642   0.409   2.535
 5975SOL    HW218462   3.714   0.321   2.435
 5976SOL     OW18463   4.266   1.232   3.007
 5976SOL    HW118464   4.204   1.302   2.985
 5976SOL    HW218465   4.338   1.277   3.051
 5977SOL     OW18466   0.015   0.773   3.719
 5977SOL    HW118467   0.064   0.808   3.793
 5977SOL    HW218468   0.054   0.815   3.642
 5978SOL     OW18469   4.401   0.985   2.486
 5978SOL    HW118470   4.476   0.979   2.545
 5978SOL    HW218471   4.341   1.045   2.529
 5979SOL     OW18472   4.418   1.156   3.671
 5979SOL    HW118473   4.454   1.236   3.634
 5979SOL    HW218474   4.324   1.161   3.653
 5980SOL     OW18475   4.064   1.429   2.931
 5980SOL    HW118476   3.991   1.383   2.889
 5980SOL    HW218477   4.105   1.478   2.859
 5981SOL     OW18478   4.161   0.394   3.340
 5981SOL    HW118479   4.240   0.339   3.343
 5981SOL    HW218480   4.089   0.333   3.355
 5982SOL     OW18481   3.941   1.716   2.333
 5982SOL    HW118482   3.960   1.791   2.389
 5982SOL    HW218483   4.018   1.707   2.277
 5983SOL     OW18484   3.956   1.444   2.398
 5983SOL    HW118485   3.935   1.537   2.402
 5983SOL    HW218486   3.899   1.403   2.463
 5984SOL     OW18487   3.981   1.088   2.747
 5984SOL    HW118488   3.985   1.003   2.789
 5984SOL    HW218489   3.931   1.143   2.808
 5985SOL     OW18490   4.359   1.795   3.321
 5985SOL    HW118491   4.270   1.767   3.340
 5985SOL    HW218492   4.354   1.891   3.320
 5986SOL     OW18493   4.308   0.986   2.006
 5986SOL    HW118494   4.340   1.034   1.930
 5986SOL    HW218495   4.375   0.999   2.073
 5987SOL     OW18496   3.842   0.655   2.423
 5987SOL    HW118497   3.810   0.568   2.446
 5987SOL    HW218498   3.834   0.705   2.504
 5988SOL     OW18499   3.763   1.591   1.983
 5988SOL    HW118500   3.742   1.499   2.003
 5988SOL    HW218501   3.736   1.639   2.062
 5989SOL     OW18502   3.844   0.746   3.444
 5989SOL    HW118503   3.934   0.779   3.449
 5989SOL    HW218504   3.790   0.825   3.445
 5990SOL     OW18505   4.304   1.389   2.599
 5990SOL    HW118506   4.269   1.300   2.600
 5990SOL    HW218507   4.309   1.412   2.506
 5991SOL     OW18508   0.015   0.009   2.361
 5991SOL    HW118509   0.048   0.075   2.300
 5991SOL    HW218510   4.428   0.040   2.385
 5992SOL     OW18511   3.910   0.959   3.141
 5992SOL    HW118512   3.996   0.923   3.124
 5992SOL    HW218513   3.852   0.914   3.080
 5993SOL     OW18514   4.040   0.248   3.645
 5993SOL    HW118515   4.100   0.316   3.674
 5993SOL    HW218516   3.965   0.255   3.705
 5994SOL     OW18517   4.311   0.724   2.132
 5994SOL    HW118518   4.305   0.806   2.084
 5994SOL    HW218519   4.247   0.732   2.202
 5995SOL     OW18520   3.812   0.823   2.638
 5995SOL    HW118521   3.892   0.815   2.690
 5995SOL    HW218522   3.769   0.901   2.673
 5996SOL     OW18523   3.853   1.866   3.444
 5996SOL    HW118524   3.856   1.843   3.537
 5996SOL    HW218525   3.767   1.835   3.414
 5997SOL     OW18526   4.232   0.204   2.761
 5997SOL    HW118527   4.277   0.221   2.844
 5997SOL    HW218528   4.258   0.277   2.705
 5998SOL     OW18529   4.083   1.817   2.731
 5998SOL    HW118530   4.136   1.738   2.739
 5998SOL    HW218531   4.145   1.889   2.741
 5999SOL     OW18532   4.038   0.962   2.115
 5999SOL    HW118533   4.122   0.980   2.073
 5999SOL    HW218534   4.011   0.878   2.077
 6000SOL     OW18535   4.176   1.250   3.595
 6000SOL    HW118536   4.150   1.265   3.504
 6000SOL    HW218537   4.095   1.260   3.645
 6001SOL     OW18538   3.909   0.269   3.381
 6001SOL    HW118539   3.845   0.339   3.369
 6001SOL    HW218540   3.930   0.272   3.474
 6002SOL     OW18541   4.189   1.734   2.187
 6002SOL    HW118542   4.225   1.795   2.251
 6002SOL    HW218543   4.258   1.724   2.122
 6003SOL     OW18544   3.980   1.793   3.090
 6003SOL    HW118545   4.025   1.718   3.130
 6003SOL    HW218546   3.966   1.767   2.999
 6004SOL     OW18547   4.114   0.691   2.332
 6004SOL    HW118548   4.136   0.599   2.350
 6004SOL    HW218549   4.021   0.697   2.352
 6005SOL     OW18550   4.327   0.117   1.979
 6005SOL    HW118551   4.411   0.073   1.989
 6005SOL    HW218552   4.303   0.103   1.887
 6006SOL     OW18553   0.024   1.416   2.765
 6006SOL    HW118554   0.068   1.481   2.710
 6006SOL    HW218555   4.447   1.390   2.715
 6007SOL     OW18556   4.274   0.114   2.406
 6007SOL    HW118557   4.190   0.077   2.433
 6007SOL    HW218558   4.253   0.164   2.326
 6008SOL     OW18559   4.022   0.064   2.071
 6008SOL    HW118560   4.101   0.115   2.053
 6008SOL    HW218561   4.050   4.500   2.136
 6009SOL     OW18562   0.325   0.672   3.326
 6009SOL    HW118563   0.288   0.602   3.272
 6009SOL    HW218564   0.413   0.641   3.348
 6010SOL     OW18565   4.192   1.143   2.585
 6010SOL    HW118566   4.126   1.123   2.652
 6010SOL    HW218567   4.147   1.130   2.502
 6011SOL     OW18568   3.812   0.547   3.259
 6011SOL    HW118569   3.902   0.553   3.227
 6011SOL    HW218570   3.804   0.619   3.322
 6012SOL     OW18571   4.297   0.242   3.023
 6012SOL    HW118572   4.302   0.151   3.052
 6012SOL    HW218573   4.213   0.274   3.055
 6013SOL     OW18574   4.231   1.384   2.036
 6013SOL    HW118575   4.146   1.370   2.077
 6013SOL    HW218576   4.212   1.394   1.943
 6014SOL     OW18577   4.238   0.270   2.184
 6014SOL    HW118578   4.282   0.216   2.119
 6014SOL    HW218579   4.217   0.351   2.137
 6015SOL     OW18580   4.145   0.817   3.115
 6015SOL    HW118581   4.214   0.823   3.181
 6015SOL    HW218582   4.110   0.729   3.125
 6016SOL     OW18583   3.797   1.574   3.219
 6016SOL    HW118584   3.765   1.643   3.161
 6016SOL    HW218585   3.892   1.577   3.209
 6017SOL     OW18586   4.056   1.117   2.349
 6017SOL    HW118587   4.058   1.190   2.287
 6017SOL    HW218588   4.057   1.039   2.295
 6018SOL     OW18589   4.309   0.536   2.726
 6018SOL    HW118590   4.304   0.603   2.658
 6018SOL    HW218591   4.373   0.569   2.788
 6019SOL     OW18592   4.071   1.539   3.174
 6019SOL    HW118593   4.068   1.494   3.090
 6019SOL    HW218594   4.163   1.539   3.199
 6020SOL     OW18595   4.144   0.736   3.471
 6020SOL    HW118596   4.200   0.781   3.408
 6020SOL    HW218597   4.194   0.659   3.496
 6021SOL     OW18598   4.245   0.073   3.582
 6021SOL    HW118599   4.214   4.484   3.566
 6021SOL    HW218600   4.165   0.124   3.597
 6022SOL     OW18601   4.284   0.902   2.888
 6022SOL    HW118602   4.306   0.994   2.904
 6022SOL    HW218603   4.242   0.873   2.969
 6023SOL     OW18604   4.014   0.237   3.103
 6023SOL    HW118605   3.965   0.247   3.185
 6023SOL    HW218606   4.058   0.152   3.112
 6024SOL     OW18607   3.772   1.312   3.137
 6024SOL    HW118608   3.802   1.255   3.208
 6024SOL    HW218609   3.775   1.400   3.174
 6025SOL     OW18610   4.013   0.046   2.513
 6025SOL    HW118611   4.000   0.141   2.514
 6025SOL    HW218612   4.023   0.022   2.605
 6026SOL     OW18613   4.075   0.914   3.670
 6026SOL    HW118614   4.155   0.928   3.721
 6026SOL    HW218615   4.099   0.848   3.605
 6027SOL     OW18616   4.030   0.809   2.807
 6027SOL    HW118617   4.121   0.840   2.809
 6027SOL    HW218618   4.035   0.718   2.836
 6028SOL     OW18619   4.075   0.536   2.872
 6028SOL    HW118620   4.028   0.455   2.852
 6028SOL    HW218621   4.154   0.532   2.819
 6029SOL     OW18622   3.731   1.318   2.057
 6029SOL    HW118623   3.643   1.333   2.021
 6029SOL    HW218624   3.726   1.228   2.092
 6030SOL     OW18625   3.818   1.783   2.805
 6030SOL    HW118626   3.787   1.705   2.758
 6030SOL    HW218627   3.907   1.797   2.772
 6031SOL     OW18628   4.233   1.588   2.768
 6031SOL    HW118629   4.319   1.608   2.804
 6031SOL    HW218630   4.250   1.520   2.702
 6032SOL     OW18631   3.755   0.545   2.980
 6032SOL    HW118632   3.825   0.514   2.923
 6032SOL    HW218633   3.794   0.547   3.068
 6033SOL     OW18634   3.910   0.523   3.586
 6033SOL    HW118635   3.990   0.510   3.537
 6033SOL    HW218636   3.867   0.598   3.545
 6034SOL     OW18637   0.023   0.544   2.124
 6034SOL    HW118638   0.027   0.510   2.213
 6034SOL    HW218639   4.455   0.611   2.127
 6035SOL     OW18640   3.965   1.552   3.585
 6035SOL    HW118641   3.940   1.617   3.651
 6035SOL    HW218642   3.966   1.469   3.632
 6036SOL     OW18643   4.184   0.494   2.042
 6036SOL    HW118644   4.243   0.565   2.064
 6036SOL    HW218645   4.099   0.536   2.028
 6037SOL     OW18646   3.866   1.141   3.336
 6037SOL    HW118647   3.867   1.094   3.419
 6037SOL    HW218648   3.882   1.074   3.270
 6038SOL     OW18649   3.813   1.270   2.873
 6038SOL    HW118650   3.795   1.282   2.966
 6038SOL    HW218651   3.743   1.213   2.842
 6039SOL     OW18652   4.390   1.653   3.557
 6039SOL    HW118653   4.355   1.732   3.599
 6039SOL    HW218654   4.401   1.677   3.465
 6040SOL     OW18655   3.865   1.796   3.705
 6040SOL    HW118656   3.814   1.730   3.753
 6040SOL    HW218657   3.911   1.845   3.773
 6041SOL     OW18658   3.983   0.317   2.573
 6041SOL    HW118659   3.898   0.355   2.551
 6041SOL    HW218660   3.983   0.312   2.669
 6042SOL     OW18661   4.084   1.311   3.351
 6042SOL    HW118662   4.063   1.385   3.295
 6042SOL    HW218663   4.012   1.249   3.337
 6043SOL     OW18664   4.327   1.490   2.341
 6043SOL    HW118665   4.343   1.431   2.268
 6043SOL    HW218666   4.259   1.550   2.310
 6044SOL     OW18667   3.985   1.345   2.153
 6044SOL    HW118668   3.893   1.341   2.129
 6044SOL    HW218669   3.986   1.385   2.240
 6045SOL     OW18670   3.838   1.033   3.587
 6045SOL    HW118671   3.761   1.005   3.637
 6045SOL    HW218672   3.911   0.989   3.630
 6046SOL     OW18673   4.363   0.204   3.353
 6046SOL    HW118674   4.455   0.228   3.345
 6046SOL    HW218675   4.356   0.163   3.440
 6047SOL     OW18676   3.807   0.328   1.910
 6047SOL    HW118677   3.737   0.273   1.874
 6047SOL    HW218678   3.813   0.401   1.848
 6048SOL     OW18679   3.786   0.190   2.170
 6048SOL    HW118680   3.789   0.257   2.102
 6048SOL    HW218681   3.862   0.134   2.152
 6049SOL     OW18682   4.344   0.840   3.304
 6049SOL    HW118683   4.374   0.929   3.281
 6049SOL    HW218684   4.422   0.797   3.338
 6050SOL     OW18685   4.385   0.564   3.594
 6050SOL    HW118686   4.411   0.636   3.651
 6050SOL    HW218687   4.467   0.527   3.563
 6051SOL     OW18688   4.103   1.741   3.423
 6051SOL    HW118689   4.021   1.786   3.408
 6051SOL    HW218690   4.079   1.660   3.469
 6052SOL     OW18691   4.307   0.727   2.532
 6052SOL    HW118692   4.347   0.812   2.517
 6052SOL    HW218693   4.239   0.720   2.465
 6053SOL     OW18694   3.940   1.305   3.714
 6053SOL    HW118695   3.880   1.237   3.682
 6053SOL    HW218696   3.917   1.316   3.806
 6054SOL     OW18697   3.814   1.230   2.528
 6054SOL    HW118698   3.823   1.185   2.612
 6054SOL    HW218699   3.880   1.190   2.471
 6055SOL     OW18700   4.427   1.387   3.538
 6055SOL    HW118701   4.338   1.360   3.519
 6055SOL    HW218702   4.422   1.482   3.546
 6056SOL     OW18703   4.168   0.435   2.401
 6056SOL    HW118704   4.186   0.369   2.333
 6056SOL    HW218705   4.109   0.391   2.462
 6057SOL     OW18706   4.056   0.561   3.150
 6057SOL    HW118707   4.108   0.502   3.205
 6057SOL    HW218708   4.077   0.534   3.060
 6058SOL     OW18709   0.034   1.611   2.551
 6058SOL    HW118710   0.060   1.679   2.489
 6058SOL    HW218711   4.470   1.559   2.503
 6059SOL     OW18712   3.767   1.066   2.169
 6059SOL    HW118713   3.860   1.057   2.151
 6059SOL    HW218714   3.738   0.977   2.192
 6060SOL     OW18715   3.949   0.625   3.848
 6060SOL    HW118716   3.863   0.617   3.889
 6060SOL    HW218717   3.934   0.597   3.758
 6061SOL     OW18718   3.925   0.311   4.714
 6061SOL    HW118719   3.962   0.277   4.796
 6061SOL    HW218720   3.846   0.259   4.700
 6062SOL     OW18721   3.728   0.393   4.359
 6062SOL    HW118722   3.642   0.409   4.397
 6062SOL    HW218723   3.714   0.321   4.297
 6063SOL     OW18724   4.266   1.232   4.869
 6063SOL    HW118725   4.203   1.301   4.846
 6063SOL    HW218726   4.337   1.278   4.913
 6064SOL     OW18727   0.014   0.774   5.581
 6064SOL    HW118728   0.065   0.808   5.654
 6064SOL    HW218729   0.054   0.814   5.503
 6065SOL     OW18730   4.402   0.985   4.348
 6065SOL    HW118731   4.476   0.977   4.408
 6065SOL    HW218732   4.341   1.045   4.391
 6066SOL     OW18733   4.418   1.156   5.533
 6066SOL    HW118734   4.454   1.236   5.496
 6066SOL    HW218735   4.324   1.161   5.515
 6067SOL     OW18736   4.064   1.428   4.793
 6067SOL    HW118737   3.991   1.382   4.751
 6067SOL    HW218738   4.105   1.477   4.721
 6068SOL     OW18739   4.161   0.394   5.203
 6068SOL    HW118740   4.240   0.339   5.205
 6068SOL    HW218741   4.089   0.333   5.217
 6069SOL     OW18742   3.941   1.716   4.195
 6069SOL    HW118743   3.960   1.791   4.251
 6069SOL    HW218744   4.018   1.707   4.139
 6070SOL     OW18745   3.957   1.444   4.260
 6070SOL    HW118746   3.934   1.537   4.264
 6070SOL    HW218747   3.899   1.403   4.325
 6071SOL     OW18748   3.982   1.089   4.609
 6071SOL    HW118749   3.984   1.003   4.651
 6071SOL    HW218750   3.931   1.143   4.669
 6072SOL     OW18751   4.359   1.795   5.182
 6072SOL    HW118752   4.269   1.767   5.202
 6072SOL    HW218753   4.354   1.891   5.182
 6073SOL     OW18754   4.308   0.986   3.868
 6073SOL    HW118755   4.340   1.034   3.792
 6073SOL    HW218756   4.375   0.999   3.935
 6074SOL     OW18757   3.843   0.655   4.285
 6074SOL    HW118758   3.810   0.568   4.308
 6074SOL    HW218759   3.834   0.706   4.366
 6075SOL     OW18760   3.763   1.591   3.845
 6075SOL    HW118761   3.742   1.499   3.865
 6075SOL    HW218762   3.737   1.639   3.923
 6076SOL     OW18763   3.843   0.746   5.306
 6076SOL    HW118764   3.933   0.779   5.310
 6076SOL    HW218765   3.789   0.825   5.305
 6077SOL     OW18766   4.304   1.389   4.461
 6077SOL    HW118767   4.269   1.300   4.462
 6077SOL    HW218768   4.309   1.412   4.368
 6078SOL     OW18769   0.015   0.010   4.224
 6078SOL    HW118770   0.048   0.075   4.162
 6078SOL    HW218771   4.428   0.041   4.247
 6079SOL     OW18772   3.909   0.959   5.004
 6079SOL    HW118773   3.996   0.922   4.986
 6079SOL    HW218774   3.852   0.916   4.941
 6080SOL     OW18775   4.039   0.248   5.507
 6080SOL    HW118776   4.100   0.316   5.536
 6080SOL    HW218777   3.965   0.254   5.567
 6081SOL     OW18778   4.311   0.724   3.994
 6081SOL    HW118779   4.305   0.806   3.945
 6081SOL    HW218780   4.247   0.732   4.064
 6082SOL     OW18781   3.812   0.823   4.500
 6082SOL    HW118782   3.892   0.815   4.552
 6082SOL    HW218783   3.768   0.901   4.535
 6083SOL     OW18784   3.853   1.866   5.306
 6083SOL    HW118785   3.856   1.843   5.399
 6083SOL    HW218786   3.767   1.835   5.276
 6084SOL     OW18787   4.233   0.204   4.624
 6084SOL    HW118788   4.277   0.221   4.707
 6084SOL    HW218789   4.258   0.276   4.567
 6085SOL     OW18790   4.083   1.817   4.593
 6085SOL    HW118791   4.136   1.738   4.601
 6085SOL    HW218792   4.145   1.889   4.603
 6086SOL     OW18793   4.038   0.961   3.977
 6086SOL    HW118794   4.122   0.980   3.935
 6086SOL    HW218795   4.010   0.878   3.939
 6087SOL     OW18796   4.176   1.250   5.457
 6087SOL    HW118797   4.150   1.265   5.366
 6087SOL    HW218798   4.095   1.260   5.507
 6088SOL     OW18799   3.909   0.269   5.242
 6088SOL    HW118800   3.845   0.339   5.230
 6088SOL    HW218801   3.930   0.272   5.336
 6089SOL     OW18802   4.189   1.734   4.049
 6089SOL    HW118803   4.225   1.796   4.113
 6089SOL    HW218804   4.258   1.724   3.984
 6090SOL     OW18805   3.981   1.793   4.952
 6090SOL    HW118806   4.025   1.717   4.991
 6090SOL    HW218807   3.966   1.767   4.861
 6091SOL     OW18808   4.115   0.691   4.194
 6091SOL    HW118809   4.136   0.599   4.212
 6091SOL    HW218810   4.021   0.697   4.214
 6092SOL     OW18811   4.327   0.116   3.841
 6092SOL    HW118812   4.411   0.072   3.850
 6092SOL    HW218813   4.302   0.103   3.750
 6093SOL     OW18814   0.024   1.416   4.627
 6093SOL    HW118815   0.068   1.481   4.572
 6093SOL    HW218816   4.447   1.390   4.578
 6094SOL     OW18817   4.273   0.114   4.268
 6094SOL    HW118818   4.189   0.077   4.295
 6094SOL    HW218819   4.253   0.163   4.188
 6095SOL     OW18820   4.022   0.064   3.933
 6095SOL    HW118821   4.101   0.115   3.915
 6095SOL    HW218822   4.050   4.500   3.998
 6096SOL     OW18823   0.325   0.671   5.190
 6096SOL    HW118824   0.285   0.602   5.136
 6096SOL    HW218825   0.413   0.639   5.209
 6097SOL     OW18826   4.193   1.143   4.448
 6097SOL    HW118827   4.127   1.123   4.514
 6097SOL    HW218828   4.147   1.129   4.364
 6098SOL     OW18829   3.812   0.546   5.122
 6098SOL    HW118830   3.902   0.553   5.089
 6098SOL    HW218831   3.804   0.619   5.184
 6099SOL     OW18832   4.298   0.242   4.885
 6099SOL    HW118833   4.301   0.151   4.914
 6099SOL    HW218834   4.213   0.274   4.917
 6100SOL     OW18835   4.231   1.384   3.898
 6100SOL    HW118836   4.146   1.370   3.939
 6100SOL    HW218837   4.211   1.394   3.805
 6101SOL     OW18838   4.238   0.270   4.046
 6101SOL    HW118839   4.282   0.215   3.981
 6101SOL    HW218840   4.217   0.351   3.999
 6102SOL     OW18841   4.145   0.817   4.977
 6102SOL    HW118842   4.214   0.823   5.043
 6102SOL    HW218843   4.110   0.729   4.986
 6103SOL     OW18844   3.796   1.575   5.082
 6103SOL    HW118845   3.763   1.643   5.023
 6103SOL    HW218846   3.891   1.577   5.071
 6104SOL     OW18847   4.057   1.117   4.211
 6104SOL    HW118848   4.058   1.190   4.149
 6104SOL    HW218849   4.057   1.039   4.156
 6105SOL     OW18850   4.309   0.536   4.588
 6105SOL    HW118851   4.304   0.603   4.519
 6105SOL    HW218852   4.373   0.570   4.650
 6106SOL     OW18853   4.071   1.539   5.036
 6106SOL    HW118854   4.068   1.494   4.952
 6106SOL    HW218855   4.163   1.538   5.060
 6107SOL     OW18856   4.144   0.736   5.333
 6107SOL    HW118857   4.200   0.781   5.270
 6107SOL    HW218858   4.194   0.658   5.358
 6108SOL     OW18859   4.245   0.073   5.444
 6108SOL    HW118860   4.214   4.484   5.429
 6108SOL    HW218861   4.165   0.124   5.459
 6109SOL     OW18862   4.285   0.901   4.750
 6109SOL    HW118863   4.306   0.994   4.765
 6109SOL    HW218864   4.242   0.873   4.831
 6110SOL     OW18865   4.014   0.237   4.965
 6110SOL    HW118866   3.965   0.247   5.047
 6110SOL    HW218867   4.058   0.152   4.973
 6111SOL     OW18868   3.775   1.312   4.999
 6111SOL    HW118869   3.803   1.255   5.070
 6111SOL    HW218870   3.775   1.400   5.036
 6112SOL     OW18871   4.013   0.046   4.375
 6112SOL    HW118872   4.000   0.141   4.376
 6112SOL    HW218873   4.023   0.022   4.467
 6113SOL     OW18874   4.075   0.914   5.532
 6113SOL    HW118875   4.155   0.928   5.583
 6113SOL    HW218876   4.099   0.848   5.467
 6114SOL     OW18877   4.030   0.809   4.669
 6114SOL    HW118878   4.121   0.840   4.671
 6114SOL    HW218879   4.035   0.718   4.698
 6115SOL     OW18880   4.075   0.536   4.735
 6115SOL    HW118881   4.028   0.455   4.714
 6115SOL    HW218882   4.154   0.532   4.681
 6116SOL     OW18883   3.731   1.317   3.919
 6116SOL    HW118884   3.644   1.333   3.882
 6116SOL    HW218885   3.727   1.228   3.954
 6117SOL     OW18886   3.819   1.782   4.668
 6117SOL    HW118887   3.787   1.705   4.620
 6117SOL    HW218888   3.907   1.796   4.634
 6118SOL     OW18889   4.233   1.588   4.630
 6118SOL    HW118890   4.319   1.608   4.665
 6118SOL    HW218891   4.250   1.520   4.564
 6119SOL     OW18892   3.755   0.545   4.842
 6119SOL    HW118893   3.825   0.514   4.785
 6119SOL    HW218894   3.794   0.547   4.930
 6120SOL     OW18895   3.910   0.523   5.448
 6120SOL    HW118896   3.990   0.510   5.398
 6120SOL    HW218897   3.867   0.598   5.407
 6121SOL     OW18898   0.023   0.544   3.986
 6121SOL    HW118899   0.026   0.509   4.075
 6121SOL    HW218900   4.455   0.611   3.989
 6122SOL     OW18901   3.966   1.552   5.447
 6122SOL    HW118902   3.940   1.617   5.513
 6122SOL    HW218903   3.966   1.469   5.494
 6123SOL     OW18904   4.184   0.494   3.905
 6123SOL    HW118905   4.243   0.566   3.926
 6123SOL    HW218906   4.099   0.536   3.890
 6124SOL     OW18907   3.866   1.141   5.199
 6124SOL    HW118908   3.867   1.094   5.282
 6124SOL    HW218909   3.882   1.074   5.132
 6125SOL     OW18910   3.814   1.269   4.735
 6125SOL    HW118911   3.796   1.282   4.828
 6125SOL    HW218912   3.742   1.213   4.704
 6126SOL     OW18913   4.390   1.653   5.419
 6126SOL    HW118914   4.354   1.731   5.461
 6126SOL    HW218915   4.400   1.678   5.327
 6127SOL     OW18916   3.865   1.795   5.567
 6127SOL    HW118917   3.814   1.730   5.615
 6127SOL    HW218918   3.911   1.844   5.635
 6128SOL     OW18919   3.983   0.318   4.435
 6128SOL    HW118920   3.898   0.355   4.413
 6128SOL    HW218921   3.983   0.313   4.531
 6129SOL     OW18922   4.084   1.311   5.213
 6129SOL    HW118923   4.063   1.385   5.156
 6129SOL    HW218924   4.012   1.249   5.199
 6130SOL     OW18925   4.327   1.490   4.203
 6130SOL    HW118926   4.342   1.431   4.130
 6130SOL    HW218927   4.258   1.549   4.173
 6131SOL     OW18928   3.986   1.345   4.015
 6131SOL    HW118929   3.893   1.341   3.991
 6131SOL    HW218930   3.986   1.385   4.102
 6132SOL     OW18931   3.838   1.034   5.450
 6132SOL    HW118932   3.761   1.006   5.499
 6132SOL    HW218933   3.911   0.989   5.492
 6133SOL     OW18934   4.362   0.204   5.215
 6133SOL    HW118935   4.455   0.228   5.207
 6133SOL    HW218936   4.356   0.163   5.302
 6134SOL     OW18937   3.807   0.328   3.772
 6134SOL    HW118938   3.737   0.273   3.736
 6134SOL    HW218939   3.813   0.401   3.710
 6135SOL     OW18940   3.786   0.190   4.032
 6135SOL    HW118941   3.789   0.257   3.964
 6135SOL    HW218942   3.862   0.134   4.014
 6136SOL     OW18943   4.344   0.840   5.166
 6136SOL    HW118944   4.374   0.929   5.143
 6136SOL    HW218945   4.422   0.797   5.200
 6137SOL     OW18946   4.385   0.563   5.456
 6137SOL    HW118947   4.410   0.636   5.514
 6137SOL    HW218948   4.468   0.527   5.425
 6138SOL     OW18949   4.104   1.740   5.285
 6138SOL    HW118950   4.021   1.786   5.270
 6138SOL    HW218951   4.078   1.660   5.331
 6139SOL     OW18952   4.307   0.727   4.394
 6139SOL    HW118953   4.347   0.813   4.378
 6139SOL    HW218954   4.239   0.720   4.326
 6140SOL     OW18955   3.940   1.305   5.575
 6140SOL    HW118956   3.881   1.237   5.543
 6140SOL    HW218957   3.915   1.315   5.667
 6141SOL     OW18958   3.814   1.231   4.390
 6141SOL    HW118959   3.821   1.185   4.474
 6141SOL    HW218960   3.880   1.189   4.334
 6142SOL     OW18961   4.428   1.387   5.401
 6142SOL    HW118962   4.338   1.360   5.381
 6142SOL    HW218963   4.423   1.482   5.408
 6143SOL     OW18964   4.169   0.435   4.263
 6143SOL    HW118965   4.186   0.369   4.195
 6143SOL    HW218966   4.109   0.391   4.324
 6144SOL     OW18967   4.056   0.561   5.012
 6144SOL    HW118968   4.108   0.502   5.067
 6144SOL    HW218969   4.076   0.534   4.922
 6145SOL     OW18970   0.034   1.611   4.413
 6145SOL    HW118971   0.060   1.679   4.351
 6145SOL    HW218972   4.470   1.558   4.366
 6146SOL     OW18973   3.767   1.066   4.031
 6146SOL    HW118974   3.861   1.057   4.013
 6146SOL    HW218975   3.738   0.978   4.054
 6147SOL     OW18976   3.949   0.625   5.710
 6147SOL    HW118977   3.863   0.617   5.751
 6147SOL    HW218978   3.935   0.597   5.619
 6148SOL     OW18979   3.925   0.311   6.577
 6148SOL    HW118980   3.962   0.277   6.658
 6148SOL    HW218981   3.846   0.259   6.562
 6149SOL     OW18982   3.728   0.393   6.221
 6149SOL    HW118983   3.642   0.409   6.259
 6149SOL    HW218984   3.715   0.321   6.159
 6150SOL     OW18985   4.265   1.232   6.731
 6150SOL    HW118986   4.204   1.302   6.709
 6150SOL    HW218987   4.338   1.277   6.775
 6151SOL     OW18988   0.014   0.774   7.443
 6151SOL    HW118989   0.065   0.807   7.517
 6151SOL    HW218990   0.054   0.815   7.366
 6152SOL     OW18991   4.402   0.985   6.210
 6152SOL    HW118992   4.476   0.977   6.270
 6152SOL    HW218993   4.342   1.045   6.253
 6153SOL     OW18994   4.418   1.156   7.396
 6153SOL    HW118995   4.455   1.236   7.358
 6153SOL    HW218996   4.324   1.162   7.378
 6154SOL     OW18997   4.064   1.429   6.655
 6154SOL    HW118998   3.991   1.383   6.613
 6154SOL    HW218999   4.105   1.478   6.583
 6155SOL     OW19000   4.161   0.394   7.065
 6155SOL    HW119001   4.240   0.340   7.067
 6155SOL    HW219002   4.089   0.333   7.079
 6156SOL     OW19003   3.941   1.716   6.057
 6156SOL    HW119004   3.960   1.791   6.113
 6156SOL    HW219005   4.018   1.707   6.001
 6157SOL     OW19006   3.956   1.444   6.122
 6157SOL    HW119007   3.935   1.537   6.126
 6157SOL    HW219008   3.899   1.404   6.187
 6158SOL     OW19009   3.981   1.088   6.470
 6158SOL    HW119010   3.985   1.003   6.512
 6158SOL    HW219011   3.931   1.143   6.532
 6159SOL     OW19012   4.360   1.795   7.045
 6159SOL    HW119013   4.270   1.767   7.064
 6159SOL    HW219014   4.355   1.891   7.044
 6160SOL     OW19015   4.308   0.986   5.730
 6160SOL    HW119016   4.340   1.034   5.654
 6160SOL    HW219017   4.375   0.999   5.797
 6161SOL     OW19018   3.842   0.655   6.147
 6161SOL    HW119019   3.810   0.568   6.170
 6161SOL    HW219020   3.834   0.705   6.228
 6162SOL     OW19021   3.762   1.591   5.707
 6162SOL    HW119022   3.742   1.499   5.727
 6162SOL    HW219023   3.736   1.639   5.786
 6163SOL     OW19024   3.844   0.746   7.168
 6163SOL    HW119025   3.934   0.778   7.173
 6163SOL    HW219026   3.790   0.826   7.169
 6164SOL     OW19027   4.304   1.389   6.323
 6164SOL    HW119028   4.269   1.300   6.324
 6164SOL    HW219029   4.309   1.412   6.230
 6165SOL     OW19030   0.015   0.010   6.086
 6165SOL    HW119031   0.048   0.075   6.024
 6165SOL    HW219032   4.428   0.041   6.109
 6166SOL     OW19033   3.910   0.959   6.865
 6166SOL    HW119034   3.996   0.923   6.848
 6166SOL    HW219035   3.852   0.914   6.803
 6167SOL     OW19036   4.039   0.248   7.369
 6167SOL    HW119037   4.100   0.316   7.398
 6167SOL    HW219038   3.965   0.254   7.429
 6168SOL     OW19039   4.311   0.724   5.856
 6168SOL    HW119040   4.305   0.806   5.807
 6168SOL    HW219041   4.247   0.732   5.926
 6169SOL     OW19042   3.812   0.823   6.363
 6169SOL    HW119043   3.892   0.814   6.414
 6169SOL    HW219044   3.769   0.901   6.397
 6170SOL     OW19045   3.853   1.865   7.168
 6170SOL    HW119046   3.856   1.842   7.261
 6170SOL    HW219047   3.767   1.835   7.138
 6171SOL     OW19048   4.232   0.204   6.485
 6171SOL    HW119049   4.277   0.221   6.569
 6171SOL    HW219050   4.258   0.276   6.429
 6172SOL     OW19051   4.083   1.817   6.456
 6172SOL    HW119052   4.136   1.738   6.463
 6172SOL    HW219053   4.145   1.889   6.465
 6173SOL     OW19054   4.038   0.961   5.839
 6173SOL    HW119055   4.122   0.980   5.797
 6173SOL    HW219056   4.010   0.878   5.800
 6174SOL     OW19057   4.176   1.250   7.319
 6174SOL    HW119058   4.150   1.265   7.228
 6174SOL    HW219059   4.095   1.260   7.369
 6175SOL     OW19060   3.909   0.269   7.105
 6175SOL    HW119061   3.845   0.339   7.093
 6175SOL    HW219062   3.931   0.271   7.198
 6176SOL     OW19063   4.189   1.734   5.911
 6176SOL    HW119064   4.225   1.796   5.975
 6176SOL    HW219065   4.258   1.724   5.846
 6177SOL     OW19066   3.980   1.793   6.815
 6177SOL    HW119067   4.025   1.718   6.854
 6177SOL    HW219068   3.967   1.767   6.723
 6178SOL     OW19069   4.114   0.691   6.056
 6178SOL    HW119070   4.136   0.599   6.074
 6178SOL    HW219071   4.021   0.697   6.076
 6179SOL     OW19072   4.327   0.116   5.703
 6179SOL    HW119073   4.411   0.072   5.712
 6179SOL    HW219074   4.302   0.103   5.612
 6180SOL     OW19075   0.024   1.416   6.489
 6180SOL    HW119076   0.068   1.481   6.434
 6180SOL    HW219077   4.446   1.390   6.439
 6181SOL     OW19078   4.273   0.114   6.130
 6181SOL    HW119079   4.189   0.077   6.157
 6181SOL    HW219080   4.253   0.164   6.050
 6182SOL     OW19081   4.022   0.065   5.795
 6182SOL    HW119082   4.101   0.115   5.777
 6182SOL    HW219083   4.050   4.500   5.860
 6183SOL     OW19084   0.325   0.672   7.050
 6183SOL    HW119085   0.287   0.602   6.996
 6183SOL    HW219086   0.412   0.641   7.072
 6184SOL     OW19087   4.192   1.143   6.309
 6184SOL    HW119088   4.126   1.123   6.376
 6184SOL    HW219089   4.147   1.130   6.226
 6185SOL     OW19090   3.812   0.547   6.983
 6185SOL    HW119091   3.902   0.553   6.951
 6185SOL    HW219092   3.804   0.619   7.046
 6186SOL     OW19093   4.298   0.242   6.747
 6186SOL    HW119094   4.302   0.151   6.776
 6186SOL    HW219095   4.213   0.274   6.779
 6187SOL     OW19096   4.231   1.385   5.760
 6187SOL    HW119097   4.146   1.370   5.801
 6187SOL    HW219098   4.212   1.394   5.667
 6188SOL     OW19099   4.238   0.271   5.908
 6188SOL    HW119100   4.282   0.216   5.843
 6188SOL    HW219101   4.218   0.351   5.861
 6189SOL     OW19102   4.145   0.818   6.839
 6189SOL    HW119103   4.214   0.823   6.905
 6189SOL    HW219104   4.110   0.729   6.849
 6190SOL     OW19105   3.797   1.574   6.943
 6190SOL    HW119106   3.765   1.643   6.885
 6190SOL    HW219107   3.892   1.576   6.933
 6191SOL     OW19108   4.057   1.117   6.073
 6191SOL    HW119109   4.058   1.190   6.011
 6191SOL    HW219110   4.057   1.039   6.018
 6192SOL     OW19111   4.309   0.536   6.450
 6192SOL    HW119112   4.304   0.603   6.382
 6192SOL    HW219113   4.373   0.569   6.512
 6193SOL     OW19114   4.071   1.539   6.898
 6193SOL    HW119115   4.068   1.494   6.814
 6193SOL    HW219116   4.163   1.539   6.923
 6194SOL     OW19117   4.144   0.736   7.195
 6194SOL    HW119118   4.200   0.781   7.132
 6194SOL    HW219119   4.194   0.659   7.221
 6195SOL     OW19120   4.245   0.073   7.306
 6195SOL    HW119121   4.214   4.484   7.291
 6195SOL    HW219122   4.165   0.124   7.320
 6196SOL     OW19123   4.284   0.902   6.612
 6196SOL    HW119124   4.306   0.994   6.628
 6196SOL    HW219125   4.242   0.873   6.693
 6197SOL     OW19126   4.014   0.237   6.827
 6197SOL    HW119127   3.965   0.247   6.909
 6197SOL    HW219128   4.058   0.152   6.836
 6198SOL     OW19129   3.771   1.312   6.861
 6198SOL    HW119130   3.802   1.255   6.932
 6198SOL    HW219131   3.775   1.400   6.897
 6199SOL     OW19132   4.012   0.046   6.237
 6199SOL    HW119133   4.000   0.141   6.238
 6199SOL    HW219134   4.022   0.022   6.329
 6200SOL     OW19135   4.075   0.914   7.394
 6200SOL    HW119136   4.155   0.928   7.445
 6200SOL    HW219137   4.099   0.848   7.329
 6201SOL     OW19138   4.031   0.810   6.531
 6201SOL    HW119139   4.121   0.840   6.533
 6201SOL    HW219140   4.035   0.718   6.560
 6202SOL     OW19141   4.075   0.536   6.596
 6202SOL    HW119142   4.028   0.455   6.576
 6202SOL    HW219143   4.154   0.532   6.543
 6203SOL     OW19144   3.732   1.317   5.781
 6203SOL    HW119145   3.645   1.333   5.745
 6203SOL    HW219146   3.727   1.228   5.816
 6204SOL     OW19147   3.819   1.783   6.529
 6204SOL    HW119148   3.787   1.706   6.482
 6204SOL    HW219149   3.907   1.797   6.496
 6205SOL     OW19150   4.233   1.588   6.492
 6205SOL    HW119151   4.319   1.608   6.528
 6205SOL    HW219152   4.250   1.520   6.426
 6206SOL     OW19153   3.755   0.545   6.704
 6206SOL    HW119154   3.825   0.513   6.647
 6206SOL    HW219155   3.794   0.547   6.791
 6207SOL     OW19156   3.910   0.523   7.311
 6207SOL    HW119157   3.990   0.510   7.261
 6207SOL    HW219158   3.868   0.598   7.269
 6208SOL     OW19159   0.024   0.545   5.848
 6208SOL    HW119160   0.026   0.509   5.936
 6208SOL    HW219161   4.455   0.611   5.851
 6209SOL     OW19162   3.965   1.552   7.309
 6209SOL    HW119163   3.940   1.617   7.375
 6209SOL    HW219164   3.965   1.469   7.356
 6210SOL     OW19165   4.184   0.494   5.767
 6210SOL    HW119166   4.243   0.566   5.788
 6210SOL    HW219167   4.099   0.536   5.752
 6211SOL     OW19168   3.865   1.141   7.060
 6211SOL    HW119169   3.867   1.094   7.143
 6211SOL    HW219170   3.882   1.074   6.993
 6212SOL     OW19171   3.813   1.270   6.597
 6212SOL    HW119172   3.794   1.282   6.690
 6212SOL    HW219173   3.743   1.213   6.565
 6213SOL     OW19174   4.389   1.653   7.282
 6213SOL    HW119175   4.355   1.732   7.323
 6213SOL    HW219176   4.401   1.677   7.190
 6214SOL     OW19177   3.865   1.796   7.429
 6214SOL    HW119178   3.814   1.730   7.477
 6214SOL    HW219179   3.911   1.845   7.497
 6215SOL     OW19180   3.983   0.318   6.297
 6215SOL    HW119181   3.898   0.355   6.275
 6215SOL    HW219182   3.983   0.313   6.393
 6216SOL     OW19183   4.084   1.311   7.076
 6216SOL    HW119184   4.063   1.385   7.018
 6216SOL    HW219185   4.012   1.249   7.061
 6217SOL     OW19186   4.327   1.491   6.065
 6217SOL    HW119187   4.342   1.431   5.991
 6217SOL    HW219188   4.259   1.550   6.034
 6218SOL     OW19189   3.986   1.345   5.878
 6218SOL    HW119190   3.894   1.341   5.853
 6218SOL    HW219191   3.986   1.385   5.965
 6219SOL     OW19192   3.838   1.034   7.311
 6219SOL    HW119193   3.761   1.005   7.361
 6219SOL    HW219194   3.911   0.989   7.353
 6220SOL     OW19195   4.363   0.204   7.077
 6220SOL    HW119196   4.455   0.228   7.069
 6220SOL    HW219197   4.356   0.163   7.164
 6221SOL     OW19198   3.807   0.328   5.634
 6221SOL    HW119199   3.737   0.273   5.599
 6221SOL    HW219200   3.813   0.401   5.572
 6222SOL     OW19201   3.786   0.190   5.894
 6222SOL    HW119202   3.788   0.257   5.826
 6222SOL    HW219203   3.862   0.135   5.876
 6223SOL     OW19204   4.344   0.840   7.028
 6223SOL    HW119205   4.374   0.928   7.005
 6223SOL    HW219206   4.422   0.797   7.062
 6224SOL     OW19207   4.384   0.564   7.318
 6224SOL    HW119208   4.410   0.636   7.375
 6224SOL    HW219209   4.467   0.527   7.287
 6225SOL     OW19210   4.104   1.741   7.147
 6225SOL    HW119211   4.021   1.786   7.132
 6225SOL    HW219212   4.079   1.660   7.192
 6226SOL     OW19213   4.307   0.727   6.256
 6226SOL    HW119214   4.347   0.813   6.240
 6226SOL    HW219215   4.239   0.720   6.189
 6227SOL     OW19216   3.940   1.305   7.438
 6227SOL    HW119217   3.880   1.237   7.406
 6227SOL    HW219218   3.918   1.315   7.530
 6228SOL     OW19219   3.814   1.230   6.252
 6228SOL    HW119220   3.823   1.185   6.336
 6228SOL    HW219221   3.880   1.190   6.195
 6229SOL     OW19222   4.427   1.387   7.262
 6229SOL    HW119223   4.337   1.359   7.244
 6229SOL    HW219224   4.422   1.482   7.270
 6230SOL     OW19225   4.168   0.435   6.125
 6230SOL    HW119226   4.186   0.369   6.057
 6230SOL    HW219227   4.109   0.391   6.186
 6231SOL     OW19228   4.056   0.561   6.874
 6231SOL    HW119229   4.108   0.502   6.929
 6231SOL    HW219230   4.077   0.534   6.784
 6232SOL     OW19231   0.034   1.611   6.275
 6232SOL    HW119232   0.059   1.679   6.213
 6232SOL    HW219233   4.470   1.558   6.228
 6233SOL     OW19234   3.767   1.066   5.894
 6233SOL    HW119235   3.860   1.057   5.875
 6233SOL    HW219236   3.738   0.977   5.916
 6234SOL     OW19237   3.949   0.625   7.572
 6234SOL    HW119238   3.863   0.617   7.613
 6234SOL    HW219239   3.935   0.597   7.481
 6235SOL     OW19240   3.925   0.311   8.439
 6235SOL    HW119241   3.962   0.277   8.520
 6235SOL    HW219242   3.846   0.258   8.424
 6236SOL     OW19243   3.728   0.393   8.083
 6236SOL    HW119244   3.642   0.409   8.121
 6236SOL    HW219245   3.715   0.321   8.021
 6237SOL     OW19246   4.265   1.232   8.593
 6237SOL    HW119247   4.204   1.303   8.571
 6237SOL    HW219248   4.338   1.277   8.637
 6238SOL     OW19249   0.014   0.774   9.305
 6238SOL    HW119250   0.065   0.807   9.379
 6238SOL    HW219251   0.054   0.815   9.228
 6239SOL     OW19252   4.401   0.985   8.072
 6239SOL    HW119253   4.476   0.979   8.131
 6239SOL    HW219254   4.341   1.045   8.116
 6240SOL     OW19255   4.418   1.156   9.257
 6240SOL    HW119256   4.455   1.236   9.220
 6240SOL    HW219257   4.324   1.162   9.240
 6241SOL     OW19258   4.064   1.429   8.517
 6241SOL    HW119259   3.991   1.383   8.475
 6241SOL    HW219260   4.106   1.478   8.445
 6242SOL     OW19261   4.161   0.394   8.926
 6242SOL    HW119262   4.240   0.340   8.929
 6242SOL    HW219263   4.089   0.332   8.941
 6243SOL     OW19264   3.941   1.716   7.918
 6243SOL    HW119265   3.960   1.791   7.975
 6243SOL    HW219266   4.018   1.707   7.863
 6244SOL     OW19267   3.956   1.444   7.984
 6244SOL    HW119268   3.934   1.537   7.988
 6244SOL    HW219269   3.899   1.403   8.049
 6245SOL     OW19270   3.980   1.088   8.332
 6245SOL    HW119271   3.985   1.003   8.374
 6245SOL    HW219272   3.931   1.143   8.394
 6246SOL     OW19273   4.359   1.795   8.907
 6246SOL    HW119274   4.270   1.767   8.926
 6246SOL    HW219275   4.355   1.891   8.906
 6247SOL     OW19276   4.307   0.986   7.592
 6247SOL    HW119277   4.340   1.034   7.516
 6247SOL    HW219278   4.375   0.999   7.659
 6248SOL     OW19279   3.842   0.655   8.009
 6248SOL    HW119280   3.810   0.568   8.032
 6248SOL    HW219281   3.834   0.705   8.090
 6249SOL     OW19282   3.762   1.591   7.569
 6249SOL    HW119283   3.742   1.499   7.589
 6249SOL    HW219284   3.736   1.639   7.648
 6250SOL     OW19285   3.844   0.746   9.030
 6250SOL    HW119286   3.934   0.778   9.035
 6250SOL    HW219287   3.790   0.826   9.031
 6251SOL     OW19288   4.304   1.389   8.185
 6251SOL    HW119289   4.269   1.300   8.186
 6251SOL    HW219290   4.309   1.412   8.092
 6252SOL     OW19291   0.015   0.009   7.947
 6252SOL    HW119292   0.048   0.075   7.886
 6252SOL    HW219293   4.428   0.040   7.971
 6253SOL     OW19294   3.910   0.960   8.727
 6253SOL    HW119295   3.996   0.923   8.710
 6253SOL    HW219296   3.852   0.914   8.665
 6254SOL     OW19297   4.039   0.248   9.231
 6254SOL    HW119298   4.100   0.316   9.260
 6254SOL    HW219299   3.965   0.255   9.291
 6255SOL     OW19300   4.311   0.724   7.718
 6255SOL    HW119301   4.305   0.806   7.669
 6255SOL    HW219302   4.247   0.732   7.788
 6256SOL     OW19303   3.812   0.823   8.224
 6256SOL    HW119304   3.892   0.814   8.276
 6256SOL    HW219305   3.769   0.902   8.259
 6257SOL     OW19306   3.852   1.865   9.030
 6257SOL    HW119307   3.856   1.842   9.123
 6257SOL    HW219308   3.766   1.835   9.001
 6258SOL     OW19309   4.232   0.204   8.347
 6258SOL    HW119310   4.276   0.221   8.431
 6258SOL    HW219311   4.258   0.277   8.291
 6259SOL     OW19312   4.083   1.817   8.318
 6259SOL    HW119313   4.136   1.738   8.325
 6259SOL    HW219314   4.145   1.889   8.327
 6260SOL     OW19315   4.038   0.962   7.701
 6260SOL    HW119316   4.122   0.980   7.659
 6260SOL    HW219317   4.011   0.878   7.663
 6261SOL     OW19318   4.176   1.250   9.181
 6261SOL    HW119319   4.150   1.265   9.090
 6261SOL    HW219320   4.095   1.260   9.231
 6262SOL     OW19321   3.909   0.269   8.967
 6262SOL    HW119322   3.845   0.339   8.955
 6262SOL    HW219323   3.931   0.271   9.060
 6263SOL     OW19324   4.189   1.733   7.773
 6263SOL    HW119325   4.225   1.795   7.837
 6263SOL    HW219326   4.258   1.724   7.708
 6264SOL     OW19327   3.980   1.792   8.677
 6264SOL    HW119328   4.025   1.718   8.716
 6264SOL    HW219329   3.967   1.767   8.585
 6265SOL     OW19330   4.114   0.691   7.918
 6265SOL    HW119331   4.136   0.599   7.936
 6265SOL    HW219332   4.021   0.697   7.938
 6266SOL     OW19333   4.327   0.116   7.565
 6266SOL    HW119334   4.411   0.073   7.575
 6266SOL    HW219335   4.303   0.103   7.474
 6267SOL     OW19336   0.024   1.416   8.351
 6267SOL    HW119337   0.068   1.481   8.296
 6267SOL    HW219338   4.447   1.390   8.301
 6268SOL     OW19339   4.274   0.114   7.992
 6268SOL    HW119340   4.190   0.077   8.019
 6268SOL    HW219341   4.253   0.164   7.912
 6269SOL     OW19342   4.022   0.064   7.657
 6269SOL    HW119343   4.101   0.115   7.639
 6269SOL    HW219344   4.050   4.500   7.722
 6270SOL     OW19345   0.324   0.672   8.911
 6270SOL    HW119346   0.288   0.601   8.858
 6270SOL    HW219347   0.412   0.642   8.934
 6271SOL     OW19348   4.192   1.143   8.171
 6271SOL    HW119349   4.126   1.123   8.238
 6271SOL    HW219350   4.147   1.130   8.088
 6272SOL     OW19351   3.812   0.547   8.845
 6272SOL    HW119352   3.902   0.553   8.813
 6272SOL    HW219353   3.804   0.619   8.908
 6273SOL     OW19354   4.297   0.242   8.609
 6273SOL    HW119355   4.302   0.151   8.638
 6273SOL    HW219356   4.213   0.274   8.641
 6274SOL     OW19357   4.231   1.384   7.622
 6274SOL    HW119358   4.146   1.370   7.663
 6274SOL    HW219359   4.212   1.394   7.529
 6275SOL     OW19360   4.238   0.271   7.770
 6275SOL    HW119361   4.282   0.216   7.705
 6275SOL    HW219362   4.217   0.351   7.723
 6276SOL     OW19363   4.145   0.818   8.701
 6276SOL    HW119364   4.214   0.823   8.767
 6276SOL    HW219365   4.110   0.729   8.711
 6277SOL     OW19366   3.797   1.574   8.805
 6277SOL    HW119367   3.765   1.643   8.747
 6277SOL    HW219368   3.892   1.576   8.795
 6278SOL     OW19369   4.056   1.117   7.936
 6278SOL    HW119370   4.058   1.190   7.873
 6278SOL    HW219371   4.057   1.039   7.881
 6279SOL     OW19372   4.309   0.536   8.312
 6279SOL    HW119373   4.304   0.603   8.244
 6279SOL    HW219374   4.373   0.569   8.374
 6280SOL     OW19375   4.071   1.539   8.760
 6280SOL    HW119376   4.069   1.494   8.676
 6280SOL    HW219377   4.163   1.539   8.785
 6281SOL     OW19378   4.144   0.736   9.057
 6281SOL    HW119379   4.200   0.781   8.994
 6281SOL    HW219380   4.195   0.659   9.083
 6282SOL     OW19381   4.245   0.073   9.168
 6282SOL    HW119382   4.214   4.484   9.153
 6282SOL    HW219383   4.165   0.124   9.182
 6283SOL     OW19384   4.284   0.902   8.474
 6283SOL    HW119385   4.306   0.994   8.490
 6283SOL    HW219386   4.242   0.873   8.555
 6284SOL     OW19387   4.014   0.237   8.689
 6284SOL    HW119388   3.965   0.247   8.771
 6284SOL    HW219389   4.058   0.152   8.698
 6285SOL     OW19390   3.771   1.311   8.723
 6285SOL    HW119391   3.802   1.255   8.794
 6285SOL    HW219392   3.775   1.400   8.759
 6286SOL     OW19393   4.012   0.046   8.099
 6286SOL    HW119394   4.000   0.141   8.100
 6286SOL    HW219395   4.023   0.022   8.191
 6287SOL     OW19396   4.075   0.914   9.256
 6287SOL    HW119397   4.155   0.928   9.307
 6287SOL    HW219398   4.099   0.848   9.191
 6288SOL     OW19399   4.030   0.809   8.393
 6288SOL    HW119400   4.121   0.840   8.395
 6288SOL    HW219401   4.035   0.718   8.422
 6289SOL     OW19402   4.075   0.536   8.458
 6289SOL    HW119403   4.028   0.455   8.438
 6289SOL    HW219404   4.154   0.532   8.405
 6290SOL     OW19405   3.730   1.318   7.643
 6290SOL    HW119406   3.643   1.333   7.607
 6290SOL    HW219407   3.726   1.229   7.678
 6291SOL     OW19408   3.818   1.783   8.391
 6291SOL    HW119409   3.787   1.705   8.344
 6291SOL    HW219410   3.907   1.797   8.358
 6292SOL     OW19411   4.233   1.588   8.354
 6292SOL    HW119412   4.319   1.609   8.390
 6292SOL    HW219413   4.250   1.520   8.288
 6293SOL     OW19414   3.755   0.545   8.566
 6293SOL    HW119415   3.825   0.514   8.509
 6293SOL    HW219416   3.794   0.547   8.654
 6294SOL     OW19417   3.910   0.523   9.172
 6294SOL    HW119418   3.991   0.510   9.123
 6294SOL    HW219419   3.867   0.598   9.131
 6295SOL     OW19420   0.023   0.544   7.710
 6295SOL    HW119421   0.027   0.510   7.799
 6295SOL    HW219422   4.455   0.611   7.713
 6296SOL     OW19423   3.965   1.552   9.171
 6296SOL    HW119424   3.940   1.617   9.237
 6296SOL    HW219425   3.965   1.469   9.218
 6297SOL     OW19426   4.184   0.494   7.628
 6297SOL    HW119427   4.243   0.565   7.650
 6297SOL    HW219428   4.099   0.536   7.614
 6298SOL     OW19429   3.865   1.141   8.922
 6298SOL    HW119430   3.867   1.094   9.005
 6298SOL    HW219431   3.882   1.074   8.855
 6299SOL     OW19432   3.813   1.270   8.459
 6299SOL    HW119433   3.794   1.282   8.552
 6299SOL    HW219434   3.743   1.213   8.428
 6300SOL     OW19435   4.389   1.653   9.143
 6300SOL    HW119436   4.355   1.732   9.185
 6300SOL    HW219437   4.401   1.677   9.052
 6301SOL     OW19438   3.865   1.796   9.291
 6301SOL    HW119439   3.814   1.730   9.339
 6301SOL    HW219440   3.911   1.845   9.359
 6302SOL     OW19441   3.983   0.317   8.159
 6302SOL    HW119442   3.898   0.354   8.137
 6302SOL    HW219443   3.984   0.312   8.255
 6303SOL     OW19444   4.084   1.311   8.938
 6303SOL    HW119445   4.063   1.385   8.881
 6303SOL    HW219446   4.012   1.249   8.923
 6304SOL     OW19447   4.327   1.490   7.927
 6304SOL    HW119448   4.343   1.431   7.853
 6304SOL    HW219449   4.259   1.549   7.896
 6305SOL     OW19450   3.985   1.345   7.739
 6305SOL    HW119451   3.893   1.341   7.715
 6305SOL    HW219452   3.986   1.385   7.826
 6306SOL     OW19453   3.838   1.033   9.173
 6306SOL    HW119454   3.761   1.005   9.223
 6306SOL    HW219455   3.911   0.989   9.215
 6307SOL     OW19456   4.363   0.204   8.939
 6307SOL    HW119457   4.455   0.228   8.931
 6307SOL    HW219458   4.356   0.163   9.025
 6308SOL     OW19459   3.807   0.328   7.496
 6308SOL    HW119460   3.737   0.273   7.461
 6308SOL    HW219461   3.813   0.401   7.434
 6309SOL     OW19462   3.786   0.190   7.756
 6309SOL    HW119463   3.789   0.257   7.688
 6309SOL    HW219464   3.862   0.134   7.738
 6310SOL     OW19465   4.344   0.840   8.890
 6310SOL    HW119466   4.374   0.929   8.867
 6310SOL    HW219467   4.422   0.797   8.924
 6311SOL     OW19468   4.384   0.564   9.180
 6311SOL    HW119469   4.410   0.636   9.237
 6311SOL    HW219470   4.467   0.527   9.149
 6312SOL     OW19471   4.104   1.741   9.009
 6312SOL    HW119472   4.021   1.786   8.994
 6312SOL    HW219473   4.079   1.660   9.055
 6313SOL     OW19474   4.307   0.727   8.118
 6313SOL    HW119475   4.347   0.812   8.103
 6313SOL    HW219476   4.239   0.720   8.051
 6314SOL     OW19477   3.940   1.305   9.300
 6314SOL    HW119478   3.880   1.238   9.268
 6314SOL    HW219479   3.918   1.316   9.392
 6315SOL     OW19480   3.814   1.230   8.114
 6315SOL    HW119481   3.823   1.185   8.198
 6315SOL    HW219482   3.880   1.190   8.057
 6316SOL     OW19483   4.427   1.387   9.124
 6316SOL    HW119484   4.337   1.359   9.106
 6316SOL    HW219485   4.422   1.482   9.132
 6317SOL     OW19486   4.168   0.435   7.987
 6317SOL    HW119487   4.186   0.369   7.919
 6317SOL    HW219488   4.109   0.391   8.048
 6318SOL     OW19489   4.056   0.561   8.736
 6318SOL    HW119490   4.108   0.502   8.791
 6318SOL    HW219491   4.077   0.534   8.646
 6319SOL     OW19492   0.034   1.611   8.137
 6319SOL    HW119493   0.060   1.679   8.075
 6319SOL    HW219494   4.470   1.559   8.089
 6320SOL     OW19495   3.767   1.066   7.755
 6320SOL    HW119496   3.860   1.057   7.737
 6320SOL    HW219497   3.738   0.977   7.778
 6321SOL     OW19498   3.949   0.625   9.434
 6321SOL    HW119499   3.863   0.617   9.475
 6321SOL    HW219500   3.935   0.597   9.343
 6322SOL     OW19501   3.925   0.311  10.300
 6322SOL    HW119502   3.961   0.278  10.382
 6322SOL    HW219503   3.846   0.259  10.286
 6323SOL     OW19504   3.729   0.393   9.944
 6323SOL    HW119505   3.642   0.409   9.983
 6323SOL    HW219506   3.715   0.321   9.883
 6324SOL     OW19507   4.265   1.232  10.458
 6324SOL    HW119508   4.204   1.302  10.433
 6324SOL    HW219509   4.338   1.279  10.499
 6325SOL     OW19510   0.024   0.811   0.083
 6325SOL    HW119511   0.110   0.838   0.114
 6325SOL    HW219512   0.037   0.790  11.090
 6326SOL     OW19513   4.401   0.985   9.934
 6326SOL    HW119514   4.476   0.977   9.993
 6326SOL    HW219515   4.342   1.045   9.978
 6327SOL     OW19516   4.066   1.428  10.378
 6327SOL    HW119517   3.992   1.383  10.337
 6327SOL    HW219518   4.106   1.478  10.307
 6328SOL     OW19519   4.176   0.398  10.786
 6328SOL    HW119520   4.246   0.333  10.796
 6328SOL    HW219521   4.097   0.351  10.813
 6329SOL     OW19522   3.941   1.716   9.780
 6329SOL    HW119523   3.960   1.791   9.837
 6329SOL    HW219524   4.018   1.707   9.725
 6330SOL     OW19525   3.956   1.444   9.846
 6330SOL    HW119526   3.934   1.537   9.850
 6330SOL    HW219527   3.899   1.403   9.911
 6331SOL     OW19528   3.981   1.088  10.195
 6331SOL    HW119529   3.984   1.003  10.237
 6331SOL    HW219530   3.931   1.143  10.255
 6332SOL     OW19531   4.353   1.809  10.746
 6332SOL    HW119532   4.267   1.779  10.778
 6332SOL    HW219533   4.354   1.902  10.767
 6333SOL     OW19534   4.307   0.986   9.454
 6333SOL    HW119535   4.340   1.034   9.378
 6333SOL    HW219536   4.375   0.999   9.521
 6334SOL     OW19537   3.842   0.655   9.871
 6334SOL    HW119538   3.810   0.568   9.894
 6334SOL    HW219539   3.834   0.706   9.952
 6335SOL     OW19540   3.762   1.591   9.431
 6335SOL    HW119541   3.742   1.499   9.451
 6335SOL    HW219542   3.736   1.639   9.510
 6336SOL     OW19543   3.851   0.726  10.921
 6336SOL    HW119544   3.943   0.749  10.904
 6336SOL    HW219545   3.804   0.808  10.911
 6337SOL     OW19546   4.304   1.389  10.047
 6337SOL    HW119547   4.269   1.300  10.048
 6337SOL    HW219548   4.309   1.412   9.954
 6338SOL     OW19549   0.015   0.008   9.808
 6338SOL    HW119550   0.048   0.075   9.747
 6338SOL    HW219551   4.428   0.040   9.833
 6339SOL     OW19552   3.909   0.957  10.582
 6339SOL    HW119553   3.996   0.920  10.566
 6339SOL    HW219554   3.851   0.909  10.524
 6340SOL     OW19555   4.056   0.283  11.084
 6340SOL    HW119556   4.113   0.342   0.033
 6340SOL    HW219557   3.972   0.287   0.029
 6341SOL     OW19558   4.311   0.724   9.580
 6341SOL    HW119559   4.305   0.806   9.531
 6341SOL    HW219560   4.247   0.732   9.650
 6342SOL     OW19561   3.811   0.823  10.086
 6342SOL    HW119562   3.892   0.815  10.138
 6342SOL    HW219563   3.769   0.902  10.122
 6343SOL     OW19564   3.857   1.858  10.900
 6343SOL    HW119565   3.845   1.816  10.985
 6343SOL    HW219566   3.778   1.835  10.851
 6344SOL     OW19567   4.233   0.206  10.216
 6344SOL    HW119568   4.285   0.225  10.294
 6344SOL    HW219569   4.256   0.275  10.155
 6345SOL     OW19570   4.083   1.818  10.179
 6345SOL    HW119571   4.136   1.739  10.187
 6345SOL    HW219572   4.145   1.890  10.189
 6346SOL     OW19573   4.038   0.962   9.563
 6346SOL    HW119574   4.122   0.980   9.521
 6346SOL    HW219575   4.011   0.878   9.525
 6347SOL     OW19576   4.173   1.263  11.058
 6347SOL    HW119577   4.147   1.282  10.968
 6347SOL    HW219578   4.107   1.201  11.089
 6348SOL     OW19579   3.926   0.271  10.823
 6348SOL    HW119580   3.853   0.333  10.821
 6348SOL    HW219581   3.952   0.268  10.916
 6349SOL     OW19582   4.189   1.734   9.635
 6349SOL    HW119583   4.225   1.795   9.699
 6349SOL    HW219584   4.258   1.724   9.570
 6350SOL     OW19585   3.981   1.793  10.540
 6350SOL    HW119586   4.026   1.718  10.580
 6350SOL    HW219587   3.968   1.766  10.449
 6351SOL     OW19588   4.115   0.691   9.780
 6351SOL    HW119589   4.136   0.599   9.798
 6351SOL    HW219590   4.021   0.698   9.800
 6352SOL     OW19591   4.327   0.116   9.427
 6352SOL    HW119592   4.411   0.073   9.437
 6352SOL    HW219593   4.303   0.103   9.336
 6353SOL     OW19594   0.024   1.416  10.213
 6353SOL    HW119595   0.068   1.481  10.158
 6353SOL    HW219596   4.447   1.391  10.163
 6354SOL     OW19597   4.274   0.115   9.854
 6354SOL    HW119598   4.190   0.077   9.881
 6354SOL    HW219599   4.254   0.164   9.775
 6355SOL     OW19600   4.022   0.064   9.519
 6355SOL    HW119601   4.101   0.115   9.501
 6355SOL    HW219602   4.050   4.500   9.584
 6356SOL     OW19603   0.307   0.678  10.782
 6356SOL    HW119604   0.281   0.592  10.748
 6356SOL    HW219605   0.398   0.666  10.810
 6357SOL     OW19606   4.192   1.143  10.034
 6357SOL    HW119607   4.127   1.123  10.100
 6357SOL    HW219608   4.147   1.129   9.950
 6358SOL     OW19609   3.811   0.544  10.714
 6358SOL    HW119610   3.900   0.553  10.681
 6358SOL    HW219611   3.806   0.608  10.786
 6359SOL     OW19612   4.301   0.237  10.484
 6359SOL    HW119613   4.289   0.142  10.491
 6359SOL    HW219614   4.215   0.273  10.505
 6360SOL     OW19615   4.231   1.384   9.484
 6360SOL    HW119616   4.146   1.370   9.525
 6360SOL    HW219617   4.212   1.394   9.391
 6361SOL     OW19618   4.238   0.270   9.632
 6361SOL    HW119619   4.282   0.215   9.567
 6361SOL    HW219620   4.217   0.351   9.585
 6362SOL     OW19621   4.145   0.816  10.560
 6362SOL    HW119622   4.213   0.823  10.626
 6362SOL    HW219623   4.110   0.728  10.571
 6363SOL     OW19624   3.797   1.578  10.669
 6363SOL    HW119625   3.766   1.645  10.607
 6363SOL    HW219626   3.892   1.577  10.657
 6364SOL     OW19627   4.056   1.117   9.798
 6364SOL    HW119628   4.058   1.190   9.735
 6364SOL    HW219629   4.057   1.039   9.743
 6365SOL     OW19630   4.308   0.535  10.176
 6365SOL    HW119631   4.306   0.603  10.109
 6365SOL    HW219632   4.375   0.564  10.238
 6366SOL     OW19633   4.071   1.538  10.623
 6366SOL    HW119634   4.069   1.492  10.539
 6366SOL    HW219635   4.164   1.540  10.647
 6367SOL     OW19636   4.136   0.731  10.898
 6367SOL    HW119637   4.204   0.773  10.845
 6367SOL    HW219638   4.156   0.638  10.893
 6368SOL     OW19639   4.285   0.903  10.335
 6368SOL    HW119640   4.306   0.994  10.352
 6368SOL    HW219641   4.242   0.873  10.416
 6369SOL     OW19642   4.015   0.236  10.550
 6369SOL    HW119643   3.975   0.250  10.636
 6369SOL    HW219644   4.056   0.149  10.556
 6370SOL     OW19645   3.778   1.315  10.582
 6370SOL    HW119646   3.803   1.256  10.653
 6370SOL    HW219647   3.774   1.401  10.623
 6371SOL     OW19648   4.012   0.046   9.960
 6371SOL    HW119649   4.000   0.141   9.962
 6371SOL    HW219650   4.022   0.021  10.052
 6372SOL     OW19651   4.082   0.912  11.094
 6372SOL    HW119652   4.165   0.932   0.037
 6372SOL    HW219653   4.105   0.846  11.028
 6373SOL     OW19654   4.031   0.809  10.254
 6373SOL    HW119655   4.121   0.840  10.256
 6373SOL    HW219656   4.035   0.718  10.284
 6374SOL     OW19657   4.074   0.536  10.322
 6374SOL    HW119658   4.028   0.455  10.300
 6374SOL    HW219659   4.154   0.533  10.269
 6375SOL     OW19660   3.730   1.318   9.505
 6375SOL    HW119661   3.643   1.333   9.469
 6375SOL    HW219662   3.726   1.229   9.540
 6376SOL     OW19663   3.818   1.783  10.252
 6376SOL    HW119664   3.787   1.706  10.205
 6376SOL    HW219665   3.907   1.797  10.220
 6377SOL     OW19666   4.233   1.588  10.215
 6377SOL    HW119667   4.319   1.609  10.252
 6377SOL    HW219668   4.250   1.520  10.150
 6378SOL     OW19669   3.756   0.546  10.431
 6378SOL    HW119670   3.826   0.515  10.374
 6378SOL    HW219671   3.794   0.546  10.519
 6379SOL     OW19672   0.023   0.544   9.572
 6379SOL    HW119673   0.028   0.510   9.661
 6379SOL    HW219674   4.455   0.611   9.575
 6380SOL     OW19675   3.977   1.566  11.043
 6380SOL    HW119676   3.916   1.588   0.014
 6380SOL    HW219677   3.998   1.474  11.058
 6381SOL     OW19678   4.184   0.493   9.490
 6381SOL    HW119679   4.243   0.565   9.512
 6381SOL    HW219680   4.099   0.536   9.476
 6382SOL     OW19681   3.873   1.138  10.778
 6382SOL    HW119682   3.867   1.087  10.858
 6382SOL    HW219683   3.886   1.073  10.709
 6383SOL     OW19684   3.813   1.271  10.319
 6383SOL    HW119685   3.797   1.284  10.413
 6383SOL    HW219686   3.743   1.213  10.291
 6384SOL     OW19687   4.378   1.664  10.994
 6384SOL    HW119688   4.291   1.698  10.974
 6384SOL    HW219689   4.419   1.651  10.909
 6385SOL     OW19690   3.984   0.317  10.022
 6385SOL    HW119691   3.898   0.354   9.999
 6385SOL    HW219692   3.983   0.312  10.117
 6386SOL     OW19693   4.075   1.318  10.816
 6386SOL    HW119694   4.065   1.387  10.750
 6386SOL    HW219695   4.009   1.253  10.793
 6387SOL     OW19696   4.327   1.490   9.789
 6387SOL    HW119697   4.343   1.431   9.715
 6387SOL    HW219698   4.259   1.549   9.758
 6388SOL     OW19699   3.985   1.345   9.601
 6388SOL    HW119700   3.893   1.341   9.577
 6388SOL    HW219701   3.986   1.385   9.688
 6389SOL     OW19702   3.844   1.016  11.018
 6389SOL    HW119703   3.777   1.008  11.084
 6389SOL    HW219704   3.923   0.980  11.058
 6390SOL     OW19705   4.364   0.191  10.821
 6390SOL    HW119706   4.422   0.207  10.747
 6390SOL    HW219707   4.416   0.211  10.898
 6391SOL     OW19708   3.807   0.328   9.358
 6391SOL    HW119709   3.737   0.273   9.322
 6391SOL    HW219710   3.813   0.401   9.296
 6392SOL     OW19711   3.786   0.190   9.618
 6392SOL    HW119712   3.789   0.257   9.550
 6392SOL    HW219713   3.862   0.134   9.600
 6393SOL     OW19714   4.344   0.840  10.749
 6393SOL    HW119715   4.371   0.929  10.728
 6393SOL    HW219716   4.424   0.796  10.777
 6394SOL     OW19717   4.119   1.736  10.882
 6394SOL    HW119718   4.047   1.797  10.867
 6394SOL    HW219719   4.081   1.665  10.933
 6395SOL     OW19720   4.307   0.727   9.981
 6395SOL    HW119721   4.347   0.812   9.965
 6395SOL    HW219722   4.239   0.720   9.914
 6396SOL     OW19723   3.813   1.230   9.976
 6396SOL    HW119724   3.823   1.185  10.060
 6396SOL    HW219725   3.880   1.190   9.920
 6397SOL     OW19726   4.415   1.386  10.961
 6397SOL    HW119727   4.333   1.343  10.984
 6397SOL    HW219728   4.406   1.475  10.994
 6398SOL     OW19729   4.168   0.435   9.848
 6398SOL    HW119730   4.186   0.369   9.781
 6398SOL    HW219731   4.109   0.391   9.910
 6399SOL     OW19732   4.056   0.559  10.599
 6399SOL    HW119733   4.110   0.499  10.650
 6399SOL    HW219734   4.073   0.536  10.508
 6400SOL     OW19735   0.034   1.612   9.999
 6400SOL    HW119736   0.059   1.679   9.936
 6400SOL    HW219737   4.470   1.558   9.951
 6401SOL     OW19738   3.767   1.066   9.617
 6401SOL    HW119739   3.860   1.057   9.599
 6401SOL    HW219740   3.738   0.977   9.640
 6402SOL     OW19741   3.931   2.470   0.104
 6402SOL    HW119742   3.851   2.479   0.156
 6402SOL    HW219743   3.912   2.520   0.024
 6403SOL     OW19744   3.947   2.153   0.993
 6403SOL    HW119745   3.978   2.115   1.075
 6403SOL    HW219746   3.858   2.118   0.982
 6404SOL     OW19747   3.723   2.247   0.638
 6404SOL    HW119748   3.641   2.272   0.680
 6404SOL    HW219749   3.701   2.169   0.588
 6405SOL     OW19750   4.265   3.094   1.146
 6405SOL    HW119751   4.204   3.164   1.123
 6405SOL    HW219752   4.337   3.139   1.189
 6406SOL     OW19753   0.013   2.637   1.856
 6406SOL    HW119754   0.067   2.667   1.930
 6406SOL    HW219755   0.056   2.673   1.779
 6407SOL     OW19756   4.399   2.845   0.623
 6407SOL    HW119757   4.477   2.845   0.678
 6407SOL    HW219758   4.339   2.906   0.667
 6408SOL     OW19759   4.418   3.018   1.809
 6408SOL    HW119760   4.455   3.098   1.771
 6408SOL    HW219761   4.324   3.023   1.792
 6409SOL     OW19762   4.064   3.291   1.068
 6409SOL    HW119763   3.991   3.245   1.026
 6409SOL    HW219764   4.106   3.340   0.998
 6410SOL     OW19765   4.172   2.259   1.475
 6410SOL    HW119766   4.247   2.201   1.483
 6410SOL    HW219767   4.096   2.204   1.495
 6411SOL     OW19768   3.940   3.577   0.472
 6411SOL    HW119769   3.959   3.653   0.527
 6411SOL    HW219770   4.014   3.571   0.412
 6412SOL     OW19771   3.950   3.306   0.531
 6412SOL    HW119772   3.933   3.400   0.534
 6412SOL    HW219773   3.894   3.269   0.600
 6413SOL     OW19774   3.980   2.950   0.886
 6413SOL    HW119775   3.984   2.864   0.927
 6413SOL    HW219776   3.930   3.005   0.947
 6414SOL     OW19777   4.362   3.657   1.460
 6414SOL    HW119778   4.272   3.630   1.478
 6414SOL    HW219779   4.358   3.752   1.458
 6415SOL     OW19780   4.293   2.875   0.141
 6415SOL    HW119781   4.303   2.950   0.082
 6415SOL    HW219782   4.376   2.871   0.188
 6416SOL     OW19783   3.838   2.515   0.561
 6416SOL    HW119784   3.807   2.428   0.584
 6416SOL    HW219785   3.830   2.565   0.642
 6417SOL     OW19786   3.777   3.458   0.116
 6417SOL    HW119787   3.749   3.371   0.144
 6417SOL    HW219788   3.750   3.516   0.187
 6418SOL     OW19789   3.847   2.605   1.585
 6418SOL    HW119790   3.938   2.635   1.588
 6418SOL    HW219791   3.795   2.686   1.587
 6419SOL     OW19792   4.304   3.251   0.738
 6419SOL    HW119793   4.270   3.162   0.739
 6419SOL    HW219794   4.309   3.274   0.645
 6420SOL     OW19795   0.019   1.873   0.533
 6420SOL    HW119796   0.050   1.925   0.460
 6420SOL    HW219797   4.425   1.885   0.534
 6421SOL     OW19798   3.910   2.822   1.278
 6421SOL    HW119799   3.996   2.785   1.262
 6421SOL    HW219800   3.851   2.775   1.219
 6422SOL     OW19801   4.066   2.110   1.823
 6422SOL    HW119802   4.105   2.195   1.842
 6422SOL    HW219803   3.974   2.121   1.847
 6423SOL     OW19804   4.307   2.570   0.266
 6423SOL    HW119805   4.333   2.652   0.224
 6423SOL    HW219806   4.249   2.598   0.338
 6424SOL     OW19807   3.811   2.686   0.775
 6424SOL    HW119808   3.891   2.677   0.826
 6424SOL    HW219809   3.768   2.764   0.811
 6425SOL     OW19810   3.853   3.729   1.582
 6425SOL    HW119811   3.856   3.705   1.675
 6425SOL    HW219812   3.768   3.696   1.552
 6426SOL     OW19813   4.245   2.048   0.881
 6426SOL    HW119814   4.266   2.055   0.974
 6426SOL    HW219815   4.255   2.137   0.847
 6427SOL     OW19816   4.083   3.679   0.870
 6427SOL    HW119817   4.136   3.600   0.877
 6427SOL    HW219818   4.145   3.751   0.879
 6428SOL     OW19819   4.038   2.827   0.278
 6428SOL    HW119820   4.119   2.849   0.233
 6428SOL    HW219821   4.016   2.739   0.248
 6429SOL     OW19822   4.176   3.112   1.733
 6429SOL    HW119823   4.150   3.127   1.642
 6429SOL    HW219824   4.095   3.122   1.783
 6430SOL     OW19825   3.926   2.136   1.504
 6430SOL    HW119826   3.845   2.187   1.506
 6430SOL    HW219827   3.903   2.054   1.548
 6431SOL     OW19828   4.190   3.589   0.330
 6431SOL    HW119829   4.225   3.655   0.390
 6431SOL    HW219830   4.260   3.576   0.265
 6432SOL     OW19831   3.980   3.654   1.229
 6432SOL    HW119832   4.025   3.580   1.268
 6432SOL    HW219833   3.966   3.630   1.137
 6433SOL     OW19834   4.109   2.553   0.473
 6433SOL    HW119835   4.133   2.462   0.489
 6433SOL    HW219836   4.017   2.558   0.497
 6434SOL     OW19837   4.358   1.995   0.109
 6434SOL    HW119838   4.439   1.950   0.132
 6434SOL    HW219839   4.323   1.944   0.036
 6435SOL     OW19840   0.025   3.278   0.903
 6435SOL    HW119841   0.067   3.344   0.848
 6435SOL    HW219842   4.447   3.252   0.854
 6436SOL     OW19843   4.257   1.928   0.496
 6436SOL    HW119844   4.177   1.931   0.548
 6436SOL    HW219845   4.252   2.006   0.441
 6437SOL     OW19846   4.005   1.911   0.203
 6437SOL    HW119847   4.047   1.968   0.138
 6437SOL    HW219848   4.073   1.848   0.226
 6438SOL     OW19849   0.329   2.529   1.452
 6438SOL    HW119850   0.289   2.456   1.405
 6438SOL    HW219851   0.412   2.495   1.484
 6439SOL     OW19852   4.194   3.004   0.728
 6439SOL    HW119853   4.129   2.985   0.795
 6439SOL    HW219854   4.147   2.996   0.645
 6440SOL     OW19855   3.807   2.415   1.393
 6440SOL    HW119856   3.898   2.415   1.364
 6440SOL    HW219857   3.802   2.485   1.458
 6441SOL     OW19858   4.280   2.069   1.150
 6441SOL    HW119859   4.329   2.016   1.213
 6441SOL    HW219860   4.193   2.078   1.188
 6442SOL     OW19861   4.240   3.254   0.194
 6442SOL    HW119862   4.155   3.244   0.236
 6442SOL    HW219863   4.225   3.230   0.102
 6443SOL     OW19864   4.246   2.134   0.320
 6443SOL    HW119865   4.288   2.081   0.253
 6443SOL    HW219866   4.218   2.213   0.274
 6444SOL     OW19867   4.143   2.677   1.252
 6444SOL    HW119868   4.212   2.684   1.319
 6444SOL    HW219869   4.108   2.589   1.263
 6445SOL     OW19870   3.797   3.436   1.357
 6445SOL    HW119871   3.765   3.505   1.298
 6445SOL    HW219872   3.892   3.438   1.347
 6446SOL     OW19873   4.052   2.992   0.497
 6446SOL    HW119874   4.054   3.065   0.436
 6446SOL    HW219875   4.052   2.914   0.441
 6447SOL     OW19876   4.305   2.396   0.867
 6447SOL    HW119877   4.303   2.464   0.800
 6447SOL    HW219878   4.373   2.424   0.928
 6448SOL     OW19879   4.071   3.401   1.312
 6448SOL    HW119880   4.069   3.356   1.228
 6448SOL    HW219881   4.163   3.401   1.337
 6449SOL     OW19882   4.140   2.603   1.607
 6449SOL    HW119883   4.201   2.644   1.545
 6449SOL    HW219884   4.182   2.520   1.629
 6450SOL     OW19885   4.235   1.914   1.733
 6450SOL    HW119886   4.186   1.855   1.675
 6450SOL    HW219887   4.172   1.982   1.756
 6451SOL     OW19888   4.283   2.763   1.027
 6451SOL    HW119889   4.305   2.855   1.042
 6451SOL    HW219890   4.241   2.735   1.108
 6452SOL     OW19891   4.022   2.061   1.247
 6452SOL    HW119892   3.984   2.092   1.329
 6452SOL    HW219893   4.003   1.967   1.247
 6453SOL     OW19894   3.771   3.174   1.275
 6453SOL    HW119895   3.802   3.117   1.346
 6453SOL    HW219896   3.775   3.262   1.312
 6454SOL     OW19897   4.020   1.926   0.628
 6454SOL    HW119898   4.001   2.017   0.650
 6454SOL    HW219899   4.035   1.883   0.712
 6455SOL     OW19900   4.074   2.776   1.810
 6455SOL    HW119901   4.155   2.790   1.859
 6455SOL    HW219902   4.098   2.711   1.743
 6456SOL     OW19903   4.030   2.670   0.944
 6456SOL    HW119904   4.121   2.700   0.947
 6456SOL    HW219905   4.034   2.579   0.973
 6457SOL     OW19906   4.067   2.394   1.008
 6457SOL    HW119907   4.029   2.307   0.993
 6457SOL    HW219908   4.148   2.393   0.957
 6458SOL     OW19909   3.734   3.188   0.193
 6458SOL    HW119910   3.647   3.200   0.155
 6458SOL    HW219911   3.733   3.098   0.226
 6459SOL     OW19912   3.818   3.644   0.943
 6459SOL    HW119913   3.787   3.567   0.896
 6459SOL    HW219914   3.907   3.659   0.910
 6460SOL     OW19915   4.233   3.450   0.906
 6460SOL    HW119916   4.319   3.471   0.941
 6460SOL    HW219917   4.250   3.382   0.840
 6461SOL     OW19918   3.759   2.409   1.116
 6461SOL    HW119919   3.838   2.396   1.064
 6461SOL    HW219920   3.790   2.411   1.207
 6462SOL     OW19921   3.915   2.384   1.731
 6462SOL    HW119922   3.971   2.342   1.666
 6462SOL    HW219923   3.877   2.459   1.686
 6463SOL     OW19924   0.023   2.397   0.262
 6463SOL    HW119925   0.030   2.373   0.354
 6463SOL    HW219926   4.453   2.463   0.260
 6464SOL     OW19927   3.965   3.414   1.722
 6464SOL    HW119928   3.940   3.479   1.788
 6464SOL    HW219929   3.966   3.331   1.770
 6465SOL     OW19930   4.174   2.350   0.169
 6465SOL    HW119931   4.231   2.420   0.199
 6465SOL    HW219932   4.090   2.392   0.153
 6466SOL     OW19933   3.865   3.003   1.474
 6466SOL    HW119934   3.867   2.955   1.557
 6466SOL    HW219935   3.882   2.936   1.407
 6467SOL     OW19936   3.812   3.132   1.011
 6467SOL    HW119937   3.794   3.144   1.105
 6467SOL    HW219938   3.742   3.075   0.980
 6468SOL     OW19939   4.389   3.514   1.696
 6468SOL    HW119940   4.355   3.593   1.738
 6468SOL    HW219941   4.401   3.539   1.604
 6469SOL     OW19942   3.866   3.656   1.843
 6469SOL    HW119943   3.815   3.591   1.891
 6469SOL    HW219944   3.910   3.707   1.911
 6470SOL     OW19945   3.981   2.181   0.714
 6470SOL    HW119946   3.893   2.213   0.693
 6470SOL    HW219947   3.981   2.173   0.810
 6471SOL     OW19948   4.084   3.173   1.490
 6471SOL    HW119949   4.063   3.247   1.432
 6471SOL    HW219950   4.012   3.111   1.475
 6472SOL     OW19951   4.324   3.354   0.481
 6472SOL    HW119952   4.339   3.298   0.404
 6472SOL    HW219953   4.256   3.415   0.453
 6473SOL     OW19954   3.993   3.201   0.291
 6473SOL    HW119955   3.907   3.200   0.250
 6473SOL    HW219956   3.979   3.243   0.376
 6474SOL     OW19957   3.838   2.895   1.725
 6474SOL    HW119958   3.761   2.867   1.775
 6474SOL    HW219959   3.911   2.851   1.768
 6475SOL     OW19960   4.385   2.067   1.493
 6475SOL    HW119961   4.476   2.076   1.463
 6475SOL    HW219962   4.393   2.055   1.588
 6476SOL     OW19963   3.809   2.195   0.046
 6476SOL    HW119964   3.736   2.176  11.087
 6476SOL    HW219965   3.823   2.290   0.037
 6477SOL     OW19966   3.783   2.020   0.309
 6477SOL    HW119967   3.773   2.097   0.252
 6477SOL    HW219968   3.867   1.982   0.282
 6478SOL     OW19969   4.343   2.701   1.440
 6478SOL    HW119970   4.376   2.789   1.421
 6478SOL    HW219971   4.419   2.653   1.472
 6479SOL     OW19972   4.388   2.420   1.740
 6479SOL    HW119973   4.411   2.495   1.794
 6479SOL    HW219974   4.471   2.391   1.703
 6480SOL     OW19975   4.104   3.603   1.561
 6480SOL    HW119976   4.021   3.648   1.546
 6480SOL    HW219977   4.080   3.523   1.606
 6481SOL     OW19978   4.306   2.587   0.671
 6481SOL    HW119979   4.346   2.673   0.657
 6481SOL    HW219980   4.237   2.582   0.605
 6482SOL     OW19981   3.940   3.167   1.852
 6482SOL    HW119982   3.880   3.100   1.820
 6482SOL    HW219983   3.918   3.178   1.944
 6483SOL     OW19984   3.814   3.090   0.667
 6483SOL    HW119985   3.826   3.044   0.750
 6483SOL    HW219986   3.883   3.056   0.610
 6484SOL     OW19987   4.427   3.249   1.676
 6484SOL    HW119988   4.337   3.221   1.658
 6484SOL    HW219989   4.422   3.344   1.684
 6485SOL     OW19990   4.164   2.295   0.536
 6485SOL    HW119991   4.183   2.228   0.471
 6485SOL    HW219992   4.104   2.252   0.597
 6486SOL     OW19993   4.056   2.420   1.288
 6486SOL    HW119994   4.109   2.363   1.344
 6486SOL    HW219995   4.077   2.392   1.199
 6487SOL     OW19996   0.034   3.472   0.689
 6487SOL    HW119997   0.064   3.538   0.628
 6487SOL    HW219998   4.468   3.422   0.641
 6488SOL     OW19999   3.765   2.929   0.301
 6488SOL    HW120000   3.860   2.925   0.298
 6488SOL    HW220001   3.737   2.841   0.326
 6489SOL     OW20002   3.949   2.486   1.989
 6489SOL    HW120003   3.860   2.482   2.025
 6489SOL    HW220004   3.939   2.462   1.898
 6490SOL     OW20005   3.947   2.153   2.854
 6490SOL    HW120006   3.978   2.116   2.936
 6490SOL    HW220007   3.858   2.118   2.844
 6491SOL     OW20008   3.722   2.247   2.500
 6491SOL    HW120009   3.641   2.273   2.543
 6491SOL    HW220010   3.699   2.168   2.451
 6492SOL     OW20011   4.266   3.094   3.007
 6492SOL    HW120012   4.204   3.164   2.985
 6492SOL    HW220013   4.338   3.139   3.051
 6493SOL     OW20014   0.013   2.637   3.718
 6493SOL    HW120015   0.067   2.667   3.791
 6493SOL    HW220016   0.056   2.672   3.640
 6494SOL     OW20017   4.402   2.846   2.485
 6494SOL    HW120018   4.475   2.837   2.546
 6494SOL    HW220019   4.342   2.907   2.530
 6495SOL     OW20020   4.418   3.018   3.671
 6495SOL    HW120021   4.455   3.098   3.633
 6495SOL    HW220022   4.324   3.023   3.654
 6496SOL     OW20023   4.064   3.291   2.931
 6496SOL    HW120024   3.991   3.245   2.889
 6496SOL    HW220025   4.106   3.340   2.860
 6497SOL     OW20026   4.172   2.259   3.337
 6497SOL    HW120027   4.247   2.201   3.345
 6497SOL    HW220028   4.096   2.204   3.357
 6498SOL     OW20029   3.941   3.578   2.333
 6498SOL    HW120030   3.960   3.653   2.388
 6498SOL    HW220031   4.018   3.569   2.277
 6499SOL     OW20032   3.956   3.306   2.398
 6499SOL    HW120033   3.935   3.399   2.401
 6499SOL    HW220034   3.899   3.266   2.463
 6500SOL     OW20035   3.980   2.950   2.746
 6500SOL    HW120036   3.985   2.864   2.789
 6500SOL    HW220037   3.931   3.005   2.808
 6501SOL     OW20038   4.362   3.657   3.322
 6501SOL    HW120039   4.272   3.630   3.340
 6501SOL    HW220040   4.359   3.752   3.320
 6502SOL     OW20041   4.307   2.849   2.007
 6502SOL    HW120042   4.341   2.895   1.930
 6502SOL    HW220043   4.375   2.861   2.073
 6503SOL     OW20044   3.842   2.515   2.423
 6503SOL    HW120045   3.808   2.428   2.445
 6503SOL    HW220046   3.833   2.565   2.504
 6504SOL     OW20047   3.762   3.453   1.983
 6504SOL    HW120048   3.742   3.362   2.003
 6504SOL    HW220049   3.736   3.501   2.062
 6505SOL     OW20050   3.847   2.605   3.447
 6505SOL    HW120051   3.938   2.635   3.450
 6505SOL    HW220052   3.795   2.686   3.449
 6506SOL     OW20053   4.304   3.251   2.599
 6506SOL    HW120054   4.269   3.162   2.600
 6506SOL    HW220055   4.309   3.274   2.506
 6507SOL     OW20056   0.022   1.871   2.386
 6507SOL    HW120057   0.051   1.929   2.316
 6507SOL    HW220058   4.427   1.885   2.391
 6508SOL     OW20059   3.910   2.822   3.140
 6508SOL    HW120060   3.996   2.785   3.124
 6508SOL    HW220061   3.851   2.775   3.081
 6509SOL     OW20062   4.066   2.110   3.685
 6509SOL    HW120063   4.105   2.196   3.704
 6509SOL    HW220064   3.974   2.121   3.709
 6510SOL     OW20065   4.310   2.586   2.132
 6510SOL    HW120066   4.304   2.668   2.083
 6510SOL    HW220067   4.246   2.595   2.202
 6511SOL     OW20068   3.811   2.685   2.638
 6511SOL    HW120069   3.892   2.676   2.689
 6511SOL    HW220070   3.769   2.763   2.673
 6512SOL     OW20071   3.853   3.728   3.444
 6512SOL    HW120072   3.856   3.705   3.537
 6512SOL    HW220073   3.767   3.697   3.414
 6513SOL     OW20074   4.245   2.047   2.743
 6513SOL    HW120075   4.266   2.055   2.836
 6513SOL    HW220076   4.255   2.136   2.709
 6514SOL     OW20077   4.083   3.679   2.732
 6514SOL    HW120078   4.136   3.600   2.739
 6514SOL    HW220079   4.145   3.751   2.741
 6515SOL     OW20080   4.039   2.824   2.115
 6515SOL    HW120081   4.123   2.843   2.074
 6515SOL    HW220082   4.011   2.741   2.077
 6516SOL     OW20083   4.176   3.113   3.595
 6516SOL    HW120084   4.150   3.127   3.504
 6516SOL    HW220085   4.095   3.122   3.645
 6517SOL     OW20086   3.926   2.135   3.366
 6517SOL    HW120087   3.845   2.187   3.367
 6517SOL    HW220088   3.903   2.053   3.409
 6518SOL     OW20089   4.190   3.596   2.188
 6518SOL    HW120090   4.226   3.657   2.252
 6518SOL    HW220091   4.258   3.589   2.121
 6519SOL     OW20092   3.979   3.654   3.091
 6519SOL    HW120093   4.025   3.580   3.130
 6519SOL    HW220094   3.966   3.629   2.999
 6520SOL     OW20095   4.115   2.552   2.334
 6520SOL    HW120096   4.136   2.460   2.351
 6520SOL    HW220097   4.021   2.558   2.353
 6521SOL     OW20098   4.339   1.966   1.982
 6521SOL    HW120099   4.434   1.953   1.982
 6521SOL    HW220100   4.312   1.945   1.893
 6522SOL     OW20101   0.024   3.278   2.765
 6522SOL    HW120102   0.068   3.343   2.710
 6522SOL    HW220103   4.446   3.252   2.715
 6523SOL     OW20104   4.259   1.928   2.361
 6523SOL    HW120105   4.179   1.932   2.415
 6523SOL    HW220106   4.253   2.006   2.305
 6524SOL     OW20107   4.016   1.911   2.048
 6524SOL    HW120108   4.077   1.973   2.007
 6524SOL    HW220109   4.073   1.848   2.093
 6525SOL     OW20110   0.329   2.529   3.315
 6525SOL    HW120111   0.289   2.457   3.267
 6525SOL    HW220112   0.412   2.495   3.346
 6526SOL     OW20113   4.192   3.005   2.586
 6526SOL    HW120114   4.126   2.985   2.652
 6526SOL    HW220115   4.147   2.991   2.502
 6527SOL     OW20116   3.807   2.415   3.255
 6527SOL    HW120117   3.898   2.415   3.226
 6527SOL    HW220118   3.802   2.485   3.320
 6528SOL     OW20119   4.280   2.069   3.011
 6528SOL    HW120120   4.328   2.015   3.074
 6528SOL    HW220121   4.193   2.078   3.049
 6529SOL     OW20122   4.231   3.246   2.036
 6529SOL    HW120123   4.146   3.232   2.077
 6529SOL    HW220124   4.212   3.256   1.943
 6530SOL     OW20125   4.241   2.129   2.181
 6530SOL    HW120126   4.284   2.073   2.116
 6530SOL    HW220127   4.220   2.210   2.134
 6531SOL     OW20128   4.143   2.677   3.114
 6531SOL    HW120129   4.212   2.684   3.181
 6531SOL    HW220130   4.108   2.589   3.125
 6532SOL     OW20131   3.797   3.436   3.219
 6532SOL    HW120132   3.765   3.505   3.161
 6532SOL    HW220133   3.892   3.438   3.209
 6533SOL     OW20134   4.056   2.980   2.350
 6533SOL    HW120135   4.059   3.052   2.288
 6533SOL    HW220136   4.057   2.901   2.295
 6534SOL     OW20137   4.304   2.397   2.730
 6534SOL    HW120138   4.303   2.465   2.662
 6534SOL    HW220139   4.373   2.425   2.790
 6535SOL     OW20140   4.071   3.401   3.174
 6535SOL    HW120141   4.069   3.356   3.090
 6535SOL    HW220142   4.163   3.401   3.199
 6536SOL     OW20143   4.140   2.603   3.469
 6536SOL    HW120144   4.201   2.644   3.407
 6536SOL    HW220145   4.181   2.520   3.491
 6537SOL     OW20146   4.235   1.914   3.595
 6537SOL    HW120147   4.186   1.855   3.537
 6537SOL    HW220148   4.172   1.982   3.618
 6538SOL     OW20149   4.284   2.764   2.889
 6538SOL    HW120150   4.305   2.856   2.905
 6538SOL    HW220151   4.241   2.735   2.970
 6539SOL     OW20152   4.022   2.061   3.109
 6539SOL    HW120153   3.984   2.093   3.191
 6539SOL    HW220154   4.003   1.967   3.108
 6540SOL     OW20155   3.771   3.174   3.137
 6540SOL    HW120156   3.802   3.117   3.208
 6540SOL    HW220157   3.775   3.262   3.174
 6541SOL     OW20158   4.019   1.926   2.490
 6541SOL    HW120159   4.000   2.017   2.512
 6541SOL    HW220160   4.034   1.883   2.574
 6542SOL     OW20161   4.074   2.776   3.672
 6542SOL    HW120162   4.155   2.790   3.721
 6542SOL    HW220163   4.098   2.711   3.605
 6543SOL     OW20164   4.030   2.671   2.806
 6543SOL    HW120165   4.121   2.700   2.809
 6543SOL    HW220166   4.034   2.579   2.835
 6544SOL     OW20167   4.067   2.394   2.870
 6544SOL    HW120168   4.029   2.307   2.855
 6544SOL    HW220169   4.148   2.394   2.820
 6545SOL     OW20170   3.731   3.180   2.057
 6545SOL    HW120171   3.643   3.195   2.021
 6545SOL    HW220172   3.726   3.090   2.092
 6546SOL     OW20173   3.818   3.644   2.805
 6546SOL    HW120174   3.787   3.567   2.758
 6546SOL    HW220175   3.907   3.659   2.772
 6547SOL     OW20176   4.233   3.449   2.768
 6547SOL    HW120177   4.319   3.470   2.804
 6547SOL    HW220178   4.250   3.382   2.702
 6548SOL     OW20179   3.759   2.410   2.978
 6548SOL    HW120180   3.838   2.396   2.926
 6548SOL    HW220181   3.790   2.411   3.069
 6549SOL     OW20182   3.915   2.384   3.593
 6549SOL    HW120183   3.970   2.341   3.528
 6549SOL    HW220184   3.877   2.459   3.548
 6550SOL     OW20185   0.025   2.412   2.123
 6550SOL    HW120186   0.027   2.372   2.210
 6550SOL    HW220187   4.456   2.477   2.128
 6551SOL     OW20188   3.965   3.414   3.584
 6551SOL    HW120189   3.940   3.479   3.650
 6551SOL    HW220190   3.966   3.331   3.632
 6552SOL     OW20191   4.183   2.354   2.045
 6552SOL    HW120192   4.244   2.425   2.066
 6552SOL    HW220193   4.099   2.397   2.032
 6553SOL     OW20194   3.865   3.003   3.336
 6553SOL    HW120195   3.867   2.955   3.419
 6553SOL    HW220196   3.882   2.936   3.269
 6554SOL     OW20197   3.813   3.132   2.873
 6554SOL    HW120198   3.794   3.144   2.966
 6554SOL    HW220199   3.743   3.074   2.842
 6555SOL     OW20200   4.389   3.514   3.558
 6555SOL    HW120201   4.355   3.593   3.600
 6555SOL    HW220202   4.401   3.539   3.467
 6556SOL     OW20203   3.866   3.656   3.705
 6556SOL    HW120204   3.815   3.591   3.753
 6556SOL    HW220205   3.910   3.707   3.773
 6557SOL     OW20206   3.981   2.181   2.575
 6557SOL    HW120207   3.893   2.213   2.554
 6557SOL    HW220208   3.981   2.173   2.671
 6558SOL     OW20209   4.084   3.173   3.351
 6558SOL    HW120210   4.063   3.247   3.295
 6558SOL    HW220211   4.012   3.111   3.337
 6559SOL     OW20212   4.327   3.353   2.341
 6559SOL    HW120213   4.343   3.293   2.268
 6559SOL    HW220214   4.259   3.412   2.309
 6560SOL     OW20215   3.985   3.207   2.153
 6560SOL    HW120216   3.893   3.203   2.129
 6560SOL    HW220217   3.986   3.247   2.240
 6561SOL     OW20218   3.838   2.895   3.587
 6561SOL    HW120219   3.761   2.867   3.637
 6561SOL    HW220220   3.911   2.851   3.630
 6562SOL     OW20221   4.385   2.067   3.356
 6562SOL    HW120222   4.476   2.076   3.325
 6562SOL    HW220223   4.393   2.055   3.450
 6563SOL     OW20224   3.805   2.190   1.894
 6563SOL    HW120225   3.718   2.172   1.860
 6563SOL    HW220226   3.835   2.267   1.846
 6564SOL     OW20227   3.788   2.016   2.165
 6564SOL    HW120228   3.774   2.095   2.113
 6564SOL    HW220229   3.873   1.984   2.137
 6565SOL     OW20230   4.343   2.701   3.303
 6565SOL    HW120231   4.376   2.788   3.283
 6565SOL    HW220232   4.419   2.652   3.334
 6566SOL     OW20233   4.388   2.420   3.602
 6566SOL    HW120234   4.411   2.495   3.657
 6566SOL    HW220235   4.471   2.391   3.565
 6567SOL     OW20236   4.104   3.603   3.423
 6567SOL    HW120237   4.021   3.648   3.408
 6567SOL    HW220238   4.080   3.523   3.468
 6568SOL     OW20239   4.306   2.589   2.533
 6568SOL    HW120240   4.347   2.674   2.518
 6568SOL    HW220241   4.239   2.582   2.466
 6569SOL     OW20242   3.940   3.167   3.714
 6569SOL    HW120243   3.880   3.099   3.682
 6569SOL    HW220244   3.918   3.178   3.806
 6570SOL     OW20245   3.814   3.092   2.528
 6570SOL    HW120246   3.824   3.046   2.611
 6570SOL    HW220247   3.880   3.052   2.471
 6571SOL     OW20248   4.427   3.249   3.538
 6571SOL    HW120249   4.337   3.221   3.520
 6571SOL    HW220250   4.422   3.344   3.546
 6572SOL     OW20251   4.168   2.293   2.400
 6572SOL    HW120252   4.182   2.228   2.331
 6572SOL    HW220253   4.106   2.251   2.460
 6573SOL     OW20254   4.056   2.420   3.150
 6573SOL    HW120255   4.109   2.363   3.206
 6573SOL    HW220256   4.077   2.392   3.061
 6574SOL     OW20257   0.034   3.473   2.551
 6574SOL    HW120258   0.059   3.541   2.489
 6574SOL    HW220259   4.470   3.420   2.503
 6575SOL     OW20260   3.767   2.928   2.170
 6575SOL    HW120261   3.860   2.919   2.151
 6575SOL    HW220262   3.738   2.839   2.192
 6576SOL     OW20263   3.949   2.487   3.851
 6576SOL    HW120264   3.861   2.482   3.887
 6576SOL    HW220265   3.940   2.462   3.759
 6577SOL     OW20266   3.948   2.153   4.716
 6577SOL    HW120267   3.979   2.116   4.799
 6577SOL    HW220268   3.860   2.118   4.706
 6578SOL     OW20269   3.723   2.246   4.361
 6578SOL    HW120270   3.642   2.273   4.403
 6578SOL    HW220271   3.700   2.167   4.312
 6579SOL     OW20272   4.266   3.094   4.868
 6579SOL    HW120273   4.204   3.164   4.847
 6579SOL    HW220274   4.338   3.139   4.913
 6580SOL     OW20275   0.014   2.636   5.580
 6580SOL    HW120276   0.065   2.669   5.654
 6580SOL    HW220277   0.056   2.674   5.503
 6581SOL     OW20278   4.402   2.846   4.347
 6581SOL    HW120279   4.475   2.837   4.408
 6581SOL    HW220280   4.342   2.907   4.392
 6582SOL     OW20281   4.418   3.018   5.533
 6582SOL    HW120282   4.454   3.098   5.495
 6582SOL    HW220283   4.324   3.023   5.515
 6583SOL     OW20284   4.064   3.291   4.793
 6583SOL    HW120285   3.991   3.245   4.751
 6583SOL    HW220286   4.105   3.340   4.722
 6584SOL     OW20287   4.172   2.259   5.199
 6584SOL    HW120288   4.247   2.200   5.207
 6584SOL    HW220289   4.096   2.204   5.219
 6585SOL     OW20290   3.941   3.578   4.195
 6585SOL    HW120291   3.960   3.653   4.250
 6585SOL    HW220292   4.018   3.569   4.139
 6586SOL     OW20293   3.956   3.306   4.260
 6586SOL    HW120294   3.935   3.399   4.263
 6586SOL    HW220295   3.898   3.266   4.326
 6587SOL     OW20296   3.980   2.950   4.608
 6587SOL    HW120297   3.984   2.864   4.650
 6587SOL    HW220298   3.931   3.005   4.670
 6588SOL     OW20299   4.362   3.657   5.184
 6588SOL    HW120300   4.272   3.630   5.202
 6588SOL    HW220301   4.358   3.752   5.182
 6589SOL     OW20302   4.307   2.849   3.869
 6589SOL    HW120303   4.341   2.895   3.792
 6589SOL    HW220304   4.375   2.861   3.935
 6590SOL     OW20305   3.842   2.515   4.285
 6590SOL    HW120306   3.809   2.428   4.307
 6590SOL    HW220307   3.833   2.565   4.366
 6591SOL     OW20308   3.762   3.453   3.845
 6591SOL    HW120309   3.742   3.362   3.866
 6591SOL    HW220310   3.736   3.501   3.924
 6592SOL     OW20311   3.845   2.605   5.309
 6592SOL    HW120312   3.936   2.637   5.312
 6592SOL    HW220313   3.792   2.684   5.309
 6593SOL     OW20314   4.304   3.251   4.461
 6593SOL    HW120315   4.269   3.162   4.462
 6593SOL    HW220316   4.309   3.274   4.368
 6594SOL     OW20317   0.022   1.872   4.249
 6594SOL    HW120318   0.051   1.929   4.178
 6594SOL    HW220319   4.428   1.885   4.253
 6595SOL     OW20320   3.910   2.822   5.002
 6595SOL    HW120321   3.996   2.785   4.985
 6595SOL    HW220322   3.851   2.774   4.944
 6596SOL     OW20323   4.066   2.110   5.548
 6596SOL    HW120324   4.105   2.196   5.566
 6596SOL    HW220325   3.973   2.121   5.571
 6597SOL     OW20326   4.310   2.586   3.994
 6597SOL    HW120327   4.304   2.668   3.945
 6597SOL    HW220328   4.246   2.595   4.064
 6598SOL     OW20329   3.810   2.685   4.500
 6598SOL    HW120330   3.891   2.676   4.550
 6598SOL    HW220331   3.768   2.764   4.535
 6599SOL     OW20332   3.852   3.729   5.306
 6599SOL    HW120333   3.856   3.705   5.399
 6599SOL    HW220334   3.767   3.696   5.276
 6600SOL     OW20335   4.245   2.047   4.605
 6600SOL    HW120336   4.266   2.055   4.698
 6600SOL    HW220337   4.255   2.136   4.571
 6601SOL     OW20338   4.083   3.679   4.593
 6601SOL    HW120339   4.136   3.600   4.601
 6601SOL    HW220340   4.145   3.751   4.603
 6602SOL     OW20341   4.039   2.824   3.977
 6602SOL    HW120342   4.123   2.843   3.936
 6602SOL    HW220343   4.011   2.741   3.938
 6603SOL     OW20344   4.176   3.112   5.457
 6603SOL    HW120345   4.150   3.127   5.366
 6603SOL    HW220346   4.095   3.122   5.507
 6604SOL     OW20347   3.925   2.136   5.228
 6604SOL    HW120348   3.844   2.187   5.228
 6604SOL    HW220349   3.902   2.054   5.271
 6605SOL     OW20350   4.190   3.596   4.050
 6605SOL    HW120351   4.226   3.657   4.114
 6605SOL    HW220352   4.258   3.590   3.983
 6606SOL     OW20353   3.980   3.655   4.953
 6606SOL    HW120354   4.025   3.580   4.992
 6606SOL    HW220355   3.966   3.629   4.862
 6607SOL     OW20356   4.115   2.552   4.196
 6607SOL    HW120357   4.136   2.460   4.213
 6607SOL    HW220358   4.021   2.558   4.215
 6608SOL     OW20359   4.340   1.966   3.844
 6608SOL    HW120360   4.434   1.952   3.844
 6608SOL    HW220361   4.312   1.945   3.755
 6609SOL     OW20362   0.024   3.278   4.627
 6609SOL    HW120363   0.068   3.343   4.571
 6609SOL    HW220364   4.446   3.252   4.577
 6610SOL     OW20365   4.259   1.928   4.223
 6610SOL    HW120366   4.179   1.931   4.277
 6610SOL    HW220367   4.253   2.006   4.167
 6611SOL     OW20368   4.016   1.911   3.910
 6611SOL    HW120369   4.077   1.973   3.869
 6611SOL    HW220370   4.073   1.848   3.955
 6612SOL     OW20371   0.329   2.529   5.177
 6612SOL    HW120372   0.286   2.457   5.131
 6612SOL    HW220373   0.412   2.492   5.206
 6613SOL     OW20374   4.192   3.005   4.448
 6613SOL    HW120375   4.126   2.985   4.514
 6613SOL    HW220376   4.147   2.991   4.364
 6614SOL     OW20377   3.807   2.415   5.117
 6614SOL    HW120378   3.898   2.416   5.089
 6614SOL    HW220379   3.801   2.484   5.182
 6615SOL     OW20380   4.281   2.069   4.874
 6615SOL    HW120381   4.328   2.014   4.936
 6615SOL    HW220382   4.193   2.079   4.911
 6616SOL     OW20383   4.231   3.246   3.898
 6616SOL    HW120384   4.146   3.232   3.939
 6616SOL    HW220385   4.212   3.256   3.805
 6617SOL     OW20386   4.241   2.129   4.043
 6617SOL    HW120387   4.284   2.073   3.977
 6617SOL    HW220388   4.220   2.209   3.996
 6618SOL     OW20389   4.144   2.677   4.976
 6618SOL    HW120390   4.212   2.684   5.043
 6618SOL    HW220391   4.108   2.589   4.987
 6619SOL     OW20392   3.797   3.437   5.081
 6619SOL    HW120393   3.765   3.505   5.023
 6619SOL    HW220394   3.892   3.438   5.071
 6620SOL     OW20395   4.056   2.980   4.212
 6620SOL    HW120396   4.059   3.052   4.150
 6620SOL    HW220397   4.057   2.901   4.157
 6621SOL     OW20398   4.304   2.397   4.591
 6621SOL    HW120399   4.303   2.465   4.524
 6621SOL    HW220400   4.373   2.425   4.652
 6622SOL     OW20401   4.071   3.401   5.036
 6622SOL    HW120402   4.068   3.356   4.952
 6622SOL    HW220403   4.163   3.400   5.061
 6623SOL     OW20404   4.140   2.604   5.331
 6623SOL    HW120405   4.201   2.644   5.269
 6623SOL    HW220406   4.181   2.520   5.353
 6624SOL     OW20407   4.234   1.914   5.458
 6624SOL    HW120408   4.186   1.855   5.399
 6624SOL    HW220409   4.171   1.982   5.481
 6625SOL     OW20410   4.284   2.764   4.751
 6625SOL    HW120411   4.304   2.856   4.767
 6625SOL    HW220412   4.241   2.735   4.832
 6626SOL     OW20413   4.022   2.061   4.971
 6626SOL    HW120414   3.984   2.093   5.053
 6626SOL    HW220415   4.003   1.967   4.971
 6627SOL     OW20416   3.772   3.174   4.999
 6627SOL    HW120417   3.802   3.117   5.070
 6627SOL    HW220418   3.775   3.262   5.036
 6628SOL     OW20419   4.019   1.926   4.352
 6628SOL    HW120420   4.001   2.017   4.374
 6628SOL    HW220421   4.034   1.883   4.436
 6629SOL     OW20422   4.074   2.775   5.534
 6629SOL    HW120423   4.155   2.789   5.583
 6629SOL    HW220424   4.097   2.711   5.467
 6630SOL     OW20425   4.030   2.670   4.668
 6630SOL    HW120426   4.121   2.700   4.670
 6630SOL    HW220427   4.034   2.579   4.697
 6631SOL     OW20428   4.067   2.394   4.732
 6631SOL    HW120429   4.029   2.308   4.718
 6631SOL    HW220430   4.148   2.394   4.681
 6632SOL     OW20431   3.731   3.180   3.920
 6632SOL    HW120432   3.643   3.195   3.883
 6632SOL    HW220433   3.726   3.090   3.954
 6633SOL     OW20434   3.818   3.644   4.667
 6633SOL    HW120435   3.787   3.567   4.620
 6633SOL    HW220436   3.907   3.659   4.634
 6634SOL     OW20437   4.233   3.449   4.630
 6634SOL    HW120438   4.319   3.470   4.666
 6634SOL    HW220439   4.250   3.382   4.564
 6635SOL     OW20440   3.757   2.405   4.842
 6635SOL    HW120441   3.836   2.394   4.790
 6635SOL    HW220442   3.789   2.409   4.933
 6636SOL     OW20443   3.915   2.384   5.456
 6636SOL    HW120444   3.969   2.341   5.389
 6636SOL    HW220445   3.877   2.459   5.410
 6637SOL     OW20446   0.025   2.412   3.985
 6637SOL    HW120447   0.026   2.371   4.072
 6637SOL    HW220448   4.456   2.478   3.990
 6638SOL     OW20449   3.966   3.414   5.447
 6638SOL    HW120450   3.940   3.479   5.512
 6638SOL    HW220451   3.965   3.331   5.494
 6639SOL     OW20452   4.183   2.354   3.908
 6639SOL    HW120453   4.244   2.425   3.928
 6639SOL    HW220454   4.099   2.397   3.894
 6640SOL     OW20455   3.866   3.003   5.198
 6640SOL    HW120456   3.867   2.956   5.281
 6640SOL    HW220457   3.882   2.936   5.131
 6641SOL     OW20458   3.813   3.132   4.735
 6641SOL    HW120459   3.795   3.144   4.828
 6641SOL    HW220460   3.743   3.075   4.704
 6642SOL     OW20461   4.389   3.515   5.420
 6642SOL    HW120462   4.354   3.593   5.462
 6642SOL    HW220463   4.401   3.540   5.328
 6643SOL     OW20464   3.866   3.656   5.567
 6643SOL    HW120465   3.815   3.591   5.614
 6643SOL    HW220466   3.910   3.707   5.635
 6644SOL     OW20467   3.981   2.181   4.438
 6644SOL    HW120468   3.893   2.213   4.416
 6644SOL    HW220469   3.981   2.173   4.533
 6645SOL     OW20470   4.084   3.173   5.213
 6645SOL    HW120471   4.063   3.247   5.157
 6645SOL    HW220472   4.013   3.111   5.199
 6646SOL     OW20473   4.327   3.353   4.203
 6646SOL    HW120474   4.342   3.293   4.129
 6646SOL    HW220475   4.260   3.413   4.171
 6647SOL     OW20476   3.985   3.207   4.015
 6647SOL    HW120477   3.893   3.203   3.991
 6647SOL    HW220478   3.986   3.247   4.102
 6648SOL     OW20479   3.838   2.897   5.450
 6648SOL    HW120480   3.761   2.869   5.499
 6648SOL    HW220481   3.912   2.852   5.492
 6649SOL     OW20482   4.385   2.066   5.218
 6649SOL    HW120483   4.475   2.076   5.187
 6649SOL    HW220484   4.393   2.055   5.312
 6650SOL     OW20485   3.805   2.190   3.757
 6650SOL    HW120486   3.718   2.172   3.721
 6650SOL    HW220487   3.835   2.267   3.708
 6651SOL     OW20488   3.788   2.016   4.027
 6651SOL    HW120489   3.774   2.095   3.975
 6651SOL    HW220490   3.873   1.984   3.999
 6652SOL     OW20491   4.343   2.701   5.164
 6652SOL    HW120492   4.376   2.789   5.145
 6652SOL    HW220493   4.420   2.653   5.196
 6653SOL     OW20494   4.389   2.419   5.464
 6653SOL    HW120495   4.411   2.494   5.519
 6653SOL    HW220496   4.472   2.390   5.427
 6654SOL     OW20497   4.104   3.603   5.285
 6654SOL    HW120498   4.021   3.648   5.270
 6654SOL    HW220499   4.079   3.523   5.331
 6655SOL     OW20500   4.306   2.589   4.395
 6655SOL    HW120501   4.347   2.674   4.380
 6655SOL    HW220502   4.239   2.582   4.328
 6656SOL     OW20503   3.940   3.167   5.575
 6656SOL    HW120504   3.881   3.098   5.543
 6656SOL    HW220505   3.916   3.177   5.667
 6657SOL     OW20506   3.813   3.091   4.389
 6657SOL    HW120507   3.825   3.046   4.473
 6657SOL    HW220508   3.879   3.052   4.332
 6658SOL     OW20509   4.428   3.249   5.400
 6658SOL    HW120510   4.338   3.221   5.381
 6658SOL    HW220511   4.422   3.344   5.408
 6659SOL     OW20512   4.168   2.293   4.262
 6659SOL    HW120513   4.182   2.228   4.193
 6659SOL    HW220514   4.106   2.251   4.322
 6660SOL     OW20515   4.056   2.420   5.012
 6660SOL    HW120516   4.109   2.363   5.068
 6660SOL    HW220517   4.077   2.392   4.923
 6661SOL     OW20518   0.034   3.473   4.413
 6661SOL    HW120519   0.059   3.541   4.351
 6661SOL    HW220520   4.470   3.420   4.366
 6662SOL     OW20521   3.766   2.928   4.032
 6662SOL    HW120522   3.860   2.920   4.013
 6662SOL    HW220523   3.738   2.839   4.054
 6663SOL     OW20524   3.949   2.486   5.714
 6663SOL    HW120525   3.860   2.482   5.749
 6663SOL    HW220526   3.940   2.462   5.622
 6664SOL     OW20527   3.947   2.153   6.578
 6664SOL    HW120528   3.978   2.116   6.660
 6664SOL    HW220529   3.858   2.118   6.568
 6665SOL     OW20530   3.723   2.246   6.223
 6665SOL    HW120531   3.641   2.273   6.266
 6665SOL    HW220532   3.699   2.167   6.175
 6666SOL     OW20533   4.266   3.094   6.730
 6666SOL    HW120534   4.204   3.164   6.709
 6666SOL    HW220535   4.338   3.139   6.775
 6667SOL     OW20536   0.013   2.637   7.442
 6667SOL    HW120537   0.067   2.667   7.516
 6667SOL    HW220538   0.057   2.673   7.365
 6668SOL     OW20539   4.402   2.847   6.209
 6668SOL    HW120540   4.475   2.837   6.270
 6668SOL    HW220541   4.342   2.907   6.253
 6669SOL     OW20542   4.418   3.018   7.395
 6669SOL    HW120543   4.455   3.098   7.357
 6669SOL    HW220544   4.324   3.023   7.378
 6670SOL     OW20545   4.064   3.291   6.655
 6670SOL    HW120546   3.991   3.245   6.613
 6670SOL    HW220547   4.105   3.340   6.584
 6671SOL     OW20548   4.172   2.259   7.061
 6671SOL    HW120549   4.247   2.201   7.069
 6671SOL    HW220550   4.096   2.204   7.081
 6672SOL     OW20551   3.941   3.578   6.057
 6672SOL    HW120552   3.960   3.653   6.112
 6672SOL    HW220553   4.018   3.569   6.001
 6673SOL     OW20554   3.956   3.306   6.122
 6673SOL    HW120555   3.935   3.399   6.125
 6673SOL    HW220556   3.899   3.266   6.187
 6674SOL     OW20557   3.981   2.950   6.471
 6674SOL    HW120558   3.984   2.865   6.513
 6674SOL    HW220559   3.931   3.005   6.532
 6675SOL     OW20560   4.362   3.657   7.046
 6675SOL    HW120561   4.272   3.630   7.064
 6675SOL    HW220562   4.359   3.752   7.044
 6676SOL     OW20563   4.308   2.849   5.730
 6676SOL    HW120564   4.341   2.896   5.654
 6676SOL    HW220565   4.375   2.861   5.797
 6677SOL     OW20566   3.842   2.515   6.147
 6677SOL    HW120567   3.809   2.428   6.169
 6677SOL    HW220568   3.833   2.565   6.228
 6678SOL     OW20569   3.762   3.453   5.707
 6678SOL    HW120570   3.742   3.361   5.727
 6678SOL    HW220571   3.736   3.501   5.786
 6679SOL     OW20572   3.847   2.605   7.171
 6679SOL    HW120573   3.938   2.635   7.174
 6679SOL    HW220574   3.795   2.686   7.173
 6680SOL     OW20575   4.304   3.251   6.323
 6680SOL    HW120576   4.269   3.162   6.324
 6680SOL    HW220577   4.309   3.274   6.230
 6681SOL     OW20578   0.022   1.871   6.110
 6681SOL    HW120579   0.051   1.929   6.040
 6681SOL    HW220580   4.428   1.885   6.115
 6682SOL     OW20581   3.910   2.822   6.865
 6682SOL    HW120582   3.996   2.784   6.848
 6682SOL    HW220583   3.852   2.776   6.804
 6683SOL     OW20584   4.066   2.110   7.409
 6683SOL    HW120585   4.106   2.195   7.428
 6683SOL    HW220586   3.974   2.121   7.433
 6684SOL     OW20587   4.310   2.586   5.856
 6684SOL    HW120588   4.304   2.668   5.807
 6684SOL    HW220589   4.246   2.595   5.926
 6685SOL     OW20590   3.811   2.684   6.362
 6685SOL    HW120591   3.892   2.676   6.413
 6685SOL    HW220592   3.768   2.763   6.397
 6686SOL     OW20593   3.853   3.729   7.168
 6686SOL    HW120594   3.856   3.705   7.261
 6686SOL    HW220595   3.768   3.696   7.138
 6687SOL     OW20596   4.245   2.047   6.467
 6687SOL    HW120597   4.266   2.055   6.560
 6687SOL    HW220598   4.255   2.136   6.433
 6688SOL     OW20599   4.083   3.679   6.456
 6688SOL    HW120600   4.136   3.600   6.463
 6688SOL    HW220601   4.145   3.751   6.465
 6689SOL     OW20602   4.039   2.824   5.840
 6689SOL    HW120603   4.123   2.843   5.798
 6689SOL    HW220604   4.011   2.741   5.800
 6690SOL     OW20605   4.176   3.112   7.319
 6690SOL    HW120606   4.150   3.127   7.228
 6690SOL    HW220607   4.095   3.122   7.369
 6691SOL     OW20608   3.926   2.136   7.090
 6691SOL    HW120609   3.846   2.188   7.092
 6691SOL    HW220610   3.903   2.054   7.134
 6692SOL     OW20611   4.190   3.596   5.912
 6692SOL    HW120612   4.226   3.657   5.976
 6692SOL    HW220613   4.258   3.590   5.845
 6693SOL     OW20614   3.980   3.654   6.815
 6693SOL    HW120615   4.025   3.580   6.854
 6693SOL    HW220616   3.966   3.629   6.724
 6694SOL     OW20617   4.115   2.551   6.058
 6694SOL    HW120618   4.136   2.460   6.075
 6694SOL    HW220619   4.021   2.558   6.077
 6695SOL     OW20620   4.340   1.965   5.706
 6695SOL    HW120621   4.434   1.952   5.705
 6695SOL    HW220622   4.312   1.945   5.617
 6696SOL     OW20623   0.024   3.278   6.489
 6696SOL    HW120624   0.068   3.343   6.433
 6696SOL    HW220625   4.446   3.252   6.439
 6697SOL     OW20626   4.259   1.929   6.085
 6697SOL    HW120627   4.180   1.931   6.139
 6697SOL    HW220628   4.253   2.006   6.029
 6698SOL     OW20629   4.016   1.911   5.772
 6698SOL    HW120630   4.076   1.973   5.731
 6698SOL    HW220631   4.073   1.848   5.817
 6699SOL     OW20632   0.329   2.530   7.038
 6699SOL    HW120633   0.289   2.456   6.991
 6699SOL    HW220634   0.412   2.496   7.070
 6700SOL     OW20635   4.192   3.005   6.310
 6700SOL    HW120636   4.126   2.985   6.376
 6700SOL    HW220637   4.147   2.991   6.226
 6701SOL     OW20638   3.807   2.415   6.979
 6701SOL    HW120639   3.898   2.415   6.951
 6701SOL    HW220640   3.802   2.485   7.045
 6702SOL     OW20641   4.280   2.069   6.735
 6702SOL    HW120642   4.329   2.016   6.799
 6702SOL    HW220643   4.193   2.078   6.773
 6703SOL     OW20644   4.231   3.246   5.760
 6703SOL    HW120645   4.146   3.232   5.801
 6703SOL    HW220646   4.212   3.256   5.667
 6704SOL     OW20647   4.241   2.129   5.905
 6704SOL    HW120648   4.284   2.073   5.839
 6704SOL    HW220649   4.220   2.209   5.858
 6705SOL     OW20650   4.143   2.677   6.838
 6705SOL    HW120651   4.212   2.684   6.905
 6705SOL    HW220652   4.108   2.589   6.849
 6706SOL     OW20653   3.797   3.436   6.943
 6706SOL    HW120654   3.765   3.505   6.884
 6706SOL    HW220655   3.892   3.439   6.933
 6707SOL     OW20656   4.057   2.980   6.073
 6707SOL    HW120657   4.058   3.052   6.011
 6707SOL    HW220658   4.057   2.901   6.018
 6708SOL     OW20659   4.304   2.397   6.454
 6708SOL    HW120660   4.303   2.465   6.386
 6708SOL    HW220661   4.373   2.424   6.514
 6709SOL     OW20662   4.071   3.401   6.898
 6709SOL    HW120663   4.068   3.356   6.814
 6709SOL    HW220664   4.163   3.401   6.923
 6710SOL     OW20665   4.140   2.603   7.193
 6710SOL    HW120666   4.201   2.644   7.131
 6710SOL    HW220667   4.182   2.520   7.215
 6711SOL     OW20668   4.235   1.914   7.319
 6711SOL    HW120669   4.186   1.855   7.261
 6711SOL    HW220670   4.172   1.982   7.342
 6712SOL     OW20671   4.284   2.764   6.613
 6712SOL    HW120672   4.305   2.856   6.629
 6712SOL    HW220673   4.241   2.735   6.694
 6713SOL     OW20674   4.022   2.061   6.833
 6713SOL    HW120675   3.984   2.092   6.915
 6713SOL    HW220676   4.003   1.967   6.832
 6714SOL     OW20677   3.771   3.174   6.861
 6714SOL    HW120678   3.802   3.117   6.932
 6714SOL    HW220679   3.775   3.262   6.898
 6715SOL     OW20680   4.019   1.926   6.214
 6715SOL    HW120681   4.000   2.017   6.235
 6715SOL    HW220682   4.034   1.883   6.298
 6716SOL     OW20683   4.074   2.775   7.396
 6716SOL    HW120684   4.155   2.790   7.445
 6716SOL    HW220685   4.098   2.711   7.329
 6717SOL     OW20686   4.030   2.671   6.530
 6717SOL    HW120687   4.121   2.700   6.533
 6717SOL    HW220688   4.034   2.579   6.559
 6718SOL     OW20689   4.066   2.394   6.594
 6718SOL    HW120690   4.029   2.307   6.579
 6718SOL    HW220691   4.148   2.394   6.544
 6719SOL     OW20692   3.730   3.179   5.780
 6719SOL    HW120693   3.643   3.195   5.744
 6719SOL    HW220694   3.726   3.090   5.815
 6720SOL     OW20695   3.818   3.644   6.529
 6720SOL    HW120696   3.787   3.567   6.482
 6720SOL    HW220697   3.907   3.658   6.496
 6721SOL     OW20698   4.233   3.449   6.492
 6721SOL    HW120699   4.319   3.470   6.528
 6721SOL    HW220700   4.250   3.382   6.426
 6722SOL     OW20701   3.759   2.409   6.702
 6722SOL    HW120702   3.838   2.396   6.650
 6722SOL    HW220703   3.791   2.410   6.793
 6723SOL     OW20704   3.915   2.384   7.317
 6723SOL    HW120705   3.972   2.342   7.252
 6723SOL    HW220706   3.877   2.459   7.272
 6724SOL     OW20707   0.025   2.412   5.848
 6724SOL    HW120708   0.025   2.371   5.934
 6724SOL    HW220709   4.456   2.478   5.852
 6725SOL     OW20710   3.965   3.414   7.308
 6725SOL    HW120711   3.940   3.479   7.374
 6725SOL    HW220712   3.966   3.331   7.356
 6726SOL     OW20713   4.184   2.354   5.770
 6726SOL    HW120714   4.244   2.426   5.790
 6726SOL    HW220715   4.099   2.397   5.757
 6727SOL     OW20716   3.865   3.003   7.060
 6727SOL    HW120717   3.867   2.955   7.143
 6727SOL    HW220718   3.882   2.936   6.993
 6728SOL     OW20719   3.813   3.132   6.597
 6728SOL    HW120720   3.794   3.144   6.690
 6728SOL    HW220721   3.742   3.075   6.566
 6729SOL     OW20722   4.389   3.514   7.282
 6729SOL    HW120723   4.354   3.593   7.324
 6729SOL    HW220724   4.401   3.539   7.191
 6730SOL     OW20725   3.866   3.656   7.429
 6730SOL    HW120726   3.815   3.591   7.477
 6730SOL    HW220727   3.910   3.707   7.497
 6731SOL     OW20728   3.981   2.181   6.299
 6731SOL    HW120729   3.893   2.213   6.278
 6731SOL    HW220730   3.981   2.173   6.395
 6732SOL     OW20731   4.084   3.173   7.075
 6732SOL    HW120732   4.063   3.247   7.019
 6732SOL    HW220733   4.012   3.111   7.061
 6733SOL     OW20734   4.327   3.353   6.065
 6733SOL    HW120735   4.342   3.293   5.991
 6733SOL    HW220736   4.259   3.413   6.034
 6734SOL     OW20737   3.985   3.207   5.877
 6734SOL    HW120738   3.893   3.203   5.853
 6734SOL    HW220739   3.986   3.247   5.964
 6735SOL     OW20740   3.838   2.894   7.311
 6735SOL    HW120741   3.761   2.867   7.361
 6735SOL    HW220742   3.911   2.851   7.354
 6736SOL     OW20743   4.386   2.067   7.079
 6736SOL    HW120744   4.476   2.077   7.049
 6736SOL    HW220745   4.393   2.055   7.174
 6737SOL     OW20746   3.804   2.190   5.617
 6737SOL    HW120747   3.718   2.171   5.579
 6737SOL    HW220748   3.835   2.267   5.570
 6738SOL     OW20749   3.788   2.017   5.888
 6738SOL    HW120750   3.773   2.095   5.835
 6738SOL    HW220751   3.873   1.984   5.860
 6739SOL     OW20752   4.343   2.701   7.026
 6739SOL    HW120753   4.376   2.789   7.007
 6739SOL    HW220754   4.419   2.652   7.058
 6740SOL     OW20755   4.388   2.420   7.325
 6740SOL    HW120756   4.411   2.495   7.380
 6740SOL    HW220757   4.471   2.391   7.289
 6741SOL     OW20758   4.104   3.603   7.147
 6741SOL    HW120759   4.021   3.648   7.132
 6741SOL    HW220760   4.080   3.523   7.192
 6742SOL     OW20761   4.307   2.589   6.257
 6742SOL    HW120762   4.347   2.674   6.242
 6742SOL    HW220763   4.239   2.581   6.190
 6743SOL     OW20764   3.940   3.167   7.438
 6743SOL    HW120765   3.880   3.100   7.407
 6743SOL    HW220766   3.919   3.178   7.531
 6744SOL     OW20767   3.814   3.092   6.252
 6744SOL    HW120768   3.824   3.046   6.335
 6744SOL    HW220769   3.880   3.052   6.195
 6745SOL     OW20770   4.427   3.249   7.261
 6745SOL    HW120771   4.337   3.221   7.244
 6745SOL    HW220772   4.422   3.344   7.270
 6746SOL     OW20773   4.168   2.293   6.124
 6746SOL    HW120774   4.182   2.228   6.055
 6746SOL    HW220775   4.106   2.251   6.184
 6747SOL     OW20776   4.055   2.420   6.874
 6747SOL    HW120777   4.109   2.363   6.930
 6747SOL    HW220778   4.077   2.392   6.785
 6748SOL     OW20779   0.034   3.473   6.275
 6748SOL    HW120780   0.059   3.541   6.213
 6748SOL    HW220781   4.470   3.420   6.227
 6749SOL     OW20782   3.767   2.928   5.894
 6749SOL    HW120783   3.860   2.919   5.875
 6749SOL    HW220784   3.738   2.839   5.916
 6750SOL     OW20785   3.949   2.486   7.575
 6750SOL    HW120786   3.860   2.482   7.611
 6750SOL    HW220787   3.939   2.462   7.483
 6751SOL     OW20788   3.947   2.153   8.440
 6751SOL    HW120789   3.978   2.116   8.522
 6751SOL    HW220790   3.858   2.118   8.430
 6752SOL     OW20791   3.722   2.247   8.086
 6752SOL    HW120792   3.641   2.273   8.129
 6752SOL    HW220793   3.699   2.168   8.037
 6753SOL     OW20794   4.266   3.094   8.592
 6753SOL    HW120795   4.204   3.164   8.571
 6753SOL    HW220796   4.338   3.139   8.637
 6754SOL     OW20797   0.013   2.637   9.304
 6754SOL    HW120798   0.067   2.667   9.378
 6754SOL    HW220799   0.057   2.673   9.227
 6755SOL     OW20800   4.401   2.846   8.072
 6755SOL    HW120801   4.476   2.838   8.131
 6755SOL    HW220802   4.342   2.907   8.116
 6756SOL     OW20803   4.418   3.018   9.257
 6756SOL    HW120804   4.455   3.098   9.219
 6756SOL    HW220805   4.324   3.023   9.240
 6757SOL     OW20806   4.064   3.291   8.517
 6757SOL    HW120807   3.991   3.245   8.475
 6757SOL    HW220808   4.106   3.340   8.446
 6758SOL     OW20809   4.172   2.259   8.923
 6758SOL    HW120810   4.247   2.201   8.931
 6758SOL    HW220811   4.096   2.204   8.943
 6759SOL     OW20812   3.941   3.578   7.919
 6759SOL    HW120813   3.960   3.653   7.974
 6759SOL    HW220814   4.018   3.569   7.863
 6760SOL     OW20815   3.956   3.306   7.984
 6760SOL    HW120816   3.935   3.399   7.987
 6760SOL    HW220817   3.899   3.266   8.049
 6761SOL     OW20818   3.980   2.950   8.332
 6761SOL    HW120819   3.985   2.864   8.374
 6761SOL    HW220820   3.931   3.005   8.394
 6762SOL     OW20821   4.362   3.657   8.908
 6762SOL    HW120822   4.272   3.630   8.926
 6762SOL    HW220823   4.359   3.752   8.906
 6763SOL     OW20824   4.307   2.849   7.593
 6763SOL    HW120825   4.341   2.895   7.516
 6763SOL    HW220826   4.375   2.861   7.659
 6764SOL     OW20827   3.842   2.515   8.009
 6764SOL    HW120828   3.808   2.428   8.031
 6764SOL    HW220829   3.833   2.566   8.090
 6765SOL     OW20830   3.762   3.453   7.569
 6765SOL    HW120831   3.742   3.362   7.589
 6765SOL    HW220832   3.736   3.501   7.648
 6766SOL     OW20833   3.847   2.605   9.033
 6766SOL    HW120834   3.938   2.635   9.036
 6766SOL    HW220835   3.795   2.686   9.036
 6767SOL     OW20836   4.304   3.251   8.185
 6767SOL    HW120837   4.269   3.162   8.186
 6767SOL    HW220838   4.309   3.274   8.092
 6768SOL     OW20839   0.022   1.871   7.972
 6768SOL    HW120840   0.051   1.928   7.902
 6768SOL    HW220841   4.427   1.885   7.977
 6769SOL     OW20842   3.910   2.822   8.726
 6769SOL    HW120843   3.996   2.785   8.710
 6769SOL    HW220844   3.852   2.775   8.666
 6770SOL     OW20845   4.066   2.111   9.270
 6770SOL    HW120846   4.106   2.195   9.291
 6770SOL    HW220847   3.974   2.121   9.295
 6771SOL     OW20848   4.310   2.586   7.718
 6771SOL    HW120849   4.304   2.668   7.669
 6771SOL    HW220850   4.246   2.595   7.788
 6772SOL     OW20851   3.811   2.685   8.224
 6772SOL    HW120852   3.891   2.676   8.275
 6772SOL    HW220853   3.769   2.764   8.259
 6773SOL     OW20854   3.852   3.728   9.030
 6773SOL    HW120855   3.856   3.705   9.123
 6773SOL    HW220856   3.767   3.696   9.001
 6774SOL     OW20857   4.244   2.048   8.329
 6774SOL    HW120858   4.266   2.055   8.422
 6774SOL    HW220859   4.255   2.136   8.295
 6775SOL     OW20860   4.083   3.679   8.318
 6775SOL    HW120861   4.136   3.600   8.325
 6775SOL    HW220862   4.145   3.751   8.327
 6776SOL     OW20863   4.039   2.824   7.702
 6776SOL    HW120864   4.123   2.843   7.660
 6776SOL    HW220865   4.011   2.741   7.662
 6777SOL     OW20866   4.176   3.113   9.181
 6777SOL    HW120867   4.150   3.127   9.090
 6777SOL    HW220868   4.095   3.122   9.231
 6778SOL     OW20869   3.926   2.135   8.952
 6778SOL    HW120870   3.845   2.187   8.954
 6778SOL    HW220871   3.903   2.054   8.996
 6779SOL     OW20872   4.190   3.596   7.774
 6779SOL    HW120873   4.226   3.657   7.838
 6779SOL    HW220874   4.258   3.589   7.707
 6780SOL     OW20875   3.979   3.654   8.677
 6780SOL    HW120876   4.025   3.580   8.716
 6780SOL    HW220877   3.967   3.629   8.585
 6781SOL     OW20878   4.115   2.552   7.920
 6781SOL    HW120879   4.136   2.460   7.937
 6781SOL    HW220880   4.021   2.558   7.939
 6782SOL     OW20881   4.339   1.966   7.569
 6782SOL    HW120882   4.434   1.953   7.569
 6782SOL    HW220883   4.312   1.945   7.479
 6783SOL     OW20884   0.024   3.278   8.351
 6783SOL    HW120885   0.068   3.343   8.296
 6783SOL    HW220886   4.447   3.252   8.301
 6784SOL     OW20887   4.258   1.928   7.947
 6784SOL    HW120888   4.179   1.932   8.001
 6784SOL    HW220889   4.253   2.006   7.891
 6785SOL     OW20890   4.016   1.910   7.634
 6785SOL    HW120891   4.077   1.972   7.594
 6785SOL    HW220892   4.073   1.847   7.679
 6786SOL     OW20893   0.328   2.530   8.900
 6786SOL    HW120894   0.290   2.456   8.853
 6786SOL    HW220895   0.412   2.496   8.932
 6787SOL     OW20896   4.192   3.005   8.172
 6787SOL    HW120897   4.126   2.985   8.238
 6787SOL    HW220898   4.147   2.991   8.088
 6788SOL     OW20899   3.807   2.415   8.841
 6788SOL    HW120900   3.898   2.415   8.813
 6788SOL    HW220901   3.802   2.485   8.906
 6789SOL     OW20902   4.280   2.068   8.597
 6789SOL    HW120903   4.329   2.016   8.661
 6789SOL    HW220904   4.193   2.078   8.635
 6790SOL     OW20905   4.231   3.246   7.622
 6790SOL    HW120906   4.146   3.232   7.663
 6790SOL    HW220907   4.212   3.257   7.529
 6791SOL     OW20908   4.241   2.129   7.767
 6791SOL    HW120909   4.283   2.073   7.702
 6791SOL    HW220910   4.220   2.210   7.720
 6792SOL     OW20911   4.143   2.677   8.700
 6792SOL    HW120912   4.212   2.684   8.767
 6792SOL    HW220913   4.108   2.589   8.711
 6793SOL     OW20914   3.797   3.436   8.805
 6793SOL    HW120915   3.765   3.505   8.747
 6793SOL    HW220916   3.892   3.438   8.795
 6794SOL     OW20917   4.056   2.980   7.936
 6794SOL    HW120918   4.059   3.052   7.874
 6794SOL    HW220919   4.057   2.901   7.881
 6795SOL     OW20920   4.304   2.397   8.316
 6795SOL    HW120921   4.303   2.465   8.248
 6795SOL    HW220922   4.373   2.424   8.376
 6796SOL     OW20923   4.071   3.401   8.760
 6796SOL    HW120924   4.069   3.356   8.676
 6796SOL    HW220925   4.163   3.401   8.785
 6797SOL     OW20926   4.140   2.603   9.055
 6797SOL    HW120927   4.201   2.644   8.993
 6797SOL    HW220928   4.182   2.520   9.077
 6798SOL     OW20929   4.235   1.914   9.181
 6798SOL    HW120930   4.186   1.855   9.123
 6798SOL    HW220931   4.172   1.982   9.204
 6799SOL     OW20932   4.284   2.764   8.475
 6799SOL    HW120933   4.305   2.856   8.491
 6799SOL    HW220934   4.241   2.735   8.556
 6800SOL     OW20935   4.022   2.061   8.695
 6800SOL    HW120936   3.984   2.093   8.777
 6800SOL    HW220937   4.003   1.967   8.695
 6801SOL     OW20938   3.771   3.174   8.723
 6801SOL    HW120939   3.802   3.117   8.794
 6801SOL    HW220940   3.775   3.262   8.759
 6802SOL     OW20941   4.019   1.925   8.076
 6802SOL    HW120942   4.000   2.017   8.098
 6802SOL    HW220943   4.034   1.883   8.160
 6803SOL     OW20944   4.074   2.776   9.258
 6803SOL    HW120945   4.155   2.790   9.307
 6803SOL    HW220946   4.098   2.711   9.191
 6804SOL     OW20947   4.030   2.670   8.392
 6804SOL    HW120948   4.121   2.700   8.395
 6804SOL    HW220949   4.034   2.579   8.421
 6805SOL     OW20950   4.066   2.394   8.456
 6805SOL    HW120951   4.029   2.307   8.441
 6805SOL    HW220952   4.148   2.394   8.406
 6806SOL     OW20953   3.730   3.180   7.643
 6806SOL    HW120954   3.643   3.195   7.607
 6806SOL    HW220955   3.726   3.090   7.678
 6807SOL     OW20956   3.818   3.644   8.391
 6807SOL    HW120957   3.787   3.567   8.344
 6807SOL    HW220958   3.907   3.659   8.358
 6808SOL     OW20959   4.233   3.449   8.354
 6808SOL    HW120960   4.319   3.470   8.390
 6808SOL    HW220961   4.250   3.382   8.288
 6809SOL     OW20962   3.759   2.409   8.564
 6809SOL    HW120963   3.838   2.396   8.512
 6809SOL    HW220964   3.790   2.411   8.655
 6810SOL     OW20965   3.915   2.384   9.179
 6810SOL    HW120966   3.971   2.342   9.114
 6810SOL    HW220967   3.877   2.459   9.134
 6811SOL     OW20968   0.025   2.411   7.709
 6811SOL    HW120969   0.027   2.373   7.797
 6811SOL    HW220970   4.455   2.477   7.714
 6812SOL     OW20971   3.965   3.414   9.170
 6812SOL    HW120972   3.940   3.479   9.236
 6812SOL    HW220973   3.966   3.331   9.218
 6813SOL     OW20974   4.183   2.354   7.631
 6813SOL    HW120975   4.244   2.425   7.652
 6813SOL    HW220976   4.099   2.397   7.618
 6814SOL     OW20977   3.865   3.003   8.922
 6814SOL    HW120978   3.867   2.955   9.005
 6814SOL    HW220979   3.882   2.936   8.855
 6815SOL     OW20980   3.813   3.132   8.459
 6815SOL    HW120981   3.794   3.144   8.552
 6815SOL    HW220982   3.743   3.074   8.428
 6816SOL     OW20983   4.389   3.514   9.144
 6816SOL    HW120984   4.355   3.593   9.186
 6816SOL    HW220985   4.402   3.539   9.053
 6817SOL     OW20986   3.866   3.656   9.291
 6817SOL    HW120987   3.815   3.591   9.339
 6817SOL    HW220988   3.910   3.707   9.359
 6818SOL     OW20989   3.981   2.181   8.161
 6818SOL    HW120990   3.893   2.213   8.140
 6818SOL    HW220991   3.981   2.173   8.257
 6819SOL     OW20992   4.084   3.173   8.937
 6819SOL    HW120993   4.063   3.247   8.881
 6819SOL    HW220994   4.012   3.111   8.923
 6820SOL     OW20995   4.327   3.353   7.927
 6820SOL    HW120996   4.343   3.293   7.853
 6820SOL    HW220997   4.260   3.413   7.895
 6821SOL     OW20998   3.985   3.207   7.739
 6821SOL    HW120999   3.893   3.203   7.715
 6821SOL    HW221000   3.986   3.247   7.826
 6822SOL     OW21001   3.838   2.894   9.173
 6822SOL    HW121002   3.761   2.867   9.223
 6822SOL    HW221003   3.911   2.851   9.215
 6823SOL     OW21004   4.386   2.067   8.941
 6823SOL    HW121005   4.476   2.076   8.911
 6823SOL    HW221006   4.393   2.055   9.036
 6824SOL     OW21007   3.805   2.190   7.480
 6824SOL    HW121008   3.718   2.172   7.445
 6824SOL    HW221009   3.835   2.267   7.432
 6825SOL     OW21010   3.788   2.016   7.750
 6825SOL    HW121011   3.774   2.095   7.698
 6825SOL    HW221012   3.873   1.984   7.723
 6826SOL     OW21013   4.343   2.701   8.889
 6826SOL    HW121014   4.377   2.788   8.870
 6826SOL    HW221015   4.419   2.652   8.920
 6827SOL     OW21016   4.388   2.420   9.187
 6827SOL    HW121017   4.411   2.495   9.242
 6827SOL    HW221018   4.471   2.391   9.151
 6828SOL     OW21019   4.104   3.603   9.009
 6828SOL    HW121020   4.021   3.648   8.994
 6828SOL    HW221021   4.080   3.523   9.054
 6829SOL     OW21022   4.306   2.588   8.120
 6829SOL    HW121023   4.347   2.674   8.104
 6829SOL    HW221024   4.239   2.582   8.052
 6830SOL     OW21025   3.941   3.167   9.300
 6830SOL    HW121026   3.880   3.100   9.269
 6830SOL    HW221027   3.919   3.178   9.393
 6831SOL     OW21028   3.814   3.091   8.114
 6831SOL    HW121029   3.825   3.046   8.197
 6831SOL    HW221030   3.880   3.052   8.056
 6832SOL     OW21031   4.427   3.249   9.123
 6832SOL    HW121032   4.337   3.221   9.106
 6832SOL    HW221033   4.421   3.344   9.132
 6833SOL     OW21034   4.167   2.293   7.985
 6833SOL    HW121035   4.182   2.228   7.917
 6833SOL    HW221036   4.106   2.251   8.046
 6834SOL     OW21037   4.055   2.420   8.736
 6834SOL    HW121038   4.109   2.363   8.792
 6834SOL    HW221039   4.077   2.392   8.647
 6835SOL     OW21040   0.034   3.473   8.137
 6835SOL    HW121041   0.059   3.541   8.075
 6835SOL    HW221042   4.470   3.420   8.089
 6836SOL     OW21043   3.767   2.928   7.756
 6836SOL    HW121044   3.860   2.920   7.737
 6836SOL    HW221045   3.738   2.839   7.778
 6837SOL     OW21046   3.949   2.487   9.437
 6837SOL    HW121047   3.860   2.482   9.473
 6837SOL    HW221048   3.939   2.462   9.346
 6838SOL     OW21049   3.947   2.153  10.302
 6838SOL    HW121050   3.979   2.116  10.384
 6838SOL    HW221051   3.858   2.118  10.292
 6839SOL     OW21052   3.722   2.247   9.948
 6839SOL    HW121053   3.641   2.273   9.991
 6839SOL    HW221054   3.699   2.168   9.899
 6840SOL     OW21055   4.266   3.094  10.457
 6840SOL    HW121056   4.204   3.163  10.433
 6840SOL    HW221057   4.338   3.141  10.499
 6841SOL     OW21058   0.024   2.675   0.081
 6841SOL    HW121059   0.110   2.701   0.114
 6841SOL    HW221060   0.040   2.652  11.090
 6842SOL     OW21061   4.402   2.847   9.933
 6842SOL    HW121062   4.475   2.836   9.994
 6842SOL    HW221063   4.342   2.907   9.978
 6843SOL     OW21064   4.066   3.290  10.378
 6843SOL    HW121065   3.992   3.245  10.338
 6843SOL    HW221066   4.106   3.340  10.307
 6844SOL     OW21067   4.178   2.265  10.792
 6844SOL    HW121068   4.249   2.202  10.798
 6844SOL    HW221069   4.099   2.215  10.815
 6845SOL     OW21070   3.941   3.578   9.780
 6845SOL    HW121071   3.960   3.653   9.836
 6845SOL    HW221072   4.018   3.569   9.725
 6846SOL     OW21073   3.956   3.306   9.846
 6846SOL    HW121074   3.935   3.399   9.849
 6846SOL    HW221075   3.899   3.266   9.911
 6847SOL     OW21076   3.981   2.950  10.195
 6847SOL    HW121077   3.984   2.865  10.237
 6847SOL    HW221078   3.931   3.005  10.255
 6848SOL     OW21079   4.354   3.671  10.747
 6848SOL    HW121080   4.269   3.640  10.778
 6848SOL    HW221081   4.355   3.765  10.768
 6849SOL     OW21082   4.307   2.849   9.455
 6849SOL    HW121083   4.341   2.895   9.378
 6849SOL    HW221084   4.375   2.861   9.521
 6850SOL     OW21085   3.842   2.515   9.871
 6850SOL    HW121086   3.808   2.428   9.893
 6850SOL    HW221087   3.833   2.566   9.952
 6851SOL     OW21088   3.762   3.453   9.431
 6851SOL    HW121089   3.742   3.361   9.452
 6851SOL    HW221090   3.736   3.501   9.510
 6852SOL     OW21091   3.851   2.588  10.921
 6852SOL    HW121092   3.943   2.608  10.905
 6852SOL    HW221093   3.806   2.671  10.911
 6853SOL     OW21094   4.304   3.251  10.047
 6853SOL    HW121095   4.269   3.162  10.048
 6853SOL    HW221096   4.309   3.274   9.954
 6854SOL     OW21097   0.022   1.871   9.834
 6854SOL    HW121098   0.051   1.929   9.764
 6854SOL    HW221099   4.427   1.885   9.839
 6855SOL     OW21100   3.910   2.820  10.582
 6855SOL    HW121101   3.996   2.781  10.565
 6855SOL    HW221102   3.850   2.770  10.525
 6856SOL     OW21103   4.073   2.116   0.026
 6856SOL    HW121104   4.119   2.193   0.059
 6856SOL    HW221105   3.980   2.139   0.031
 6857SOL     OW21106   4.310   2.586   9.580
 6857SOL    HW121107   4.304   2.668   9.531
 6857SOL    HW221108   4.246   2.595   9.650
 6858SOL     OW21109   3.811   2.685  10.086
 6858SOL    HW121110   3.891   2.676  10.137
 6858SOL    HW221111   3.769   2.764  10.121
 6859SOL     OW21112   3.858   3.719  10.900
 6859SOL    HW121113   3.845   3.678  10.986
 6859SOL    HW221114   3.778   3.698  10.852
 6860SOL     OW21115   4.245   2.048  10.192
 6860SOL    HW121116   4.267   2.056  10.285
 6860SOL    HW221117   4.255   2.137  10.158
 6861SOL     OW21118   4.083   3.679  10.179
 6861SOL    HW121119   4.136   3.600  10.187
 6861SOL    HW221120   4.145   3.751  10.189
 6862SOL     OW21121   4.039   2.824   9.563
 6862SOL    HW121122   4.123   2.843   9.522
 6862SOL    HW221123   4.011   2.741   9.525
 6863SOL     OW21124   4.174   3.125  11.057
 6863SOL    HW121125   4.148   3.144  10.967
 6863SOL    HW221126   4.108   3.062  11.089
 6864SOL     OW21127   3.931   2.134  10.807
 6864SOL    HW121128   3.851   2.187  10.810
 6864SOL    HW221129   3.912   2.059  10.864
 6865SOL     OW21130   4.190   3.596   9.636
 6865SOL    HW121131   4.226   3.657   9.700
 6865SOL    HW221132   4.258   3.589   9.569
 6866SOL     OW21133   3.982   3.655  10.540
 6866SOL    HW121134   4.025   3.580  10.580
 6866SOL    HW221135   3.968   3.628  10.449
 6867SOL     OW21136   4.115   2.552   9.782
 6867SOL    HW121137   4.136   2.460   9.799
 6867SOL    HW221138   4.021   2.558   9.801
 6868SOL     OW21139   4.339   1.966   9.430
 6868SOL    HW121140   4.434   1.953   9.430
 6868SOL    HW221141   4.312   1.945   9.341
 6869SOL     OW21142   0.024   3.278  10.213
 6869SOL    HW121143   0.068   3.343  10.157
 6869SOL    HW221144   4.446   3.253  10.163
 6870SOL     OW21145   4.259   1.928   9.809
 6870SOL    HW121146   4.179   1.931   9.863
 6870SOL    HW221147   4.253   2.006   9.753
 6871SOL     OW21148   4.016   1.910   9.496
 6871SOL    HW121149   4.077   1.973   9.456
 6871SOL    HW221150   4.073   1.848   9.541
 6872SOL     OW21151   0.312   2.534  10.772
 6872SOL    HW121152   0.282   2.447  10.745
 6872SOL    HW221153   0.400   2.520  10.807
 6873SOL     OW21154   4.192   3.005  10.034
 6873SOL    HW121155   4.127   2.985  10.100
 6873SOL    HW221156   4.147   2.991   9.951
 6874SOL     OW21157   3.806   2.412  10.709
 6874SOL    HW121158   3.897   2.414  10.681
 6874SOL    HW221159   3.803   2.473  10.784
 6875SOL     OW21160   4.282   2.067  10.461
 6875SOL    HW121161   4.325   2.003  10.518
 6875SOL    HW221162   4.194   2.077  10.498
 6876SOL     OW21163   4.231   3.246   9.484
 6876SOL    HW121164   4.146   3.232   9.525
 6876SOL    HW221165   4.212   3.257   9.391
 6877SOL     OW21166   4.241   2.129   9.629
 6877SOL    HW121167   4.284   2.073   9.564
 6877SOL    HW221168   4.220   2.210   9.582
 6878SOL     OW21169   4.143   2.676  10.559
 6878SOL    HW121170   4.211   2.684  10.627
 6878SOL    HW221171   4.108   2.587  10.571
 6879SOL     OW21172   3.797   3.440  10.669
 6879SOL    HW121173   3.767   3.507  10.607
 6879SOL    HW221174   3.892   3.439  10.657
 6880SOL     OW21175   4.056   2.979   9.798
 6880SOL    HW121176   4.059   3.052   9.736
 6880SOL    HW221177   4.057   2.901   9.743
 6881SOL     OW21178   4.304   2.396  10.178
 6881SOL    HW121179   4.304   2.465  10.111
 6881SOL    HW221180   4.374   2.422  10.238
 6882SOL     OW21181   4.071   3.400  10.623
 6882SOL    HW121182   4.069   3.354  10.539
 6882SOL    HW221183   4.164   3.401  10.647
 6883SOL     OW21184   4.135   2.591  10.899
 6883SOL    HW121185   4.203   2.633  10.845
 6883SOL    HW221186   4.155   2.497  10.893
 6884SOL     OW21187   4.285   2.764  10.337
 6884SOL    HW121188   4.304   2.856  10.352
 6884SOL    HW221189   4.241   2.735  10.416
 6885SOL     OW21190   4.023   2.061  10.555
 6885SOL    HW121191   3.989   2.093  10.639
 6885SOL    HW221192   4.004   1.967  10.555
 6886SOL     OW21193   3.778   3.177  10.582
 6886SOL    HW121194   3.803   3.118  10.653
 6886SOL    HW221195   3.774   3.263  10.623
 6887SOL     OW21196   4.019   1.926   9.938
 6887SOL    HW121197   4.000   2.017   9.960
 6887SOL    HW221198   4.034   1.883  10.022
 6888SOL     OW21199   4.083   2.775  11.092
 6888SOL    HW121200   4.165   2.794   0.037
 6888SOL    HW221201   4.105   2.707  11.028
 6889SOL     OW21202   4.030   2.670  10.254
 6889SOL    HW121203   4.121   2.700  10.256
 6889SOL    HW221204   4.034   2.579  10.283
 6890SOL     OW21205   4.066   2.394  10.320
 6890SOL    HW121206   4.028   2.308  10.304
 6890SOL    HW221207   4.148   2.394  10.269
 6891SOL     OW21208   3.730   3.180   9.505
 6891SOL    HW121209   3.643   3.195   9.469
 6891SOL    HW221210   3.726   3.090   9.540
 6892SOL     OW21211   3.818   3.645  10.252
 6892SOL    HW121212   3.788   3.567  10.205
 6892SOL    HW221213   3.907   3.659  10.220
 6893SOL     OW21214   4.233   3.450  10.215
 6893SOL    HW121215   4.319   3.470  10.252
 6893SOL    HW221216   4.250   3.382  10.150
 6894SOL     OW21217   3.760   2.411  10.429
 6894SOL    HW121218   3.839   2.397  10.377
 6894SOL    HW221219   3.791   2.410  10.519
 6895SOL     OW21220   0.025   2.412   9.571
 6895SOL    HW121221   0.027   2.372   9.659
 6895SOL    HW221222   4.456   2.477   9.576
 6896SOL     OW21223   3.979   3.428  11.044
 6896SOL    HW121224   3.918   3.450   0.014
 6896SOL    HW221225   3.998   3.335  11.058
 6897SOL     OW21226   4.183   2.354   9.493
 6897SOL    HW121227   4.244   2.425   9.514
 6897SOL    HW221228   4.099   2.397   9.480
 6898SOL     OW21229   3.873   3.000  10.778
 6898SOL    HW121230   3.867   2.949  10.858
 6898SOL    HW221231   3.887   2.935  10.709
 6899SOL     OW21232   3.813   3.133  10.319
 6899SOL    HW121233   3.797   3.146  10.413
 6899SOL    HW221234   3.743   3.075  10.291
 6900SOL     OW21235   4.380   3.526  10.994
 6900SOL    HW121236   4.293   3.560  10.978
 6900SOL    HW221237   4.418   3.513  10.907
 6901SOL     OW21238   3.981   2.181  10.023
 6901SOL    HW121239   3.893   2.213  10.002
 6901SOL    HW221240   3.981   2.173  10.119
 6902SOL     OW21241   4.075   3.180  10.816
 6902SOL    HW121242   4.064   3.249  10.750
 6902SOL    HW221243   4.009   3.115  10.793
 6903SOL     OW21244   4.327   3.353   9.789
 6903SOL    HW121245   4.343   3.293   9.716
 6903SOL    HW221246   4.260   3.413   9.757
 6904SOL     OW21247   3.985   3.207   9.601
 6904SOL    HW121248   3.893   3.203   9.577
 6904SOL    HW221249   3.986   3.247   9.688
 6905SOL     OW21250   3.844   2.878  11.017
 6905SOL    HW121251   3.777   2.869  11.084
 6905SOL    HW221252   3.923   2.842  11.057
 6906SOL     OW21253   4.396   2.072  10.811
 6906SOL    HW121254   4.472   2.088  10.756
 6906SOL    HW221255   4.428   2.083  10.901
 6907SOL     OW21256   3.805   2.190   9.342
 6907SOL    HW121257   3.718   2.172   9.307
 6907SOL    HW221258   3.835   2.267   9.294
 6908SOL     OW21259   3.788   2.016   9.612
 6908SOL    HW121260   3.774   2.095   9.561
 6908SOL    HW221261   3.873   1.983   9.585
 6909SOL     OW21262   4.342   2.700  10.748
 6909SOL    HW121263   4.373   2.789  10.730
 6909SOL    HW221264   4.420   2.651  10.770
 6910SOL     OW21265   4.120   3.598  10.882
 6910SOL    HW121266   4.046   3.658  10.867
 6910SOL    HW221267   4.082   3.527  10.934
 6911SOL     OW21268   4.307   2.589   9.982
 6911SOL    HW121269   4.347   2.674   9.966
 6911SOL    HW221270   4.239   2.581   9.915
 6912SOL     OW21271   3.814   3.091   9.976
 6912SOL    HW121272   3.824   3.047  10.060
 6912SOL    HW221273   3.880   3.052   9.919
 6913SOL     OW21274   4.415   3.248  10.959
 6913SOL    HW121275   4.334   3.205  10.984
 6913SOL    HW221276   4.407   3.337  10.994
 6914SOL     OW21277   4.167   2.293   9.847
 6914SOL    HW121278   4.182   2.228   9.779
 6914SOL    HW221279   4.106   2.252   9.908
 6915SOL     OW21280   4.056   2.418  10.599
 6915SOL    HW121281   4.110   2.361  10.654
 6915SOL    HW221282   4.075   2.392  10.509
 6916SOL     OW21283   0.034   3.474   9.999
 6916SOL    HW121284   0.059   3.542   9.936
 6916SOL    HW221285   4.470   3.420   9.951
 6917SOL     OW21286   3.767   2.928   9.618
 6917SOL    HW121287   3.860   2.919   9.599
 6917SOL    HW221288   3.738   2.839   9.640
 6918SOL     OW21289   3.918   4.302   0.087
 6918SOL    HW121290   3.904   4.365   0.157
 6918SOL    HW221291   3.925   4.355   0.008
 6919SOL     OW21292   3.946   4.011   0.991
 6919SOL    HW121293   3.977   3.974   1.074
 6919SOL    HW221294   3.857   3.977   0.981
 6920SOL     OW21295   3.725   4.101   0.643
 6920SOL    HW121296   3.645   4.132   0.686
 6920SOL    HW221297   3.697   4.025   0.592
 6921SOL     OW21298   0.065   4.500   1.858
 6921SOL    HW121299   0.124   0.059   1.906
 6921SOL    HW221300   0.080   0.020   1.766
 6922SOL     OW21301   4.174   4.112   1.471
 6922SOL    HW121302   4.250   4.055   1.481
 6922SOL    HW221303   4.100   4.058   1.498
 6923SOL     OW21304   3.797   4.378   0.567
 6923SOL    HW121305   3.789   4.285   0.589
 6923SOL    HW221306   3.871   4.409   0.619
 6924SOL     OW21307   3.840   4.482   1.581
 6924SOL    HW121308   3.897   0.005   1.653
 6924SOL    HW221309   3.813   0.066   1.544
 6925SOL     OW21310   0.020   3.737   0.534
 6925SOL    HW121311   0.051   3.790   0.461
 6925SOL    HW221312   4.425   3.747   0.533
 6926SOL     OW21313   4.065   3.973   1.820
 6926SOL    HW121314   4.102   4.058   1.846
 6926SOL    HW221315   3.972   3.979   1.842
 6927SOL     OW21316   4.245   3.908   0.881
 6927SOL    HW121317   4.266   3.914   0.975
 6927SOL    HW221318   4.255   3.997   0.849
 6928SOL     OW21319   3.923   3.996   1.509
 6928SOL    HW121320   3.839   4.040   1.504
 6928SOL    HW221321   3.905   3.912   1.550
 6929SOL     OW21322   4.092   4.387   0.407
 6929SOL    HW121323   4.130   4.313   0.455
 6929SOL    HW221324   4.027   4.424   0.467
 6930SOL     OW21325   4.345   3.838   0.122
 6930SOL    HW121326   4.435   3.806   0.124
 6930SOL    HW221327   4.313   3.813   0.035
 6931SOL     OW21328   4.258   3.790   0.497
 6931SOL    HW121329   4.178   3.792   0.549
 6931SOL    HW221330   4.252   3.868   0.442
 6932SOL     OW21331   4.009   3.773   0.205
 6932SOL    HW121332   4.050   3.828   0.138
 6932SOL    HW221333   4.075   3.708   0.227
 6933SOL     OW21334   0.378   4.384   1.531
 6933SOL    HW121335   0.340   4.368   1.445
 6933SOL    HW221336   0.440   4.312   1.545
 6934SOL     OW21337   3.803   4.280   1.396
 6934SOL    HW121338   3.894   4.273   1.367
 6934SOL    HW221339   3.803   4.355   1.456
 6935SOL     OW21340   4.279   3.928   1.149
 6935SOL    HW121341   4.330   3.881   1.215
 6935SOL    HW221342   4.193   3.939   1.188
 6936SOL     OW21343   4.247   3.996   0.323
 6936SOL    HW121344   4.283   3.935   0.258
 6936SOL    HW221345   4.221   4.073   0.272
 6937SOL     OW21346   4.161   0.014   1.283
 6937SOL    HW121347   4.223   0.006   1.355
 6937SOL    HW221348   4.118   4.429   1.279
 6938SOL     OW21349   4.313   4.260   0.880
 6938SOL    HW121350   4.324   4.335   0.822
 6938SOL    HW221351   4.381   4.270   0.946
 6939SOL     OW21352   4.235   3.776   1.734
 6939SOL    HW121353   4.186   3.717   1.676
 6939SOL    HW221354   4.172   3.845   1.756
 6940SOL     OW21355   4.021   3.923   1.247
 6940SOL    HW121356   3.984   3.954   1.330
 6940SOL    HW221357   4.003   3.829   1.247
 6941SOL     OW21358   4.020   3.788   0.628
 6941SOL    HW121359   4.001   3.880   0.650
 6941SOL    HW221360   4.034   3.746   0.712
 6942SOL     OW21361   4.038   0.011   0.917
 6942SOL    HW121362   4.110   0.074   0.924
 6942SOL    HW221363   4.063   4.438   0.974
 6943SOL     OW21364   4.078   4.244   1.020
 6943SOL    HW121365   4.035   4.161   0.998
 6943SOL    HW221366   4.158   4.244   0.967
 6944SOL     OW21367   3.758   4.278   1.116
 6944SOL    HW121368   3.836   4.261   1.063
 6944SOL    HW221369   3.790   4.276   1.206
 6945SOL     OW21370   3.920   4.250   1.718
 6945SOL    HW121371   3.965   4.189   1.660
 6945SOL    HW221372   3.869   4.306   1.659
 6946SOL     OW21373   0.007   4.296   0.292
 6946SOL    HW121374   0.016   4.219   0.348
 6946SOL    HW221375   0.003   4.370   0.354
 6947SOL     OW21376   4.187   4.212   0.168
 6947SOL    HW121377   4.240   4.279   0.213
 6947SOL    HW221378   4.099   4.251   0.164
 6948SOL     OW21379   3.983   4.045   0.715
 6948SOL    HW121380   3.894   4.071   0.692
 6948SOL    HW221381   3.981   4.034   0.810
 6949SOL     OW21382   4.389   3.928   1.494
 6949SOL    HW121383   4.479   3.945   1.464
 6949SOL    HW221384   4.396   3.920   1.589
 6950SOL     OW21385   3.808   4.049   0.063
 6950SOL    HW121386   3.741   4.049  11.094
 6950SOL    HW221387   3.835   4.141   0.069
 6951SOL     OW21388   3.782   3.880   0.305
 6951SOL    HW121389   3.770   3.951   0.242
 6951SOL    HW221390   3.868   3.844   0.283
 6952SOL     OW21391   4.407   4.272   1.759
 6952SOL    HW121392   4.430   4.352   1.806
 6952SOL    HW221393   4.490   4.242   1.722
 6953SOL     OW21394   4.175   4.158   0.544
 6953SOL    HW121395   4.191   4.091   0.477
 6953SOL    HW221396   4.111   4.118   0.603
 6954SOL     OW21397   4.049   4.267   1.291
 6954SOL    HW121398   4.103   4.209   1.344
 6954SOL    HW221399   4.070   4.243   1.200
 6955SOL     OW21400   3.945   4.286   1.986
 6955SOL    HW121401   3.905   4.366   2.022
 6955SOL    HW221402   3.937   4.295   1.891
 6956SOL     OW21403   3.946   4.010   2.853
 6956SOL    HW121404   3.977   3.974   2.936
 6956SOL    HW221405   3.857   3.977   2.843
 6957SOL     OW21406   3.724   4.099   2.505
 6957SOL    HW121407   3.646   4.133   2.548
 6957SOL    HW221408   3.694   4.022   2.457
 6958SOL     OW21409   0.065   0.000   3.721
 6958SOL    HW121410   0.124   0.059   3.768
 6958SOL    HW221411   0.080   0.020   3.628
 6959SOL     OW21412   4.174   4.111   3.333
 6959SOL    HW121413   4.250   4.054   3.343
 6959SOL    HW221414   4.100   4.058   3.360
 6960SOL     OW21415   3.777   4.388   2.447
 6960SOL    HW121416   3.784   4.293   2.454
 6960SOL    HW221417   3.862   4.420   2.478
 6961SOL     OW21418   3.840   4.482   3.443
 6961SOL    HW121419   3.897   0.005   3.515
 6961SOL    HW221420   3.813   0.066   3.406
 6962SOL     OW21421   0.023   3.734   2.386
 6962SOL    HW121422   0.051   3.791   2.315
 6962SOL    HW221423   4.428   3.746   2.390
 6963SOL     OW21424   4.065   3.973   3.682
 6963SOL    HW121425   4.102   4.058   3.708
 6963SOL    HW221426   3.972   3.979   3.704
 6964SOL     OW21427   4.245   3.907   2.743
 6964SOL    HW121428   4.266   3.913   2.836
 6964SOL    HW221429   4.256   3.996   2.710
 6965SOL     OW21430   3.924   3.997   3.370
 6965SOL    HW121431   3.839   4.041   3.365
 6965SOL    HW221432   3.904   3.913   3.412
 6966SOL     OW21433   4.088   4.394   2.274
 6966SOL    HW121434   4.127   4.316   2.315
 6966SOL    HW221435   4.035   4.434   2.344
 6967SOL     OW21436   4.337   3.821   1.985
 6967SOL    HW121437   4.432   3.818   1.981
 6967SOL    HW221438   4.308   3.803   1.895
 6968SOL     OW21439   4.259   3.789   2.364
 6968SOL    HW121440   4.179   3.792   2.416
 6968SOL    HW221441   4.253   3.866   2.307
 6969SOL     OW21442   4.017   3.772   2.048
 6969SOL    HW121443   4.077   3.835   2.009
 6969SOL    HW221444   4.073   3.709   2.093
 6970SOL     OW21445   0.378   4.384   3.393
 6970SOL    HW121446   0.340   4.368   3.307
 6970SOL    HW221447   0.440   4.312   3.407
 6971SOL     OW21448   3.803   4.280   3.259
 6971SOL    HW121449   3.894   4.273   3.229
 6971SOL    HW221450   3.803   4.355   3.318
 6972SOL     OW21451   4.279   3.927   3.011
 6972SOL    HW121452   4.330   3.881   3.078
 6972SOL    HW221453   4.193   3.939   3.050
 6973SOL     OW21454   4.244   3.987   2.184
 6973SOL    HW121455   4.284   3.930   2.119
 6973SOL    HW221456   4.227   4.069   2.137
 6974SOL     OW21457   4.161   0.014   3.144
 6974SOL    HW121458   4.224   0.007   3.217
 6974SOL    HW221459   4.118   4.429   3.141
 6975SOL     OW21460   4.312   4.260   2.741
 6975SOL    HW121461   4.322   4.335   2.683
 6975SOL    HW221462   4.381   4.271   2.807
 6976SOL     OW21463   4.234   3.776   3.596
 6976SOL    HW121464   4.186   3.717   3.538
 6976SOL    HW221465   4.172   3.845   3.618
 6977SOL     OW21466   4.021   3.923   3.109
 6977SOL    HW121467   3.983   3.954   3.192
 6977SOL    HW221468   4.002   3.829   3.109
 6978SOL     OW21469   4.019   3.788   2.490
 6978SOL    HW121470   4.001   3.879   2.512
 6978SOL    HW221471   4.034   3.746   2.575
 6979SOL     OW21472   4.037   0.011   2.779
 6979SOL    HW121473   4.108   0.074   2.786
 6979SOL    HW221474   4.063   4.439   2.837
 6980SOL     OW21475   4.078   4.243   2.882
 6980SOL    HW121476   4.035   4.160   2.860
 6980SOL    HW221477   4.158   4.244   2.830
 6981SOL     OW21478   3.758   4.277   2.978
 6981SOL    HW121479   3.836   4.262   2.924
 6981SOL    HW221480   3.791   4.276   3.068
 6982SOL     OW21481   3.920   4.250   3.580
 6982SOL    HW121482   3.965   4.189   3.521
 6982SOL    HW221483   3.869   4.306   3.521
 6983SOL     OW21484   0.010   4.299   2.150
 6983SOL    HW121485   0.013   4.216   2.198
 6983SOL    HW221486   4.497   4.366   2.217
 6984SOL     OW21487   4.201   4.209   2.044
 6984SOL    HW121488   4.253   4.287   2.063
 6984SOL    HW221489   4.111   4.241   2.036
 6985SOL     OW21490   3.983   4.044   2.576
 6985SOL    HW121491   3.894   4.071   2.554
 6985SOL    HW221492   3.982   4.034   2.671
 6986SOL     OW21493   4.389   3.928   3.355
 6986SOL    HW121494   4.479   3.945   3.326
 6986SOL    HW221495   4.396   3.921   3.451
 6987SOL     OW21496   3.800   4.035   1.890
 6987SOL    HW121497   3.720   4.033   1.838
 6987SOL    HW221498   3.831   4.126   1.883
 6988SOL     OW21499   3.788   3.877   2.165
 6988SOL    HW121500   3.772   3.954   2.111
 6988SOL    HW221501   3.873   3.845   2.137
 6989SOL     OW21502   4.407   4.271   3.622
 6989SOL    HW121503   4.429   4.351   3.668
 6989SOL    HW221504   4.490   4.242   3.584
 6990SOL     OW21505   4.176   4.157   2.406
 6990SOL    HW121506   4.188   4.093   2.336
 6990SOL    HW221507   4.112   4.118   2.464
 6991SOL     OW21508   4.049   4.267   3.153
 6991SOL    HW121509   4.103   4.209   3.206
 6991SOL    HW221510   4.070   4.244   3.062
 6992SOL     OW21511   3.945   4.286   3.848
 6992SOL    HW121512   3.906   4.366   3.884
 6992SOL    HW221513   3.937   4.295   3.753
 6993SOL     OW21514   3.947   4.010   4.715
 6993SOL    HW121515   3.977   3.974   4.798
 6993SOL    HW221516   3.857   3.977   4.705
 6994SOL     OW21517   3.724   4.099   4.367
 6994SOL    HW121518   3.646   4.133   4.410
 6994SOL    HW221519   3.694   4.022   4.319
 6995SOL     OW21520   0.065   0.000   5.583
 6995SOL    HW121521   0.124   0.059   5.630
 6995SOL    HW221522   0.080   0.020   5.490
 6996SOL     OW21523   4.174   4.111   5.195
 6996SOL    HW121524   4.250   4.054   5.205
 6996SOL    HW221525   4.099   4.058   5.222
 6997SOL     OW21526   3.778   4.387   4.308
 6997SOL    HW121527   3.784   4.292   4.316
 6997SOL    HW221528   3.862   4.420   4.340
 6998SOL     OW21529   3.840   4.482   5.305
 6998SOL    HW121530   3.897   0.006   5.377
 6998SOL    HW221531   3.813   0.066   5.267
 6999SOL     OW21532   0.023   3.734   4.248
 6999SOL    HW121533   0.051   3.791   4.177
 6999SOL    HW221534   4.428   3.746   4.252
 7000SOL     OW21535   4.065   3.973   5.544
 7000SOL    HW121536   4.102   4.058   5.570
 7000SOL    HW221537   3.972   3.979   5.566
 7001SOL     OW21538   4.245   3.907   4.605
 7001SOL    HW121539   4.266   3.913   4.698
 7001SOL    HW221540   4.256   3.996   4.572
 7002SOL     OW21541   3.924   3.997   5.232
 7002SOL    HW121542   3.839   4.041   5.227
 7002SOL    HW221543   3.904   3.912   5.274
 7003SOL     OW21544   4.088   4.394   4.136
 7003SOL    HW121545   4.127   4.316   4.177
 7003SOL    HW221546   4.034   4.433   4.205
 7004SOL     OW21547   4.337   3.821   3.847
 7004SOL    HW121548   4.432   3.818   3.843
 7004SOL    HW221549   4.308   3.803   3.757
 7005SOL     OW21550   4.259   3.789   4.226
 7005SOL    HW121551   4.179   3.792   4.278
 7005SOL    HW221552   4.253   3.866   4.169
 7006SOL     OW21553   4.017   3.772   3.910
 7006SOL    HW121554   4.077   3.835   3.871
 7006SOL    HW221555   4.073   3.709   3.955
 7007SOL     OW21556   0.378   4.384   5.255
 7007SOL    HW121557   0.339   4.368   5.169
 7007SOL    HW221558   0.439   4.312   5.268
 7008SOL     OW21559   3.803   4.280   5.121
 7008SOL    HW121560   3.894   4.273   5.091
 7008SOL    HW221561   3.803   4.355   5.180
 7009SOL     OW21562   4.279   3.928   4.873
 7009SOL    HW121563   4.329   3.881   4.939
 7009SOL    HW221564   4.193   3.939   4.911
 7010SOL     OW21565   4.244   3.987   4.046
 7010SOL    HW121566   4.284   3.930   3.981
 7010SOL    HW221567   4.227   4.069   3.999
 7011SOL     OW21568   4.161   0.014   5.006
 7011SOL    HW121569   4.223   0.007   5.078
 7011SOL    HW221570   4.118   4.429   5.003
 7012SOL     OW21571   4.312   4.260   4.603
 7012SOL    HW121572   4.321   4.335   4.545
 7012SOL    HW221573   4.381   4.271   4.669
 7013SOL     OW21574   4.234   3.776   5.458
 7013SOL    HW121575   4.186   3.717   5.400
 7013SOL    HW221576   4.172   3.845   5.480
 7014SOL     OW21577   4.021   3.923   4.971
 7014SOL    HW121578   3.983   3.954   5.053
 7014SOL    HW221579   4.003   3.829   4.971
 7015SOL     OW21580   4.019   3.788   4.352
 7015SOL    HW121581   4.000   3.879   4.373
 7015SOL    HW221582   4.033   3.746   4.437
 7016SOL     OW21583   4.037   0.011   4.642
 7016SOL    HW121584   4.108   0.074   4.648
 7016SOL    HW221585   4.063   4.439   4.699
 7017SOL     OW21586   4.078   4.243   4.745
 7017SOL    HW121587   4.035   4.160   4.723
 7017SOL    HW221588   4.158   4.244   4.692
 7018SOL     OW21589   3.758   4.277   4.840
 7018SOL    HW121590   3.836   4.262   4.786
 7018SOL    HW221591   3.791   4.276   4.930
 7019SOL     OW21592   3.919   4.250   5.442
 7019SOL    HW121593   3.964   4.189   5.383
 7019SOL    HW221594   3.869   4.306   5.384
 7020SOL     OW21595   0.010   4.298   4.012
 7020SOL    HW121596   0.012   4.216   4.060
 7020SOL    HW221597   4.497   4.365   4.079
 7021SOL     OW21598   4.201   4.209   3.906
 7021SOL    HW121599   4.253   4.287   3.925
 7021SOL    HW221600   4.111   4.241   3.898
 7022SOL     OW21601   3.983   4.044   4.438
 7022SOL    HW121602   3.894   4.071   4.416
 7022SOL    HW221603   3.982   4.034   4.533
 7023SOL     OW21604   4.389   3.928   5.217
 7023SOL    HW121605   4.479   3.945   5.188
 7023SOL    HW221606   4.396   3.921   5.313
 7024SOL     OW21607   3.800   4.035   3.752
 7024SOL    HW121608   3.720   4.033   3.700
 7024SOL    HW221609   3.831   4.126   3.746
 7025SOL     OW21610   3.788   3.877   4.027
 7025SOL    HW121611   3.772   3.954   3.973
 7025SOL    HW221612   3.873   3.845   3.999
 7026SOL     OW21613   4.407   4.271   5.484
 7026SOL    HW121614   4.429   4.352   5.530
 7026SOL    HW221615   4.490   4.242   5.446
 7027SOL     OW21616   4.177   4.157   4.268
 7027SOL    HW121617   4.188   4.093   4.198
 7027SOL    HW221618   4.112   4.118   4.327
 7028SOL     OW21619   4.049   4.267   5.015
 7028SOL    HW121620   4.103   4.209   5.068
 7028SOL    HW221621   4.070   4.243   4.925
 7029SOL     OW21622   3.946   4.286   5.710
 7029SOL    HW121623   3.905   4.365   5.745
 7029SOL    HW221624   3.937   4.295   5.615
 7030SOL     OW21625   3.946   4.010   6.577
 7030SOL    HW121626   3.977   3.974   6.660
 7030SOL    HW221627   3.857   3.977   6.567
 7031SOL     OW21628   3.724   4.099   6.229
 7031SOL    HW121629   3.646   4.133   6.272
 7031SOL    HW221630   3.694   4.022   6.181
 7032SOL     OW21631   0.065   4.500   7.445
 7032SOL    HW121632   0.124   0.059   7.492
 7032SOL    HW221633   0.080   0.020   7.352
 7033SOL     OW21634   4.174   4.111   7.057
 7033SOL    HW121635   4.250   4.054   7.067
 7033SOL    HW221636   4.100   4.058   7.084
 7034SOL     OW21637   3.778   4.388   6.170
 7034SOL    HW121638   3.784   4.293   6.178
 7034SOL    HW221639   3.862   4.420   6.202
 7035SOL     OW21640   3.840   4.482   7.167
 7035SOL    HW121641   3.898   0.005   7.239
 7035SOL    HW221642   3.813   0.066   7.129
 7036SOL     OW21643   0.023   3.734   6.110
 7036SOL    HW121644   0.051   3.791   6.039
 7036SOL    HW221645   4.428   3.746   6.114
 7037SOL     OW21646   4.065   3.973   7.406
 7037SOL    HW121647   4.102   4.058   7.432
 7037SOL    HW221648   3.972   3.979   7.428
 7038SOL     OW21649   4.245   3.907   6.467
 7038SOL    HW121650   4.266   3.913   6.560
 7038SOL    HW221651   4.256   3.996   6.434
 7039SOL     OW21652   3.924   3.997   7.094
 7039SOL    HW121653   3.839   4.041   7.089
 7039SOL    HW221654   3.904   3.913   7.136
 7040SOL     OW21655   4.088   4.394   5.999
 7040SOL    HW121656   4.127   4.316   6.039
 7040SOL    HW221657   4.035   4.433   6.068
 7041SOL     OW21658   4.337   3.821   5.709
 7041SOL    HW121659   4.432   3.818   5.705
 7041SOL    HW221660   4.308   3.803   5.619
 7042SOL     OW21661   4.259   3.789   6.088
 7042SOL    HW121662   4.179   3.792   6.140
 7042SOL    HW221663   4.253   3.866   6.031
 7043SOL     OW21664   4.016   3.772   5.772
 7043SOL    HW121665   4.077   3.835   5.733
 7043SOL    HW221666   4.073   3.709   5.817
 7044SOL     OW21667   0.378   4.384   7.117
 7044SOL    HW121668   0.340   4.367   7.031
 7044SOL    HW221669   0.440   4.312   7.131
 7045SOL     OW21670   3.803   4.280   6.983
 7045SOL    HW121671   3.894   4.273   6.953
 7045SOL    HW221672   3.803   4.355   7.042
 7046SOL     OW21673   4.279   3.927   6.735
 7046SOL    HW121674   4.330   3.881   6.802
 7046SOL    HW221675   4.193   3.939   6.774
 7047SOL     OW21676   4.245   3.987   5.908
 7047SOL    HW121677   4.284   3.930   5.843
 7047SOL    HW221678   4.227   4.069   5.861
 7048SOL     OW21679   4.161   0.014   6.868
 7048SOL    HW121680   4.224   0.007   6.940
 7048SOL    HW221681   4.118   4.429   6.865
 7049SOL     OW21682   4.312   4.260   6.465
 7049SOL    HW121683   4.322   4.335   6.407
 7049SOL    HW221684   4.381   4.271   6.531
 7050SOL     OW21685   4.235   3.776   7.320
 7050SOL    HW121686   4.186   3.717   7.262
 7050SOL    HW221687   4.172   3.845   7.342
 7051SOL     OW21688   4.021   3.923   6.833
 7051SOL    HW121689   3.984   3.954   6.916
 7051SOL    HW221690   4.003   3.829   6.833
 7052SOL     OW21691   4.019   3.788   6.214
 7052SOL    HW121692   4.001   3.879   6.235
 7052SOL    HW221693   4.034   3.746   6.299
 7053SOL     OW21694   4.037   0.011   6.504
 7053SOL    HW121695   4.108   0.074   6.510
 7053SOL    HW221696   4.063   4.439   6.561
 7054SOL     OW21697   4.078   4.243   6.606
 7054SOL    HW121698   4.035   4.161   6.584
 7054SOL    HW221699   4.158   4.244   6.554
 7055SOL     OW21700   3.758   4.277   6.702
 7055SOL    HW121701   3.835   4.262   6.648
 7055SOL    HW221702   3.791   4.276   6.792
 7056SOL     OW21703   3.920   4.250   7.304
 7056SOL    HW121704   3.965   4.189   7.245
 7056SOL    HW221705   3.869   4.306   7.245
 7057SOL     OW21706   0.010   4.298   5.874
 7057SOL    HW121707   0.012   4.216   5.922
 7057SOL    HW221708   4.497   4.365   5.941
 7058SOL     OW21709   4.201   4.209   5.769
 7058SOL    HW121710   4.253   4.287   5.787
 7058SOL    HW221711   4.111   4.241   5.760
 7059SOL     OW21712   3.983   4.044   6.300
 7059SOL    HW121713   3.894   4.071   6.278
 7059SOL    HW221714   3.982   4.034   6.395
 7060SOL     OW21715   4.389   3.928   7.080
 7060SOL    HW121716   4.479   3.945   7.050
 7060SOL    HW221717   4.396   3.921   7.175
 7061SOL     OW21718   3.800   4.035   5.614
 7061SOL    HW121719   3.719   4.032   5.563
 7061SOL    HW221720   3.831   4.126   5.605
 7062SOL     OW21721   3.788   3.877   5.889
 7062SOL    HW121722   3.772   3.955   5.835
 7062SOL    HW221723   3.873   3.845   5.861
 7063SOL     OW21724   4.407   4.271   7.345
 7063SOL    HW121725   4.429   4.352   7.392
 7063SOL    HW221726   4.490   4.242   7.308
 7064SOL     OW21727   4.176   4.157   6.130
 7064SOL    HW121728   4.188   4.093   6.060
 7064SOL    HW221729   4.112   4.118   6.189
 7065SOL     OW21730   4.049   4.267   6.877
 7065SOL    HW121731   4.103   4.209   6.930
 7065SOL    HW221732   4.070   4.243   6.786
 7066SOL     OW21733   3.945   4.286   7.572
 7066SOL    HW121734   3.905   4.366   7.607
 7066SOL    HW221735   3.937   4.295   7.477
 7067SOL     OW21736   3.946   4.010   8.439
 7067SOL    HW121737   3.977   3.974   8.522
 7067SOL    HW221738   3.857   3.977   8.429
 7068SOL     OW21739   3.724   4.099   8.091
 7068SOL    HW121740   3.646   4.133   8.134
 7068SOL    HW221741   3.694   4.022   8.043
 7069SOL     OW21742   0.065   4.500   9.307
 7069SOL    HW121743   0.124   0.059   9.354
 7069SOL    HW221744   0.080   0.021   9.214
 7070SOL     OW21745   4.174   4.112   8.919
 7070SOL    HW121746   4.250   4.054   8.929
 7070SOL    HW221747   4.100   4.058   8.946
 7071SOL     OW21748   3.777   4.388   8.033
 7071SOL    HW121749   3.783   4.293   8.040
 7071SOL    HW221750   3.862   4.421   8.063
 7072SOL     OW21751   3.840   4.482   9.028
 7072SOL    HW121752   3.898   0.005   9.101
 7072SOL    HW221753   3.813   0.066   8.991
 7073SOL     OW21754   0.023   3.734   7.972
 7073SOL    HW121755   0.051   3.791   7.901
 7073SOL    HW221756   4.428   3.746   7.976
 7074SOL     OW21757   4.065   3.973   9.268
 7074SOL    HW121758   4.102   4.058   9.294
 7074SOL    HW221759   3.972   3.980   9.290
 7075SOL     OW21760   4.245   3.907   8.329
 7075SOL    HW121761   4.265   3.913   8.422
 7075SOL    HW221762   4.256   3.996   8.296
 7076SOL     OW21763   3.924   3.997   8.956
 7076SOL    HW121764   3.839   4.041   8.952
 7076SOL    HW221765   3.904   3.913   8.998
 7077SOL     OW21766   4.088   4.394   7.861
 7077SOL    HW121767   4.127   4.316   7.901
 7077SOL    HW221768   4.036   4.434   7.930
 7078SOL     OW21769   4.337   3.821   7.571
 7078SOL    HW121770   4.432   3.818   7.567
 7078SOL    HW221771   4.308   3.803   7.481
 7079SOL     OW21772   4.259   3.789   7.950
 7079SOL    HW121773   4.179   3.792   8.003
 7079SOL    HW221774   4.253   3.866   7.893
 7080SOL     OW21775   4.017   3.772   7.634
 7080SOL    HW121776   4.077   3.835   7.595
 7080SOL    HW221777   4.073   3.709   7.679
 7081SOL     OW21778   0.378   4.384   8.979
 7081SOL    HW121779   0.340   4.368   8.893
 7081SOL    HW221780   0.440   4.312   8.993
 7082SOL     OW21781   3.803   4.280   8.845
 7082SOL    HW121782   3.894   4.273   8.815
 7082SOL    HW221783   3.803   4.355   8.904
 7083SOL     OW21784   4.279   3.927   8.597
 7083SOL    HW121785   4.330   3.881   8.664
 7083SOL    HW221786   4.192   3.939   8.636
 7084SOL     OW21787   4.244   3.987   7.770
 7084SOL    HW121788   4.284   3.930   7.705
 7084SOL    HW221789   4.227   4.069   7.723
 7085SOL     OW21790   4.161   0.014   8.731
 7085SOL    HW121791   4.224   0.006   8.802
 7085SOL    HW221792   4.118   4.429   8.727
 7086SOL     OW21793   4.312   4.260   8.328
 7086SOL    HW121794   4.322   4.335   8.269
 7086SOL    HW221795   4.381   4.270   8.393
 7087SOL     OW21796   4.235   3.776   9.182
 7087SOL    HW121797   4.186   3.717   9.123
 7087SOL    HW221798   4.172   3.845   9.204
 7088SOL     OW21799   4.021   3.923   8.695
 7088SOL    HW121800   3.983   3.954   8.778
 7088SOL    HW221801   4.002   3.829   8.695
 7089SOL     OW21802   4.019   3.788   8.076
 7089SOL    HW121803   4.001   3.879   8.098
 7089SOL    HW221804   4.034   3.746   8.161
 7090SOL     OW21805   4.037   0.011   8.366
 7090SOL    HW121806   4.108   0.074   8.372
 7090SOL    HW221807   4.063   4.439   8.423
 7091SOL     OW21808   4.078   4.243   8.468
 7091SOL    HW121809   4.035   4.161   8.446
 7091SOL    HW221810   4.158   4.244   8.416
 7092SOL     OW21811   3.758   4.277   8.564
 7092SOL    HW121812   3.836   4.262   8.510
 7092SOL    HW221813   3.791   4.276   8.654
 7093SOL     OW21814   3.920   4.250   9.166
 7093SOL    HW121815   3.965   4.189   9.107
 7093SOL    HW221816   3.869   4.306   9.107
 7094SOL     OW21817   0.010   4.299   7.736
 7094SOL    HW121818   0.013   4.216   7.785
 7094SOL    HW221819   4.497   4.366   7.803
 7095SOL     OW21820   4.201   4.209   7.630
 7095SOL    HW121821   4.253   4.287   7.649
 7095SOL    HW221822   4.111   4.241   7.622
 7096SOL     OW21823   3.983   4.044   8.162
 7096SOL    HW121824   3.894   4.071   8.140
 7096SOL    HW221825   3.982   4.034   8.257
 7097SOL     OW21826   4.389   3.928   8.941
 7097SOL    HW121827   4.479   3.945   8.912
 7097SOL    HW221828   4.396   3.921   9.037
 7098SOL     OW21829   3.800   4.035   7.476
 7098SOL    HW121830   3.720   4.033   7.424
 7098SOL    HW221831   3.831   4.126   7.469
 7099SOL     OW21832   3.788   3.877   7.751
 7099SOL    HW121833   3.772   3.954   7.696
 7099SOL    HW221834   3.873   3.845   7.723
 7100SOL     OW21835   4.407   4.271   9.207
 7100SOL    HW121836   4.429   4.352   9.254
 7100SOL    HW221837   4.490   4.242   9.170
 7101SOL     OW21838   4.176   4.157   7.992
 7101SOL    HW121839   4.188   4.093   7.922
 7101SOL    HW221840   4.112   4.118   8.050
 7102SOL     OW21841   4.048   4.267   8.739
 7102SOL    HW121842   4.103   4.209   8.792
 7102SOL    HW221843   4.070   4.244   8.648
 7103SOL     OW21844   3.945   4.286   9.434
 7103SOL    HW121845   3.906   4.366   9.469
 7103SOL    HW221846   3.937   4.295   9.339
 7104SOL     OW21847   3.947   4.010  10.301
 7104SOL    HW121848   3.977   3.974  10.384
 7104SOL    HW221849   3.857   3.977  10.291
 7105SOL     OW21850   3.724   4.098   9.953
 7105SOL    HW121851   3.646   4.132   9.995
 7105SOL    HW221852   3.694   4.021   9.905
 7106SOL     OW21853   4.182   4.121  10.792
 7106SOL    HW121854   4.251   4.055  10.799
 7106SOL    HW221855   4.102   4.075  10.818
 7107SOL     OW21856   3.776   4.389   9.896
 7107SOL    HW121857   3.783   4.293   9.903
 7107SOL    HW221858   3.861   4.421   9.925
 7108SOL     OW21859   3.857   4.462  10.904
 7108SOL    HW121860   3.953   4.464  10.905
 7108SOL    HW221861   3.831   0.054  10.899
 7109SOL     OW21862   0.022   3.733   9.834
 7109SOL    HW121863   0.051   3.791   9.763
 7109SOL    HW221864   4.428   3.746   9.838
 7110SOL     OW21865   4.073   3.977   0.022
 7110SOL    HW121866   4.115   4.058   0.051
 7110SOL    HW221867   3.979   3.994   0.032
 7111SOL     OW21868   4.245   3.907  10.193
 7111SOL    HW121869   4.267   3.916  10.286
 7111SOL    HW221870   4.256   3.996  10.158
 7112SOL     OW21871   3.931   3.998  10.809
 7112SOL    HW121872   3.852   4.052  10.816
 7112SOL    HW221873   3.913   3.922  10.866
 7113SOL     OW21874   4.088   4.395   9.723
 7113SOL    HW121875   4.127   4.317   9.763
 7113SOL    HW221876   4.036   4.434   9.793
 7114SOL     OW21877   4.337   3.821   9.433
 7114SOL    HW121878   4.432   3.818   9.429
 7114SOL    HW221879   4.308   3.803   9.343
 7115SOL     OW21880   4.259   3.789   9.812
 7115SOL    HW121881   4.179   3.792   9.864
 7115SOL    HW221882   4.253   3.866   9.755
 7116SOL     OW21883   4.017   3.772   9.496
 7116SOL    HW121884   4.078   3.835   9.457
 7116SOL    HW221885   4.073   3.709   9.541
 7117SOL     OW21886   0.337   4.374  10.826
 7117SOL    HW121887   0.247   4.348  10.811
 7117SOL    HW221888   0.389   4.297  10.802
 7118SOL     OW21889   3.801   4.275  10.711
 7118SOL    HW121890   3.892   4.268  10.680
 7118SOL    HW221891   3.805   4.339  10.783
 7119SOL     OW21892   4.282   3.929  10.462
 7119SOL    HW121893   4.324   3.863  10.518
 7119SOL    HW221894   4.194   3.939  10.498
 7120SOL     OW21895   4.244   3.987   9.632
 7120SOL    HW121896   4.284   3.930   9.567
 7120SOL    HW221897   4.227   4.069   9.585
 7121SOL     OW21898   4.161   0.008  10.580
 7121SOL    HW121899   4.221   0.000  10.654
 7121SOL    HW221900   4.111   4.426  10.580
 7122SOL     OW21901   4.312   4.259  10.190
 7122SOL    HW121902   4.323   4.334  10.132
 7122SOL    HW221903   4.382   4.269  10.255
 7123SOL     OW21904   4.129   4.459  10.906
 7123SOL    HW121905   4.195   0.028  10.894
 7123SOL    HW221906   4.178   4.377  10.899
 7124SOL     OW21907   4.023   3.923  10.556
 7124SOL    HW121908   3.988   3.955  10.639
 7124SOL    HW221909   4.004   3.829  10.556
 7125SOL     OW21910   4.019   3.788   9.938
 7125SOL    HW121911   4.000   3.879   9.960
 7125SOL    HW221912   4.033   3.745  10.023
 7126SOL     OW21913   4.038   0.011  10.227
 7126SOL    HW121914   4.109   0.075  10.236
 7126SOL    HW221915   4.063   4.439  10.285
 7127SOL     OW21916   4.078   4.243  10.331
 7127SOL    HW121917   4.035   4.161  10.308
 7127SOL    HW221918   4.158   4.244  10.278
 7128SOL     OW21919   3.758   4.280  10.429
 7128SOL    HW121920   3.837   4.264  10.377
 7128SOL    HW221921   3.789   4.276  10.520
 7129SOL     OW21922   0.009   4.299   9.598
 7129SOL    HW121923   0.013   4.217   9.647
 7129SOL    HW221924   4.498   4.366   9.665
 7130SOL     OW21925   4.201   4.209   9.492
 7130SOL    HW121926   4.253   4.287   9.511
 7130SOL    HW221927   4.111   4.241   9.484
 7131SOL     OW21928   3.983   4.044  10.025
 7131SOL    HW121929   3.894   4.071  10.002
 7131SOL    HW221930   3.982   4.034  10.120
 7132SOL     OW21931   4.398   3.935  10.814
 7132SOL    HW121932   4.474   3.948  10.757
 7132SOL    HW221933   4.432   3.945  10.903
 7133SOL     OW21934   3.800   4.035   9.338
 7133SOL    HW121935   3.720   4.033   9.286
 7133SOL    HW221936   3.831   4.126   9.331
 7134SOL     OW21937   3.788   3.877   9.613
 7134SOL    HW121938   3.772   3.954   9.558
 7134SOL    HW221939   3.873   3.845   9.585
 7135SOL     OW21940   4.176   4.157   9.854
 7135SOL    HW121941   4.188   4.093   9.784
 7135SOL    HW221942   4.111   4.118   9.912
 7136SOL     OW21943   4.047   4.262  10.602
 7136SOL    HW121944   4.103   4.207  10.655
 7136SOL    HW221945   4.069   4.239  10.511
   4.50000   4.50000  11.10000
