2aCDOC_1PEG_l11
21960
    1LIG      O    1   2.214   2.279   0.025
    1LIG      C    2   2.295   2.293   0.150
    1LIG     C1    3   2.223   2.236   0.282
    1LIG     O1    4   2.283   2.287   0.407
    1LIG     C2    5   2.222   2.233   0.530
    1LIG     C3    6   2.296   2.280   0.663
    1LIG     O2    7   2.234   2.222   0.782
    1LIG     C4    8   2.289   2.274   0.908
    1LIG     C5    9   2.209   2.222   1.034
    1LIG     O3   10   2.267   2.274   1.157
    1LIG     C6   11   2.210   2.222   1.281
    1LIG     C7   12   2.286   2.280   1.406
    1LIG     O4   13   2.218   2.244   1.529
    1LIG     C8   14   2.294   2.277   1.648
    1LIG     C9   15   2.218   2.225   1.774
    1LIG     O5   16   2.282   2.272   1.894
    1LIG    C10   17   2.222   2.222   2.016
    1LIG    C11   18   2.297   2.276   2.142
    1LIG     O6   19   2.242   2.216   2.262
    1LIG    C12   20   2.292   2.280   2.383
    1LIG    C13   21   2.216   2.227   2.509
    1LIG     O7   22   2.284   2.272   2.629
    1LIG    C14   23   2.213   2.244   2.752
    1LIG    C15   24   2.294   2.301   2.876
    1LIG     O8   25   2.244   2.249   3.002
    1LIG    C16   26   2.305   2.302   3.123
    1LIG    C17   27   2.232   2.239   3.247
    1LIG     O9   28   2.281   2.298   3.370
    1LIG    C18   29   2.223   2.238   3.489
    1LIG    C19   30   2.297   2.287   3.617
    1LIG    O10   31   2.230   2.238   3.736
    1LIG    C20   32   2.295   2.285   3.859
    1LIG    C21   33   2.216   2.235   3.984
    1LIG    O11   34   2.275   2.286   4.107
    1LIG    C22   35   2.212   2.231   4.225
    1LIG    C23   36   2.288   2.277   4.354
    1LIG    O12   37   2.228   2.219   4.472
    1LIG    C24   38   2.284   2.275   4.593
    1LIG    C25   39   2.207   2.221   4.718
    1LIG    O13   40   2.267   2.274   4.838
    1LIG    C26   41   2.207   2.223   4.960
    1LIG    C27   42   2.282   2.282   5.082
    1LIG    O14   43   2.225   2.232   5.206
    1LIG    C28   44   2.292   2.284   5.324
    1LIG    C29   45   2.220   2.234   5.453
    1LIG    O15   46   2.275   2.289   5.576
    1LIG    C30   47   2.216   2.232   5.697
    1LIG    C31   48   2.288   2.286   5.825
    1LIG    O16   49   2.221   2.238   5.945
    1LIG    C32   50   2.282   2.285   6.069
    1LIG    C33   51   2.203   2.230   6.193
    1LIG    O17   52   2.246   2.290   6.319
    1LIG    C34   53   2.181   2.228   6.435
    1LIG    C35   54   2.238   2.286   6.570
    1LIG    O18   55   2.179   2.238   6.691
    1LIG    C36   56   2.251   2.291   6.806
    1LIG    C37   57   2.200   2.223   6.936
    1LIG    O19   58   2.259   2.287   7.052
    1LIG    C38   59   2.210   2.226   7.174
    1LIG    C39   60   2.289   2.278   7.297
    1LIG    O20   61   2.228   2.231   7.420
    1LIG    C40   62   2.294   2.281   7.539
    1LIG    C41   63   2.219   2.230   7.666
    1LIG    O21   64   2.284   2.272   7.787
    1LIG    C42   65   2.213   2.228   7.906
    1LIG    C43   66   2.287   2.280   8.033
    1LIG    O22   67   2.231   2.218   8.152
    1LIG    C44   68   2.286   2.276   8.274
    1LIG    C45   69   2.211   2.221   8.399
    1LIG    O23   70   2.269   2.276   8.521
    1LIG    C46   71   2.216   2.220   8.643
    1LIG    C47   72   2.291   2.281   8.766
    1LIG    O24   73   2.221   2.248   8.890
    1LIG    C48   74   2.296   2.282   9.010
    1LIG    C49   75   2.224   2.226   9.137
    1LIG    O25   76   2.292   2.271   9.257
    1LIG    C50   77   2.230   2.226   9.380
    1LIG    C51   78   2.306   2.278   9.506
    1LIG    O26   79   2.245   2.225   9.627
    1LIG    C52   80   2.293   2.286   9.751
    1LIG    C53   81   2.211   2.231   9.873
    1LIG    O27   82   2.271   2.268  10.001
    1LIG    C54   83   2.204   2.217  10.121
    1LIG    C55   84   2.277   2.273  10.251
    1LIG    O28   85   2.213   2.235  10.377
    1LIG    C56   86   2.276   2.291  10.498
    1LIG    C57   87   2.214   2.226  10.628
    1LIG    O29   88   2.264   2.281  10.756
    1LIG    C58   89   2.199   2.216  10.873
    1LIG    C59   90   2.283   2.215  11.010
    1LIG      H   91   2.316   2.399   0.167
    1LIG     H1   92   2.391   2.242   0.139
    1LIG     H2   93   2.231   2.127   0.282
    1LIG     H3   94   2.116   2.262   0.280
    1LIG     H4   95   2.227   2.124   0.525
    1LIG     H5   96   2.117   2.262   0.535
    1LIG     H6   97   2.291   2.389   0.670
    1LIG     H7   98   2.401   2.251   0.659
    1LIG     H8   99   2.284   2.384   0.907
    1LIG     H9  100   2.394   2.245   0.917
    1LIG    H10  101   2.212   2.112   1.036
    1LIG    H11  102   2.104   2.253   1.027
    1LIG    H12  103   2.218   2.112   1.282
    1LIG    H13  104   2.104   2.248   1.287
    1LIG    H14  105   2.291   2.390   1.398
    1LIG    H15  106   2.388   2.241   1.408
    1LIG    H16  107   2.306   2.385   1.656
    1LIG    H17  108   2.394   2.231   1.644
    1LIG    H18  109   2.216   2.115   1.773
    1LIG    H19  110   2.115   2.262   1.770
    1LIG    H20  111   2.223   2.112   2.016
    1LIG    H21  112   2.118   2.255   2.022
    1LIG    H22  113   2.285   2.385   2.145
    1LIG    H23  114   2.404   2.252   2.135
    1LIG    H24  115   2.281   2.389   2.376
    1LIG    H25  116   2.399   2.257   2.392
    1LIG    H26  117   2.214   2.118   2.507
    1LIG    H27  118   2.113   2.265   2.507
    1LIG    H28  119   2.201   2.136   2.762
    1LIG    H29  120   2.114   2.291   2.748
    1LIG    H30  121   2.289   2.410   2.875
    1LIG    H31  122   2.399   2.271   2.867
    1LIG    H32  123   2.294   2.411   3.126
    1LIG    H33  124   2.411   2.276   3.125
    1LIG    H34  125   2.247   2.130   3.247
    1LIG    H35  126   2.125   2.260   3.237
    1LIG    H36  127   2.228   2.129   3.483
    1LIG    H37  128   2.117   2.267   3.496
    1LIG    H38  129   2.298   2.396   3.619
    1LIG    H39  130   2.400   2.250   3.615
    1LIG    H40  131   2.298   2.395   3.859
    1LIG    H41  132   2.398   2.248   3.863
    1LIG    H42  133   2.219   2.126   3.987
    1LIG    H43  134   2.111   2.267   3.978
    1LIG    H44  135   2.214   2.122   4.219
    1LIG    H45  136   2.107   2.263   4.229
    1LIG    H46  137   2.283   2.386   4.361
    1LIG    H47  138   2.393   2.247   4.347
    1LIG    H48  139   2.276   2.385   4.591
    1LIG    H49  140   2.390   2.249   4.600
    1LIG    H50  141   2.212   2.112   4.719
    1LIG    H51  142   2.102   2.253   4.713
    1LIG    H52  143   2.213   2.113   4.961
    1LIG    H53  144   2.101   2.253   4.963
    1LIG    H54  145   2.275   2.391   5.079
    1LIG    H55  146   2.388   2.256   5.076
    1LIG    H56  147   2.290   2.393   5.320
    1LIG    H57  148   2.396   2.251   5.325
    1LIG    H58  149   2.234   2.127   5.456
    1LIG    H59  150   2.113   2.252   5.448
    1LIG    H60  151   2.225   2.123   5.695
    1LIG    H61  152   2.110   2.257   5.702
    1LIG    H62  153   2.287   2.396   5.824
    1LIG    H63  154   2.393   2.253   5.825
    1LIG    H64  155   2.282   2.394   6.070
    1LIG    H65  156   2.387   2.252   6.073
    1LIG    H66  157   2.216   2.122   6.199
    1LIG    H67  158   2.097   2.249   6.179
    1LIG    H68  159   2.197   2.121   6.431
    1LIG    H69  160   2.073   2.245   6.430
    1LIG    H70  161   2.231   2.395   6.567
    1LIG    H71  162   2.344   2.261   6.579
    1LIG    H72  163   2.236   2.400   6.812
    1LIG    H73  164   2.359   2.274   6.796
    1LIG    H74  165   2.226   2.117   6.934
    1LIG    H75  166   2.092   2.234   6.940
    1LIG    H76  167   2.220   2.117   7.169
    1LIG    H77  168   2.103   2.250   7.186
    1LIG    H78  169   2.289   2.388   7.297
    1LIG    H79  170   2.393   2.243   7.292
    1LIG    H80  171   2.296   2.391   7.538
    1LIG    H81  172   2.398   2.246   7.541
    1LIG    H82  173   2.217   2.121   7.663
    1LIG    H83  174   2.115   2.267   7.665
    1LIG    H84  175   2.211   2.119   7.906
    1LIG    H85  176   2.110   2.265   7.904
    1LIG    H86  177   2.277   2.389   8.039
    1LIG    H87  178   2.394   2.255   8.026
    1LIG    H88  179   2.277   2.385   8.271
    1LIG    H89  180   2.393   2.250   8.281
    1LIG    H90  181   2.217   2.112   8.401
    1LIG    H91  182   2.105   2.250   8.394
    1LIG    H92  183   2.226   2.111   8.643
    1LIG    H93  184   2.109   2.246   8.650
    1LIG    H94  185   2.296   2.390   8.757
    1LIG    H95  186   2.394   2.242   8.769
    1LIG    H96  187   2.303   2.390   9.017
    1LIG    H97  188   2.398   2.242   9.005
    1LIG    H98  189   2.222   2.117   9.133
    1LIG    H99  190   2.120   2.262   9.138
    1LIG   H100  191   2.226   2.117   9.381
    1LIG   H101  192   2.127   2.264   9.384
    1LIG   H102  193   2.301   2.388   9.508
    1LIG   H103  194   2.411   2.248   9.502
    1LIG   H104  195   2.283   2.396   9.745
    1LIG   H105  196   2.399   2.262   9.763
    1LIG   H106  197   2.211   2.123   9.864
    1LIG   H107  198   2.108   2.266   9.867
    1LIG   H108  199   2.208   2.108  10.121
    1LIG   H109  200   2.099   2.249  10.121
    1LIG   H110  201   2.280   2.382  10.245
    1LIG   H111  202   2.380   2.235  10.252
    1LIG   H112  203   2.262   2.400  10.498
    1LIG   H113  204   2.384   2.271  10.495
    1LIG   H114  205   2.234   2.118  10.625
    1LIG   H115  206   2.105   2.240  10.624
    1LIG   H116  207   2.181   2.111  10.847
    1LIG   H117  208   2.100   2.262  10.889
    1LIG   H118  209   2.382   2.257  10.995
    1LIG   H119  210   2.297   2.109  11.037
    2MOL     C1  211   1.900   1.835   5.032
    2MOL     H1  212   1.894   1.726   5.045
    2MOL     O1  213   1.852   1.901   5.149
    2MOL     C2  214   1.862   2.046   5.142
    2MOL     H2  215   1.966   2.079   5.130
    2MOL     C3  216   1.812   2.095   5.275
    2MOL     H3  217   1.722   2.039   5.302
    2MOL     H4  218   1.788   2.201   5.274
    2MOL     O2  219   1.919   2.074   5.367
    2MOL     C4  220   1.868   2.097   5.495
    2MOL     C5  221   1.807   1.878   4.916
    2MOL     H5  222   1.705   1.847   4.940
    2MOL     O3  223   1.849   1.820   4.792
    2MOL     C6  224   1.814   1.682   4.780
    2MOL     C7  225   1.807   2.030   4.896
    2MOL     H6  226   1.905   2.063   4.863
    2MOL     O4  227   1.703   2.063   4.802
    2MOL     C8  228   1.753   2.097   4.671
    2MOL     C9  229   1.775   2.101   5.028
    2MOL     H7  230   1.669   2.089   5.052
    2MOL     O5  231   1.810   2.239   5.007
    2MOL    C10  232   1.712   2.336   5.049
    2MOL     H8  233   1.614   2.291   5.065
    2MOL     O6  234   1.758   2.398   5.171
    2MOL    C11  235   1.891   2.455   5.166
    2MOL     H9  236   1.967   2.379   5.143
    2MOL    C12  237   1.921   2.514   5.303
    2MOL    H10  238   1.836   2.576   5.335
    2MOL    H11  239   2.010   2.576   5.301
    2MOL     O7  240   1.939   2.405   5.393
    2MOL    C13  241   1.979   2.453   5.521
    2MOL    C14  242   1.703   2.447   4.942
    2MOL    H12  243   1.627   2.520   4.975
    2MOL     O8  244   1.666   2.392   4.814
    2MOL    C15  245   1.530   2.350   4.804
    2MOL    C16  246   1.838   2.518   4.925
    2MOL    H13  247   1.911   2.448   4.881
    2MOL     O9  248   1.816   2.633   4.843
    2MOL    C17  249   1.857   2.617   4.709
    2MOL    C18  250   1.894   2.565   5.059
    2MOL    H14  251   1.831   2.647   5.095
    2MOL    O10  252   2.029   2.610   5.038
    2MOL    C19  253   2.056   2.746   5.078
    2MOL    H15  254   1.961   2.798   5.100
    2MOL    O11  255   2.139   2.747   5.195
    2MOL    C20  256   2.265   2.676   5.179
    2MOL    H16  257   2.246   2.571   5.159
    2MOL    C21  258   2.339   2.687   5.312
    2MOL    H17  259   2.342   2.791   5.346
    2MOL    H18  260   2.442   2.651   5.301
    2MOL    O12  261   2.269   2.607   5.407
    2MOL    C22  262   2.347   2.590   5.525
    2MOL    C23  263   2.133   2.824   4.969
    2MOL    H19  264   2.156   2.924   5.006
    2MOL    O13  265   2.053   2.833   4.850
    2MOL    C24  266   1.956   2.938   4.858
    2MOL    C25  267   2.266   2.757   4.935
    2MOL    H20  268   2.248   2.659   4.889
    2MOL    O14  269   2.340   2.846   4.849
    2MOL    C26  270   2.341   2.808   4.711
    2MOL    C27  271   2.349   2.736   5.063
    2MOL    H21  272   2.391   2.832   5.094
    2MOL    O15  273   2.451   2.641   5.025
    2MOL    C28  274   2.587   2.681   5.051
    2MOL    H22  275   2.593   2.789   5.071
    2MOL    O16  276   2.633   2.607   5.165
    2MOL    C29  277   2.622   2.462   5.153
    2MOL    H23  278   2.517   2.434   5.140
    2MOL    C30  279   2.672   2.402   5.284
    2MOL    H24  280   2.639   2.298   5.292
    2MOL    H25  281   2.630   2.457   5.369
    2MOL    O17  282   2.816   2.410   5.284
    2MOL    C31  283   2.874   2.334   5.389
    2MOL    C32  284   2.678   2.644   4.931
    2MOL    H26  285   2.781   2.671   4.957
    2MOL    O18  286   2.637   2.715   4.813
    2MOL    C33  287   2.672   2.854   4.810
    2MOL    C34  288   2.674   2.493   4.903
    2MOL    H27  289   2.574   2.464   4.866
    2MOL    O19  290   2.778   2.464   4.806
    2MOL    C35  291   2.728   2.427   4.676
    2MOL    C36  292   2.704   2.412   5.030
    2MOL    H28  293   2.812   2.424   5.050
    2MOL    O20  294   2.671   2.274   5.003
    2MOL    C37  295   2.771   2.177   5.040
    2MOL    H29  296   2.867   2.225   5.059
    2MOL    O21  297   2.727   2.109   5.159
    2MOL    C38  298   2.598   2.043   5.147
    2MOL    H30  299   2.521   2.117   5.125
    2MOL    C39  300   2.563   1.983   5.282
    2MOL    H31  301   2.455   1.968   5.286
    2MOL    H32  302   2.592   2.051   5.363
    2MOL    O22  303   2.632   1.858   5.294
    2MOL    C40  304   2.585   1.786   5.406
    2MOL    C41  305   2.786   2.072   4.928
    2MOL    H33  306   2.861   1.997   4.957
    2MOL    O23  307   2.825   2.136   4.805
    2MOL    C42  308   2.962   2.179   4.799
    2MOL    C43  309   2.652   2.000   4.903
    2MOL    H34  310   2.578   2.072   4.866
    2MOL    O24  311   2.674   1.893   4.809
    2MOL    C44  312   2.618   1.917   4.679
    2MOL    C45  313   2.599   1.938   5.033
    2MOL    H35  314   2.664   1.854   5.059
    2MOL    O25  315   2.463   1.894   5.008
    2MOL    C46  316   2.430   1.760   5.051
    2MOL    H36  317   2.521   1.702   5.073
    2MOL    O26  318   2.349   1.768   5.168
    2MOL    C47  319   2.227   1.845   5.154
    2MOL    H37  320   2.250   1.950   5.130
    2MOL    C48  321   2.158   1.840   5.288
    2MOL    H38  322   2.148   1.736   5.320
    2MOL    H39  323   2.058   1.885   5.284
    2MOL    O27  324   2.241   1.912   5.378
    2MOL    C49  325   2.194   1.901   5.511
    2MOL    C50  326   2.347   1.688   4.941
    2MOL    H40  327   2.326   1.585   4.974
    2MOL    O28  328   2.418   1.688   4.818
    2MOL    C51  329   2.538   1.611   4.820
    2MOL    C52  330   2.214   1.760   4.916
    2MOL    H41  331   2.237   1.859   4.872
    2MOL    O29  332   2.133   1.681   4.828
    2MOL    C53  333   2.128   1.728   4.693
    2MOL    C54  334   2.137   1.785   5.044
    2MOL    H42  335   2.096   1.689   5.081
    2MOL    O30  336   2.034   1.878   5.009
    2MOL    H43  337   1.967   2.375   5.596
    2MOL    H44  338   2.083   2.487   5.519
    2MOL    H45  339   1.916   2.537   5.544
    2MOL    H46  340   1.940   2.072   5.573
    2MOL    H47  341   1.837   2.202   5.505
    2MOL    H48  342   1.779   2.034   5.504
    2MOL    H49  343   2.268   1.939   5.582
    2MOL    H50  344   2.100   1.956   5.522
    2MOL    H51  345   2.176   1.796   5.528
    2MOL    H52  346   2.655   1.706   5.433
    2MOL    H53  347   2.577   1.857   5.488
    2MOL    H54  348   2.485   1.745   5.390
    2MOL    H55  349   2.978   2.364   5.406
    2MOL    H56  350   2.815   2.352   5.477
    2MOL    H57  351   2.867   2.227   5.370
    2MOL    H58  352   2.289   2.541   5.604
    2MOL    H59  353   2.438   2.533   5.506
    2MOL    H60  354   2.377   2.690   5.556
    2MOL    H61  355   2.987   2.206   4.696
    2MOL    H62  356   2.978   2.267   4.863
    2MOL    H63  357   3.029   2.097   4.830
    2MOL    H64  358   2.812   2.406   4.609
    2MOL    H65  359   2.667   2.337   4.683
    2MOL    H66  360   2.668   2.508   4.634
    2MOL    H67  361   2.653   2.896   4.711
    2MOL    H68  362   2.611   2.911   4.883
    2MOL    H69  363   2.778   2.867   4.835
    2MOL    H70  364   2.404   2.879   4.656
    2MOL    H71  365   2.384   2.708   4.700
    2MOL    H72  366   2.240   2.809   4.670
    2MOL    H73  367   1.914   2.957   4.760
    2MOL    H74  368   1.874   2.911   4.926
    2MOL    H75  369   2.004   3.031   4.892
    2MOL    H76  370   1.824   2.705   4.653
    2MOL    H77  371   1.966   2.609   4.703
    2MOL    H78  372   1.812   2.528   4.663
    2MOL    H79  373   1.508   2.318   4.701
    2MOL    H80  374   1.513   2.264   4.870
    2MOL    H81  375   1.462   2.431   4.832
    2MOL    H82  376   1.668   2.117   4.604
    2MOL    H83  377   1.815   2.187   4.677
    2MOL    H84  378   1.812   2.015   4.630
    2MOL    H85  379   1.830   1.648   4.677
    2MOL    H86  380   1.876   1.621   4.846
    2MOL    H87  381   1.709   1.668   4.806
    2MOL    H88  382   2.081   1.652   4.629
    2MOL    H89  383   2.070   1.821   4.687
    2MOL    H90  384   2.229   1.748   4.655
    2MOL    H91  385   2.581   1.604   4.720
    2MOL    H92  386   2.611   1.661   4.884
    2MOL    H93  387   2.519   1.510   4.858
    2MOL    H94  388   2.635   1.829   4.615
    2MOL    H95  389   2.510   1.934   4.687
    2MOL    H96  390   2.667   2.004   4.633
    3MOL     C1  391   1.906   1.835   6.057
    3MOL     H1  392   1.900   1.726   6.072
    3MOL     O1  393   1.868   1.902   6.179
    3MOL     C2  394   1.869   2.048   6.177
    3MOL     H2  395   1.970   2.085   6.166
    3MOL     C3  396   1.806   2.094   6.308
    3MOL     H3  397   1.705   2.053   6.316
    3MOL     H4  398   1.799   2.204   6.308
    3MOL     O2  399   1.885   2.052   6.420
    3MOL     C4  400   1.823   2.090   6.543
    3MOL     C5  401   1.805   1.873   5.946
    3MOL     H5  402   1.706   1.837   5.972
    3MOL     O3  403   1.845   1.817   5.818
    3MOL     C6  404   1.808   1.679   5.799
    3MOL     C7  405   1.795   2.026   5.932
    3MOL     H6  406   1.884   2.063   5.881
    3MOL     O4  407   1.672   2.056   5.864
    3MOL     C8  408   1.701   2.094   5.732
    3MOL     C9  409   1.780   2.102   6.063
    3MOL     H7  410   1.676   2.094   6.094
    3MOL     O5  411   1.815   2.240   6.032
    3MOL    C10  412   1.714   2.339   6.065
    3MOL     H8  413   1.617   2.292   6.077
    3MOL     O6  414   1.755   2.404   6.186
    3MOL    C11  415   1.885   2.467   6.183
    3MOL     H9  416   1.963   2.394   6.159
    3MOL    C12  417   1.912   2.528   6.321
    3MOL    H10  418   1.832   2.599   6.346
    3MOL    H11  419   2.008   2.580   6.321
    3MOL     O7  420   1.914   2.422   6.417
    3MOL    C13  421   1.956   2.464   6.547
    3MOL    C14  422   1.702   2.448   5.955
    3MOL    H12  423   1.621   2.518   5.986
    3MOL     O8  424   1.667   2.390   5.829
    3MOL    C15  425   1.529   2.352   5.813
    3MOL    C16  426   1.830   2.532   5.940
    3MOL    H13  427   1.906   2.471   5.887
    3MOL     O9  428   1.797   2.653   5.870
    3MOL    C17  429   1.833   2.651   5.733
    3MOL    C18  430   1.888   2.576   6.074
    3MOL    H14  431   1.825   2.659   6.108
    3MOL    O10  432   2.023   2.621   6.050
    3MOL    C19  433   2.053   2.755   6.094
    3MOL    H15  434   1.961   2.810   6.119
    3MOL    O11  435   2.139   2.749   6.209
    3MOL    C20  436   2.262   2.674   6.190
    3MOL    H16  437   2.241   2.570   6.168
    3MOL    C21  438   2.342   2.684   6.321
    3MOL    H17  439   2.352   2.789   6.348
    3MOL    H18  440   2.441   2.642   6.309
    3MOL    O12  441   2.273   2.615   6.426
    3MOL    C22  442   2.331   2.645   6.553
    3MOL    C23  443   2.128   2.834   5.985
    3MOL    H19  444   2.146   2.936   6.021
    3MOL    O13  445   2.051   2.837   5.863
    3MOL    C24  446   1.941   2.927   5.866
    3MOL    C25  447   2.263   2.772   5.951
    3MOL    H20  448   2.247   2.680   5.893
    3MOL    O14  449   2.335   2.873   5.878
    3MOL    C26  450   2.350   2.839   5.741
    3MOL    C27  451   2.346   2.737   6.075
    3MOL    H21  452   2.392   2.829   6.111
    3MOL    O15  453   2.446   2.641   6.032
    3MOL    C28  454   2.583   2.680   6.058
    3MOL    H22  455   2.591   2.787   6.074
    3MOL    O16  456   2.632   2.607   6.172
    3MOL    C29  457   2.628   2.462   6.162
    3MOL    H23  458   2.524   2.428   6.153
    3MOL    C30  459   2.686   2.408   6.291
    3MOL    H24  460   2.645   2.308   6.309
    3MOL    H25  461   2.658   2.478   6.370
    3MOL    O17  462   2.827   2.403   6.292
    3MOL    C31  463   2.870   2.336   6.411
    3MOL    C32  464   2.674   2.643   5.940
    3MOL    H26  465   2.777   2.671   5.966
    3MOL    O18  466   2.634   2.711   5.820
    3MOL    C33  467   2.668   2.850   5.817
    3MOL    C34  468   2.673   2.492   5.915
    3MOL    H27  469   2.576   2.460   5.875
    3MOL    O19  470   2.781   2.468   5.827
    3MOL    C35  471   2.741   2.424   5.700
    3MOL    C36  472   2.707   2.411   6.040
    3MOL    H28  473   2.815   2.423   6.057
    3MOL    O20  474   2.672   2.273   6.014
    3MOL    C37  475   2.775   2.177   6.046
    3MOL    H29  476   2.872   2.227   6.063
    3MOL    O21  477   2.736   2.104   6.164
    3MOL    C38  478   2.607   2.037   6.154
    3MOL    H30  479   2.529   2.110   6.134
    3MOL    C39  480   2.576   1.975   6.288
    3MOL    H31  481   2.468   1.961   6.293
    3MOL    H32  482   2.612   2.046   6.362
    3MOL    O22  483   2.644   1.849   6.307
    3MOL    C40  484   2.610   1.792   6.435
    3MOL    C41  485   2.791   2.073   5.933
    3MOL    H33  486   2.873   2.005   5.960
    3MOL    O23  487   2.820   2.137   5.807
    3MOL    C42  488   2.955   2.180   5.789
    3MOL    C43  489   2.663   1.990   5.914
    3MOL    H34  490   2.586   2.052   5.867
    3MOL    O24  491   2.699   1.876   5.837
    3MOL    C44  492   2.651   1.886   5.705
    3MOL    C45  493   2.607   1.932   6.044
    3MOL    H35  494   2.670   1.848   6.071
    3MOL    O25  495   2.470   1.890   6.018
    3MOL    C46  496   2.437   1.754   6.059
    3MOL    H36  497   2.528   1.697   6.077
    3MOL    O26  498   2.358   1.759   6.179
    3MOL    C47  499   2.234   1.834   6.170
    3MOL    H37  500   2.257   1.938   6.145
    3MOL    C48  501   2.162   1.827   6.305
    3MOL    H38  502   2.138   1.722   6.328
    3MOL    H39  503   2.070   1.884   6.302
    3MOL    O27  504   2.248   1.881   6.405
    3MOL    C49  505   2.188   1.894   6.535
    3MOL    C50  506   2.355   1.682   5.950
    3MOL    H40  507   2.339   1.578   5.983
    3MOL    O28  508   2.427   1.684   5.826
    3MOL    C51  509   2.539   1.595   5.822
    3MOL    C52  510   2.217   1.745   5.929
    3MOL    H41  511   2.229   1.840   5.872
    3MOL    O29  512   2.135   1.649   5.860
    3MOL    C53  513   2.125   1.675   5.721
    3MOL    C54  514   2.143   1.779   6.058
    3MOL    H42  515   2.098   1.685   6.096
    3MOL    O30  516   2.041   1.874   6.024
    3MOL    H43  517   1.971   2.377   6.612
    3MOL    H44  518   2.052   2.518   6.540
    3MOL    H45  519   1.881   2.531   6.592
    3MOL    H46  520   1.886   2.059   6.627
    3MOL    H47  521   1.809   2.199   6.546
    3MOL    H48  522   1.725   2.043   6.552
    3MOL    H49  523   2.255   1.948   6.603
    3MOL    H50  524   2.095   1.951   6.529
    3MOL    H51  525   2.169   1.794   6.577
    3MOL    H52  526   2.666   1.700   6.453
    3MOL    H53  527   2.633   1.864   6.515
    3MOL    H54  528   2.502   1.771   6.438
    3MOL    H55  529   2.976   2.351   6.427
    3MOL    H56  530   2.816   2.374   6.499
    3MOL    H57  531   2.848   2.229   6.399
    3MOL    H58  532   2.290   2.579   6.630
    3MOL    H59  533   2.440   2.632   6.548
    3MOL    H60  534   2.311   2.749   6.581
    3MOL    H61  535   2.973   2.203   5.683
    3MOL    H62  536   2.975   2.269   5.849
    3MOL    H63  537   3.025   2.100   5.819
    3MOL    H64  538   2.833   2.425   5.643
    3MOL    H65  539   2.697   2.324   5.704
    3MOL    H66  540   2.668   2.493   5.656
    3MOL    H67  541   2.655   2.889   5.715
    3MOL    H68  542   2.603   2.907   5.885
    3MOL    H69  543   2.773   2.865   5.847
    3MOL    H70  544   2.405   2.917   5.687
    3MOL    H71  545   2.406   2.746   5.736
    3MOL    H72  546   2.252   2.825   5.694
    3MOL    H73  547   1.905   2.943   5.763
    3MOL    H74  548   1.860   2.885   5.926
    3MOL    H75  549   1.972   3.023   5.910
    3MOL    H76  550   1.805   2.744   5.684
    3MOL    H77  551   1.942   2.637   5.724
    3MOL    H78  552   1.781   2.568   5.684
    3MOL    H79  553   1.508   2.329   5.709
    3MOL    H80  554   1.507   2.263   5.873
    3MOL    H81  555   1.463   2.434   5.845
    3MOL    H82  556   1.611   2.126   5.680
    3MOL    H83  557   1.773   2.177   5.731
    3MOL    H84  558   1.743   2.006   5.685
    3MOL    H85  559   1.825   1.650   5.694
    3MOL    H86  560   1.869   1.613   5.862
    3MOL    H87  561   1.702   1.663   5.821
    3MOL    H88  562   2.064   1.599   5.671
    3MOL    H89  563   2.077   1.773   5.707
    3MOL    H90  564   2.225   1.675   5.677
    3MOL    H91  565   2.569   1.577   5.718
    3MOL    H92  566   2.625   1.637   5.876
    3MOL    H93  567   2.513   1.499   5.868
    3MOL    H94  568   2.686   1.798   5.649
    3MOL    H95  569   2.541   1.889   5.704
    3MOL    H96  570   2.689   1.977   5.657
    4SOL     OW  571   0.244   0.600   0.110
    4SOL    HW1  572   0.169   0.603   0.170
    4SOL    HW2  573   0.209   0.630   0.026
    5SOL     OW  574   0.197   0.292   0.989
    5SOL    HW1  575   0.235   0.270   1.075
    5SOL    HW2  576   0.131   0.225   0.974
    6SOL     OW  577   0.006   0.377   0.642
    6SOL    HW1  578   4.428   0.415   0.683
    6SOL    HW2  579   4.473   0.305   0.588
    7SOL     OW  580   0.567   1.282   1.172
    7SOL    HW1  581   0.479   1.287   1.134
    7SOL    HW2  582   0.583   1.369   1.208
    8SOL     OW  583   1.557   1.511   0.705
    8SOL    HW1  584   1.513   1.494   0.789
    8SOL    HW2  585   1.486   1.516   0.641
    9SOL     OW  586   1.132   0.700   0.702
    9SOL    HW1  587   1.180   0.782   0.690
    9SOL    HW2  588   1.082   0.713   0.783
   10SOL     OW  589   1.772   0.604   0.221
   10SOL    HW1  590   1.726   0.601   0.137
   10SOL    HW2  591   1.734   0.533   0.273
   11SOL     OW  592   0.759   1.144   1.038
   11SOL    HW1  593   0.689   1.178   1.093
   11SOL    HW2  594   0.793   1.222   0.993
   12SOL     OW  595   0.862   0.780   1.820
   12SOL    HW1  596   0.849   0.851   1.883
   12SOL    HW2  597   0.885   0.823   1.739
   13SOL     OW  598   0.686   1.007   0.649
   13SOL    HW1  599   0.750   0.992   0.718
   13SOL    HW2  600   0.616   1.057   0.692
   14SOL     OW  601   0.708   1.151   1.809
   14SOL    HW1  602   0.755   1.231   1.833
   14SOL    HW2  603   0.624   1.183   1.775
   15SOL     OW  604   0.337   1.424   1.070
   15SOL    HW1  605   0.255   1.405   1.022
   15SOL    HW2  606   0.387   1.478   1.009
   16SOL     OW  607   1.462   1.498   1.350
   16SOL    HW1  608   1.506   1.583   1.360
   16SOL    HW2  609   1.408   1.490   1.429
   17SOL     OW  610   0.436   0.396   1.494
   17SOL    HW1  611   0.524   0.359   1.495
   17SOL    HW2  612   0.378   0.321   1.508
   18SOL     OW  613   1.613   0.449   0.738
   18SOL    HW1  614   1.532   0.472   0.692
   18SOL    HW2  615   1.634   0.526   0.790
   19SOL     OW  616   0.245   1.692   0.483
   19SOL    HW1  617   0.234   1.778   0.523
   19SOL    HW2  618   0.300   1.707   0.407
   20SOL     OW  619   1.136   1.341   1.691
   20SOL    HW1  620   1.175   1.337   1.778
   20SOL    HW2  621   1.083   1.261   1.686
   21SOL     OW  622   0.242   1.428   0.529
   21SOL    HW1  623   0.237   1.523   0.532
   21SOL    HW2  624   0.175   1.399   0.592
   22SOL     OW  625   0.243   1.081   0.881
   22SOL    HW1  626   0.263   0.994   0.917
   22SOL    HW2  627   0.187   1.122   0.948
   23SOL     OW  628   0.616   1.790   1.433
   23SOL    HW1  629   0.532   1.773   1.475
   23SOL    HW2  630   0.637   1.881   1.456
   24SOL     OW  631   0.578   0.991   0.143
   24SOL    HW1  632   0.621   1.037   0.072
   24SOL    HW2  633   0.628   1.013   0.221
   25SOL     OW  634   1.585   0.114   1.474
   25SOL    HW1  635   1.596   0.183   1.408
   25SOL    HW2  636   1.575   0.162   1.557
   26SOL     OW  637   0.137   0.642   0.576
   26SOL    HW1  638   0.083   0.565   0.588
   26SOL    HW2  639   0.108   0.703   0.644
   27SOL     OW  640   1.840   1.763   0.335
   27SOL    HW1  641   1.899   1.731   0.404
   27SOL    HW2  642   1.871   1.852   0.318
   28SOL     OW  643   0.069   1.593   0.150
   28SOL    HW1  644   0.034   1.504   0.151
   28SOL    HW2  645   0.013   1.642   0.211
   29SOL     OW  646   1.690   0.919   0.638
   29SOL    HW1  647   1.776   0.881   0.618
   29SOL    HW2  648   1.669   0.970   0.560
   30SOL     OW  649   1.645   1.107   0.432
   30SOL    HW1  650   1.727   1.120   0.384
   30SOL    HW2  651   1.650   1.168   0.505
   31SOL     OW  652   0.107   0.760   1.588
   31SOL    HW1  653   0.201   0.760   1.573
   31SOL    HW2  654   0.084   0.853   1.594
   32SOL     OW  655   0.613   1.382   0.735
   32SOL    HW1  656   0.566   1.299   0.744
   32SOL    HW2  657   0.596   1.410   0.645
   33SOL     OW  658   1.290   1.238   1.425
   33SOL    HW1  659   1.323   1.171   1.365
   33SOL    HW2  660   1.346   1.231   1.502
   34SOL     OW  661   0.818   0.009   0.548
   34SOL    HW1  662   0.855   0.088   0.510
   34SOL    HW2  663   0.723   0.020   0.539
   35SOL     OW  664   0.183   0.944   1.280
   35SOL    HW1  665   0.274   0.927   1.256
   35SOL    HW2  666   0.133   0.921   1.201
   36SOL     OW  667   1.521   0.997   0.200
   36SOL    HW1  668   1.457   0.935   0.233
   36SOL    HW2  669   1.568   1.027   0.278
   37SOL     OW  670   1.185   1.803   1.620
   37SOL    HW1  671   1.202   1.861   1.545
   37SOL    HW2  672   1.200   1.715   1.586
   38SOL     OW  673   0.318   0.260   1.773
   38SOL    HW1  674   0.386   0.313   1.814
   38SOL    HW2  675   0.242   0.269   1.831
   39SOL     OW  676   1.465   1.419   0.953
   39SOL    HW1  677   1.397   1.434   1.019
   39SOL    HW2  678   1.454   1.328   0.926
   40SOL     OW  679   1.663   1.732   0.578
   40SOL    HW1  680   1.638   1.705   0.489
   40SOL    HW2  681   1.635   1.660   0.634
   41SOL     OW  682   0.595   0.721   0.263
   41SOL    HW1  683   0.602   0.801   0.211
   41SOL    HW2  684   0.532   0.742   0.331
   42SOL     OW  685   1.288   0.357   0.935
   42SOL    HW1  686   1.199   0.324   0.923
   42SOL    HW2  687   1.328   0.296   0.996
   43SOL     OW  688   1.582   1.668   0.311
   43SOL    HW1  689   1.671   1.703   0.304
   43SOL    HW2  690   1.557   1.650   0.221
   44SOL     OW  691   0.797   0.616   1.454
   44SOL    HW1  692   0.769   0.594   1.543
   44SOL    HW2  693   0.752   0.554   1.398
   45SOL     OW  694   1.389   0.478   1.676
   45SOL    HW1  695   1.391   0.521   1.761
   45SOL    HW2  696   1.456   0.410   1.683
   46SOL     OW  697   0.958   0.889   1.581
   46SOL    HW1  698   1.012   0.817   1.547
   46SOL    HW2  699   0.911   0.922   1.504
   47SOL     OW  700   0.996   0.417   1.238
   47SOL    HW1  701   0.912   0.431   1.281
   47SOL    HW2  702   0.974   0.367   1.159
   48SOL     OW  703   1.048   0.701   0.428
   48SOL    HW1  704   1.064   0.692   0.522
   48SOL    HW2  705   0.967   0.652   0.413
   49SOL     OW  706   0.098   0.822   0.783
   49SOL    HW1  707   0.185   0.804   0.821
   49SOL    HW2  708   0.053   0.872   0.851
   50SOL     OW  709   0.125   1.853   1.576
   50SOL    HW1  710   0.119   1.829   1.668
   50SOL    HW2  711   0.045   1.817   1.536
   51SOL     OW  712   0.877   0.358   0.201
   51SOL    HW1  713   0.932   0.411   0.144
   51SOL    HW2  714   0.905   0.268   0.185
   52SOL     OW  715   1.706   0.576   1.828
   52SOL    HW1  716   1.672   0.653   1.783
   52SOL    HW2  717   1.739   0.520   1.758
   53SOL     OW  718   1.375   1.142   0.542
   53SOL    HW1  719   1.453   1.128   0.488
   53SOL    HW2  720   1.323   1.205   0.492
   54SOL     OW  721   0.543   0.202   0.900
   54SOL    HW1  722   0.562   0.221   0.992
   54SOL    HW2  723   0.536   0.288   0.859
   55SOL     OW  724   1.008   1.446   0.474
   55SOL    HW1  725   0.967   1.517   0.425
   55SOL    HW2  726   0.993   1.468   0.566
   56SOL     OW  727   0.354   1.808   0.857
   56SOL    HW1  728   0.398   1.723   0.866
   56SOL    HW2  729   0.424   1.872   0.869
   57SOL     OW  730   1.798   1.059   0.867
   57SOL    HW1  731   1.741   1.044   0.792
   57SOL    HW2  732   1.739   1.065   0.942
   58SOL     OW  733   1.228   1.540   1.513
   58SOL    HW1  734   1.214   1.466   1.572
   58SOL    HW2  735   1.168   1.523   1.440
   59SOL     OW  736   0.315   0.956   0.276
   59SOL    HW1  737   0.398   0.983   0.237
   59SOL    HW2  738   0.304   0.865   0.246
   60SOL     OW  739   1.477   0.738   0.725
   60SOL    HW1  740   1.463   0.692   0.808
   60SOL    HW2  741   1.552   0.795   0.741
   61SOL     OW  742   0.465   1.261   1.735
   61SOL    HW1  743   0.437   1.268   1.644
   61SOL    HW2  744   0.384   1.267   1.786
   62SOL     OW  745   1.107   1.778   0.226
   62SOL    HW1  746   1.049   1.726   0.282
   62SOL    HW2  747   1.147   1.715   0.166
   63SOL     OW  748   0.167   0.262   1.508
   63SOL    HW1  749   0.135   0.349   1.482
   63SOL    HW2  750   0.199   0.274   1.598
   64SOL     OW  751   1.628   1.375   0.089
   64SOL    HW1  752   1.586   1.460   0.076
   64SOL    HW2  753   1.563   1.311   0.061
   65SOL     OW  754   0.470   1.742   0.317
   65SOL    HW1  755   0.506   1.797   0.386
   65SOL    HW2  756   0.545   1.717   0.264
   66SOL     OW  757   1.416   0.128   0.425
   66SOL    HW1  758   1.393   0.094   0.338
   66SOL    HW2  759   1.511   0.132   0.424
   67SOL     OW  760   0.256   1.791   1.236
   67SOL    HW1  761   0.306   1.718   1.275
   67SOL    HW2  762   0.229   1.759   1.150
   68SOL     OW  763   0.938   1.698   0.900
   68SOL    HW1  764   1.015   1.645   0.921
   68SOL    HW2  765   0.892   1.649   0.832
   69SOL     OW  766   0.392   0.694   0.472
   69SOL    HW1  767   0.418   0.603   0.484
   69SOL    HW2  768   0.300   0.696   0.502
   70SOL     OW  769   1.526   0.232   1.722
   70SOL    HW1  770   1.525   0.256   1.815
   70SOL    HW2  771   1.452   0.174   1.711
   71SOL     OW  772   0.602   0.106   0.117
   71SOL    HW1  773   0.695   0.083   0.119
   71SOL    HW2  774   0.571   0.077   0.031
   72SOL     OW  775   0.769   0.269   1.752
   72SOL    HW1  776   0.835   0.201   1.769
   72SOL    HW2  777   0.724   0.279   1.836
   73SOL     OW  778   0.877   1.521   1.193
   73SOL    HW1  779   0.862   1.485   1.106
   73SOL    HW2  780   0.946   1.466   1.230
   74SOL     OW  781   1.342   0.589   1.430
   74SOL    HW1  782   1.370   0.559   1.516
   74SOL    HW2  783   1.376   0.678   1.423
   75SOL     OW  784   0.813   1.398   0.936
   75SOL    HW1  785   0.897   1.388   0.891
   75SOL    HW2  786   0.748   1.396   0.866
   76SOL     OW  787   0.922   0.514   0.902
   76SOL    HW1  788   0.906   0.513   0.808
   76SOL    HW2  789   0.964   0.429   0.919
   77SOL     OW  790   0.558   0.067   0.512
   77SOL    HW1  791   0.470   0.055   0.547
   77SOL    HW2  792   0.550   0.139   0.449
   78SOL     OW  793   1.427   1.196   0.032
   78SOL    HW1  794   1.460   1.123   0.085
   78SOL    HW2  795   1.343   1.219   0.072
   79SOL     OW  796   0.294   0.057   0.190
   79SOL    HW1  797   0.369   0.099   0.147
   79SOL    HW2  798   0.333   0.002   0.258
   80SOL     OW  799   0.948   0.227   0.446
   80SOL    HW1  800   0.902   0.291   0.393
   80SOL    HW2  801   1.037   0.261   0.453
   81SOL     OW  802   1.080   0.679   1.461
   81SOL    HW1  803   1.008   0.616   1.463
   81SOL    HW2  804   1.159   0.626   1.450
   82SOL     OW  805   1.225   1.569   0.794
   82SOL    HW1  806   1.243   1.637   0.728
   82SOL    HW2  807   1.292   1.581   0.860
   83SOL     OW  808   0.466   1.147   0.740
   83SOL    HW1  809   0.393   1.129   0.800
   83SOL    HW2  810   0.430   1.133   0.653
   84SOL     OW  811   1.271   1.795   0.604
   84SOL    HW1  812   1.315   1.857   0.546
   84SOL    HW2  813   1.207   1.848   0.652
   85SOL     OW  814   1.022   0.535   0.031
   85SOL    HW1  815   0.985   0.620   0.006
   85SOL    HW2  816   1.094   0.558   0.090
   86SOL     OW  817   0.090   0.525   1.411
   86SOL    HW1  818   0.153   0.535   1.339
   86SOL    HW2  819   0.062   0.614   1.432
   87SOL     OW  820   0.564   0.242   1.164
   87SOL    HW1  821   0.594   0.157   1.197
   87SOL    HW2  822   0.470   0.243   1.185
   88SOL     OW  823   0.863   0.505   0.627
   88SOL    HW1  824   0.815   0.542   0.553
   88SOL    HW2  825   0.849   0.411   0.620
   89SOL     OW  826   0.968   0.036   0.775
   89SOL    HW1  827   0.920   0.028   0.693
   89SOL    HW2  828   0.984   4.446   0.802
   90SOL     OW  829   1.436   1.163   0.858
   90SOL    HW1  830   1.368   1.096   0.856
   90SOL    HW2  831   1.459   1.178   0.766
   91SOL     OW  832   1.468   0.602   0.979
   91SOL    HW1  833   1.417   0.521   0.983
   91SOL    HW2  834   1.527   0.597   1.055
   92SOL     OW  835   1.850   0.817   0.379
   92SOL    HW1  836   1.903   0.765   0.439
   92SOL    HW2  837   1.820   0.754   0.313
   93SOL     OW  838   0.493   1.421   0.175
   93SOL    HW1  839   0.415   1.395   0.223
   93SOL    HW2  840   0.487   1.377   0.090
   94SOL     OW  841   1.668   1.265   0.650
   94SOL    HW1  842   1.763   1.272   0.661
   94SOL    HW2  843   1.635   1.353   0.670
   95SOL     OW  844   1.390   0.576   0.076
   95SOL    HW1  845   1.330   0.556   0.148
   95SOL    HW2  846   1.465   0.519   0.091
   96SOL     OW  847   0.525   0.262   0.325
   96SOL    HW1  848   0.558   0.205   0.256
   96SOL    HW2  849   0.513   0.347   0.283
   97SOL     OW  850   1.754   1.235   1.577
   97SOL    HW1  851   1.842   1.197   1.573
   97SOL    HW2  852   1.768   1.326   1.605
   98SOL     OW  853   1.061   1.353   1.335
   98SOL    HW1  854   0.986   1.322   1.386
   98SOL    HW2  855   1.137   1.312   1.376
   99SOL     OW  856   1.606   1.624   1.651
   99SOL    HW1  857   1.603   1.660   1.562
   99SOL    HW2  858   1.690   1.579   1.656
  100SOL     OW  859   1.125   1.201   1.107
  100SOL    HW1  860   1.067   1.240   1.173
  100SOL    HW2  861   1.091   1.232   1.023
  101SOL     OW  862   1.631   1.100   1.078
  101SOL    HW1  863   1.627   1.162   1.151
  101SOL    HW2  864   1.551   1.115   1.029
  102SOL     OW  865   0.904   0.131   1.390
  102SOL    HW1  866   0.927   0.086   1.308
  102SOL    HW2  867   0.988   0.143   1.435
  103SOL     OW  868   0.984   1.114   1.722
  103SOL    HW1  869   0.891   1.129   1.741
  103SOL    HW2  870   0.984   1.037   1.666
  104SOL     OW  871   0.709   1.059   0.373
  104SOL    HW1  872   0.696   1.046   0.467
  104SOL    HW2  873   0.786   1.005   0.353
  105SOL     OW  874   0.429   0.822   1.238
  105SOL    HW1  875   0.497   0.834   1.305
  105SOL    HW2  876   0.369   0.758   1.276
  106SOL     OW  877   1.270   0.377   1.272
  106SOL    HW1  878   1.301   0.455   1.317
  106SOL    HW2  879   1.181   0.400   1.243
  107SOL     OW  880   0.061   1.575   1.339
  107SOL    HW1  881   0.033   1.663   1.313
  107SOL    HW2  882   0.156   1.581   1.346
  108SOL     OW  883   0.353   1.112   0.499
  108SOL    HW1  884   0.356   1.186   0.438
  108SOL    HW2  885   0.347   1.035   0.442
  109SOL     OW  886   0.564   0.530   0.855
  109SOL    HW1  887   0.577   0.590   0.782
  109SOL    HW2  888   0.622   0.563   0.924
  110SOL     OW  889   1.247   1.346   0.393
  110SOL    HW1  890   1.303   1.419   0.421
  110SOL    HW2  891   1.160   1.369   0.425
  111SOL     OW  892   1.277   1.455   1.146
  111SOL    HW1  893   1.332   1.458   1.224
  111SOL    HW2  894   1.221   1.378   1.158
  112SOL     OW  895   1.586   0.628   0.474
  112SOL    HW1  896   1.538   0.675   0.542
  112SOL    HW2  897   1.624   0.697   0.419
  113SOL     OW  898   0.348   1.528   1.318
  113SOL    HW1  899   0.333   1.481   1.235
  113SOL    HW2  900   0.443   1.539   1.323
  114SOL     OW  901   0.476   0.760   1.663
  114SOL    HW1  902   0.502   0.800   1.580
  114SOL    HW2  903   0.509   0.670   1.657
  115SOL     OW  904   1.597   0.777   1.678
  115SOL    HW1  905   1.511   0.818   1.671
  115SOL    HW2  906   1.650   0.819   1.611
  116SOL     OW  907   1.007   0.087   1.727
  116SOL    HW1  908   1.029   0.171   1.687
  116SOL    HW2  909   1.033   0.022   1.662
  117SOL     OW  910   0.496   0.046   1.749
  117SOL    HW1  911   0.478   4.497   1.669
  117SOL    HW2  912   0.429   0.114   1.752
  118SOL     OW  913   0.588   0.873   1.024
  118SOL    HW1  914   0.617   0.965   1.025
  118SOL    HW2  915   0.531   0.865   1.101
  119SOL     OW  916   1.361   0.859   1.034
  119SOL    HW1  917   1.280   0.853   0.983
  119SOL    HW2  918   1.398   0.770   1.030
  120SOL     OW  919   1.204   0.531   0.268
  120SOL    HW1  920   1.212   0.452   0.322
  120SOL    HW2  921   1.163   0.596   0.326
  121SOL     OW  922   0.284   0.220   1.234
  121SOL    HW1  923   0.250   0.237   1.322
  121SOL    HW2  924   0.321   0.131   1.240
  122SOL     OW  925   0.047   1.313   1.284
  122SOL    HW1  926   0.078   1.266   1.361
  122SOL    HW2  927   0.049   1.405   1.309
  123SOL     OW  928   0.726   0.632   1.060
  123SOL    HW1  929   0.798   0.611   1.001
  123SOL    HW2  930   0.700   0.721   1.036
  124SOL     OW  931   1.733   0.958   1.851
  124SOL    HW1  932   1.684   0.905   1.789
  124SOL    HW2  933   1.673   0.970   1.925
  125SOL     OW  934   0.315   0.075   0.630
  125SOL    HW1  935   0.300   0.163   0.664
  125SOL    HW2  936   0.305   0.018   0.705
  126SOL     OW  937   1.613   0.374   0.367
  126SOL    HW1  938   1.643   0.311   0.432
  126SOL    HW2  939   1.589   0.451   0.418
  127SOL     OW  940   1.027   0.761   0.962
  127SOL    HW1  941   1.027   0.777   1.057
  127SOL    HW2  942   0.999   0.670   0.954
  128SOL     OW  943   0.983   1.566   1.714
  128SOL    HW1  944   0.967   1.611   1.631
  128SOL    HW2  945   1.025   1.484   1.690
  129SOL     OW  946   1.857   1.507   1.605
  129SOL    HW1  947   1.870   1.536   1.515
  129SOL    HW2  948   1.938   1.532   1.650
  130SOL     OW  949   0.347   0.930   1.818
  130SOL    HW1  950   0.422   0.958   1.871
  130SOL    HW2  951   0.384   0.864   1.759
  131SOL     OW  952   1.537   0.291   0.114
  131SOL    HW1  953   1.477   0.217   0.128
  131SOL    HW2  954   1.566   0.314   0.202
  132SOL     OW  955   1.290   0.825   0.033
  132SOL    HW1  956   1.333   0.740   0.043
  132SOL    HW2  957   1.322   0.858  11.049
  133SOL     OW  958   1.065   1.334   0.852
  133SOL    HW1  959   1.068   1.262   0.790
  133SOL    HW2  960   1.128   1.398   0.818
  134SOL     OW  961   0.317   0.813   0.950
  134SOL    HW1  962   0.411   0.831   0.945
  134SOL    HW2  963   0.311   0.723   0.981
  135SOL     OW  964   0.337   0.527   0.994
  135SOL    HW1  965   0.292   0.445   0.975
  135SOL    HW2  966   0.414   0.527   0.937
  136SOL     OW  967   1.135   0.375   1.692
  136SOL    HW1  968   1.088   0.440   1.745
  136SOL    HW2  969   1.222   0.414   1.679
  137SOL     OW  970   1.160   0.211   1.474
  137SOL    HW1  971   1.152   0.275   1.544
  137SOL    HW2  972   1.195   0.261   1.400
  138SOL     OW  973   4.495   1.324   0.197
  138SOL    HW1  974   4.401   1.341   0.188
  138SOL    HW2  975   0.001   1.233   0.224
  139SOL     OW  976   0.094   1.781   0.939
  139SOL    HW1  977   0.057   1.722   0.875
  139SOL    HW2  978   0.182   1.801   0.906
  140SOL     OW  979   0.499   1.573   0.907
  140SOL    HW1  980   0.567   1.636   0.930
  140SOL    HW2  981   0.544   1.508   0.852
  141SOL     OW  982   0.989   0.795   1.229
  141SOL    HW1  983   1.041   0.769   1.305
  141SOL    HW2  984   0.902   0.758   1.246
  142SOL     OW  985   0.039   0.564   1.109
  142SOL    HW1  986   0.116   0.522   1.071
  142SOL    HW2  987   0.026   0.520   1.193
  143SOL     OW  988   0.180   0.518   1.710
  143SOL    HW1  989   0.266   0.501   1.671
  143SOL    HW2  990   0.150   0.599   1.670
  144SOL     OW  991   1.376   0.941   1.659
  144SOL    HW1  992   1.396   1.035   1.660
  144SOL    HW2  993   1.374   0.918   1.567
  145SOL     OW  994   0.812   0.575   0.356
  145SOL    HW1  995   0.818   0.498   0.299
  145SOL    HW2  996   0.737   0.624   0.322
  146SOL     OW  997   1.642   0.601   1.190
  146SOL    HW1  998   1.631   0.541   1.263
  146SOL    HW2  999   1.729   0.580   1.155
  147SOL     OW 1000   0.271   1.562   1.742
  147SOL    HW1 1001   0.217   1.614   1.802
  147SOL    HW2 1002   0.250   1.471   1.764
  148SOL     OW 1003   0.682   0.464   1.268
  148SOL    HW1 1004   0.646   0.383   1.231
  148SOL    HW2 1005   0.691   0.522   1.193
  149SOL     OW 1006   0.930   1.678   1.466
  149SOL    HW1 1007   0.903   1.648   1.379
  149SOL    HW2 1008   0.930   1.774   1.459
  150SOL     OW 1009   0.476   0.486   0.185
  150SOL    HW1 1010   0.532   0.561   0.205
  150SOL    HW2 1011   0.390   0.524   0.168
  151SOL     OW 1012   0.161   1.141   1.463
  151SOL    HW1 1013   0.148   1.092   1.545
  151SOL    HW2 1014   0.170   1.073   1.396
  152SOL     OW 1015   1.329   1.049   1.225
  152SOL    HW1 1016   1.353   0.986   1.157
  152SOL    HW2 1017   1.256   1.098   1.188
  153SOL     OW 1018   1.308   0.852   0.310
  153SOL    HW1 1019   1.230   0.823   0.357
  153SOL    HW2 1020   1.285   0.841   0.217
  154SOL     OW 1021   1.763   1.746   1.146
  154SOL    HW1 1022   1.826   1.774   1.079
  154SOL    HW2 1023   1.744   1.654   1.125
  155SOL     OW 1024   1.241   1.732   1.116
  155SOL    HW1 1025   1.323   1.751   1.071
  155SOL    HW2 1026   1.245   1.638   1.134
  156SOL     OW 1027   0.068   1.188   1.048
  156SOL    HW1 1028   0.073   1.223   1.137
  156SOL    HW2 1029   0.013   1.250   1.001
  157SOL     OW 1030   0.679   1.664   1.725
  157SOL    HW1 1031   0.626   1.743   1.722
  157SOL    HW2 1032   0.741   1.673   1.652
  158SOL     OW 1033   0.880   0.063   0.124
  158SOL    HW1 1034   0.964   0.092   0.088
  158SOL    HW2 1035   0.903   0.018   0.206
  159SOL     OW 1036   1.720   0.133   0.501
  159SOL    HW1 1037   1.794   0.135   0.441
  159SOL    HW2 1038   1.733   0.054   0.553
  160SOL     OW 1039   1.389   1.568   0.483
  160SOL    HW1 1040   1.451   1.598   0.416
  160SOL    HW2 1041   1.343   1.647   0.511
  161SOL     OW 1042   0.120   1.808   1.848
  161SOL    HW1 1043   0.081   1.734   1.894
  161SOL    HW2 1044   0.184   1.844   1.909
  162SOL     OW 1045   1.278   0.926   0.672
  162SOL    HW1 1046   1.351   0.863   0.675
  162SOL    HW2 1047   1.311   0.999   0.620
  163SOL     OW 1048   0.818   1.272   1.431
  163SOL    HW1 1049   0.792   1.311   1.515
  163SOL    HW2 1050   0.747   1.294   1.371
  164SOL     OW 1051   0.676   1.617   0.165
  164SOL    HW1 1052   0.681   1.627   0.070
  164SOL    HW2 1053   0.618   1.542   0.178
  165SOL     OW 1054   1.631   1.726   1.391
  165SOL    HW1 1055   1.680   1.735   1.309
  165SOL    HW2 1056   1.618   1.816   1.421
  166SOL     OW 1057   1.839   0.156   0.967
  166SOL    HW1 1058   1.867   0.079   0.917
  166SOL    HW2 1059   1.752   0.176   0.932
  167SOL     OW 1060   0.267   0.325   0.724
  167SOL    HW1 1061   0.185   0.362   0.691
  167SOL    HW2 1062   0.252   0.317   0.819
  168SOL     OW 1063   1.222   1.604   0.050
  168SOL    HW1 1064   1.208   1.511   0.071
  168SOL    HW2 1065   1.155   1.623  11.084
  169SOL     OW 1066   0.825   1.006   1.371
  169SOL    HW1 1067   0.867   1.004   1.286
  169SOL    HW2 1068   0.826   1.099   1.396
  170SOL     OW 1069   0.914   0.908   0.283
  170SOL    HW1 1070   0.982   0.946   0.227
  170SOL    HW2 1071   0.960   0.841   0.333
  171SOL     OW 1072   1.500   1.622   0.046
  171SOL    HW1 1073   1.405   1.619   0.041
  171SOL    HW2 1074   1.528   1.636  11.055
  172SOL     OW 1075   0.372   1.305   1.491
  172SOL    HW1 1076   0.356   1.383   1.439
  172SOL    HW2 1077   0.296   1.249   1.475
  173SOL     OW 1078   1.612   1.283   1.281
  173SOL    HW1 1079   1.672   1.277   1.355
  173SOL    HW2 1080   1.551   1.354   1.305
  174SOL     OW 1081   1.048   1.105   0.704
  174SOL    HW1 1082   0.978   1.054   0.745
  174SOL    HW2 1083   1.109   1.040   0.671
  175SOL     OW 1084   1.012   0.239   0.990
  175SOL    HW1 1085   1.014   0.203   0.901
  175SOL    HW2 1086   1.003   0.163   1.047
  176SOL     OW 1087   0.602   1.490   0.484
  176SOL    HW1 1088   0.639   1.440   0.412
  176SOL    HW2 1089   0.532   1.542   0.443
  177SOL     OW 1090   1.719   0.393   1.378
  177SOL    HW1 1091   1.791   0.456   1.377
  177SOL    HW2 1092   1.749   0.321   1.322
  178SOL     OW 1093   0.261   1.333   0.284
  178SOL    HW1 1094   0.173   1.346   0.249
  178SOL    HW2 1095   0.258   1.372   0.371
  179SOL     OW 1096   0.117   1.007   1.697
  179SOL    HW1 1097   0.052   1.046   1.755
  179SOL    HW2 1098   0.195   0.996   1.751
  180SOL     OW 1099   0.659   0.207   1.495
  180SOL    HW1 1100   0.739   0.181   1.450
  180SOL    HW2 1101   0.687   0.222   1.586
  181SOL     OW 1102   0.054   0.338   0.012
  181SOL    HW1 1103   4.462   0.334   0.038
  181SOL    HW2 1104   0.074   0.432   0.013
  182SOL     OW 1105   1.432   0.858   1.401
  182SOL    HW1 1106   1.383   0.918   1.344
  182SOL    HW2 1107   1.522   0.862   1.368
  183SOL     OW 1108   0.080   0.186   0.299
  183SOL    HW1 1109   0.085   0.262   0.241
  183SOL    HW2 1110   0.156   0.133   0.275
  184SOL     OW 1111   1.181   1.343   0.121
  184SOL    HW1 1112   1.088   1.320   0.118
  184SOL    HW2 1113   1.204   1.336   0.214
  185SOL     OW 1114   0.621   0.831   1.428
  185SOL    HW1 1115   0.674   0.909   1.416
  185SOL    HW2 1116   0.684   0.759   1.438
  186SOL     OW 1117   1.486   1.773   0.974
  186SOL    HW1 1118   1.513   1.832   0.904
  186SOL    HW2 1119   1.566   1.761   1.026
  187SOL     OW 1120   0.715   0.562   1.705
  187SOL    HW1 1121   0.746   0.629   1.765
  187SOL    HW2 1122   0.756   0.481   1.737
  188SOL     OW 1123   1.468   1.203   1.633
  188SOL    HW1 1124   1.456   1.216   1.727
  188SOL    HW2 1125   1.562   1.216   1.619
  189SOL     OW 1126   0.382   1.743   1.563
  189SOL    HW1 1127   0.297   1.782   1.548
  189SOL    HW2 1128   0.363   1.661   1.609
  190SOL     OW 1129   1.672   0.882   1.255
  190SOL    HW1 1130   1.662   0.797   1.212
  190SOL    HW2 1131   1.663   0.946   1.185
  191SOL     OW 1132   1.219   0.326   0.447
  191SOL    HW1 1133   1.284   0.256   0.439
  191SOL    HW2 1134   1.243   0.372   0.528
  192SOL     OW 1135   0.588   0.740   0.668
  192SOL    HW1 1136   0.630   0.825   0.652
  192SOL    HW2 1137   0.519   0.734   0.602
  193SOL     OW 1138   1.766   0.361   1.643
  193SOL    HW1 1139   1.749   0.375   1.550
  193SOL    HW2 1140   1.687   0.317   1.675
  194SOL     OW 1141   1.743   0.933   1.513
  194SOL    HW1 1142   1.746   1.028   1.526
  194SOL    HW2 1143   1.729   0.923   1.419
  195SOL     OW 1144   0.896   1.358   0.060
  195SOL    HW1 1145   0.826   1.362   0.125
  195SOL    HW2 1146   0.890   1.442   0.014
  196SOL     OW 1147   0.659   1.794   0.949
  196SOL    HW1 1148   0.637   1.884   0.923
  196SOL    HW2 1149   0.754   1.789   0.939
  197SOL     OW 1150   0.866   0.965   0.856
  197SOL    HW1 1151   0.916   0.894   0.896
  197SOL    HW2 1152   0.833   1.016   0.929
  198SOL     OW 1153   1.081   0.990   0.087
  198SOL    HW1 1154   1.056   1.026   0.001
  198SOL    HW2 1155   1.156   0.935   0.069
  199SOL     OW 1156   1.858   1.555   0.844
  199SOL    HW1 1157   1.780   1.547   0.790
  199SOL    HW2 1158   1.846   1.491   0.914
  200SOL     OW 1159   0.228   1.307   1.856
  200SOL    HW1 1160   0.159   1.245   1.832
  200SOL    HW2 1161   0.219   1.317   1.951
  201SOL     OW 1162   0.099   1.237   0.666
  201SOL    HW1 1163   0.108   1.188   0.748
  201SOL    HW2 1164   0.165   1.199   0.608
  202SOL     OW 1165   0.680   1.400   1.626
  202SOL    HW1 1166   0.600   1.356   1.655
  202SOL    HW2 1167   0.674   1.488   1.663
  203SOL     OW 1168   1.812   0.184   1.239
  203SOL    HW1 1169   1.809   0.091   1.260
  203SOL    HW2 1170   1.826   0.186   1.144
  204SOL     OW 1171   0.437   0.431   0.528
  204SOL    HW1 1172   0.459   0.360   0.468
  204SOL    HW2 1173   0.381   0.391   0.594
  205SOL     OW 1174   1.704   1.488   1.096
  205SOL    HW1 1175   1.620   1.464   1.056
  205SOL    HW2 1176   1.717   1.423   1.165
  206SOL     OW 1177   0.312   0.503   1.257
  206SOL    HW1 1178   0.385   0.457   1.300
  206SOL    HW2 1179   0.340   0.512   1.166
  207SOL     OW 1180   0.825   1.577   0.680
  207SOL    HW1 1181   0.818   1.623   0.596
  207SOL    HW2 1182   0.746   1.523   0.684
  208SOL     OW 1183   1.432   0.216   1.118
  208SOL    HW1 1184   1.469   0.145   1.171
  208SOL    HW2 1185   1.381   0.269   1.179
  209SOL     OW 1186   0.997   0.014   1.148
  209SOL    HW1 1187   0.951   4.431   1.137
  209SOL    HW2 1188   1.089   4.489   1.161
  210SOL     OW 1189   0.767   1.329   0.312
  210SOL    HW1 1190   0.737   1.239   0.325
  210SOL    HW2 1191   0.852   1.332   0.356
  211SOL     OW 1192   0.621   1.558   1.284
  211SOL    HW1 1193   0.623   1.639   1.335
  211SOL    HW2 1194   0.708   1.551   1.245
  212SOL     OW 1195   1.347   0.059   0.168
  212SOL    HW1 1196   1.384   0.006   0.098
  212SOL    HW2 1197   1.269   0.012   0.196
  213SOL     OW 1198   1.315   0.463   0.682
  213SOL    HW1 1199   1.251   0.534   0.682
  213SOL    HW2 1200   1.302   0.419   0.766
  214SOL     OW 1201   1.587   0.203   0.868
  214SOL    HW1 1202   1.524   0.217   0.939
  214SOL    HW2 1203   1.589   0.287   0.821
  215SOL     OW 1204   0.039   1.049   0.282
  215SOL    HW1 1205   0.135   1.051   0.285
  215SOL    HW2 1206   0.013   1.012   0.366
  216SOL     OW 1207   0.883   1.650   0.347
  216SOL    HW1 1208   0.812   1.630   0.286
  216SOL    HW2 1209   0.850   1.725   0.397
  217SOL     OW 1210   0.247   0.626   1.981
  217SOL    HW1 1211   0.171   0.612   2.037
  217SOL    HW2 1212   0.215   0.609   1.892
  218SOL     OW 1213   0.197   0.292   2.851
  218SOL    HW1 1214   0.234   0.269   2.937
  218SOL    HW2 1215   0.132   0.224   2.834
  219SOL     OW 1216   0.007   0.377   2.505
  219SOL    HW1 1217   4.427   0.414   2.543
  219SOL    HW2 1218   4.475   0.306   2.449
  220SOL     OW 1219   0.567   1.282   3.034
  220SOL    HW1 1220   0.479   1.287   2.996
  220SOL    HW2 1221   0.582   1.369   3.070
  221SOL     OW 1222   1.558   1.512   2.568
  221SOL    HW1 1223   1.514   1.494   2.651
  221SOL    HW2 1224   1.487   1.517   2.504
  222SOL     OW 1225   1.131   0.700   2.564
  222SOL    HW1 1226   1.180   0.781   2.552
  222SOL    HW2 1227   1.083   0.713   2.645
  223SOL     OW 1228   1.764   0.609   2.092
  223SOL    HW1 1229   1.745   0.598   1.998
  223SOL    HW2 1230   1.733   0.528   2.132
  224SOL     OW 1231   0.759   1.144   2.899
  224SOL    HW1 1232   0.689   1.178   2.955
  224SOL    HW2 1233   0.793   1.222   2.855
  225SOL     OW 1234   0.862   0.780   3.683
  225SOL    HW1 1235   0.849   0.851   3.745
  225SOL    HW2 1236   0.885   0.823   3.601
  226SOL     OW 1237   0.686   1.007   2.511
  226SOL    HW1 1238   0.750   0.992   2.580
  226SOL    HW2 1239   0.616   1.057   2.554
  227SOL     OW 1240   0.708   1.151   3.671
  227SOL    HW1 1241   0.755   1.231   3.695
  227SOL    HW2 1242   0.624   1.183   3.637
  228SOL     OW 1243   0.337   1.424   2.932
  228SOL    HW1 1244   0.256   1.404   2.885
  228SOL    HW2 1245   0.387   1.478   2.871
  229SOL     OW 1246   1.462   1.498   3.212
  229SOL    HW1 1247   1.506   1.582   3.222
  229SOL    HW2 1248   1.408   1.490   3.291
  230SOL     OW 1249   0.436   0.396   3.356
  230SOL    HW1 1250   0.524   0.359   3.358
  230SOL    HW2 1251   0.378   0.321   3.370
  231SOL     OW 1252   1.613   0.448   2.600
  231SOL    HW1 1253   1.532   0.472   2.553
  231SOL    HW2 1254   1.634   0.525   2.652
  232SOL     OW 1255   0.245   1.692   2.341
  232SOL    HW1 1256   0.233   1.777   2.385
  232SOL    HW2 1257   0.307   1.710   2.271
  233SOL     OW 1258   1.136   1.341   3.553
  233SOL    HW1 1259   1.175   1.337   3.640
  233SOL    HW2 1260   1.083   1.261   3.548
  234SOL     OW 1261   0.243   1.428   2.390
  234SOL    HW1 1262   0.236   1.523   2.395
  234SOL    HW2 1263   0.179   1.395   2.453
  235SOL     OW 1264   0.244   1.081   2.744
  235SOL    HW1 1265   0.263   0.994   2.779
  235SOL    HW2 1266   0.188   1.122   2.810
  236SOL     OW 1267   0.616   1.790   3.295
  236SOL    HW1 1268   0.532   1.773   3.337
  236SOL    HW2 1269   0.637   1.881   3.318
  237SOL     OW 1270   0.584   0.983   1.997
  237SOL    HW1 1271   0.629   1.031   1.927
  237SOL    HW2 1272   0.630   1.010   2.077
  238SOL     OW 1273   1.585   0.114   3.336
  238SOL    HW1 1274   1.596   0.183   3.270
  238SOL    HW2 1275   1.575   0.162   3.419
  239SOL     OW 1276   0.136   0.642   2.437
  239SOL    HW1 1277   0.083   0.564   2.450
  239SOL    HW2 1278   0.107   0.703   2.505
  240SOL     OW 1279   1.841   1.762   2.197
  240SOL    HW1 1280   1.899   1.733   2.267
  240SOL    HW2 1281   1.867   1.852   2.179
  241SOL     OW 1282   0.033   1.601   1.997
  241SOL    HW1 1283   0.021   1.506   1.999
  241SOL    HW2 1284   0.011   1.629   2.086
  242SOL     OW 1285   1.691   0.920   2.500
  242SOL    HW1 1286   1.775   0.880   2.480
  242SOL    HW2 1287   1.669   0.969   2.420
  243SOL     OW 1288   1.645   1.108   2.291
  243SOL    HW1 1289   1.730   1.117   2.249
  243SOL    HW2 1290   1.650   1.168   2.366
  244SOL     OW 1291   0.107   0.760   3.450
  244SOL    HW1 1292   0.201   0.760   3.435
  244SOL    HW2 1293   0.084   0.853   3.456
  245SOL     OW 1294   0.612   1.382   2.598
  245SOL    HW1 1295   0.566   1.299   2.606
  245SOL    HW2 1296   0.596   1.409   2.507
  246SOL     OW 1297   1.290   1.238   3.287
  246SOL    HW1 1298   1.323   1.171   3.227
  246SOL    HW2 1299   1.346   1.231   3.364
  247SOL     OW 1300   0.817   0.011   2.408
  247SOL    HW1 1301   0.850   0.098   2.385
  247SOL    HW2 1302   0.722   0.018   2.398
  248SOL     OW 1303   0.183   0.944   3.141
  248SOL    HW1 1304   0.274   0.927   3.118
  248SOL    HW2 1305   0.133   0.920   3.063
  249SOL     OW 1306   1.532   0.991   2.058
  249SOL    HW1 1307   1.462   0.933   2.088
  249SOL    HW2 1308   1.571   1.025   2.139
  250SOL     OW 1309   1.185   1.803   3.482
  250SOL    HW1 1310   1.202   1.861   3.407
  250SOL    HW2 1311   1.200   1.715   3.449
  251SOL     OW 1312   0.318   0.260   3.635
  251SOL    HW1 1313   0.386   0.313   3.676
  251SOL    HW2 1314   0.242   0.269   3.693
  252SOL     OW 1315   1.465   1.419   2.815
  252SOL    HW1 1316   1.397   1.434   2.880
  252SOL    HW2 1317   1.454   1.328   2.788
  253SOL     OW 1318   1.663   1.732   2.439
  253SOL    HW1 1319   1.637   1.704   2.351
  253SOL    HW2 1320   1.636   1.660   2.496
  254SOL     OW 1321   0.596   0.723   2.126
  254SOL    HW1 1322   0.602   0.803   2.074
  254SOL    HW2 1323   0.530   0.743   2.193
  255SOL     OW 1324   1.290   0.358   2.797
  255SOL    HW1 1325   1.201   0.326   2.781
  255SOL    HW2 1326   1.327   0.295   2.859
  256SOL     OW 1327   1.581   1.668   2.171
  256SOL    HW1 1328   1.670   1.703   2.165
  256SOL    HW2 1329   1.555   1.651   2.080
  257SOL     OW 1330   0.797   0.616   3.316
  257SOL    HW1 1331   0.769   0.594   3.405
  257SOL    HW2 1332   0.752   0.554   3.260
  258SOL     OW 1333   1.389   0.478   3.538
  258SOL    HW1 1334   1.391   0.522   3.623
  258SOL    HW2 1335   1.456   0.410   3.545
  259SOL     OW 1336   0.958   0.889   3.443
  259SOL    HW1 1337   1.012   0.817   3.409
  259SOL    HW2 1338   0.911   0.922   3.366
  260SOL     OW 1339   0.996   0.417   3.100
  260SOL    HW1 1340   0.911   0.430   3.142
  260SOL    HW2 1341   0.976   0.365   3.022
  261SOL     OW 1342   1.049   0.698   2.290
  261SOL    HW1 1343   1.064   0.691   2.384
  261SOL    HW2 1344   0.967   0.651   2.275
  262SOL     OW 1345   0.099   0.823   2.645
  262SOL    HW1 1346   0.185   0.803   2.682
  262SOL    HW2 1347   0.053   0.871   2.714
  263SOL     OW 1348   0.124   1.853   3.438
  263SOL    HW1 1349   0.119   1.829   3.530
  263SOL    HW2 1350   0.045   1.817   3.398
  264SOL     OW 1351   0.853   0.367   2.038
  264SOL    HW1 1352   0.929   0.404   1.994
  264SOL    HW2 1353   0.872   0.274   2.046
  265SOL     OW 1354   1.706   0.576   3.690
  265SOL    HW1 1355   1.672   0.653   3.646
  265SOL    HW2 1356   1.739   0.520   3.619
  266SOL     OW 1357   1.375   1.143   2.404
  266SOL    HW1 1358   1.453   1.128   2.351
  266SOL    HW2 1359   1.323   1.205   2.353
  267SOL     OW 1360   0.544   0.202   2.763
  267SOL    HW1 1361   0.562   0.221   2.855
  267SOL    HW2 1362   0.534   0.288   2.722
  268SOL     OW 1363   1.009   1.446   2.336
  268SOL    HW1 1364   0.968   1.517   2.287
  268SOL    HW2 1365   0.994   1.468   2.428
  269SOL     OW 1366   0.355   1.807   2.718
  269SOL    HW1 1367   0.398   1.723   2.728
  269SOL    HW2 1368   0.424   1.872   2.731
  270SOL     OW 1369   1.798   1.060   2.729
  270SOL    HW1 1370   1.741   1.043   2.654
  270SOL    HW2 1371   1.738   1.065   2.803
  271SOL     OW 1372   1.228   1.540   3.375
  271SOL    HW1 1373   1.214   1.466   3.434
  271SOL    HW2 1374   1.168   1.523   3.302
  272SOL     OW 1375   0.317   0.954   2.111
  272SOL    HW1 1376   0.402   0.976   2.072
  272SOL    HW2 1377   0.300   0.865   2.081
  273SOL     OW 1378   1.476   0.739   2.588
  273SOL    HW1 1379   1.463   0.692   2.670
  273SOL    HW2 1380   1.552   0.795   2.604
  274SOL     OW 1381   0.465   1.261   3.597
  274SOL    HW1 1382   0.437   1.268   3.506
  274SOL    HW2 1383   0.384   1.266   3.648
  275SOL     OW 1384   1.121   1.777   2.094
  275SOL    HW1 1385   1.049   1.734   2.141
  275SOL    HW2 1386   1.142   1.718   2.022
  276SOL     OW 1387   0.167   0.262   3.370
  276SOL    HW1 1388   0.135   0.349   3.344
  276SOL    HW2 1389   0.199   0.274   3.460
  277SOL     OW 1390   1.629   1.379   1.949
  277SOL    HW1 1391   1.588   1.464   1.933
  277SOL    HW2 1392   1.560   1.316   1.930
  278SOL     OW 1393   0.469   1.744   2.177
  278SOL    HW1 1394   0.508   1.796   2.247
  278SOL    HW2 1395   0.544   1.713   2.125
  279SOL     OW 1396   1.416   0.131   2.281
  279SOL    HW1 1397   1.398   0.084   2.199
  279SOL    HW2 1398   1.511   0.130   2.289
  280SOL     OW 1399   0.257   1.791   3.098
  280SOL    HW1 1400   0.306   1.718   3.137
  280SOL    HW2 1401   0.229   1.758   3.012
  281SOL     OW 1402   0.938   1.698   2.762
  281SOL    HW1 1403   1.015   1.645   2.783
  281SOL    HW2 1404   0.892   1.649   2.694
  282SOL     OW 1405   0.392   0.695   2.336
  282SOL    HW1 1406   0.418   0.603   2.347
  282SOL    HW2 1407   0.300   0.696   2.363
  283SOL     OW 1408   1.527   0.232   3.584
  283SOL    HW1 1409   1.525   0.256   3.677
  283SOL    HW2 1410   1.452   0.174   3.573
  284SOL     OW 1411   0.622   0.123   1.978
  284SOL    HW1 1412   0.710   0.088   1.991
  284SOL    HW2 1413   0.593   0.087   1.894
  285SOL     OW 1414   0.769   0.268   3.614
  285SOL    HW1 1415   0.835   0.201   3.631
  285SOL    HW2 1416   0.724   0.279   3.698
  286SOL     OW 1417   0.877   1.521   3.055
  286SOL    HW1 1418   0.862   1.485   2.968
  286SOL    HW2 1419   0.946   1.466   3.092
  287SOL     OW 1420   1.342   0.589   3.292
  287SOL    HW1 1421   1.370   0.559   3.378
  287SOL    HW2 1422   1.376   0.678   3.285
  288SOL     OW 1423   0.813   1.398   2.798
  288SOL    HW1 1424   0.897   1.388   2.753
  288SOL    HW2 1425   0.748   1.396   2.728
  289SOL     OW 1426   0.922   0.515   2.764
  289SOL    HW1 1427   0.905   0.513   2.670
  289SOL    HW2 1428   0.963   0.430   2.783
  290SOL     OW 1429   0.558   0.067   2.371
  290SOL    HW1 1430   0.470   0.054   2.407
  290SOL    HW2 1431   0.548   0.140   2.310
  291SOL     OW 1432   1.429   1.197   1.903
  291SOL    HW1 1433   1.459   1.122   1.953
  291SOL    HW2 1434   1.343   1.218   1.940
  292SOL     OW 1435   0.303   0.076   2.046
  292SOL    HW1 1436   0.386   0.123   2.041
  292SOL    HW2 1437   0.321   4.500   2.100
  293SOL     OW 1438   0.950   0.241   2.335
  293SOL    HW1 1439   0.898   0.288   2.270
  293SOL    HW2 1440   1.038   0.275   2.325
  294SOL     OW 1441   1.080   0.679   3.323
  294SOL    HW1 1442   1.008   0.616   3.325
  294SOL    HW2 1443   1.159   0.626   3.311
  295SOL     OW 1444   1.225   1.569   2.655
  295SOL    HW1 1445   1.243   1.637   2.591
  295SOL    HW2 1446   1.292   1.581   2.722
  296SOL     OW 1447   0.465   1.148   2.600
  296SOL    HW1 1448   0.393   1.129   2.660
  296SOL    HW2 1449   0.428   1.131   2.513
  297SOL     OW 1450   1.271   1.795   2.467
  297SOL    HW1 1451   1.315   1.857   2.408
  297SOL    HW2 1452   1.207   1.848   2.514
  298SOL     OW 1453   1.031   0.549   1.876
  298SOL    HW1 1454   0.983   0.631   1.861
  298SOL    HW2 1455   1.089   0.569   1.950
  299SOL     OW 1456   0.090   0.525   3.273
  299SOL    HW1 1457   0.152   0.535   3.201
  299SOL    HW2 1458   0.062   0.614   3.294
  300SOL     OW 1459   0.564   0.242   3.027
  300SOL    HW1 1460   0.594   0.157   3.059
  300SOL    HW2 1461   0.470   0.243   3.047
  301SOL     OW 1462   0.866   0.500   2.488
  301SOL    HW1 1463   0.815   0.543   2.420
  301SOL    HW2 1464   0.851   0.407   2.476
  302SOL     OW 1465   0.971   0.032   2.637
  302SOL    HW1 1466   0.922   0.027   2.555
  302SOL    HW2 1467   0.981   4.440   2.664
  303SOL     OW 1468   1.436   1.163   2.720
  303SOL    HW1 1469   1.368   1.095   2.718
  303SOL    HW2 1470   1.458   1.177   2.628
  304SOL     OW 1471   1.468   0.602   2.841
  304SOL    HW1 1472   1.417   0.521   2.845
  304SOL    HW2 1473   1.527   0.597   2.916
  305SOL     OW 1474   1.847   0.819   2.244
  305SOL    HW1 1475   1.903   0.767   2.301
  305SOL    HW2 1476   1.818   0.758   2.176
  306SOL     OW 1477   0.492   1.413   2.024
  306SOL    HW1 1478   0.416   1.384   2.074
  306SOL    HW2 1479   0.471   1.394   1.933
  307SOL     OW 1480   1.669   1.266   2.510
  307SOL    HW1 1481   1.763   1.272   2.523
  307SOL    HW2 1482   1.636   1.353   2.532
  308SOL     OW 1483   1.394   0.570   1.932
  308SOL    HW1 1484   1.333   0.554   2.004
  308SOL    HW2 1485   1.480   0.548   1.967
  309SOL     OW 1486   0.523   0.264   2.185
  309SOL    HW1 1487   0.568   0.213   2.117
  309SOL    HW2 1488   0.509   0.350   2.144
  310SOL     OW 1489   1.754   1.236   3.440
  310SOL    HW1 1490   1.842   1.197   3.435
  310SOL    HW2 1491   1.768   1.326   3.467
  311SOL     OW 1492   1.061   1.353   3.197
  311SOL    HW1 1493   0.986   1.322   3.248
  311SOL    HW2 1494   1.137   1.312   3.238
  312SOL     OW 1495   1.606   1.624   3.513
  312SOL    HW1 1496   1.603   1.660   3.424
  312SOL    HW2 1497   1.690   1.579   3.518
  313SOL     OW 1498   1.125   1.201   2.969
  313SOL    HW1 1499   1.067   1.240   3.035
  313SOL    HW2 1500   1.091   1.232   2.885
  314SOL     OW 1501   1.631   1.100   2.941
  314SOL    HW1 1502   1.627   1.162   3.013
  314SOL    HW2 1503   1.551   1.115   2.891
  315SOL     OW 1504   0.904   0.130   3.252
  315SOL    HW1 1505   0.927   0.086   3.170
  315SOL    HW2 1506   0.988   0.143   3.296
  316SOL     OW 1507   0.984   1.114   3.584
  316SOL    HW1 1508   0.891   1.129   3.603
  316SOL    HW2 1509   0.984   1.037   3.528
  317SOL     OW 1510   0.708   1.060   2.235
  317SOL    HW1 1511   0.696   1.046   2.329
  317SOL    HW2 1512   0.784   1.006   2.212
  318SOL     OW 1513   0.429   0.823   3.101
  318SOL    HW1 1514   0.497   0.834   3.167
  318SOL    HW2 1515   0.369   0.757   3.138
  319SOL     OW 1516   1.270   0.377   3.134
  319SOL    HW1 1517   1.301   0.455   3.179
  319SOL    HW2 1518   1.181   0.399   3.105
  320SOL     OW 1519   0.061   1.575   3.201
  320SOL    HW1 1520   0.033   1.663   3.176
  320SOL    HW2 1521   0.156   1.581   3.208
  321SOL     OW 1522   0.351   1.106   2.356
  321SOL    HW1 1523   0.360   1.180   2.295
  321SOL    HW2 1524   0.354   1.029   2.300
  322SOL     OW 1525   0.564   0.530   2.717
  322SOL    HW1 1526   0.577   0.590   2.644
  322SOL    HW2 1527   0.622   0.563   2.786
  323SOL     OW 1528   1.248   1.348   2.251
  323SOL    HW1 1529   1.303   1.420   2.282
  323SOL    HW2 1530   1.161   1.368   2.285
  324SOL     OW 1531   1.277   1.455   3.008
  324SOL    HW1 1532   1.332   1.458   3.086
  324SOL    HW2 1533   1.222   1.378   3.020
  325SOL     OW 1534   1.583   0.625   2.337
  325SOL    HW1 1535   1.539   0.679   2.403
  325SOL    HW2 1536   1.628   0.688   2.281
  326SOL     OW 1537   0.348   1.528   3.180
  326SOL    HW1 1538   0.333   1.482   3.098
  326SOL    HW2 1539   0.443   1.539   3.185
  327SOL     OW 1540   0.476   0.760   3.525
  327SOL    HW1 1541   0.502   0.800   3.442
  327SOL    HW2 1542   0.508   0.670   3.519
  328SOL     OW 1543   1.597   0.777   3.540
  328SOL    HW1 1544   1.511   0.818   3.533
  328SOL    HW2 1545   1.650   0.819   3.473
  329SOL     OW 1546   1.007   0.087   3.589
  329SOL    HW1 1547   1.029   0.171   3.549
  329SOL    HW2 1548   1.033   0.022   3.523
  330SOL     OW 1549   0.496   0.046   3.611
  330SOL    HW1 1550   0.478   4.497   3.531
  330SOL    HW2 1551   0.429   0.114   3.614
  331SOL     OW 1552   0.587   0.874   2.885
  331SOL    HW1 1553   0.617   0.965   2.888
  331SOL    HW2 1554   0.531   0.865   2.962
  332SOL     OW 1555   1.361   0.859   2.896
  332SOL    HW1 1556   1.279   0.853   2.845
  332SOL    HW2 1557   1.398   0.770   2.892
  333SOL     OW 1558   1.207   0.534   2.129
  333SOL    HW1 1559   1.213   0.454   2.180
  333SOL    HW2 1560   1.165   0.597   2.187
  334SOL     OW 1561   0.285   0.220   3.096
  334SOL    HW1 1562   0.250   0.237   3.184
  334SOL    HW2 1563   0.320   0.131   3.101
  335SOL     OW 1564   0.048   1.313   3.146
  335SOL    HW1 1565   0.078   1.266   3.223
  335SOL    HW2 1566   0.049   1.405   3.171
  336SOL     OW 1567   0.725   0.632   2.923
  336SOL    HW1 1568   0.798   0.611   2.864
  336SOL    HW2 1569   0.700   0.721   2.898
  337SOL     OW 1570   1.733   0.958   3.713
  337SOL    HW1 1571   1.684   0.905   3.651
  337SOL    HW2 1572   1.674   0.970   3.787
  338SOL     OW 1573   0.317   0.076   2.493
  338SOL    HW1 1574   0.300   0.164   2.527
  338SOL    HW2 1575   0.305   0.018   2.569
  339SOL     OW 1576   1.610   0.374   2.229
  339SOL    HW1 1577   1.642   0.312   2.294
  339SOL    HW2 1578   1.589   0.453   2.279
  340SOL     OW 1579   1.027   0.761   2.824
  340SOL    HW1 1580   1.027   0.777   2.919
  340SOL    HW2 1581   0.999   0.670   2.816
  341SOL     OW 1582   0.983   1.566   3.576
  341SOL    HW1 1583   0.967   1.610   3.493
  341SOL    HW2 1584   1.025   1.484   3.552
  342SOL     OW 1585   1.857   1.508   3.467
  342SOL    HW1 1586   1.871   1.536   3.377
  342SOL    HW2 1587   1.937   1.533   3.512
  343SOL     OW 1588   0.347   0.930   3.680
  343SOL    HW1 1589   0.422   0.958   3.734
  343SOL    HW2 1590   0.384   0.864   3.621
  344SOL     OW 1591   1.532   0.267   1.990
  344SOL    HW1 1592   1.460   0.211   2.017
  344SOL    HW2 1593   1.560   0.312   2.070
  345SOL     OW 1594   1.295   0.827   1.895
  345SOL    HW1 1595   1.336   0.741   1.897
  345SOL    HW2 1596   1.325   0.866   1.813
  346SOL     OW 1597   1.065   1.335   2.714
  346SOL    HW1 1598   1.068   1.262   2.652
  346SOL    HW2 1599   1.128   1.398   2.680
  347SOL     OW 1600   0.317   0.813   2.812
  347SOL    HW1 1601   0.411   0.831   2.807
  347SOL    HW2 1602   0.311   0.723   2.843
  348SOL     OW 1603   0.337   0.527   2.856
  348SOL    HW1 1604   0.292   0.445   2.836
  348SOL    HW2 1605   0.414   0.527   2.799
  349SOL     OW 1606   1.135   0.375   3.554
  349SOL    HW1 1607   1.088   0.440   3.607
  349SOL    HW2 1608   1.222   0.414   3.541
  350SOL     OW 1609   1.160   0.211   3.336
  350SOL    HW1 1610   1.152   0.275   3.406
  350SOL    HW2 1611   1.195   0.261   3.262
  351SOL     OW 1612   4.492   1.323   2.063
  351SOL    HW1 1613   4.399   1.338   2.046
  351SOL    HW2 1614   4.498   1.231   2.087
  352SOL     OW 1615   0.095   1.782   2.801
  352SOL    HW1 1616   0.057   1.721   2.738
  352SOL    HW2 1617   0.182   1.801   2.767
  353SOL     OW 1618   0.499   1.573   2.768
  353SOL    HW1 1619   0.567   1.636   2.792
  353SOL    HW2 1620   0.544   1.508   2.714
  354SOL     OW 1621   0.989   0.795   3.091
  354SOL    HW1 1622   1.041   0.769   3.167
  354SOL    HW2 1623   0.902   0.758   3.108
  355SOL     OW 1624   0.040   0.566   2.972
  355SOL    HW1 1625   0.115   0.521   2.933
  355SOL    HW2 1626   0.025   0.520   3.055
  356SOL     OW 1627   0.180   0.518   3.572
  356SOL    HW1 1628   0.266   0.501   3.533
  356SOL    HW2 1629   0.150   0.599   3.531
  357SOL     OW 1630   1.376   0.941   3.521
  357SOL    HW1 1631   1.396   1.035   3.522
  357SOL    HW2 1632   1.374   0.918   3.429
  358SOL     OW 1633   0.812   0.572   2.214
  358SOL    HW1 1634   0.814   0.500   2.151
  358SOL    HW2 1635   0.738   0.626   2.186
  359SOL     OW 1636   1.642   0.601   3.051
  359SOL    HW1 1637   1.631   0.541   3.125
  359SOL    HW2 1638   1.729   0.580   3.017
  360SOL     OW 1639   0.271   1.562   3.604
  360SOL    HW1 1640   0.217   1.614   3.664
  360SOL    HW2 1641   0.250   1.471   3.626
  361SOL     OW 1642   0.682   0.464   3.130
  361SOL    HW1 1643   0.646   0.383   3.093
  361SOL    HW2 1644   0.691   0.522   3.055
  362SOL     OW 1645   0.930   1.678   3.328
  362SOL    HW1 1646   0.903   1.648   3.241
  362SOL    HW2 1647   0.930   1.774   3.321
  363SOL     OW 1648   0.473   0.491   2.048
  363SOL    HW1 1649   0.532   0.563   2.069
  363SOL    HW2 1650   0.388   0.533   2.035
  364SOL     OW 1651   0.161   1.141   3.325
  364SOL    HW1 1652   0.148   1.092   3.407
  364SOL    HW2 1653   0.170   1.073   3.258
  365SOL     OW 1654   1.329   1.049   3.087
  365SOL    HW1 1655   1.353   0.986   3.019
  365SOL    HW2 1656   1.256   1.098   3.050
  366SOL     OW 1657   1.309   0.856   2.169
  366SOL    HW1 1658   1.232   0.827   2.218
  366SOL    HW2 1659   1.285   0.843   2.077
  367SOL     OW 1660   1.764   1.744   3.010
  367SOL    HW1 1661   1.826   1.774   2.944
  367SOL    HW2 1662   1.746   1.653   2.987
  368SOL     OW 1663   1.242   1.733   2.978
  368SOL    HW1 1664   1.324   1.751   2.933
  368SOL    HW2 1665   1.245   1.639   2.996
  369SOL     OW 1666   0.068   1.189   2.910
  369SOL    HW1 1667   0.073   1.223   2.999
  369SOL    HW2 1668   0.011   1.250   2.863
  370SOL     OW 1669   0.679   1.664   3.587
  370SOL    HW1 1670   0.626   1.743   3.583
  370SOL    HW2 1671   0.741   1.673   3.514
  371SOL     OW 1672   1.718   0.130   2.360
  371SOL    HW1 1673   1.792   0.135   2.300
  371SOL    HW2 1674   1.737   0.055   2.416
  372SOL     OW 1675   1.390   1.568   2.345
  372SOL    HW1 1676   1.450   1.599   2.277
  372SOL    HW2 1677   1.342   1.646   2.372
  373SOL     OW 1678   0.120   1.808   3.710
  373SOL    HW1 1679   0.081   1.734   3.756
  373SOL    HW2 1680   0.184   1.844   3.771
  374SOL     OW 1681   1.278   0.926   2.534
  374SOL    HW1 1682   1.351   0.863   2.537
  374SOL    HW2 1683   1.311   0.998   2.482
  375SOL     OW 1684   0.819   1.272   3.293
  375SOL    HW1 1685   0.792   1.311   3.377
  375SOL    HW2 1686   0.747   1.294   3.234
  376SOL     OW 1687   0.673   1.616   2.017
  376SOL    HW1 1688   0.681   1.627   1.922
  376SOL    HW2 1689   0.620   1.537   2.028
  377SOL     OW 1690   1.631   1.726   3.254
  377SOL    HW1 1691   1.680   1.734   3.172
  377SOL    HW2 1692   1.617   1.816   3.283
  378SOL     OW 1693   1.839   0.156   2.829
  378SOL    HW1 1694   1.868   0.079   2.779
  378SOL    HW2 1695   1.752   0.176   2.794
  379SOL     OW 1696   0.267   0.326   2.587
  379SOL    HW1 1697   0.185   0.361   2.552
  379SOL    HW2 1698   0.251   0.317   2.681
  380SOL     OW 1699   1.206   1.608   1.893
  380SOL    HW1 1700   1.197   1.517   1.920
  380SOL    HW2 1701   1.141   1.618   1.823
  381SOL     OW 1702   0.825   1.006   3.233
  381SOL    HW1 1703   0.867   1.004   3.148
  381SOL    HW2 1704   0.826   1.099   3.258
  382SOL     OW 1705   0.915   0.910   2.151
  382SOL    HW1 1706   0.977   0.942   2.086
  382SOL    HW2 1707   0.961   0.839   2.196
  383SOL     OW 1708   1.495   1.624   1.904
  383SOL    HW1 1709   1.400   1.621   1.893
  383SOL    HW2 1710   1.530   1.630   1.815
  384SOL     OW 1711   0.373   1.305   3.353
  384SOL    HW1 1712   0.356   1.383   3.301
  384SOL    HW2 1713   0.297   1.249   3.337
  385SOL     OW 1714   1.611   1.283   3.143
  385SOL    HW1 1715   1.672   1.277   3.217
  385SOL    HW2 1716   1.551   1.354   3.167
  386SOL     OW 1717   1.048   1.105   2.567
  386SOL    HW1 1718   0.978   1.054   2.607
  386SOL    HW2 1719   1.109   1.040   2.533
  387SOL     OW 1720   1.007   0.241   2.859
  387SOL    HW1 1721   1.014   0.212   2.768
  387SOL    HW2 1722   1.001   0.160   2.909
  388SOL     OW 1723   0.602   1.489   2.345
  388SOL    HW1 1724   0.641   1.439   2.274
  388SOL    HW2 1725   0.533   1.540   2.304
  389SOL     OW 1726   1.719   0.393   3.240
  389SOL    HW1 1727   1.791   0.456   3.239
  389SOL    HW2 1728   1.749   0.321   3.184
  390SOL     OW 1729   0.252   1.345   2.140
  390SOL    HW1 1730   0.157   1.346   2.125
  390SOL    HW2 1731   0.263   1.378   2.229
  391SOL     OW 1732   0.117   1.007   3.558
  391SOL    HW1 1733   0.052   1.045   3.617
  391SOL    HW2 1734   0.195   0.996   3.613
  392SOL     OW 1735   0.659   0.207   3.358
  392SOL    HW1 1736   0.739   0.181   3.312
  392SOL    HW2 1737   0.687   0.222   3.448
  393SOL     OW 1738   0.070   0.321   1.888
  393SOL    HW1 1739   4.475   0.330   1.898
  393SOL    HW2 1740   0.099   0.407   1.857
  394SOL     OW 1741   1.432   0.858   3.263
  394SOL    HW1 1742   1.383   0.918   3.206
  394SOL    HW2 1743   1.522   0.862   3.230
  395SOL     OW 1744   0.083   0.188   2.165
  395SOL    HW1 1745   0.080   0.260   2.102
  395SOL    HW2 1746   0.161   0.138   2.141
  396SOL     OW 1747   1.180   1.341   1.979
  396SOL    HW1 1748   1.089   1.312   1.982
  396SOL    HW2 1749   1.209   1.341   2.070
  397SOL     OW 1750   0.621   0.831   3.290
  397SOL    HW1 1751   0.675   0.909   3.278
  397SOL    HW2 1752   0.683   0.759   3.300
  398SOL     OW 1753   1.486   1.773   2.837
  398SOL    HW1 1754   1.510   1.833   2.767
  398SOL    HW2 1755   1.566   1.761   2.888
  399SOL     OW 1756   0.715   0.562   3.567
  399SOL    HW1 1757   0.746   0.629   3.627
  399SOL    HW2 1758   0.756   0.481   3.599
  400SOL     OW 1759   1.468   1.203   3.495
  400SOL    HW1 1760   1.457   1.216   3.589
  400SOL    HW2 1761   1.562   1.216   3.481
  401SOL     OW 1762   0.382   1.743   3.426
  401SOL    HW1 1763   0.297   1.782   3.410
  401SOL    HW2 1764   0.363   1.661   3.471
  402SOL     OW 1765   1.672   0.882   3.117
  402SOL    HW1 1766   1.662   0.797   3.074
  402SOL    HW2 1767   1.663   0.946   3.047
  403SOL     OW 1768   1.218   0.327   2.310
  403SOL    HW1 1769   1.283   0.258   2.301
  403SOL    HW2 1770   1.245   0.375   2.389
  404SOL     OW 1771   0.588   0.740   2.530
  404SOL    HW1 1772   0.630   0.825   2.513
  404SOL    HW2 1773   0.519   0.734   2.464
  405SOL     OW 1774   1.766   0.360   3.505
  405SOL    HW1 1775   1.750   0.374   3.412
  405SOL    HW2 1776   1.687   0.317   3.537
  406SOL     OW 1777   1.743   0.933   3.375
  406SOL    HW1 1778   1.746   1.028   3.388
  406SOL    HW2 1779   1.729   0.923   3.281
  407SOL     OW 1780   0.863   1.368   1.892
  407SOL    HW1 1781   0.823   1.394   1.975
  407SOL    HW2 1782   0.882   1.451   1.848
  408SOL     OW 1783   0.659   1.794   2.811
  408SOL    HW1 1784   0.637   1.884   2.785
  408SOL    HW2 1785   0.754   1.789   2.801
  409SOL     OW 1786   0.866   0.965   2.718
  409SOL    HW1 1787   0.916   0.894   2.758
  409SOL    HW2 1788   0.833   1.016   2.792
  410SOL     OW 1789   1.080   0.988   1.951
  410SOL    HW1 1790   1.058   1.038   1.872
  410SOL    HW2 1791   1.156   0.935   1.925
  411SOL     OW 1792   1.857   1.554   2.705
  411SOL    HW1 1793   1.777   1.545   2.653
  411SOL    HW2 1794   1.847   1.491   2.776
  412SOL     OW 1795   0.228   1.307   3.718
  412SOL    HW1 1796   0.159   1.245   3.694
  412SOL    HW2 1797   0.219   1.317   3.813
  413SOL     OW 1798   0.101   1.239   2.528
  413SOL    HW1 1799   0.106   1.188   2.609
  413SOL    HW2 1800   0.162   1.196   2.469
  414SOL     OW 1801   0.680   1.400   3.488
  414SOL    HW1 1802   0.600   1.356   3.517
  414SOL    HW2 1803   0.674   1.488   3.525
  415SOL     OW 1804   1.811   0.184   3.101
  415SOL    HW1 1805   1.810   0.091   3.122
  415SOL    HW2 1806   1.826   0.187   3.006
  416SOL     OW 1807   0.438   0.431   2.391
  416SOL    HW1 1808   0.458   0.360   2.330
  416SOL    HW2 1809   0.381   0.391   2.456
  417SOL     OW 1810   1.704   1.488   2.958
  417SOL    HW1 1811   1.620   1.464   2.918
  417SOL    HW2 1812   1.718   1.423   3.027
  418SOL     OW 1813   0.313   0.504   3.120
  418SOL    HW1 1814   0.385   0.457   3.162
  418SOL    HW2 1815   0.340   0.512   3.028
  419SOL     OW 1816   0.825   1.578   2.542
  419SOL    HW1 1817   0.819   1.623   2.458
  419SOL    HW2 1818   0.746   1.523   2.545
  420SOL     OW 1819   1.432   0.215   2.980
  420SOL    HW1 1820   1.469   0.145   3.034
  420SOL    HW2 1821   1.381   0.268   3.041
  421SOL     OW 1822   0.997   0.013   3.011
  421SOL    HW1 1823   0.951   4.430   2.999
  421SOL    HW2 1824   1.089   4.488   3.023
  422SOL     OW 1825   0.771   1.332   2.172
  422SOL    HW1 1826   0.738   1.242   2.179
  422SOL    HW2 1827   0.854   1.330   2.221
  423SOL     OW 1828   0.621   1.558   3.146
  423SOL    HW1 1829   0.624   1.639   3.197
  423SOL    HW2 1830   0.708   1.551   3.107
  424SOL     OW 1831   1.342   0.054   2.014
  424SOL    HW1 1832   1.382   4.479   1.969
  424SOL    HW2 1833   1.267   0.016   2.060
  425SOL     OW 1834   1.314   0.462   2.543
  425SOL    HW1 1835   1.252   0.535   2.543
  425SOL    HW2 1836   1.302   0.419   2.627
  426SOL     OW 1837   1.586   0.203   2.730
  426SOL    HW1 1838   1.524   0.217   2.802
  426SOL    HW2 1839   1.589   0.287   2.684
  427SOL     OW 1840   0.041   1.054   2.149
  427SOL    HW1 1841   0.136   1.043   2.142
  427SOL    HW2 1842   0.018   1.013   2.232
  428SOL     OW 1843   0.881   1.649   2.207
  428SOL    HW1 1844   0.810   1.631   2.145
  428SOL    HW2 1845   0.851   1.726   2.256
  429SOL     OW 1846   0.247   0.626   3.843
  429SOL    HW1 1847   0.171   0.612   3.899
  429SOL    HW2 1848   0.215   0.609   3.754
  430SOL     OW 1849   0.197   0.292   4.713
  430SOL    HW1 1850   0.234   0.269   4.799
  430SOL    HW2 1851   0.132   0.224   4.697
  431SOL     OW 1852   0.007   0.377   4.367
  431SOL    HW1 1853   4.427   0.414   4.405
  431SOL    HW2 1854   4.475   0.306   4.311
  432SOL     OW 1855   0.567   1.282   4.896
  432SOL    HW1 1856   0.479   1.286   4.858
  432SOL    HW2 1857   0.582   1.370   4.932
  433SOL     OW 1858   1.552   1.512   4.426
  433SOL    HW1 1859   1.511   1.493   4.511
  433SOL    HW2 1860   1.479   1.516   4.364
  434SOL     OW 1861   1.131   0.700   4.426
  434SOL    HW1 1862   1.180   0.781   4.414
  434SOL    HW2 1863   1.083   0.713   4.507
  435SOL     OW 1864   1.764   0.609   3.954
  435SOL    HW1 1865   1.745   0.597   3.860
  435SOL    HW2 1866   1.733   0.528   3.994
  436SOL     OW 1867   0.759   1.145   4.762
  436SOL    HW1 1868   0.689   1.178   4.818
  436SOL    HW2 1869   0.793   1.222   4.716
  437SOL     OW 1870   0.862   0.780   5.545
  437SOL    HW1 1871   0.849   0.851   5.607
  437SOL    HW2 1872   0.885   0.823   5.463
  438SOL     OW 1873   0.686   1.007   4.373
  438SOL    HW1 1874   0.750   0.992   4.442
  438SOL    HW2 1875   0.616   1.057   4.416
  439SOL     OW 1876   0.708   1.151   5.533
  439SOL    HW1 1877   0.755   1.231   5.557
  439SOL    HW2 1878   0.624   1.182   5.499
  440SOL     OW 1879   0.337   1.424   4.794
  440SOL    HW1 1880   0.255   1.404   4.747
  440SOL    HW2 1881   0.387   1.478   4.733
  441SOL     OW 1882   1.469   1.501   5.084
  441SOL    HW1 1883   1.457   1.596   5.081
  441SOL    HW2 1884   1.412   1.471   5.154
  442SOL     OW 1885   0.436   0.396   5.218
  442SOL    HW1 1886   0.524   0.359   5.219
  442SOL    HW2 1887   0.378   0.322   5.232
  443SOL     OW 1888   1.613   0.448   4.462
  443SOL    HW1 1889   1.533   0.473   4.415
  443SOL    HW2 1890   1.635   0.525   4.514
  444SOL     OW 1891   0.245   1.692   4.203
  444SOL    HW1 1892   0.233   1.777   4.246
  444SOL    HW2 1893   0.307   1.710   4.133
  445SOL     OW 1894   1.136   1.341   5.414
  445SOL    HW1 1895   1.175   1.338   5.501
  445SOL    HW2 1896   1.083   1.262   5.409
  446SOL     OW 1897   0.244   1.428   4.252
  446SOL    HW1 1898   0.236   1.523   4.257
  446SOL    HW2 1899   0.179   1.395   4.315
  447SOL     OW 1900   0.245   1.081   4.606
  447SOL    HW1 1901   0.263   0.994   4.641
  447SOL    HW2 1902   0.188   1.122   4.672
  448SOL     OW 1903   0.617   1.790   5.158
  448SOL    HW1 1904   0.533   1.773   5.200
  448SOL    HW2 1905   0.637   1.881   5.180
  449SOL     OW 1906   0.584   0.983   3.859
  449SOL    HW1 1907   0.629   1.031   3.789
  449SOL    HW2 1908   0.630   1.010   3.939
  450SOL     OW 1909   1.585   0.114   5.198
  450SOL    HW1 1910   1.597   0.183   5.132
  450SOL    HW2 1911   1.575   0.161   5.281
  451SOL     OW 1912   0.136   0.642   4.299
  451SOL    HW1 1913   0.082   0.564   4.312
  451SOL    HW2 1914   0.107   0.703   4.367
  452SOL     OW 1915   1.841   1.762   4.061
  452SOL    HW1 1916   1.899   1.731   4.130
  452SOL    HW2 1917   1.870   1.852   4.043
  453SOL     OW 1918   0.033   1.601   3.859
  453SOL    HW1 1919   0.021   1.506   3.861
  453SOL    HW2 1920   0.010   1.629   3.948
  454SOL     OW 1921   1.689   0.918   4.360
  454SOL    HW1 1922   1.775   0.881   4.344
  454SOL    HW2 1923   1.669   0.969   4.281
  455SOL     OW 1924   1.645   1.109   4.154
  455SOL    HW1 1925   1.730   1.117   4.111
  455SOL    HW2 1926   1.650   1.170   4.228
  456SOL     OW 1927   0.107   0.760   5.312
  456SOL    HW1 1928   0.201   0.760   5.297
  456SOL    HW2 1929   0.084   0.853   5.318
  457SOL     OW 1930   0.613   1.382   4.460
  457SOL    HW1 1931   0.566   1.299   4.468
  457SOL    HW2 1932   0.596   1.409   4.369
  458SOL     OW 1933   1.295   1.243   5.146
  458SOL    HW1 1934   1.324   1.173   5.087
  458SOL    HW2 1935   1.347   1.231   5.225
  459SOL     OW 1936   0.817   0.011   4.270
  459SOL    HW1 1937   0.850   0.098   4.247
  459SOL    HW2 1938   0.722   0.018   4.260
  460SOL     OW 1939   0.183   0.944   5.003
  460SOL    HW1 1940   0.274   0.927   4.980
  460SOL    HW2 1941   0.133   0.920   4.925
  461SOL     OW 1942   1.532   0.991   3.921
  461SOL    HW1 1943   1.462   0.934   3.951
  461SOL    HW2 1944   1.571   1.025   4.001
  462SOL     OW 1945   1.188   1.803   5.344
  462SOL    HW1 1946   1.197   1.862   5.269
  462SOL    HW2 1947   1.200   1.715   5.308
  463SOL     OW 1948   0.318   0.260   5.497
  463SOL    HW1 1949   0.386   0.313   5.538
  463SOL    HW2 1950   0.242   0.269   5.554
  464SOL     OW 1951   1.453   1.423   4.671
  464SOL    HW1 1952   1.388   1.433   4.740
  464SOL    HW2 1953   1.447   1.330   4.646
  465SOL     OW 1954   1.663   1.733   4.303
  465SOL    HW1 1955   1.637   1.703   4.215
  465SOL    HW2 1956   1.642   1.659   4.360
  466SOL     OW 1957   0.596   0.723   3.988
  466SOL    HW1 1958   0.602   0.803   3.936
  466SOL    HW2 1959   0.530   0.743   4.055
  467SOL     OW 1960   1.290   0.358   4.659
  467SOL    HW1 1961   1.201   0.326   4.643
  467SOL    HW2 1962   1.327   0.295   4.721
  468SOL     OW 1963   1.581   1.669   4.033
  468SOL    HW1 1964   1.670   1.703   4.027
  468SOL    HW2 1965   1.556   1.651   3.943
  469SOL     OW 1966   0.797   0.617   5.178
  469SOL    HW1 1967   0.769   0.594   5.267
  469SOL    HW2 1968   0.752   0.554   5.122
  470SOL     OW 1969   1.389   0.478   5.400
  470SOL    HW1 1970   1.391   0.521   5.485
  470SOL    HW2 1971   1.456   0.410   5.407
  471SOL     OW 1972   0.958   0.889   5.305
  471SOL    HW1 1973   1.012   0.817   5.271
  471SOL    HW2 1974   0.911   0.922   5.228
  472SOL     OW 1975   0.996   0.417   4.962
  472SOL    HW1 1976   0.911   0.430   5.004
  472SOL    HW2 1977   0.976   0.365   4.884
  473SOL     OW 1978   1.049   0.698   4.152
  473SOL    HW1 1979   1.064   0.691   4.246
  473SOL    HW2 1980   0.967   0.651   4.137
  474SOL     OW 1981   0.099   0.823   4.507
  474SOL    HW1 1982   0.185   0.804   4.544
  474SOL    HW2 1983   0.053   0.870   4.576
  475SOL     OW 1984   0.125   1.853   5.300
  475SOL    HW1 1985   0.119   1.829   5.392
  475SOL    HW2 1986   0.045   1.818   5.261
  476SOL     OW 1987   0.853   0.367   3.901
  476SOL    HW1 1988   0.929   0.404   3.856
  476SOL    HW2 1989   0.872   0.274   3.908
  477SOL     OW 1990   1.706   0.575   5.552
  477SOL    HW1 1991   1.672   0.653   5.507
  477SOL    HW2 1992   1.739   0.520   5.482
  478SOL     OW 1993   1.374   1.142   4.265
  478SOL    HW1 1994   1.454   1.129   4.214
  478SOL    HW2 1995   1.323   1.205   4.215
  479SOL     OW 1996   0.544   0.201   4.625
  479SOL    HW1 1997   0.562   0.221   4.717
  479SOL    HW2 1998   0.534   0.287   4.584
  480SOL     OW 1999   1.009   1.446   4.198
  480SOL    HW1 2000   0.968   1.517   4.149
  480SOL    HW2 2001   0.994   1.469   4.290
  481SOL     OW 2002   0.355   1.807   4.580
  481SOL    HW1 2003   0.398   1.722   4.590
  481SOL    HW2 2004   0.424   1.871   4.593
  482SOL     OW 2005   1.798   1.058   4.588
  482SOL    HW1 2006   1.737   1.044   4.515
  482SOL    HW2 2007   1.742   1.066   4.665
  483SOL     OW 2008   1.229   1.540   5.232
  483SOL    HW1 2009   1.216   1.469   5.295
  483SOL    HW2 2010   1.163   1.524   5.164
  484SOL     OW 2011   0.318   0.954   3.973
  484SOL    HW1 2012   0.402   0.976   3.934
  484SOL    HW2 2013   0.300   0.865   3.943
  485SOL     OW 2014   1.476   0.739   4.450
  485SOL    HW1 2015   1.463   0.693   4.533
  485SOL    HW2 2016   1.552   0.795   4.465
  486SOL     OW 2017   0.466   1.261   5.459
  486SOL    HW1 2018   0.437   1.267   5.368
  486SOL    HW2 2019   0.385   1.266   5.510
  487SOL     OW 2020   1.121   1.777   3.956
  487SOL    HW1 2021   1.049   1.734   4.003
  487SOL    HW2 2022   1.142   1.718   3.884
  488SOL     OW 2023   0.167   0.262   5.232
  488SOL    HW1 2024   0.135   0.349   5.206
  488SOL    HW2 2025   0.199   0.274   5.322
  489SOL     OW 2026   1.629   1.379   3.811
  489SOL    HW1 2027   1.588   1.464   3.795
  489SOL    HW2 2028   1.560   1.315   3.792
  490SOL     OW 2029   0.469   1.744   4.038
  490SOL    HW1 2030   0.508   1.796   4.109
  490SOL    HW2 2031   0.544   1.713   3.987
  491SOL     OW 2032   1.416   0.131   4.143
  491SOL    HW1 2033   1.399   0.085   4.061
  491SOL    HW2 2034   1.511   0.130   4.151
  492SOL     OW 2035   0.257   1.791   4.960
  492SOL    HW1 2036   0.306   1.718   4.999
  492SOL    HW2 2037   0.229   1.758   4.875
  493SOL     OW 2038   0.939   1.698   4.624
  493SOL    HW1 2039   1.016   1.645   4.643
  493SOL    HW2 2040   0.892   1.650   4.556
  494SOL     OW 2041   0.392   0.694   4.198
  494SOL    HW1 2042   0.418   0.603   4.209
  494SOL    HW2 2043   0.300   0.696   4.225
  495SOL     OW 2044   1.527   0.232   5.446
  495SOL    HW1 2045   1.525   0.257   5.539
  495SOL    HW2 2046   1.452   0.174   5.435
  496SOL     OW 2047   0.621   0.123   3.840
  496SOL    HW1 2048   0.710   0.088   3.853
  496SOL    HW2 2049   0.593   0.087   3.757
  497SOL     OW 2050   0.769   0.269   5.476
  497SOL    HW1 2051   0.835   0.201   5.493
  497SOL    HW2 2052   0.724   0.279   5.560
  498SOL     OW 2053   0.877   1.521   4.917
  498SOL    HW1 2054   0.862   1.486   4.830
  498SOL    HW2 2055   0.946   1.466   4.954
  499SOL     OW 2056   1.342   0.589   5.154
  499SOL    HW1 2057   1.370   0.559   5.240
  499SOL    HW2 2058   1.377   0.678   5.147
  500SOL     OW 2059   0.813   1.398   4.660
  500SOL    HW1 2060   0.897   1.388   4.614
  500SOL    HW2 2061   0.747   1.396   4.590
  501SOL     OW 2062   0.922   0.515   4.626
  501SOL    HW1 2063   0.905   0.513   4.532
  501SOL    HW2 2064   0.963   0.430   4.645
  502SOL     OW 2065   0.558   0.067   4.233
  502SOL    HW1 2066   0.470   0.054   4.269
  502SOL    HW2 2067   0.548   0.140   4.172
  503SOL     OW 2068   1.429   1.197   3.765
  503SOL    HW1 2069   1.459   1.122   3.815
  503SOL    HW2 2070   1.343   1.217   3.802
  504SOL     OW 2071   0.303   0.076   3.908
  504SOL    HW1 2072   0.386   0.123   3.903
  504SOL    HW2 2073   0.321   4.500   3.962
  505SOL     OW 2074   0.950   0.241   4.197
  505SOL    HW1 2075   0.898   0.288   4.132
  505SOL    HW2 2076   1.038   0.275   4.187
  506SOL     OW 2077   1.080   0.679   5.185
  506SOL    HW1 2078   1.008   0.616   5.187
  506SOL    HW2 2079   1.159   0.626   5.173
  507SOL     OW 2080   1.223   1.571   4.519
  507SOL    HW1 2081   1.242   1.638   4.454
  507SOL    HW2 2082   1.295   1.575   4.581
  508SOL     OW 2083   0.465   1.148   4.462
  508SOL    HW1 2084   0.393   1.129   4.522
  508SOL    HW2 2085   0.428   1.131   4.375
  509SOL     OW 2086   1.272   1.796   4.330
  509SOL    HW1 2087   1.314   1.857   4.270
  509SOL    HW2 2088   1.206   1.848   4.376
  510SOL     OW 2089   1.031   0.549   3.739
  510SOL    HW1 2090   0.983   0.631   3.723
  510SOL    HW2 2091   1.089   0.569   3.811
  511SOL     OW 2092   0.091   0.525   5.135
  511SOL    HW1 2093   0.152   0.535   5.063
  511SOL    HW2 2094   0.062   0.614   5.156
  512SOL     OW 2095   0.564   0.242   4.889
  512SOL    HW1 2096   0.594   0.157   4.921
  512SOL    HW2 2097   0.470   0.243   4.909
  513SOL     OW 2098   0.866   0.500   4.350
  513SOL    HW1 2099   0.815   0.543   4.281
  513SOL    HW2 2100   0.851   0.407   4.338
  514SOL     OW 2101   0.971   0.032   4.499
  514SOL    HW1 2102   0.922   0.027   4.417
  514SOL    HW2 2103   0.980   4.440   4.526
  515SOL     OW 2104   1.436   1.163   4.583
  515SOL    HW1 2105   1.369   1.095   4.579
  515SOL    HW2 2106   1.461   1.179   4.492
  516SOL     OW 2107   1.468   0.602   4.703
  516SOL    HW1 2108   1.417   0.521   4.707
  516SOL    HW2 2109   1.527   0.597   4.779
  517SOL     OW 2110   1.848   0.819   4.105
  517SOL    HW1 2111   1.903   0.767   4.163
  517SOL    HW2 2112   1.818   0.758   4.038
  518SOL     OW 2113   0.492   1.413   3.886
  518SOL    HW1 2114   0.416   1.384   3.936
  518SOL    HW2 2115   0.471   1.394   3.795
  519SOL     OW 2116   1.669   1.268   4.373
  519SOL    HW1 2117   1.763   1.272   4.388
  519SOL    HW2 2118   1.636   1.355   4.396
  520SOL     OW 2119   1.394   0.570   3.794
  520SOL    HW1 2120   1.333   0.554   3.866
  520SOL    HW2 2121   1.480   0.549   3.829
  521SOL     OW 2122   0.523   0.264   4.047
  521SOL    HW1 2123   0.568   0.213   3.979
  521SOL    HW2 2124   0.509   0.350   4.006
  522SOL     OW 2125   1.752   1.232   5.303
  522SOL    HW1 2126   1.840   1.194   5.301
  522SOL    HW2 2127   1.765   1.321   5.335
  523SOL     OW 2128   1.060   1.354   5.061
  523SOL    HW1 2129   0.985   1.322   5.111
  523SOL    HW2 2130   1.136   1.312   5.101
  524SOL     OW 2131   1.602   1.633   5.369
  524SOL    HW1 2132   1.609   1.671   5.281
  524SOL    HW2 2133   1.682   1.581   5.379
  525SOL     OW 2134   1.127   1.204   4.831
  525SOL    HW1 2135   1.065   1.239   4.896
  525SOL    HW2 2136   1.091   1.231   4.747
  526SOL     OW 2137   1.631   1.097   4.803
  526SOL    HW1 2138   1.625   1.159   4.876
  526SOL    HW2 2139   1.552   1.115   4.750
  527SOL     OW 2140   0.904   0.130   5.114
  527SOL    HW1 2141   0.927   0.086   5.032
  527SOL    HW2 2142   0.988   0.143   5.158
  528SOL     OW 2143   0.984   1.115   5.446
  528SOL    HW1 2144   0.892   1.129   5.466
  528SOL    HW2 2145   0.984   1.037   5.390
  529SOL     OW 2146   0.708   1.060   4.097
  529SOL    HW1 2147   0.696   1.046   4.191
  529SOL    HW2 2148   0.784   1.007   4.074
  530SOL     OW 2149   0.429   0.822   4.962
  530SOL    HW1 2150   0.497   0.834   5.029
  530SOL    HW2 2151   0.369   0.757   5.000
  531SOL     OW 2152   1.270   0.377   4.996
  531SOL    HW1 2153   1.301   0.455   5.041
  531SOL    HW2 2154   1.181   0.399   4.967
  532SOL     OW 2155   0.061   1.575   5.063
  532SOL    HW1 2156   0.033   1.663   5.038
  532SOL    HW2 2157   0.156   1.582   5.070
  533SOL     OW 2158   0.351   1.106   4.218
  533SOL    HW1 2159   0.359   1.180   4.157
  533SOL    HW2 2160   0.354   1.029   4.162
  534SOL     OW 2161   0.564   0.530   4.579
  534SOL    HW1 2162   0.577   0.590   4.506
  534SOL    HW2 2163   0.622   0.563   4.648
  535SOL     OW 2164   1.248   1.347   4.113
  535SOL    HW1 2165   1.303   1.420   4.143
  535SOL    HW2 2166   1.160   1.368   4.147
  536SOL     OW 2167   1.276   1.453   4.873
  536SOL    HW1 2168   1.327   1.448   4.954
  536SOL    HW2 2169   1.219   1.377   4.877
  537SOL     OW 2170   1.583   0.625   4.199
  537SOL    HW1 2171   1.539   0.679   4.265
  537SOL    HW2 2172   1.629   0.688   4.143
  538SOL     OW 2173   0.348   1.528   5.042
  538SOL    HW1 2174   0.333   1.482   4.960
  538SOL    HW2 2175   0.443   1.539   5.046
  539SOL     OW 2176   0.477   0.760   5.387
  539SOL    HW1 2177   0.502   0.800   5.304
  539SOL    HW2 2178   0.508   0.670   5.381
  540SOL     OW 2179   1.597   0.777   5.403
  540SOL    HW1 2180   1.511   0.818   5.395
  540SOL    HW2 2181   1.650   0.819   5.335
  541SOL     OW 2182   1.007   0.087   5.451
  541SOL    HW1 2183   1.029   0.171   5.411
  541SOL    HW2 2184   1.033   0.022   5.386
  542SOL     OW 2185   0.496   0.046   5.473
  542SOL    HW1 2186   0.478   4.497   5.393
  542SOL    HW2 2187   0.429   0.114   5.476
  543SOL     OW 2188   0.588   0.873   4.748
  543SOL    HW1 2189   0.616   0.965   4.750
  543SOL    HW2 2190   0.531   0.864   4.824
  544SOL     OW 2191   1.360   0.858   4.758
  544SOL    HW1 2192   1.280   0.852   4.707
  544SOL    HW2 2193   1.398   0.771   4.754
  545SOL     OW 2194   1.207   0.534   3.991
  545SOL    HW1 2195   1.212   0.454   4.042
  545SOL    HW2 2196   1.165   0.597   4.049
  546SOL     OW 2197   0.285   0.220   4.958
  546SOL    HW1 2198   0.250   0.237   5.046
  546SOL    HW2 2199   0.320   0.131   4.963
  547SOL     OW 2200   0.048   1.313   5.008
  547SOL    HW1 2201   0.078   1.266   5.086
  547SOL    HW2 2202   0.049   1.405   5.033
  548SOL     OW 2203   0.726   0.632   4.785
  548SOL    HW1 2204   0.798   0.611   4.726
  548SOL    HW2 2205   0.700   0.721   4.760
  549SOL     OW 2206   1.733   0.959   5.574
  549SOL    HW1 2207   1.684   0.903   5.513
  549SOL    HW2 2208   1.674   0.971   5.648
  550SOL     OW 2209   0.318   0.076   4.355
  550SOL    HW1 2210   0.300   0.164   4.389
  550SOL    HW2 2211   0.305   0.018   4.431
  551SOL     OW 2212   1.610   0.374   4.091
  551SOL    HW1 2213   1.642   0.312   4.156
  551SOL    HW2 2214   1.589   0.453   4.141
  552SOL     OW 2215   1.027   0.761   4.686
  552SOL    HW1 2216   1.027   0.777   4.781
  552SOL    HW2 2217   0.999   0.670   4.678
  553SOL     OW 2218   0.984   1.567   5.438
  553SOL    HW1 2219   0.967   1.611   5.354
  553SOL    HW2 2220   1.024   1.484   5.414
  554SOL     OW 2221   1.852   1.515   5.331
  554SOL    HW1 2222   1.885   1.541   5.245
  554SOL    HW2 2223   1.928   1.520   5.389
  555SOL     OW 2224   0.347   0.930   5.542
  555SOL    HW1 2225   0.422   0.958   5.596
  555SOL    HW2 2226   0.384   0.864   5.483
  556SOL     OW 2227   1.532   0.267   3.852
  556SOL    HW1 2228   1.460   0.211   3.879
  556SOL    HW2 2229   1.560   0.312   3.932
  557SOL     OW 2230   1.294   0.827   3.757
  557SOL    HW1 2231   1.336   0.741   3.759
  557SOL    HW2 2232   1.325   0.866   3.675
  558SOL     OW 2233   1.065   1.334   4.577
  558SOL    HW1 2234   1.068   1.262   4.515
  558SOL    HW2 2235   1.127   1.398   4.542
  559SOL     OW 2236   0.317   0.813   4.674
  559SOL    HW1 2237   0.411   0.831   4.669
  559SOL    HW2 2238   0.311   0.723   4.705
  560SOL     OW 2239   0.337   0.527   4.718
  560SOL    HW1 2240   0.292   0.445   4.698
  560SOL    HW2 2241   0.414   0.527   4.661
  561SOL     OW 2242   1.135   0.375   5.416
  561SOL    HW1 2243   1.088   0.440   5.469
  561SOL    HW2 2244   1.222   0.414   5.403
  562SOL     OW 2245   1.160   0.211   5.198
  562SOL    HW1 2246   1.152   0.275   5.268
  562SOL    HW2 2247   1.195   0.261   5.124
  563SOL     OW 2248   4.492   1.323   3.925
  563SOL    HW1 2249   4.399   1.338   3.908
  563SOL    HW2 2250   4.498   1.231   3.949
  564SOL     OW 2251   0.095   1.782   4.663
  564SOL    HW1 2252   0.057   1.721   4.600
  564SOL    HW2 2253   0.182   1.801   4.629
  565SOL     OW 2254   0.499   1.573   4.630
  565SOL    HW1 2255   0.567   1.636   4.654
  565SOL    HW2 2256   0.544   1.508   4.576
  566SOL     OW 2257   0.988   0.795   4.953
  566SOL    HW1 2258   1.041   0.769   5.029
  566SOL    HW2 2259   0.902   0.758   4.969
  567SOL     OW 2260   0.040   0.566   4.834
  567SOL    HW1 2261   0.115   0.521   4.795
  567SOL    HW2 2262   0.025   0.519   4.917
  568SOL     OW 2263   0.180   0.518   5.434
  568SOL    HW1 2264   0.266   0.501   5.394
  568SOL    HW2 2265   0.150   0.599   5.393
  569SOL     OW 2266   1.376   0.941   5.383
  569SOL    HW1 2267   1.396   1.035   5.384
  569SOL    HW2 2268   1.374   0.918   5.291
  570SOL     OW 2269   0.812   0.572   4.076
  570SOL    HW1 2270   0.814   0.500   4.013
  570SOL    HW2 2271   0.738   0.626   4.049
  571SOL     OW 2272   1.642   0.601   4.914
  571SOL    HW1 2273   1.631   0.541   4.987
  571SOL    HW2 2274   1.729   0.580   4.879
  572SOL     OW 2275   0.272   1.562   5.466
  572SOL    HW1 2276   0.217   1.614   5.525
  572SOL    HW2 2277   0.250   1.471   5.488
  573SOL     OW 2278   0.682   0.464   4.992
  573SOL    HW1 2279   0.646   0.383   4.955
  573SOL    HW2 2280   0.691   0.522   4.917
  574SOL     OW 2281   0.934   1.679   5.189
  574SOL    HW1 2282   0.904   1.648   5.103
  574SOL    HW2 2283   0.929   1.774   5.182
  575SOL     OW 2284   0.473   0.491   3.910
  575SOL    HW1 2285   0.532   0.564   3.931
  575SOL    HW2 2286   0.388   0.533   3.897
  576SOL     OW 2287   0.162   1.141   5.188
  576SOL    HW1 2288   0.148   1.092   5.269
  576SOL    HW2 2289   0.170   1.073   5.121
  577SOL     OW 2290   1.328   1.049   4.950
  577SOL    HW1 2291   1.353   0.987   4.882
  577SOL    HW2 2292   1.256   1.099   4.911
  578SOL     OW 2293   1.309   0.855   4.031
  578SOL    HW1 2294   1.232   0.827   4.080
  578SOL    HW2 2295   1.285   0.843   3.939
  579SOL     OW 2296   1.241   1.730   4.847
  579SOL    HW1 2297   1.319   1.754   4.796
  579SOL    HW2 2298   1.246   1.635   4.855
  580SOL     OW 2299   0.069   1.189   4.772
  580SOL    HW1 2300   0.074   1.223   4.861
  580SOL    HW2 2301   0.010   1.249   4.726
  581SOL     OW 2302   0.679   1.664   5.449
  581SOL    HW1 2303   0.625   1.743   5.447
  581SOL    HW2 2304   0.739   1.674   5.375
  582SOL     OW 2305   1.718   0.130   4.222
  582SOL    HW1 2306   1.792   0.135   4.162
  582SOL    HW2 2307   1.738   0.055   4.278
  583SOL     OW 2308   1.386   1.568   4.204
  583SOL    HW1 2309   1.449   1.599   4.139
  583SOL    HW2 2310   1.341   1.647   4.233
  584SOL     OW 2311   0.121   1.808   5.571
  584SOL    HW1 2312   0.082   1.734   5.618
  584SOL    HW2 2313   0.184   1.844   5.633
  585SOL     OW 2314   1.278   0.926   4.396
  585SOL    HW1 2315   1.351   0.863   4.399
  585SOL    HW2 2316   1.311   0.998   4.344
  586SOL     OW 2317   0.818   1.272   5.155
  586SOL    HW1 2318   0.792   1.311   5.239
  586SOL    HW2 2319   0.747   1.294   5.095
  587SOL     OW 2320   0.673   1.616   3.879
  587SOL    HW1 2321   0.681   1.627   3.784
  587SOL    HW2 2322   0.619   1.538   3.890
  588SOL     OW 2323   1.839   0.156   4.691
  588SOL    HW1 2324   1.868   0.080   4.640
  588SOL    HW2 2325   1.752   0.176   4.656
  589SOL     OW 2326   0.267   0.326   4.449
  589SOL    HW1 2327   0.185   0.361   4.414
  589SOL    HW2 2328   0.251   0.317   4.543
  590SOL     OW 2329   1.205   1.608   3.755
  590SOL    HW1 2330   1.198   1.517   3.783
  590SOL    HW2 2331   1.141   1.618   3.685
  591SOL     OW 2332   0.825   1.006   5.096
  591SOL    HW1 2333   0.867   1.003   5.010
  591SOL    HW2 2334   0.825   1.099   5.120
  592SOL     OW 2335   0.915   0.910   4.013
  592SOL    HW1 2336   0.977   0.942   3.948
  592SOL    HW2 2337   0.961   0.839   4.058
  593SOL     OW 2338   1.495   1.624   3.766
  593SOL    HW1 2339   1.400   1.621   3.755
  593SOL    HW2 2340   1.530   1.630   3.677
  594SOL     OW 2341   0.373   1.305   5.215
  594SOL    HW1 2342   0.356   1.384   5.163
  594SOL    HW2 2343   0.297   1.249   5.199
  595SOL     OW 2344   1.605   1.273   5.019
  595SOL    HW1 2345   1.673   1.270   5.087
  595SOL    HW2 2346   1.550   1.348   5.043
  596SOL     OW 2347   1.048   1.105   4.429
  596SOL    HW1 2348   0.978   1.054   4.469
  596SOL    HW2 2349   1.109   1.040   4.395
  597SOL     OW 2350   1.007   0.241   4.721
  597SOL    HW1 2351   1.014   0.212   4.630
  597SOL    HW2 2352   1.001   0.160   4.771
  598SOL     OW 2353   0.603   1.489   4.207
  598SOL    HW1 2354   0.641   1.439   4.136
  598SOL    HW2 2355   0.532   1.540   4.166
  599SOL     OW 2356   1.719   0.393   5.102
  599SOL    HW1 2357   1.791   0.456   5.101
  599SOL    HW2 2358   1.749   0.321   5.046
  600SOL     OW 2359   0.252   1.345   4.002
  600SOL    HW1 2360   0.157   1.346   3.987
  600SOL    HW2 2361   0.263   1.378   4.091
  601SOL     OW 2362   0.117   1.007   5.421
  601SOL    HW1 2363   0.052   1.046   5.479
  601SOL    HW2 2364   0.194   0.996   5.475
  602SOL     OW 2365   0.659   0.207   5.220
  602SOL    HW1 2366   0.739   0.181   5.174
  602SOL    HW2 2367   0.687   0.222   5.310
  603SOL     OW 2368   0.070   0.321   3.750
  603SOL    HW1 2369   4.475   0.330   3.760
  603SOL    HW2 2370   0.099   0.407   3.719
  604SOL     OW 2371   1.432   0.858   5.126
  604SOL    HW1 2372   1.383   0.918   5.068
  604SOL    HW2 2373   1.522   0.862   5.092
  605SOL     OW 2374   0.083   0.188   4.027
  605SOL    HW1 2375   0.080   0.260   3.964
  605SOL    HW2 2376   0.161   0.138   4.003
  606SOL     OW 2377   1.180   1.342   3.841
  606SOL    HW1 2378   1.089   1.312   3.844
  606SOL    HW2 2379   1.209   1.341   3.932
  607SOL     OW 2380   0.620   0.831   5.152
  607SOL    HW1 2381   0.675   0.909   5.140
  607SOL    HW2 2382   0.683   0.759   5.162
  608SOL     OW 2383   1.480   1.768   4.696
  608SOL    HW1 2384   1.500   1.824   4.621
  608SOL    HW2 2385   1.566   1.753   4.738
  609SOL     OW 2386   0.715   0.561   5.429
  609SOL    HW1 2387   0.746   0.629   5.490
  609SOL    HW2 2388   0.756   0.481   5.461
  610SOL     OW 2389   1.467   1.204   5.358
  610SOL    HW1 2390   1.456   1.216   5.452
  610SOL    HW2 2391   1.561   1.213   5.343
  611SOL     OW 2392   0.382   1.742   5.287
  611SOL    HW1 2393   0.297   1.782   5.272
  611SOL    HW2 2394   0.363   1.661   5.334
  612SOL     OW 2395   1.672   0.882   4.979
  612SOL    HW1 2396   1.662   0.797   4.936
  612SOL    HW2 2397   1.663   0.946   4.909
  613SOL     OW 2398   1.218   0.327   4.172
  613SOL    HW1 2399   1.283   0.258   4.163
  613SOL    HW2 2400   1.245   0.375   4.251
  614SOL     OW 2401   0.588   0.740   4.392
  614SOL    HW1 2402   0.630   0.825   4.375
  614SOL    HW2 2403   0.519   0.733   4.327
  615SOL     OW 2404   1.766   0.360   5.367
  615SOL    HW1 2405   1.750   0.375   5.274
  615SOL    HW2 2406   1.686   0.317   5.399
  616SOL     OW 2407   1.743   0.933   5.236
  616SOL    HW1 2408   1.745   1.028   5.249
  616SOL    HW2 2409   1.728   0.922   5.142
  617SOL     OW 2410   0.863   1.368   3.754
  617SOL    HW1 2411   0.823   1.394   3.837
  617SOL    HW2 2412   0.882   1.451   3.710
  618SOL     OW 2413   0.659   1.794   4.673
  618SOL    HW1 2414   0.637   1.884   4.647
  618SOL    HW2 2415   0.754   1.789   4.664
  619SOL     OW 2416   0.866   0.965   4.580
  619SOL    HW1 2417   0.916   0.894   4.620
  619SOL    HW2 2418   0.833   1.016   4.654
  620SOL     OW 2419   1.080   0.988   3.813
  620SOL    HW1 2420   1.058   1.038   3.734
  620SOL    HW2 2421   1.155   0.935   3.787
  621SOL     OW 2422   0.228   1.307   5.580
  621SOL    HW1 2423   0.159   1.246   5.555
  621SOL    HW2 2424   0.218   1.317   5.675
  622SOL     OW 2425   0.102   1.240   4.390
  622SOL    HW1 2426   0.105   1.188   4.471
  622SOL    HW2 2427   0.163   1.195   4.331
  623SOL     OW 2428   0.681   1.400   5.350
  623SOL    HW1 2429   0.600   1.356   5.378
  623SOL    HW2 2430   0.674   1.488   5.387
  624SOL     OW 2431   1.811   0.184   4.963
  624SOL    HW1 2432   1.810   0.090   4.984
  624SOL    HW2 2433   1.826   0.187   4.868
  625SOL     OW 2434   0.438   0.431   4.253
  625SOL    HW1 2435   0.458   0.360   4.192
  625SOL    HW2 2436   0.381   0.391   4.318
  626SOL     OW 2437   1.702   1.418   4.808
  626SOL    HW1 2438   1.613   1.428   4.774
  626SOL    HW2 2439   1.690   1.375   4.893
  627SOL     OW 2440   0.313   0.504   4.982
  627SOL    HW1 2441   0.385   0.457   5.024
  627SOL    HW2 2442   0.340   0.512   4.890
  628SOL     OW 2443   0.825   1.578   4.404
  628SOL    HW1 2444   0.819   1.623   4.319
  628SOL    HW2 2445   0.746   1.524   4.408
  629SOL     OW 2446   1.432   0.215   4.842
  629SOL    HW1 2447   1.469   0.146   4.896
  629SOL    HW2 2448   1.381   0.268   4.903
  630SOL     OW 2449   0.997   0.013   4.873
  630SOL    HW1 2450   0.951   4.430   4.861
  630SOL    HW2 2451   1.089   4.488   4.885
  631SOL     OW 2452   0.771   1.332   4.034
  631SOL    HW1 2453   0.738   1.243   4.041
  631SOL    HW2 2454   0.854   1.330   4.083
  632SOL     OW 2455   0.621   1.558   5.008
  632SOL    HW1 2456   0.624   1.639   5.059
  632SOL    HW2 2457   0.708   1.552   4.969
  633SOL     OW 2458   1.342   0.054   3.876
  633SOL    HW1 2459   1.382   4.480   3.831
  633SOL    HW2 2460   1.267   0.017   3.922
  634SOL     OW 2461   1.314   0.462   4.404
  634SOL    HW1 2462   1.252   0.535   4.405
  634SOL    HW2 2463   1.302   0.419   4.489
  635SOL     OW 2464   1.586   0.203   4.592
  635SOL    HW1 2465   1.524   0.217   4.664
  635SOL    HW2 2466   1.589   0.287   4.546
  636SOL     OW 2467   0.041   1.054   4.010
  636SOL    HW1 2468   0.136   1.043   4.004
  636SOL    HW2 2469   0.018   1.013   4.094
  637SOL     OW 2470   0.881   1.649   4.069
  637SOL    HW1 2471   0.810   1.631   4.007
  637SOL    HW2 2472   0.851   1.726   4.118
  638SOL     OW 2473   0.247   0.625   5.705
  638SOL    HW1 2474   0.171   0.612   5.761
  638SOL    HW2 2475   0.215   0.609   5.616
  639SOL     OW 2476   0.197   0.292   6.575
  639SOL    HW1 2477   0.234   0.269   6.661
  639SOL    HW2 2478   0.132   0.224   6.558
  640SOL     OW 2479   0.007   0.377   6.229
  640SOL    HW1 2480   4.427   0.414   6.267
  640SOL    HW2 2481   4.475   0.306   6.173
  641SOL     OW 2482   0.567   1.282   6.758
  641SOL    HW1 2483   0.479   1.287   6.720
  641SOL    HW2 2484   0.582   1.369   6.794
  642SOL     OW 2485   1.551   1.500   6.297
  642SOL    HW1 2486   1.509   1.486   6.381
  642SOL    HW2 2487   1.479   1.510   6.235
  643SOL     OW 2488   1.131   0.700   6.288
  643SOL    HW1 2489   1.180   0.781   6.276
  643SOL    HW2 2490   1.083   0.712   6.369
  644SOL     OW 2491   1.764   0.609   5.815
  644SOL    HW1 2492   1.745   0.597   5.722
  644SOL    HW2 2493   1.733   0.528   5.856
  645SOL     OW 2494   0.759   1.144   6.624
  645SOL    HW1 2495   0.689   1.178   6.679
  645SOL    HW2 2496   0.793   1.222   6.579
  646SOL     OW 2497   0.862   0.780   7.407
  646SOL    HW1 2498   0.849   0.851   7.469
  646SOL    HW2 2499   0.885   0.823   7.325
  647SOL     OW 2500   0.686   1.008   6.235
  647SOL    HW1 2501   0.750   0.992   6.305
  647SOL    HW2 2502   0.616   1.056   6.278
  648SOL     OW 2503   0.708   1.151   7.395
  648SOL    HW1 2504   0.755   1.231   7.419
  648SOL    HW2 2505   0.624   1.183   7.361
  649SOL     OW 2506   0.337   1.424   6.656
  649SOL    HW1 2507   0.255   1.404   6.609
  649SOL    HW2 2508   0.387   1.478   6.595
  650SOL     OW 2509   1.462   1.499   6.936
  650SOL    HW1 2510   1.506   1.583   6.946
  650SOL    HW2 2511   1.408   1.490   7.014
  651SOL     OW 2512   0.436   0.396   7.080
  651SOL    HW1 2513   0.524   0.359   7.082
  651SOL    HW2 2514   0.378   0.321   7.094
  652SOL     OW 2515   1.613   0.448   6.324
  652SOL    HW1 2516   1.532   0.472   6.277
  652SOL    HW2 2517   1.634   0.525   6.376
  653SOL     OW 2518   0.245   1.692   6.065
  653SOL    HW1 2519   0.233   1.776   6.109
  653SOL    HW2 2520   0.307   1.710   5.995
  654SOL     OW 2521   1.136   1.341   7.277
  654SOL    HW1 2522   1.175   1.338   7.364
  654SOL    HW2 2523   1.083   1.261   7.272
  655SOL     OW 2524   0.244   1.428   6.114
  655SOL    HW1 2525   0.236   1.523   6.119
  655SOL    HW2 2526   0.179   1.395   6.177
  656SOL     OW 2527   0.244   1.081   6.468
  656SOL    HW1 2528   0.263   0.994   6.503
  656SOL    HW2 2529   0.188   1.122   6.534
  657SOL     OW 2530   0.616   1.790   7.019
  657SOL    HW1 2531   0.533   1.773   7.061
  657SOL    HW2 2532   0.637   1.881   7.042
  658SOL     OW 2533   0.584   0.983   5.721
  658SOL    HW1 2534   0.629   1.031   5.651
  658SOL    HW2 2535   0.630   1.010   5.801
  659SOL     OW 2536   1.585   0.114   7.060
  659SOL    HW1 2537   1.596   0.183   6.994
  659SOL    HW2 2538   1.575   0.162   7.143
  660SOL     OW 2539   0.136   0.642   6.161
  660SOL    HW1 2540   0.082   0.564   6.174
  660SOL    HW2 2541   0.107   0.703   6.229
  661SOL     OW 2542   0.034   1.601   5.721
  661SOL    HW1 2543   0.021   1.506   5.723
  661SOL    HW2 2544   0.010   1.630   5.810
  662SOL     OW 2545   1.691   0.920   6.223
  662SOL    HW1 2546   1.775   0.880   6.204
  662SOL    HW2 2547   1.669   0.969   6.144
  663SOL     OW 2548   1.645   1.108   6.015
  663SOL    HW1 2549   1.730   1.115   5.972
  663SOL    HW2 2550   1.651   1.168   6.089
  664SOL     OW 2551   0.107   0.760   7.175
  664SOL    HW1 2552   0.201   0.760   7.159
  664SOL    HW2 2553   0.084   0.853   7.180
  665SOL     OW 2554   0.613   1.382   6.322
  665SOL    HW1 2555   0.566   1.299   6.330
  665SOL    HW2 2556   0.596   1.409   6.231
  666SOL     OW 2557   1.290   1.239   7.010
  666SOL    HW1 2558   1.323   1.171   6.951
  666SOL    HW2 2559   1.346   1.231   7.088
  667SOL     OW 2560   0.817   0.011   6.132
  667SOL    HW1 2561   0.850   0.098   6.109
  667SOL    HW2 2562   0.722   0.018   6.122
  668SOL     OW 2563   0.183   0.944   6.865
  668SOL    HW1 2564   0.274   0.927   6.842
  668SOL    HW2 2565   0.133   0.920   6.787
  669SOL     OW 2566   1.532   0.991   5.782
  669SOL    HW1 2567   1.462   0.934   5.813
  669SOL    HW2 2568   1.572   1.025   5.862
  670SOL     OW 2569   1.185   1.804   7.206
  670SOL    HW1 2570   1.200   1.861   7.131
  670SOL    HW2 2571   1.200   1.715   7.172
  671SOL     OW 2572   0.318   0.260   7.359
  671SOL    HW1 2573   0.386   0.313   7.400
  671SOL    HW2 2574   0.242   0.269   7.417
  672SOL     OW 2575   1.464   1.418   6.542
  672SOL    HW1 2576   1.396   1.433   6.607
  672SOL    HW2 2577   1.453   1.327   6.514
  673SOL     OW 2578   1.649   1.706   6.164
  673SOL    HW1 2579   1.617   1.676   6.079
  673SOL    HW2 2580   1.623   1.636   6.225
  674SOL     OW 2581   0.596   0.723   5.850
  674SOL    HW1 2582   0.601   0.803   5.798
  674SOL    HW2 2583   0.530   0.743   5.917
  675SOL     OW 2584   1.290   0.358   6.521
  675SOL    HW1 2585   1.201   0.326   6.505
  675SOL    HW2 2586   1.327   0.295   6.583
  676SOL     OW 2587   0.797   0.616   7.040
  676SOL    HW1 2588   0.769   0.594   7.129
  676SOL    HW2 2589   0.752   0.554   6.984
  677SOL     OW 2590   1.389   0.478   7.262
  677SOL    HW1 2591   1.391   0.521   7.347
  677SOL    HW2 2592   1.456   0.410   7.269
  678SOL     OW 2593   0.958   0.889   7.167
  678SOL    HW1 2594   1.012   0.817   7.133
  678SOL    HW2 2595   0.911   0.922   7.090
  679SOL     OW 2596   0.996   0.417   6.824
  679SOL    HW1 2597   0.911   0.430   6.866
  679SOL    HW2 2598   0.976   0.365   6.746
  680SOL     OW 2599   1.049   0.698   6.014
  680SOL    HW1 2600   1.064   0.691   6.108
  680SOL    HW2 2601   0.967   0.651   5.999
  681SOL     OW 2602   0.099   0.823   6.369
  681SOL    HW1 2603   0.185   0.803   6.406
  681SOL    HW2 2604   0.053   0.870   6.438
  682SOL     OW 2605   0.125   1.853   7.162
  682SOL    HW1 2606   0.119   1.829   7.254
  682SOL    HW2 2607   0.045   1.818   7.123
  683SOL     OW 2608   0.853   0.367   5.763
  683SOL    HW1 2609   0.929   0.404   5.718
  683SOL    HW2 2610   0.872   0.274   5.770
  684SOL     OW 2611   1.706   0.576   7.414
  684SOL    HW1 2612   1.672   0.653   7.369
  684SOL    HW2 2613   1.739   0.520   7.344
  685SOL     OW 2614   1.375   1.143   6.128
  685SOL    HW1 2615   1.454   1.128   6.075
  685SOL    HW2 2616   1.323   1.203   6.076
  686SOL     OW 2617   0.544   0.202   6.487
  686SOL    HW1 2618   0.562   0.221   6.579
  686SOL    HW2 2619   0.534   0.287   6.446
  687SOL     OW 2620   1.010   1.447   6.060
  687SOL    HW1 2621   0.968   1.518   6.011
  687SOL    HW2 2622   0.992   1.468   6.152
  688SOL     OW 2623   0.354   1.807   6.442
  688SOL    HW1 2624   0.398   1.723   6.453
  688SOL    HW2 2625   0.424   1.872   6.455
  689SOL     OW 2626   1.798   1.060   6.452
  689SOL    HW1 2627   1.741   1.043   6.377
  689SOL    HW2 2628   1.738   1.065   6.527
  690SOL     OW 2629   1.228   1.540   7.098
  690SOL    HW1 2630   1.214   1.467   7.158
  690SOL    HW2 2631   1.167   1.523   7.026
  691SOL     OW 2632   0.318   0.954   5.835
  691SOL    HW1 2633   0.402   0.976   5.796
  691SOL    HW2 2634   0.299   0.865   5.805
  692SOL     OW 2635   1.476   0.739   6.312
  692SOL    HW1 2636   1.463   0.692   6.394
  692SOL    HW2 2637   1.552   0.795   6.328
  693SOL     OW 2638   0.465   1.261   7.321
  693SOL    HW1 2639   0.437   1.267   7.230
  693SOL    HW2 2640   0.384   1.266   7.372
  694SOL     OW 2641   1.119   1.774   5.819
  694SOL    HW1 2642   1.045   1.732   5.864
  694SOL    HW2 2643   1.138   1.715   5.746
  695SOL     OW 2644   0.167   0.262   7.094
  695SOL    HW1 2645   0.135   0.349   7.068
  695SOL    HW2 2646   0.199   0.274   7.184
  696SOL     OW 2647   1.630   1.381   5.671
  696SOL    HW1 2648   1.587   1.466   5.661
  696SOL    HW2 2649   1.561   1.317   5.654
  697SOL     OW 2650   0.469   1.744   5.900
  697SOL    HW1 2651   0.508   1.796   5.971
  697SOL    HW2 2652   0.544   1.713   5.849
  698SOL     OW 2653   1.416   0.131   6.005
  698SOL    HW1 2654   1.398   0.085   5.923
  698SOL    HW2 2655   1.511   0.130   6.013
  699SOL     OW 2656   0.257   1.791   6.822
  699SOL    HW1 2657   0.306   1.718   6.861
  699SOL    HW2 2658   0.229   1.758   6.737
  700SOL     OW 2659   0.938   1.698   6.486
  700SOL    HW1 2660   1.014   1.644   6.508
  700SOL    HW2 2661   0.892   1.649   6.418
  701SOL     OW 2662   0.392   0.694   6.060
  701SOL    HW1 2663   0.418   0.603   6.071
  701SOL    HW2 2664   0.300   0.696   6.087
  702SOL     OW 2665   1.526   0.232   7.308
  702SOL    HW1 2666   1.525   0.256   7.401
  702SOL    HW2 2667   1.451   0.174   7.297
  703SOL     OW 2668   0.622   0.123   5.702
  703SOL    HW1 2669   0.710   0.088   5.715
  703SOL    HW2 2670   0.593   0.087   5.618
  704SOL     OW 2671   0.769   0.269   7.338
  704SOL    HW1 2672   0.835   0.201   7.355
  704SOL    HW2 2673   0.724   0.279   7.422
  705SOL     OW 2674   0.878   1.521   6.779
  705SOL    HW1 2675   0.862   1.485   6.692
  705SOL    HW2 2676   0.946   1.466   6.816
  706SOL     OW 2677   1.342   0.589   7.016
  706SOL    HW1 2678   1.370   0.559   7.102
  706SOL    HW2 2679   1.376   0.678   7.009
  707SOL     OW 2680   0.813   1.398   6.522
  707SOL    HW1 2681   0.897   1.388   6.476
  707SOL    HW2 2682   0.747   1.395   6.452
  708SOL     OW 2683   0.922   0.515   6.488
  708SOL    HW1 2684   0.905   0.513   6.394
  708SOL    HW2 2685   0.963   0.430   6.507
  709SOL     OW 2686   0.558   0.067   6.095
  709SOL    HW1 2687   0.470   0.054   6.131
  709SOL    HW2 2688   0.548   0.140   6.034
  710SOL     OW 2689   1.429   1.198   5.627
  710SOL    HW1 2690   1.460   1.122   5.677
  710SOL    HW2 2691   1.343   1.217   5.664
  711SOL     OW 2692   0.303   0.076   5.770
  711SOL    HW1 2693   0.386   0.123   5.765
  711SOL    HW2 2694   0.321   4.500   5.824
  712SOL     OW 2695   0.950   0.240   6.059
  712SOL    HW1 2696   0.898   0.288   5.994
  712SOL    HW2 2697   1.038   0.275   6.049
  713SOL     OW 2698   1.080   0.679   7.047
  713SOL    HW1 2699   1.008   0.616   7.049
  713SOL    HW2 2700   1.159   0.626   7.036
  714SOL     OW 2701   1.228   1.567   6.377
  714SOL    HW1 2702   1.243   1.639   6.316
  714SOL    HW2 2703   1.291   1.582   6.447
  715SOL     OW 2704   0.465   1.148   6.324
  715SOL    HW1 2705   0.393   1.129   6.384
  715SOL    HW2 2706   0.428   1.131   6.237
  716SOL     OW 2707   1.272   1.795   6.189
  716SOL    HW1 2708   1.316   1.857   6.131
  716SOL    HW2 2709   1.207   1.847   6.236
  717SOL     OW 2710   1.031   0.549   5.600
  717SOL    HW1 2711   0.983   0.631   5.585
  717SOL    HW2 2712   1.089   0.569   5.674
  718SOL     OW 2713   0.091   0.525   6.997
  718SOL    HW1 2714   0.152   0.535   6.925
  718SOL    HW2 2715   0.062   0.614   7.017
  719SOL     OW 2716   0.564   0.242   6.751
  719SOL    HW1 2717   0.594   0.157   6.783
  719SOL    HW2 2718   0.470   0.243   6.771
  720SOL     OW 2719   0.866   0.500   6.212
  720SOL    HW1 2720   0.814   0.543   6.144
  720SOL    HW2 2721   0.851   0.407   6.200
  721SOL     OW 2722   0.971   0.032   6.361
  721SOL    HW1 2723   0.922   0.027   6.279
  721SOL    HW2 2724   0.980   4.440   6.388
  722SOL     OW 2725   1.435   1.164   6.444
  722SOL    HW1 2726   1.368   1.095   6.443
  722SOL    HW2 2727   1.458   1.177   6.352
  723SOL     OW 2728   1.468   0.602   6.565
  723SOL    HW1 2729   1.417   0.521   6.569
  723SOL    HW2 2730   1.527   0.597   6.640
  724SOL     OW 2731   1.847   0.818   5.968
  724SOL    HW1 2732   1.903   0.766   6.025
  724SOL    HW2 2733   1.818   0.757   5.900
  725SOL     OW 2734   0.493   1.413   5.748
  725SOL    HW1 2735   0.416   1.384   5.798
  725SOL    HW2 2736   0.470   1.394   5.657
  726SOL     OW 2737   1.670   1.264   6.233
  726SOL    HW1 2738   1.765   1.272   6.247
  726SOL    HW2 2739   1.635   1.349   6.258
  727SOL     OW 2740   1.394   0.570   5.656
  727SOL    HW1 2741   1.334   0.554   5.728
  727SOL    HW2 2742   1.480   0.548   5.691
  728SOL     OW 2743   0.523   0.264   5.909
  728SOL    HW1 2744   0.568   0.213   5.841
  728SOL    HW2 2745   0.509   0.350   5.868
  729SOL     OW 2746   1.754   1.235   7.163
  729SOL    HW1 2747   1.842   1.197   7.159
  729SOL    HW2 2748   1.768   1.326   7.192
  730SOL     OW 2749   1.061   1.353   6.921
  730SOL    HW1 2750   0.986   1.322   6.972
  730SOL    HW2 2751   1.137   1.312   6.962
  731SOL     OW 2752   1.605   1.625   7.237
  731SOL    HW1 2753   1.603   1.660   7.148
  731SOL    HW2 2754   1.689   1.579   7.242
  732SOL     OW 2755   1.125   1.201   6.693
  732SOL    HW1 2756   1.067   1.239   6.759
  732SOL    HW2 2757   1.090   1.232   6.609
  733SOL     OW 2758   1.631   1.100   6.664
  733SOL    HW1 2759   1.627   1.162   6.737
  733SOL    HW2 2760   1.551   1.115   6.615
  734SOL     OW 2761   0.904   0.130   6.976
  734SOL    HW1 2762   0.927   0.086   6.894
  734SOL    HW2 2763   0.988   0.143   7.020
  735SOL     OW 2764   0.984   1.114   7.308
  735SOL    HW1 2765   0.891   1.129   7.327
  735SOL    HW2 2766   0.984   1.037   7.252
  736SOL     OW 2767   0.708   1.060   5.959
  736SOL    HW1 2768   0.695   1.046   6.053
  736SOL    HW2 2769   0.784   1.007   5.936
  737SOL     OW 2770   0.429   0.822   6.824
  737SOL    HW1 2771   0.497   0.834   6.891
  737SOL    HW2 2772   0.369   0.757   6.862
  738SOL     OW 2773   1.270   0.377   6.857
  738SOL    HW1 2774   1.301   0.455   6.903
  738SOL    HW2 2775   1.181   0.400   6.829
  739SOL     OW 2776   0.061   1.575   6.925
  739SOL    HW1 2777   0.033   1.663   6.900
  739SOL    HW2 2778   0.156   1.582   6.932
  740SOL     OW 2779   0.351   1.106   6.080
  740SOL    HW1 2780   0.359   1.180   6.019
  740SOL    HW2 2781   0.354   1.029   6.024
  741SOL     OW 2782   0.564   0.530   6.441
  741SOL    HW1 2783   0.577   0.590   6.368
  741SOL    HW2 2784   0.622   0.563   6.510
  742SOL     OW 2785   1.248   1.348   5.976
  742SOL    HW1 2786   1.303   1.418   6.011
  742SOL    HW2 2787   1.160   1.368   6.009
  743SOL     OW 2788   1.276   1.455   6.732
  743SOL    HW1 2789   1.331   1.458   6.810
  743SOL    HW2 2790   1.221   1.378   6.744
  744SOL     OW 2791   1.583   0.625   6.061
  744SOL    HW1 2792   1.539   0.679   6.127
  744SOL    HW2 2793   1.629   0.688   6.005
  745SOL     OW 2794   0.348   1.528   6.904
  745SOL    HW1 2795   0.333   1.481   6.822
  745SOL    HW2 2796   0.443   1.539   6.909
  746SOL     OW 2797   0.477   0.760   7.249
  746SOL    HW1 2798   0.502   0.800   7.166
  746SOL    HW2 2799   0.508   0.670   7.243
  747SOL     OW 2800   1.597   0.777   7.264
  747SOL    HW1 2801   1.511   0.818   7.257
  747SOL    HW2 2802   1.650   0.819   7.197
  748SOL     OW 2803   1.007   0.087   7.313
  748SOL    HW1 2804   1.029   0.171   7.273
  748SOL    HW2 2805   1.033   0.022   7.248
  749SOL     OW 2806   0.496   0.046   7.335
  749SOL    HW1 2807   0.478   4.497   7.255
  749SOL    HW2 2808   0.429   0.114   7.338
  750SOL     OW 2809   0.588   0.874   6.610
  750SOL    HW1 2810   0.616   0.965   6.612
  750SOL    HW2 2811   0.531   0.864   6.686
  751SOL     OW 2812   1.361   0.859   6.619
  751SOL    HW1 2813   1.279   0.852   6.570
  751SOL    HW2 2814   1.398   0.771   6.616
  752SOL     OW 2815   1.207   0.534   5.853
  752SOL    HW1 2816   1.213   0.454   5.904
  752SOL    HW2 2817   1.164   0.597   5.911
  753SOL     OW 2818   0.285   0.220   6.820
  753SOL    HW1 2819   0.250   0.237   6.908
  753SOL    HW2 2820   0.320   0.131   6.825
  754SOL     OW 2821   0.048   1.313   6.870
  754SOL    HW1 2822   0.078   1.266   6.947
  754SOL    HW2 2823   0.049   1.405   6.895
  755SOL     OW 2824   0.726   0.632   6.647
  755SOL    HW1 2825   0.798   0.611   6.588
  755SOL    HW2 2826   0.700   0.721   6.622
  756SOL     OW 2827   1.733   0.958   7.437
  756SOL    HW1 2828   1.684   0.905   7.375
  756SOL    HW2 2829   1.673   0.970   7.511
  757SOL     OW 2830   0.318   0.076   6.217
  757SOL    HW1 2831   0.300   0.164   6.251
  757SOL    HW2 2832   0.305   0.018   6.293
  758SOL     OW 2833   1.610   0.374   5.953
  758SOL    HW1 2834   1.642   0.312   6.018
  758SOL    HW2 2835   1.589   0.453   6.003
  759SOL     OW 2836   1.027   0.761   6.548
  759SOL    HW1 2837   1.027   0.777   6.643
  759SOL    HW2 2838   0.999   0.670   6.540
  760SOL     OW 2839   0.983   1.566   7.300
  760SOL    HW1 2840   0.967   1.611   7.217
  760SOL    HW2 2841   1.025   1.484   7.276
  761SOL     OW 2842   1.856   1.509   7.191
  761SOL    HW1 2843   1.872   1.535   7.101
  761SOL    HW2 2844   1.938   1.531   7.237
  762SOL     OW 2845   0.347   0.930   7.404
  762SOL    HW1 2846   0.422   0.958   7.458
  762SOL    HW2 2847   0.384   0.864   7.345
  763SOL     OW 2848   1.532   0.267   5.714
  763SOL    HW1 2849   1.460   0.211   5.741
  763SOL    HW2 2850   1.560   0.312   5.794
  764SOL     OW 2851   1.294   0.827   5.619
  764SOL    HW1 2852   1.336   0.741   5.621
  764SOL    HW2 2853   1.325   0.866   5.537
  765SOL     OW 2854   1.065   1.335   6.438
  765SOL    HW1 2855   1.068   1.261   6.377
  765SOL    HW2 2856   1.128   1.398   6.403
  766SOL     OW 2857   0.317   0.813   6.536
  766SOL    HW1 2858   0.411   0.831   6.531
  766SOL    HW2 2859   0.311   0.723   6.567
  767SOL     OW 2860   0.337   0.527   6.580
  767SOL    HW1 2861   0.292   0.445   6.560
  767SOL    HW2 2862   0.414   0.527   6.523
  768SOL     OW 2863   1.135   0.375   7.278
  768SOL    HW1 2864   1.088   0.440   7.331
  768SOL    HW2 2865   1.222   0.414   7.265
  769SOL     OW 2866   1.160   0.211   7.060
  769SOL    HW1 2867   1.152   0.275   7.130
  769SOL    HW2 2868   1.195   0.261   6.986
  770SOL     OW 2869   4.492   1.323   5.786
  770SOL    HW1 2870   4.399   1.338   5.769
  770SOL    HW2 2871   4.498   1.231   5.811
  771SOL     OW 2872   0.095   1.781   6.526
  771SOL    HW1 2873   0.057   1.721   6.462
  771SOL    HW2 2874   0.182   1.801   6.492
  772SOL     OW 2875   0.499   1.573   6.492
  772SOL    HW1 2876   0.567   1.636   6.516
  772SOL    HW2 2877   0.544   1.508   6.438
  773SOL     OW 2878   0.989   0.795   6.815
  773SOL    HW1 2879   1.041   0.769   6.891
  773SOL    HW2 2880   0.902   0.758   6.832
  774SOL     OW 2881   0.040   0.566   6.696
  774SOL    HW1 2882   0.115   0.521   6.657
  774SOL    HW2 2883   0.025   0.519   6.779
  775SOL     OW 2884   0.180   0.518   7.296
  775SOL    HW1 2885   0.266   0.501   7.257
  775SOL    HW2 2886   0.150   0.599   7.255
  776SOL     OW 2887   1.376   0.941   7.245
  776SOL    HW1 2888   1.396   1.035   7.246
  776SOL    HW2 2889   1.374   0.918   7.153
  777SOL     OW 2890   0.812   0.572   5.938
  777SOL    HW1 2891   0.814   0.500   5.875
  777SOL    HW2 2892   0.738   0.626   5.910
  778SOL     OW 2893   1.642   0.601   6.776
  778SOL    HW1 2894   1.631   0.541   6.849
  778SOL    HW2 2895   1.729   0.580   6.741
  779SOL     OW 2896   0.271   1.562   7.328
  779SOL    HW1 2897   0.217   1.614   7.387
  779SOL    HW2 2898   0.250   1.471   7.350
  780SOL     OW 2899   0.682   0.464   6.854
  780SOL    HW1 2900   0.646   0.383   6.817
  780SOL    HW2 2901   0.691   0.522   6.779
  781SOL     OW 2902   0.931   1.679   7.052
  781SOL    HW1 2903   0.903   1.648   6.965
  781SOL    HW2 2904   0.930   1.774   7.045
  782SOL     OW 2905   0.473   0.491   5.772
  782SOL    HW1 2906   0.532   0.564   5.793
  782SOL    HW2 2907   0.388   0.532   5.759
  783SOL     OW 2908   0.161   1.141   7.049
  783SOL    HW1 2909   0.148   1.092   7.131
  783SOL    HW2 2910   0.170   1.073   6.982
  784SOL     OW 2911   1.329   1.049   6.811
  784SOL    HW1 2912   1.353   0.986   6.743
  784SOL    HW2 2913   1.256   1.098   6.774
  785SOL     OW 2914   1.309   0.856   5.893
  785SOL    HW1 2915   1.232   0.827   5.942
  785SOL    HW2 2916   1.285   0.843   5.802
  786SOL     OW 2917   1.747   1.745   6.736
  786SOL    HW1 2918   1.813   1.774   6.673
  786SOL    HW2 2919   1.734   1.652   6.716
  787SOL     OW 2920   1.242   1.732   6.702
  787SOL    HW1 2921   1.324   1.750   6.657
  787SOL    HW2 2922   1.245   1.638   6.721
  788SOL     OW 2923   0.068   1.189   6.634
  788SOL    HW1 2924   0.073   1.223   6.723
  788SOL    HW2 2925   0.011   1.250   6.587
  789SOL     OW 2926   0.679   1.664   7.311
  789SOL    HW1 2927   0.626   1.743   7.308
  789SOL    HW2 2928   0.741   1.673   7.238
  790SOL     OW 2929   1.718   0.130   6.084
  790SOL    HW1 2930   1.792   0.135   6.024
  790SOL    HW2 2931   1.738   0.055   6.140
  791SOL     OW 2932   1.395   1.572   6.064
  791SOL    HW1 2933   1.421   1.599   5.976
  791SOL    HW2 2934   1.346   1.647   6.098
  792SOL     OW 2935   0.120   1.808   7.434
  792SOL    HW1 2936   0.081   1.734   7.480
  792SOL    HW2 2937   0.184   1.844   7.495
  793SOL     OW 2938   1.278   0.926   6.258
  793SOL    HW1 2939   1.350   0.863   6.262
  793SOL    HW2 2940   1.312   0.998   6.206
  794SOL     OW 2941   0.819   1.272   7.017
  794SOL    HW1 2942   0.792   1.311   7.101
  794SOL    HW2 2943   0.747   1.294   6.958
  795SOL     OW 2944   0.673   1.616   5.741
  795SOL    HW1 2945   0.681   1.627   5.646
  795SOL    HW2 2946   0.619   1.537   5.752
  796SOL     OW 2947   1.632   1.728   6.981
  796SOL    HW1 2948   1.677   1.734   6.896
  796SOL    HW2 2949   1.621   1.818   7.009
  797SOL     OW 2950   1.839   0.156   6.553
  797SOL    HW1 2951   1.868   0.079   6.503
  797SOL    HW2 2952   1.752   0.176   6.518
  798SOL     OW 2953   0.267   0.326   6.311
  798SOL    HW1 2954   0.184   0.361   6.276
  798SOL    HW2 2955   0.251   0.317   6.405
  799SOL     OW 2956   1.204   1.608   5.617
  799SOL    HW1 2957   1.197   1.516   5.644
  799SOL    HW2 2958   1.139   1.617   5.547
  800SOL     OW 2959   0.825   1.006   6.958
  800SOL    HW1 2960   0.867   1.004   6.872
  800SOL    HW2 2961   0.826   1.099   6.982
  801SOL     OW 2962   0.915   0.910   5.875
  801SOL    HW1 2963   0.978   0.942   5.810
  801SOL    HW2 2964   0.961   0.839   5.920
  802SOL     OW 2965   1.493   1.618   5.623
  802SOL    HW1 2966   1.398   1.622   5.617
  802SOL    HW2 2967   1.523   1.630   5.533
  803SOL     OW 2968   0.373   1.305   7.077
  803SOL    HW1 2969   0.356   1.383   7.025
  803SOL    HW2 2970   0.297   1.249   7.061
  804SOL     OW 2971   1.611   1.283   6.867
  804SOL    HW1 2972   1.672   1.277   6.941
  804SOL    HW2 2973   1.551   1.353   6.891
  805SOL     OW 2974   1.048   1.105   6.290
  805SOL    HW1 2975   0.978   1.054   6.331
  805SOL    HW2 2976   1.109   1.039   6.257
  806SOL     OW 2977   1.007   0.241   6.583
  806SOL    HW1 2978   1.014   0.212   6.492
  806SOL    HW2 2979   1.001   0.160   6.633
  807SOL     OW 2980   0.603   1.490   6.069
  807SOL    HW1 2981   0.640   1.439   5.997
  807SOL    HW2 2982   0.532   1.540   6.029
  808SOL     OW 2983   1.719   0.393   6.964
  808SOL    HW1 2984   1.791   0.456   6.963
  808SOL    HW2 2985   1.749   0.321   6.908
  809SOL     OW 2986   0.252   1.345   5.864
  809SOL    HW1 2987   0.158   1.346   5.849
  809SOL    HW2 2988   0.262   1.378   5.953
  810SOL     OW 2989   0.117   1.007   7.282
  810SOL    HW1 2990   0.052   1.045   7.341
  810SOL    HW2 2991   0.195   0.996   7.337
  811SOL     OW 2992   0.659   0.207   7.082
  811SOL    HW1 2993   0.739   0.181   7.036
  811SOL    HW2 2994   0.687   0.222   7.172
  812SOL     OW 2995   0.070   0.321   5.612
  812SOL    HW1 2996   4.475   0.330   5.622
  812SOL    HW2 2997   0.099   0.407   5.581
  813SOL     OW 2998   1.432   0.858   6.987
  813SOL    HW1 2999   1.383   0.918   6.930
  813SOL    HW2 3000   1.522   0.862   6.954
  814SOL     OW 3001   0.083   0.188   5.890
  814SOL    HW1 3002   0.080   0.260   5.826
  814SOL    HW2 3003   0.161   0.138   5.865
  815SOL     OW 3004   1.179   1.342   5.703
  815SOL    HW1 3005   1.088   1.312   5.705
  815SOL    HW2 3006   1.208   1.340   5.794
  816SOL     OW 3007   0.621   0.831   7.014
  816SOL    HW1 3008   0.675   0.909   7.002
  816SOL    HW2 3009   0.683   0.759   7.024
  817SOL     OW 3010   1.487   1.769   6.563
  817SOL    HW1 3011   1.513   1.821   6.487
  817SOL    HW2 3012   1.567   1.760   6.615
  818SOL     OW 3013   0.715   0.561   7.291
  818SOL    HW1 3014   0.746   0.629   7.351
  818SOL    HW2 3015   0.756   0.481   7.323
  819SOL     OW 3016   1.468   1.203   7.219
  819SOL    HW1 3017   1.456   1.216   7.313
  819SOL    HW2 3018   1.562   1.215   7.205
  820SOL     OW 3019   0.382   1.743   7.149
  820SOL    HW1 3020   0.297   1.782   7.134
  820SOL    HW2 3021   0.363   1.661   7.195
  821SOL     OW 3022   1.672   0.882   6.841
  821SOL    HW1 3023   1.662   0.797   6.798
  821SOL    HW2 3024   1.663   0.946   6.771
  822SOL     OW 3025   1.218   0.327   6.034
  822SOL    HW1 3026   1.283   0.258   6.025
  822SOL    HW2 3027   1.245   0.375   6.113
  823SOL     OW 3028   0.589   0.740   6.254
  823SOL    HW1 3029   0.630   0.825   6.237
  823SOL    HW2 3030   0.519   0.733   6.189
  824SOL     OW 3031   1.766   0.361   7.229
  824SOL    HW1 3032   1.749   0.375   7.136
  824SOL    HW2 3033   1.687   0.317   7.261
  825SOL     OW 3034   1.743   0.933   7.099
  825SOL    HW1 3035   1.746   1.028   7.112
  825SOL    HW2 3036   1.729   0.923   7.005
  826SOL     OW 3037   0.864   1.369   5.616
  826SOL    HW1 3038   0.823   1.393   5.699
  826SOL    HW2 3039   0.881   1.452   5.572
  827SOL     OW 3040   0.659   1.794   6.534
  827SOL    HW1 3041   0.637   1.884   6.509
  827SOL    HW2 3042   0.754   1.790   6.526
  828SOL     OW 3043   0.866   0.965   6.442
  828SOL    HW1 3044   0.916   0.894   6.482
  828SOL    HW2 3045   0.833   1.016   6.516
  829SOL     OW 3046   1.081   0.989   5.675
  829SOL    HW1 3047   1.058   1.038   5.596
  829SOL    HW2 3048   1.155   0.935   5.649
  830SOL     OW 3049   1.858   1.540   6.415
  830SOL    HW1 3050   1.772   1.542   6.374
  830SOL    HW2 3051   1.847   1.486   6.493
  831SOL     OW 3052   0.228   1.307   7.442
  831SOL    HW1 3053   0.159   1.245   7.418
  831SOL    HW2 3054   0.219   1.317   7.537
  832SOL     OW 3055   0.102   1.240   6.252
  832SOL    HW1 3056   0.105   1.188   6.333
  832SOL    HW2 3057   0.162   1.195   6.193
  833SOL     OW 3058   0.680   1.400   7.212
  833SOL    HW1 3059   0.600   1.356   7.241
  833SOL    HW2 3060   0.674   1.488   7.249
  834SOL     OW 3061   1.811   0.184   6.825
  834SOL    HW1 3062   1.810   0.091   6.846
  834SOL    HW2 3063   1.826   0.186   6.730
  835SOL     OW 3064   0.438   0.431   6.115
  835SOL    HW1 3065   0.458   0.360   6.054
  835SOL    HW2 3066   0.381   0.391   6.180
  836SOL     OW 3067   1.705   1.486   6.680
  836SOL    HW1 3068   1.620   1.462   6.642
  836SOL    HW2 3069   1.719   1.422   6.749
  837SOL     OW 3070   0.313   0.504   6.844
  837SOL    HW1 3071   0.385   0.457   6.886
  837SOL    HW2 3072   0.340   0.512   6.752
  838SOL     OW 3073   0.826   1.577   6.265
  838SOL    HW1 3074   0.818   1.624   6.182
  838SOL    HW2 3075   0.747   1.523   6.270
  839SOL     OW 3076   1.432   0.215   6.704
  839SOL    HW1 3077   1.469   0.145   6.758
  839SOL    HW2 3078   1.381   0.268   6.765
  840SOL     OW 3079   0.997   0.013   6.734
  840SOL    HW1 3080   0.951   4.430   6.723
  840SOL    HW2 3081   1.089   4.488   6.747
  841SOL     OW 3082   0.772   1.331   5.895
  841SOL    HW1 3083   0.737   1.243   5.903
  841SOL    HW2 3084   0.854   1.330   5.945
  842SOL     OW 3085   0.621   1.558   6.870
  842SOL    HW1 3086   0.623   1.639   6.921
  842SOL    HW2 3087   0.708   1.552   6.831
  843SOL     OW 3088   1.342   0.054   5.738
  843SOL    HW1 3089   1.382   4.480   5.693
  843SOL    HW2 3090   1.267   0.016   5.784
  844SOL     OW 3091   1.314   0.462   6.267
  844SOL    HW1 3092   1.252   0.535   6.267
  844SOL    HW2 3093   1.302   0.419   6.351
  845SOL     OW 3094   1.586   0.203   6.454
  845SOL    HW1 3095   1.524   0.217   6.526
  845SOL    HW2 3096   1.589   0.287   6.408
  846SOL     OW 3097   0.041   1.054   5.872
  846SOL    HW1 3098   0.136   1.043   5.866
  846SOL    HW2 3099   0.018   1.013   5.956
  847SOL     OW 3100   0.881   1.649   5.930
  847SOL    HW1 3101   0.810   1.631   5.869
  847SOL    HW2 3102   0.851   1.725   5.980
  848SOL     OW 3103   0.247   0.626   7.567
  848SOL    HW1 3104   0.171   0.612   7.623
  848SOL    HW2 3105   0.215   0.609   7.478
  849SOL     OW 3106   0.197   0.292   8.437
  849SOL    HW1 3107   0.234   0.269   8.523
  849SOL    HW2 3108   0.132   0.224   8.420
  850SOL     OW 3109   0.007   0.377   8.091
  850SOL    HW1 3110   4.427   0.414   8.129
  850SOL    HW2 3111   4.475   0.306   8.035
  851SOL     OW 3112   0.567   1.282   8.620
  851SOL    HW1 3113   0.479   1.287   8.582
  851SOL    HW2 3114   0.583   1.369   8.656
  852SOL     OW 3115   1.557   1.511   8.153
  852SOL    HW1 3116   1.514   1.494   8.237
  852SOL    HW2 3117   1.486   1.517   8.090
  853SOL     OW 3118   1.131   0.700   8.150
  853SOL    HW1 3119   1.180   0.781   8.138
  853SOL    HW2 3120   1.083   0.713   8.231
  854SOL     OW 3121   1.764   0.609   7.678
  854SOL    HW1 3122   1.745   0.598   7.584
  854SOL    HW2 3123   1.733   0.528   7.718
  855SOL     OW 3124   0.759   1.144   8.485
  855SOL    HW1 3125   0.689   1.178   8.541
  855SOL    HW2 3126   0.793   1.222   8.441
  856SOL     OW 3127   0.862   0.780   9.269
  856SOL    HW1 3128   0.849   0.851   9.331
  856SOL    HW2 3129   0.885   0.823   9.187
  857SOL     OW 3130   0.686   1.007   8.097
  857SOL    HW1 3131   0.750   0.992   8.166
  857SOL    HW2 3132   0.616   1.057   8.140
  858SOL     OW 3133   0.708   1.151   9.258
  858SOL    HW1 3134   0.755   1.231   9.281
  858SOL    HW2 3135   0.624   1.183   9.223
  859SOL     OW 3136   0.337   1.424   8.518
  859SOL    HW1 3137   0.256   1.404   8.471
  859SOL    HW2 3138   0.387   1.478   8.457
  860SOL     OW 3139   1.462   1.498   8.798
  860SOL    HW1 3140   1.506   1.583   8.807
  860SOL    HW2 3141   1.408   1.490   8.877
  861SOL     OW 3142   0.436   0.396   8.942
  861SOL    HW1 3143   0.524   0.359   8.944
  861SOL    HW2 3144   0.378   0.321   8.956
  862SOL     OW 3145   1.613   0.448   8.186
  862SOL    HW1 3146   1.532   0.472   8.139
  862SOL    HW2 3147   1.634   0.525   8.238
  863SOL     OW 3148   0.245   1.692   7.927
  863SOL    HW1 3149   0.233   1.777   7.971
  863SOL    HW2 3150   0.307   1.709   7.857
  864SOL     OW 3151   1.136   1.341   9.139
  864SOL    HW1 3152   1.175   1.337   9.226
  864SOL    HW2 3153   1.083   1.261   9.134
  865SOL     OW 3154   0.243   1.428   7.976
  865SOL    HW1 3155   0.236   1.523   7.981
  865SOL    HW2 3156   0.179   1.395   8.039
  866SOL     OW 3157   0.244   1.081   8.330
  866SOL    HW1 3158   0.263   0.994   8.365
  866SOL    HW2 3159   0.187   1.121   8.396
  867SOL     OW 3160   0.616   1.790   8.880
  867SOL    HW1 3161   0.532   1.773   8.923
  867SOL    HW2 3162   0.637   1.881   8.904
  868SOL     OW 3163   0.584   0.983   7.583
  868SOL    HW1 3164   0.629   1.031   7.513
  868SOL    HW2 3165   0.630   1.010   7.663
  869SOL     OW 3166   1.585   0.114   8.922
  869SOL    HW1 3167   1.596   0.183   8.856
  869SOL    HW2 3168   1.575   0.162   9.005
  870SOL     OW 3169   0.136   0.642   8.023
  870SOL    HW1 3170   0.083   0.564   8.036
  870SOL    HW2 3171   0.107   0.703   8.091
  871SOL     OW 3172   1.841   1.761   7.784
  871SOL    HW1 3173   1.898   1.732   7.855
  871SOL    HW2 3174   1.869   1.852   7.768
  872SOL     OW 3175   0.033   1.601   7.583
  872SOL    HW1 3176   0.021   1.506   7.585
  872SOL    HW2 3177   0.011   1.629   7.672
  873SOL     OW 3178   1.691   0.920   8.085
  873SOL    HW1 3179   1.775   0.880   8.066
  873SOL    HW2 3180   1.669   0.969   8.006
  874SOL     OW 3181   1.645   1.108   7.877
  874SOL    HW1 3182   1.730   1.117   7.835
  874SOL    HW2 3183   1.649   1.168   7.952
  875SOL     OW 3184   0.107   0.760   9.037
  875SOL    HW1 3185   0.201   0.760   9.021
  875SOL    HW2 3186   0.084   0.853   9.042
  876SOL     OW 3187   0.612   1.382   8.184
  876SOL    HW1 3188   0.566   1.299   8.192
  876SOL    HW2 3189   0.596   1.409   8.093
  877SOL     OW 3190   1.290   1.238   8.873
  877SOL    HW1 3191   1.323   1.171   8.813
  877SOL    HW2 3192   1.346   1.231   8.950
  878SOL     OW 3193   0.817   0.011   7.994
  878SOL    HW1 3194   0.850   0.098   7.971
  878SOL    HW2 3195   0.722   0.018   7.984
  879SOL     OW 3196   0.183   0.944   8.727
  879SOL    HW1 3197   0.274   0.927   8.704
  879SOL    HW2 3198   0.133   0.920   8.649
  880SOL     OW 3199   1.532   0.991   7.644
  880SOL    HW1 3200   1.462   0.933   7.674
  880SOL    HW2 3201   1.571   1.025   7.725
  881SOL     OW 3202   1.184   1.803   9.068
  881SOL    HW1 3203   1.202   1.861   8.993
  881SOL    HW2 3204   1.200   1.715   9.034
  882SOL     OW 3205   0.318   0.260   9.221
  882SOL    HW1 3206   0.386   0.313   9.262
  882SOL    HW2 3207   0.242   0.269   9.279
  883SOL     OW 3208   1.465   1.419   8.401
  883SOL    HW1 3209   1.397   1.434   8.467
  883SOL    HW2 3210   1.454   1.328   8.374
  884SOL     OW 3211   1.664   1.731   8.025
  884SOL    HW1 3212   1.637   1.704   7.937
  884SOL    HW2 3213   1.636   1.660   8.082
  885SOL     OW 3214   0.596   0.723   7.712
  885SOL    HW1 3215   0.602   0.803   7.660
  885SOL    HW2 3216   0.530   0.743   7.779
  886SOL     OW 3217   1.290   0.358   8.383
  886SOL    HW1 3218   1.201   0.326   8.367
  886SOL    HW2 3219   1.327   0.295   8.445
  887SOL     OW 3220   1.581   1.668   7.757
  887SOL    HW1 3221   1.670   1.703   7.751
  887SOL    HW2 3222   1.556   1.651   7.666
  888SOL     OW 3223   0.797   0.616   8.902
  888SOL    HW1 3224   0.769   0.594   8.991
  888SOL    HW2 3225   0.752   0.554   8.846
  889SOL     OW 3226   1.389   0.478   9.124
  889SOL    HW1 3227   1.391   0.521   9.209
  889SOL    HW2 3228   1.456   0.410   9.131
  890SOL     OW 3229   0.958   0.889   9.029
  890SOL    HW1 3230   1.012   0.817   8.995
  890SOL    HW2 3231   0.911   0.922   8.952
  891SOL     OW 3232   0.996   0.417   8.686
  891SOL    HW1 3233   0.911   0.430   8.728
  891SOL    HW2 3234   0.976   0.365   8.608
  892SOL     OW 3235   1.049   0.698   7.876
  892SOL    HW1 3236   1.064   0.691   7.970
  892SOL    HW2 3237   0.967   0.651   7.861
  893SOL     OW 3238   0.099   0.822   8.231
  893SOL    HW1 3239   0.185   0.803   8.267
  893SOL    HW2 3240   0.053   0.871   8.300
  894SOL     OW 3241   0.124   1.853   9.024
  894SOL    HW1 3242   0.119   1.829   9.116
  894SOL    HW2 3243   0.045   1.817   8.985
  895SOL     OW 3244   0.853   0.367   7.625
  895SOL    HW1 3245   0.929   0.404   7.580
  895SOL    HW2 3246   0.872   0.274   7.632
  896SOL     OW 3247   1.707   0.576   9.276
  896SOL    HW1 3248   1.672   0.653   9.231
  896SOL    HW2 3249   1.739   0.520   9.206
  897SOL     OW 3250   1.375   1.143   7.990
  897SOL    HW1 3251   1.453   1.129   7.937
  897SOL    HW2 3252   1.323   1.205   7.939
  898SOL     OW 3253   0.544   0.202   8.349
  898SOL    HW1 3254   0.562   0.221   8.441
  898SOL    HW2 3255   0.534   0.287   8.308
  899SOL     OW 3256   1.009   1.446   7.922
  899SOL    HW1 3257   0.968   1.517   7.873
  899SOL    HW2 3258   0.994   1.468   8.014
  900SOL     OW 3259   0.354   1.807   8.304
  900SOL    HW1 3260   0.398   1.723   8.314
  900SOL    HW2 3261   0.424   1.872   8.317
  901SOL     OW 3262   1.798   1.060   8.315
  901SOL    HW1 3263   1.741   1.043   8.240
  901SOL    HW2 3264   1.739   1.065   8.389
  902SOL     OW 3265   1.228   1.540   8.961
  902SOL    HW1 3266   1.214   1.466   9.020
  902SOL    HW2 3267   1.168   1.523   8.888
  903SOL     OW 3268   0.317   0.954   7.697
  903SOL    HW1 3269   0.402   0.976   7.658
  903SOL    HW2 3270   0.300   0.865   7.667
  904SOL     OW 3271   1.477   0.739   8.174
  904SOL    HW1 3272   1.463   0.692   8.256
  904SOL    HW2 3273   1.552   0.795   8.190
  905SOL     OW 3274   0.465   1.261   9.184
  905SOL    HW1 3275   0.437   1.268   9.092
  905SOL    HW2 3276   0.384   1.267   9.234
  906SOL     OW 3277   1.121   1.777   7.680
  906SOL    HW1 3278   1.049   1.734   7.727
  906SOL    HW2 3279   1.142   1.718   7.608
  907SOL     OW 3280   0.167   0.262   8.956
  907SOL    HW1 3281   0.135   0.349   8.930
  907SOL    HW2 3282   0.199   0.274   9.046
  908SOL     OW 3283   1.629   1.379   7.535
  908SOL    HW1 3284   1.589   1.464   7.520
  908SOL    HW2 3285   1.560   1.315   7.516
  909SOL     OW 3286   0.469   1.744   7.763
  909SOL    HW1 3287   0.508   1.796   7.833
  909SOL    HW2 3288   0.544   1.713   7.711
  910SOL     OW 3289   1.416   0.131   7.867
  910SOL    HW1 3290   1.398   0.084   7.785
  910SOL    HW2 3291   1.511   0.130   7.875
  911SOL     OW 3292   0.256   1.791   8.684
  911SOL    HW1 3293   0.306   1.719   8.723
  911SOL    HW2 3294   0.229   1.758   8.598
  912SOL     OW 3295   0.938   1.698   8.348
  912SOL    HW1 3296   1.015   1.645   8.369
  912SOL    HW2 3297   0.892   1.649   8.280
  913SOL     OW 3298   0.392   0.695   7.922
  913SOL    HW1 3299   0.418   0.603   7.933
  913SOL    HW2 3300   0.300   0.696   7.949
  914SOL     OW 3301   1.526   0.232   9.170
  914SOL    HW1 3302   1.525   0.256   9.263
  914SOL    HW2 3303   1.451   0.174   9.159
  915SOL     OW 3304   0.622   0.123   7.564
  915SOL    HW1 3305   0.710   0.088   7.577
  915SOL    HW2 3306   0.593   0.087   7.480
  916SOL     OW 3307   0.769   0.269   9.200
  916SOL    HW1 3308   0.835   0.201   9.217
  916SOL    HW2 3309   0.724   0.279   9.284
  917SOL     OW 3310   0.877   1.521   8.641
  917SOL    HW1 3311   0.862   1.485   8.554
  917SOL    HW2 3312   0.946   1.466   8.678
  918SOL     OW 3313   1.342   0.589   8.878
  918SOL    HW1 3314   1.370   0.559   8.964
  918SOL    HW2 3315   1.376   0.678   8.871
  919SOL     OW 3316   0.813   1.398   8.384
  919SOL    HW1 3317   0.897   1.388   8.339
  919SOL    HW2 3318   0.748   1.396   8.314
  920SOL     OW 3319   0.922   0.515   8.350
  920SOL    HW1 3320   0.905   0.513   8.256
  920SOL    HW2 3321   0.963   0.430   8.369
  921SOL     OW 3322   0.558   0.067   7.957
  921SOL    HW1 3323   0.470   0.054   7.993
  921SOL    HW2 3324   0.548   0.140   7.896
  922SOL     OW 3325   1.429   1.197   7.489
  922SOL    HW1 3326   1.459   1.122   7.539
  922SOL    HW2 3327   1.343   1.218   7.526
  923SOL     OW 3328   0.303   0.076   7.632
  923SOL    HW1 3329   0.386   0.123   7.627
  923SOL    HW2 3330   0.321   4.500   7.686
  924SOL     OW 3331   0.950   0.241   7.921
  924SOL    HW1 3332   0.898   0.288   7.856
  924SOL    HW2 3333   1.038   0.275   7.911
  925SOL     OW 3334   1.080   0.679   8.909
  925SOL    HW1 3335   1.008   0.616   8.911
  925SOL    HW2 3336   1.159   0.626   8.897
  926SOL     OW 3337   1.225   1.569   8.241
  926SOL    HW1 3338   1.243   1.637   8.177
  926SOL    HW2 3339   1.292   1.581   8.308
  927SOL     OW 3340   0.465   1.148   8.186
  927SOL    HW1 3341   0.393   1.129   8.246
  927SOL    HW2 3342   0.428   1.131   8.099
  928SOL     OW 3343   1.271   1.795   8.053
  928SOL    HW1 3344   1.315   1.856   7.994
  928SOL    HW2 3345   1.207   1.848   8.100
  929SOL     OW 3346   1.031   0.549   7.462
  929SOL    HW1 3347   0.983   0.631   7.447
  929SOL    HW2 3348   1.089   0.569   7.536
  930SOL     OW 3349   0.090   0.525   8.859
  930SOL    HW1 3350   0.152   0.535   8.787
  930SOL    HW2 3351   0.062   0.614   8.879
  931SOL     OW 3352   0.564   0.242   8.613
  931SOL    HW1 3353   0.594   0.157   8.645
  931SOL    HW2 3354   0.470   0.243   8.633
  932SOL     OW 3355   0.866   0.500   8.074
  932SOL    HW1 3356   0.815   0.543   8.005
  932SOL    HW2 3357   0.851   0.407   8.062
  933SOL     OW 3358   0.971   0.032   8.223
  933SOL    HW1 3359   0.922   0.027   8.141
  933SOL    HW2 3360   0.981   4.440   8.250
  934SOL     OW 3361   1.436   1.163   8.306
  934SOL    HW1 3362   1.368   1.095   8.304
  934SOL    HW2 3363   1.458   1.177   8.214
  935SOL     OW 3364   1.468   0.602   8.427
  935SOL    HW1 3365   1.417   0.521   8.431
  935SOL    HW2 3366   1.527   0.597   8.502
  936SOL     OW 3367   1.848   0.819   7.830
  936SOL    HW1 3368   1.903   0.766   7.887
  936SOL    HW2 3369   1.818   0.758   7.762
  937SOL     OW 3370   0.492   1.413   7.610
  937SOL    HW1 3371   0.416   1.384   7.660
  937SOL    HW2 3372   0.471   1.394   7.519
  938SOL     OW 3373   1.668   1.266   8.096
  938SOL    HW1 3374   1.763   1.272   8.109
  938SOL    HW2 3375   1.635   1.353   8.118
  939SOL     OW 3376   1.394   0.570   7.518
  939SOL    HW1 3377   1.333   0.554   7.590
  939SOL    HW2 3378   1.480   0.548   7.553
  940SOL     OW 3379   0.523   0.264   7.771
  940SOL    HW1 3380   0.568   0.213   7.703
  940SOL    HW2 3381   0.509   0.350   7.730
  941SOL     OW 3382   1.754   1.236   9.026
  941SOL    HW1 3383   1.842   1.198   9.021
  941SOL    HW2 3384   1.768   1.326   9.053
  942SOL     OW 3385   1.061   1.353   8.783
  942SOL    HW1 3386   0.986   1.322   8.834
  942SOL    HW2 3387   1.137   1.312   8.824
  943SOL     OW 3388   1.605   1.624   9.098
  943SOL    HW1 3389   1.603   1.660   9.010
  943SOL    HW2 3390   1.690   1.579   9.104
  944SOL     OW 3391   1.125   1.201   8.555
  944SOL    HW1 3392   1.067   1.240   8.621
  944SOL    HW2 3393   1.091   1.232   8.471
  945SOL     OW 3394   1.631   1.100   8.527
  945SOL    HW1 3395   1.627   1.162   8.599
  945SOL    HW2 3396   1.551   1.115   8.477
  946SOL     OW 3397   0.904   0.130   8.838
  946SOL    HW1 3398   0.927   0.086   8.756
  946SOL    HW2 3399   0.988   0.143   8.882
  947SOL     OW 3400   0.984   1.114   9.170
  947SOL    HW1 3401   0.891   1.129   9.189
  947SOL    HW2 3402   0.984   1.037   9.114
  948SOL     OW 3403   0.708   1.060   7.821
  948SOL    HW1 3404   0.696   1.046   7.915
  948SOL    HW2 3405   0.784   1.006   7.798
  949SOL     OW 3406   0.429   0.823   8.687
  949SOL    HW1 3407   0.497   0.834   8.753
  949SOL    HW2 3408   0.369   0.757   8.724
  950SOL     OW 3409   1.270   0.377   8.719
  950SOL    HW1 3410   1.301   0.455   8.765
  950SOL    HW2 3411   1.181   0.399   8.691
  951SOL     OW 3412   0.061   1.575   8.787
  951SOL    HW1 3413   0.033   1.663   8.762
  951SOL    HW2 3414   0.156   1.581   8.794
  952SOL     OW 3415   0.351   1.106   7.942
  952SOL    HW1 3416   0.360   1.180   7.881
  952SOL    HW2 3417   0.354   1.029   7.886
  953SOL     OW 3418   0.564   0.530   8.303
  953SOL    HW1 3419   0.577   0.590   8.230
  953SOL    HW2 3420   0.622   0.563   8.372
  954SOL     OW 3421   1.248   1.348   7.837
  954SOL    HW1 3422   1.303   1.420   7.868
  954SOL    HW2 3423   1.161   1.368   7.871
  955SOL     OW 3424   1.277   1.455   8.594
  955SOL    HW1 3425   1.332   1.458   8.672
  955SOL    HW2 3426   1.222   1.378   8.606
  956SOL     OW 3427   1.583   0.625   7.923
  956SOL    HW1 3428   1.539   0.679   7.989
  956SOL    HW2 3429   1.628   0.688   7.867
  957SOL     OW 3430   0.348   1.528   8.766
  957SOL    HW1 3431   0.333   1.482   8.684
  957SOL    HW2 3432   0.443   1.539   8.771
  958SOL     OW 3433   0.476   0.760   9.111
  958SOL    HW1 3434   0.502   0.800   9.028
  958SOL    HW2 3435   0.508   0.670   9.105
  959SOL     OW 3436   1.597   0.777   9.126
  959SOL    HW1 3437   1.511   0.818   9.119
  959SOL    HW2 3438   1.650   0.819   9.059
  960SOL     OW 3439   1.007   0.087   9.175
  960SOL    HW1 3440   1.029   0.171   9.135
  960SOL    HW2 3441   1.033   0.022   9.110
  961SOL     OW 3442   0.496   0.046   9.197
  961SOL    HW1 3443   0.478   4.497   9.117
  961SOL    HW2 3444   0.429   0.114   9.200
  962SOL     OW 3445   0.587   0.874   8.471
  962SOL    HW1 3446   0.617   0.965   8.474
  962SOL    HW2 3447   0.531   0.865   8.548
  963SOL     OW 3448   1.361   0.859   8.482
  963SOL    HW1 3449   1.279   0.853   8.431
  963SOL    HW2 3450   1.398   0.770   8.478
  964SOL     OW 3451   1.207   0.534   7.715
  964SOL    HW1 3452   1.213   0.454   7.766
  964SOL    HW2 3453   1.165   0.597   7.773
  965SOL     OW 3454   0.285   0.220   8.682
  965SOL    HW1 3455   0.250   0.237   8.770
  965SOL    HW2 3456   0.320   0.131   8.687
  966SOL     OW 3457   0.047   1.313   8.732
  966SOL    HW1 3458   0.078   1.266   8.809
  966SOL    HW2 3459   0.049   1.405   8.757
  967SOL     OW 3460   0.726   0.632   8.509
  967SOL    HW1 3461   0.798   0.611   8.450
  967SOL    HW2 3462   0.700   0.721   8.484
  968SOL     OW 3463   1.733   0.958   9.299
  968SOL    HW1 3464   1.684   0.905   9.237
  968SOL    HW2 3465   1.673   0.970   9.373
  969SOL     OW 3466   0.317   0.076   8.079
  969SOL    HW1 3467   0.300   0.164   8.113
  969SOL    HW2 3468   0.305   0.018   8.155
  970SOL     OW 3469   1.610   0.374   7.815
  970SOL    HW1 3470   1.642   0.312   7.880
  970SOL    HW2 3471   1.589   0.453   7.865
  971SOL     OW 3472   1.027   0.761   8.410
  971SOL    HW1 3473   1.027   0.777   8.505
  971SOL    HW2 3474   0.999   0.670   8.402
  972SOL     OW 3475   0.982   1.566   9.162
  972SOL    HW1 3476   0.967   1.611   9.079
  972SOL    HW2 3477   1.025   1.484   9.138
  973SOL     OW 3478   1.857   1.507   9.053
  973SOL    HW1 3479   1.870   1.536   8.963
  973SOL    HW2 3480   1.937   1.533   9.099
  974SOL     OW 3481   0.347   0.930   9.266
  974SOL    HW1 3482   0.422   0.958   9.319
  974SOL    HW2 3483   0.384   0.864   9.207
  975SOL     OW 3484   1.532   0.267   7.576
  975SOL    HW1 3485   1.460   0.211   7.603
  975SOL    HW2 3486   1.560   0.312   7.656
  976SOL     OW 3487   1.295   0.827   7.481
  976SOL    HW1 3488   1.336   0.741   7.483
  976SOL    HW2 3489   1.325   0.866   7.399
  977SOL     OW 3490   1.065   1.335   8.300
  977SOL    HW1 3491   1.068   1.262   8.238
  977SOL    HW2 3492   1.128   1.398   8.266
  978SOL     OW 3493   0.317   0.813   8.398
  978SOL    HW1 3494   0.411   0.831   8.393
  978SOL    HW2 3495   0.311   0.723   8.429
  979SOL     OW 3496   0.337   0.527   8.442
  979SOL    HW1 3497   0.292   0.445   8.422
  979SOL    HW2 3498   0.414   0.527   8.385
  980SOL     OW 3499   1.135   0.375   9.140
  980SOL    HW1 3500   1.088   0.440   9.193
  980SOL    HW2 3501   1.222   0.414   9.127
  981SOL     OW 3502   1.160   0.211   8.922
  981SOL    HW1 3503   1.152   0.275   8.992
  981SOL    HW2 3504   1.195   0.261   8.848
  982SOL     OW 3505   4.492   1.323   7.649
  982SOL    HW1 3506   4.399   1.338   7.631
  982SOL    HW2 3507   4.498   1.231   7.673
  983SOL     OW 3508   0.095   1.782   8.387
  983SOL    HW1 3509   0.057   1.721   8.324
  983SOL    HW2 3510   0.182   1.801   8.354
  984SOL     OW 3511   0.499   1.573   8.354
  984SOL    HW1 3512   0.567   1.636   8.378
  984SOL    HW2 3513   0.544   1.508   8.300
  985SOL     OW 3514   0.989   0.795   8.677
  985SOL    HW1 3515   1.041   0.769   8.753
  985SOL    HW2 3516   0.902   0.758   8.694
  986SOL     OW 3517   0.040   0.566   8.558
  986SOL    HW1 3518   0.115   0.521   8.519
  986SOL    HW2 3519   0.026   0.519   8.641
  987SOL     OW 3520   0.180   0.518   9.158
  987SOL    HW1 3521   0.266   0.501   9.119
  987SOL    HW2 3522   0.150   0.599   9.117
  988SOL     OW 3523   1.376   0.941   9.107
  988SOL    HW1 3524   1.396   1.035   9.108
  988SOL    HW2 3525   1.374   0.918   9.015
  989SOL     OW 3526   0.812   0.572   7.800
  989SOL    HW1 3527   0.814   0.500   7.737
  989SOL    HW2 3528   0.738   0.626   7.772
  990SOL     OW 3529   1.642   0.601   8.638
  990SOL    HW1 3530   1.631   0.541   8.711
  990SOL    HW2 3531   1.729   0.580   8.603
  991SOL     OW 3532   0.271   1.562   9.190
  991SOL    HW1 3533   0.217   1.614   9.250
  991SOL    HW2 3534   0.250   1.471   9.212
  992SOL     OW 3535   0.682   0.464   8.716
  992SOL    HW1 3536   0.646   0.383   8.679
  992SOL    HW2 3537   0.691   0.522   8.641
  993SOL     OW 3538   0.930   1.678   8.914
  993SOL    HW1 3539   0.903   1.648   8.827
  993SOL    HW2 3540   0.930   1.774   8.908
  994SOL     OW 3541   0.473   0.491   7.634
  994SOL    HW1 3542   0.532   0.564   7.655
  994SOL    HW2 3543   0.388   0.533   7.621
  995SOL     OW 3544   0.161   1.141   8.911
  995SOL    HW1 3545   0.148   1.093   8.993
  995SOL    HW2 3546   0.170   1.073   8.844
  996SOL     OW 3547   1.329   1.049   8.673
  996SOL    HW1 3548   1.353   0.986   8.605
  996SOL    HW2 3549   1.256   1.098   8.636
  997SOL     OW 3550   1.309   0.856   7.755
  997SOL    HW1 3551   1.232   0.827   7.804
  997SOL    HW2 3552   1.285   0.843   7.663
  998SOL     OW 3553   1.761   1.746   8.593
  998SOL    HW1 3554   1.826   1.774   8.528
  998SOL    HW2 3555   1.744   1.654   8.572
  999SOL     OW 3556   1.241   1.732   8.564
  999SOL    HW1 3557   1.323   1.751   8.519
  999SOL    HW2 3558   1.245   1.638   8.582
 1000SOL     OW 3559   0.068   1.189   8.496
 1000SOL    HW1 3560   0.073   1.223   8.585
 1000SOL    HW2 3561   0.011   1.250   8.449
 1001SOL     OW 3562   0.679   1.664   9.173
 1001SOL    HW1 3563   0.626   1.743   9.170
 1001SOL    HW2 3564   0.741   1.673   9.100
 1002SOL     OW 3565   1.718   0.130   7.946
 1002SOL    HW1 3566   1.792   0.135   7.886
 1002SOL    HW2 3567   1.737   0.055   8.002
 1003SOL     OW 3568   1.390   1.568   7.931
 1003SOL    HW1 3569   1.450   1.599   7.863
 1003SOL    HW2 3570   1.342   1.646   7.958
 1004SOL     OW 3571   0.120   1.808   9.296
 1004SOL    HW1 3572   0.081   1.734   9.342
 1004SOL    HW2 3573   0.184   1.844   9.357
 1005SOL     OW 3574   1.278   0.926   8.120
 1005SOL    HW1 3575   1.351   0.863   8.123
 1005SOL    HW2 3576   1.311   0.998   8.068
 1006SOL     OW 3577   0.819   1.272   8.879
 1006SOL    HW1 3578   0.792   1.311   8.963
 1006SOL    HW2 3579   0.747   1.294   8.820
 1007SOL     OW 3580   0.673   1.616   7.603
 1007SOL    HW1 3581   0.681   1.627   7.508
 1007SOL    HW2 3582   0.620   1.537   7.614
 1008SOL     OW 3583   1.631   1.726   8.839
 1008SOL    HW1 3584   1.679   1.735   8.757
 1008SOL    HW2 3585   1.618   1.816   8.869
 1009SOL     OW 3586   1.839   0.156   8.415
 1009SOL    HW1 3587   1.868   0.079   8.365
 1009SOL    HW2 3588   1.752   0.176   8.380
 1010SOL     OW 3589   0.267   0.326   8.173
 1010SOL    HW1 3590   0.185   0.361   8.138
 1010SOL    HW2 3591   0.251   0.317   8.267
 1011SOL     OW 3592   1.206   1.608   7.479
 1011SOL    HW1 3593   1.197   1.517   7.506
 1011SOL    HW2 3594   1.141   1.618   7.409
 1012SOL     OW 3595   0.825   1.006   8.819
 1012SOL    HW1 3596   0.867   1.004   8.734
 1012SOL    HW2 3597   0.826   1.099   8.844
 1013SOL     OW 3598   0.915   0.910   7.737
 1013SOL    HW1 3599   0.977   0.942   7.672
 1013SOL    HW2 3600   0.961   0.839   7.782
 1014SOL     OW 3601   1.495   1.624   7.490
 1014SOL    HW1 3602   1.400   1.621   7.479
 1014SOL    HW2 3603   1.530   1.630   7.401
 1015SOL     OW 3604   0.372   1.305   8.939
 1015SOL    HW1 3605   0.356   1.383   8.887
 1015SOL    HW2 3606   0.296   1.249   8.923
 1016SOL     OW 3607   1.611   1.283   8.729
 1016SOL    HW1 3608   1.672   1.277   8.803
 1016SOL    HW2 3609   1.551   1.354   8.753
 1017SOL     OW 3610   1.048   1.105   8.152
 1017SOL    HW1 3611   0.978   1.054   8.193
 1017SOL    HW2 3612   1.109   1.040   8.119
 1018SOL     OW 3613   1.007   0.241   8.445
 1018SOL    HW1 3614   1.014   0.212   8.354
 1018SOL    HW2 3615   1.001   0.160   8.495
 1019SOL     OW 3616   0.602   1.489   7.931
 1019SOL    HW1 3617   0.641   1.439   7.860
 1019SOL    HW2 3618   0.533   1.540   7.890
 1020SOL     OW 3619   1.719   0.393   8.826
 1020SOL    HW1 3620   1.791   0.456   8.825
 1020SOL    HW2 3621   1.749   0.321   8.770
 1021SOL     OW 3622   0.252   1.345   7.726
 1021SOL    HW1 3623   0.157   1.346   7.711
 1021SOL    HW2 3624   0.263   1.378   7.815
 1022SOL     OW 3625   0.117   1.008   9.144
 1022SOL    HW1 3626   0.052   1.045   9.203
 1022SOL    HW2 3627   0.195   0.996   9.199
 1023SOL     OW 3628   0.659   0.207   8.944
 1023SOL    HW1 3629   0.739   0.181   8.898
 1023SOL    HW2 3630   0.687   0.222   9.034
 1024SOL     OW 3631   0.070   0.321   7.474
 1024SOL    HW1 3632   4.475   0.330   7.483
 1024SOL    HW2 3633   0.099   0.407   7.443
 1025SOL     OW 3634   1.432   0.858   8.849
 1025SOL    HW1 3635   1.383   0.918   8.792
 1025SOL    HW2 3636   1.522   0.862   8.816
 1026SOL     OW 3637   0.083   0.188   7.752
 1026SOL    HW1 3638   0.080   0.260   7.688
 1026SOL    HW2 3639   0.161   0.138   7.727
 1027SOL     OW 3640   1.180   1.341   7.565
 1027SOL    HW1 3641   1.089   1.312   7.568
 1027SOL    HW2 3642   1.209   1.341   7.656
 1028SOL     OW 3643   0.621   0.831   8.876
 1028SOL    HW1 3644   0.675   0.909   8.864
 1028SOL    HW2 3645   0.683   0.759   8.886
 1029SOL     OW 3646   1.487   1.773   8.422
 1029SOL    HW1 3647   1.513   1.833   8.352
 1029SOL    HW2 3648   1.566   1.761   8.475
 1030SOL     OW 3649   0.715   0.562   9.153
 1030SOL    HW1 3650   0.746   0.629   9.213
 1030SOL    HW2 3651   0.756   0.481   9.185
 1031SOL     OW 3652   1.468   1.203   9.081
 1031SOL    HW1 3653   1.457   1.216   9.175
 1031SOL    HW2 3654   1.562   1.216   9.067
 1032SOL     OW 3655   0.382   1.743   9.011
 1032SOL    HW1 3656   0.297   1.782   8.996
 1032SOL    HW2 3657   0.363   1.661   9.057
 1033SOL     OW 3658   1.672   0.882   8.703
 1033SOL    HW1 3659   1.662   0.797   8.660
 1033SOL    HW2 3660   1.663   0.946   8.633
 1034SOL     OW 3661   1.218   0.327   7.896
 1034SOL    HW1 3662   1.283   0.258   7.887
 1034SOL    HW2 3663   1.245   0.375   7.975
 1035SOL     OW 3664   0.588   0.740   8.116
 1035SOL    HW1 3665   0.630   0.825   8.099
 1035SOL    HW2 3666   0.519   0.733   8.050
 1036SOL     OW 3667   1.766   0.360   9.091
 1036SOL    HW1 3668   1.749   0.375   8.998
 1036SOL    HW2 3669   1.687   0.317   9.123
 1037SOL     OW 3670   1.743   0.933   8.961
 1037SOL    HW1 3671   1.746   1.028   8.974
 1037SOL    HW2 3672   1.729   0.923   8.867
 1038SOL     OW 3673   0.863   1.368   7.478
 1038SOL    HW1 3674   0.823   1.394   7.561
 1038SOL    HW2 3675   0.882   1.451   7.434
 1039SOL     OW 3676   0.659   1.794   8.397
 1039SOL    HW1 3677   0.637   1.884   8.371
 1039SOL    HW2 3678   0.754   1.789   8.388
 1040SOL     OW 3679   0.866   0.965   8.304
 1040SOL    HW1 3680   0.916   0.894   8.344
 1040SOL    HW2 3681   0.833   1.016   8.378
 1041SOL     OW 3682   1.080   0.988   7.537
 1041SOL    HW1 3683   1.058   1.038   7.458
 1041SOL    HW2 3684   1.156   0.935   7.511
 1042SOL     OW 3685   1.858   1.555   8.292
 1042SOL    HW1 3686   1.779   1.547   8.239
 1042SOL    HW2 3687   1.846   1.492   8.363
 1043SOL     OW 3688   0.228   1.307   9.304
 1043SOL    HW1 3689   0.159   1.245   9.280
 1043SOL    HW2 3690   0.219   1.317   9.399
 1044SOL     OW 3691   0.101   1.239   8.114
 1044SOL    HW1 3692   0.106   1.188   8.195
 1044SOL    HW2 3693   0.162   1.196   8.055
 1045SOL     OW 3694   0.680   1.400   9.074
 1045SOL    HW1 3695   0.600   1.356   9.103
 1045SOL    HW2 3696   0.674   1.488   9.111
 1046SOL     OW 3697   1.812   0.184   8.687
 1046SOL    HW1 3698   1.809   0.091   8.708
 1046SOL    HW2 3699   1.826   0.186   8.592
 1047SOL     OW 3700   0.438   0.431   7.977
 1047SOL    HW1 3701   0.458   0.360   7.916
 1047SOL    HW2 3702   0.381   0.391   8.042
 1048SOL     OW 3703   1.704   1.488   8.544
 1048SOL    HW1 3704   1.620   1.464   8.504
 1048SOL    HW2 3705   1.718   1.423   8.613
 1049SOL     OW 3706   0.313   0.504   8.706
 1049SOL    HW1 3707   0.385   0.457   8.748
 1049SOL    HW2 3708   0.340   0.512   8.614
 1050SOL     OW 3709   0.825   1.578   8.128
 1050SOL    HW1 3710   0.819   1.623   8.044
 1050SOL    HW2 3711   0.746   1.523   8.131
 1051SOL     OW 3712   1.432   0.215   8.566
 1051SOL    HW1 3713   1.469   0.145   8.620
 1051SOL    HW2 3714   1.381   0.268   8.627
 1052SOL     OW 3715   0.997   0.013   8.597
 1052SOL    HW1 3716   0.951   4.429   8.585
 1052SOL    HW2 3717   1.089   4.488   8.609
 1053SOL     OW 3718   0.772   1.332   7.758
 1053SOL    HW1 3719   0.738   1.242   7.765
 1053SOL    HW2 3720   0.854   1.330   7.807
 1054SOL     OW 3721   0.621   1.558   8.732
 1054SOL    HW1 3722   0.623   1.639   8.783
 1054SOL    HW2 3723   0.708   1.551   8.693
 1055SOL     OW 3724   1.342   0.054   7.600
 1055SOL    HW1 3725   1.382   4.479   7.555
 1055SOL    HW2 3726   1.267   0.017   7.646
 1056SOL     OW 3727   1.314   0.462   8.129
 1056SOL    HW1 3728   1.252   0.535   8.129
 1056SOL    HW2 3729   1.302   0.419   8.213
 1057SOL     OW 3730   1.586   0.203   8.316
 1057SOL    HW1 3731   1.524   0.217   8.388
 1057SOL    HW2 3732   1.589   0.287   8.270
 1058SOL     OW 3733   0.041   1.054   7.735
 1058SOL    HW1 3734   0.136   1.043   7.728
 1058SOL    HW2 3735   0.018   1.013   7.818
 1059SOL     OW 3736   0.881   1.649   7.792
 1059SOL    HW1 3737   0.810   1.631   7.731
 1059SOL    HW2 3738   0.852   1.726   7.842
 1060SOL     OW 3739   0.247   0.626   9.429
 1060SOL    HW1 3740   0.171   0.612   9.485
 1060SOL    HW2 3741   0.215   0.609   9.340
 1061SOL     OW 3742   0.199   0.292  10.300
 1061SOL    HW1 3743   0.236   0.270  10.385
 1061SOL    HW2 3744   0.134   0.224  10.284
 1062SOL     OW 3745   0.007   0.377   9.953
 1062SOL    HW1 3746   4.427   0.414   9.991
 1062SOL    HW2 3747   4.475   0.306   9.897
 1063SOL     OW 3748   0.567   1.282  10.483
 1063SOL    HW1 3749   0.480   1.286  10.444
 1063SOL    HW2 3750   0.582   1.370  10.517
 1064SOL     OW 3751   1.558   1.512  10.015
 1064SOL    HW1 3752   1.514   1.494  10.098
 1064SOL    HW2 3753   1.487   1.517   9.951
 1065SOL     OW 3754   1.131   0.700  10.012
 1065SOL    HW1 3755   1.180   0.782  10.000
 1065SOL    HW2 3756   1.083   0.712  10.093
 1066SOL     OW 3757   1.764   0.609   9.540
 1066SOL    HW1 3758   1.745   0.598   9.446
 1066SOL    HW2 3759   1.733   0.528   9.580
 1067SOL     OW 3760   0.760   1.145  10.348
 1067SOL    HW1 3761   0.689   1.178  10.404
 1067SOL    HW2 3762   0.793   1.222  10.302
 1068SOL     OW 3763   0.850   0.782   0.020
 1068SOL    HW1 3764   0.858   0.839   0.096
 1068SOL    HW2 3765   0.883   0.834  11.047
 1069SOL     OW 3766   0.686   1.008   9.959
 1069SOL    HW1 3767   0.750   0.992  10.029
 1069SOL    HW2 3768   0.616   1.056  10.002
 1070SOL     OW 3769   0.337   1.424  10.379
 1070SOL    HW1 3770   0.256   1.404  10.332
 1070SOL    HW2 3771   0.387   1.478  10.318
 1071SOL     OW 3772   1.463   1.500  10.656
 1071SOL    HW1 3773   1.514   1.581  10.667
 1071SOL    HW2 3774   1.419   1.489  10.740
 1072SOL     OW 3775   0.440   0.393  10.789
 1072SOL    HW1 3776   0.527   0.354  10.797
 1072SOL    HW2 3777   0.382   0.336  10.839
 1073SOL     OW 3778   1.613   0.448  10.048
 1073SOL    HW1 3779   1.532   0.472  10.002
 1073SOL    HW2 3780   1.635   0.525  10.100
 1074SOL     OW 3781   0.245   1.692   9.789
 1074SOL    HW1 3782   0.233   1.777   9.832
 1074SOL    HW2 3783   0.307   1.709   9.719
 1075SOL     OW 3784   0.244   1.428   9.838
 1075SOL    HW1 3785   0.236   1.523   9.843
 1075SOL    HW2 3786   0.179   1.395   9.901
 1076SOL     OW 3787   0.244   1.081  10.192
 1076SOL    HW1 3788   0.263   0.994  10.227
 1076SOL    HW2 3789   0.188   1.121  10.258
 1077SOL     OW 3790   0.615   1.790  10.741
 1077SOL    HW1 3791   0.534   1.771  10.787
 1077SOL    HW2 3792   0.637   1.880  10.765
 1078SOL     OW 3793   0.584   0.983   9.445
 1078SOL    HW1 3794   0.629   1.031   9.375
 1078SOL    HW2 3795   0.630   1.010   9.525
 1079SOL     OW 3796   1.557   0.131  10.781
 1079SOL    HW1 3797   1.603   0.191  10.722
 1079SOL    HW2 3798   1.609   0.131  10.861
 1080SOL     OW 3799   0.136   0.642   9.885
 1080SOL    HW1 3800   0.083   0.564   9.898
 1080SOL    HW2 3801   0.107   0.703   9.953
 1081SOL     OW 3802   1.840   1.762   9.646
 1081SOL    HW1 3803   1.899   1.731   9.714
 1081SOL    HW2 3804   1.868   1.852   9.628
 1082SOL     OW 3805   0.033   1.601   9.445
 1082SOL    HW1 3806   0.021   1.506   9.447
 1082SOL    HW2 3807   0.011   1.629   9.534
 1083SOL     OW 3808   1.691   0.920   9.948
 1083SOL    HW1 3809   1.775   0.880   9.928
 1083SOL    HW2 3810   1.669   0.969   9.868
 1084SOL     OW 3811   1.645   1.108   9.740
 1084SOL    HW1 3812   1.730   1.117   9.697
 1084SOL    HW2 3813   1.650   1.168   9.814
 1085SOL     OW 3814   0.097   0.757  10.911
 1085SOL    HW1 3815   0.190   0.741  10.897
 1085SOL    HW2 3816   0.086   0.851  10.898
 1086SOL     OW 3817   0.612   1.382  10.046
 1086SOL    HW1 3818   0.566   1.299  10.054
 1086SOL    HW2 3819   0.596   1.409   9.955
 1087SOL     OW 3820   1.297   1.238  10.750
 1087SOL    HW1 3821   1.321   1.176  10.681
 1087SOL    HW2 3822   1.352   1.213  10.824
 1088SOL     OW 3823   0.817   0.011   9.856
 1088SOL    HW1 3824   0.850   0.098   9.833
 1088SOL    HW2 3825   0.722   0.019   9.846
 1089SOL     OW 3826   0.183   0.944  10.589
 1089SOL    HW1 3827   0.274   0.926  10.567
 1089SOL    HW2 3828   0.133   0.919  10.511
 1090SOL     OW 3829   1.532   0.991   9.506
 1090SOL    HW1 3830   1.462   0.933   9.536
 1090SOL    HW2 3831   1.571   1.025   9.587
 1091SOL     OW 3832   1.194   1.805  10.926
 1091SOL    HW1 3833   1.198   1.866  10.853
 1091SOL    HW2 3834   1.202   1.718  10.885
 1092SOL     OW 3835   0.327   0.287  11.068
 1092SOL    HW1 3836   0.390   0.331   0.025
 1092SOL    HW2 3837   0.247   0.282   0.021
 1093SOL     OW 3838   1.466   1.419  10.263
 1093SOL    HW1 3839   1.397   1.434  10.328
 1093SOL    HW2 3840   1.454   1.328  10.235
 1094SOL     OW 3841   1.663   1.732   9.887
 1094SOL    HW1 3842   1.638   1.704   9.799
 1094SOL    HW2 3843   1.636   1.660   9.943
 1095SOL     OW 3844   0.596   0.723   9.574
 1095SOL    HW1 3845   0.602   0.803   9.522
 1095SOL    HW2 3846   0.530   0.743   9.641
 1096SOL     OW 3847   1.290   0.358  10.245
 1096SOL    HW1 3848   1.201   0.326  10.229
 1096SOL    HW2 3849   1.327   0.295  10.307
 1097SOL     OW 3850   1.581   1.668   9.619
 1097SOL    HW1 3851   1.670   1.703   9.613
 1097SOL    HW2 3852   1.556   1.651   9.528
 1098SOL     OW 3853   0.797   0.617  10.765
 1098SOL    HW1 3854   0.768   0.593  10.853
 1098SOL    HW2 3855   0.754   0.554  10.708
 1099SOL     OW 3856   0.966   0.897  10.899
 1099SOL    HW1 3857   1.014   0.824  10.860
 1099SOL    HW2 3858   0.916   0.934  10.826
 1100SOL     OW 3859   0.996   0.418  10.547
 1100SOL    HW1 3860   0.911   0.430  10.590
 1100SOL    HW2 3861   0.977   0.365  10.470
 1101SOL     OW 3862   1.049   0.698   9.738
 1101SOL    HW1 3863   1.064   0.691   9.832
 1101SOL    HW2 3864   0.967   0.651   9.723
 1102SOL     OW 3865   0.099   0.823  10.093
 1102SOL    HW1 3866   0.185   0.803  10.129
 1102SOL    HW2 3867   0.053   0.871  10.162
 1103SOL     OW 3868   0.118   1.852  10.899
 1103SOL    HW1 3869   0.117   1.791  10.973
 1103SOL    HW2 3870   0.051   1.818  10.839
 1104SOL     OW 3871   0.853   0.367   9.487
 1104SOL    HW1 3872   0.929   0.404   9.442
 1104SOL    HW2 3873   0.872   0.274   9.494
 1105SOL     OW 3874   1.375   1.143   9.852
 1105SOL    HW1 3875   1.453   1.128   9.799
 1105SOL    HW2 3876   1.323   1.205   9.801
 1106SOL     OW 3877   0.544   0.202  10.211
 1106SOL    HW1 3878   0.561   0.221  10.303
 1106SOL    HW2 3879   0.534   0.288  10.170
 1107SOL     OW 3880   1.009   1.446   9.784
 1107SOL    HW1 3881   0.968   1.517   9.735
 1107SOL    HW2 3882   0.994   1.469   9.876
 1108SOL     OW 3883   0.354   1.807  10.166
 1108SOL    HW1 3884   0.398   1.723  10.176
 1108SOL    HW2 3885   0.424   1.872  10.180
 1109SOL     OW 3886   1.798   1.060  10.177
 1109SOL    HW1 3887   1.741   1.043  10.102
 1109SOL    HW2 3888   1.739   1.065  10.251
 1110SOL     OW 3889   1.226   1.541  10.825
 1110SOL    HW1 3890   1.235   1.454  10.864
 1110SOL    HW2 3891   1.168   1.527  10.749
 1111SOL     OW 3892   0.317   0.954   9.559
 1111SOL    HW1 3893   0.402   0.976   9.520
 1111SOL    HW2 3894   0.300   0.865   9.529
 1112SOL     OW 3895   1.476   0.739  10.036
 1112SOL    HW1 3896   1.463   0.692  10.118
 1112SOL    HW2 3897   1.552   0.795  10.052
 1113SOL     OW 3898   0.455   1.269  11.052
 1113SOL    HW1 3899   0.427   1.277  10.960
 1113SOL    HW2 3900   0.386   1.218  11.094
 1114SOL     OW 3901   1.121   1.777   9.542
 1114SOL    HW1 3902   1.049   1.734   9.589
 1114SOL    HW2 3903   1.142   1.718   9.470
 1115SOL     OW 3904   0.168   0.261  10.818
 1115SOL    HW1 3905   0.141   0.350  10.797
 1115SOL    HW2 3906   0.205   0.267  10.906
 1116SOL     OW 3907   1.629   1.379   9.397
 1116SOL    HW1 3908   1.589   1.464   9.381
 1116SOL    HW2 3909   1.560   1.316   9.378
 1117SOL     OW 3910   0.469   1.744   9.625
 1117SOL    HW1 3911   0.508   1.796   9.695
 1117SOL    HW2 3912   0.543   1.713   9.573
 1118SOL     OW 3913   1.416   0.131   9.729
 1118SOL    HW1 3914   1.398   0.084   9.647
 1118SOL    HW2 3915   1.511   0.130   9.737
 1119SOL     OW 3916   0.254   1.791  10.547
 1119SOL    HW1 3917   0.306   1.721  10.587
 1119SOL    HW2 3918   0.231   1.757  10.461
 1120SOL     OW 3919   0.938   1.698  10.211
 1120SOL    HW1 3920   1.016   1.645  10.230
 1120SOL    HW2 3921   0.892   1.649  10.142
 1121SOL     OW 3922   0.392   0.695   9.784
 1121SOL    HW1 3923   0.418   0.603   9.795
 1121SOL    HW2 3924   0.300   0.696   9.811
 1122SOL     OW 3925   0.622   0.123   9.426
 1122SOL    HW1 3926   0.710   0.088   9.439
 1122SOL    HW2 3927   0.593   0.087   9.342
 1123SOL     OW 3928   0.769   0.270  11.043
 1123SOL    HW1 3929   0.831   0.205  11.076
 1123SOL    HW2 3930   0.712   0.290   0.017
 1124SOL     OW 3931   0.876   1.521  10.503
 1124SOL    HW1 3932   0.862   1.486  10.415
 1124SOL    HW2 3933   0.947   1.467  10.539
 1125SOL     OW 3934   1.344   0.589  10.752
 1125SOL    HW1 3935   1.392   0.570  10.833
 1125SOL    HW2 3936   1.371   0.678  10.728
 1126SOL     OW 3937   0.813   1.398  10.246
 1126SOL    HW1 3938   0.897   1.388  10.200
 1126SOL    HW2 3939   0.748   1.396  10.176
 1127SOL     OW 3940   0.922   0.515  10.212
 1127SOL    HW1 3941   0.905   0.513  10.118
 1127SOL    HW2 3942   0.963   0.431  10.231
 1128SOL     OW 3943   0.558   0.067   9.819
 1128SOL    HW1 3944   0.470   0.054   9.855
 1128SOL    HW2 3945   0.548   0.140   9.758
 1129SOL     OW 3946   1.429   1.197   9.351
 1129SOL    HW1 3947   1.459   1.122   9.401
 1129SOL    HW2 3948   1.343   1.218   9.388
 1130SOL     OW 3949   0.303   0.076   9.494
 1130SOL    HW1 3950   0.386   0.123   9.489
 1130SOL    HW2 3951   0.321   4.500   9.548
 1131SOL     OW 3952   0.950   0.241   9.783
 1131SOL    HW1 3953   0.898   0.288   9.718
 1131SOL    HW2 3954   1.038   0.275   9.773
 1132SOL     OW 3955   1.079   0.682  10.773
 1132SOL    HW1 3956   1.006   0.620  10.773
 1132SOL    HW2 3957   1.157   0.628  10.764
 1133SOL     OW 3958   1.225   1.569  10.104
 1133SOL    HW1 3959   1.243   1.637  10.038
 1133SOL    HW2 3960   1.293   1.581  10.170
 1134SOL     OW 3961   0.465   1.148  10.048
 1134SOL    HW1 3962   0.393   1.129  10.108
 1134SOL    HW2 3963   0.428   1.131   9.961
 1135SOL     OW 3964   1.271   1.795   9.915
 1135SOL    HW1 3965   1.315   1.856   9.856
 1135SOL    HW2 3966   1.207   1.848   9.962
 1136SOL     OW 3967   1.031   0.549   9.324
 1136SOL    HW1 3968   0.983   0.631   9.309
 1136SOL    HW2 3969   1.089   0.569   9.398
 1137SOL     OW 3970   0.084   0.526  10.720
 1137SOL    HW1 3971   0.152   0.536  10.653
 1137SOL    HW2 3972   0.065   0.615  10.749
 1138SOL     OW 3973   0.563   0.243  10.475
 1138SOL    HW1 3974   0.592   0.155  10.501
 1138SOL    HW2 3975   0.470   0.245  10.498
 1139SOL     OW 3976   0.866   0.501   9.936
 1139SOL    HW1 3977   0.815   0.542   9.867
 1139SOL    HW2 3978   0.851   0.407   9.924
 1140SOL     OW 3979   0.971   0.032  10.084
 1140SOL    HW1 3980   0.922   0.027  10.003
 1140SOL    HW2 3981   0.980   4.441  10.112
 1141SOL     OW 3982   1.435   1.164  10.168
 1141SOL    HW1 3983   1.368   1.095  10.166
 1141SOL    HW2 3984   1.458   1.178  10.076
 1142SOL     OW 3985   1.467   0.603  10.289
 1142SOL    HW1 3986   1.417   0.521  10.292
 1142SOL    HW2 3987   1.527   0.597  10.364
 1143SOL     OW 3988   1.847   0.819   9.692
 1143SOL    HW1 3989   1.903   0.766   9.749
 1143SOL    HW2 3990   1.818   0.758   9.624
 1144SOL     OW 3991   0.492   1.413   9.472
 1144SOL    HW1 3992   0.416   1.384   9.522
 1144SOL    HW2 3993   0.471   1.394   9.381
 1145SOL     OW 3994   1.668   1.265   9.959
 1145SOL    HW1 3995   1.763   1.271   9.971
 1145SOL    HW2 3996   1.636   1.353   9.980
 1146SOL     OW 3997   1.394   0.570   9.380
 1146SOL    HW1 3998   1.333   0.554   9.452
 1146SOL    HW2 3999   1.480   0.548   9.415
 1147SOL     OW 4000   0.523   0.264   9.633
 1147SOL    HW1 4001   0.568   0.213   9.565
 1147SOL    HW2 4002   0.509   0.350   9.592
 1148SOL     OW 4003   1.760   1.228  10.875
 1148SOL    HW1 4004   1.851   1.199  10.878
 1148SOL    HW2 4005   1.762   1.316  10.914
 1149SOL     OW 4006   1.065   1.354  10.650
 1149SOL    HW1 4007   0.987   1.321  10.695
 1149SOL    HW2 4008   1.138   1.306  10.690
 1150SOL     OW 4009   1.126   1.204  10.418
 1150SOL    HW1 4010   1.062   1.240  10.480
 1150SOL    HW2 4011   1.093   1.231  10.332
 1151SOL     OW 4012   1.632   1.100  10.388
 1151SOL    HW1 4013   1.628   1.162  10.461
 1151SOL    HW2 4014   1.551   1.116  10.340
 1152SOL     OW 4015   0.901   0.128  10.699
 1152SOL    HW1 4016   0.928   0.086  10.617
 1152SOL    HW2 4017   0.982   0.140  10.748
 1153SOL     OW 4018   0.708   1.060   9.683
 1153SOL    HW1 4019   0.696   1.046   9.777
 1153SOL    HW2 4020   0.784   1.007   9.660
 1154SOL     OW 4021   0.428   0.822  10.549
 1154SOL    HW1 4022   0.496   0.832  10.616
 1154SOL    HW2 4023   0.368   0.756  10.585
 1155SOL     OW 4024   1.271   0.381  10.581
 1155SOL    HW1 4025   1.300   0.459  10.628
 1155SOL    HW2 4026   1.182   0.403  10.551
 1156SOL     OW 4027   0.062   1.577  10.653
 1156SOL    HW1 4028   0.036   1.662  10.618
 1156SOL    HW2 4029   0.158   1.580  10.655
 1157SOL     OW 4030   0.351   1.106   9.804
 1157SOL    HW1 4031   0.360   1.180   9.743
 1157SOL    HW2 4032   0.354   1.029   9.748
 1158SOL     OW 4033   0.564   0.530  10.165
 1158SOL    HW1 4034   0.577   0.590  10.092
 1158SOL    HW2 4035   0.622   0.563  10.234
 1159SOL     OW 4036   1.248   1.348   9.699
 1159SOL    HW1 4037   1.303   1.420   9.730
 1159SOL    HW2 4038   1.161   1.368   9.733
 1160SOL     OW 4039   1.276   1.456  10.454
 1160SOL    HW1 4040   1.332   1.460  10.532
 1160SOL    HW2 4041   1.223   1.378  10.466
 1161SOL     OW 4042   1.583   0.625   9.785
 1161SOL    HW1 4043   1.539   0.679   9.851
 1161SOL    HW2 4044   1.628   0.688   9.729
 1162SOL     OW 4045   0.347   1.525  10.628
 1162SOL    HW1 4046   0.334   1.480  10.544
 1162SOL    HW2 4047   0.442   1.539  10.633
 1163SOL     OW 4048   0.481   0.749  10.967
 1163SOL    HW1 4049   0.511   0.787  10.884
 1163SOL    HW2 4050   0.509   0.657  10.962
 1164SOL     OW 4051   1.591   0.762  10.971
 1164SOL    HW1 4052   1.514   0.819  10.966
 1164SOL    HW2 4053   1.660   0.812  10.927
 1165SOL     OW 4054   0.587   0.874  10.334
 1165SOL    HW1 4055   0.616   0.965  10.336
 1165SOL    HW2 4056   0.531   0.864  10.411
 1166SOL     OW 4057   1.360   0.860  10.346
 1166SOL    HW1 4058   1.280   0.854  10.294
 1166SOL    HW2 4059   1.398   0.772  10.342
 1167SOL     OW 4060   1.207   0.534   9.577
 1167SOL    HW1 4061   1.213   0.454   9.628
 1167SOL    HW2 4062   1.164   0.597   9.635
 1168SOL     OW 4063   0.287   0.219  10.545
 1168SOL    HW1 4064   0.255   0.237  10.634
 1168SOL    HW2 4065   0.315   0.127  10.548
 1169SOL     OW 4066   0.048   1.314  10.593
 1169SOL    HW1 4067   0.077   1.266  10.671
 1169SOL    HW2 4068   0.048   1.406  10.621
 1170SOL     OW 4069   0.725   0.633  10.371
 1170SOL    HW1 4070   0.798   0.611  10.311
 1170SOL    HW2 4071   0.699   0.721  10.345
 1171SOL     OW 4072   0.317   0.076   9.941
 1171SOL    HW1 4073   0.301   0.164   9.975
 1171SOL    HW2 4074   0.305   0.018  10.017
 1172SOL     OW 4075   1.610   0.374   9.677
 1172SOL    HW1 4076   1.642   0.312   9.742
 1172SOL    HW2 4077   1.589   0.453   9.727
 1173SOL     OW 4078   1.027   0.761  10.272
 1173SOL    HW1 4079   1.027   0.777  10.367
 1173SOL    HW2 4080   0.999   0.670  10.264
 1174SOL     OW 4081   0.974   1.572  11.004
 1174SOL    HW1 4082   0.960   1.621  10.924
 1174SOL    HW2 4083   1.007   1.487  10.975
 1175SOL     OW 4084   1.860   1.496  10.912
 1175SOL    HW1 4085   1.872   1.531  10.823
 1175SOL    HW2 4086   1.926   1.542  10.964
 1176SOL     OW 4087   0.348   0.932  11.097
 1176SOL    HW1 4088   0.424   0.960   0.049
 1176SOL    HW2 4089   0.382   0.860  11.043
 1177SOL     OW 4090   1.532   0.267   9.438
 1177SOL    HW1 4091   1.460   0.211   9.465
 1177SOL    HW2 4092   1.560   0.312   9.518
 1178SOL     OW 4093   1.295   0.827   9.343
 1178SOL    HW1 4094   1.336   0.741   9.345
 1178SOL    HW2 4095   1.325   0.866   9.261
 1179SOL     OW 4096   1.065   1.334  10.163
 1179SOL    HW1 4097   1.068   1.262  10.101
 1179SOL    HW2 4098   1.128   1.398  10.128
 1180SOL     OW 4099   0.317   0.813  10.260
 1180SOL    HW1 4100   0.411   0.830  10.255
 1180SOL    HW2 4101   0.311   0.722  10.291
 1181SOL     OW 4102   0.337   0.527  10.304
 1181SOL    HW1 4103   0.292   0.445  10.286
 1181SOL    HW2 4104   0.414   0.526  10.247
 1182SOL     OW 4105   1.155   0.216  10.772
 1182SOL    HW1 4106   1.166   0.271  10.850
 1182SOL    HW2 4107   1.191   0.269  10.701
 1183SOL     OW 4108   4.492   1.323   9.511
 1183SOL    HW1 4109   4.399   1.338   9.494
 1183SOL    HW2 4110   4.498   1.231   9.535
 1184SOL     OW 4111   0.094   1.781  10.249
 1184SOL    HW1 4112   0.057   1.721  10.185
 1184SOL    HW2 4113   0.182   1.801  10.216
 1185SOL     OW 4114   0.499   1.573  10.216
 1185SOL    HW1 4115   0.567   1.636  10.239
 1185SOL    HW2 4116   0.544   1.508  10.162
 1186SOL     OW 4117   0.988   0.796  10.539
 1186SOL    HW1 4118   1.040   0.771  10.616
 1186SOL    HW2 4119   0.902   0.758  10.555
 1187SOL     OW 4120   0.037   0.563  10.418
 1187SOL    HW1 4121   0.116   0.522  10.382
 1187SOL    HW2 4122   0.028   0.525  10.505
 1188SOL     OW 4123   0.812   0.572   9.662
 1188SOL    HW1 4124   0.815   0.500   9.599
 1188SOL    HW2 4125   0.738   0.626   9.634
 1189SOL     OW 4126   1.642   0.601  10.499
 1189SOL    HW1 4127   1.632   0.542  10.573
 1189SOL    HW2 4128   1.729   0.581  10.464
 1190SOL     OW 4129   0.264   1.571  11.057
 1190SOL    HW1 4130   0.212   1.602   0.032
 1190SOL    HW2 4131   0.243   1.478  11.051
 1191SOL     OW 4132   0.688   0.462  10.577
 1191SOL    HW1 4133   0.647   0.383  10.543
 1191SOL    HW2 4134   0.693   0.521  10.502
 1192SOL     OW 4135   0.941   1.682  10.760
 1192SOL    HW1 4136   0.902   1.652  10.678
 1192SOL    HW2 4137   0.929   1.777  10.759
 1193SOL     OW 4138   0.473   0.491   9.496
 1193SOL    HW1 4139   0.532   0.563   9.517
 1193SOL    HW2 4140   0.388   0.533   9.483
 1194SOL     OW 4141   0.162   1.141  10.772
 1194SOL    HW1 4142   0.142   1.097  10.854
 1194SOL    HW2 4143   0.170   1.071  10.707
 1195SOL     OW 4144   1.327   1.054  10.539
 1195SOL    HW1 4145   1.355   0.989  10.473
 1195SOL    HW2 4146   1.255   1.100  10.497
 1196SOL     OW 4147   1.309   0.856   9.617
 1196SOL    HW1 4148   1.232   0.827   9.666
 1196SOL    HW2 4149   1.285   0.843   9.525
 1197SOL     OW 4150   1.764   1.748  10.458
 1197SOL    HW1 4151   1.827   1.775  10.391
 1197SOL    HW2 4152   1.744   1.657  10.438
 1198SOL     OW 4153   1.242   1.733  10.427
 1198SOL    HW1 4154   1.324   1.752  10.381
 1198SOL    HW2 4155   1.244   1.639  10.443
 1199SOL     OW 4156   0.068   1.189  10.358
 1199SOL    HW1 4157   0.074   1.224  10.447
 1199SOL    HW2 4158   0.011   1.250  10.312
 1200SOL     OW 4159   1.718   0.130   9.808
 1200SOL    HW1 4160   1.792   0.135   9.748
 1200SOL    HW2 4161   1.737   0.055   9.864
 1201SOL     OW 4162   1.390   1.568   9.793
 1201SOL    HW1 4163   1.450   1.598   9.725
 1201SOL    HW2 4164   1.342   1.646   9.820
 1202SOL     OW 4165   1.278   0.926   9.982
 1202SOL    HW1 4166   1.351   0.863   9.985
 1202SOL    HW2 4167   1.312   0.998   9.930
 1203SOL     OW 4168   0.822   1.272  10.739
 1203SOL    HW1 4169   0.793   1.307  10.824
 1203SOL    HW2 4170   0.751   1.294  10.679
 1204SOL     OW 4171   0.673   1.616   9.465
 1204SOL    HW1 4172   0.681   1.627   9.370
 1204SOL    HW2 4173   0.620   1.538   9.476
 1205SOL     OW 4174   1.627   1.719  10.700
 1205SOL    HW1 4175   1.679   1.734  10.621
 1205SOL    HW2 4176   1.612   1.807  10.736
 1206SOL     OW 4177   1.839   0.156  10.277
 1206SOL    HW1 4178   1.868   0.079  10.228
 1206SOL    HW2 4179   1.752   0.176  10.242
 1207SOL     OW 4180   0.267   0.326  10.035
 1207SOL    HW1 4181   0.184   0.361  10.001
 1207SOL    HW2 4182   0.252   0.317  10.129
 1208SOL     OW 4183   1.205   1.608   9.341
 1208SOL    HW1 4184   1.197   1.517   9.368
 1208SOL    HW2 4185   1.141   1.618   9.271
 1209SOL     OW 4186   0.825   1.006  10.684
 1209SOL    HW1 4187   0.867   1.001  10.598
 1209SOL    HW2 4188   0.827   1.099  10.706
 1210SOL     OW 4189   0.915   0.910   9.599
 1210SOL    HW1 4190   0.977   0.942   9.534
 1210SOL    HW2 4191   0.961   0.839   9.644
 1211SOL     OW 4192   1.495   1.624   9.352
 1211SOL    HW1 4193   1.400   1.621   9.340
 1211SOL    HW2 4194   1.530   1.630   9.263
 1212SOL     OW 4195   0.369   1.307  10.805
 1212SOL    HW1 4196   0.356   1.383  10.748
 1212SOL    HW2 4197   0.295   1.249  10.785
 1213SOL     OW 4198   1.612   1.283  10.593
 1213SOL    HW1 4199   1.670   1.274  10.669
 1213SOL    HW2 4200   1.555   1.356  10.615
 1214SOL     OW 4201   1.048   1.105  10.015
 1214SOL    HW1 4202   0.978   1.054  10.055
 1214SOL    HW2 4203   1.109   1.040   9.981
 1215SOL     OW 4204   1.007   0.241  10.307
 1215SOL    HW1 4205   1.015   0.212  10.216
 1215SOL    HW2 4206   1.001   0.160  10.357
 1216SOL     OW 4207   0.602   1.489   9.793
 1216SOL    HW1 4208   0.641   1.439   9.722
 1216SOL    HW2 4209   0.533   1.540   9.752
 1217SOL     OW 4210   1.717   0.393  10.688
 1217SOL    HW1 4211   1.788   0.457  10.689
 1217SOL    HW2 4212   1.747   0.323  10.630
 1218SOL     OW 4213   0.252   1.345   9.588
 1218SOL    HW1 4214   0.157   1.346   9.573
 1218SOL    HW2 4215   0.263   1.378   9.677
 1219SOL     OW 4216   0.110   1.017  11.006
 1219SOL    HW1 4217   0.049   1.018  11.080
 1219SOL    HW2 4218   0.196   1.000  11.046
 1220SOL     OW 4219   0.657   0.198  10.803
 1220SOL    HW1 4220   0.736   0.173  10.755
 1220SOL    HW2 4221   0.689   0.224  10.890
 1221SOL     OW 4222   0.070   0.321   9.336
 1221SOL    HW1 4223   4.475   0.330   9.346
 1221SOL    HW2 4224   0.099   0.407   9.305
 1222SOL     OW 4225   1.431   0.849  10.709
 1222SOL    HW1 4226   1.383   0.916  10.661
 1222SOL    HW2 4227   1.522   0.859  10.681
 1223SOL     OW 4228   0.083   0.189   9.613
 1223SOL    HW1 4229   0.080   0.260   9.550
 1223SOL    HW2 4230   0.161   0.138   9.589
 1224SOL     OW 4231   1.180   1.341   9.427
 1224SOL    HW1 4232   1.089   1.312   9.430
 1224SOL    HW2 4233   1.209   1.341   9.518
 1225SOL     OW 4234   0.621   0.830  10.737
 1225SOL    HW1 4235   0.675   0.908  10.725
 1225SOL    HW2 4236   0.684   0.758  10.747
 1226SOL     OW 4237   1.486   1.774  10.285
 1226SOL    HW1 4238   1.512   1.832  10.214
 1226SOL    HW2 4239   1.566   1.760  10.336
 1227SOL     OW 4240   0.715   0.561  11.015
 1227SOL    HW1 4241   0.744   0.634  11.070
 1227SOL    HW2 4242   0.767   0.486  11.044
 1228SOL     OW 4243   0.384   1.736  10.870
 1228SOL    HW1 4244   0.306   1.791  10.865
 1228SOL    HW2 4245   0.359   1.663  10.927
 1229SOL     OW 4246   1.673   0.883  10.566
 1229SOL    HW1 4247   1.662   0.798  10.524
 1229SOL    HW2 4248   1.664   0.946  10.496
 1230SOL     OW 4249   1.218   0.327   9.758
 1230SOL    HW1 4250   1.283   0.258   9.749
 1230SOL    HW2 4251   1.245   0.374   9.837
 1231SOL     OW 4252   0.588   0.740   9.978
 1231SOL    HW1 4253   0.630   0.825   9.961
 1231SOL    HW2 4254   0.519   0.733   9.913
 1232SOL     OW 4255   1.756   0.316  10.948
 1232SOL    HW1 4256   1.737   0.356  10.864
 1232SOL    HW2 4257   1.677   0.330  11.000
 1233SOL     OW 4258   1.748   0.935  10.825
 1233SOL    HW1 4259   1.743   1.030  10.839
 1233SOL    HW2 4260   1.731   0.924  10.732
 1234SOL     OW 4261   0.863   1.368   9.340
 1234SOL    HW1 4262   0.823   1.395   9.423
 1234SOL    HW2 4263   0.882   1.451   9.295
 1235SOL     OW 4264   0.659   1.794  10.259
 1235SOL    HW1 4265   0.637   1.884  10.233
 1235SOL    HW2 4266   0.754   1.790  10.249
 1236SOL     OW 4267   0.866   0.965  10.166
 1236SOL    HW1 4268   0.916   0.894  10.206
 1236SOL    HW2 4269   0.833   1.016  10.240
 1237SOL     OW 4270   1.080   0.988   9.399
 1237SOL    HW1 4271   1.058   1.038   9.320
 1237SOL    HW2 4272   1.156   0.935   9.373
 1238SOL     OW 4273   1.858   1.556  10.154
 1238SOL    HW1 4274   1.780   1.546  10.101
 1238SOL    HW2 4275   1.848   1.491  10.224
 1239SOL     OW 4276   0.102   1.240   9.976
 1239SOL    HW1 4277   0.105   1.188  10.057
 1239SOL    HW2 4278   0.162   1.196   9.917
 1240SOL     OW 4279   0.678   1.394  10.934
 1240SOL    HW1 4280   0.605   1.344  10.970
 1240SOL    HW2 4281   0.651   1.485  10.942
 1241SOL     OW 4282   1.807   0.182  10.549
 1241SOL    HW1 4283   1.816   0.089  10.570
 1241SOL    HW2 4284   1.823   0.188  10.455
 1242SOL     OW 4285   0.437   0.431   9.839
 1242SOL    HW1 4286   0.458   0.360   9.778
 1242SOL    HW2 4287   0.381   0.391   9.904
 1243SOL     OW 4288   1.703   1.490  10.408
 1243SOL    HW1 4289   1.621   1.464  10.367
 1243SOL    HW2 4290   1.719   1.424  10.475
 1244SOL     OW 4291   0.309   0.505  10.569
 1244SOL    HW1 4292   0.376   0.456  10.616
 1244SOL    HW2 4293   0.341   0.511  10.479
 1245SOL     OW 4294   0.825   1.578   9.990
 1245SOL    HW1 4295   0.819   1.623   9.906
 1245SOL    HW2 4296   0.746   1.524   9.993
 1246SOL     OW 4297   1.431   0.214  10.429
 1246SOL    HW1 4298   1.471   0.147  10.483
 1246SOL    HW2 4299   1.381   0.268  10.490
 1247SOL     OW 4300   0.997   0.013  10.457
 1247SOL    HW1 4301   0.951   4.430  10.447
 1247SOL    HW2 4302   1.088   4.488  10.473
 1248SOL     OW 4303   0.771   1.332   9.620
 1248SOL    HW1 4304   0.738   1.243   9.627
 1248SOL    HW2 4305   0.854   1.330   9.669
 1249SOL     OW 4306   0.620   1.558  10.595
 1249SOL    HW1 4307   0.622   1.640  10.644
 1249SOL    HW2 4308   0.707   1.552  10.555
 1250SOL     OW 4309   1.342   0.054   9.462
 1250SOL    HW1 4310   1.382   4.479   9.417
 1250SOL    HW2 4311   1.267   0.017   9.508
 1251SOL     OW 4312   1.314   0.462   9.991
 1251SOL    HW1 4313   1.252   0.535   9.992
 1251SOL    HW2 4314   1.302   0.419  10.075
 1252SOL     OW 4315   1.586   0.203  10.178
 1252SOL    HW1 4316   1.525   0.217  10.250
 1252SOL    HW2 4317   1.589   0.287  10.132
 1253SOL     OW 4318   0.041   1.054   9.597
 1253SOL    HW1 4319   0.136   1.043   9.590
 1253SOL    HW2 4320   0.018   1.013   9.680
 1254SOL     OW 4321   0.881   1.649   9.655
 1254SOL    HW1 4322   0.810   1.631   9.593
 1254SOL    HW2 4323   0.851   1.726   9.704
 1255SOL     OW 4324   0.244   2.461   0.109
 1255SOL    HW1 4325   0.170   2.464   0.170
 1255SOL    HW2 4326   0.208   2.493   0.026
 1256SOL     OW 4327   0.213   2.138   0.992
 1256SOL    HW1 4328   0.250   2.112   1.076
 1256SOL    HW2 4329   0.137   2.081   0.980
 1257SOL     OW 4330   0.010   2.249   0.638
 1257SOL    HW1 4331   4.430   2.278   0.682
 1257SOL    HW2 4332   4.485   2.167   0.595
 1258SOL     OW 4333   0.567   3.144   1.172
 1258SOL    HW1 4334   0.479   3.148   1.134
 1258SOL    HW2 4335   0.582   3.232   1.208
 1259SOL     OW 4336   1.557   3.373   0.705
 1259SOL    HW1 4337   1.513   3.355   0.788
 1259SOL    HW2 4338   1.487   3.378   0.641
 1260SOL     OW 4339   1.129   2.561   0.704
 1260SOL    HW1 4340   1.180   2.641   0.689
 1260SOL    HW2 4341   1.083   2.577   0.786
 1261SOL     OW 4342   1.768   2.467   0.226
 1261SOL    HW1 4343   1.736   2.459   0.137
 1261SOL    HW2 4344   1.732   2.391   0.272
 1262SOL     OW 4345   0.759   3.006   1.037
 1262SOL    HW1 4346   0.689   3.040   1.093
 1262SOL    HW2 4347   0.793   3.084   0.992
 1263SOL     OW 4348   0.862   2.642   1.821
 1263SOL    HW1 4349   0.849   2.714   1.883
 1263SOL    HW2 4350   0.885   2.685   1.738
 1264SOL     OW 4351   0.686   2.869   0.649
 1264SOL    HW1 4352   0.750   2.854   0.719
 1264SOL    HW2 4353   0.616   2.919   0.691
 1265SOL     OW 4354   0.708   3.013   1.810
 1265SOL    HW1 4355   0.755   3.093   1.833
 1265SOL    HW2 4356   0.624   3.044   1.775
 1266SOL     OW 4357   0.337   3.286   1.070
 1266SOL    HW1 4358   0.255   3.266   1.023
 1266SOL    HW2 4359   0.387   3.340   1.009
 1267SOL     OW 4360   1.462   3.360   1.350
 1267SOL    HW1 4361   1.505   3.445   1.361
 1267SOL    HW2 4362   1.407   3.351   1.428
 1268SOL     OW 4363   0.442   2.266   1.496
 1268SOL    HW1 4364   0.522   2.213   1.498
 1268SOL    HW2 4365   0.371   2.202   1.499
 1269SOL     OW 4366   1.612   2.311   0.741
 1269SOL    HW1 4367   1.537   2.336   0.687
 1269SOL    HW2 4368   1.634   2.389   0.791
 1270SOL     OW 4369   0.245   3.553   0.483
 1270SOL    HW1 4370   0.234   3.640   0.523
 1270SOL    HW2 4371   0.299   3.569   0.406
 1271SOL     OW 4372   1.136   3.203   1.691
 1271SOL    HW1 4373   1.175   3.199   1.778
 1271SOL    HW2 4374   1.083   3.123   1.685
 1272SOL     OW 4375   0.242   3.290   0.529
 1272SOL    HW1 4376   0.237   3.385   0.532
 1272SOL    HW2 4377   0.176   3.260   0.591
 1273SOL     OW 4378   0.244   2.943   0.882
 1273SOL    HW1 4379   0.263   2.856   0.917
 1273SOL    HW2 4380   0.187   2.984   0.948
 1274SOL     OW 4381   0.617   3.652   1.433
 1274SOL    HW1 4382   0.533   3.635   1.475
 1274SOL    HW2 4383   0.637   3.743   1.456
 1275SOL     OW 4384   0.578   2.852   0.143
 1275SOL    HW1 4385   0.621   2.899   0.072
 1275SOL    HW2 4386   0.628   2.875   0.221
 1276SOL     OW 4387   1.591   1.982   1.469
 1276SOL    HW1 4388   1.598   2.060   1.415
 1276SOL    HW2 4389   1.585   2.015   1.559
 1277SOL     OW 4390   0.137   2.506   0.575
 1277SOL    HW1 4391   0.087   2.426   0.588
 1277SOL    HW2 4392   0.106   2.565   0.644
 1278SOL     OW 4393   1.841   3.624   0.337
 1278SOL    HW1 4394   1.901   3.593   0.405
 1278SOL    HW2 4395   1.871   3.713   0.317
 1279SOL     OW 4396   0.069   3.455   0.150
 1279SOL    HW1 4397   0.034   3.366   0.151
 1279SOL    HW2 4398   0.012   3.505   0.209
 1280SOL     OW 4399   1.690   2.781   0.638
 1280SOL    HW1 4400   1.775   2.741   0.617
 1280SOL    HW2 4401   1.668   2.832   0.560
 1281SOL     OW 4402   1.645   2.969   0.432
 1281SOL    HW1 4403   1.727   2.981   0.384
 1281SOL    HW2 4404   1.650   3.030   0.505
 1282SOL     OW 4405   0.111   2.621   1.590
 1282SOL    HW1 4406   0.205   2.622   1.576
 1282SOL    HW2 4407   0.086   2.713   1.593
 1283SOL     OW 4408   0.613   3.244   0.735
 1283SOL    HW1 4409   0.566   3.161   0.744
 1283SOL    HW2 4410   0.596   3.272   0.645
 1284SOL     OW 4411   1.291   3.101   1.424
 1284SOL    HW1 4412   1.323   3.033   1.365
 1284SOL    HW2 4413   1.346   3.093   1.502
 1285SOL     OW 4414   0.813   1.861   0.505
 1285SOL    HW1 4415   0.852   1.947   0.491
 1285SOL    HW2 4416   0.719   1.879   0.516
 1286SOL     OW 4417   0.184   2.807   1.279
 1286SOL    HW1 4418   0.275   2.789   1.256
 1286SOL    HW2 4419   0.133   2.781   1.202
 1287SOL     OW 4420   1.521   2.861   0.200
 1287SOL    HW1 4421   1.458   2.797   0.231
 1287SOL    HW2 4422   1.568   2.889   0.278
 1288SOL     OW 4423   1.186   3.666   1.620
 1288SOL    HW1 4424   1.200   3.722   1.544
 1288SOL    HW2 4425   1.200   3.577   1.587
 1289SOL     OW 4426   0.328   2.117   1.795
 1289SOL    HW1 4427   0.381   2.190   1.828
 1289SOL    HW2 4428   0.243   2.128   1.838
 1290SOL     OW 4429   1.466   3.282   0.953
 1290SOL    HW1 4430   1.397   3.295   1.019
 1290SOL    HW2 4431   1.454   3.191   0.925
 1291SOL     OW 4432   1.661   3.595   0.579
 1291SOL    HW1 4433   1.639   3.568   0.490
 1291SOL    HW2 4434   1.634   3.521   0.633
 1292SOL     OW 4435   0.596   2.583   0.263
 1292SOL    HW1 4436   0.602   2.662   0.211
 1292SOL    HW2 4437   0.532   2.604   0.331
 1293SOL     OW 4438   1.280   2.210   0.932
 1293SOL    HW1 4439   1.190   2.177   0.940
 1293SOL    HW2 4440   1.330   2.158   0.994
 1294SOL     OW 4441   1.582   3.531   0.311
 1294SOL    HW1 4442   1.672   3.564   0.305
 1294SOL    HW2 4443   1.557   3.512   0.221
 1295SOL     OW 4444   0.794   2.478   1.453
 1295SOL    HW1 4445   0.768   2.456   1.542
 1295SOL    HW2 4446   0.750   2.414   1.398
 1296SOL     OW 4447   1.393   2.336   1.678
 1296SOL    HW1 4448   1.394   2.379   1.763
 1296SOL    HW2 4449   1.458   2.266   1.686
 1297SOL     OW 4450   0.958   2.751   1.581
 1297SOL    HW1 4451   1.012   2.679   1.546
 1297SOL    HW2 4452   0.911   2.784   1.504
 1298SOL     OW 4453   0.993   2.276   1.239
 1298SOL    HW1 4454   0.910   2.299   1.282
 1298SOL    HW2 4455   0.967   2.227   1.161
 1299SOL     OW 4456   1.049   2.563   0.427
 1299SOL    HW1 4457   1.064   2.555   0.522
 1299SOL    HW2 4458   0.967   2.516   0.412
 1300SOL     OW 4459   0.098   2.685   0.783
 1300SOL    HW1 4460   0.184   2.665   0.820
 1300SOL    HW2 4461   0.053   2.734   0.853
 1301SOL     OW 4462   0.126   3.712   1.575
 1301SOL    HW1 4463   0.119   3.690   1.668
 1301SOL    HW2 4464   0.044   3.681   1.537
 1302SOL     OW 4465   0.885   2.216   0.206
 1302SOL    HW1 4466   0.934   2.270   0.145
 1302SOL    HW2 4467   0.899   2.126   0.177
 1303SOL     OW 4468   1.713   2.443   1.829
 1303SOL    HW1 4469   1.675   2.518   1.783
 1303SOL    HW2 4470   1.730   2.378   1.760
 1304SOL     OW 4471   1.375   3.004   0.542
 1304SOL    HW1 4472   1.453   2.989   0.489
 1304SOL    HW2 4473   1.323   3.066   0.492
 1305SOL     OW 4474   0.551   2.046   0.892
 1305SOL    HW1 4475   0.553   2.074   0.984
 1305SOL    HW2 4476   0.552   2.128   0.842
 1306SOL     OW 4477   1.009   3.308   0.475
 1306SOL    HW1 4478   0.967   3.379   0.425
 1306SOL    HW2 4479   0.993   3.330   0.566
 1307SOL     OW 4480   0.354   3.669   0.857
 1307SOL    HW1 4481   0.397   3.584   0.867
 1307SOL    HW2 4482   0.425   3.733   0.868
 1308SOL     OW 4483   1.799   2.920   0.867
 1308SOL    HW1 4484   1.742   2.906   0.791
 1308SOL    HW2 4485   1.738   2.926   0.941
 1309SOL     OW 4486   1.228   3.402   1.512
 1309SOL    HW1 4487   1.214   3.329   1.572
 1309SOL    HW2 4488   1.167   3.385   1.440
 1310SOL     OW 4489   0.315   2.818   0.276
 1310SOL    HW1 4490   0.398   2.845   0.237
 1310SOL    HW2 4491   0.304   2.728   0.247
 1311SOL     OW 4492   1.475   2.600   0.727
 1311SOL    HW1 4493   1.464   2.554   0.811
 1311SOL    HW2 4494   1.552   2.656   0.741
 1312SOL     OW 4495   0.465   3.123   1.735
 1312SOL    HW1 4496   0.437   3.130   1.644
 1312SOL    HW2 4497   0.384   3.128   1.786
 1313SOL     OW 4498   1.107   3.640   0.227
 1313SOL    HW1 4499   1.050   3.588   0.282
 1313SOL    HW2 4500   1.147   3.577   0.166
 1314SOL     OW 4501   0.195   2.140   1.487
 1314SOL    HW1 4502   0.131   2.211   1.492
 1314SOL    HW2 4503   0.186   2.094   1.571
 1315SOL     OW 4504   1.629   3.237   0.088
 1315SOL    HW1 4505   1.586   3.322   0.076
 1315SOL    HW2 4506   1.562   3.173   0.062
 1316SOL     OW 4507   0.470   3.604   0.316
 1316SOL    HW1 4508   0.506   3.659   0.386
 1316SOL    HW2 4509   0.546   3.578   0.265
 1317SOL     OW 4510   1.401   1.970   0.430
 1317SOL    HW1 4511   1.391   1.946   0.337
 1317SOL    HW2 4512   1.496   1.978   0.442
 1318SOL     OW 4513   0.260   3.656   1.234
 1318SOL    HW1 4514   0.306   3.583   1.275
 1318SOL    HW2 4515   0.229   3.622   1.150
 1319SOL     OW 4516   0.939   3.560   0.900
 1319SOL    HW1 4517   1.015   3.506   0.921
 1319SOL    HW2 4518   0.892   3.512   0.832
 1320SOL     OW 4519   0.391   2.557   0.473
 1320SOL    HW1 4520   0.417   2.465   0.484
 1320SOL    HW2 4521   0.300   2.560   0.502
 1321SOL     OW 4522   1.538   2.086   1.726
 1321SOL    HW1 4523   1.544   2.107   1.820
 1321SOL    HW2 4524   1.470   2.019   1.721
 1322SOL     OW 4525   0.613   1.969   0.122
 1322SOL    HW1 4526   0.704   1.941   0.123
 1322SOL    HW2 4527   0.584   1.954   0.032
 1323SOL     OW 4528   0.768   2.137   1.752
 1323SOL    HW1 4529   0.841   2.075   1.759
 1323SOL    HW2 4530   0.718   2.124   1.833
 1324SOL     OW 4531   0.878   3.384   1.193
 1324SOL    HW1 4532   0.862   3.347   1.106
 1324SOL    HW2 4533   0.946   3.328   1.230
 1325SOL     OW 4534   1.341   2.451   1.432
 1325SOL    HW1 4535   1.372   2.418   1.516
 1325SOL    HW2 4536   1.378   2.539   1.426
 1326SOL     OW 4537   0.813   3.260   0.936
 1326SOL    HW1 4538   0.897   3.250   0.890
 1326SOL    HW2 4539   0.747   3.258   0.866
 1327SOL     OW 4540   0.926   2.371   0.904
 1327SOL    HW1 4541   0.904   2.363   0.811
 1327SOL    HW2 4542   0.960   2.285   0.928
 1328SOL     OW 4543   0.550   1.923   0.506
 1328SOL    HW1 4544   0.468   1.922   0.556
 1328SOL    HW2 4545   0.545   2.002   0.452
 1329SOL     OW 4546   1.427   3.058   0.032
 1329SOL    HW1 4547   1.460   2.986   0.084
 1329SOL    HW2 4548   1.343   3.081   0.072
 1330SOL     OW 4549   0.287   1.911   0.192
 1330SOL    HW1 4550   0.337   1.962   0.129
 1330SOL    HW2 4551   0.348   1.844   0.223
 1331SOL     OW 4552   0.937   2.105   0.464
 1331SOL    HW1 4553   0.907   2.152   0.386
 1331SOL    HW2 4554   1.032   2.120   0.466
 1332SOL     OW 4555   1.080   2.541   1.460
 1332SOL    HW1 4556   1.010   2.476   1.466
 1332SOL    HW2 4557   1.160   2.489   1.452
 1333SOL     OW 4558   1.225   3.431   0.794
 1333SOL    HW1 4559   1.243   3.499   0.728
 1333SOL    HW2 4560   1.293   3.443   0.860
 1334SOL     OW 4561   0.466   3.009   0.740
 1334SOL    HW1 4562   0.394   2.991   0.800
 1334SOL    HW2 4563   0.430   2.995   0.653
 1335SOL     OW 4564   1.271   3.657   0.604
 1335SOL    HW1 4565   1.316   3.719   0.546
 1335SOL    HW2 4566   1.207   3.711   0.651
 1336SOL     OW 4567   1.015   2.401   0.034
 1336SOL    HW1 4568   0.983   2.488   0.009
 1336SOL    HW2 4569   1.093   2.418   0.086
 1337SOL     OW 4570   0.080   2.395   1.407
 1337SOL    HW1 4571   0.149   2.396   1.341
 1337SOL    HW2 4572   0.068   2.487   1.430
 1338SOL     OW 4573   0.562   2.089   1.164
 1338SOL    HW1 4574   0.602   2.008   1.196
 1338SOL    HW2 4575   0.470   2.083   1.191
 1339SOL     OW 4576   0.870   2.322   0.640
 1339SOL    HW1 4577   0.823   2.376   0.576
 1339SOL    HW2 4578   0.888   2.240   0.594
 1340SOL     OW 4579   1.014   1.914   0.753
 1340SOL    HW1 4580   0.955   1.907   0.679
 1340SOL    HW2 4581   0.994   1.839   0.808
 1341SOL     OW 4582   1.436   3.026   0.858
 1341SOL    HW1 4583   1.368   2.958   0.856
 1341SOL    HW2 4584   1.459   3.039   0.766
 1342SOL     OW 4585   1.467   2.464   0.981
 1342SOL    HW1 4586   1.420   2.381   0.985
 1342SOL    HW2 4587   1.527   2.461   1.056
 1343SOL     OW 4588   1.850   2.679   0.382
 1343SOL    HW1 4589   1.905   2.625   0.439
 1343SOL    HW2 4590   1.820   2.618   0.314
 1344SOL     OW 4591   0.494   3.283   0.175
 1344SOL    HW1 4592   0.415   3.257   0.223
 1344SOL    HW2 4593   0.487   3.239   0.090
 1345SOL     OW 4594   1.668   3.127   0.651
 1345SOL    HW1 4595   1.763   3.134   0.661
 1345SOL    HW2 4596   1.636   3.215   0.670
 1346SOL     OW 4597   1.390   2.442   0.079
 1346SOL    HW1 4598   1.332   2.417   0.151
 1346SOL    HW2 4599   1.463   2.380   0.085
 1347SOL     OW 4600   0.529   2.124   0.328
 1347SOL    HW1 4601   0.555   2.066   0.257
 1347SOL    HW2 4602   0.513   2.209   0.285
 1348SOL     OW 4603   1.753   3.098   1.576
 1348SOL    HW1 4604   1.841   3.059   1.574
 1348SOL    HW2 4605   1.768   3.188   1.606
 1349SOL     OW 4606   1.061   3.216   1.335
 1349SOL    HW1 4607   0.986   3.184   1.386
 1349SOL    HW2 4608   1.137   3.174   1.376
 1350SOL     OW 4609   1.606   3.487   1.651
 1350SOL    HW1 4610   1.603   3.521   1.562
 1350SOL    HW2 4611   1.689   3.441   1.657
 1351SOL     OW 4612   1.126   3.064   1.107
 1351SOL    HW1 4613   1.067   3.101   1.173
 1351SOL    HW2 4614   1.091   3.094   1.023
 1352SOL     OW 4615   1.631   2.962   1.078
 1352SOL    HW1 4616   1.627   3.024   1.151
 1352SOL    HW2 4617   1.551   2.977   1.029
 1353SOL     OW 4618   0.917   1.961   1.399
 1353SOL    HW1 4619   0.940   1.941   1.308
 1353SOL    HW2 4620   0.997   2.000   1.435
 1354SOL     OW 4621   0.984   2.976   1.722
 1354SOL    HW1 4622   0.891   2.991   1.741
 1354SOL    HW2 4623   0.985   2.899   1.666
 1355SOL     OW 4624   0.709   2.921   0.373
 1355SOL    HW1 4625   0.695   2.908   0.467
 1355SOL    HW2 4626   0.786   2.868   0.352
 1356SOL     OW 4627   0.429   2.684   1.238
 1356SOL    HW1 4628   0.498   2.696   1.304
 1356SOL    HW2 4629   0.369   2.620   1.278
 1357SOL     OW 4630   1.267   2.240   1.272
 1357SOL    HW1 4631   1.299   2.318   1.319
 1357SOL    HW2 4632   1.178   2.263   1.247
 1358SOL     OW 4633   0.061   3.437   1.338
 1358SOL    HW1 4634   0.033   3.526   1.315
 1358SOL    HW2 4635   0.156   3.444   1.346
 1359SOL     OW 4636   0.354   2.974   0.499
 1359SOL    HW1 4637   0.355   3.048   0.438
 1359SOL    HW2 4638   0.347   2.897   0.442
 1360SOL     OW 4639   0.562   2.397   0.857
 1360SOL    HW1 4640   0.576   2.457   0.784
 1360SOL    HW2 4641   0.621   2.429   0.926
 1361SOL     OW 4642   1.247   3.208   0.393
 1361SOL    HW1 4643   1.303   3.281   0.421
 1361SOL    HW2 4644   1.160   3.231   0.425
 1362SOL     OW 4645   1.277   3.318   1.146
 1362SOL    HW1 4646   1.331   3.319   1.224
 1362SOL    HW2 4647   1.221   3.240   1.157
 1363SOL     OW 4648   1.585   2.489   0.477
 1363SOL    HW1 4649   1.538   2.542   0.541
 1363SOL    HW2 4650   1.624   2.553   0.416
 1364SOL     OW 4651   0.348   3.391   1.318
 1364SOL    HW1 4652   0.333   3.344   1.236
 1364SOL    HW2 4653   0.443   3.401   1.322
 1365SOL     OW 4654   0.471   2.621   1.660
 1365SOL    HW1 4655   0.501   2.661   1.578
 1365SOL    HW2 4656   0.505   2.531   1.656
 1366SOL     OW 4657   1.598   2.641   1.680
 1366SOL    HW1 4658   1.511   2.680   1.672
 1366SOL    HW2 4659   1.650   2.682   1.611
 1367SOL     OW 4660   0.997   1.980   1.757
 1367SOL    HW1 4661   1.048   2.053   1.723
 1367SOL    HW2 4662   1.046   1.902   1.730
 1368SOL     OW 4663   0.498   1.906   1.746
 1368SOL    HW1 4664   0.459   1.849   1.679
 1368SOL    HW2 4665   0.437   1.979   1.755
 1369SOL     OW 4666   0.588   2.735   1.024
 1369SOL    HW1 4667   0.616   2.827   1.026
 1369SOL    HW2 4668   0.531   2.726   1.100
 1370SOL     OW 4669   1.361   2.721   1.034
 1370SOL    HW1 4670   1.280   2.715   0.983
 1370SOL    HW2 4671   1.398   2.633   1.031
 1371SOL     OW 4672   1.205   2.389   0.272
 1371SOL    HW1 4673   1.213   2.311   0.327
 1371SOL    HW2 4674   1.164   2.454   0.328
 1372SOL     OW 4675   0.303   2.056   1.241
 1372SOL    HW1 4676   0.265   2.091   1.322
 1372SOL    HW2 4677   0.285   1.962   1.244
 1373SOL     OW 4678   0.048   3.175   1.284
 1373SOL    HW1 4679   0.078   3.128   1.361
 1373SOL    HW2 4680   0.049   3.267   1.309
 1374SOL     OW 4681   0.727   2.495   1.061
 1374SOL    HW1 4682   0.799   2.475   1.001
 1374SOL    HW2 4683   0.699   2.583   1.037
 1375SOL     OW 4684   1.732   2.823   1.850
 1375SOL    HW1 4685   1.686   2.765   1.790
 1375SOL    HW2 4686   1.673   2.833   1.924
 1376SOL     OW 4687   0.308   1.933   0.620
 1376SOL    HW1 4688   0.287   2.021   0.649
 1376SOL    HW2 4689   0.303   1.879   0.699
 1377SOL     OW 4690   1.613   2.234   0.369
 1377SOL    HW1 4691   1.642   2.171   0.435
 1377SOL    HW2 4692   1.590   2.312   0.419
 1378SOL     OW 4693   1.027   2.622   0.962
 1378SOL    HW1 4694   1.027   2.639   1.056
 1378SOL    HW2 4695   1.000   2.530   0.955
 1379SOL     OW 4696   0.983   3.429   1.714
 1379SOL    HW1 4697   0.967   3.472   1.631
 1379SOL    HW2 4698   1.025   3.346   1.690
 1380SOL     OW 4699   1.856   3.372   1.606
 1380SOL    HW1 4700   1.873   3.397   1.515
 1380SOL    HW2 4701   1.937   3.392   1.652
 1381SOL     OW 4702   0.348   2.792   1.818
 1381SOL    HW1 4703   0.422   2.819   1.871
 1381SOL    HW2 4704   0.383   2.726   1.758
 1382SOL     OW 4705   1.536   2.147   0.119
 1382SOL    HW1 4706   1.475   2.075   0.136
 1382SOL    HW2 4707   1.567   2.174   0.205
 1383SOL     OW 4708   1.290   2.688   0.033
 1383SOL    HW1 4709   1.333   2.603   0.045
 1383SOL    HW2 4710   1.323   2.720  11.050
 1384SOL     OW 4711   1.065   3.197   0.852
 1384SOL    HW1 4712   1.068   3.124   0.790
 1384SOL    HW2 4713   1.128   3.260   0.818
 1385SOL     OW 4714   0.317   2.674   0.950
 1385SOL    HW1 4715   0.411   2.692   0.946
 1385SOL    HW2 4716   0.310   2.584   0.980
 1386SOL     OW 4717   0.333   2.385   0.994
 1386SOL    HW1 4718   0.295   2.299   0.978
 1386SOL    HW2 4719   0.411   2.387   0.937
 1387SOL     OW 4720   1.134   2.241   1.679
 1387SOL    HW1 4721   1.089   2.296   1.743
 1387SOL    HW2 4722   1.223   2.277   1.675
 1388SOL     OW 4723   1.159   2.067   1.470
 1388SOL    HW1 4724   1.151   2.129   1.541
 1388SOL    HW2 4725   1.198   2.117   1.398
 1389SOL     OW 4726   4.495   3.186   0.197
 1389SOL    HW1 4727   4.401   3.203   0.188
 1389SOL    HW2 4728   0.001   3.095   0.224
 1390SOL     OW 4729   0.094   3.644   0.940
 1390SOL    HW1 4730   0.056   3.584   0.876
 1390SOL    HW2 4731   0.182   3.662   0.906
 1391SOL     OW 4732   0.499   3.435   0.906
 1391SOL    HW1 4733   0.567   3.498   0.930
 1391SOL    HW2 4734   0.544   3.370   0.852
 1392SOL     OW 4735   0.988   2.657   1.228
 1392SOL    HW1 4736   1.041   2.631   1.304
 1392SOL    HW2 4737   0.901   2.621   1.246
 1393SOL     OW 4738   0.037   2.423   1.106
 1393SOL    HW1 4739   0.119   2.386   1.074
 1393SOL    HW2 4740   0.028   2.387   1.194
 1394SOL     OW 4741   0.179   2.377   1.713
 1394SOL    HW1 4742   0.258   2.349   1.667
 1394SOL    HW2 4743   0.153   2.458   1.670
 1395SOL     OW 4744   1.375   2.804   1.659
 1395SOL    HW1 4745   1.396   2.897   1.659
 1395SOL    HW2 4746   1.374   2.779   1.567
 1396SOL     OW 4747   0.815   2.435   0.360
 1396SOL    HW1 4748   0.823   2.360   0.301
 1396SOL    HW2 4749   0.739   2.484   0.327
 1397SOL     OW 4750   1.641   2.464   1.191
 1397SOL    HW1 4751   1.632   2.401   1.262
 1397SOL    HW2 4752   1.729   2.448   1.155
 1398SOL     OW 4753   0.272   3.423   1.742
 1398SOL    HW1 4754   0.217   3.476   1.800
 1398SOL    HW2 4755   0.250   3.333   1.765
 1399SOL     OW 4756   0.686   2.319   1.265
 1399SOL    HW1 4757   0.644   2.240   1.229
 1399SOL    HW2 4758   0.690   2.379   1.191
 1400SOL     OW 4759   0.931   3.541   1.466
 1400SOL    HW1 4760   0.903   3.510   1.380
 1400SOL    HW2 4761   0.929   3.636   1.459
 1401SOL     OW 4762   0.476   2.347   0.186
 1401SOL    HW1 4763   0.532   2.422   0.207
 1401SOL    HW2 4764   0.389   2.386   0.171
 1402SOL     OW 4765   0.162   3.003   1.463
 1402SOL    HW1 4766   0.148   2.955   1.545
 1402SOL    HW2 4767   0.170   2.935   1.396
 1403SOL     OW 4768   1.330   2.911   1.225
 1403SOL    HW1 4769   1.353   2.848   1.157
 1403SOL    HW2 4770   1.257   2.961   1.187
 1404SOL     OW 4771   1.306   2.715   0.310
 1404SOL    HW1 4772   1.228   2.684   0.356
 1404SOL    HW2 4773   1.286   2.702   0.218
 1405SOL     OW 4774   1.768   3.609   1.148
 1405SOL    HW1 4775   1.828   3.634   1.078
 1405SOL    HW2 4776   1.744   3.518   1.128
 1406SOL     OW 4777   1.242   3.595   1.118
 1406SOL    HW1 4778   1.323   3.613   1.070
 1406SOL    HW2 4779   1.244   3.501   1.134
 1407SOL     OW 4780   0.068   3.050   1.048
 1407SOL    HW1 4781   0.073   3.085   1.137
 1407SOL    HW2 4782   0.012   3.112   1.001
 1408SOL     OW 4783   0.679   3.526   1.725
 1408SOL    HW1 4784   0.625   3.605   1.722
 1408SOL    HW2 4785   0.740   3.535   1.652
 1409SOL     OW 4786   0.916   1.954   0.113
 1409SOL    HW1 4787   0.968   1.920   0.040
 1409SOL    HW2 4788   0.952   1.911   0.190
 1410SOL     OW 4789   1.719   2.004   0.513
 1410SOL    HW1 4790   1.791   1.989   0.452
 1410SOL    HW2 4791   1.703   1.918   0.552
 1411SOL     OW 4792   1.390   3.430   0.483
 1411SOL    HW1 4793   1.451   3.460   0.416
 1411SOL    HW2 4794   1.344   3.509   0.511
 1412SOL     OW 4795   0.121   3.669   1.847
 1412SOL    HW1 4796   0.082   3.595   1.894
 1412SOL    HW2 4797   0.184   3.706   1.909
 1413SOL     OW 4798   1.277   2.787   0.671
 1413SOL    HW1 4799   1.350   2.725   0.675
 1413SOL    HW2 4800   1.310   2.860   0.619
 1414SOL     OW 4801   0.818   3.134   1.431
 1414SOL    HW1 4802   0.792   3.173   1.515
 1414SOL    HW2 4803   0.747   3.156   1.372
 1415SOL     OW 4804   0.675   3.479   0.165
 1415SOL    HW1 4805   0.681   3.489   0.070
 1415SOL    HW2 4806   0.618   3.404   0.178
 1416SOL     OW 4807   1.633   3.588   1.392
 1416SOL    HW1 4808   1.680   3.596   1.309
 1416SOL    HW2 4809   1.619   3.679   1.421
 1417SOL     OW 4810   1.845   2.044   0.966
 1417SOL    HW1 4811   1.879   1.958   0.940
 1417SOL    HW2 4812   1.759   2.049   0.926
 1418SOL     OW 4813   0.267   2.183   0.720
 1418SOL    HW1 4814   0.184   2.222   0.691
 1418SOL    HW2 4815   0.255   2.170   0.814
 1419SOL     OW 4816   1.221   3.466   0.050
 1419SOL    HW1 4817   1.209   3.373   0.071
 1419SOL    HW2 4818   1.154   3.484  11.084
 1420SOL     OW 4819   0.825   2.868   1.372
 1420SOL    HW1 4820   0.867   2.866   1.286
 1420SOL    HW2 4821   0.826   2.961   1.396
 1421SOL     OW 4822   0.914   2.770   0.283
 1421SOL    HW1 4823   0.982   2.808   0.227
 1421SOL    HW2 4824   0.960   2.703   0.333
 1422SOL     OW 4825   1.500   3.484   0.046
 1422SOL    HW1 4826   1.404   3.481   0.041
 1422SOL    HW2 4827   1.528   3.496  11.055
 1423SOL     OW 4828   0.373   3.167   1.491
 1423SOL    HW1 4829   0.356   3.246   1.439
 1423SOL    HW2 4830   0.297   3.111   1.475
 1424SOL     OW 4831   1.613   3.145   1.281
 1424SOL    HW1 4832   1.670   3.137   1.357
 1424SOL    HW2 4833   1.551   3.215   1.305
 1425SOL     OW 4834   1.048   2.967   0.704
 1425SOL    HW1 4835   0.978   2.916   0.745
 1425SOL    HW2 4836   1.109   2.902   0.671
 1426SOL     OW 4837   1.019   2.102   0.966
 1426SOL    HW1 4838   1.014   2.054   0.883
 1426SOL    HW2 4839   1.015   2.034   1.033
 1427SOL     OW 4840   0.602   3.353   0.484
 1427SOL    HW1 4841   0.639   3.302   0.412
 1427SOL    HW2 4842   0.531   3.403   0.443
 1428SOL     OW 4843   1.716   2.256   1.379
 1428SOL    HW1 4844   1.791   2.315   1.381
 1428SOL    HW2 4845   1.746   2.181   1.327
 1429SOL     OW 4846   0.261   3.195   0.284
 1429SOL    HW1 4847   0.173   3.208   0.249
 1429SOL    HW2 4848   0.258   3.235   0.371
 1430SOL     OW 4849   0.118   2.870   1.696
 1430SOL    HW1 4850   0.052   2.906   1.755
 1430SOL    HW2 4851   0.195   2.857   1.751
 1431SOL     OW 4852   0.672   2.061   1.498
 1431SOL    HW1 4853   0.756   2.040   1.456
 1431SOL    HW2 4854   0.696   2.087   1.587
 1432SOL     OW 4855   0.060   2.202   0.006
 1432SOL    HW1 4856   4.469   2.195   0.036
 1432SOL    HW2 4857   0.080   2.295   0.011
 1433SOL     OW 4858   1.433   2.721   1.402
 1433SOL    HW1 4859   1.384   2.780   1.344
 1433SOL    HW2 4860   1.522   2.724   1.369
 1434SOL     OW 4861   0.079   2.035   0.307
 1434SOL    HW1 4862   0.083   2.115   0.254
 1434SOL    HW2 4863   0.154   1.984   0.279
 1435SOL     OW 4864   1.181   3.205   0.121
 1435SOL    HW1 4865   1.088   3.181   0.118
 1435SOL    HW2 4866   1.204   3.198   0.214
 1436SOL     OW 4867   0.620   2.693   1.428
 1436SOL    HW1 4868   0.675   2.771   1.416
 1436SOL    HW2 4869   0.683   2.621   1.438
 1437SOL     OW 4870   1.485   3.636   0.975
 1437SOL    HW1 4871   1.511   3.693   0.902
 1437SOL    HW2 4872   1.566   3.620   1.024
 1438SOL     OW 4873   0.716   2.425   1.705
 1438SOL    HW1 4874   0.750   2.490   1.766
 1438SOL    HW2 4875   0.754   2.342   1.735
 1439SOL     OW 4876   1.468   3.066   1.633
 1439SOL    HW1 4877   1.456   3.078   1.727
 1439SOL    HW2 4878   1.562   3.077   1.619
 1440SOL     OW 4879   0.383   3.604   1.564
 1440SOL    HW1 4880   0.297   3.644   1.549
 1440SOL    HW2 4881   0.364   3.523   1.610
 1441SOL     OW 4882   1.673   2.744   1.255
 1441SOL    HW1 4883   1.662   2.659   1.214
 1441SOL    HW2 4884   1.663   2.807   1.184
 1442SOL     OW 4885   1.218   2.180   0.459
 1442SOL    HW1 4886   1.283   2.111   0.448
 1442SOL    HW2 4887   1.247   2.229   0.536
 1443SOL     OW 4888   0.591   2.602   0.667
 1443SOL    HW1 4889   0.629   2.688   0.650
 1443SOL    HW2 4890   0.520   2.595   0.603
 1444SOL     OW 4891   1.755   2.234   1.657
 1444SOL    HW1 4892   1.755   2.233   1.561
 1444SOL    HW2 4893   1.687   2.171   1.681
 1445SOL     OW 4894   1.743   2.796   1.512
 1445SOL    HW1 4895   1.745   2.891   1.525
 1445SOL    HW2 4896   1.728   2.785   1.419
 1446SOL     OW 4897   0.896   3.220   0.060
 1446SOL    HW1 4898   0.826   3.224   0.125
 1446SOL    HW2 4899   0.890   3.304   0.014
 1447SOL     OW 4900   0.660   3.656   0.950
 1447SOL    HW1 4901   0.637   3.745   0.923
 1447SOL    HW2 4902   0.755   3.651   0.939
 1448SOL     OW 4903   0.866   2.827   0.856
 1448SOL    HW1 4904   0.916   2.756   0.897
 1448SOL    HW2 4905   0.833   2.878   0.929
 1449SOL     OW 4906   1.080   2.852   0.086
 1449SOL    HW1 4907   1.057   2.887   0.000
 1449SOL    HW2 4908   1.156   2.797   0.070
 1450SOL     OW 4909   1.856   3.419   0.846
 1450SOL    HW1 4910   1.780   3.408   0.789
 1450SOL    HW2 4911   1.847   3.350   0.912
 1451SOL     OW 4912   0.228   3.169   1.856
 1451SOL    HW1 4913   0.159   3.107   1.831
 1451SOL    HW2 4914   0.218   3.179   1.951
 1452SOL     OW 4915   0.100   3.100   0.666
 1452SOL    HW1 4916   0.107   3.049   0.748
 1452SOL    HW2 4917   0.164   3.060   0.608
 1453SOL     OW 4918   0.680   3.262   1.626
 1453SOL    HW1 4919   0.600   3.218   1.654
 1453SOL    HW2 4920   0.674   3.350   1.663
 1454SOL     OW 4921   1.806   2.054   1.232
 1454SOL    HW1 4922   1.839   1.969   1.261
 1454SOL    HW2 4923   1.821   2.054   1.137
 1455SOL     OW 4924   0.433   2.296   0.525
 1455SOL    HW1 4925   0.461   2.223   0.469
 1455SOL    HW2 4926   0.384   2.255   0.596
 1456SOL     OW 4927   1.701   3.353   1.100
 1456SOL    HW1 4928   1.620   3.328   1.056
 1456SOL    HW2 4929   1.715   3.285   1.166
 1457SOL     OW 4930   0.306   2.351   1.257
 1457SOL    HW1 4931   0.379   2.311   1.303
 1457SOL    HW2 4932   0.338   2.365   1.168
 1458SOL     OW 4933   0.825   3.440   0.680
 1458SOL    HW1 4934   0.818   3.484   0.595
 1458SOL    HW2 4935   0.746   3.385   0.684
 1459SOL     OW 4936   1.432   2.085   1.118
 1459SOL    HW1 4937   1.466   2.010   1.166
 1459SOL    HW2 4938   1.380   2.134   1.182
 1460SOL     OW 4939   1.008   1.883   1.146
 1460SOL    HW1 4940   0.953   1.814   1.107
 1460SOL    HW2 4941   1.096   1.846   1.147
 1461SOL     OW 4942   0.768   3.191   0.312
 1461SOL    HW1 4943   0.737   3.101   0.325
 1461SOL    HW2 4944   0.853   3.193   0.356
 1462SOL     OW 4945   0.621   3.420   1.284
 1462SOL    HW1 4946   0.624   3.501   1.335
 1462SOL    HW2 4947   0.708   3.414   1.245
 1463SOL     OW 4948   1.351   1.915   0.165
 1463SOL    HW1 4949   1.373   1.867   0.085
 1463SOL    HW2 4950   1.265   1.882   0.189
 1464SOL     OW 4951   1.297   2.322   0.683
 1464SOL    HW1 4952   1.243   2.400   0.691
 1464SOL    HW2 4953   1.295   2.281   0.769
 1465SOL     OW 4954   1.588   2.066   0.877
 1465SOL    HW1 4955   1.524   2.083   0.946
 1465SOL    HW2 4956   1.588   2.145   0.823
 1466SOL     OW 4957   0.039   2.911   0.282
 1466SOL    HW1 4958   0.135   2.912   0.286
 1466SOL    HW2 4959   0.012   2.874   0.366
 1467SOL     OW 4960   0.883   3.512   0.347
 1467SOL    HW1 4961   0.812   3.491   0.286
 1467SOL    HW2 4962   0.850   3.587   0.397
 1468SOL     OW 4963   0.248   2.489   1.980
 1468SOL    HW1 4964   0.173   2.475   2.037
 1468SOL    HW2 4965   0.217   2.468   1.892
 1469SOL     OW 4966   0.213   2.138   2.854
 1469SOL    HW1 4967   0.250   2.111   2.938
 1469SOL    HW2 4968   0.137   2.081   2.842
 1470SOL     OW 4969   0.010   2.249   2.501
 1470SOL    HW1 4970   4.429   2.279   2.544
 1470SOL    HW2 4971   4.484   2.169   2.455
 1471SOL     OW 4972   0.567   3.144   3.034
 1471SOL    HW1 4973   0.479   3.148   2.996
 1471SOL    HW2 4974   0.582   3.232   3.070
 1472SOL     OW 4975   1.557   3.373   2.568
 1472SOL    HW1 4976   1.513   3.356   2.650
 1472SOL    HW2 4977   1.487   3.379   2.503
 1473SOL     OW 4978   1.129   2.561   2.566
 1473SOL    HW1 4979   1.180   2.641   2.551
 1473SOL    HW2 4980   1.083   2.577   2.648
 1474SOL     OW 4981   1.767   2.468   2.092
 1474SOL    HW1 4982   1.745   2.460   1.999
 1474SOL    HW2 4983   1.730   2.390   2.132
 1475SOL     OW 4984   0.759   3.007   2.899
 1475SOL    HW1 4985   0.689   3.040   2.955
 1475SOL    HW2 4986   0.793   3.084   2.854
 1476SOL     OW 4987   0.863   2.642   3.683
 1476SOL    HW1 4988   0.848   2.714   3.744
 1476SOL    HW2 4989   0.885   2.685   3.600
 1477SOL     OW 4990   0.686   2.869   2.511
 1477SOL    HW1 4991   0.750   2.854   2.581
 1477SOL    HW2 4992   0.616   2.919   2.554
 1478SOL     OW 4993   0.708   3.013   3.672
 1478SOL    HW1 4994   0.755   3.093   3.695
 1478SOL    HW2 4995   0.624   3.044   3.637
 1479SOL     OW 4996   0.337   3.286   2.932
 1479SOL    HW1 4997   0.256   3.266   2.885
 1479SOL    HW2 4998   0.387   3.340   2.871
 1480SOL     OW 4999   1.462   3.360   3.212
 1480SOL    HW1 5000   1.505   3.445   3.223
 1480SOL    HW2 5001   1.407   3.351   3.290
 1481SOL     OW 5002   0.442   2.266   3.358
 1481SOL    HW1 5003   0.522   2.213   3.360
 1481SOL    HW2 5004   0.371   2.202   3.361
 1482SOL     OW 5005   1.610   2.312   2.603
 1482SOL    HW1 5006   1.536   2.339   2.550
 1482SOL    HW2 5007   1.635   2.392   2.651
 1483SOL     OW 5008   0.246   3.554   2.342
 1483SOL    HW1 5009   0.233   3.638   2.385
 1483SOL    HW2 5010   0.306   3.572   2.270
 1484SOL     OW 5011   1.136   3.203   3.553
 1484SOL    HW1 5012   1.175   3.199   3.640
 1484SOL    HW2 5013   1.083   3.123   3.547
 1485SOL     OW 5014   0.244   3.290   2.390
 1485SOL    HW1 5015   0.236   3.385   2.395
 1485SOL    HW2 5016   0.179   3.257   2.453
 1486SOL     OW 5017   0.245   2.943   2.744
 1486SOL    HW1 5018   0.263   2.856   2.779
 1486SOL    HW2 5019   0.188   2.984   2.810
 1487SOL     OW 5020   0.617   3.652   3.295
 1487SOL    HW1 5021   0.533   3.635   3.337
 1487SOL    HW2 5022   0.637   3.743   3.318
 1488SOL     OW 5023   0.584   2.845   1.997
 1488SOL    HW1 5024   0.629   2.893   1.927
 1488SOL    HW2 5025   0.630   2.872   2.076
 1489SOL     OW 5026   1.590   1.981   3.333
 1489SOL    HW1 5027   1.599   2.058   3.276
 1489SOL    HW2 5028   1.584   2.017   3.421
 1490SOL     OW 5029   0.137   2.506   2.437
 1490SOL    HW1 5030   0.086   2.425   2.450
 1490SOL    HW2 5031   0.106   2.565   2.506
 1491SOL     OW 5032   1.841   3.623   2.199
 1491SOL    HW1 5033   1.900   3.594   2.268
 1491SOL    HW2 5034   1.869   3.713   2.180
 1492SOL     OW 5035   0.033   3.462   1.997
 1492SOL    HW1 5036   0.021   3.368   2.000
 1492SOL    HW2 5037   0.009   3.492   2.085
 1493SOL     OW 5038   1.691   2.782   2.500
 1493SOL    HW1 5039   1.774   2.739   2.480
 1493SOL    HW2 5040   1.669   2.831   2.421
 1494SOL     OW 5041   1.644   2.970   2.292
 1494SOL    HW1 5042   1.729   2.978   2.249
 1494SOL    HW2 5043   1.649   3.030   2.366
 1495SOL     OW 5044   0.111   2.621   3.451
 1495SOL    HW1 5045   0.205   2.622   3.438
 1495SOL    HW2 5046   0.086   2.713   3.455
 1496SOL     OW 5047   0.613   3.244   2.598
 1496SOL    HW1 5048   0.566   3.161   2.606
 1496SOL    HW2 5049   0.596   3.271   2.507
 1497SOL     OW 5050   1.291   3.101   3.286
 1497SOL    HW1 5051   1.323   3.033   3.227
 1497SOL    HW2 5052   1.346   3.093   3.364
 1498SOL     OW 5053   0.813   1.860   2.367
 1498SOL    HW1 5054   0.853   1.946   2.352
 1498SOL    HW2 5055   0.719   1.879   2.378
 1499SOL     OW 5056   0.184   2.807   3.141
 1499SOL    HW1 5057   0.275   2.789   3.118
 1499SOL    HW2 5058   0.133   2.781   3.064
 1500SOL     OW 5059   1.532   2.853   2.058
 1500SOL    HW1 5060   1.462   2.795   2.087
 1500SOL    HW2 5061   1.571   2.887   2.139
 1501SOL     OW 5062   1.186   3.666   3.482
 1501SOL    HW1 5063   1.200   3.723   3.406
 1501SOL    HW2 5064   1.200   3.577   3.449
 1502SOL     OW 5065   0.328   2.117   3.657
 1502SOL    HW1 5066   0.381   2.190   3.690
 1502SOL    HW2 5067   0.243   2.128   3.700
 1503SOL     OW 5068   1.466   3.281   2.816
 1503SOL    HW1 5069   1.397   3.296   2.881
 1503SOL    HW2 5070   1.454   3.191   2.788
 1504SOL     OW 5071   1.662   3.594   2.440
 1504SOL    HW1 5072   1.638   3.567   2.351
 1504SOL    HW2 5073   1.635   3.521   2.495
 1505SOL     OW 5074   0.597   2.584   2.126
 1505SOL    HW1 5075   0.603   2.664   2.074
 1505SOL    HW2 5076   0.531   2.604   2.193
 1506SOL     OW 5077   1.279   2.211   2.795
 1506SOL    HW1 5078   1.190   2.177   2.802
 1506SOL    HW2 5079   1.330   2.158   2.857
 1507SOL     OW 5080   1.582   3.530   2.171
 1507SOL    HW1 5081   1.670   3.565   2.165
 1507SOL    HW2 5082   1.556   3.513   2.080
 1508SOL     OW 5083   0.794   2.478   3.315
 1508SOL    HW1 5084   0.768   2.456   3.404
 1508SOL    HW2 5085   0.750   2.414   3.260
 1509SOL     OW 5086   1.394   2.336   3.539
 1509SOL    HW1 5087   1.394   2.379   3.625
 1509SOL    HW2 5088   1.457   2.265   3.548
 1510SOL     OW 5089   0.958   2.751   3.442
 1510SOL    HW1 5090   1.012   2.679   3.408
 1510SOL    HW2 5091   0.911   2.784   3.366
 1511SOL     OW 5092   0.993   2.276   3.101
 1511SOL    HW1 5093   0.910   2.298   3.143
 1511SOL    HW2 5094   0.968   2.227   3.023
 1512SOL     OW 5095   1.049   2.561   2.289
 1512SOL    HW1 5096   1.064   2.554   2.383
 1512SOL    HW2 5097   0.968   2.513   2.274
 1513SOL     OW 5098   0.098   2.686   2.645
 1513SOL    HW1 5099   0.184   2.665   2.681
 1513SOL    HW2 5100   0.053   2.733   2.715
 1514SOL     OW 5101   0.126   3.711   3.437
 1514SOL    HW1 5102   0.119   3.690   3.530
 1514SOL    HW2 5103   0.044   3.681   3.399
 1515SOL     OW 5104   0.886   2.208   2.056
 1515SOL    HW1 5105   0.930   2.269   1.996
 1515SOL    HW2 5106   0.905   2.122   2.020
 1516SOL     OW 5107   1.712   2.442   3.691
 1516SOL    HW1 5108   1.674   2.517   3.645
 1516SOL    HW2 5109   1.732   2.379   3.622
 1517SOL     OW 5110   1.375   3.005   2.405
 1517SOL    HW1 5111   1.453   2.990   2.351
 1517SOL    HW2 5112   1.322   3.066   2.354
 1518SOL     OW 5113   0.550   2.046   2.754
 1518SOL    HW1 5114   0.553   2.074   2.846
 1518SOL    HW2 5115   0.552   2.128   2.704
 1519SOL     OW 5116   1.009   3.308   2.336
 1519SOL    HW1 5117   0.968   3.379   2.287
 1519SOL    HW2 5118   0.993   3.330   2.428
 1520SOL     OW 5119   0.354   3.669   2.718
 1520SOL    HW1 5120   0.397   3.585   2.729
 1520SOL    HW2 5121   0.424   3.733   2.731
 1521SOL     OW 5122   1.799   2.922   2.729
 1521SOL    HW1 5123   1.743   2.904   2.653
 1521SOL    HW2 5124   1.738   2.927   2.803
 1522SOL     OW 5125   1.228   3.402   3.374
 1522SOL    HW1 5126   1.214   3.329   3.434
 1522SOL    HW2 5127   1.167   3.385   3.302
 1523SOL     OW 5128   0.317   2.816   2.111
 1523SOL    HW1 5129   0.402   2.838   2.071
 1523SOL    HW2 5130   0.299   2.727   2.081
 1524SOL     OW 5131   1.476   2.601   2.590
 1524SOL    HW1 5132   1.464   2.554   2.673
 1524SOL    HW2 5133   1.552   2.656   2.604
 1525SOL     OW 5134   0.465   3.123   3.597
 1525SOL    HW1 5135   0.437   3.129   3.506
 1525SOL    HW2 5136   0.384   3.128   3.648
 1526SOL     OW 5137   1.120   3.639   2.094
 1526SOL    HW1 5138   1.049   3.596   2.141
 1526SOL    HW2 5139   1.142   3.580   2.022
 1527SOL     OW 5140   0.195   2.140   3.350
 1527SOL    HW1 5141   0.131   2.211   3.354
 1527SOL    HW2 5142   0.185   2.094   3.433
 1528SOL     OW 5143   1.629   3.241   1.949
 1528SOL    HW1 5144   1.588   3.326   1.934
 1528SOL    HW2 5145   1.560   3.177   1.930
 1529SOL     OW 5146   0.469   3.607   2.176
 1529SOL    HW1 5147   0.508   3.658   2.247
 1529SOL    HW2 5148   0.544   3.575   2.125
 1530SOL     OW 5149   1.401   1.970   2.292
 1530SOL    HW1 5150   1.389   1.944   2.200
 1530SOL    HW2 5151   1.495   1.978   2.303
 1531SOL     OW 5152   0.260   3.656   3.096
 1531SOL    HW1 5153   0.306   3.583   3.137
 1531SOL    HW2 5154   0.228   3.621   3.012
 1532SOL     OW 5155   0.939   3.560   2.762
 1532SOL    HW1 5156   1.015   3.506   2.783
 1532SOL    HW2 5157   0.892   3.512   2.694
 1533SOL     OW 5158   0.392   2.557   2.337
 1533SOL    HW1 5159   0.417   2.466   2.346
 1533SOL    HW2 5160   0.300   2.560   2.363
 1534SOL     OW 5161   1.538   2.089   3.589
 1534SOL    HW1 5162   1.544   2.108   3.682
 1534SOL    HW2 5163   1.472   2.020   3.582
 1535SOL     OW 5164   0.629   1.989   1.967
 1535SOL    HW1 5165   0.704   1.930   1.981
 1535SOL    HW2 5166   0.585   1.954   1.890
 1536SOL     OW 5167   0.769   2.138   3.615
 1536SOL    HW1 5168   0.841   2.076   3.621
 1536SOL    HW2 5169   0.718   2.123   3.694
 1537SOL     OW 5170   0.878   3.384   3.055
 1537SOL    HW1 5171   0.862   3.347   2.968
 1537SOL    HW2 5172   0.946   3.328   3.092
 1538SOL     OW 5173   1.341   2.451   3.294
 1538SOL    HW1 5174   1.372   2.418   3.378
 1538SOL    HW2 5175   1.377   2.539   3.288
 1539SOL     OW 5176   0.813   3.260   2.798
 1539SOL    HW1 5177   0.897   3.250   2.752
 1539SOL    HW2 5178   0.747   3.258   2.728
 1540SOL     OW 5179   0.926   2.371   2.766
 1540SOL    HW1 5180   0.904   2.363   2.674
 1540SOL    HW2 5181   0.960   2.285   2.790
 1541SOL     OW 5182   0.550   1.924   2.367
 1541SOL    HW1 5183   0.469   1.923   2.418
 1541SOL    HW2 5184   0.544   2.003   2.313
 1542SOL     OW 5185   1.429   3.060   1.903
 1542SOL    HW1 5186   1.460   2.984   1.953
 1542SOL    HW2 5187   1.342   3.079   1.940
 1543SOL     OW 5188   0.295   1.908   2.040
 1543SOL    HW1 5189   0.357   1.976   2.013
 1543SOL    HW2 5190   0.349   1.842   2.084
 1544SOL     OW 5191   0.936   2.106   2.326
 1544SOL    HW1 5192   0.907   2.149   2.246
 1544SOL    HW2 5193   1.031   2.118   2.327
 1545SOL     OW 5194   1.080   2.541   3.322
 1545SOL    HW1 5195   1.009   2.477   3.328
 1545SOL    HW2 5196   1.160   2.489   3.314
 1546SOL     OW 5197   1.225   3.431   2.655
 1546SOL    HW1 5198   1.243   3.499   2.590
 1546SOL    HW2 5199   1.293   3.443   2.722
 1547SOL     OW 5200   0.465   3.009   2.600
 1547SOL    HW1 5201   0.393   2.991   2.660
 1547SOL    HW2 5202   0.428   2.993   2.513
 1548SOL     OW 5203   1.271   3.657   2.468
 1548SOL    HW1 5204   1.315   3.718   2.408
 1548SOL    HW2 5205   1.206   3.710   2.514
 1549SOL     OW 5206   1.025   2.407   1.881
 1549SOL    HW1 5207   0.983   2.491   1.861
 1549SOL    HW2 5208   1.089   2.429   1.949
 1550SOL     OW 5209   0.080   2.395   3.269
 1550SOL    HW1 5210   0.149   2.396   3.203
 1550SOL    HW2 5211   0.068   2.487   3.292
 1551SOL     OW 5212   0.562   2.089   3.026
 1551SOL    HW1 5213   0.602   2.008   3.058
 1551SOL    HW2 5214   0.470   2.083   3.053
 1552SOL     OW 5215   0.870   2.322   2.502
 1552SOL    HW1 5216   0.822   2.375   2.438
 1552SOL    HW2 5217   0.889   2.240   2.455
 1553SOL     OW 5218   1.014   1.915   2.616
 1553SOL    HW1 5219   0.956   1.906   2.540
 1553SOL    HW2 5220   0.994   1.839   2.670
 1554SOL     OW 5221   1.436   3.026   2.720
 1554SOL    HW1 5222   1.368   2.958   2.718
 1554SOL    HW2 5223   1.458   3.039   2.628
 1555SOL     OW 5224   1.467   2.465   2.844
 1555SOL    HW1 5225   1.420   2.381   2.847
 1555SOL    HW2 5226   1.528   2.460   2.918
 1556SOL     OW 5227   1.848   2.680   2.244
 1556SOL    HW1 5228   1.903   2.627   2.302
 1556SOL    HW2 5229   1.819   2.620   2.176
 1557SOL     OW 5230   0.492   3.275   2.024
 1557SOL    HW1 5231   0.416   3.246   2.074
 1557SOL    HW2 5232   0.471   3.256   1.933
 1558SOL     OW 5233   1.668   3.128   2.511
 1558SOL    HW1 5234   1.763   3.134   2.523
 1558SOL    HW2 5235   1.635   3.215   2.532
 1559SOL     OW 5236   1.394   2.434   1.933
 1559SOL    HW1 5237   1.334   2.415   2.006
 1559SOL    HW2 5238   1.478   2.400   1.963
 1560SOL     OW 5239   0.525   2.122   2.183
 1560SOL    HW1 5240   0.567   2.074   2.112
 1560SOL    HW2 5241   0.508   2.209   2.146
 1561SOL     OW 5242   1.753   3.098   3.438
 1561SOL    HW1 5243   1.841   3.059   3.436
 1561SOL    HW2 5244   1.768   3.188   3.468
 1562SOL     OW 5245   1.061   3.216   3.197
 1562SOL    HW1 5246   0.986   3.185   3.248
 1562SOL    HW2 5247   1.137   3.174   3.238
 1563SOL     OW 5248   1.606   3.487   3.513
 1563SOL    HW1 5249   1.603   3.521   3.424
 1563SOL    HW2 5250   1.689   3.441   3.519
 1564SOL     OW 5251   1.126   3.064   2.969
 1564SOL    HW1 5252   1.067   3.101   3.035
 1564SOL    HW2 5253   1.091   3.094   2.885
 1565SOL     OW 5254   1.632   2.962   2.940
 1565SOL    HW1 5255   1.627   3.024   3.013
 1565SOL    HW2 5256   1.551   2.977   2.891
 1566SOL     OW 5257   0.917   1.961   3.261
 1566SOL    HW1 5258   0.940   1.941   3.170
 1566SOL    HW2 5259   0.997   2.000   3.297
 1567SOL     OW 5260   0.984   2.976   3.584
 1567SOL    HW1 5261   0.891   2.991   3.603
 1567SOL    HW2 5262   0.985   2.899   3.528
 1568SOL     OW 5263   0.708   2.922   2.235
 1568SOL    HW1 5264   0.695   2.908   2.328
 1568SOL    HW2 5265   0.784   2.869   2.212
 1569SOL     OW 5266   0.429   2.684   3.101
 1569SOL    HW1 5267   0.497   2.696   3.166
 1569SOL    HW2 5268   0.369   2.620   3.139
 1570SOL     OW 5269   1.268   2.240   3.134
 1570SOL    HW1 5270   1.299   2.318   3.181
 1570SOL    HW2 5271   1.178   2.263   3.109
 1571SOL     OW 5272   0.061   3.437   3.200
 1571SOL    HW1 5273   0.032   3.526   3.178
 1571SOL    HW2 5274   0.156   3.444   3.208
 1572SOL     OW 5275   0.352   2.968   2.356
 1572SOL    HW1 5276   0.359   3.042   2.294
 1572SOL    HW2 5277   0.354   2.890   2.300
 1573SOL     OW 5278   0.562   2.397   2.719
 1573SOL    HW1 5279   0.576   2.457   2.646
 1573SOL    HW2 5280   0.621   2.429   2.788
 1574SOL     OW 5281   1.248   3.210   2.252
 1574SOL    HW1 5282   1.303   3.282   2.282
 1574SOL    HW2 5283   1.161   3.230   2.285
 1575SOL     OW 5284   1.277   3.317   3.008
 1575SOL    HW1 5285   1.331   3.319   3.086
 1575SOL    HW2 5286   1.221   3.240   3.018
 1576SOL     OW 5287   1.582   2.487   2.337
 1576SOL    HW1 5288   1.538   2.544   2.401
 1576SOL    HW2 5289   1.629   2.548   2.281
 1577SOL     OW 5290   0.348   3.391   3.180
 1577SOL    HW1 5291   0.333   3.344   3.098
 1577SOL    HW2 5292   0.443   3.401   3.184
 1578SOL     OW 5293   0.472   2.621   3.522
 1578SOL    HW1 5294   0.501   2.661   3.440
 1578SOL    HW2 5295   0.505   2.531   3.518
 1579SOL     OW 5296   1.598   2.641   3.542
 1579SOL    HW1 5297   1.511   2.680   3.534
 1579SOL    HW2 5298   1.650   2.682   3.473
 1580SOL     OW 5299   0.997   1.980   3.619
 1580SOL    HW1 5300   1.048   2.053   3.585
 1580SOL    HW2 5301   1.046   1.902   3.592
 1581SOL     OW 5302   0.498   1.906   3.608
 1581SOL    HW1 5303   0.459   1.849   3.542
 1581SOL    HW2 5304   0.437   1.979   3.617
 1582SOL     OW 5305   0.588   2.735   2.886
 1582SOL    HW1 5306   0.616   2.827   2.888
 1582SOL    HW2 5307   0.531   2.726   2.962
 1583SOL     OW 5308   1.361   2.721   2.896
 1583SOL    HW1 5309   1.280   2.715   2.846
 1583SOL    HW2 5310   1.398   2.633   2.893
 1584SOL     OW 5311   1.207   2.391   2.131
 1584SOL    HW1 5312   1.215   2.313   2.185
 1584SOL    HW2 5313   1.165   2.455   2.188
 1585SOL     OW 5314   0.303   2.056   3.103
 1585SOL    HW1 5315   0.265   2.091   3.184
 1585SOL    HW2 5316   0.285   1.962   3.106
 1586SOL     OW 5317   0.048   3.174   3.146
 1586SOL    HW1 5318   0.078   3.128   3.223
 1586SOL    HW2 5319   0.049   3.267   3.171
 1587SOL     OW 5320   0.727   2.495   2.923
 1587SOL    HW1 5321   0.799   2.475   2.863
 1587SOL    HW2 5322   0.699   2.583   2.899
 1588SOL     OW 5323   1.732   2.822   3.713
 1588SOL    HW1 5324   1.686   2.765   3.652
 1588SOL    HW2 5325   1.672   2.833   3.786
 1589SOL     OW 5326   0.308   1.932   2.481
 1589SOL    HW1 5327   0.287   2.021   2.510
 1589SOL    HW2 5328   0.303   1.879   2.561
 1590SOL     OW 5329   1.613   2.234   2.232
 1590SOL    HW1 5330   1.641   2.172   2.299
 1590SOL    HW2 5331   1.590   2.313   2.280
 1591SOL     OW 5332   1.027   2.622   2.824
 1591SOL    HW1 5333   1.027   2.639   2.918
 1591SOL    HW2 5334   1.000   2.530   2.817
 1592SOL     OW 5335   0.983   3.429   3.576
 1592SOL    HW1 5336   0.967   3.473   3.493
 1592SOL    HW2 5337   1.025   3.346   3.552
 1593SOL     OW 5338   1.856   3.371   3.468
 1593SOL    HW1 5339   1.872   3.397   3.377
 1593SOL    HW2 5340   1.937   3.393   3.514
 1594SOL     OW 5341   0.348   2.792   3.680
 1594SOL    HW1 5342   0.423   2.819   3.733
 1594SOL    HW2 5343   0.383   2.726   3.620
 1595SOL     OW 5344   1.531   2.135   1.990
 1595SOL    HW1 5345   1.467   2.070   2.016
 1595SOL    HW2 5346   1.563   2.172   2.072
 1596SOL     OW 5347   1.295   2.689   1.895
 1596SOL    HW1 5348   1.337   2.603   1.898
 1596SOL    HW2 5349   1.325   2.728   1.813
 1597SOL     OW 5350   1.065   3.197   2.714
 1597SOL    HW1 5351   1.068   3.124   2.653
 1597SOL    HW2 5352   1.128   3.260   2.679
 1598SOL     OW 5353   0.317   2.674   2.812
 1598SOL    HW1 5354   0.411   2.691   2.807
 1598SOL    HW2 5355   0.310   2.584   2.842
 1599SOL     OW 5356   0.334   2.385   2.856
 1599SOL    HW1 5357   0.295   2.299   2.840
 1599SOL    HW2 5358   0.411   2.387   2.799
 1600SOL     OW 5359   1.135   2.241   3.541
 1600SOL    HW1 5360   1.089   2.295   3.605
 1600SOL    HW2 5361   1.223   2.277   3.537
 1601SOL     OW 5362   1.159   2.067   3.332
 1601SOL    HW1 5363   1.151   2.129   3.403
 1601SOL    HW2 5364   1.198   2.117   3.260
 1602SOL     OW 5365   4.492   3.185   2.063
 1602SOL    HW1 5366   4.399   3.200   2.045
 1602SOL    HW2 5367   4.498   3.093   2.087
 1603SOL     OW 5368   0.095   3.644   2.802
 1603SOL    HW1 5369   0.057   3.583   2.738
 1603SOL    HW2 5370   0.182   3.663   2.768
 1604SOL     OW 5371   0.499   3.435   2.768
 1604SOL    HW1 5372   0.567   3.498   2.792
 1604SOL    HW2 5373   0.544   3.370   2.714
 1605SOL     OW 5374   0.988   2.657   3.090
 1605SOL    HW1 5375   1.040   2.631   3.166
 1605SOL    HW2 5376   0.901   2.621   3.108
 1606SOL     OW 5377   0.037   2.424   2.969
 1606SOL    HW1 5378   0.119   2.386   2.936
 1606SOL    HW2 5379   0.028   2.386   3.056
 1607SOL     OW 5380   0.179   2.377   3.576
 1607SOL    HW1 5381   0.258   2.349   3.529
 1607SOL    HW2 5382   0.153   2.458   3.532
 1608SOL     OW 5383   1.375   2.804   3.521
 1608SOL    HW1 5384   1.396   2.897   3.521
 1608SOL    HW2 5385   1.373   2.779   3.429
 1609SOL     OW 5386   0.816   2.431   2.217
 1609SOL    HW1 5387   0.818   2.355   2.158
 1609SOL    HW2 5388   0.741   2.482   2.187
 1610SOL     OW 5389   1.646   2.464   3.051
 1610SOL    HW1 5390   1.635   2.402   3.122
 1610SOL    HW2 5391   1.733   2.445   3.015
 1611SOL     OW 5392   0.272   3.423   3.604
 1611SOL    HW1 5393   0.218   3.477   3.662
 1611SOL    HW2 5394   0.250   3.333   3.627
 1612SOL     OW 5395   0.686   2.318   3.127
 1612SOL    HW1 5396   0.644   2.240   3.091
 1612SOL    HW2 5397   0.690   2.379   3.053
 1613SOL     OW 5398   0.931   3.541   3.328
 1613SOL    HW1 5399   0.903   3.510   3.242
 1613SOL    HW2 5400   0.929   3.636   3.321
 1614SOL     OW 5401   0.473   2.353   2.050
 1614SOL    HW1 5402   0.531   2.426   2.071
 1614SOL    HW2 5403   0.387   2.393   2.037
 1615SOL     OW 5404   0.162   3.003   3.325
 1615SOL    HW1 5405   0.148   2.955   3.407
 1615SOL    HW2 5406   0.171   2.935   3.258
 1616SOL     OW 5407   1.330   2.911   3.087
 1616SOL    HW1 5408   1.353   2.848   3.019
 1616SOL    HW2 5409   1.257   2.961   3.049
 1617SOL     OW 5410   1.308   2.719   2.170
 1617SOL    HW1 5411   1.231   2.688   2.218
 1617SOL    HW2 5412   1.286   2.705   2.078
 1618SOL     OW 5413   1.768   3.609   3.010
 1618SOL    HW1 5414   1.828   3.634   2.940
 1618SOL    HW2 5415   1.744   3.518   2.990
 1619SOL     OW 5416   1.242   3.595   2.980
 1619SOL    HW1 5417   1.323   3.613   2.932
 1619SOL    HW2 5418   1.244   3.501   2.996
 1620SOL     OW 5419   0.068   3.051   2.910
 1620SOL    HW1 5420   0.073   3.085   2.999
 1620SOL    HW2 5421   0.011   3.112   2.863
 1621SOL     OW 5422   0.679   3.526   3.587
 1621SOL    HW1 5423   0.625   3.605   3.584
 1621SOL    HW2 5424   0.740   3.535   3.514
 1622SOL     OW 5425   1.719   2.003   2.376
 1622SOL    HW1 5426   1.790   1.987   2.314
 1622SOL    HW2 5427   1.701   1.918   2.415
 1623SOL     OW 5428   1.390   3.430   2.345
 1623SOL    HW1 5429   1.451   3.461   2.277
 1623SOL    HW2 5430   1.343   3.508   2.372
 1624SOL     OW 5431   0.121   3.669   3.709
 1624SOL    HW1 5432   0.082   3.595   3.756
 1624SOL    HW2 5433   0.184   3.706   3.771
 1625SOL     OW 5434   1.277   2.786   2.533
 1625SOL    HW1 5435   1.350   2.725   2.537
 1625SOL    HW2 5436   1.311   2.860   2.481
 1626SOL     OW 5437   0.818   3.134   3.293
 1626SOL    HW1 5438   0.792   3.173   3.377
 1626SOL    HW2 5439   0.747   3.156   3.234
 1627SOL     OW 5440   0.673   3.478   2.017
 1627SOL    HW1 5441   0.681   3.489   1.922
 1627SOL    HW2 5442   0.619   3.400   2.028
 1628SOL     OW 5443   1.633   3.588   3.254
 1628SOL    HW1 5444   1.680   3.596   3.171
 1628SOL    HW2 5445   1.619   3.679   3.283
 1629SOL     OW 5446   1.805   2.005   2.831
 1629SOL    HW1 5447   1.845   1.930   2.788
 1629SOL    HW2 5448   1.725   2.022   2.782
 1630SOL     OW 5449   0.267   2.182   2.582
 1630SOL    HW1 5450   0.184   2.221   2.553
 1630SOL    HW2 5451   0.255   2.170   2.676
 1631SOL     OW 5452   1.206   3.470   1.893
 1631SOL    HW1 5453   1.198   3.379   1.921
 1631SOL    HW2 5454   1.141   3.480   1.823
 1632SOL     OW 5455   0.825   2.868   3.234
 1632SOL    HW1 5456   0.867   2.865   3.148
 1632SOL    HW2 5457   0.826   2.961   3.258
 1633SOL     OW 5458   0.915   2.773   2.151
 1633SOL    HW1 5459   0.977   2.804   2.085
 1633SOL    HW2 5460   0.962   2.701   2.195
 1634SOL     OW 5461   1.495   3.486   1.904
 1634SOL    HW1 5462   1.400   3.482   1.893
 1634SOL    HW2 5463   1.529   3.492   1.815
 1635SOL     OW 5464   0.373   3.167   3.353
 1635SOL    HW1 5465   0.356   3.246   3.301
 1635SOL    HW2 5466   0.297   3.111   3.337
 1636SOL     OW 5467   1.613   3.146   3.143
 1636SOL    HW1 5468   1.670   3.137   3.219
 1636SOL    HW2 5469   1.551   3.215   3.167
 1637SOL     OW 5470   1.048   2.967   2.567
 1637SOL    HW1 5471   0.978   2.916   2.607
 1637SOL    HW2 5472   1.109   2.902   2.532
 1638SOL     OW 5473   1.019   2.102   2.828
 1638SOL    HW1 5474   1.014   2.054   2.745
 1638SOL    HW2 5475   1.015   2.034   2.895
 1639SOL     OW 5476   0.603   3.352   2.345
 1639SOL    HW1 5477   0.641   3.301   2.274
 1639SOL    HW2 5478   0.532   3.402   2.304
 1640SOL     OW 5479   1.717   2.257   3.246
 1640SOL    HW1 5480   1.791   2.318   3.241
 1640SOL    HW2 5481   1.744   2.182   3.192
 1641SOL     OW 5482   0.252   3.207   2.140
 1641SOL    HW1 5483   0.158   3.208   2.125
 1641SOL    HW2 5484   0.262   3.240   2.229
 1642SOL     OW 5485   0.118   2.870   3.558
 1642SOL    HW1 5486   0.052   2.906   3.617
 1642SOL    HW2 5487   0.195   2.857   3.613
 1643SOL     OW 5488   0.672   2.061   3.360
 1643SOL    HW1 5489   0.756   2.040   3.318
 1643SOL    HW2 5490   0.696   2.087   3.449
 1644SOL     OW 5491   0.072   2.189   1.896
 1644SOL    HW1 5492   4.477   2.197   1.893
 1644SOL    HW2 5493   0.105   2.270   1.857
 1645SOL     OW 5494   1.433   2.721   3.264
 1645SOL    HW1 5495   1.384   2.780   3.207
 1645SOL    HW2 5496   1.522   2.724   3.231
 1646SOL     OW 5497   0.084   2.040   2.169
 1646SOL    HW1 5498   0.078   2.111   2.105
 1646SOL    HW2 5499   0.160   1.989   2.141
 1647SOL     OW 5500   1.180   3.204   1.979
 1647SOL    HW1 5501   1.089   3.174   1.982
 1647SOL    HW2 5502   1.208   3.203   2.070
 1648SOL     OW 5503   0.620   2.693   3.290
 1648SOL    HW1 5504   0.675   2.771   3.278
 1648SOL    HW2 5505   0.682   2.621   3.300
 1649SOL     OW 5506   1.485   3.636   2.837
 1649SOL    HW1 5507   1.511   3.693   2.765
 1649SOL    HW2 5508   1.566   3.621   2.886
 1650SOL     OW 5509   0.716   2.424   3.567
 1650SOL    HW1 5510   0.749   2.490   3.628
 1650SOL    HW2 5511   0.754   2.342   3.597
 1651SOL     OW 5512   1.468   3.065   3.495
 1651SOL    HW1 5513   1.456   3.078   3.589
 1651SOL    HW2 5514   1.562   3.077   3.481
 1652SOL     OW 5515   0.383   3.604   3.426
 1652SOL    HW1 5516   0.297   3.644   3.411
 1652SOL    HW2 5517   0.364   3.523   3.472
 1653SOL     OW 5518   1.673   2.744   3.117
 1653SOL    HW1 5519   1.663   2.659   3.076
 1653SOL    HW2 5520   1.662   2.807   3.046
 1654SOL     OW 5521   1.219   2.182   2.319
 1654SOL    HW1 5522   1.282   2.111   2.310
 1654SOL    HW2 5523   1.247   2.230   2.397
 1655SOL     OW 5524   0.591   2.602   2.529
 1655SOL    HW1 5525   0.630   2.688   2.512
 1655SOL    HW2 5526   0.521   2.594   2.465
 1656SOL     OW 5527   1.763   2.228   3.517
 1656SOL    HW1 5528   1.748   2.238   3.423
 1656SOL    HW2 5529   1.692   2.170   3.546
 1657SOL     OW 5530   1.743   2.796   3.375
 1657SOL    HW1 5531   1.745   2.891   3.387
 1657SOL    HW2 5532   1.728   2.784   3.281
 1658SOL     OW 5533   0.864   3.231   1.892
 1658SOL    HW1 5534   0.823   3.256   1.975
 1658SOL    HW2 5535   0.882   3.313   1.848
 1659SOL     OW 5536   0.659   3.656   2.811
 1659SOL    HW1 5537   0.637   3.745   2.785
 1659SOL    HW2 5538   0.755   3.652   2.801
 1660SOL     OW 5539   0.866   2.827   2.718
 1660SOL    HW1 5540   0.916   2.756   2.759
 1660SOL    HW2 5541   0.833   2.878   2.792
 1661SOL     OW 5542   1.080   2.850   1.951
 1661SOL    HW1 5543   1.058   2.900   1.872
 1661SOL    HW2 5544   1.156   2.797   1.925
 1662SOL     OW 5545   1.857   3.418   2.707
 1662SOL    HW1 5546   1.780   3.408   2.651
 1662SOL    HW2 5547   1.847   3.351   2.774
 1663SOL     OW 5548   0.228   3.169   3.718
 1663SOL    HW1 5549   0.159   3.107   3.693
 1663SOL    HW2 5550   0.218   3.179   3.813
 1664SOL     OW 5551   0.102   3.102   2.528
 1664SOL    HW1 5552   0.105   3.050   2.609
 1664SOL    HW2 5553   0.162   3.057   2.469
 1665SOL     OW 5554   0.681   3.262   3.489
 1665SOL    HW1 5555   0.600   3.218   3.516
 1665SOL    HW2 5556   0.674   3.350   3.525
 1666SOL     OW 5557   1.788   2.046   3.103
 1666SOL    HW1 5558   1.835   1.967   3.133
 1666SOL    HW2 5559   1.797   2.044   3.008
 1667SOL     OW 5560   0.435   2.295   2.387
 1667SOL    HW1 5561   0.458   2.222   2.330
 1667SOL    HW2 5562   0.384   2.255   2.458
 1668SOL     OW 5563   1.702   3.353   2.962
 1668SOL    HW1 5564   1.620   3.328   2.918
 1668SOL    HW2 5565   1.715   3.285   3.028
 1669SOL     OW 5566   0.306   2.352   3.119
 1669SOL    HW1 5567   0.379   2.311   3.165
 1669SOL    HW2 5568   0.338   2.365   3.030
 1670SOL     OW 5569   0.825   3.440   2.541
 1670SOL    HW1 5570   0.819   3.485   2.457
 1670SOL    HW2 5571   0.747   3.385   2.546
 1671SOL     OW 5572   1.433   2.086   2.979
 1671SOL    HW1 5573   1.466   2.010   3.027
 1671SOL    HW2 5574   1.381   2.134   3.043
 1672SOL     OW 5575   1.008   1.883   3.008
 1672SOL    HW1 5576   0.953   1.814   2.969
 1672SOL    HW2 5577   1.096   1.845   3.010
 1673SOL     OW 5578   0.771   3.194   2.172
 1673SOL    HW1 5579   0.737   3.105   2.179
 1673SOL    HW2 5580   0.854   3.192   2.220
 1674SOL     OW 5581   0.621   3.420   3.146
 1674SOL    HW1 5582   0.623   3.501   3.197
 1674SOL    HW2 5583   0.708   3.414   3.107
 1675SOL     OW 5584   1.352   1.915   2.026
 1675SOL    HW1 5585   1.377   1.857   1.954
 1675SOL    HW2 5586   1.266   1.884   2.053
 1676SOL     OW 5587   1.297   2.322   2.545
 1676SOL    HW1 5588   1.243   2.400   2.554
 1676SOL    HW2 5589   1.295   2.281   2.632
 1677SOL     OW 5590   1.569   2.066   2.726
 1677SOL    HW1 5591   1.515   2.086   2.802
 1677SOL    HW2 5592   1.576   2.148   2.679
 1678SOL     OW 5593   0.041   2.916   2.149
 1678SOL    HW1 5594   0.136   2.904   2.142
 1678SOL    HW2 5595   0.018   2.875   2.232
 1679SOL     OW 5596   0.881   3.512   2.207
 1679SOL    HW1 5597   0.810   3.493   2.145
 1679SOL    HW2 5598   0.851   3.588   2.256
 1680SOL     OW 5599   0.249   2.489   3.842
 1680SOL    HW1 5600   0.173   2.475   3.899
 1680SOL    HW2 5601   0.217   2.468   3.754
 1681SOL     OW 5602   0.213   2.138   4.716
 1681SOL    HW1 5603   0.250   2.111   4.800
 1681SOL    HW2 5604   0.137   2.081   4.704
 1682SOL     OW 5605   0.010   2.249   4.363
 1682SOL    HW1 5606   4.430   2.279   4.406
 1682SOL    HW2 5607   4.484   2.169   4.317
 1683SOL     OW 5608   0.567   3.144   4.896
 1683SOL    HW1 5609   0.479   3.148   4.858
 1683SOL    HW2 5610   0.582   3.231   4.932
 1684SOL     OW 5611   1.556   3.373   4.429
 1684SOL    HW1 5612   1.512   3.357   4.513
 1684SOL    HW2 5613   1.486   3.379   4.365
 1685SOL     OW 5614   1.132   2.560   4.429
 1685SOL    HW1 5615   1.179   2.642   4.413
 1685SOL    HW2 5616   1.083   2.576   4.510
 1686SOL     OW 5617   1.767   2.468   3.954
 1686SOL    HW1 5618   1.746   2.460   3.861
 1686SOL    HW2 5619   1.730   2.389   3.994
 1687SOL     OW 5620   0.760   3.007   4.761
 1687SOL    HW1 5621   0.689   3.039   4.817
 1687SOL    HW2 5622   0.793   3.084   4.716
 1688SOL     OW 5623   0.863   2.642   5.546
 1688SOL    HW1 5624   0.848   2.713   5.608
 1688SOL    HW2 5625   0.885   2.686   5.463
 1689SOL     OW 5626   0.686   2.870   4.373
 1689SOL    HW1 5627   0.750   2.854   4.444
 1689SOL    HW2 5628   0.616   2.919   4.415
 1690SOL     OW 5629   0.708   3.013   5.533
 1690SOL    HW1 5630   0.755   3.093   5.557
 1690SOL    HW2 5631   0.624   3.044   5.499
 1691SOL     OW 5632   0.337   3.285   4.794
 1691SOL    HW1 5633   0.255   3.266   4.748
 1691SOL    HW2 5634   0.386   3.340   4.733
 1692SOL     OW 5635   1.463   3.361   5.074
 1692SOL    HW1 5636   1.505   3.446   5.086
 1692SOL    HW2 5637   1.406   3.351   5.151
 1693SOL     OW 5638   0.443   2.266   5.219
 1693SOL    HW1 5639   0.522   2.213   5.222
 1693SOL    HW2 5640   0.371   2.203   5.223
 1694SOL     OW 5641   1.622   2.317   4.450
 1694SOL    HW1 5642   1.537   2.332   4.409
 1694SOL    HW2 5643   1.632   2.388   4.513
 1695SOL     OW 5644   0.246   3.554   4.204
 1695SOL    HW1 5645   0.233   3.638   4.247
 1695SOL    HW2 5646   0.306   3.572   4.132
 1696SOL     OW 5647   1.136   3.203   5.415
 1696SOL    HW1 5648   1.174   3.200   5.503
 1696SOL    HW2 5649   1.082   3.123   5.409
 1697SOL     OW 5650   0.244   3.290   4.252
 1697SOL    HW1 5651   0.237   3.385   4.257
 1697SOL    HW2 5652   0.179   3.257   4.315
 1698SOL     OW 5653   0.246   2.943   4.607
 1698SOL    HW1 5654   0.262   2.856   4.641
 1698SOL    HW2 5655   0.188   2.984   4.672
 1699SOL     OW 5656   0.617   3.652   5.157
 1699SOL    HW1 5657   0.533   3.634   5.199
 1699SOL    HW2 5658   0.637   3.743   5.180
 1700SOL     OW 5659   0.585   2.845   3.859
 1700SOL    HW1 5660   0.629   2.893   3.789
 1700SOL    HW2 5661   0.630   2.872   3.938
 1701SOL     OW 5662   0.137   2.506   4.299
 1701SOL    HW1 5663   0.086   2.426   4.311
 1701SOL    HW2 5664   0.106   2.565   4.368
 1702SOL     OW 5665   1.842   3.623   4.061
 1702SOL    HW1 5666   1.901   3.594   4.130
 1702SOL    HW2 5667   1.869   3.713   4.042
 1703SOL     OW 5668   0.033   3.462   3.859
 1703SOL    HW1 5669   0.021   3.367   3.862
 1703SOL    HW2 5670   0.009   3.492   3.947
 1704SOL     OW 5671   1.691   2.777   4.356
 1704SOL    HW1 5672   1.776   2.742   4.332
 1704SOL    HW2 5673   1.664   2.829   4.279
 1705SOL     OW 5674   1.644   2.969   4.154
 1705SOL    HW1 5675   1.728   2.978   4.110
 1705SOL    HW2 5676   1.649   3.031   4.227
 1706SOL     OW 5677   0.111   2.621   5.313
 1706SOL    HW1 5678   0.206   2.622   5.301
 1706SOL    HW2 5679   0.085   2.713   5.317
 1707SOL     OW 5680   0.613   3.243   4.460
 1707SOL    HW1 5681   0.566   3.161   4.468
 1707SOL    HW2 5682   0.596   3.271   4.369
 1708SOL     OW 5683   1.291   3.101   5.148
 1708SOL    HW1 5684   1.324   3.034   5.088
 1708SOL    HW2 5685   1.346   3.093   5.226
 1709SOL     OW 5686   0.813   1.860   4.229
 1709SOL    HW1 5687   0.853   1.946   4.214
 1709SOL    HW2 5688   0.719   1.879   4.241
 1710SOL     OW 5689   0.184   2.807   5.003
 1710SOL    HW1 5690   0.275   2.789   4.979
 1710SOL    HW2 5691   0.133   2.781   4.926
 1711SOL     OW 5692   1.532   2.853   3.920
 1711SOL    HW1 5693   1.462   2.795   3.948
 1711SOL    HW2 5694   1.570   2.886   4.002
 1712SOL     OW 5695   1.187   3.666   5.344
 1712SOL    HW1 5696   1.200   3.723   5.268
 1712SOL    HW2 5697   1.200   3.577   5.311
 1713SOL     OW 5698   0.328   2.118   5.519
 1713SOL    HW1 5699   0.381   2.190   5.553
 1713SOL    HW2 5700   0.243   2.128   5.561
 1714SOL     OW 5701   1.467   3.281   4.678
 1714SOL    HW1 5702   1.398   3.296   4.743
 1714SOL    HW2 5703   1.454   3.190   4.650
 1715SOL     OW 5704   1.663   3.593   4.302
 1715SOL    HW1 5705   1.639   3.567   4.213
 1715SOL    HW2 5706   1.633   3.520   4.357
 1716SOL     OW 5707   0.598   2.585   3.989
 1716SOL    HW1 5708   0.602   2.664   3.936
 1716SOL    HW2 5709   0.531   2.604   4.055
 1717SOL     OW 5710   1.274   2.203   4.651
 1717SOL    HW1 5711   1.185   2.172   4.665
 1717SOL    HW2 5712   1.329   2.149   4.708
 1718SOL     OW 5713   1.582   3.530   4.033
 1718SOL    HW1 5714   1.671   3.565   4.026
 1718SOL    HW2 5715   1.556   3.513   3.942
 1719SOL     OW 5716   0.795   2.478   5.177
 1719SOL    HW1 5717   0.769   2.456   5.266
 1719SOL    HW2 5718   0.751   2.414   5.122
 1720SOL     OW 5719   1.390   2.339   5.402
 1720SOL    HW1 5720   1.417   2.387   5.480
 1720SOL    HW2 5721   1.445   2.261   5.400
 1721SOL     OW 5722   0.959   2.751   5.304
 1721SOL    HW1 5723   1.012   2.679   5.270
 1721SOL    HW2 5724   0.911   2.783   5.228
 1722SOL     OW 5725   0.994   2.277   4.963
 1722SOL    HW1 5726   0.911   2.298   5.005
 1722SOL    HW2 5727   0.969   2.226   4.886
 1723SOL     OW 5728   1.049   2.560   4.151
 1723SOL    HW1 5729   1.063   2.553   4.245
 1723SOL    HW2 5730   0.968   2.513   4.135
 1724SOL     OW 5731   0.098   2.686   4.507
 1724SOL    HW1 5732   0.184   2.665   4.543
 1724SOL    HW2 5733   0.053   2.732   4.578
 1725SOL     OW 5734   0.127   3.711   5.299
 1725SOL    HW1 5735   0.119   3.690   5.392
 1725SOL    HW2 5736   0.044   3.682   5.261
 1726SOL     OW 5737   0.887   2.208   3.919
 1726SOL    HW1 5738   0.930   2.269   3.858
 1726SOL    HW2 5739   0.904   2.122   3.882
 1727SOL     OW 5740   1.660   2.408   5.515
 1727SOL    HW1 5741   1.640   2.497   5.488
 1727SOL    HW2 5742   1.731   2.381   5.457
 1728SOL     OW 5743   1.375   3.006   4.267
 1728SOL    HW1 5744   1.452   2.990   4.212
 1728SOL    HW2 5745   1.322   3.067   4.217
 1729SOL     OW 5746   0.551   2.046   4.616
 1729SOL    HW1 5747   0.553   2.074   4.708
 1729SOL    HW2 5748   0.552   2.128   4.566
 1730SOL     OW 5749   1.009   3.309   4.198
 1730SOL    HW1 5750   0.968   3.379   4.148
 1730SOL    HW2 5751   0.992   3.331   4.290
 1731SOL     OW 5752   0.354   3.669   4.580
 1731SOL    HW1 5753   0.397   3.585   4.591
 1731SOL    HW2 5754   0.424   3.733   4.593
 1732SOL     OW 5755   1.795   2.933   4.561
 1732SOL    HW1 5756   1.727   2.909   4.498
 1732SOL    HW2 5757   1.748   2.947   4.643
 1733SOL     OW 5758   1.229   3.401   5.235
 1733SOL    HW1 5759   1.214   3.329   5.296
 1733SOL    HW2 5760   1.166   3.386   5.165
 1734SOL     OW 5761   0.317   2.816   3.973
 1734SOL    HW1 5762   0.402   2.838   3.933
 1734SOL    HW2 5763   0.299   2.727   3.943
 1735SOL     OW 5764   1.475   2.605   4.440
 1735SOL    HW1 5765   1.457   2.556   4.520
 1735SOL    HW2 5766   1.551   2.659   4.461
 1736SOL     OW 5767   0.466   3.123   5.459
 1736SOL    HW1 5768   0.437   3.129   5.368
 1736SOL    HW2 5769   0.385   3.128   5.510
 1737SOL     OW 5770   1.121   3.639   3.956
 1737SOL    HW1 5771   1.049   3.596   4.003
 1737SOL    HW2 5772   1.142   3.580   3.884
 1738SOL     OW 5773   0.195   2.140   5.212
 1738SOL    HW1 5774   0.131   2.211   5.216
 1738SOL    HW2 5775   0.185   2.094   5.295
 1739SOL     OW 5776   1.629   3.241   3.811
 1739SOL    HW1 5777   1.589   3.326   3.796
 1739SOL    HW2 5778   1.560   3.178   3.792
 1740SOL     OW 5779   0.469   3.607   4.038
 1740SOL    HW1 5780   0.508   3.658   4.109
 1740SOL    HW2 5781   0.544   3.575   3.987
 1741SOL     OW 5782   1.401   1.971   4.154
 1741SOL    HW1 5783   1.388   1.944   4.062
 1741SOL    HW2 5784   1.496   1.976   4.164
 1742SOL     OW 5785   0.261   3.656   4.958
 1742SOL    HW1 5786   0.305   3.582   4.999
 1742SOL    HW2 5787   0.228   3.621   4.875
 1743SOL     OW 5788   0.938   3.560   4.624
 1743SOL    HW1 5789   1.014   3.506   4.645
 1743SOL    HW2 5790   0.892   3.512   4.556
 1744SOL     OW 5791   0.392   2.557   4.199
 1744SOL    HW1 5792   0.417   2.465   4.208
 1744SOL    HW2 5793   0.300   2.560   4.225
 1745SOL     OW 5794   1.508   2.098   5.448
 1745SOL    HW1 5795   1.534   2.103   5.540
 1745SOL    HW2 5796   1.468   2.012   5.439
 1746SOL     OW 5797   0.630   1.989   3.829
 1746SOL    HW1 5798   0.703   1.929   3.843
 1746SOL    HW2 5799   0.585   1.954   3.752
 1747SOL     OW 5800   0.768   2.137   5.476
 1747SOL    HW1 5801   0.841   2.076   5.483
 1747SOL    HW2 5802   0.718   2.125   5.557
 1748SOL     OW 5803   0.878   3.384   4.917
 1748SOL    HW1 5804   0.861   3.347   4.830
 1748SOL    HW2 5805   0.946   3.327   4.954
 1749SOL     OW 5806   1.347   2.450   5.153
 1749SOL    HW1 5807   1.373   2.417   5.239
 1749SOL    HW2 5808   1.375   2.542   5.154
 1750SOL     OW 5809   0.813   3.260   4.660
 1750SOL    HW1 5810   0.897   3.250   4.614
 1750SOL    HW2 5811   0.747   3.258   4.590
 1751SOL     OW 5812   0.927   2.372   4.627
 1751SOL    HW1 5813   0.904   2.363   4.535
 1751SOL    HW2 5814   0.959   2.286   4.653
 1752SOL     OW 5815   0.550   1.924   4.229
 1752SOL    HW1 5816   0.469   1.923   4.280
 1752SOL    HW2 5817   0.543   2.003   4.175
 1753SOL     OW 5818   1.429   3.060   3.765
 1753SOL    HW1 5819   1.459   2.984   3.815
 1753SOL    HW2 5820   1.342   3.079   3.801
 1754SOL     OW 5821   0.295   1.908   3.902
 1754SOL    HW1 5822   0.357   1.976   3.875
 1754SOL    HW2 5823   0.349   1.842   3.946
 1755SOL     OW 5824   0.936   2.106   4.188
 1755SOL    HW1 5825   0.907   2.148   4.107
 1755SOL    HW2 5826   1.031   2.118   4.189
 1756SOL     OW 5827   1.080   2.541   5.183
 1756SOL    HW1 5828   1.008   2.478   5.191
 1756SOL    HW2 5829   1.159   2.486   5.178
 1757SOL     OW 5830   1.226   3.430   4.517
 1757SOL    HW1 5831   1.243   3.499   4.452
 1757SOL    HW2 5832   1.292   3.445   4.584
 1758SOL     OW 5833   0.465   3.009   4.462
 1758SOL    HW1 5834   0.393   2.991   4.522
 1758SOL    HW2 5835   0.428   2.993   4.375
 1759SOL     OW 5836   1.271   3.657   4.330
 1759SOL    HW1 5837   1.315   3.718   4.271
 1759SOL    HW2 5838   1.206   3.710   4.375
 1760SOL     OW 5839   1.026   2.407   3.743
 1760SOL    HW1 5840   0.983   2.491   3.722
 1760SOL    HW2 5841   1.089   2.429   3.811
 1761SOL     OW 5842   0.081   2.395   5.131
 1761SOL    HW1 5843   0.150   2.397   5.065
 1761SOL    HW2 5844   0.068   2.487   5.154
 1762SOL     OW 5845   0.562   2.089   4.888
 1762SOL    HW1 5846   0.602   2.008   4.920
 1762SOL    HW2 5847   0.470   2.084   4.915
 1763SOL     OW 5848   0.871   2.323   4.363
 1763SOL    HW1 5849   0.822   2.375   4.300
 1763SOL    HW2 5850   0.889   2.241   4.318
 1764SOL     OW 5851   1.014   1.914   4.477
 1764SOL    HW1 5852   0.955   1.906   4.402
 1764SOL    HW2 5853   0.995   1.839   4.532
 1765SOL     OW 5854   1.436   3.024   4.581
 1765SOL    HW1 5855   1.367   2.958   4.580
 1765SOL    HW2 5856   1.454   3.041   4.488
 1766SOL     OW 5857   1.848   2.679   4.107
 1766SOL    HW1 5858   1.906   2.625   4.160
 1766SOL    HW2 5859   1.818   2.622   4.037
 1767SOL     OW 5860   0.493   3.275   3.886
 1767SOL    HW1 5861   0.416   3.246   3.936
 1767SOL    HW2 5862   0.470   3.256   3.795
 1768SOL     OW 5863   1.668   3.131   4.369
 1768SOL    HW1 5864   1.762   3.140   4.386
 1768SOL    HW2 5865   1.631   3.216   4.392
 1769SOL     OW 5866   1.394   2.434   3.795
 1769SOL    HW1 5867   1.334   2.415   3.868
 1769SOL    HW2 5868   1.478   2.399   3.825
 1770SOL     OW 5869   0.525   2.122   4.044
 1770SOL    HW1 5870   0.567   2.074   3.973
 1770SOL    HW2 5871   0.508   2.209   4.008
 1771SOL     OW 5872   1.755   3.095   5.313
 1771SOL    HW1 5873   1.844   3.067   5.293
 1771SOL    HW2 5874   1.763   3.188   5.333
 1772SOL     OW 5875   1.061   3.215   5.058
 1772SOL    HW1 5876   0.986   3.185   5.109
 1772SOL    HW2 5877   1.136   3.174   5.100
 1773SOL     OW 5878   1.606   3.487   5.375
 1773SOL    HW1 5879   1.603   3.521   5.286
 1773SOL    HW2 5880   1.690   3.441   5.381
 1774SOL     OW 5881   1.125   3.062   4.830
 1774SOL    HW1 5882   1.068   3.101   4.897
 1774SOL    HW2 5883   1.090   3.094   4.747
 1775SOL     OW 5884   1.633   2.970   4.793
 1775SOL    HW1 5885   1.624   3.033   4.865
 1775SOL    HW2 5886   1.553   2.982   4.742
 1776SOL     OW 5887   0.917   1.960   5.123
 1776SOL    HW1 5888   0.940   1.940   5.032
 1776SOL    HW2 5889   0.996   2.000   5.159
 1777SOL     OW 5890   0.984   2.976   5.445
 1777SOL    HW1 5891   0.891   2.991   5.466
 1777SOL    HW2 5892   0.984   2.898   5.390
 1778SOL     OW 5893   0.708   2.922   4.097
 1778SOL    HW1 5894   0.695   2.908   4.190
 1778SOL    HW2 5895   0.784   2.869   4.074
 1779SOL     OW 5896   0.429   2.684   4.962
 1779SOL    HW1 5897   0.497   2.696   5.028
 1779SOL    HW2 5898   0.369   2.620   5.001
 1780SOL     OW 5899   1.269   2.240   4.999
 1780SOL    HW1 5900   1.299   2.318   5.046
 1780SOL    HW2 5901   1.180   2.262   4.971
 1781SOL     OW 5902   0.061   3.437   5.061
 1781SOL    HW1 5903   0.032   3.526   5.040
 1781SOL    HW2 5904   0.156   3.444   5.070
 1782SOL     OW 5905   0.352   2.968   4.217
 1782SOL    HW1 5906   0.359   3.042   4.156
 1782SOL    HW2 5907   0.353   2.890   4.162
 1783SOL     OW 5908   0.563   2.397   4.581
 1783SOL    HW1 5909   0.576   2.457   4.508
 1783SOL    HW2 5910   0.620   2.430   4.650
 1784SOL     OW 5911   1.248   3.209   4.114
 1784SOL    HW1 5912   1.303   3.282   4.144
 1784SOL    HW2 5913   1.161   3.230   4.147
 1785SOL     OW 5914   1.277   3.317   4.870
 1785SOL    HW1 5915   1.331   3.319   4.949
 1785SOL    HW2 5916   1.220   3.241   4.881
 1786SOL     OW 5917   1.582   2.489   4.196
 1786SOL    HW1 5918   1.538   2.545   4.261
 1786SOL    HW2 5919   1.627   2.551   4.139
 1787SOL     OW 5920   0.348   3.391   5.042
 1787SOL    HW1 5921   0.333   3.344   4.960
 1787SOL    HW2 5922   0.443   3.401   5.046
 1788SOL     OW 5923   0.472   2.621   5.384
 1788SOL    HW1 5924   0.501   2.660   5.301
 1788SOL    HW2 5925   0.504   2.531   5.380
 1789SOL     OW 5926   1.593   2.644   5.403
 1789SOL    HW1 5927   1.509   2.691   5.402
 1789SOL    HW2 5928   1.649   2.695   5.345
 1790SOL     OW 5929   0.996   1.979   5.480
 1790SOL    HW1 5930   1.048   2.053   5.448
 1790SOL    HW2 5931   1.047   1.902   5.455
 1791SOL     OW 5932   0.498   1.906   5.469
 1791SOL    HW1 5933   0.458   1.849   5.403
 1791SOL    HW2 5934   0.437   1.979   5.479
 1792SOL     OW 5935   0.589   2.735   4.749
 1792SOL    HW1 5936   0.615   2.827   4.750
 1792SOL    HW2 5937   0.531   2.725   4.824
 1793SOL     OW 5938   1.364   2.722   4.749
 1793SOL    HW1 5939   1.278   2.719   4.706
 1793SOL    HW2 5940   1.375   2.634   4.786
 1794SOL     OW 5941   1.208   2.391   3.994
 1794SOL    HW1 5942   1.215   2.313   4.048
 1794SOL    HW2 5943   1.165   2.455   4.050
 1795SOL     OW 5944   0.303   2.056   4.965
 1795SOL    HW1 5945   0.265   2.091   5.046
 1795SOL    HW2 5946   0.285   1.962   4.968
 1796SOL     OW 5947   0.048   3.174   5.007
 1796SOL    HW1 5948   0.078   3.128   5.086
 1796SOL    HW2 5949   0.049   3.267   5.032
 1797SOL     OW 5950   0.727   2.495   4.785
 1797SOL    HW1 5951   0.798   2.475   4.724
 1797SOL    HW2 5952   0.699   2.583   4.761
 1798SOL     OW 5953   0.308   1.932   4.343
 1798SOL    HW1 5954   0.286   2.021   4.372
 1798SOL    HW2 5955   0.303   1.879   4.423
 1799SOL     OW 5956   1.614   2.234   4.095
 1799SOL    HW1 5957   1.641   2.171   4.162
 1799SOL    HW2 5958   1.591   2.313   4.143
 1800SOL     OW 5959   1.030   2.621   4.688
 1800SOL    HW1 5960   1.026   2.638   4.782
 1800SOL    HW2 5961   1.001   2.530   4.679
 1801SOL     OW 5962   0.984   3.429   5.438
 1801SOL    HW1 5963   0.967   3.473   5.354
 1801SOL    HW2 5964   1.024   3.346   5.414
 1802SOL     OW 5965   1.857   3.370   5.328
 1802SOL    HW1 5966   1.873   3.400   5.239
 1802SOL    HW2 5967   1.937   3.392   5.376
 1803SOL     OW 5968   0.348   2.792   5.542
 1803SOL    HW1 5969   0.422   2.819   5.595
 1803SOL    HW2 5970   0.384   2.726   5.482
 1804SOL     OW 5971   1.531   2.136   3.852
 1804SOL    HW1 5972   1.467   2.070   3.878
 1804SOL    HW2 5973   1.563   2.172   3.935
 1805SOL     OW 5974   1.296   2.690   3.758
 1805SOL    HW1 5975   1.337   2.603   3.760
 1805SOL    HW2 5976   1.325   2.728   3.675
 1806SOL     OW 5977   1.066   3.197   4.577
 1806SOL    HW1 5978   1.068   3.124   4.515
 1806SOL    HW2 5979   1.128   3.260   4.541
 1807SOL     OW 5980   0.317   2.674   4.674
 1807SOL    HW1 5981   0.411   2.691   4.669
 1807SOL    HW2 5982   0.310   2.584   4.704
 1808SOL     OW 5983   0.334   2.385   4.717
 1808SOL    HW1 5984   0.295   2.299   4.702
 1808SOL    HW2 5985   0.411   2.386   4.661
 1809SOL     OW 5986   1.134   2.241   5.402
 1809SOL    HW1 5987   1.089   2.295   5.467
 1809SOL    HW2 5988   1.223   2.275   5.400
 1810SOL     OW 5989   1.160   2.065   5.194
 1810SOL    HW1 5990   1.151   2.127   5.266
 1810SOL    HW2 5991   1.199   2.115   5.122
 1811SOL     OW 5992   4.492   3.185   3.925
 1811SOL    HW1 5993   4.399   3.200   3.907
 1811SOL    HW2 5994   4.498   3.093   3.949
 1812SOL     OW 5995   0.095   3.644   4.664
 1812SOL    HW1 5996   0.057   3.583   4.601
 1812SOL    HW2 5997   0.182   3.662   4.630
 1813SOL     OW 5998   0.499   3.435   4.630
 1813SOL    HW1 5999   0.567   3.498   4.654
 1813SOL    HW2 6000   0.544   3.370   4.576
 1814SOL     OW 6001   0.989   2.656   4.952
 1814SOL    HW1 6002   1.040   2.629   5.029
 1814SOL    HW2 6003   0.901   2.622   4.969
 1815SOL     OW 6004   0.038   2.424   4.831
 1815SOL    HW1 6005   0.119   2.386   4.798
 1815SOL    HW2 6006   0.027   2.387   4.918
 1816SOL     OW 6007   0.179   2.377   5.438
 1816SOL    HW1 6008   0.258   2.349   5.390
 1816SOL    HW2 6009   0.153   2.458   5.394
 1817SOL     OW 6010   1.373   2.805   5.386
 1817SOL    HW1 6011   1.394   2.898   5.384
 1817SOL    HW2 6012   1.369   2.779   5.294
 1818SOL     OW 6013   0.816   2.431   4.078
 1818SOL    HW1 6014   0.818   2.356   4.020
 1818SOL    HW2 6015   0.741   2.483   4.049
 1819SOL     OW 6016   0.272   3.423   5.466
 1819SOL    HW1 6017   0.218   3.477   5.524
 1819SOL    HW2 6018   0.250   3.333   5.489
 1820SOL     OW 6019   0.687   2.318   4.989
 1820SOL    HW1 6020   0.644   2.240   4.954
 1820SOL    HW2 6021   0.691   2.379   4.915
 1821SOL     OW 6022   0.933   3.541   5.189
 1821SOL    HW1 6023   0.903   3.510   5.103
 1821SOL    HW2 6024   0.929   3.636   5.183
 1822SOL     OW 6025   0.473   2.353   3.912
 1822SOL    HW1 6026   0.531   2.426   3.933
 1822SOL    HW2 6027   0.387   2.393   3.899
 1823SOL     OW 6028   0.162   3.003   5.188
 1823SOL    HW1 6029   0.148   2.954   5.269
 1823SOL    HW2 6030   0.171   2.935   5.121
 1824SOL     OW 6031   1.326   2.910   4.949
 1824SOL    HW1 6032   1.357   2.854   4.877
 1824SOL    HW2 6033   1.254   2.960   4.911
 1825SOL     OW 6034   1.308   2.718   4.032
 1825SOL    HW1 6035   1.231   2.688   4.080
 1825SOL    HW2 6036   1.287   2.705   3.940
 1826SOL     OW 6037   1.767   3.609   4.872
 1826SOL    HW1 6038   1.827   3.635   4.803
 1826SOL    HW2 6039   1.745   3.518   4.852
 1827SOL     OW 6040   1.242   3.595   4.841
 1827SOL    HW1 6041   1.324   3.612   4.794
 1827SOL    HW2 6042   1.244   3.501   4.859
 1828SOL     OW 6043   0.069   3.051   4.771
 1828SOL    HW1 6044   0.074   3.085   4.861
 1828SOL    HW2 6045   0.010   3.112   4.726
 1829SOL     OW 6046   0.679   3.526   5.449
 1829SOL    HW1 6047   0.625   3.605   5.446
 1829SOL    HW2 6048   0.739   3.536   5.375
 1830SOL     OW 6049   1.720   2.002   4.239
 1830SOL    HW1 6050   1.792   1.989   4.177
 1830SOL    HW2 6051   1.703   1.915   4.275
 1831SOL     OW 6052   1.391   3.430   4.207
 1831SOL    HW1 6053   1.450   3.461   4.139
 1831SOL    HW2 6054   1.342   3.508   4.234
 1832SOL     OW 6055   0.121   3.668   5.571
 1832SOL    HW1 6056   0.082   3.595   5.618
 1832SOL    HW2 6057   0.184   3.706   5.633
 1833SOL     OW 6058   1.276   2.788   4.394
 1833SOL    HW1 6059   1.348   2.726   4.396
 1833SOL    HW2 6060   1.308   2.862   4.343
 1834SOL     OW 6061   0.818   3.135   5.155
 1834SOL    HW1 6062   0.792   3.173   5.239
 1834SOL    HW2 6063   0.746   3.156   5.096
 1835SOL     OW 6064   0.673   3.478   3.879
 1835SOL    HW1 6065   0.681   3.489   3.784
 1835SOL    HW2 6066   0.619   3.400   3.890
 1836SOL     OW 6067   1.633   3.589   5.117
 1836SOL    HW1 6068   1.680   3.597   5.034
 1836SOL    HW2 6069   1.619   3.679   5.145
 1837SOL     OW 6070   0.267   2.183   4.444
 1837SOL    HW1 6071   0.184   2.221   4.415
 1837SOL    HW2 6072   0.255   2.170   4.538
 1838SOL     OW 6073   1.206   3.470   3.755
 1838SOL    HW1 6074   1.197   3.379   3.782
 1838SOL    HW2 6075   1.141   3.480   3.685
 1839SOL     OW 6076   0.826   2.868   5.096
 1839SOL    HW1 6077   0.866   2.867   5.009
 1839SOL    HW2 6078   0.825   2.961   5.121
 1840SOL     OW 6079   0.916   2.773   4.014
 1840SOL    HW1 6080   0.977   2.804   3.947
 1840SOL    HW2 6081   0.962   2.701   4.057
 1841SOL     OW 6082   1.495   3.486   3.766
 1841SOL    HW1 6083   1.400   3.483   3.755
 1841SOL    HW2 6084   1.530   3.492   3.677
 1842SOL     OW 6085   0.373   3.166   5.214
 1842SOL    HW1 6086   0.356   3.246   5.164
 1842SOL    HW2 6087   0.297   3.110   5.199
 1843SOL     OW 6088   1.601   3.138   5.004
 1843SOL    HW1 6089   1.679   3.146   5.059
 1843SOL    HW2 6090   1.546   3.212   5.030
 1844SOL     OW 6091   1.048   2.968   4.429
 1844SOL    HW1 6092   0.977   2.917   4.469
 1844SOL    HW2 6093   1.108   2.902   4.394
 1845SOL     OW 6094   1.016   2.102   4.690
 1845SOL    HW1 6095   1.013   2.054   4.608
 1845SOL    HW2 6096   1.014   2.034   4.758
 1846SOL     OW 6097   0.603   3.352   4.207
 1846SOL    HW1 6098   0.641   3.301   4.136
 1846SOL    HW2 6099   0.532   3.402   4.167
 1847SOL     OW 6100   0.252   3.207   4.002
 1847SOL    HW1 6101   0.158   3.208   3.987
 1847SOL    HW2 6102   0.262   3.240   4.091
 1848SOL     OW 6103   0.117   2.869   5.420
 1848SOL    HW1 6104   0.052   2.906   5.479
 1848SOL    HW2 6105   0.195   2.857   5.475
 1849SOL     OW 6106   0.672   2.061   5.222
 1849SOL    HW1 6107   0.756   2.040   5.180
 1849SOL    HW2 6108   0.696   2.087   5.311
 1850SOL     OW 6109   0.073   2.189   3.758
 1850SOL    HW1 6110   4.477   2.197   3.755
 1850SOL    HW2 6111   0.104   2.270   3.719
 1851SOL     OW 6112   1.417   2.720   5.129
 1851SOL    HW1 6113   1.365   2.780   5.075
 1851SOL    HW2 6114   1.507   2.730   5.095
 1852SOL     OW 6115   0.084   2.040   4.031
 1852SOL    HW1 6116   0.078   2.111   3.967
 1852SOL    HW2 6117   0.160   1.989   4.003
 1853SOL     OW 6118   1.180   3.204   3.841
 1853SOL    HW1 6119   1.089   3.175   3.843
 1853SOL    HW2 6120   1.208   3.202   3.932
 1854SOL     OW 6121   0.621   2.694   5.152
 1854SOL    HW1 6122   0.676   2.771   5.140
 1854SOL    HW2 6123   0.682   2.621   5.162
 1855SOL     OW 6124   1.486   3.634   4.698
 1855SOL    HW1 6125   1.510   3.694   4.627
 1855SOL    HW2 6126   1.566   3.624   4.749
 1856SOL     OW 6127   0.717   2.425   5.428
 1856SOL    HW1 6128   0.749   2.490   5.490
 1856SOL    HW2 6129   0.754   2.342   5.459
 1857SOL     OW 6130   1.468   3.065   5.357
 1857SOL    HW1 6131   1.454   3.078   5.451
 1857SOL    HW2 6132   1.562   3.079   5.344
 1858SOL     OW 6133   0.383   3.604   5.287
 1858SOL    HW1 6134   0.297   3.644   5.273
 1858SOL    HW2 6135   0.364   3.522   5.334
 1859SOL     OW 6136   1.643   2.777   4.988
 1859SOL    HW1 6137   1.686   2.706   4.940
 1859SOL    HW2 6138   1.636   2.849   4.925
 1860SOL     OW 6139   1.220   2.183   4.183
 1860SOL    HW1 6140   1.282   2.111   4.172
 1860SOL    HW2 6141   1.250   2.230   4.260
 1861SOL     OW 6142   0.592   2.602   4.391
 1861SOL    HW1 6143   0.630   2.688   4.373
 1861SOL    HW2 6144   0.521   2.594   4.327
 1862SOL     OW 6145   1.736   2.818   5.244
 1862SOL    HW1 6146   1.731   2.911   5.262
 1862SOL    HW2 6147   1.704   2.809   5.155
 1863SOL     OW 6148   0.865   3.231   3.755
 1863SOL    HW1 6149   0.822   3.256   3.837
 1863SOL    HW2 6150   0.882   3.313   3.710
 1864SOL     OW 6151   0.660   3.656   4.673
 1864SOL    HW1 6152   0.636   3.745   4.647
 1864SOL    HW2 6153   0.755   3.652   4.663
 1865SOL     OW 6154   0.867   2.827   4.580
 1865SOL    HW1 6155   0.916   2.756   4.622
 1865SOL    HW2 6156   0.833   2.878   4.653
 1866SOL     OW 6157   1.081   2.850   3.813
 1866SOL    HW1 6158   1.058   2.900   3.734
 1866SOL    HW2 6159   1.156   2.797   3.787
 1867SOL     OW 6160   1.857   3.413   4.571
 1867SOL    HW1 6161   1.783   3.412   4.509
 1867SOL    HW2 6162   1.826   3.361   4.645
 1868SOL     OW 6163   0.228   3.169   5.580
 1868SOL    HW1 6164   0.159   3.107   5.555
 1868SOL    HW2 6165   0.218   3.179   5.675
 1869SOL     OW 6166   0.102   3.102   4.390
 1869SOL    HW1 6167   0.104   3.050   4.471
 1869SOL    HW2 6168   0.162   3.057   4.331
 1870SOL     OW 6169   0.681   3.262   5.350
 1870SOL    HW1 6170   0.601   3.218   5.378
 1870SOL    HW2 6171   0.674   3.350   5.387
 1871SOL     OW 6172   0.435   2.295   4.249
 1871SOL    HW1 6173   0.458   2.221   4.192
 1871SOL    HW2 6174   0.384   2.255   4.320
 1872SOL     OW 6175   1.708   3.350   4.819
 1872SOL    HW1 6176   1.623   3.324   4.783
 1872SOL    HW2 6177   1.726   3.285   4.887
 1873SOL     OW 6178   0.306   2.352   4.981
 1873SOL    HW1 6179   0.379   2.311   5.027
 1873SOL    HW2 6180   0.338   2.365   4.892
 1874SOL     OW 6181   0.826   3.439   4.403
 1874SOL    HW1 6182   0.819   3.485   4.320
 1874SOL    HW2 6183   0.747   3.385   4.408
 1875SOL     OW 6184   1.394   2.051   4.842
 1875SOL    HW1 6185   1.476   2.021   4.880
 1875SOL    HW2 6186   1.358   2.111   4.907
 1876SOL     OW 6187   1.008   1.883   4.870
 1876SOL    HW1 6188   0.955   1.813   4.831
 1876SOL    HW2 6189   1.097   1.847   4.873
 1877SOL     OW 6190   0.771   3.194   4.034
 1877SOL    HW1 6191   0.737   3.105   4.040
 1877SOL    HW2 6192   0.854   3.192   4.082
 1878SOL     OW 6193   0.621   3.420   5.008
 1878SOL    HW1 6194   0.623   3.501   5.059
 1878SOL    HW2 6195   0.708   3.414   4.969
 1879SOL     OW 6196   1.352   1.915   3.888
 1879SOL    HW1 6197   1.378   1.857   3.817
 1879SOL    HW2 6198   1.265   1.884   3.915
 1880SOL     OW 6199   1.305   2.326   4.411
 1880SOL    HW1 6200   1.242   2.398   4.417
 1880SOL    HW2 6201   1.296   2.280   4.494
 1881SOL     OW 6202   0.041   2.916   4.011
 1881SOL    HW1 6203   0.136   2.904   4.004
 1881SOL    HW2 6204   0.018   2.875   4.094
 1882SOL     OW 6205   0.882   3.512   4.068
 1882SOL    HW1 6206   0.810   3.493   4.007
 1882SOL    HW2 6207   0.851   3.588   4.118
 1883SOL     OW 6208   0.248   2.489   5.704
 1883SOL    HW1 6209   0.173   2.475   5.761
 1883SOL    HW2 6210   0.217   2.468   5.616
 1884SOL     OW 6211   0.213   2.138   6.578
 1884SOL    HW1 6212   0.250   2.111   6.662
 1884SOL    HW2 6213   0.137   2.081   6.566
 1885SOL     OW 6214   0.010   2.249   6.225
 1885SOL    HW1 6215   4.429   2.279   6.268
 1885SOL    HW2 6216   4.484   2.169   6.179
 1886SOL     OW 6217   0.567   3.144   6.758
 1886SOL    HW1 6218   0.479   3.148   6.720
 1886SOL    HW2 6219   0.582   3.232   6.794
 1887SOL     OW 6220   1.556   3.375   6.293
 1887SOL    HW1 6221   1.512   3.356   6.376
 1887SOL    HW2 6222   1.486   3.379   6.228
 1888SOL     OW 6223   1.126   2.562   6.289
 1888SOL    HW1 6224   1.179   2.640   6.275
 1888SOL    HW2 6225   1.082   2.577   6.373
 1889SOL     OW 6226   0.759   3.007   6.624
 1889SOL    HW1 6227   0.689   3.040   6.679
 1889SOL    HW2 6228   0.793   3.084   6.579
 1890SOL     OW 6229   0.862   2.642   7.407
 1890SOL    HW1 6230   0.849   2.714   7.469
 1890SOL    HW2 6231   0.885   2.685   7.325
 1891SOL     OW 6232   0.686   2.870   6.235
 1891SOL    HW1 6233   0.750   2.854   6.305
 1891SOL    HW2 6234   0.616   2.918   6.278
 1892SOL     OW 6235   0.708   3.013   7.395
 1892SOL    HW1 6236   0.755   3.093   7.419
 1892SOL    HW2 6237   0.624   3.044   7.361
 1893SOL     OW 6238   0.337   3.286   6.656
 1893SOL    HW1 6239   0.255   3.266   6.609
 1893SOL    HW2 6240   0.386   3.340   6.595
 1894SOL     OW 6241   1.462   3.360   6.936
 1894SOL    HW1 6242   1.505   3.445   6.948
 1894SOL    HW2 6243   1.407   3.350   7.014
 1895SOL     OW 6244   0.442   2.266   7.082
 1895SOL    HW1 6245   0.522   2.213   7.084
 1895SOL    HW2 6246   0.371   2.202   7.085
 1896SOL     OW 6247   1.571   2.316   6.370
 1896SOL    HW1 6248   1.506   2.336   6.302
 1896SOL    HW2 6249   1.652   2.353   6.337
 1897SOL     OW 6250   0.246   3.554   6.066
 1897SOL    HW1 6251   0.233   3.638   6.109
 1897SOL    HW2 6252   0.306   3.572   5.994
 1898SOL     OW 6253   1.136   3.203   7.277
 1898SOL    HW1 6254   1.175   3.200   7.364
 1898SOL    HW2 6255   1.083   3.123   7.271
 1899SOL     OW 6256   0.244   3.290   6.114
 1899SOL    HW1 6257   0.236   3.385   6.119
 1899SOL    HW2 6258   0.179   3.257   6.177
 1900SOL     OW 6259   0.245   2.943   6.469
 1900SOL    HW1 6260   0.263   2.856   6.503
 1900SOL    HW2 6261   0.188   2.984   6.534
 1901SOL     OW 6262   0.617   3.652   7.019
 1901SOL    HW1 6263   0.533   3.634   7.061
 1901SOL    HW2 6264   0.637   3.743   7.042
 1902SOL     OW 6265   0.585   2.845   5.721
 1902SOL    HW1 6266   0.629   2.893   5.651
 1902SOL    HW2 6267   0.630   2.872   5.801
 1903SOL     OW 6268   1.599   1.986   7.056
 1903SOL    HW1 6269   1.577   2.064   7.005
 1903SOL    HW2 6270   1.588   2.012   7.147
 1904SOL     OW 6271   0.137   2.506   6.161
 1904SOL    HW1 6272   0.086   2.426   6.174
 1904SOL    HW2 6273   0.106   2.565   6.230
 1905SOL     OW 6274   1.842   3.624   5.923
 1905SOL    HW1 6275   1.900   3.595   5.994
 1905SOL    HW2 6276   1.869   3.714   5.905
 1906SOL     OW 6277   0.033   3.462   5.721
 1906SOL    HW1 6278   0.021   3.367   5.724
 1906SOL    HW2 6279   0.009   3.492   5.809
 1907SOL     OW 6280   1.679   2.798   6.241
 1907SOL    HW1 6281   1.763   2.760   6.217
 1907SOL    HW2 6282   1.648   2.842   6.162
 1908SOL     OW 6283   1.639   2.968   6.023
 1908SOL    HW1 6284   1.711   3.000   5.968
 1908SOL    HW2 6285   1.639   3.028   6.098
 1909SOL     OW 6286   0.111   2.621   7.176
 1909SOL    HW1 6287   0.205   2.622   7.162
 1909SOL    HW2 6288   0.086   2.713   7.179
 1910SOL     OW 6289   0.613   3.244   6.322
 1910SOL    HW1 6290   0.566   3.161   6.330
 1910SOL    HW2 6291   0.596   3.271   6.231
 1911SOL     OW 6292   1.291   3.101   7.010
 1911SOL    HW1 6293   1.323   3.033   6.951
 1911SOL    HW2 6294   1.346   3.093   7.088
 1912SOL     OW 6295   0.812   1.860   6.091
 1912SOL    HW1 6296   0.853   1.945   6.076
 1912SOL    HW2 6297   0.719   1.879   6.102
 1913SOL     OW 6298   0.184   2.807   6.865
 1913SOL    HW1 6299   0.275   2.789   6.842
 1913SOL    HW2 6300   0.133   2.781   6.788
 1914SOL     OW 6301   1.524   2.861   5.788
 1914SOL    HW1 6302   1.459   2.794   5.809
 1914SOL    HW2 6303   1.566   2.881   5.871
 1915SOL     OW 6304   1.186   3.666   7.206
 1915SOL    HW1 6305   1.200   3.722   7.130
 1915SOL    HW2 6306   1.200   3.577   7.173
 1916SOL     OW 6307   0.328   2.117   7.381
 1916SOL    HW1 6308   0.381   2.190   7.414
 1916SOL    HW2 6309   0.243   2.128   7.424
 1917SOL     OW 6310   1.466   3.281   6.540
 1917SOL    HW1 6311   1.397   3.295   6.605
 1917SOL    HW2 6312   1.454   3.190   6.512
 1918SOL     OW 6313   1.663   3.593   6.163
 1918SOL    HW1 6314   1.638   3.566   6.075
 1918SOL    HW2 6315   1.635   3.521   6.220
 1919SOL     OW 6316   0.597   2.584   5.850
 1919SOL    HW1 6317   0.602   2.664   5.798
 1919SOL    HW2 6318   0.531   2.603   5.917
 1920SOL     OW 6319   1.282   2.210   6.516
 1920SOL    HW1 6320   1.196   2.172   6.533
 1920SOL    HW2 6321   1.342   2.160   6.571
 1921SOL     OW 6322   1.582   3.529   5.895
 1921SOL    HW1 6323   1.671   3.566   5.888
 1921SOL    HW2 6324   1.556   3.513   5.804
 1922SOL     OW 6325   0.794   2.478   7.039
 1922SOL    HW1 6326   0.768   2.456   7.128
 1922SOL    HW2 6327   0.750   2.414   6.984
 1923SOL     OW 6328   1.394   2.336   7.264
 1923SOL    HW1 6329   1.394   2.380   7.349
 1923SOL    HW2 6330   1.458   2.265   7.273
 1924SOL     OW 6331   0.958   2.751   7.166
 1924SOL    HW1 6332   1.012   2.679   7.132
 1924SOL    HW2 6333   0.911   2.783   7.090
 1925SOL     OW 6334   0.992   2.275   6.826
 1925SOL    HW1 6335   0.909   2.298   6.866
 1925SOL    HW2 6336   0.968   2.228   6.746
 1926SOL     OW 6337   1.049   2.563   6.014
 1926SOL    HW1 6338   1.064   2.556   6.108
 1926SOL    HW2 6339   0.968   2.514   5.999
 1927SOL     OW 6340   0.098   2.686   6.369
 1927SOL    HW1 6341   0.184   2.665   6.405
 1927SOL    HW2 6342   0.053   2.733   6.440
 1928SOL     OW 6343   0.126   3.711   7.161
 1928SOL    HW1 6344   0.119   3.690   7.254
 1928SOL    HW2 6345   0.044   3.681   7.123
 1929SOL     OW 6346   0.885   2.208   5.780
 1929SOL    HW1 6347   0.932   2.268   5.722
 1929SOL    HW2 6348   0.905   2.121   5.745
 1930SOL     OW 6349   1.709   2.441   7.415
 1930SOL    HW1 6350   1.673   2.516   7.367
 1930SOL    HW2 6351   1.734   2.379   7.347
 1931SOL     OW 6352   1.374   3.006   6.130
 1931SOL    HW1 6353   1.448   2.987   6.072
 1931SOL    HW2 6354   1.320   3.068   6.080
 1932SOL     OW 6355   0.550   2.046   6.478
 1932SOL    HW1 6356   0.553   2.074   6.570
 1932SOL    HW2 6357   0.552   2.128   6.428
 1933SOL     OW 6358   1.009   3.308   6.060
 1933SOL    HW1 6359   0.968   3.379   6.011
 1933SOL    HW2 6360   0.993   3.330   6.152
 1934SOL     OW 6361   0.354   3.669   6.442
 1934SOL    HW1 6362   0.397   3.584   6.453
 1934SOL    HW2 6363   0.424   3.733   6.455
 1935SOL     OW 6364   1.794   2.938   6.453
 1935SOL    HW1 6365   1.741   2.904   6.382
 1935SOL    HW2 6366   1.737   2.935   6.530
 1936SOL     OW 6367   1.228   3.402   7.098
 1936SOL    HW1 6368   1.214   3.329   7.159
 1936SOL    HW2 6369   1.167   3.385   7.026
 1937SOL     OW 6370   0.317   2.817   5.835
 1937SOL    HW1 6371   0.402   2.838   5.795
 1937SOL    HW2 6372   0.299   2.727   5.806
 1938SOL     OW 6373   1.464   2.603   6.321
 1938SOL    HW1 6374   1.464   2.545   6.397
 1938SOL    HW2 6375   1.548   2.650   6.326
 1939SOL     OW 6376   0.465   3.123   7.321
 1939SOL    HW1 6377   0.437   3.130   7.230
 1939SOL    HW2 6378   0.384   3.128   7.372
 1940SOL     OW 6379   1.121   3.639   5.818
 1940SOL    HW1 6380   1.049   3.596   5.865
 1940SOL    HW2 6381   1.141   3.579   5.746
 1941SOL     OW 6382   0.195   2.140   7.073
 1941SOL    HW1 6383   0.132   2.211   7.078
 1941SOL    HW2 6384   0.185   2.095   7.157
 1942SOL     OW 6385   1.624   3.241   5.669
 1942SOL    HW1 6386   1.584   3.327   5.655
 1942SOL    HW2 6387   1.554   3.178   5.652
 1943SOL     OW 6388   0.469   3.607   5.900
 1943SOL    HW1 6389   0.508   3.658   5.971
 1943SOL    HW2 6390   0.544   3.575   5.850
 1944SOL     OW 6391   1.404   1.970   6.011
 1944SOL    HW1 6392   1.383   1.951   5.919
 1944SOL    HW2 6393   1.498   1.986   6.011
 1945SOL     OW 6394   0.260   3.656   6.820
 1945SOL    HW1 6395   0.306   3.583   6.861
 1945SOL    HW2 6396   0.228   3.621   6.736
 1946SOL     OW 6397   0.939   3.561   6.486
 1946SOL    HW1 6398   1.014   3.506   6.508
 1946SOL    HW2 6399   0.892   3.512   6.418
 1947SOL     OW 6400   0.392   2.557   6.060
 1947SOL    HW1 6401   0.417   2.466   6.070
 1947SOL    HW2 6402   0.300   2.560   6.086
 1948SOL     OW 6403   1.537   2.087   7.311
 1948SOL    HW1 6404   1.546   2.109   7.404
 1948SOL    HW2 6405   1.469   2.020   7.309
 1949SOL     OW 6406   0.629   1.989   5.691
 1949SOL    HW1 6407   0.703   1.930   5.705
 1949SOL    HW2 6408   0.585   1.954   5.614
 1950SOL     OW 6409   0.768   2.137   7.338
 1950SOL    HW1 6410   0.841   2.075   7.345
 1950SOL    HW2 6411   0.718   2.124   7.419
 1951SOL     OW 6412   0.878   3.384   6.779
 1951SOL    HW1 6413   0.862   3.347   6.692
 1951SOL    HW2 6414   0.946   3.328   6.816
 1952SOL     OW 6415   1.344   2.451   7.018
 1952SOL    HW1 6416   1.372   2.419   7.103
 1952SOL    HW2 6417   1.377   2.540   7.013
 1953SOL     OW 6418   0.813   3.261   6.522
 1953SOL    HW1 6419   0.897   3.250   6.476
 1953SOL    HW2 6420   0.747   3.257   6.452
 1954SOL     OW 6421   0.926   2.371   6.491
 1954SOL    HW1 6422   0.903   2.363   6.398
 1954SOL    HW2 6423   0.962   2.286   6.514
 1955SOL     OW 6424   0.550   1.923   6.090
 1955SOL    HW1 6425   0.469   1.923   6.142
 1955SOL    HW2 6426   0.544   2.002   6.037
 1956SOL     OW 6427   1.428   3.059   5.626
 1956SOL    HW1 6428   1.459   2.984   5.677
 1956SOL    HW2 6429   1.342   3.078   5.663
 1957SOL     OW 6430   0.295   1.908   5.764
 1957SOL    HW1 6431   0.357   1.976   5.738
 1957SOL    HW2 6432   0.349   1.842   5.808
 1958SOL     OW 6433   0.936   2.105   6.050
 1958SOL    HW1 6434   0.907   2.149   5.970
 1958SOL    HW2 6435   1.031   2.118   6.051
 1959SOL     OW 6436   1.080   2.541   7.046
 1959SOL    HW1 6437   1.009   2.477   7.051
 1959SOL    HW2 6438   1.160   2.488   7.037
 1960SOL     OW 6439   1.226   3.430   6.379
 1960SOL    HW1 6440   1.243   3.499   6.315
 1960SOL    HW2 6441   1.292   3.443   6.447
 1961SOL     OW 6442   0.465   3.010   6.324
 1961SOL    HW1 6443   0.393   2.991   6.384
 1961SOL    HW2 6444   0.428   2.993   6.237
 1962SOL     OW 6445   1.271   3.657   6.192
 1962SOL    HW1 6446   1.315   3.718   6.133
 1962SOL    HW2 6447   1.206   3.710   6.238
 1963SOL     OW 6448   1.030   2.408   5.604
 1963SOL    HW1 6449   0.987   2.492   5.588
 1963SOL    HW2 6450   1.088   2.425   5.678
 1964SOL     OW 6451   0.080   2.395   6.993
 1964SOL    HW1 6452   0.149   2.396   6.927
 1964SOL    HW2 6453   0.068   2.487   7.016
 1965SOL     OW 6454   0.562   2.089   6.750
 1965SOL    HW1 6455   0.602   2.008   6.783
 1965SOL    HW2 6456   0.470   2.083   6.777
 1966SOL     OW 6457   0.869   2.321   6.226
 1966SOL    HW1 6458   0.823   2.375   6.162
 1966SOL    HW2 6459   0.888   2.240   6.179
 1967SOL     OW 6460   1.016   1.913   6.339
 1967SOL    HW1 6461   0.956   1.907   6.265
 1967SOL    HW2 6462   0.994   1.838   6.394
 1968SOL     OW 6463   1.435   3.026   6.443
 1968SOL    HW1 6464   1.369   2.956   6.445
 1968SOL    HW2 6465   1.454   3.038   6.350
 1969SOL     OW 6466   1.455   2.472   6.586
 1969SOL    HW1 6467   1.432   2.383   6.558
 1969SOL    HW2 6468   1.526   2.460   6.649
 1970SOL     OW 6469   0.493   3.275   5.748
 1970SOL    HW1 6470   0.416   3.246   5.798
 1970SOL    HW2 6471   0.470   3.256   5.657
 1971SOL     OW 6472   1.666   3.132   6.229
 1971SOL    HW1 6473   1.759   3.134   6.250
 1971SOL    HW2 6474   1.633   3.218   6.256
 1972SOL     OW 6475   0.525   2.122   5.906
 1972SOL    HW1 6476   0.567   2.074   5.835
 1972SOL    HW2 6477   0.508   2.209   5.870
 1973SOL     OW 6478   1.754   3.098   7.161
 1973SOL    HW1 6479   1.841   3.059   7.161
 1973SOL    HW2 6480   1.768   3.188   7.192
 1974SOL     OW 6481   1.061   3.216   6.921
 1974SOL    HW1 6482   0.986   3.185   6.972
 1974SOL    HW2 6483   1.137   3.174   6.962
 1975SOL     OW 6484   1.605   3.488   7.237
 1975SOL    HW1 6485   1.603   3.521   7.147
 1975SOL    HW2 6486   1.689   3.441   7.243
 1976SOL     OW 6487   1.126   3.064   6.693
 1976SOL    HW1 6488   1.067   3.101   6.759
 1976SOL    HW2 6489   1.090   3.093   6.609
 1977SOL     OW 6490   1.630   2.961   6.667
 1977SOL    HW1 6491   1.626   3.024   6.738
 1977SOL    HW2 6492   1.549   2.975   6.617
 1978SOL     OW 6493   0.917   1.961   6.985
 1978SOL    HW1 6494   0.940   1.941   6.894
 1978SOL    HW2 6495   0.997   2.000   7.022
 1979SOL     OW 6496   0.984   2.976   7.308
 1979SOL    HW1 6497   0.891   2.991   7.327
 1979SOL    HW2 6498   0.984   2.899   7.252
 1980SOL     OW 6499   0.708   2.922   5.959
 1980SOL    HW1 6500   0.695   2.908   6.052
 1980SOL    HW2 6501   0.784   2.869   5.936
 1981SOL     OW 6502   0.429   2.684   6.825
 1981SOL    HW1 6503   0.498   2.696   6.890
 1981SOL    HW2 6504   0.370   2.620   6.863
 1982SOL     OW 6505   1.267   2.238   6.862
 1982SOL    HW1 6506   1.300   2.317   6.905
 1982SOL    HW2 6507   1.180   2.262   6.831
 1983SOL     OW 6508   0.061   3.437   6.924
 1983SOL    HW1 6509   0.032   3.526   6.901
 1983SOL    HW2 6510   0.156   3.444   6.932
 1984SOL     OW 6511   0.352   2.968   6.080
 1984SOL    HW1 6512   0.359   3.041   6.018
 1984SOL    HW2 6513   0.354   2.890   6.024
 1985SOL     OW 6514   0.562   2.397   6.443
 1985SOL    HW1 6515   0.576   2.457   6.370
 1985SOL    HW2 6516   0.621   2.429   6.512
 1986SOL     OW 6517   1.248   3.210   5.975
 1986SOL    HW1 6518   1.303   3.282   6.007
 1986SOL    HW2 6519   1.161   3.230   6.009
 1987SOL     OW 6520   1.277   3.318   6.731
 1987SOL    HW1 6521   1.331   3.319   6.810
 1987SOL    HW2 6522   1.221   3.240   6.742
 1988SOL     OW 6523   0.348   3.391   6.904
 1988SOL    HW1 6524   0.333   3.344   6.822
 1988SOL    HW2 6525   0.443   3.401   6.909
 1989SOL     OW 6526   0.471   2.621   7.246
 1989SOL    HW1 6527   0.502   2.661   7.164
 1989SOL    HW2 6528   0.505   2.531   7.242
 1990SOL     OW 6529   1.598   2.640   7.266
 1990SOL    HW1 6530   1.511   2.680   7.258
 1990SOL    HW2 6531   1.650   2.682   7.197
 1991SOL     OW 6532   0.996   1.979   7.343
 1991SOL    HW1 6533   1.048   2.053   7.310
 1991SOL    HW2 6534   1.046   1.902   7.316
 1992SOL     OW 6535   0.498   1.906   7.331
 1992SOL    HW1 6536   0.459   1.849   7.265
 1992SOL    HW2 6537   0.437   1.979   7.341
 1993SOL     OW 6538   0.588   2.735   6.610
 1993SOL    HW1 6539   0.616   2.827   6.612
 1993SOL    HW2 6540   0.531   2.726   6.686
 1994SOL     OW 6541   1.359   2.723   6.621
 1994SOL    HW1 6542   1.280   2.717   6.568
 1994SOL    HW2 6543   1.396   2.635   6.618
 1995SOL     OW 6544   1.193   2.392   5.848
 1995SOL    HW1 6545   1.210   2.314   5.900
 1995SOL    HW2 6546   1.159   2.456   5.910
 1996SOL     OW 6547   0.303   2.056   6.827
 1996SOL    HW1 6548   0.265   2.091   6.908
 1996SOL    HW2 6549   0.285   1.962   6.830
 1997SOL     OW 6550   0.048   3.174   6.870
 1997SOL    HW1 6551   0.078   3.128   6.947
 1997SOL    HW2 6552   0.049   3.267   6.895
 1998SOL     OW 6553   0.727   2.494   6.647
 1998SOL    HW1 6554   0.799   2.474   6.588
 1998SOL    HW2 6555   0.700   2.583   6.623
 1999SOL     OW 6556   1.732   2.823   7.435
 1999SOL    HW1 6557   1.686   2.764   7.376
 1999SOL    HW2 6558   1.673   2.833   7.510
 2000SOL     OW 6559   0.308   1.932   6.205
 2000SOL    HW1 6560   0.287   2.021   6.234
 2000SOL    HW2 6561   0.303   1.879   6.285
 2001SOL     OW 6562   1.025   2.622   6.548
 2001SOL    HW1 6563   1.027   2.640   6.642
 2001SOL    HW2 6564   1.001   2.530   6.541
 2002SOL     OW 6565   0.983   3.429   7.300
 2002SOL    HW1 6566   0.967   3.472   7.216
 2002SOL    HW2 6567   1.025   3.346   7.276
 2003SOL     OW 6568   1.856   3.372   7.192
 2003SOL    HW1 6569   1.873   3.397   7.101
 2003SOL    HW2 6570   1.937   3.392   7.238
 2004SOL     OW 6571   0.348   2.792   7.404
 2004SOL    HW1 6572   0.422   2.819   7.457
 2004SOL    HW2 6573   0.383   2.726   7.344
 2005SOL     OW 6574   1.294   2.688   5.619
 2005SOL    HW1 6575   1.348   2.609   5.625
 2005SOL    HW2 6576   1.322   2.730   5.538
 2006SOL     OW 6577   1.064   3.197   6.438
 2006SOL    HW1 6578   1.067   3.123   6.376
 2006SOL    HW2 6579   1.128   3.260   6.403
 2007SOL     OW 6580   0.317   2.674   6.536
 2007SOL    HW1 6581   0.411   2.692   6.532
 2007SOL    HW2 6582   0.310   2.584   6.566
 2008SOL     OW 6583   0.333   2.385   6.580
 2008SOL    HW1 6584   0.295   2.299   6.564
 2008SOL    HW2 6585   0.411   2.387   6.523
 2009SOL     OW 6586   1.135   2.240   7.266
 2009SOL    HW1 6587   1.089   2.295   7.329
 2009SOL    HW2 6588   1.223   2.277   7.261
 2010SOL     OW 6589   1.160   2.066   7.056
 2010SOL    HW1 6590   1.151   2.129   7.128
 2010SOL    HW2 6591   1.197   2.118   6.984
 2011SOL     OW 6592   4.492   3.185   5.787
 2011SOL    HW1 6593   4.399   3.200   5.769
 2011SOL    HW2 6594   4.498   3.093   5.811
 2012SOL     OW 6595   0.095   3.644   6.526
 2012SOL    HW1 6596   0.057   3.583   6.463
 2012SOL    HW2 6597   0.182   3.662   6.492
 2013SOL     OW 6598   0.499   3.435   6.492
 2013SOL    HW1 6599   0.567   3.498   6.516
 2013SOL    HW2 6600   0.544   3.370   6.438
 2014SOL     OW 6601   0.988   2.658   6.815
 2014SOL    HW1 6602   1.041   2.631   6.890
 2014SOL    HW2 6603   0.902   2.620   6.832
 2015SOL     OW 6604   0.037   2.424   6.693
 2015SOL    HW1 6605   0.119   2.387   6.660
 2015SOL    HW2 6606   0.028   2.386   6.780
 2016SOL     OW 6607   0.179   2.377   7.299
 2016SOL    HW1 6608   0.258   2.349   7.253
 2016SOL    HW2 6609   0.153   2.458   7.256
 2017SOL     OW 6610   1.375   2.804   7.245
 2017SOL    HW1 6611   1.396   2.897   7.246
 2017SOL    HW2 6612   1.373   2.779   7.153
 2018SOL     OW 6613   0.816   2.430   5.940
 2018SOL    HW1 6614   0.818   2.355   5.881
 2018SOL    HW2 6615   0.741   2.482   5.911
 2019SOL     OW 6616   1.653   2.464   6.778
 2019SOL    HW1 6617   1.622   2.412   6.852
 2019SOL    HW2 6618   1.743   2.435   6.763
 2020SOL     OW 6619   0.272   3.423   7.328
 2020SOL    HW1 6620   0.218   3.476   7.386
 2020SOL    HW2 6621   0.250   3.333   7.351
 2021SOL     OW 6622   0.686   2.319   6.851
 2021SOL    HW1 6623   0.644   2.240   6.815
 2021SOL    HW2 6624   0.690   2.379   6.777
 2022SOL     OW 6625   0.931   3.541   7.052
 2022SOL    HW1 6626   0.903   3.510   6.966
 2022SOL    HW2 6627   0.929   3.636   7.045
 2023SOL     OW 6628   0.473   2.353   5.774
 2023SOL    HW1 6629   0.531   2.426   5.795
 2023SOL    HW2 6630   0.387   2.393   5.760
 2024SOL     OW 6631   0.162   3.003   7.049
 2024SOL    HW1 6632   0.148   2.955   7.131
 2024SOL    HW2 6633   0.171   2.935   6.982
 2025SOL     OW 6634   1.330   2.912   6.811
 2025SOL    HW1 6635   1.352   2.847   6.744
 2025SOL    HW2 6636   1.257   2.961   6.774
 2026SOL     OW 6637   1.307   2.716   5.894
 2026SOL    HW1 6638   1.231   2.687   5.945
 2026SOL    HW2 6639   1.280   2.704   5.803
 2027SOL     OW 6640   1.767   3.609   6.734
 2027SOL    HW1 6641   1.828   3.634   6.664
 2027SOL    HW2 6642   1.744   3.518   6.714
 2028SOL     OW 6643   1.242   3.595   6.703
 2028SOL    HW1 6644   1.324   3.612   6.656
 2028SOL    HW2 6645   1.244   3.501   6.721
 2029SOL     OW 6646   0.068   3.051   6.633
 2029SOL    HW1 6647   0.073   3.085   6.723
 2029SOL    HW2 6648   0.011   3.112   6.587
 2030SOL     OW 6649   0.679   3.526   7.311
 2030SOL    HW1 6650   0.625   3.605   7.308
 2030SOL    HW2 6651   0.740   3.535   7.238
 2031SOL     OW 6652   1.391   3.430   6.069
 2031SOL    HW1 6653   1.450   3.461   6.001
 2031SOL    HW2 6654   1.342   3.508   6.097
 2032SOL     OW 6655   0.121   3.669   7.433
 2032SOL    HW1 6656   0.082   3.595   7.480
 2032SOL    HW2 6657   0.184   3.706   7.495
 2033SOL     OW 6658   1.274   2.788   6.256
 2033SOL    HW1 6659   1.346   2.725   6.265
 2033SOL    HW2 6660   1.311   2.860   6.205
 2034SOL     OW 6661   0.819   3.135   7.017
 2034SOL    HW1 6662   0.793   3.173   7.101
 2034SOL    HW2 6663   0.746   3.155   6.958
 2035SOL     OW 6664   0.673   3.478   5.741
 2035SOL    HW1 6665   0.681   3.489   5.646
 2035SOL    HW2 6666   0.619   3.400   5.752
 2036SOL     OW 6667   1.633   3.589   6.978
 2036SOL    HW1 6668   1.680   3.597   6.895
 2036SOL    HW2 6669   1.619   3.679   7.007
 2037SOL     OW 6670   0.267   2.182   6.306
 2037SOL    HW1 6671   0.184   2.221   6.276
 2037SOL    HW2 6672   0.255   2.170   6.400
 2038SOL     OW 6673   1.206   3.470   5.616
 2038SOL    HW1 6674   1.197   3.379   5.645
 2038SOL    HW2 6675   1.141   3.480   5.547
 2039SOL     OW 6676   0.825   2.868   6.958
 2039SOL    HW1 6677   0.867   2.865   6.872
 2039SOL    HW2 6678   0.826   2.961   6.981
 2040SOL     OW 6679   0.915   2.772   5.874
 2040SOL    HW1 6680   0.978   2.804   5.810
 2040SOL    HW2 6681   0.961   2.702   5.920
 2041SOL     OW 6682   1.495   3.486   5.628
 2041SOL    HW1 6683   1.400   3.483   5.617
 2041SOL    HW2 6684   1.529   3.493   5.539
 2042SOL     OW 6685   0.373   3.167   7.077
 2042SOL    HW1 6686   0.356   3.246   7.025
 2042SOL    HW2 6687   0.297   3.111   7.061
 2043SOL     OW 6688   1.613   3.146   6.867
 2043SOL    HW1 6689   1.670   3.137   6.944
 2043SOL    HW2 6690   1.552   3.215   6.891
 2044SOL     OW 6691   1.048   2.967   6.290
 2044SOL    HW1 6692   0.978   2.916   6.331
 2044SOL    HW2 6693   1.110   2.901   6.258
 2045SOL     OW 6694   1.019   2.101   6.553
 2045SOL    HW1 6695   1.015   2.054   6.470
 2045SOL    HW2 6696   1.014   2.033   6.620
 2046SOL     OW 6697   0.603   3.352   6.069
 2046SOL    HW1 6698   0.640   3.301   5.997
 2046SOL    HW2 6699   0.531   3.401   6.029
 2047SOL     OW 6700   1.722   2.248   6.966
 2047SOL    HW1 6701   1.792   2.313   6.965
 2047SOL    HW2 6702   1.753   2.179   6.907
 2048SOL     OW 6703   0.252   3.207   5.864
 2048SOL    HW1 6704   0.158   3.208   5.849
 2048SOL    HW2 6705   0.262   3.240   5.953
 2049SOL     OW 6706   0.118   2.870   7.282
 2049SOL    HW1 6707   0.052   2.906   7.341
 2049SOL    HW2 6708   0.195   2.857   7.337
 2050SOL     OW 6709   0.672   2.061   7.084
 2050SOL    HW1 6710   0.756   2.040   7.042
 2050SOL    HW2 6711   0.696   2.087   7.173
 2051SOL     OW 6712   0.072   2.188   5.619
 2051SOL    HW1 6713   4.477   2.197   5.617
 2051SOL    HW2 6714   0.104   2.270   5.581
 2052SOL     OW 6715   1.433   2.721   6.988
 2052SOL    HW1 6716   1.384   2.779   6.930
 2052SOL    HW2 6717   1.523   2.725   6.956
 2053SOL     OW 6718   0.084   2.040   5.893
 2053SOL    HW1 6719   0.077   2.111   5.830
 2053SOL    HW2 6720   0.160   1.989   5.865
 2054SOL     OW 6721   1.180   3.204   5.703
 2054SOL    HW1 6722   1.089   3.174   5.706
 2054SOL    HW2 6723   1.208   3.203   5.794
 2055SOL     OW 6724   0.620   2.693   7.014
 2055SOL    HW1 6725   0.675   2.771   7.002
 2055SOL    HW2 6726   0.682   2.621   7.024
 2056SOL     OW 6727   1.486   3.635   6.560
 2056SOL    HW1 6728   1.511   3.694   6.489
 2056SOL    HW2 6729   1.566   3.622   6.611
 2057SOL     OW 6730   0.716   2.425   7.291
 2057SOL    HW1 6731   0.749   2.490   7.352
 2057SOL    HW2 6732   0.754   2.342   7.321
 2058SOL     OW 6733   1.468   3.066   7.219
 2058SOL    HW1 6734   1.456   3.078   7.313
 2058SOL    HW2 6735   1.562   3.077   7.205
 2059SOL     OW 6736   0.383   3.604   7.149
 2059SOL    HW1 6737   0.297   3.644   7.135
 2059SOL    HW2 6738   0.364   3.523   7.196
 2060SOL     OW 6739   1.675   2.744   6.840
 2060SOL    HW1 6740   1.660   2.660   6.798
 2060SOL    HW2 6741   1.661   2.809   6.770
 2061SOL     OW 6742   1.219   2.182   6.040
 2061SOL    HW1 6743   1.283   2.111   6.033
 2061SOL    HW2 6744   1.244   2.230   6.119
 2062SOL     OW 6745   0.591   2.602   6.253
 2062SOL    HW1 6746   0.630   2.688   6.236
 2062SOL    HW2 6747   0.520   2.595   6.189
 2063SOL     OW 6748   1.765   2.225   7.242
 2063SOL    HW1 6749   1.756   2.234   7.147
 2063SOL    HW2 6750   1.692   2.167   7.267
 2064SOL     OW 6751   1.742   2.796   7.098
 2064SOL    HW1 6752   1.745   2.891   7.111
 2064SOL    HW2 6753   1.729   2.785   7.004
 2065SOL     OW 6754   0.864   3.231   5.616
 2065SOL    HW1 6755   0.823   3.255   5.699
 2065SOL    HW2 6756   0.881   3.314   5.572
 2066SOL     OW 6757   0.659   3.656   6.535
 2066SOL    HW1 6758   0.637   3.745   6.509
 2066SOL    HW2 6759   0.755   3.652   6.525
 2067SOL     OW 6760   0.866   2.828   6.442
 2067SOL    HW1 6761   0.916   2.756   6.482
 2067SOL    HW2 6762   0.833   2.878   6.516
 2068SOL     OW 6763   1.081   2.852   5.675
 2068SOL    HW1 6764   1.058   2.900   5.596
 2068SOL    HW2 6765   1.154   2.797   5.649
 2069SOL     OW 6766   1.858   3.415   6.429
 2069SOL    HW1 6767   1.777   3.409   6.378
 2069SOL    HW2 6768   1.845   3.353   6.501
 2070SOL     OW 6769   0.228   3.169   7.442
 2070SOL    HW1 6770   0.159   3.107   7.417
 2070SOL    HW2 6771   0.218   3.179   7.537
 2071SOL     OW 6772   0.102   3.102   6.252
 2071SOL    HW1 6773   0.104   3.050   6.333
 2071SOL    HW2 6774   0.162   3.057   6.193
 2072SOL     OW 6775   0.680   3.262   7.212
 2072SOL    HW1 6776   0.600   3.218   7.240
 2072SOL    HW2 6777   0.674   3.350   7.249
 2073SOL     OW 6778   0.434   2.295   6.111
 2073SOL    HW1 6779   0.458   2.221   6.055
 2073SOL    HW2 6780   0.384   2.256   6.182
 2074SOL     OW 6781   1.703   3.353   6.684
 2074SOL    HW1 6782   1.620   3.327   6.642
 2074SOL    HW2 6783   1.717   3.286   6.751
 2075SOL     OW 6784   0.306   2.351   6.843
 2075SOL    HW1 6785   0.379   2.311   6.889
 2075SOL    HW2 6786   0.338   2.365   6.754
 2076SOL     OW 6787   0.825   3.440   6.265
 2076SOL    HW1 6788   0.818   3.485   6.181
 2076SOL    HW2 6789   0.747   3.385   6.270
 2077SOL     OW 6790   1.437   2.086   6.710
 2077SOL    HW1 6791   1.452   2.002   6.754
 2077SOL    HW2 6792   1.380   2.135   6.769
 2078SOL     OW 6793   1.008   1.882   6.732
 2078SOL    HW1 6794   0.953   1.813   6.694
 2078SOL    HW2 6795   1.096   1.845   6.733
 2079SOL     OW 6796   0.772   3.193   5.895
 2079SOL    HW1 6797   0.737   3.105   5.903
 2079SOL    HW2 6798   0.854   3.192   5.945
 2080SOL     OW 6799   0.621   3.420   6.870
 2080SOL    HW1 6800   0.623   3.501   6.921
 2080SOL    HW2 6801   0.708   3.414   6.831
 2081SOL     OW 6802   1.347   1.910   5.753
 2081SOL    HW1 6803   1.373   1.859   5.676
 2081SOL    HW2 6804   1.261   1.876   5.776
 2082SOL     OW 6805   1.292   2.321   6.265
 2082SOL    HW1 6806   1.239   2.399   6.277
 2082SOL    HW2 6807   1.296   2.281   6.352
 2083SOL     OW 6808   0.041   2.916   5.873
 2083SOL    HW1 6809   0.136   2.904   5.866
 2083SOL    HW2 6810   0.018   2.875   5.956
 2084SOL     OW 6811   0.882   3.512   5.930
 2084SOL    HW1 6812   0.810   3.493   5.869
 2084SOL    HW2 6813   0.851   3.588   5.980
 2085SOL     OW 6814   0.248   2.489   7.566
 2085SOL    HW1 6815   0.173   2.475   7.623
 2085SOL    HW2 6816   0.217   2.468   7.478
 2086SOL     OW 6817   0.213   2.138   8.440
 2086SOL    HW1 6818   0.250   2.111   8.524
 2086SOL    HW2 6819   0.137   2.081   8.428
 2087SOL     OW 6820   0.010   2.249   8.087
 2087SOL    HW1 6821   4.429   2.279   8.130
 2087SOL    HW2 6822   4.484   2.169   8.041
 2088SOL     OW 6823   0.567   3.144   8.620
 2088SOL    HW1 6824   0.479   3.148   8.582
 2088SOL    HW2 6825   0.582   3.232   8.656
 2089SOL     OW 6826   1.557   3.374   8.154
 2089SOL    HW1 6827   1.513   3.355   8.237
 2089SOL    HW2 6828   1.487   3.378   8.089
 2090SOL     OW 6829   1.129   2.561   8.152
 2090SOL    HW1 6830   1.180   2.641   8.137
 2090SOL    HW2 6831   1.083   2.577   8.234
 2091SOL     OW 6832   1.765   2.469   7.678
 2091SOL    HW1 6833   1.745   2.460   7.585
 2091SOL    HW2 6834   1.731   2.389   7.719
 2092SOL     OW 6835   0.759   3.007   8.485
 2092SOL    HW1 6836   0.689   3.040   8.541
 2092SOL    HW2 6837   0.793   3.084   8.440
 2093SOL     OW 6838   0.862   2.642   9.269
 2093SOL    HW1 6839   0.849   2.714   9.331
 2093SOL    HW2 6840   0.885   2.685   9.186
 2094SOL     OW 6841   0.686   2.869   8.097
 2094SOL    HW1 6842   0.750   2.854   8.167
 2094SOL    HW2 6843   0.616   2.919   8.140
 2095SOL     OW 6844   0.708   3.013   9.258
 2095SOL    HW1 6845   0.755   3.093   9.281
 2095SOL    HW2 6846   0.624   3.044   9.223
 2096SOL     OW 6847   0.337   3.286   8.518
 2096SOL    HW1 6848   0.256   3.266   8.471
 2096SOL    HW2 6849   0.387   3.340   8.457
 2097SOL     OW 6850   1.462   3.360   8.798
 2097SOL    HW1 6851   1.505   3.445   8.809
 2097SOL    HW2 6852   1.407   3.350   8.876
 2098SOL     OW 6853   0.442   2.266   8.944
 2098SOL    HW1 6854   0.522   2.213   8.946
 2098SOL    HW2 6855   0.371   2.202   8.947
 2099SOL     OW 6856   1.612   2.310   8.188
 2099SOL    HW1 6857   1.537   2.336   8.135
 2099SOL    HW2 6858   1.635   2.389   8.238
 2100SOL     OW 6859   0.246   3.554   7.928
 2100SOL    HW1 6860   0.233   3.638   7.971
 2100SOL    HW2 6861   0.306   3.572   7.856
 2101SOL     OW 6862   1.136   3.203   9.139
 2101SOL    HW1 6863   1.175   3.199   9.226
 2101SOL    HW2 6864   1.083   3.123   9.133
 2102SOL     OW 6865   0.244   3.289   7.976
 2102SOL    HW1 6866   0.236   3.385   7.981
 2102SOL    HW2 6867   0.179   3.257   8.039
 2103SOL     OW 6868   0.245   2.943   8.330
 2103SOL    HW1 6869   0.263   2.856   8.365
 2103SOL    HW2 6870   0.188   2.984   8.396
 2104SOL     OW 6871   0.617   3.652   8.881
 2104SOL    HW1 6872   0.533   3.635   8.923
 2104SOL    HW2 6873   0.637   3.743   8.904
 2105SOL     OW 6874   0.584   2.845   7.583
 2105SOL    HW1 6875   0.629   2.893   7.513
 2105SOL    HW2 6876   0.630   2.872   7.663
 2106SOL     OW 6877   1.590   1.982   8.917
 2106SOL    HW1 6878   1.599   2.059   8.863
 2106SOL    HW2 6879   1.585   2.016   9.007
 2107SOL     OW 6880   0.137   2.506   8.023
 2107SOL    HW1 6881   0.086   2.425   8.036
 2107SOL    HW2 6882   0.106   2.565   8.092
 2108SOL     OW 6883   1.841   3.623   7.785
 2108SOL    HW1 6884   1.900   3.594   7.854
 2108SOL    HW2 6885   1.869   3.713   7.767
 2109SOL     OW 6886   0.033   3.462   7.583
 2109SOL    HW1 6887   0.021   3.368   7.586
 2109SOL    HW2 6888   0.010   3.492   7.671
 2110SOL     OW 6889   1.691   2.782   8.086
 2110SOL    HW1 6890   1.774   2.739   8.065
 2110SOL    HW2 6891   1.669   2.831   8.007
 2111SOL     OW 6892   1.644   2.970   7.878
 2111SOL    HW1 6893   1.730   2.978   7.835
 2111SOL    HW2 6894   1.649   3.030   7.952
 2112SOL     OW 6895   0.111   2.621   9.038
 2112SOL    HW1 6896   0.206   2.622   9.024
 2112SOL    HW2 6897   0.086   2.713   9.041
 2113SOL     OW 6898   0.613   3.244   8.184
 2113SOL    HW1 6899   0.566   3.161   8.192
 2113SOL    HW2 6900   0.596   3.271   8.093
 2114SOL     OW 6901   1.291   3.101   8.872
 2114SOL    HW1 6902   1.323   3.033   8.813
 2114SOL    HW2 6903   1.346   3.093   8.950
 2115SOL     OW 6904   0.813   1.860   7.953
 2115SOL    HW1 6905   0.853   1.946   7.938
 2115SOL    HW2 6906   0.719   1.879   7.964
 2116SOL     OW 6907   0.184   2.807   8.727
 2116SOL    HW1 6908   0.275   2.789   8.704
 2116SOL    HW2 6909   0.134   2.781   8.650
 2117SOL     OW 6910   1.532   2.854   7.644
 2117SOL    HW1 6911   1.462   2.795   7.673
 2117SOL    HW2 6912   1.571   2.887   7.725
 2118SOL     OW 6913   1.186   3.666   9.068
 2118SOL    HW1 6914   1.200   3.722   8.992
 2118SOL    HW2 6915   1.200   3.577   9.035
 2119SOL     OW 6916   0.328   2.118   9.243
 2119SOL    HW1 6917   0.381   2.190   9.276
 2119SOL    HW2 6918   0.243   2.129   9.286
 2120SOL     OW 6919   1.466   3.282   8.401
 2120SOL    HW1 6920   1.397   3.296   8.467
 2120SOL    HW2 6921   1.454   3.191   8.374
 2121SOL     OW 6922   1.662   3.594   8.026
 2121SOL    HW1 6923   1.638   3.567   7.937
 2121SOL    HW2 6924   1.635   3.522   8.081
 2122SOL     OW 6925   0.597   2.584   7.712
 2122SOL    HW1 6926   0.603   2.664   7.660
 2122SOL    HW2 6927   0.531   2.604   7.779
 2123SOL     OW 6928   1.280   2.210   8.380
 2123SOL    HW1 6929   1.190   2.176   8.388
 2123SOL    HW2 6930   1.330   2.158   8.442
 2124SOL     OW 6931   1.582   3.530   7.757
 2124SOL    HW1 6932   1.670   3.565   7.751
 2124SOL    HW2 6933   1.556   3.513   7.666
 2125SOL     OW 6934   0.794   2.478   8.901
 2125SOL    HW1 6935   0.768   2.456   8.990
 2125SOL    HW2 6936   0.750   2.414   8.846
 2126SOL     OW 6937   1.393   2.336   9.126
 2126SOL    HW1 6938   1.395   2.379   9.211
 2126SOL    HW2 6939   1.458   2.266   9.134
 2127SOL     OW 6940   0.958   2.751   9.029
 2127SOL    HW1 6941   1.012   2.679   8.994
 2127SOL    HW2 6942   0.911   2.784   8.952
 2128SOL     OW 6943   0.993   2.276   8.687
 2128SOL    HW1 6944   0.910   2.299   8.730
 2128SOL    HW2 6945   0.968   2.227   8.609
 2129SOL     OW 6946   1.049   2.561   7.875
 2129SOL    HW1 6947   1.064   2.554   7.969
 2129SOL    HW2 6948   0.968   2.513   7.860
 2130SOL     OW 6949   0.098   2.686   8.231
 2130SOL    HW1 6950   0.184   2.665   8.267
 2130SOL    HW2 6951   0.053   2.733   8.301
 2131SOL     OW 6952   0.126   3.711   9.023
 2131SOL    HW1 6953   0.119   3.690   9.116
 2131SOL    HW2 6954   0.044   3.681   8.985
 2132SOL     OW 6955   0.886   2.208   7.642
 2132SOL    HW1 6956   0.930   2.269   7.583
 2132SOL    HW2 6957   0.905   2.122   7.606
 2133SOL     OW 6958   1.715   2.444   9.276
 2133SOL    HW1 6959   1.675   2.518   9.230
 2133SOL    HW2 6960   1.729   2.379   9.208
 2134SOL     OW 6961   1.375   3.005   7.991
 2134SOL    HW1 6962   1.453   2.990   7.937
 2134SOL    HW2 6963   1.322   3.066   7.940
 2135SOL     OW 6964   0.550   2.046   8.340
 2135SOL    HW1 6965   0.553   2.074   8.432
 2135SOL    HW2 6966   0.552   2.128   8.290
 2136SOL     OW 6967   1.009   3.308   7.922
 2136SOL    HW1 6968   0.968   3.379   7.873
 2136SOL    HW2 6969   0.993   3.330   8.014
 2137SOL     OW 6970   0.354   3.669   8.304
 2137SOL    HW1 6971   0.397   3.585   8.315
 2137SOL    HW2 6972   0.424   3.733   8.317
 2138SOL     OW 6973   1.799   2.922   8.315
 2138SOL    HW1 6974   1.743   2.904   8.239
 2138SOL    HW2 6975   1.738   2.927   8.389
 2139SOL     OW 6976   1.228   3.402   8.960
 2139SOL    HW1 6977   1.214   3.329   9.020
 2139SOL    HW2 6978   1.167   3.385   8.888
 2140SOL     OW 6979   0.317   2.816   7.697
 2140SOL    HW1 6980   0.402   2.838   7.657
 2140SOL    HW2 6981   0.299   2.727   7.667
 2141SOL     OW 6982   1.475   2.601   8.176
 2141SOL    HW1 6983   1.464   2.554   8.259
 2141SOL    HW2 6984   1.552   2.656   8.190
 2142SOL     OW 6985   0.465   3.123   9.183
 2142SOL    HW1 6986   0.437   3.130   9.092
 2142SOL    HW2 6987   0.384   3.128   9.234
 2143SOL     OW 6988   1.120   3.639   7.680
 2143SOL    HW1 6989   1.049   3.596   7.727
 2143SOL    HW2 6990   1.142   3.580   7.608
 2144SOL     OW 6991   0.195   2.140   8.935
 2144SOL    HW1 6992   0.131   2.211   8.940
 2144SOL    HW2 6993   0.186   2.095   9.019
 2145SOL     OW 6994   1.630   3.241   7.534
 2145SOL    HW1 6995   1.588   3.326   7.520
 2145SOL    HW2 6996   1.560   3.177   7.516
 2146SOL     OW 6997   0.469   3.607   7.762
 2146SOL    HW1 6998   0.508   3.658   7.833
 2146SOL    HW2 6999   0.544   3.575   7.711
 2147SOL     OW 7000   1.401   1.970   7.878
 2147SOL    HW1 7001   1.390   1.945   7.786
 2147SOL    HW2 7002   1.496   1.978   7.889
 2148SOL     OW 7003   0.260   3.656   8.682
 2148SOL    HW1 7004   0.306   3.583   8.723
 2148SOL    HW2 7005   0.228   3.621   8.598
 2149SOL     OW 7006   0.939   3.560   8.348
 2149SOL    HW1 7007   1.015   3.506   8.369
 2149SOL    HW2 7008   0.892   3.512   8.280
 2150SOL     OW 7009   0.392   2.557   7.923
 2150SOL    HW1 7010   0.417   2.466   7.932
 2150SOL    HW2 7011   0.300   2.560   7.949
 2151SOL     OW 7012   1.537   2.086   9.174
 2151SOL    HW1 7013   1.543   2.108   9.268
 2151SOL    HW2 7014   1.470   2.018   9.169
 2152SOL     OW 7015   0.629   1.989   7.554
 2152SOL    HW1 7016   0.704   1.930   7.567
 2152SOL    HW2 7017   0.585   1.954   7.476
 2153SOL     OW 7018   0.768   2.137   9.200
 2153SOL    HW1 7019   0.841   2.076   9.207
 2153SOL    HW2 7020   0.718   2.124   9.281
 2154SOL     OW 7021   0.878   3.384   8.641
 2154SOL    HW1 7022   0.862   3.347   8.554
 2154SOL    HW2 7023   0.946   3.328   8.678
 2155SOL     OW 7024   1.341   2.451   8.880
 2155SOL    HW1 7025   1.372   2.418   8.964
 2155SOL    HW2 7026   1.378   2.539   8.874
 2156SOL     OW 7027   0.813   3.260   8.384
 2156SOL    HW1 7028   0.897   3.250   8.339
 2156SOL    HW2 7029   0.747   3.258   8.314
 2157SOL     OW 7030   0.926   2.371   8.352
 2157SOL    HW1 7031   0.904   2.363   8.260
 2157SOL    HW2 7032   0.960   2.285   8.376
 2158SOL     OW 7033   0.550   1.924   7.952
 2158SOL    HW1 7034   0.469   1.923   8.004
 2158SOL    HW2 7035   0.544   2.003   7.899
 2159SOL     OW 7036   1.429   3.060   7.489
 2159SOL    HW1 7037   1.460   2.984   7.539
 2159SOL    HW2 7038   1.342   3.079   7.526
 2160SOL     OW 7039   0.295   1.908   7.626
 2160SOL    HW1 7040   0.357   1.976   7.599
 2160SOL    HW2 7041   0.349   1.842   7.670
 2161SOL     OW 7042   0.936   2.106   7.912
 2161SOL    HW1 7043   0.907   2.149   7.832
 2161SOL    HW2 7044   1.031   2.118   7.913
 2162SOL     OW 7045   1.080   2.541   8.908
 2162SOL    HW1 7046   1.010   2.476   8.914
 2162SOL    HW2 7047   1.160   2.490   8.900
 2163SOL     OW 7048   1.225   3.431   8.241
 2163SOL    HW1 7049   1.243   3.499   8.176
 2163SOL    HW2 7050   1.293   3.443   8.308
 2164SOL     OW 7051   0.465   3.010   8.186
 2164SOL    HW1 7052   0.393   2.991   8.246
 2164SOL    HW2 7053   0.428   2.993   8.099
 2165SOL     OW 7054   1.271   3.657   8.053
 2165SOL    HW1 7055   1.315   3.718   7.994
 2165SOL    HW2 7056   1.206   3.710   8.100
 2166SOL     OW 7057   1.025   2.407   7.467
 2166SOL    HW1 7058   0.983   2.491   7.447
 2166SOL    HW2 7059   1.090   2.429   7.535
 2167SOL     OW 7060   0.080   2.395   8.855
 2167SOL    HW1 7061   0.149   2.396   8.789
 2167SOL    HW2 7062   0.068   2.487   8.878
 2168SOL     OW 7063   0.562   2.089   8.612
 2168SOL    HW1 7064   0.602   2.008   8.645
 2168SOL    HW2 7065   0.470   2.083   8.639
 2169SOL     OW 7066   0.870   2.322   8.088
 2169SOL    HW1 7067   0.822   2.375   8.024
 2169SOL    HW2 7068   0.889   2.240   8.041
 2170SOL     OW 7069   1.014   1.915   8.202
 2170SOL    HW1 7070   0.956   1.906   8.126
 2170SOL    HW2 7071   0.994   1.839   8.256
 2171SOL     OW 7072   1.436   3.026   8.306
 2171SOL    HW1 7073   1.368   2.958   8.305
 2171SOL    HW2 7074   1.458   3.039   8.213
 2172SOL     OW 7075   1.467   2.464   8.430
 2172SOL    HW1 7076   1.420   2.381   8.433
 2172SOL    HW2 7077   1.527   2.461   8.504
 2173SOL     OW 7078   1.848   2.680   7.831
 2173SOL    HW1 7079   1.903   2.627   7.888
 2173SOL    HW2 7080   1.819   2.620   7.762
 2174SOL     OW 7081   0.492   3.275   7.610
 2174SOL    HW1 7082   0.416   3.246   7.660
 2174SOL    HW2 7083   0.471   3.256   7.519
 2175SOL     OW 7084   1.668   3.128   8.096
 2175SOL    HW1 7085   1.763   3.134   8.109
 2175SOL    HW2 7086   1.635   3.215   8.118
 2176SOL     OW 7087   1.393   2.434   7.519
 2176SOL    HW1 7088   1.334   2.415   7.592
 2176SOL    HW2 7089   1.479   2.401   7.548
 2177SOL     OW 7090   0.525   2.122   7.769
 2177SOL    HW1 7091   0.567   2.074   7.698
 2177SOL    HW2 7092   0.508   2.209   7.732
 2178SOL     OW 7093   1.753   3.098   9.024
 2178SOL    HW1 7094   1.841   3.059   9.022
 2178SOL    HW2 7095   1.768   3.188   9.054
 2179SOL     OW 7096   1.061   3.216   8.783
 2179SOL    HW1 7097   0.986   3.185   8.834
 2179SOL    HW2 7098   1.137   3.174   8.824
 2180SOL     OW 7099   1.605   3.487   9.099
 2180SOL    HW1 7100   1.603   3.521   9.009
 2180SOL    HW2 7101   1.689   3.441   9.105
 2181SOL     OW 7102   1.126   3.064   8.555
 2181SOL    HW1 7103   1.067   3.101   8.621
 2181SOL    HW2 7104   1.091   3.094   8.471
 2182SOL     OW 7105   1.632   2.962   8.526
 2182SOL    HW1 7106   1.627   3.024   8.599
 2182SOL    HW2 7107   1.550   2.976   8.477
 2183SOL     OW 7108   0.917   1.961   8.847
 2183SOL    HW1 7109   0.940   1.941   8.756
 2183SOL    HW2 7110   0.996   2.000   8.883
 2184SOL     OW 7111   0.984   2.976   9.170
 2184SOL    HW1 7112   0.891   2.991   9.189
 2184SOL    HW2 7113   0.985   2.899   9.114
 2185SOL     OW 7114   0.708   2.922   7.821
 2185SOL    HW1 7115   0.695   2.908   7.914
 2185SOL    HW2 7116   0.784   2.869   7.798
 2186SOL     OW 7117   0.429   2.684   8.686
 2186SOL    HW1 7118   0.498   2.696   8.752
 2186SOL    HW2 7119   0.370   2.620   8.726
 2187SOL     OW 7120   1.267   2.240   8.721
 2187SOL    HW1 7121   1.299   2.318   8.767
 2187SOL    HW2 7122   1.178   2.263   8.695
 2188SOL     OW 7123   0.061   3.437   8.786
 2188SOL    HW1 7124   0.032   3.526   8.763
 2188SOL    HW2 7125   0.156   3.444   8.794
 2189SOL     OW 7126   0.352   2.968   7.942
 2189SOL    HW1 7127   0.359   3.041   7.880
 2189SOL    HW2 7128   0.354   2.890   7.886
 2190SOL     OW 7129   0.562   2.397   8.305
 2190SOL    HW1 7130   0.576   2.457   8.232
 2190SOL    HW2 7131   0.621   2.429   8.374
 2191SOL     OW 7132   1.248   3.210   7.837
 2191SOL    HW1 7133   1.303   3.282   7.868
 2191SOL    HW2 7134   1.161   3.230   7.871
 2192SOL     OW 7135   1.277   3.317   8.594
 2192SOL    HW1 7136   1.331   3.319   8.672
 2192SOL    HW2 7137   1.221   3.240   8.604
 2193SOL     OW 7138   1.581   2.487   7.923
 2193SOL    HW1 7139   1.539   2.544   7.987
 2193SOL    HW2 7140   1.629   2.547   7.866
 2194SOL     OW 7141   0.348   3.391   8.766
 2194SOL    HW1 7142   0.333   3.344   8.684
 2194SOL    HW2 7143   0.443   3.401   8.771
 2195SOL     OW 7144   0.471   2.620   9.107
 2195SOL    HW1 7145   0.501   2.660   9.026
 2195SOL    HW2 7146   0.505   2.531   9.104
 2196SOL     OW 7147   1.598   2.641   9.129
 2196SOL    HW1 7148   1.511   2.680   9.120
 2196SOL    HW2 7149   1.649   2.682   9.059
 2197SOL     OW 7150   0.997   1.980   9.205
 2197SOL    HW1 7151   1.048   2.053   9.171
 2197SOL    HW2 7152   1.046   1.902   9.178
 2198SOL     OW 7153   0.498   1.906   9.194
 2198SOL    HW1 7154   0.459   1.849   9.127
 2198SOL    HW2 7155   0.437   1.979   9.203
 2199SOL     OW 7156   0.588   2.735   8.472
 2199SOL    HW1 7157   0.616   2.827   8.474
 2199SOL    HW2 7158   0.531   2.726   8.548
 2200SOL     OW 7159   1.361   2.721   8.482
 2200SOL    HW1 7160   1.280   2.715   8.431
 2200SOL    HW2 7161   1.398   2.633   8.479
 2201SOL     OW 7162   1.207   2.391   7.717
 2201SOL    HW1 7163   1.215   2.313   7.771
 2201SOL    HW2 7164   1.165   2.455   7.774
 2202SOL     OW 7165   0.303   2.056   8.689
 2202SOL    HW1 7166   0.265   2.091   8.770
 2202SOL    HW2 7167   0.285   1.962   8.692
 2203SOL     OW 7168   0.047   3.174   8.732
 2203SOL    HW1 7169   0.078   3.128   8.809
 2203SOL    HW2 7170   0.049   3.267   8.757
 2204SOL     OW 7171   0.727   2.494   8.509
 2204SOL    HW1 7172   0.799   2.475   8.449
 2204SOL    HW2 7173   0.699   2.583   8.485
 2205SOL     OW 7174   1.732   2.823   9.298
 2205SOL    HW1 7175   1.686   2.765   9.238
 2205SOL    HW2 7176   1.673   2.833   9.372
 2206SOL     OW 7177   0.308   1.932   8.067
 2206SOL    HW1 7178   0.287   2.021   8.096
 2206SOL    HW2 7179   0.304   1.879   8.147
 2207SOL     OW 7180   1.612   2.233   7.818
 2207SOL    HW1 7181   1.641   2.171   7.884
 2207SOL    HW2 7182   1.590   2.313   7.867
 2208SOL     OW 7183   1.027   2.622   8.410
 2208SOL    HW1 7184   1.027   2.639   8.504
 2208SOL    HW2 7185   1.000   2.530   8.403
 2209SOL     OW 7186   0.983   3.429   9.162
 2209SOL    HW1 7187   0.967   3.472   9.079
 2209SOL    HW2 7188   1.025   3.346   9.138
 2210SOL     OW 7189   1.856   3.372   9.054
 2210SOL    HW1 7190   1.873   3.397   8.963
 2210SOL    HW2 7191   1.937   3.393   9.100
 2211SOL     OW 7192   0.348   2.792   9.266
 2211SOL    HW1 7193   0.422   2.819   9.319
 2211SOL    HW2 7194   0.383   2.726   9.206
 2212SOL     OW 7195   1.531   2.136   7.575
 2212SOL    HW1 7196   1.467   2.070   7.602
 2212SOL    HW2 7197   1.564   2.172   7.657
 2213SOL     OW 7198   1.295   2.689   7.481
 2213SOL    HW1 7199   1.337   2.603   7.485
 2213SOL    HW2 7200   1.325   2.728   7.399
 2214SOL     OW 7201   1.065   3.197   8.300
 2214SOL    HW1 7202   1.068   3.124   8.239
 2214SOL    HW2 7203   1.128   3.260   8.265
 2215SOL     OW 7204   0.317   2.674   8.398
 2215SOL    HW1 7205   0.411   2.692   8.394
 2215SOL    HW2 7206   0.310   2.584   8.428
 2216SOL     OW 7207   0.333   2.385   8.442
 2216SOL    HW1 7208   0.295   2.299   8.426
 2216SOL    HW2 7209   0.411   2.387   8.385
 2217SOL     OW 7210   1.134   2.241   9.127
 2217SOL    HW1 7211   1.089   2.296   9.191
 2217SOL    HW2 7212   1.223   2.277   9.123
 2218SOL     OW 7213   1.159   2.067   8.918
 2218SOL    HW1 7214   1.151   2.129   8.989
 2218SOL    HW2 7215   1.198   2.117   8.846
 2219SOL     OW 7216   4.492   3.185   7.649
 2219SOL    HW1 7217   4.399   3.200   7.631
 2219SOL    HW2 7218   4.498   3.093   7.673
 2220SOL     OW 7219   0.095   3.644   8.388
 2220SOL    HW1 7220   0.057   3.583   8.324
 2220SOL    HW2 7221   0.182   3.663   8.354
 2221SOL     OW 7222   0.499   3.435   8.354
 2221SOL    HW1 7223   0.567   3.498   8.378
 2221SOL    HW2 7224   0.544   3.370   8.300
 2222SOL     OW 7225   0.988   2.657   8.676
 2222SOL    HW1 7226   1.041   2.631   8.752
 2222SOL    HW2 7227   0.901   2.621   8.694
 2223SOL     OW 7228   0.037   2.423   8.554
 2223SOL    HW1 7229   0.119   2.387   8.522
 2223SOL    HW2 7230   0.028   2.387   8.642
 2224SOL     OW 7231   0.179   2.377   9.161
 2224SOL    HW1 7232   0.258   2.349   9.115
 2224SOL    HW2 7233   0.153   2.458   9.118
 2225SOL     OW 7234   1.375   2.804   9.107
 2225SOL    HW1 7235   1.396   2.897   9.107
 2225SOL    HW2 7236   1.374   2.779   9.015
 2226SOL     OW 7237   0.816   2.431   7.803
 2226SOL    HW1 7238   0.818   2.355   7.744
 2226SOL    HW2 7239   0.741   2.482   7.773
 2227SOL     OW 7240   1.642   2.465   8.639
 2227SOL    HW1 7241   1.632   2.401   8.710
 2227SOL    HW2 7242   1.729   2.447   8.603
 2228SOL     OW 7243   0.272   3.423   9.190
 2228SOL    HW1 7244   0.218   3.476   9.248
 2228SOL    HW2 7245   0.250   3.333   9.213
 2229SOL     OW 7246   0.686   2.319   8.713
 2229SOL    HW1 7247   0.644   2.240   8.677
 2229SOL    HW2 7248   0.690   2.379   8.639
 2230SOL     OW 7249   0.931   3.541   8.914
 2230SOL    HW1 7250   0.903   3.510   8.828
 2230SOL    HW2 7251   0.929   3.636   8.907
 2231SOL     OW 7252   0.473   2.353   7.636
 2231SOL    HW1 7253   0.531   2.426   7.657
 2231SOL    HW2 7254   0.387   2.393   7.623
 2232SOL     OW 7255   0.162   3.003   8.911
 2232SOL    HW1 7256   0.148   2.955   8.993
 2232SOL    HW2 7257   0.171   2.935   8.844
 2233SOL     OW 7258   1.330   2.911   8.673
 2233SOL    HW1 7259   1.353   2.848   8.605
 2233SOL    HW2 7260   1.257   2.961   8.635
 2234SOL     OW 7261   1.308   2.719   7.756
 2234SOL    HW1 7262   1.231   2.688   7.804
 2234SOL    HW2 7263   1.286   2.705   7.664
 2235SOL     OW 7264   1.768   3.609   8.596
 2235SOL    HW1 7265   1.828   3.634   8.526
 2235SOL    HW2 7266   1.744   3.518   8.576
 2236SOL     OW 7267   1.242   3.595   8.566
 2236SOL    HW1 7268   1.323   3.613   8.518
 2236SOL    HW2 7269   1.244   3.501   8.583
 2237SOL     OW 7270   0.068   3.051   8.495
 2237SOL    HW1 7271   0.073   3.085   8.585
 2237SOL    HW2 7272   0.011   3.112   8.449
 2238SOL     OW 7273   0.679   3.526   9.173
 2238SOL    HW1 7274   0.625   3.605   9.170
 2238SOL    HW2 7275   0.740   3.535   9.100
 2239SOL     OW 7276   1.717   2.003   7.960
 2239SOL    HW1 7277   1.792   1.990   7.902
 2239SOL    HW2 7278   1.702   1.918   8.000
 2240SOL     OW 7279   1.390   3.430   7.931
 2240SOL    HW1 7280   1.450   3.461   7.863
 2240SOL    HW2 7281   1.343   3.508   7.958
 2241SOL     OW 7282   0.121   3.669   9.295
 2241SOL    HW1 7283   0.082   3.595   9.342
 2241SOL    HW2 7284   0.184   3.706   9.357
 2242SOL     OW 7285   1.277   2.786   8.119
 2242SOL    HW1 7286   1.350   2.725   8.124
 2242SOL    HW2 7287   1.311   2.860   8.067
 2243SOL     OW 7288   0.818   3.134   8.879
 2243SOL    HW1 7289   0.792   3.173   8.963
 2243SOL    HW2 7290   0.747   3.156   8.820
 2244SOL     OW 7291   0.673   3.478   7.603
 2244SOL    HW1 7292   0.681   3.489   7.508
 2244SOL    HW2 7293   0.619   3.400   7.614
 2245SOL     OW 7294   1.633   3.588   8.840
 2245SOL    HW1 7295   1.680   3.596   8.757
 2245SOL    HW2 7296   1.619   3.679   8.869
 2246SOL     OW 7297   1.846   2.044   8.414
 2246SOL    HW1 7298   1.879   1.958   8.388
 2246SOL    HW2 7299   1.759   2.049   8.374
 2247SOL     OW 7300   0.267   2.182   8.168
 2247SOL    HW1 7301   0.184   2.221   8.139
 2247SOL    HW2 7302   0.255   2.170   8.262
 2248SOL     OW 7303   1.206   3.470   7.479
 2248SOL    HW1 7304   1.198   3.379   7.507
 2248SOL    HW2 7305   1.141   3.480   7.409
 2249SOL     OW 7306   0.825   2.868   8.820
 2249SOL    HW1 7307   0.867   2.865   8.734
 2249SOL    HW2 7308   0.826   2.961   8.844
 2250SOL     OW 7309   0.915   2.773   7.737
 2250SOL    HW1 7310   0.977   2.804   7.671
 2250SOL    HW2 7311   0.962   2.701   7.781
 2251SOL     OW 7312   1.495   3.486   7.490
 2251SOL    HW1 7313   1.400   3.482   7.479
 2251SOL    HW2 7314   1.529   3.492   7.401
 2252SOL     OW 7315   0.373   3.167   8.939
 2252SOL    HW1 7316   0.356   3.246   8.887
 2252SOL    HW2 7317   0.297   3.111   8.923
 2253SOL     OW 7318   1.613   3.146   8.729
 2253SOL    HW1 7319   1.670   3.137   8.806
 2253SOL    HW2 7320   1.551   3.215   8.753
 2254SOL     OW 7321   1.048   2.967   8.153
 2254SOL    HW1 7322   0.978   2.916   8.193
 2254SOL    HW2 7323   1.109   2.902   8.118
 2255SOL     OW 7324   1.019   2.102   8.414
 2255SOL    HW1 7325   1.014   2.054   8.331
 2255SOL    HW2 7326   1.015   2.034   8.481
 2256SOL     OW 7327   0.603   3.352   7.931
 2256SOL    HW1 7328   0.641   3.301   7.860
 2256SOL    HW2 7329   0.532   3.401   7.890
 2257SOL     OW 7330   1.716   2.257   8.826
 2257SOL    HW1 7331   1.793   2.314   8.829
 2257SOL    HW2 7332   1.745   2.181   8.774
 2258SOL     OW 7333   0.252   3.207   7.726
 2258SOL    HW1 7334   0.158   3.208   7.711
 2258SOL    HW2 7335   0.262   3.240   7.815
 2259SOL     OW 7336   0.118   2.870   9.144
 2259SOL    HW1 7337   0.052   2.906   9.203
 2259SOL    HW2 7338   0.195   2.857   9.199
 2260SOL     OW 7339   0.672   2.061   8.946
 2260SOL    HW1 7340   0.756   2.040   8.904
 2260SOL    HW2 7341   0.696   2.087   9.035
 2261SOL     OW 7342   0.072   2.189   7.481
 2261SOL    HW1 7343   4.477   2.197   7.479
 2261SOL    HW2 7344   0.105   2.270   7.443
 2262SOL     OW 7345   1.433   2.721   8.850
 2262SOL    HW1 7346   1.384   2.780   8.792
 2262SOL    HW2 7347   1.522   2.723   8.817
 2263SOL     OW 7348   0.084   2.040   7.755
 2263SOL    HW1 7349   0.078   2.111   7.691
 2263SOL    HW2 7350   0.160   1.989   7.727
 2264SOL     OW 7351   1.180   3.204   7.565
 2264SOL    HW1 7352   1.089   3.174   7.568
 2264SOL    HW2 7353   1.208   3.203   7.656
 2265SOL     OW 7354   0.620   2.693   8.876
 2265SOL    HW1 7355   0.675   2.771   8.864
 2265SOL    HW2 7356   0.682   2.621   8.886
 2266SOL     OW 7357   1.485   3.636   8.423
 2266SOL    HW1 7358   1.511   3.693   8.351
 2266SOL    HW2 7359   1.566   3.621   8.472
 2267SOL     OW 7360   0.716   2.425   9.153
 2267SOL    HW1 7361   0.750   2.490   9.214
 2267SOL    HW2 7362   0.754   2.342   9.183
 2268SOL     OW 7363   1.468   3.066   9.081
 2268SOL    HW1 7364   1.456   3.078   9.175
 2268SOL    HW2 7365   1.562   3.077   9.067
 2269SOL     OW 7366   0.383   3.604   9.011
 2269SOL    HW1 7367   0.297   3.644   8.997
 2269SOL    HW2 7368   0.364   3.523   9.058
 2270SOL     OW 7369   1.673   2.744   8.703
 2270SOL    HW1 7370   1.662   2.659   8.662
 2270SOL    HW2 7371   1.663   2.807   8.632
 2271SOL     OW 7372   1.219   2.182   7.905
 2271SOL    HW1 7373   1.282   2.111   7.896
 2271SOL    HW2 7374   1.247   2.230   7.983
 2272SOL     OW 7375   0.591   2.602   8.115
 2272SOL    HW1 7376   0.630   2.688   8.098
 2272SOL    HW2 7377   0.521   2.594   8.051
 2273SOL     OW 7378   1.752   2.236   9.104
 2273SOL    HW1 7379   1.757   2.233   9.009
 2273SOL    HW2 7380   1.685   2.171   9.127
 2274SOL     OW 7381   1.744   2.795   8.960
 2274SOL    HW1 7382   1.745   2.890   8.973
 2274SOL    HW2 7383   1.728   2.784   8.867
 2275SOL     OW 7384   0.863   3.231   7.478
 2275SOL    HW1 7385   0.823   3.256   7.561
 2275SOL    HW2 7386   0.882   3.314   7.434
 2276SOL     OW 7387   0.659   3.656   8.397
 2276SOL    HW1 7388   0.637   3.745   8.371
 2276SOL    HW2 7389   0.754   3.651   8.387
 2277SOL     OW 7390   0.866   2.827   8.304
 2277SOL    HW1 7391   0.916   2.756   8.345
 2277SOL    HW2 7392   0.833   2.878   8.378
 2278SOL     OW 7393   1.080   2.850   7.537
 2278SOL    HW1 7394   1.058   2.900   7.458
 2278SOL    HW2 7395   1.155   2.797   7.511
 2279SOL     OW 7396   1.857   3.418   8.293
 2279SOL    HW1 7397   1.780   3.407   8.237
 2279SOL    HW2 7398   1.847   3.351   8.360
 2280SOL     OW 7399   0.228   3.169   9.304
 2280SOL    HW1 7400   0.159   3.107   9.279
 2280SOL    HW2 7401   0.218   3.179   9.399
 2281SOL     OW 7402   0.102   3.101   8.114
 2281SOL    HW1 7403   0.106   3.050   8.195
 2281SOL    HW2 7404   0.162   3.058   8.055
 2282SOL     OW 7405   0.680   3.262   9.074
 2282SOL    HW1 7406   0.600   3.218   9.102
 2282SOL    HW2 7407   0.674   3.350   9.111
 2283SOL     OW 7408   1.804   2.053   8.679
 2283SOL    HW1 7409   1.841   1.971   8.710
 2283SOL    HW2 7410   1.821   2.054   8.585
 2284SOL     OW 7411   0.434   2.295   7.973
 2284SOL    HW1 7412   0.458   2.222   7.916
 2284SOL    HW2 7413   0.384   2.255   8.044
 2285SOL     OW 7414   1.702   3.353   8.548
 2285SOL    HW1 7415   1.620   3.328   8.504
 2285SOL    HW2 7416   1.716   3.285   8.614
 2286SOL     OW 7417   0.305   2.351   8.705
 2286SOL    HW1 7418   0.379   2.311   8.751
 2286SOL    HW2 7419   0.338   2.365   8.616
 2287SOL     OW 7420   0.825   3.440   8.127
 2287SOL    HW1 7421   0.819   3.485   8.043
 2287SOL    HW2 7422   0.747   3.385   8.132
 2288SOL     OW 7423   1.431   2.085   8.565
 2288SOL    HW1 7424   1.467   2.011   8.614
 2288SOL    HW2 7425   1.380   2.133   8.630
 2289SOL     OW 7426   1.008   1.883   8.594
 2289SOL    HW1 7427   0.954   1.814   8.555
 2289SOL    HW2 7428   1.096   1.846   8.596
 2290SOL     OW 7429   0.772   3.194   7.758
 2290SOL    HW1 7430   0.737   3.105   7.765
 2290SOL    HW2 7431   0.854   3.192   7.806
 2291SOL     OW 7432   0.621   3.420   8.732
 2291SOL    HW1 7433   0.623   3.501   8.783
 2291SOL    HW2 7434   0.708   3.414   8.693
 2292SOL     OW 7435   1.352   1.915   7.612
 2292SOL    HW1 7436   1.377   1.856   7.541
 2292SOL    HW2 7437   1.266   1.884   7.639
 2293SOL     OW 7438   1.297   2.322   8.131
 2293SOL    HW1 7439   1.243   2.400   8.140
 2293SOL    HW2 7440   1.295   2.281   8.218
 2294SOL     OW 7441   1.588   2.066   8.325
 2294SOL    HW1 7442   1.524   2.083   8.394
 2294SOL    HW2 7443   1.588   2.145   8.271
 2295SOL     OW 7444   0.041   2.916   7.735
 2295SOL    HW1 7445   0.136   2.905   7.728
 2295SOL    HW2 7446   0.018   2.875   7.818
 2296SOL     OW 7447   0.881   3.512   7.792
 2296SOL    HW1 7448   0.810   3.493   7.731
 2296SOL    HW2 7449   0.851   3.588   7.842
 2297SOL     OW 7450   0.248   2.489   9.428
 2297SOL    HW1 7451   0.173   2.475   9.485
 2297SOL    HW2 7452   0.217   2.468   9.340
 2298SOL     OW 7453   0.214   2.138  10.301
 2298SOL    HW1 7454   0.250   2.112  10.386
 2298SOL    HW2 7455   0.137   2.082  10.290
 2299SOL     OW 7456   0.010   2.249   9.949
 2299SOL    HW1 7457   4.429   2.279   9.992
 2299SOL    HW2 7458   4.484   2.169   9.903
 2300SOL     OW 7459   0.567   3.144  10.483
 2300SOL    HW1 7460   0.480   3.148  10.444
 2300SOL    HW2 7461   0.582   3.232  10.518
 2301SOL     OW 7462   1.557   3.374  10.015
 2301SOL    HW1 7463   1.513   3.356  10.098
 2301SOL    HW2 7464   1.487   3.379   9.951
 2302SOL     OW 7465   1.129   2.561  10.014
 2302SOL    HW1 7466   1.180   2.641   9.999
 2302SOL    HW2 7467   1.083   2.577  10.096
 2303SOL     OW 7468   1.766   2.469   9.540
 2303SOL    HW1 7469   1.745   2.460   9.447
 2303SOL    HW2 7470   1.731   2.389   9.580
 2304SOL     OW 7471   0.760   3.007  10.348
 2304SOL    HW1 7472   0.689   3.040  10.403
 2304SOL    HW2 7473   0.793   3.084  10.302
 2305SOL     OW 7474   0.848   2.646   0.020
 2305SOL    HW1 7475   0.858   2.703   0.096
 2305SOL    HW2 7476   0.883   2.697  11.047
 2306SOL     OW 7477   0.686   2.869   9.959
 2306SOL    HW1 7478   0.750   2.854  10.029
 2306SOL    HW2 7479   0.616   2.919  10.002
 2307SOL     OW 7480   0.337   3.285  10.379
 2307SOL    HW1 7481   0.256   3.266  10.333
 2307SOL    HW2 7482   0.387   3.340  10.318
 2308SOL     OW 7483   1.463   3.362  10.656
 2308SOL    HW1 7484   1.514   3.442  10.667
 2308SOL    HW2 7485   1.418   3.350  10.740
 2309SOL     OW 7486   0.446   2.264  10.794
 2309SOL    HW1 7487   0.524   2.209  10.803
 2309SOL    HW2 7488   0.373   2.206  10.814
 2310SOL     OW 7489   1.611   2.311  10.051
 2310SOL    HW1 7490   1.537   2.337   9.997
 2310SOL    HW2 7491   1.635   2.389  10.100
 2311SOL     OW 7492   0.246   3.554   9.790
 2311SOL    HW1 7493   0.233   3.638   9.833
 2311SOL    HW2 7494   0.306   3.572   9.718
 2312SOL     OW 7495   0.244   3.290   9.838
 2312SOL    HW1 7496   0.236   3.385   9.843
 2312SOL    HW2 7497   0.179   3.257   9.901
 2313SOL     OW 7498   0.245   2.943  10.193
 2313SOL    HW1 7499   0.262   2.856  10.227
 2313SOL    HW2 7500   0.188   2.984  10.258
 2314SOL     OW 7501   0.615   3.652  10.741
 2314SOL    HW1 7502   0.534   3.633  10.787
 2314SOL    HW2 7503   0.636   3.742  10.765
 2315SOL     OW 7504   0.584   2.845   9.445
 2315SOL    HW1 7505   0.629   2.893   9.375
 2315SOL    HW2 7506   0.630   2.872   9.525
 2316SOL     OW 7507   1.587   1.978  10.781
 2316SOL    HW1 7508   1.597   2.056  10.727
 2316SOL    HW2 7509   1.595   2.010  10.871
 2317SOL     OW 7510   0.137   2.506   9.885
 2317SOL    HW1 7511   0.086   2.425   9.898
 2317SOL    HW2 7512   0.106   2.565   9.954
 2318SOL     OW 7513   1.841   3.623   9.647
 2318SOL    HW1 7514   1.900   3.594   9.716
 2318SOL    HW2 7515   1.869   3.713   9.629
 2319SOL     OW 7516   0.033   3.462   9.445
 2319SOL    HW1 7517   0.021   3.368   9.448
 2319SOL    HW2 7518   0.010   3.492   9.533
 2320SOL     OW 7519   1.691   2.782   9.948
 2320SOL    HW1 7520   1.774   2.739   9.928
 2320SOL    HW2 7521   1.669   2.831   9.868
 2321SOL     OW 7522   1.644   2.970   9.740
 2321SOL    HW1 7523   1.729   2.978   9.697
 2321SOL    HW2 7524   1.649   3.030   9.814
 2322SOL     OW 7525   0.100   2.618  10.910
 2322SOL    HW1 7526   0.194   2.604  10.898
 2322SOL    HW2 7527   0.088   2.712  10.897
 2323SOL     OW 7528   0.613   3.244  10.046
 2323SOL    HW1 7529   0.566   3.161  10.054
 2323SOL    HW2 7530   0.596   3.271   9.955
 2324SOL     OW 7531   1.297   3.100  10.750
 2324SOL    HW1 7532   1.322   3.038  10.681
 2324SOL    HW2 7533   1.351   3.075  10.825
 2325SOL     OW 7534   0.813   1.860   9.815
 2325SOL    HW1 7535   0.853   1.946   9.800
 2325SOL    HW2 7536   0.719   1.879   9.826
 2326SOL     OW 7537   0.183   2.806  10.589
 2326SOL    HW1 7538   0.274   2.788  10.566
 2326SOL    HW2 7539   0.133   2.780  10.512
 2327SOL     OW 7540   1.532   2.853   9.506
 2327SOL    HW1 7541   1.462   2.795   9.535
 2327SOL    HW2 7542   1.571   2.887   9.587
 2328SOL     OW 7543   1.195   3.667  10.926
 2328SOL    HW1 7544   1.197   3.728  10.852
 2328SOL    HW2 7545   1.202   3.581  10.885
 2329SOL     OW 7546   0.338   2.125   0.003
 2329SOL    HW1 7547   0.387   2.198   0.041
 2329SOL    HW2 7548   0.247   2.145   0.023
 2330SOL     OW 7549   1.466   3.281  10.263
 2330SOL    HW1 7550   1.397   3.296  10.328
 2330SOL    HW2 7551   1.454   3.191  10.235
 2331SOL     OW 7552   1.662   3.594   9.887
 2331SOL    HW1 7553   1.638   3.567   9.799
 2331SOL    HW2 7554   1.635   3.522   9.943
 2332SOL     OW 7555   0.597   2.584   9.574
 2332SOL    HW1 7556   0.603   2.664   9.522
 2332SOL    HW2 7557   0.531   2.604   9.641
 2333SOL     OW 7558   1.280   2.211  10.243
 2333SOL    HW1 7559   1.190   2.176  10.250
 2333SOL    HW2 7560   1.330   2.158  10.304
 2334SOL     OW 7561   1.582   3.530   9.619
 2334SOL    HW1 7562   1.670   3.565   9.613
 2334SOL    HW2 7563   1.556   3.513   9.528
 2335SOL     OW 7564   0.795   2.477  10.764
 2335SOL    HW1 7565   0.767   2.455  10.852
 2335SOL    HW2 7566   0.751   2.413  10.708
 2336SOL     OW 7567   0.966   2.759  10.899
 2336SOL    HW1 7568   1.014   2.686  10.860
 2336SOL    HW2 7569   0.916   2.796  10.826
 2337SOL     OW 7570   0.992   2.275  10.550
 2337SOL    HW1 7571   0.909   2.299  10.590
 2337SOL    HW2 7572   0.968   2.227  10.471
 2338SOL     OW 7573   1.049   2.561   9.737
 2338SOL    HW1 7574   1.064   2.554   9.831
 2338SOL    HW2 7575   0.968   2.513   9.722
 2339SOL     OW 7576   0.098   2.686  10.093
 2339SOL    HW1 7577   0.184   2.665  10.129
 2339SOL    HW2 7578   0.053   2.733  10.163
 2340SOL     OW 7579   0.120   3.712  10.898
 2340SOL    HW1 7580   0.116   3.653  10.973
 2340SOL    HW2 7581   0.051   3.681  10.840
 2341SOL     OW 7582   0.886   2.208   9.504
 2341SOL    HW1 7583   0.930   2.269   9.444
 2341SOL    HW2 7584   0.905   2.122   9.468
 2342SOL     OW 7585   1.375   3.005   9.852
 2342SOL    HW1 7586   1.453   2.990   9.799
 2342SOL    HW2 7587   1.322   3.067   9.802
 2343SOL     OW 7588   0.551   2.046  10.202
 2343SOL    HW1 7589   0.553   2.074  10.294
 2343SOL    HW2 7590   0.552   2.128  10.153
 2344SOL     OW 7591   1.009   3.308   9.784
 2344SOL    HW1 7592   0.968   3.379   9.735
 2344SOL    HW2 7593   0.993   3.331   9.876
 2345SOL     OW 7594   0.354   3.669  10.166
 2345SOL    HW1 7595   0.398   3.585  10.177
 2345SOL    HW2 7596   0.424   3.734  10.179
 2346SOL     OW 7597   1.799   2.921  10.176
 2346SOL    HW1 7598   1.742   2.904  10.101
 2346SOL    HW2 7599   1.739   2.927  10.251
 2347SOL     OW 7600   1.226   3.403  10.824
 2347SOL    HW1 7601   1.235   3.317  10.865
 2347SOL    HW2 7602   1.168   3.389  10.750
 2348SOL     OW 7603   0.317   2.816   9.559
 2348SOL    HW1 7604   0.402   2.838   9.519
 2348SOL    HW2 7605   0.299   2.727   9.529
 2349SOL     OW 7606   1.475   2.601  10.038
 2349SOL    HW1 7607   1.464   2.554  10.121
 2349SOL    HW2 7608   1.552   2.656  10.052
 2350SOL     OW 7609   0.455   3.131  11.051
 2350SOL    HW1 7610   0.427   3.139  10.960
 2350SOL    HW2 7611   0.386   3.080  11.094
 2351SOL     OW 7612   1.120   3.639   9.542
 2351SOL    HW1 7613   1.049   3.596   9.589
 2351SOL    HW2 7614   1.142   3.580   9.470
 2352SOL     OW 7615   0.193   2.139  10.797
 2352SOL    HW1 7616   0.135   2.215  10.804
 2352SOL    HW2 7617   0.191   2.099  10.884
 2353SOL     OW 7618   1.630   3.241   9.396
 2353SOL    HW1 7619   1.588   3.326   9.382
 2353SOL    HW2 7620   1.560   3.177   9.378
 2354SOL     OW 7621   0.469   3.607   9.624
 2354SOL    HW1 7622   0.508   3.658   9.695
 2354SOL    HW2 7623   0.544   3.575   9.573
 2355SOL     OW 7624   1.401   1.970   9.740
 2355SOL    HW1 7625   1.389   1.944   9.648
 2355SOL    HW2 7626   1.496   1.978   9.751
 2356SOL     OW 7627   0.256   3.655  10.546
 2356SOL    HW1 7628   0.306   3.584  10.587
 2356SOL    HW2 7629   0.230   3.620  10.461
 2357SOL     OW 7630   0.939   3.560  10.210
 2357SOL    HW1 7631   1.015   3.507  10.230
 2357SOL    HW2 7632   0.892   3.512  10.142
 2358SOL     OW 7633   0.392   2.557   9.785
 2358SOL    HW1 7634   0.417   2.466   9.794
 2358SOL    HW2 7635   0.300   2.560   9.811
 2359SOL     OW 7636   0.629   1.989   9.416
 2359SOL    HW1 7637   0.704   1.930   9.429
 2359SOL    HW2 7638   0.585   1.954   9.338
 2360SOL     OW 7639   0.771   2.132  11.045
 2360SOL    HW1 7640   0.836   2.076  11.088
 2360SOL    HW2 7641   0.711   2.156   0.016
 2361SOL     OW 7642   0.876   3.383  10.503
 2361SOL    HW1 7643   0.861   3.348  10.415
 2361SOL    HW2 7644   0.947   3.329  10.539
 2362SOL     OW 7645   1.343   2.451  10.752
 2362SOL    HW1 7646   1.392   2.428  10.831
 2362SOL    HW2 7647   1.372   2.540  10.730
 2363SOL     OW 7648   0.813   3.260  10.246
 2363SOL    HW1 7649   0.897   3.250  10.200
 2363SOL    HW2 7650   0.747   3.258  10.176
 2364SOL     OW 7651   0.927   2.371  10.214
 2364SOL    HW1 7652   0.904   2.363  10.122
 2364SOL    HW2 7653   0.960   2.285  10.238
 2365SOL     OW 7654   0.550   1.924   9.814
 2365SOL    HW1 7655   0.469   1.923   9.866
 2365SOL    HW2 7656   0.544   2.003   9.761
 2366SOL     OW 7657   1.429   3.060   9.351
 2366SOL    HW1 7658   1.460   2.984   9.401
 2366SOL    HW2 7659   1.342   3.079   9.388
 2367SOL     OW 7660   0.295   1.908   9.488
 2367SOL    HW1 7661   0.357   1.976   9.461
 2367SOL    HW2 7662   0.349   1.842   9.532
 2368SOL     OW 7663   0.936   2.106   9.774
 2368SOL    HW1 7664   0.907   2.149   9.694
 2368SOL    HW2 7665   1.031   2.118   9.775
 2369SOL     OW 7666   1.078   2.545  10.771
 2369SOL    HW1 7667   1.007   2.481  10.776
 2369SOL    HW2 7668   1.158   2.492  10.766
 2370SOL     OW 7669   1.225   3.431  10.104
 2370SOL    HW1 7670   1.243   3.499  10.038
 2370SOL    HW2 7671   1.293   3.443  10.170
 2371SOL     OW 7672   0.465   3.009  10.048
 2371SOL    HW1 7673   0.393   2.991  10.108
 2371SOL    HW2 7674   0.428   2.993   9.961
 2372SOL     OW 7675   1.271   3.657   9.915
 2372SOL    HW1 7676   1.315   3.718   9.856
 2372SOL    HW2 7677   1.207   3.710   9.962
 2373SOL     OW 7678   1.025   2.407   9.329
 2373SOL    HW1 7679   0.983   2.491   9.309
 2373SOL    HW2 7680   1.090   2.429   9.397
 2374SOL     OW 7681   0.073   2.396  10.713
 2374SOL    HW1 7682   0.148   2.397  10.654
 2374SOL    HW2 7683   0.069   2.484  10.749
 2375SOL     OW 7684   0.562   2.089  10.474
 2375SOL    HW1 7685   0.601   2.008  10.507
 2375SOL    HW2 7686   0.470   2.085  10.502
 2376SOL     OW 7687   0.870   2.322   9.950
 2376SOL    HW1 7688   0.822   2.375   9.887
 2376SOL    HW2 7689   0.889   2.240   9.903
 2377SOL     OW 7690   1.014   1.915  10.064
 2377SOL    HW1 7691   0.956   1.907   9.988
 2377SOL    HW2 7692   0.994   1.838  10.118
 2378SOL     OW 7693   1.435   3.026  10.168
 2378SOL    HW1 7694   1.369   2.957  10.166
 2378SOL    HW2 7695   1.458   3.039  10.076
 2379SOL     OW 7696   1.466   2.465  10.292
 2379SOL    HW1 7697   1.421   2.381  10.294
 2379SOL    HW2 7698   1.528   2.461  10.365
 2380SOL     OW 7699   1.849   2.680   9.692
 2380SOL    HW1 7700   1.902   2.627   9.750
 2380SOL    HW2 7701   1.819   2.620   9.624
 2381SOL     OW 7702   0.492   3.275   9.472
 2381SOL    HW1 7703   0.416   3.246   9.522
 2381SOL    HW2 7704   0.471   3.256   9.381
 2382SOL     OW 7705   1.668   3.128   9.959
 2382SOL    HW1 7706   1.763   3.134   9.971
 2382SOL    HW2 7707   1.635   3.215   9.980
 2383SOL     OW 7708   1.394   2.434   9.382
 2383SOL    HW1 7709   1.334   2.415   9.454
 2383SOL    HW2 7710   1.478   2.399   9.411
 2384SOL     OW 7711   0.525   2.122   9.631
 2384SOL    HW1 7712   0.567   2.074   9.560
 2384SOL    HW2 7713   0.508   2.209   9.594
 2385SOL     OW 7714   1.760   3.091  10.873
 2385SOL    HW1 7715   1.850   3.060  10.880
 2385SOL    HW2 7716   1.761   3.178  10.914
 2386SOL     OW 7717   1.065   3.216  10.650
 2386SOL    HW1 7718   0.987   3.183  10.695
 2386SOL    HW2 7719   1.138   3.168  10.690
 2387SOL     OW 7720   1.125   3.065  10.417
 2387SOL    HW1 7721   1.062   3.101  10.480
 2387SOL    HW2 7722   1.093   3.093  10.332
 2388SOL     OW 7723   1.632   2.963  10.388
 2388SOL    HW1 7724   1.628   3.024  10.461
 2388SOL    HW2 7725   1.551   2.978  10.340
 2389SOL     OW 7726   0.917   1.961  10.709
 2389SOL    HW1 7727   0.940   1.941  10.618
 2389SOL    HW2 7728   0.996   2.001  10.745
 2390SOL     OW 7729   0.708   2.922   9.683
 2390SOL    HW1 7730   0.695   2.908   9.776
 2390SOL    HW2 7731   0.784   2.869   9.660
 2391SOL     OW 7732   0.428   2.683  10.549
 2391SOL    HW1 7733   0.496   2.694  10.615
 2391SOL    HW2 7734   0.368   2.619  10.587
 2392SOL     OW 7735   1.268   2.241  10.585
 2392SOL    HW1 7736   1.299   2.319  10.630
 2392SOL    HW2 7737   1.179   2.263  10.557
 2393SOL     OW 7738   0.062   3.439  10.652
 2393SOL    HW1 7739   0.035   3.525  10.619
 2393SOL    HW2 7740   0.157   3.443  10.655
 2394SOL     OW 7741   0.352   2.968   9.804
 2394SOL    HW1 7742   0.359   3.042   9.742
 2394SOL    HW2 7743   0.354   2.890   9.748
 2395SOL     OW 7744   0.562   2.397  10.167
 2395SOL    HW1 7745   0.576   2.457  10.094
 2395SOL    HW2 7746   0.621   2.429  10.236
 2396SOL     OW 7747   1.248   3.210   9.699
 2396SOL    HW1 7748   1.303   3.282   9.730
 2396SOL    HW2 7749   1.161   3.230   9.733
 2397SOL     OW 7750   1.276   3.318  10.454
 2397SOL    HW1 7751   1.332   3.322  10.532
 2397SOL    HW2 7752   1.223   3.240  10.466
 2398SOL     OW 7753   1.582   2.487   9.786
 2398SOL    HW1 7754   1.539   2.544   9.850
 2398SOL    HW2 7755   1.629   2.548   9.728
 2399SOL     OW 7756   0.347   3.387  10.627
 2399SOL    HW1 7757   0.334   3.342  10.544
 2399SOL    HW2 7758   0.442   3.401  10.632
 2400SOL     OW 7759   0.477   2.609  10.964
 2400SOL    HW1 7760   0.510   2.648  10.883
 2400SOL    HW2 7761   0.508   2.518  10.961
 2401SOL     OW 7762   1.590   2.625  10.970
 2401SOL    HW1 7763   1.513   2.682  10.965
 2401SOL    HW2 7764   1.660   2.675  10.928
 2402SOL     OW 7765   0.588   2.735  10.335
 2402SOL    HW1 7766   0.615   2.827  10.336
 2402SOL    HW2 7767   0.531   2.725  10.411
 2403SOL     OW 7768   1.360   2.723  10.346
 2403SOL    HW1 7769   1.280   2.716  10.294
 2403SOL    HW2 7770   1.398   2.635  10.343
 2404SOL     OW 7771   1.207   2.391   9.579
 2404SOL    HW1 7772   1.215   2.313   9.633
 2404SOL    HW2 7773   1.165   2.455   9.636
 2405SOL     OW 7774   0.303   2.056  10.551
 2405SOL    HW1 7775   0.266   2.092  10.632
 2405SOL    HW2 7776   0.284   1.962  10.555
 2406SOL     OW 7777   0.049   3.176  10.593
 2406SOL    HW1 7778   0.077   3.128  10.671
 2406SOL    HW2 7779   0.048   3.268  10.621
 2407SOL     OW 7780   0.727   2.495  10.371
 2407SOL    HW1 7781   0.799   2.475  10.311
 2407SOL    HW2 7782   0.699   2.583  10.347
 2408SOL     OW 7783   0.308   1.932   9.929
 2408SOL    HW1 7784   0.287   2.021   9.958
 2408SOL    HW2 7785   0.303   1.879  10.009
 2409SOL     OW 7786   1.613   2.234   9.680
 2409SOL    HW1 7787   1.641   2.171   9.746
 2409SOL    HW2 7788   1.590   2.313   9.729
 2410SOL     OW 7789   1.027   2.622  10.272
 2410SOL    HW1 7790   1.027   2.639  10.366
 2410SOL    HW2 7791   1.000   2.530  10.265
 2411SOL     OW 7792   0.974   3.434  11.004
 2411SOL    HW1 7793   0.960   3.483  10.923
 2411SOL    HW2 7794   1.006   3.348  10.976
 2412SOL     OW 7795   1.859   3.360  10.912
 2412SOL    HW1 7796   1.873   3.394  10.823
 2412SOL    HW2 7797   1.926   3.401  10.965
 2413SOL     OW 7798   0.349   2.794  11.097
 2413SOL    HW1 7799   0.425   2.821   0.048
 2413SOL    HW2 7800   0.382   2.722  11.042
 2414SOL     OW 7801   1.530   2.136   9.437
 2414SOL    HW1 7802   1.467   2.070   9.464
 2414SOL    HW2 7803   1.563   2.172   9.520
 2415SOL     OW 7804   1.295   2.689   9.343
 2415SOL    HW1 7805   1.337   2.603   9.347
 2415SOL    HW2 7806   1.325   2.728   9.261
 2416SOL     OW 7807   1.065   3.196  10.163
 2416SOL    HW1 7808   1.068   3.124  10.101
 2416SOL    HW2 7809   1.128   3.260  10.128
 2417SOL     OW 7810   0.317   2.674  10.260
 2417SOL    HW1 7811   0.411   2.691  10.255
 2417SOL    HW2 7812   0.310   2.584  10.290
 2418SOL     OW 7813   0.334   2.385  10.303
 2418SOL    HW1 7814   0.295   2.299  10.288
 2418SOL    HW2 7815   0.411   2.386  10.247
 2419SOL     OW 7816   1.156   2.072  10.781
 2419SOL    HW1 7817   1.168   2.129  10.857
 2419SOL    HW2 7818   1.195   2.120  10.709
 2420SOL     OW 7819   4.492   3.185   9.511
 2420SOL    HW1 7820   4.399   3.200   9.493
 2420SOL    HW2 7821   4.498   3.093   9.535
 2421SOL     OW 7822   0.094   3.643  10.250
 2421SOL    HW1 7823   0.057   3.582  10.186
 2421SOL    HW2 7824   0.182   3.663  10.216
 2422SOL     OW 7825   0.499   3.435  10.216
 2422SOL    HW1 7826   0.567   3.498  10.239
 2422SOL    HW2 7827   0.544   3.370  10.162
 2423SOL     OW 7828   0.988   2.657  10.538
 2423SOL    HW1 7829   1.040   2.633  10.615
 2423SOL    HW2 7830   0.901   2.621  10.556
 2424SOL     OW 7831   0.036   2.421  10.415
 2424SOL    HW1 7832   0.120   2.387  10.385
 2424SOL    HW2 7833   0.029   2.391  10.506
 2425SOL     OW 7834   0.816   2.431   9.665
 2425SOL    HW1 7835   0.818   2.355   9.606
 2425SOL    HW2 7836   0.741   2.482   9.635
 2426SOL     OW 7837   1.644   2.464  10.498
 2426SOL    HW1 7838   1.636   2.403  10.571
 2426SOL    HW2 7839   1.731   2.447  10.463
 2427SOL     OW 7840   0.264   3.433  11.058
 2427SOL    HW1 7841   0.212   3.464   0.032
 2427SOL    HW2 7842   0.242   3.340  11.051
 2428SOL     OW 7843   0.691   2.317  10.574
 2428SOL    HW1 7844   0.644   2.241  10.541
 2428SOL    HW2 7845   0.692   2.378  10.500
 2429SOL     OW 7846   0.941   3.544  10.760
 2429SOL    HW1 7847   0.902   3.513  10.678
 2429SOL    HW2 7848   0.928   3.639  10.759
 2430SOL     OW 7849   0.473   2.353   9.498
 2430SOL    HW1 7850   0.531   2.426   9.519
 2430SOL    HW2 7851   0.387   2.393   9.485
 2431SOL     OW 7852   0.162   3.003  10.772
 2431SOL    HW1 7853   0.142   2.958  10.854
 2431SOL    HW2 7854   0.170   2.933  10.707
 2432SOL     OW 7855   1.328   2.916  10.538
 2432SOL    HW1 7856   1.355   2.851  10.473
 2432SOL    HW2 7857   1.255   2.962  10.497
 2433SOL     OW 7858   1.308   2.719   9.618
 2433SOL    HW1 7859   1.231   2.688   9.666
 2433SOL    HW2 7860   1.286   2.705   9.526
 2434SOL     OW 7861   1.768   3.610  10.459
 2434SOL    HW1 7862   1.828   3.634  10.389
 2434SOL    HW2 7863   1.744   3.519  10.440
 2435SOL     OW 7864   1.242   3.595  10.427
 2435SOL    HW1 7865   1.323   3.614  10.381
 2435SOL    HW2 7866   1.244   3.501  10.444
 2436SOL     OW 7867   0.068   3.051  10.358
 2436SOL    HW1 7868   0.074   3.086  10.447
 2436SOL    HW2 7869   0.011   3.112  10.312
 2437SOL     OW 7870   1.719   2.004   9.823
 2437SOL    HW1 7871   1.791   1.989   9.762
 2437SOL    HW2 7872   1.703   1.918   9.862
 2438SOL     OW 7873   1.390   3.430   9.793
 2438SOL    HW1 7874   1.450   3.461   9.725
 2438SOL    HW2 7875   1.343   3.508   9.820
 2439SOL     OW 7876   1.277   2.786   9.981
 2439SOL    HW1 7877   1.350   2.725   9.986
 2439SOL    HW2 7878   1.311   2.860   9.929
 2440SOL     OW 7879   0.822   3.134  10.739
 2440SOL    HW1 7880   0.793   3.169  10.824
 2440SOL    HW2 7881   0.750   3.156  10.679
 2441SOL     OW 7882   0.673   3.478   9.465
 2441SOL    HW1 7883   0.681   3.489   9.370
 2441SOL    HW2 7884   0.619   3.400   9.476
 2442SOL     OW 7885   1.627   3.581  10.700
 2442SOL    HW1 7886   1.679   3.595  10.621
 2442SOL    HW2 7887   1.613   3.669  10.735
 2443SOL     OW 7888   1.842   2.044  10.279
 2443SOL    HW1 7889   1.878   1.959  10.252
 2443SOL    HW2 7890   1.757   2.048  10.237
 2444SOL     OW 7891   0.267   2.182  10.030
 2444SOL    HW1 7892   0.184   2.221  10.001
 2444SOL    HW2 7893   0.256   2.170  10.124
 2445SOL     OW 7894   1.206   3.470   9.341
 2445SOL    HW1 7895   1.198   3.379   9.369
 2445SOL    HW2 7896   1.141   3.480   9.271
 2446SOL     OW 7897   0.825   2.868  10.684
 2446SOL    HW1 7898   0.867   2.864  10.598
 2446SOL    HW2 7899   0.827   2.961  10.707
 2447SOL     OW 7900   0.915   2.773   9.599
 2447SOL    HW1 7901   0.977   2.804   9.533
 2447SOL    HW2 7902   0.962   2.701   9.643
 2448SOL     OW 7903   1.495   3.486   9.352
 2448SOL    HW1 7904   1.400   3.482   9.341
 2448SOL    HW2 7905   1.529   3.492   9.263
 2449SOL     OW 7906   0.369   3.169  10.805
 2449SOL    HW1 7907   0.356   3.245  10.748
 2449SOL    HW2 7908   0.296   3.111  10.785
 2450SOL     OW 7909   1.614   3.145  10.593
 2450SOL    HW1 7910   1.669   3.135  10.670
 2450SOL    HW2 7911   1.555   3.218  10.615
 2451SOL     OW 7912   1.048   2.967  10.015
 2451SOL    HW1 7913   0.978   2.916  10.055
 2451SOL    HW2 7914   1.109   2.902   9.980
 2452SOL     OW 7915   1.020   2.102  10.276
 2452SOL    HW1 7916   1.014   2.054  10.193
 2452SOL    HW2 7917   1.014   2.034  10.343
 2453SOL     OW 7918   0.603   3.352   9.793
 2453SOL    HW1 7919   0.641   3.301   9.722
 2453SOL    HW2 7920   0.532   3.402   9.753
 2454SOL     OW 7921   1.717   2.257  10.688
 2454SOL    HW1 7922   1.791   2.317  10.692
 2454SOL    HW2 7923   1.747   2.184  10.634
 2455SOL     OW 7924   0.252   3.207   9.588
 2455SOL    HW1 7925   0.158   3.208   9.573
 2455SOL    HW2 7926   0.262   3.240   9.677
 2456SOL     OW 7927   0.111   2.879  11.006
 2456SOL    HW1 7928   0.049   2.879  11.079
 2456SOL    HW2 7929   0.196   2.862  11.046
 2457SOL     OW 7930   0.672   2.059  10.804
 2457SOL    HW1 7931   0.754   2.038  10.758
 2457SOL    HW2 7932   0.700   2.090  10.890
 2458SOL     OW 7933   0.072   2.189   9.344
 2458SOL    HW1 7934   4.477   2.197   9.341
 2458SOL    HW2 7935   0.105   2.270   9.305
 2459SOL     OW 7936   1.431   2.711  10.710
 2459SOL    HW1 7937   1.384   2.778  10.660
 2459SOL    HW2 7938   1.522   2.721  10.682
 2460SOL     OW 7939   0.084   2.040   9.617
 2460SOL    HW1 7940   0.078   2.111   9.553
 2460SOL    HW2 7941   0.160   1.989   9.589
 2461SOL     OW 7942   1.180   3.204   9.427
 2461SOL    HW1 7943   1.089   3.174   9.430
 2461SOL    HW2 7944   1.208   3.203   9.518
 2462SOL     OW 7945   0.621   2.692  10.738
 2462SOL    HW1 7946   0.676   2.770  10.725
 2462SOL    HW2 7947   0.684   2.620  10.747
 2463SOL     OW 7948   1.485   3.636  10.285
 2463SOL    HW1 7949   1.512   3.694  10.213
 2463SOL    HW2 7950   1.565   3.621  10.335
 2464SOL     OW 7951   0.716   2.424  11.016
 2464SOL    HW1 7952   0.745   2.497  11.070
 2464SOL    HW2 7953   0.771   2.350  11.044
 2465SOL     OW 7954   0.384   3.598  10.870
 2465SOL    HW1 7955   0.306   3.653  10.865
 2465SOL    HW2 7956   0.359   3.525  10.927
 2466SOL     OW 7957   1.674   2.745  10.566
 2466SOL    HW1 7958   1.662   2.660  10.525
 2466SOL    HW2 7959   1.664   2.808  10.495
 2467SOL     OW 7960   1.219   2.182   9.767
 2467SOL    HW1 7961   1.282   2.111   9.758
 2467SOL    HW2 7962   1.247   2.230   9.845
 2468SOL     OW 7963   0.591   2.602   9.977
 2468SOL    HW1 7964   0.630   2.688   9.960
 2468SOL    HW2 7965   0.521   2.594   9.913
 2469SOL     OW 7966   1.754   2.180  10.954
 2469SOL    HW1 7967   1.740   2.217  10.867
 2469SOL    HW2 7968   1.671   2.196  11.000
 2470SOL     OW 7969   1.747   2.799  10.825
 2470SOL    HW1 7970   1.742   2.893  10.838
 2470SOL    HW2 7971   1.730   2.786  10.732
 2471SOL     OW 7972   0.864   3.231   9.340
 2471SOL    HW1 7973   0.823   3.256   9.423
 2471SOL    HW2 7974   0.882   3.313   9.296
 2472SOL     OW 7975   0.659   3.656  10.259
 2472SOL    HW1 7976   0.636   3.745  10.234
 2472SOL    HW2 7977   0.755   3.652  10.249
 2473SOL     OW 7978   0.866   2.827  10.166
 2473SOL    HW1 7979   0.916   2.756  10.206
 2473SOL    HW2 7980   0.833   2.878  10.240
 2474SOL     OW 7981   1.080   2.850   9.399
 2474SOL    HW1 7982   1.058   2.900   9.320
 2474SOL    HW2 7983   1.156   2.797   9.373
 2475SOL     OW 7984   1.857   3.418  10.155
 2475SOL    HW1 7985   1.779   3.407  10.100
 2475SOL    HW2 7986   1.847   3.351  10.223
 2476SOL     OW 7987   0.102   3.102   9.976
 2476SOL    HW1 7988   0.105   3.050  10.057
 2476SOL    HW2 7989   0.162   3.057   9.917
 2477SOL     OW 7990   0.678   3.256  10.935
 2477SOL    HW1 7991   0.605   3.206  10.970
 2477SOL    HW2 7992   0.650   3.347  10.941
 2478SOL     OW 7993   1.814   2.051  10.547
 2478SOL    HW1 7994   1.831   1.958  10.565
 2478SOL    HW2 7995   1.827   2.060  10.453
 2479SOL     OW 7996   0.435   2.295   9.835
 2479SOL    HW1 7997   0.458   2.221   9.778
 2479SOL    HW2 7998   0.384   2.255   9.906
 2480SOL     OW 7999   1.702   3.353  10.409
 2480SOL    HW1 8000   1.621   3.327  10.367
 2480SOL    HW2 8001   1.718   3.286  10.476
 2481SOL     OW 8002   0.304   2.353  10.568
 2481SOL    HW1 8003   0.375   2.313  10.618
 2481SOL    HW2 8004   0.339   2.364  10.480
 2482SOL     OW 8005   0.825   3.440   9.990
 2482SOL    HW1 8006   0.819   3.485   9.906
 2482SOL    HW2 8007   0.747   3.385   9.994
 2483SOL     OW 8008   1.432   2.085  10.428
 2483SOL    HW1 8009   1.464   2.009  10.475
 2483SOL    HW2 8010   1.380   2.133  10.493
 2484SOL     OW 8011   1.008   1.883  10.456
 2484SOL    HW1 8012   0.953   1.814  10.417
 2484SOL    HW2 8013   1.096   1.845  10.458
 2485SOL     OW 8014   0.771   3.194   9.620
 2485SOL    HW1 8015   0.737   3.105   9.627
 2485SOL    HW2 8016   0.854   3.192   9.668
 2486SOL     OW 8017   0.620   3.420  10.595
 2486SOL    HW1 8018   0.622   3.502  10.644
 2486SOL    HW2 8019   0.707   3.414  10.555
 2487SOL     OW 8020   1.352   1.915   9.474
 2487SOL    HW1 8021   1.378   1.857   9.403
 2487SOL    HW2 8022   1.266   1.884   9.501
 2488SOL     OW 8023   1.297   2.322   9.993
 2488SOL    HW1 8024   1.243   2.400  10.001
 2488SOL    HW2 8025   1.295   2.282  10.080
 2489SOL     OW 8026   1.587   2.066  10.186
 2489SOL    HW1 8027   1.524   2.084  10.255
 2489SOL    HW2 8028   1.587   2.145  10.132
 2490SOL     OW 8029   0.041   2.916   9.597
 2490SOL    HW1 8030   0.136   2.905   9.590
 2490SOL    HW2 8031   0.018   2.875   9.680
 2491SOL     OW 8032   0.881   3.512   9.655
 2491SOL    HW1 8033   0.810   3.493   9.593
 2491SOL    HW2 8034   0.851   3.588   9.704
 2492SOL     OW 8035   0.209   4.283   0.084
 2492SOL    HW1 8036   0.160   4.317   0.159
 2492SOL    HW2 8037   0.227   4.360   0.030
 2493SOL     OW 8038   0.210   3.998   0.992
 2493SOL    HW1 8039   0.247   3.970   1.075
 2493SOL    HW2 8040   0.135   3.940   0.978
 2494SOL     OW 8041   0.001   4.099   0.629
 2494SOL    HW1 8042   4.423   4.127   0.677
 2494SOL    HW2 8043   4.477   4.014   0.592
 2495SOL     OW 8044   1.734   4.333   0.229
 2495SOL    HW1 8045   1.748   4.306   0.138
 2495SOL    HW2 8046   1.729   4.251   0.277
 2496SOL     OW 8047   0.729   0.266   0.681
 2496SOL    HW1 8048   0.724   0.205   0.754
 2496SOL    HW2 8049   0.637   0.287   0.661
 2497SOL     OW 8050   0.442   4.120   1.489
 2497SOL    HW1 8051   0.523   4.070   1.493
 2497SOL    HW2 8052   0.373   4.055   1.500
 2498SOL     OW 8053   1.615   4.173   0.739
 2498SOL    HW1 8054   1.544   4.200   0.681
 2498SOL    HW2 8055   1.624   4.246   0.801
 2499SOL     OW 8056   1.597   3.845   1.470
 2499SOL    HW1 8057   1.593   3.924   1.416
 2499SOL    HW2 8058   1.585   3.876   1.560
 2500SOL     OW 8059   0.167   4.320   0.631
 2500SOL    HW1 8060   0.104   4.251   0.611
 2500SOL    HW2 8061   0.120   4.401   0.610
 2501SOL     OW 8062   0.116   4.497   1.590
 2501SOL    HW1 8063   0.210   4.482   1.594
 2501SOL    HW2 8064   0.107   0.082   1.545
 2502SOL     OW 8065   0.813   3.724   0.505
 2502SOL    HW1 8066   0.852   3.810   0.491
 2502SOL    HW2 8067   0.720   3.741   0.516
 2503SOL     OW 8068   0.329   3.979   1.796
 2503SOL    HW1 8069   0.377   4.056   1.826
 2503SOL    HW2 8070   0.241   3.989   1.834
 2504SOL     OW 8071   1.278   4.070   0.932
 2504SOL    HW1 8072   1.189   4.036   0.941
 2504SOL    HW2 8073   1.330   4.019   0.995
 2505SOL     OW 8074   0.823   4.309   1.451
 2505SOL    HW1 8075   0.782   4.314   1.537
 2505SOL    HW2 8076   0.757   4.268   1.395
 2506SOL     OW 8077   1.396   4.199   1.677
 2506SOL    HW1 8078   1.395   4.242   1.762
 2506SOL    HW2 8079   1.456   4.125   1.687
 2507SOL     OW 8080   0.996   4.147   1.234
 2507SOL    HW1 8081   0.922   4.167   1.292
 2507SOL    HW2 8082   0.960   4.088   1.168
 2508SOL     OW 8083   1.059   4.403   0.424
 2508SOL    HW1 8084   1.058   4.450   0.507
 2508SOL    HW2 8085   0.967   4.384   0.406
 2509SOL     OW 8086   0.054   0.041   0.835
 2509SOL    HW1 8087   0.147   0.025   0.848
 2509SOL    HW2 8088   0.051   0.117   0.776
 2510SOL     OW 8089   0.883   4.072   0.208
 2510SOL    HW1 8090   0.931   4.129   0.147
 2510SOL    HW2 8091   0.898   3.984   0.175
 2511SOL     OW 8092   1.706   4.298   1.828
 2511SOL    HW1 8093   1.715   4.387   1.795
 2511SOL    HW2 8094   1.729   4.242   1.754
 2512SOL     OW 8095   0.552   3.907   0.892
 2512SOL    HW1 8096   0.553   3.936   0.984
 2512SOL    HW2 8097   0.548   3.989   0.842
 2513SOL     OW 8098   1.486   4.460   0.736
 2513SOL    HW1 8099   1.466   4.407   0.814
 2513SOL    HW2 8100   1.528   0.039   0.771
 2514SOL     OW 8101   0.190   4.000   1.487
 2514SOL    HW1 8102   0.134   4.078   1.494
 2514SOL    HW2 8103   0.185   3.959   1.573
 2515SOL     OW 8104   1.401   3.831   0.429
 2515SOL    HW1 8105   1.391   3.808   0.337
 2515SOL    HW2 8106   1.496   3.840   0.442
 2516SOL     OW 8107   0.351   4.376   0.407
 2516SOL    HW1 8108   0.399   4.305   0.451
 2516SOL    HW2 8109   0.298   4.415   0.476
 2517SOL     OW 8110   1.538   3.950   1.725
 2517SOL    HW1 8111   1.545   3.972   1.818
 2517SOL    HW2 8112   1.470   3.882   1.722
 2518SOL     OW 8113   0.615   3.834   0.122
 2518SOL    HW1 8114   0.705   3.802   0.122
 2518SOL    HW2 8115   0.582   3.815   0.034
 2519SOL     OW 8116   0.768   4.001   1.753
 2519SOL    HW1 8117   0.841   3.939   1.759
 2519SOL    HW2 8118   0.716   3.983   1.832
 2520SOL     OW 8119   1.345   4.311   1.429
 2520SOL    HW1 8120   1.368   4.274   1.514
 2520SOL    HW2 8121   1.382   4.399   1.430
 2521SOL     OW 8122   0.922   4.236   0.900
 2521SOL    HW1 8123   0.900   4.220   0.808
 2521SOL    HW2 8124   0.962   4.154   0.930
 2522SOL     OW 8125   0.551   3.786   0.506
 2522SOL    HW1 8126   0.469   3.784   0.555
 2522SOL    HW2 8127   0.544   3.864   0.451
 2523SOL     OW 8128   0.285   3.772   0.192
 2523SOL    HW1 8129   0.334   3.825   0.129
 2523SOL    HW2 8130   0.348   3.707   0.223
 2524SOL     OW 8131   0.937   3.970   0.466
 2524SOL    HW1 8132   0.908   4.011   0.384
 2524SOL    HW2 8133   1.032   3.982   0.467
 2525SOL     OW 8134   1.078   4.396   1.511
 2525SOL    HW1 8135   0.994   4.364   1.478
 2525SOL    HW2 8136   1.143   4.352   1.457
 2526SOL     OW 8137   1.009   4.266   0.039
 2526SOL    HW1 8138   1.015   4.330  11.069
 2526SOL    HW2 8139   1.090   4.277   0.089
 2527SOL     OW 8140   0.086   4.260   1.409
 2527SOL    HW1 8141   0.158   4.272   1.348
 2527SOL    HW2 8142   0.055   4.348   1.429
 2528SOL     OW 8143   0.562   3.951   1.164
 2528SOL    HW1 8144   0.600   3.869   1.196
 2528SOL    HW2 8145   0.470   3.947   1.192
 2529SOL     OW 8146   0.870   4.188   0.640
 2529SOL    HW1 8147   0.835   4.248   0.574
 2529SOL    HW2 8148   0.887   4.107   0.591
 2530SOL     OW 8149   1.014   3.777   0.754
 2530SOL    HW1 8150   0.955   3.768   0.678
 2530SOL    HW2 8151   0.994   3.701   0.808
 2531SOL     OW 8152   1.476   4.313   0.971
 2531SOL    HW1 8153   1.422   4.236   0.990
 2531SOL    HW2 8154   1.529   4.326   1.050
 2532SOL     OW 8155   1.399   4.295   0.072
 2532SOL    HW1 8156   1.335   4.277   0.142
 2532SOL    HW2 8157   1.470   4.233   0.089
 2533SOL     OW 8158   0.527   3.988   0.326
 2533SOL    HW1 8159   0.553   3.929   0.256
 2533SOL    HW2 8160   0.513   4.072   0.282
 2534SOL     OW 8161   0.917   3.823   1.399
 2534SOL    HW1 8162   0.941   3.802   1.308
 2534SOL    HW2 8163   0.997   3.861   1.436
 2535SOL     OW 8164   0.438   0.004   1.257
 2535SOL    HW1 8165   0.495   0.008   1.334
 2535SOL    HW2 8166   0.399   4.417   1.260
 2536SOL     OW 8167   1.267   4.101   1.273
 2536SOL    HW1 8168   1.300   4.178   1.318
 2536SOL    HW2 8169   1.178   4.125   1.246
 2537SOL     OW 8170   0.557   4.256   0.864
 2537SOL    HW1 8171   0.578   4.302   0.783
 2537SOL    HW2 8172   0.621   4.290   0.927
 2538SOL     OW 8173   1.582   4.343   0.479
 2538SOL    HW1 8174   1.536   4.407   0.533
 2538SOL    HW2 8175   1.625   4.395   0.411
 2539SOL     OW 8176   0.996   3.842   1.757
 2539SOL    HW1 8177   1.048   3.915   1.724
 2539SOL    HW2 8178   1.046   3.764   1.731
 2540SOL     OW 8179   0.498   3.768   1.746
 2540SOL    HW1 8180   0.458   3.712   1.680
 2540SOL    HW2 8181   0.437   3.841   1.756
 2541SOL     OW 8182   1.213   4.252   0.267
 2541SOL    HW1 8183   1.222   4.173   0.320
 2541SOL    HW2 8184   1.163   4.312   0.323
 2542SOL     OW 8185   0.301   3.924   1.244
 2542SOL    HW1 8186   0.263   3.953   1.327
 2542SOL    HW2 8187   0.286   3.830   1.242
 2543SOL     OW 8188   0.732   4.360   1.050
 2543SOL    HW1 8189   0.804   4.324   0.998
 2543SOL    HW2 8190   0.735   4.454   1.034
 2544SOL     OW 8191   1.749   0.136   1.857
 2544SOL    HW1 8192   1.688   0.149   1.784
 2544SOL    HW2 8193   1.702   0.168   1.933
 2545SOL     OW 8194   0.309   3.794   0.620
 2545SOL    HW1 8195   0.286   3.883   0.649
 2545SOL    HW2 8196   0.302   3.741   0.699
 2546SOL     OW 8197   1.612   4.092   0.370
 2546SOL    HW1 8198   1.641   4.029   0.436
 2546SOL    HW2 8199   1.591   4.171   0.418
 2547SOL     OW 8200   1.537   4.009   0.118
 2547SOL    HW1 8201   1.476   3.937   0.135
 2547SOL    HW2 8202   1.567   4.035   0.205
 2548SOL     OW 8203   0.317   0.019   0.924
 2548SOL    HW1 8204   0.400   0.065   0.929
 2548SOL    HW2 8205   0.329   4.440   0.976
 2549SOL     OW 8206   0.336   4.237   1.011
 2549SOL    HW1 8207   0.292   4.156   0.987
 2549SOL    HW2 8208   0.410   4.243   0.950
 2550SOL     OW 8209   1.138   4.097   1.683
 2550SOL    HW1 8210   1.087   4.155   1.739
 2550SOL    HW2 8211   1.223   4.139   1.674
 2551SOL     OW 8212   1.160   3.928   1.469
 2551SOL    HW1 8213   1.151   3.989   1.542
 2551SOL    HW2 8214   1.198   3.980   1.398
 2552SOL     OW 8215   0.029   4.281   1.109
 2552SOL    HW1 8216   0.112   4.253   1.070
 2552SOL    HW2 8217   0.031   4.246   1.198
 2553SOL     OW 8218   0.177   4.235   1.697
 2553SOL    HW1 8219   0.262   4.216   1.657
 2553SOL    HW2 8220   0.148   4.315   1.653
 2554SOL     OW 8221   0.815   4.307   0.328
 2554SOL    HW1 8222   0.823   4.221   0.287
 2554SOL    HW2 8223   0.721   4.318   0.340
 2555SOL     OW 8224   1.639   4.320   1.190
 2555SOL    HW1 8225   1.632   4.260   1.265
 2555SOL    HW2 8226   1.726   4.304   1.155
 2556SOL     OW 8227   0.676   4.186   1.261
 2556SOL    HW1 8228   0.639   4.104   1.227
 2556SOL    HW2 8229   0.685   4.242   1.184
 2557SOL     OW 8230   0.477   4.218   0.185
 2557SOL    HW1 8231   0.521   4.303   0.197
 2557SOL    HW2 8232   0.384   4.239   0.188
 2558SOL     OW 8233   0.917   3.814   0.111
 2558SOL    HW1 8234   0.968   3.780   0.038
 2558SOL    HW2 8235   0.952   3.771   0.189
 2559SOL     OW 8236   1.719   3.866   0.513
 2559SOL    HW1 8237   1.792   3.853   0.452
 2559SOL    HW2 8238   1.704   3.780   0.552
 2560SOL     OW 8239   1.279   0.139   0.682
 2560SOL    HW1 8240   1.336   0.062   0.685
 2560SOL    HW2 8241   1.327   0.201   0.627
 2561SOL     OW 8242   1.839   3.897   0.968
 2561SOL    HW1 8243   1.868   3.811   0.938
 2561SOL    HW2 8244   1.753   3.909   0.927
 2562SOL     OW 8245   0.268   4.042   0.721
 2562SOL    HW1 8246   0.192   4.092   0.691
 2562SOL    HW2 8247   0.254   4.031   0.815
 2563SOL     OW 8248   1.063   0.306   0.723
 2563SOL    HW1 8249   0.977   0.269   0.700
 2563SOL    HW2 8250   1.125   0.239   0.696
 2564SOL     OW 8251   1.019   3.964   0.965
 2564SOL    HW1 8252   1.013   3.915   0.883
 2564SOL    HW2 8253   1.014   3.896   1.033
 2565SOL     OW 8254   1.719   4.114   1.380
 2565SOL    HW1 8255   1.790   4.178   1.377
 2565SOL    HW2 8256   1.749   4.043   1.324
 2566SOL     OW 8257   0.672   3.922   1.498
 2566SOL    HW1 8258   0.756   3.902   1.456
 2566SOL    HW2 8259   0.696   3.949   1.587
 2567SOL     OW 8260   0.060   4.060   0.003
 2567SOL    HW1 8261   4.468   4.069   0.029
 2567SOL    HW2 8262   0.098   4.146   0.021
 2568SOL     OW 8263   0.081   3.899   0.310
 2568SOL    HW1 8264   0.079   3.973   0.249
 2568SOL    HW2 8265   0.155   3.846   0.280
 2569SOL     OW 8266   0.723   4.286   1.703
 2569SOL    HW1 8267   0.731   4.336   1.784
 2569SOL    HW2 8268   0.754   4.199   1.725
 2570SOL     OW 8269   1.218   4.041   0.456
 2570SOL    HW1 8270   1.283   3.971   0.446
 2570SOL    HW2 8271   1.247   4.089   0.533
 2571SOL     OW 8272   1.763   4.088   1.647
 2571SOL    HW1 8273   1.745   4.097   1.554
 2571SOL    HW2 8274   1.694   4.029   1.679
 2572SOL     OW 8275   1.098   0.203   0.051
 2572SOL    HW1 8276   1.097   0.287   0.006
 2572SOL    HW2 8277   1.191   0.177   0.050
 2573SOL     OW 8278   1.815   3.909   1.238
 2573SOL    HW1 8279   1.824   3.816   1.254
 2573SOL    HW2 8280   1.823   3.918   1.143
 2574SOL     OW 8281   0.449   4.152   0.536
 2574SOL    HW1 8282   0.465   4.079   0.477
 2574SOL    HW2 8283   0.390   4.117   0.603
 2575SOL     OW 8284   0.322   4.258   1.276
 2575SOL    HW1 8285   0.374   4.192   1.321
 2575SOL    HW2 8286   0.336   4.241   1.183
 2576SOL     OW 8287   1.432   3.947   1.118
 2576SOL    HW1 8288   1.460   3.869   1.165
 2576SOL    HW2 8289   1.380   3.996   1.181
 2577SOL     OW 8290   1.008   3.745   1.146
 2577SOL    HW1 8291   0.953   3.676   1.108
 2577SOL    HW2 8292   1.096   3.707   1.147
 2578SOL     OW 8293   1.351   3.777   0.164
 2578SOL    HW1 8294   1.374   3.728   0.085
 2578SOL    HW2 8295   1.265   3.744   0.189
 2579SOL     OW 8296   1.300   4.176   0.682
 2579SOL    HW1 8297   1.256   4.260   0.695
 2579SOL    HW2 8298   1.300   4.136   0.769
 2580SOL     OW 8299   1.588   3.930   0.877
 2580SOL    HW1 8300   1.523   3.948   0.945
 2580SOL    HW2 8301   1.588   4.009   0.822
 2581SOL     OW 8302   0.233   4.287   1.973
 2581SOL    HW1 8303   0.166   4.323   2.030
 2581SOL    HW2 8304   0.214   4.325   1.887
 2582SOL     OW 8305   0.211   3.998   2.853
 2582SOL    HW1 8306   0.247   3.970   2.938
 2582SOL    HW2 8307   0.134   3.941   2.841
 2583SOL     OW 8308   0.001   4.097   2.494
 2583SOL    HW1 8309   4.423   4.129   2.538
 2583SOL    HW2 8310   4.473   4.016   2.451
 2584SOL     OW 8311   1.735   4.335   2.099
 2584SOL    HW1 8312   1.734   4.321   2.004
 2584SOL    HW2 8313   1.733   4.247   2.136
 2585SOL     OW 8314   0.724   0.265   2.542
 2585SOL    HW1 8315   0.723   0.209   2.619
 2585SOL    HW2 8316   0.632   0.287   2.526
 2586SOL     OW 8317   0.442   4.120   3.351
 2586SOL    HW1 8318   0.523   4.069   3.355
 2586SOL    HW2 8319   0.373   4.055   3.362
 2587SOL     OW 8320   1.615   4.174   2.600
 2587SOL    HW1 8321   1.543   4.200   2.544
 2587SOL    HW2 8322   1.624   4.245   2.664
 2588SOL     OW 8323   1.597   3.845   3.332
 2588SOL    HW1 8324   1.593   3.924   3.278
 2588SOL    HW2 8325   1.585   3.876   3.422
 2589SOL     OW 8326   0.166   4.323   2.494
 2589SOL    HW1 8327   0.106   4.252   2.469
 2589SOL    HW2 8328   0.120   4.403   2.470
 2590SOL     OW 8329   0.116   4.497   3.452
 2590SOL    HW1 8330   0.210   4.483   3.456
 2590SOL    HW2 8331   0.107   0.081   3.407
 2591SOL     OW 8332   0.813   3.723   2.367
 2591SOL    HW1 8333   0.852   3.809   2.353
 2591SOL    HW2 8334   0.719   3.741   2.379
 2592SOL     OW 8335   0.329   3.979   3.658
 2592SOL    HW1 8336   0.377   4.056   3.688
 2592SOL    HW2 8337   0.241   3.990   3.696
 2593SOL     OW 8338   1.278   4.070   2.794
 2593SOL    HW1 8339   1.189   4.036   2.803
 2593SOL    HW2 8340   1.330   4.019   2.857
 2594SOL     OW 8341   0.823   4.309   3.313
 2594SOL    HW1 8342   0.782   4.314   3.399
 2594SOL    HW2 8343   0.757   4.268   3.257
 2595SOL     OW 8344   1.396   4.199   3.538
 2595SOL    HW1 8345   1.395   4.242   3.624
 2595SOL    HW2 8346   1.456   4.126   3.549
 2596SOL     OW 8347   0.996   4.147   3.096
 2596SOL    HW1 8348   0.922   4.167   3.154
 2596SOL    HW2 8349   0.959   4.088   3.030
 2597SOL     OW 8350   1.057   4.410   2.282
 2597SOL    HW1 8351   1.057   4.443   2.372
 2597SOL    HW2 8352   0.968   4.375   2.270
 2598SOL     OW 8353   0.054   0.047   2.704
 2598SOL    HW1 8354   0.147   0.025   2.710
 2598SOL    HW2 8355   0.049   0.112   2.633
 2599SOL     OW 8356   0.885   4.063   2.054
 2599SOL    HW1 8357   0.930   4.125   1.996
 2599SOL    HW2 8358   0.905   3.977   2.016
 2600SOL     OW 8359   1.705   4.298   3.690
 2600SOL    HW1 8360   1.715   4.388   3.658
 2600SOL    HW2 8361   1.729   4.243   3.616
 2601SOL     OW 8362   0.551   3.907   2.754
 2601SOL    HW1 8363   0.553   3.936   2.845
 2601SOL    HW2 8364   0.548   3.989   2.704
 2602SOL     OW 8365   1.488   4.461   2.598
 2602SOL    HW1 8366   1.467   4.408   2.674
 2602SOL    HW2 8367   1.529   0.040   2.634
 2603SOL     OW 8368   0.190   4.000   3.349
 2603SOL    HW1 8369   0.135   4.078   3.356
 2603SOL    HW2 8370   0.185   3.960   3.436
 2604SOL     OW 8371   1.401   3.831   2.292
 2604SOL    HW1 8372   1.389   3.806   2.200
 2604SOL    HW2 8373   1.495   3.840   2.303
 2605SOL     OW 8374   0.352   4.378   2.271
 2605SOL    HW1 8375   0.399   4.306   2.314
 2605SOL    HW2 8376   0.297   4.415   2.340
 2606SOL     OW 8377   1.538   3.950   3.587
 2606SOL    HW1 8378   1.545   3.972   3.680
 2606SOL    HW2 8379   1.470   3.883   3.584
 2607SOL     OW 8380   0.631   3.851   1.966
 2607SOL    HW1 8381   0.703   3.790   1.981
 2607SOL    HW2 8382   0.585   3.816   1.890
 2608SOL     OW 8383   0.768   4.001   3.615
 2608SOL    HW1 8384   0.841   3.939   3.621
 2608SOL    HW2 8385   0.716   3.984   3.694
 2609SOL     OW 8386   1.346   4.311   3.290
 2609SOL    HW1 8387   1.368   4.274   3.376
 2609SOL    HW2 8388   1.382   4.399   3.292
 2610SOL     OW 8389   0.922   4.236   2.762
 2610SOL    HW1 8390   0.900   4.220   2.670
 2610SOL    HW2 8391   0.961   4.154   2.792
 2611SOL     OW 8392   0.550   3.786   2.367
 2611SOL    HW1 8393   0.469   3.785   2.418
 2611SOL    HW2 8394   0.543   3.865   2.312
 2612SOL     OW 8395   0.294   3.770   2.041
 2612SOL    HW1 8396   0.355   3.838   2.012
 2612SOL    HW2 8397   0.349   3.704   2.084
 2613SOL     OW 8398   0.935   3.970   2.327
 2613SOL    HW1 8399   0.907   4.009   2.244
 2613SOL    HW2 8400   1.031   3.980   2.327
 2614SOL     OW 8401   1.078   4.395   3.374
 2614SOL    HW1 8402   0.994   4.365   3.340
 2614SOL    HW2 8403   1.143   4.352   3.319
 2615SOL     OW 8404   1.026   4.269   1.885
 2615SOL    HW1 8405   1.006   4.357   1.852
 2615SOL    HW2 8406   1.088   4.284   1.956
 2616SOL     OW 8407   0.086   4.259   3.272
 2616SOL    HW1 8408   0.158   4.272   3.210
 2616SOL    HW2 8409   0.054   4.348   3.291
 2617SOL     OW 8410   0.562   3.950   3.026
 2617SOL    HW1 8411   0.600   3.869   3.059
 2617SOL    HW2 8412   0.470   3.947   3.054
 2618SOL     OW 8413   0.872   4.189   2.500
 2618SOL    HW1 8414   0.832   4.246   2.435
 2618SOL    HW2 8415   0.888   4.107   2.454
 2619SOL     OW 8416   1.014   3.777   2.615
 2619SOL    HW1 8417   0.955   3.768   2.540
 2619SOL    HW2 8418   0.994   3.701   2.670
 2620SOL     OW 8419   1.477   4.312   2.832
 2620SOL    HW1 8420   1.422   4.237   2.852
 2620SOL    HW2 8421   1.529   4.326   2.911
 2621SOL     OW 8422   1.400   4.296   1.934
 2621SOL    HW1 8423   1.339   4.270   2.003
 2621SOL    HW2 8424   1.483   4.255   1.960
 2622SOL     OW 8425   0.523   3.984   2.181
 2622SOL    HW1 8426   0.565   3.936   2.110
 2622SOL    HW2 8427   0.511   4.073   2.145
 2623SOL     OW 8428   0.917   3.823   3.261
 2623SOL    HW1 8429   0.941   3.802   3.170
 2623SOL    HW2 8430   0.997   3.861   3.298
 2624SOL     OW 8431   0.438   0.004   3.119
 2624SOL    HW1 8432   0.495   0.008   3.196
 2624SOL    HW2 8433   0.399   4.417   3.122
 2625SOL     OW 8434   1.267   4.101   3.134
 2625SOL    HW1 8435   1.300   4.178   3.180
 2625SOL    HW2 8436   1.178   4.125   3.108
 2626SOL     OW 8437   0.558   4.255   2.726
 2626SOL    HW1 8438   0.576   4.303   2.645
 2626SOL    HW2 8439   0.621   4.290   2.789
 2627SOL     OW 8440   1.573   4.342   2.337
 2627SOL    HW1 8441   1.540   4.408   2.399
 2627SOL    HW2 8442   1.630   4.391   2.278
 2628SOL     OW 8443   0.996   3.842   3.619
 2628SOL    HW1 8444   1.048   3.915   3.587
 2628SOL    HW2 8445   1.046   3.764   3.592
 2629SOL     OW 8446   0.498   3.768   3.608
 2629SOL    HW1 8447   0.458   3.712   3.542
 2629SOL    HW2 8448   0.437   3.841   3.618
 2630SOL     OW 8449   1.212   4.255   2.129
 2630SOL    HW1 8450   1.221   4.176   2.181
 2630SOL    HW2 8451   1.162   4.315   2.185
 2631SOL     OW 8452   0.301   3.924   3.106
 2631SOL    HW1 8453   0.262   3.953   3.189
 2631SOL    HW2 8454   0.286   3.830   3.104
 2632SOL     OW 8455   0.732   4.360   2.912
 2632SOL    HW1 8456   0.804   4.325   2.860
 2632SOL    HW2 8457   0.734   4.454   2.896
 2633SOL     OW 8458   1.749   0.135   3.719
 2633SOL    HW1 8459   1.688   0.149   3.646
 2633SOL    HW2 8460   1.702   0.167   3.795
 2634SOL     OW 8461   0.308   3.794   2.481
 2634SOL    HW1 8462   0.285   3.882   2.510
 2634SOL    HW2 8463   0.303   3.741   2.561
 2635SOL     OW 8464   1.612   4.091   2.232
 2635SOL    HW1 8465   1.640   4.030   2.300
 2635SOL    HW2 8466   1.590   4.171   2.279
 2636SOL     OW 8467   1.529   3.999   1.989
 2636SOL    HW1 8468   1.467   3.931   2.015
 2636SOL    HW2 8469   1.563   4.034   2.071
 2637SOL     OW 8470   0.318   0.018   2.786
 2637SOL    HW1 8471   0.401   0.065   2.791
 2637SOL    HW2 8472   0.331   4.440   2.839
 2638SOL     OW 8473   0.337   4.237   2.873
 2638SOL    HW1 8474   0.292   4.156   2.849
 2638SOL    HW2 8475   0.410   4.243   2.812
 2639SOL     OW 8476   1.138   4.096   3.545
 2639SOL    HW1 8477   1.087   4.155   3.601
 2639SOL    HW2 8478   1.223   4.139   3.536
 2640SOL     OW 8479   1.160   3.928   3.331
 2640SOL    HW1 8480   1.151   3.989   3.404
 2640SOL    HW2 8481   1.198   3.980   3.260
 2641SOL     OW 8482   0.028   4.280   2.971
 2641SOL    HW1 8483   0.112   4.254   2.932
 2641SOL    HW2 8484   0.032   4.245   3.060
 2642SOL     OW 8485   0.177   4.235   3.559
 2642SOL    HW1 8486   0.263   4.217   3.519
 2642SOL    HW2 8487   0.148   4.315   3.515
 2643SOL     OW 8488   0.819   4.288   2.201
 2643SOL    HW1 8489   0.817   4.209   2.147
 2643SOL    HW2 8490   0.730   4.321   2.200
 2644SOL     OW 8491   1.638   4.319   3.052
 2644SOL    HW1 8492   1.632   4.260   3.127
 2644SOL    HW2 8493   1.726   4.304   3.016
 2645SOL     OW 8494   0.676   4.185   3.123
 2645SOL    HW1 8495   0.639   4.104   3.088
 2645SOL    HW2 8496   0.685   4.242   3.046
 2646SOL     OW 8497   0.486   4.222   2.053
 2646SOL    HW1 8498   0.520   4.309   2.073
 2646SOL    HW2 8499   0.392   4.236   2.040
 2647SOL     OW 8500   1.719   3.866   2.375
 2647SOL    HW1 8501   1.792   3.852   2.315
 2647SOL    HW2 8502   1.703   3.780   2.414
 2648SOL     OW 8503   1.280   0.138   2.541
 2648SOL    HW1 8504   1.338   0.062   2.546
 2648SOL    HW2 8505   1.329   0.203   2.491
 2649SOL     OW 8506   1.839   3.897   2.830
 2649SOL    HW1 8507   1.868   3.811   2.800
 2649SOL    HW2 8508   1.753   3.909   2.790
 2650SOL     OW 8509   0.268   4.042   2.583
 2650SOL    HW1 8510   0.191   4.090   2.553
 2650SOL    HW2 8511   0.255   4.031   2.677
 2651SOL     OW 8512   0.911   0.094   2.089
 2651SOL    HW1 8513   0.992   0.135   2.061
 2651SOL    HW2 8514   0.933   0.050   2.171
 2652SOL     OW 8515   1.067   0.305   2.599
 2652SOL    HW1 8516   0.983   0.286   2.558
 2652SOL    HW2 8517   1.127   0.240   2.562
 2653SOL     OW 8518   1.019   3.964   2.827
 2653SOL    HW1 8519   1.013   3.915   2.745
 2653SOL    HW2 8520   1.014   3.896   2.895
 2654SOL     OW 8521   1.719   4.114   3.242
 2654SOL    HW1 8522   1.790   4.178   3.239
 2654SOL    HW2 8523   1.749   4.043   3.186
 2655SOL     OW 8524   0.672   3.922   3.360
 2655SOL    HW1 8525   0.756   3.902   3.318
 2655SOL    HW2 8526   0.696   3.949   3.449
 2656SOL     OW 8527   0.068   4.046   1.893
 2656SOL    HW1 8528   4.474   4.061   1.886
 2656SOL    HW2 8529   0.108   4.131   1.876
 2657SOL     OW 8530   0.085   3.903   2.170
 2657SOL    HW1 8531   0.076   3.971   2.104
 2657SOL    HW2 8532   0.160   3.851   2.141
 2658SOL     OW 8533   0.723   4.286   3.565
 2658SOL    HW1 8534   0.731   4.336   3.646
 2658SOL    HW2 8535   0.754   4.199   3.587
 2659SOL     OW 8536   1.220   4.043   2.317
 2659SOL    HW1 8537   1.283   3.972   2.307
 2659SOL    HW2 8538   1.248   4.090   2.395
 2660SOL     OW 8539   1.763   4.087   3.509
 2660SOL    HW1 8540   1.745   4.097   3.416
 2660SOL    HW2 8541   1.694   4.029   3.541
 2661SOL     OW 8542   1.109   0.230   1.967
 2661SOL    HW1 8543   1.088   0.269   1.882
 2661SOL    HW2 8544   1.188   0.178   1.949
 2662SOL     OW 8545   1.815   3.909   3.100
 2662SOL    HW1 8546   1.824   3.815   3.116
 2662SOL    HW2 8547   1.823   3.918   3.005
 2663SOL     OW 8548   0.451   4.151   2.399
 2663SOL    HW1 8549   0.461   4.079   2.337
 2663SOL    HW2 8550   0.390   4.118   2.465
 2664SOL     OW 8551   0.322   4.258   3.138
 2664SOL    HW1 8552   0.374   4.192   3.183
 2664SOL    HW2 8553   0.336   4.241   3.045
 2665SOL     OW 8554   1.432   3.947   2.980
 2665SOL    HW1 8555   1.460   3.869   3.028
 2665SOL    HW2 8556   1.380   3.996   3.043
 2666SOL     OW 8557   1.008   3.745   3.008
 2666SOL    HW1 8558   0.953   3.677   2.970
 2666SOL    HW2 8559   1.096   3.707   3.009
 2667SOL     OW 8560   1.352   3.777   2.025
 2667SOL    HW1 8561   1.378   3.718   1.955
 2667SOL    HW2 8562   1.266   3.746   2.053
 2668SOL     OW 8563   1.300   4.176   2.545
 2668SOL    HW1 8564   1.256   4.261   2.559
 2668SOL    HW2 8565   1.300   4.135   2.631
 2669SOL     OW 8566   1.588   3.930   2.739
 2669SOL    HW1 8567   1.523   3.948   2.807
 2669SOL    HW2 8568   1.588   4.009   2.684
 2670SOL     OW 8569   0.233   4.287   3.835
 2670SOL    HW1 8570   0.166   4.323   3.892
 2670SOL    HW2 8571   0.214   4.325   3.749
 2671SOL     OW 8572   0.211   3.997   4.715
 2671SOL    HW1 8573   0.247   3.970   4.800
 2671SOL    HW2 8574   0.134   3.941   4.703
 2672SOL     OW 8575   0.001   4.097   4.356
 2672SOL    HW1 8576   4.423   4.129   4.401
 2672SOL    HW2 8577   4.473   4.016   4.313
 2673SOL     OW 8578   1.734   4.335   3.961
 2673SOL    HW1 8579   1.734   4.321   3.866
 2673SOL    HW2 8580   1.733   4.247   3.998
 2674SOL     OW 8581   0.724   0.264   4.404
 2674SOL    HW1 8582   0.722   0.209   4.482
 2674SOL    HW2 8583   0.633   0.287   4.388
 2675SOL     OW 8584   0.442   4.120   5.213
 2675SOL    HW1 8585   0.523   4.069   5.217
 2675SOL    HW2 8586   0.373   4.055   5.224
 2676SOL     OW 8587   1.615   4.173   4.462
 2676SOL    HW1 8588   1.543   4.200   4.406
 2676SOL    HW2 8589   1.624   4.245   4.526
 2677SOL     OW 8590   1.597   3.845   5.194
 2677SOL    HW1 8591   1.593   3.924   5.140
 2677SOL    HW2 8592   1.585   3.876   5.284
 2678SOL     OW 8593   0.166   4.323   4.356
 2678SOL    HW1 8594   0.106   4.252   4.331
 2678SOL    HW2 8595   0.120   4.403   4.332
 2679SOL     OW 8596   0.116   4.497   5.314
 2679SOL    HW1 8597   0.210   4.483   5.318
 2679SOL    HW2 8598   0.106   0.081   5.269
 2680SOL     OW 8599   0.813   3.723   4.230
 2680SOL    HW1 8600   0.852   3.808   4.215
 2680SOL    HW2 8601   0.719   3.741   4.241
 2681SOL     OW 8602   0.329   3.979   5.520
 2681SOL    HW1 8603   0.377   4.056   5.550
 2681SOL    HW2 8604   0.241   3.989   5.557
 2682SOL     OW 8605   1.278   4.069   4.656
 2682SOL    HW1 8606   1.189   4.036   4.665
 2682SOL    HW2 8607   1.330   4.019   4.719
 2683SOL     OW 8608   0.823   4.309   5.175
 2683SOL    HW1 8609   0.782   4.314   5.261
 2683SOL    HW2 8610   0.757   4.268   5.119
 2684SOL     OW 8611   1.396   4.199   5.400
 2684SOL    HW1 8612   1.395   4.242   5.486
 2684SOL    HW2 8613   1.456   4.126   5.411
 2685SOL     OW 8614   0.996   4.147   4.959
 2685SOL    HW1 8615   0.922   4.167   5.016
 2685SOL    HW2 8616   0.959   4.088   4.892
 2686SOL     OW 8617   1.057   4.409   4.144
 2686SOL    HW1 8618   1.057   4.444   4.234
 2686SOL    HW2 8619   0.968   4.375   4.132
 2687SOL     OW 8620   0.054   0.047   4.566
 2687SOL    HW1 8621   0.147   0.025   4.572
 2687SOL    HW2 8622   0.049   0.112   4.495
 2688SOL     OW 8623   0.885   4.063   3.915
 2688SOL    HW1 8624   0.930   4.125   3.858
 2688SOL    HW2 8625   0.905   3.977   3.878
 2689SOL     OW 8626   1.705   4.298   5.552
 2689SOL    HW1 8627   1.715   4.388   5.520
 2689SOL    HW2 8628   1.729   4.243   5.477
 2690SOL     OW 8629   0.552   3.907   4.616
 2690SOL    HW1 8630   0.553   3.936   4.707
 2690SOL    HW2 8631   0.548   3.989   4.566
 2691SOL     OW 8632   1.488   4.461   4.460
 2691SOL    HW1 8633   1.467   4.408   4.536
 2691SOL    HW2 8634   1.529   0.040   4.496
 2692SOL     OW 8635   0.190   4.000   5.211
 2692SOL    HW1 8636   0.135   4.078   5.218
 2692SOL    HW2 8637   0.185   3.960   5.298
 2693SOL     OW 8638   1.401   3.831   4.154
 2693SOL    HW1 8639   1.389   3.806   4.062
 2693SOL    HW2 8640   1.495   3.841   4.164
 2694SOL     OW 8641   0.352   4.378   4.133
 2694SOL    HW1 8642   0.399   4.306   4.176
 2694SOL    HW2 8643   0.297   4.415   4.201
 2695SOL     OW 8644   1.538   3.950   5.449
 2695SOL    HW1 8645   1.546   3.972   5.542
 2695SOL    HW2 8646   1.470   3.883   5.446
 2696SOL     OW 8647   0.631   3.851   3.828
 2696SOL    HW1 8648   0.703   3.790   3.843
 2696SOL    HW2 8649   0.585   3.816   3.752
 2697SOL     OW 8650   0.768   4.001   5.477
 2697SOL    HW1 8651   0.841   3.939   5.483
 2697SOL    HW2 8652   0.716   3.984   5.556
 2698SOL     OW 8653   1.346   4.311   5.152
 2698SOL    HW1 8654   1.368   4.274   5.238
 2698SOL    HW2 8655   1.382   4.399   5.154
 2699SOL     OW 8656   0.922   4.236   4.624
 2699SOL    HW1 8657   0.900   4.220   4.532
 2699SOL    HW2 8658   0.961   4.154   4.653
 2700SOL     OW 8659   0.550   3.786   4.229
 2700SOL    HW1 8660   0.469   3.785   4.280
 2700SOL    HW2 8661   0.543   3.865   4.174
 2701SOL     OW 8662   0.294   3.769   3.902
 2701SOL    HW1 8663   0.355   3.838   3.874
 2701SOL    HW2 8664   0.349   3.705   3.946
 2702SOL     OW 8665   0.935   3.969   4.189
 2702SOL    HW1 8666   0.907   4.009   4.106
 2702SOL    HW2 8667   1.031   3.980   4.189
 2703SOL     OW 8668   1.078   4.395   5.236
 2703SOL    HW1 8669   0.994   4.365   5.202
 2703SOL    HW2 8670   1.143   4.352   5.181
 2704SOL     OW 8671   1.026   4.269   3.747
 2704SOL    HW1 8672   1.006   4.357   3.714
 2704SOL    HW2 8673   1.088   4.284   3.818
 2705SOL     OW 8674   0.086   4.259   5.134
 2705SOL    HW1 8675   0.158   4.273   5.072
 2705SOL    HW2 8676   0.054   4.348   5.153
 2706SOL     OW 8677   0.562   3.950   4.888
 2706SOL    HW1 8678   0.600   3.869   4.921
 2706SOL    HW2 8679   0.470   3.948   4.916
 2707SOL     OW 8680   0.872   4.189   4.362
 2707SOL    HW1 8681   0.832   4.246   4.297
 2707SOL    HW2 8682   0.888   4.107   4.315
 2708SOL     OW 8683   1.014   3.776   4.477
 2708SOL    HW1 8684   0.955   3.768   4.402
 2708SOL    HW2 8685   0.994   3.701   4.532
 2709SOL     OW 8686   1.477   4.312   4.694
 2709SOL    HW1 8687   1.422   4.237   4.714
 2709SOL    HW2 8688   1.529   4.326   4.773
 2710SOL     OW 8689   1.400   4.296   3.796
 2710SOL    HW1 8690   1.339   4.270   3.865
 2710SOL    HW2 8691   1.483   4.256   3.822
 2711SOL     OW 8692   0.523   3.984   4.043
 2711SOL    HW1 8693   0.565   3.936   3.972
 2711SOL    HW2 8694   0.511   4.073   4.007
 2712SOL     OW 8695   0.917   3.823   5.123
 2712SOL    HW1 8696   0.941   3.802   5.032
 2712SOL    HW2 8697   0.997   3.861   5.160
 2713SOL     OW 8698   0.439   0.004   4.981
 2713SOL    HW1 8699   0.495   0.008   5.058
 2713SOL    HW2 8700   0.399   4.417   4.984
 2714SOL     OW 8701   1.267   4.101   4.996
 2714SOL    HW1 8702   1.300   4.178   5.042
 2714SOL    HW2 8703   1.178   4.125   4.970
 2715SOL     OW 8704   0.558   4.255   4.588
 2715SOL    HW1 8705   0.576   4.303   4.507
 2715SOL    HW2 8706   0.621   4.290   4.651
 2716SOL     OW 8707   1.573   4.342   4.199
 2716SOL    HW1 8708   1.540   4.408   4.260
 2716SOL    HW2 8709   1.630   4.390   4.140
 2717SOL     OW 8710   0.996   3.842   5.481
 2717SOL    HW1 8711   1.048   3.915   5.449
 2717SOL    HW2 8712   1.046   3.764   5.454
 2718SOL     OW 8713   0.499   3.768   5.469
 2718SOL    HW1 8714   0.458   3.712   5.404
 2718SOL    HW2 8715   0.437   3.841   5.480
 2719SOL     OW 8716   1.212   4.255   3.991
 2719SOL    HW1 8717   1.221   4.175   4.043
 2719SOL    HW2 8718   1.163   4.315   4.047
 2720SOL     OW 8719   0.301   3.925   4.968
 2720SOL    HW1 8720   0.262   3.953   5.051
 2720SOL    HW2 8721   0.286   3.830   4.966
 2721SOL     OW 8722   0.732   4.360   4.774
 2721SOL    HW1 8723   0.804   4.325   4.722
 2721SOL    HW2 8724   0.734   4.454   4.759
 2722SOL     OW 8725   1.749   0.134   5.581
 2722SOL    HW1 8726   1.688   0.149   5.508
 2722SOL    HW2 8727   1.702   0.167   5.657
 2723SOL     OW 8728   0.308   3.794   4.343
 2723SOL    HW1 8729   0.285   3.882   4.371
 2723SOL    HW2 8730   0.303   3.741   4.422
 2724SOL     OW 8731   1.611   4.091   4.094
 2724SOL    HW1 8732   1.640   4.030   4.163
 2724SOL    HW2 8733   1.590   4.171   4.141
 2725SOL     OW 8734   1.529   3.999   3.851
 2725SOL    HW1 8735   1.467   3.931   3.877
 2725SOL    HW2 8736   1.563   4.034   3.933
 2726SOL     OW 8737   0.318   0.018   4.647
 2726SOL    HW1 8738   0.401   0.065   4.653
 2726SOL    HW2 8739   0.331   4.440   4.701
 2727SOL     OW 8740   0.337   4.237   4.735
 2727SOL    HW1 8741   0.292   4.156   4.711
 2727SOL    HW2 8742   0.410   4.243   4.674
 2728SOL     OW 8743   1.138   4.096   5.407
 2728SOL    HW1 8744   1.087   4.155   5.463
 2728SOL    HW2 8745   1.223   4.139   5.398
 2729SOL     OW 8746   1.160   3.928   5.193
 2729SOL    HW1 8747   1.151   3.989   5.266
 2729SOL    HW2 8748   1.198   3.980   5.122
 2730SOL     OW 8749   0.028   4.280   4.833
 2730SOL    HW1 8750   0.112   4.254   4.794
 2730SOL    HW2 8751   0.032   4.245   4.922
 2731SOL     OW 8752   0.177   4.235   5.421
 2731SOL    HW1 8753   0.262   4.217   5.381
 2731SOL    HW2 8754   0.147   4.315   5.377
 2732SOL     OW 8755   0.819   4.288   4.064
 2732SOL    HW1 8756   0.816   4.209   4.009
 2732SOL    HW2 8757   0.730   4.322   4.062
 2733SOL     OW 8758   1.638   4.319   4.913
 2733SOL    HW1 8759   1.632   4.261   4.989
 2733SOL    HW2 8760   1.726   4.303   4.878
 2734SOL     OW 8761   0.676   4.185   4.985
 2734SOL    HW1 8762   0.639   4.104   4.950
 2734SOL    HW2 8763   0.685   4.242   4.908
 2735SOL     OW 8764   0.486   4.222   3.915
 2735SOL    HW1 8765   0.520   4.309   3.935
 2735SOL    HW2 8766   0.392   4.235   3.902
 2736SOL     OW 8767   1.719   3.866   4.237
 2736SOL    HW1 8768   1.792   3.852   4.177
 2736SOL    HW2 8769   1.704   3.780   4.276
 2737SOL     OW 8770   1.280   0.138   4.403
 2737SOL    HW1 8771   1.338   0.062   4.408
 2737SOL    HW2 8772   1.329   0.203   4.354
 2738SOL     OW 8773   1.839   3.896   4.692
 2738SOL    HW1 8774   1.868   3.810   4.661
 2738SOL    HW2 8775   1.753   3.909   4.652
 2739SOL     OW 8776   0.268   4.042   4.445
 2739SOL    HW1 8777   0.191   4.090   4.415
 2739SOL    HW2 8778   0.255   4.031   4.539
 2740SOL     OW 8779   0.911   0.094   3.951
 2740SOL    HW1 8780   0.992   0.135   3.923
 2740SOL    HW2 8781   0.933   0.050   4.033
 2741SOL     OW 8782   1.067   0.305   4.461
 2741SOL    HW1 8783   0.982   0.286   4.420
 2741SOL    HW2 8784   1.126   0.240   4.424
 2742SOL     OW 8785   1.019   3.964   4.689
 2742SOL    HW1 8786   1.014   3.915   4.607
 2742SOL    HW2 8787   1.014   3.896   4.757
 2743SOL     OW 8788   1.719   4.114   5.104
 2743SOL    HW1 8789   1.790   4.178   5.102
 2743SOL    HW2 8790   1.749   4.043   5.048
 2744SOL     OW 8791   0.672   3.922   5.222
 2744SOL    HW1 8792   0.756   3.903   5.180
 2744SOL    HW2 8793   0.696   3.949   5.311
 2745SOL     OW 8794   0.068   4.046   3.755
 2745SOL    HW1 8795   4.474   4.062   3.748
 2745SOL    HW2 8796   0.108   4.131   3.738
 2746SOL     OW 8797   0.085   3.903   4.032
 2746SOL    HW1 8798   0.076   3.972   3.966
 2746SOL    HW2 8799   0.160   3.851   4.002
 2747SOL     OW 8800   0.724   4.287   5.427
 2747SOL    HW1 8801   0.731   4.336   5.508
 2747SOL    HW2 8802   0.754   4.199   5.449
 2748SOL     OW 8803   1.220   4.043   4.179
 2748SOL    HW1 8804   1.283   3.972   4.170
 2748SOL    HW2 8805   1.248   4.091   4.257
 2749SOL     OW 8806   1.764   4.087   5.371
 2749SOL    HW1 8807   1.745   4.097   5.278
 2749SOL    HW2 8808   1.694   4.030   5.403
 2750SOL     OW 8809   1.109   0.230   3.829
 2750SOL    HW1 8810   1.088   0.270   3.744
 2750SOL    HW2 8811   1.188   0.178   3.811
 2751SOL     OW 8812   1.814   3.910   4.962
 2751SOL    HW1 8813   1.824   3.816   4.978
 2751SOL    HW2 8814   1.823   3.918   4.867
 2752SOL     OW 8815   0.452   4.151   4.261
 2752SOL    HW1 8816   0.461   4.079   4.199
 2752SOL    HW2 8817   0.390   4.118   4.327
 2753SOL     OW 8818   0.322   4.258   5.000
 2753SOL    HW1 8819   0.374   4.192   5.045
 2753SOL    HW2 8820   0.336   4.241   4.907
 2754SOL     OW 8821   1.432   3.947   4.842
 2754SOL    HW1 8822   1.461   3.870   4.891
 2754SOL    HW2 8823   1.380   3.997   4.905
 2755SOL     OW 8824   1.008   3.745   4.870
 2755SOL    HW1 8825   0.953   3.677   4.832
 2755SOL    HW2 8826   1.096   3.707   4.871
 2756SOL     OW 8827   1.352   3.777   3.888
 2756SOL    HW1 8828   1.377   3.718   3.817
 2756SOL    HW2 8829   1.266   3.746   3.915
 2757SOL     OW 8830   1.299   4.176   4.407
 2757SOL    HW1 8831   1.256   4.261   4.421
 2757SOL    HW2 8832   1.300   4.135   4.493
 2758SOL     OW 8833   1.587   3.930   4.601
 2758SOL    HW1 8834   1.523   3.948   4.670
 2758SOL    HW2 8835   1.588   4.008   4.546
 2759SOL     OW 8836   0.233   4.287   5.697
 2759SOL    HW1 8837   0.166   4.323   5.754
 2759SOL    HW2 8838   0.214   4.325   5.611
 2760SOL     OW 8839   0.211   3.998   6.577
 2760SOL    HW1 8840   0.247   3.970   6.662
 2760SOL    HW2 8841   0.134   3.941   6.565
 2761SOL     OW 8842   0.001   4.097   6.218
 2761SOL    HW1 8843   4.423   4.129   6.262
 2761SOL    HW2 8844   4.473   4.016   6.175
 2762SOL     OW 8845   1.734   4.335   5.822
 2762SOL    HW1 8846   1.734   4.321   5.728
 2762SOL    HW2 8847   1.733   4.247   5.860
 2763SOL     OW 8848   0.724   0.265   6.266
 2763SOL    HW1 8849   0.722   0.209   6.343
 2763SOL    HW2 8850   0.633   0.287   6.250
 2764SOL     OW 8851   0.442   4.120   7.075
 2764SOL    HW1 8852   0.523   4.069   7.079
 2764SOL    HW2 8853   0.373   4.055   7.086
 2765SOL     OW 8854   1.616   4.174   6.324
 2765SOL    HW1 8855   1.543   4.200   6.268
 2765SOL    HW2 8856   1.624   4.245   6.388
 2766SOL     OW 8857   1.597   3.845   7.056
 2766SOL    HW1 8858   1.593   3.924   7.002
 2766SOL    HW2 8859   1.585   3.876   7.146
 2767SOL     OW 8860   0.166   4.323   6.218
 2767SOL    HW1 8861   0.106   4.252   6.193
 2767SOL    HW2 8862   0.120   4.403   6.194
 2768SOL     OW 8863   0.116   4.498   7.176
 2768SOL    HW1 8864   0.210   4.482   7.180
 2768SOL    HW2 8865   0.107   0.081   7.131
 2769SOL     OW 8866   0.813   3.723   6.091
 2769SOL    HW1 8867   0.852   3.809   6.077
 2769SOL    HW2 8868   0.719   3.741   6.102
 2770SOL     OW 8869   0.329   3.979   7.382
 2770SOL    HW1 8870   0.377   4.056   7.412
 2770SOL    HW2 8871   0.241   3.989   7.420
 2771SOL     OW 8872   1.278   4.069   6.518
 2771SOL    HW1 8873   1.189   4.036   6.527
 2771SOL    HW2 8874   1.330   4.019   6.581
 2772SOL     OW 8875   0.823   4.309   7.037
 2772SOL    HW1 8876   0.782   4.314   7.123
 2772SOL    HW2 8877   0.757   4.268   6.981
 2773SOL     OW 8878   1.396   4.199   7.262
 2773SOL    HW1 8879   1.395   4.242   7.348
 2773SOL    HW2 8880   1.456   4.125   7.273
 2774SOL     OW 8881   0.996   4.147   6.820
 2774SOL    HW1 8882   0.922   4.167   6.878
 2774SOL    HW2 8883   0.959   4.088   6.754
 2775SOL     OW 8884   1.057   4.409   6.006
 2775SOL    HW1 8885   1.057   4.443   6.096
 2775SOL    HW2 8886   0.968   4.375   5.994
 2776SOL     OW 8887   0.054   0.047   6.428
 2776SOL    HW1 8888   0.147   0.025   6.434
 2776SOL    HW2 8889   0.049   0.112   6.357
 2777SOL     OW 8890   0.885   4.063   5.778
 2777SOL    HW1 8891   0.930   4.125   5.720
 2777SOL    HW2 8892   0.905   3.977   5.740
 2778SOL     OW 8893   1.705   4.298   7.414
 2778SOL    HW1 8894   1.715   4.388   7.381
 2778SOL    HW2 8895   1.729   4.243   7.340
 2779SOL     OW 8896   0.552   3.907   6.478
 2779SOL    HW1 8897   0.553   3.936   6.569
 2779SOL    HW2 8898   0.548   3.989   6.428
 2780SOL     OW 8899   1.488   4.461   6.321
 2780SOL    HW1 8900   1.467   4.408   6.398
 2780SOL    HW2 8901   1.529   0.040   6.358
 2781SOL     OW 8902   0.190   4.000   7.073
 2781SOL    HW1 8903   0.135   4.078   7.080
 2781SOL    HW2 8904   0.185   3.960   7.160
 2782SOL     OW 8905   1.401   3.831   6.016
 2782SOL    HW1 8906   1.390   3.806   5.924
 2782SOL    HW2 8907   1.495   3.841   6.027
 2783SOL     OW 8908   0.352   4.378   5.995
 2783SOL    HW1 8909   0.399   4.306   6.038
 2783SOL    HW2 8910   0.297   4.415   6.063
 2784SOL     OW 8911   1.538   3.950   7.311
 2784SOL    HW1 8912   1.545   3.972   7.404
 2784SOL    HW2 8913   1.470   3.882   7.308
 2785SOL     OW 8914   0.631   3.852   5.690
 2785SOL    HW1 8915   0.703   3.790   5.705
 2785SOL    HW2 8916   0.585   3.816   5.614
 2786SOL     OW 8917   0.768   4.001   7.339
 2786SOL    HW1 8918   0.841   3.939   7.345
 2786SOL    HW2 8919   0.716   3.984   7.418
 2787SOL     OW 8920   1.346   4.311   7.014
 2787SOL    HW1 8921   1.368   4.274   7.100
 2787SOL    HW2 8922   1.382   4.399   7.016
 2788SOL     OW 8923   0.922   4.236   6.485
 2788SOL    HW1 8924   0.900   4.220   6.394
 2788SOL    HW2 8925   0.961   4.155   6.516
 2789SOL     OW 8926   0.550   3.786   6.091
 2789SOL    HW1 8927   0.469   3.785   6.142
 2789SOL    HW2 8928   0.543   3.865   6.037
 2790SOL     OW 8929   0.294   3.770   5.764
 2790SOL    HW1 8930   0.355   3.838   5.737
 2790SOL    HW2 8931   0.349   3.705   5.808
 2791SOL     OW 8932   0.935   3.970   6.051
 2791SOL    HW1 8933   0.907   4.009   5.968
 2791SOL    HW2 8934   1.030   3.980   6.051
 2792SOL     OW 8935   1.078   4.396   7.098
 2792SOL    HW1 8936   0.994   4.365   7.064
 2792SOL    HW2 8937   1.143   4.352   7.043
 2793SOL     OW 8938   1.026   4.269   5.609
 2793SOL    HW1 8939   1.005   4.357   5.576
 2793SOL    HW2 8940   1.088   4.284   5.680
 2794SOL     OW 8941   0.086   4.259   6.996
 2794SOL    HW1 8942   0.158   4.272   6.934
 2794SOL    HW2 8943   0.054   4.348   7.015
 2795SOL     OW 8944   0.562   3.950   6.750
 2795SOL    HW1 8945   0.600   3.869   6.783
 2795SOL    HW2 8946   0.470   3.947   6.778
 2796SOL     OW 8947   0.872   4.189   6.224
 2796SOL    HW1 8948   0.832   4.246   6.159
 2796SOL    HW2 8949   0.888   4.107   6.178
 2797SOL     OW 8950   1.014   3.777   6.339
 2797SOL    HW1 8951   0.955   3.768   6.264
 2797SOL    HW2 8952   0.995   3.701   6.394
 2798SOL     OW 8953   1.477   4.312   6.556
 2798SOL    HW1 8954   1.422   4.237   6.576
 2798SOL    HW2 8955   1.529   4.326   6.635
 2799SOL     OW 8956   1.400   4.296   5.658
 2799SOL    HW1 8957   1.339   4.270   5.727
 2799SOL    HW2 8958   1.483   4.256   5.684
 2800SOL     OW 8959   0.523   3.984   5.904
 2800SOL    HW1 8960   0.565   3.936   5.834
 2800SOL    HW2 8961   0.511   4.073   5.869
 2801SOL     OW 8962   0.917   3.823   6.985
 2801SOL    HW1 8963   0.941   3.802   6.894
 2801SOL    HW2 8964   0.997   3.861   7.022
 2802SOL     OW 8965   0.438   0.004   6.843
 2802SOL    HW1 8966   0.495   0.008   6.920
 2802SOL    HW2 8967   0.399   4.417   6.846
 2803SOL     OW 8968   1.267   4.101   6.858
 2803SOL    HW1 8969   1.300   4.178   6.904
 2803SOL    HW2 8970   1.178   4.125   6.832
 2804SOL     OW 8971   0.558   4.255   6.450
 2804SOL    HW1 8972   0.576   4.303   6.369
 2804SOL    HW2 8973   0.621   4.290   6.513
 2805SOL     OW 8974   1.573   4.342   6.061
 2805SOL    HW1 8975   1.540   4.407   6.123
 2805SOL    HW2 8976   1.630   4.391   6.002
 2806SOL     OW 8977   0.996   3.842   7.343
 2806SOL    HW1 8978   1.048   3.915   7.311
 2806SOL    HW2 8979   1.046   3.764   7.317
 2807SOL     OW 8980   0.498   3.768   7.331
 2807SOL    HW1 8981   0.458   3.712   7.266
 2807SOL    HW2 8982   0.437   3.841   7.342
 2808SOL     OW 8983   1.212   4.255   5.853
 2808SOL    HW1 8984   1.221   4.176   5.905
 2808SOL    HW2 8985   1.163   4.315   5.909
 2809SOL     OW 8986   0.301   3.924   6.830
 2809SOL    HW1 8987   0.262   3.953   6.913
 2809SOL    HW2 8988   0.286   3.830   6.828
 2810SOL     OW 8989   0.732   4.360   6.636
 2810SOL    HW1 8990   0.804   4.325   6.584
 2810SOL    HW2 8991   0.734   4.454   6.620
 2811SOL     OW 8992   1.749   0.135   7.443
 2811SOL    HW1 8993   1.688   0.149   7.370
 2811SOL    HW2 8994   1.702   0.168   7.519
 2812SOL     OW 8995   0.308   3.794   6.205
 2812SOL    HW1 8996   0.285   3.882   6.234
 2812SOL    HW2 8997   0.303   3.741   6.284
 2813SOL     OW 8998   1.611   4.091   5.956
 2813SOL    HW1 8999   1.640   4.030   6.024
 2813SOL    HW2 9000   1.590   4.171   6.003
 2814SOL     OW 9001   1.529   3.999   5.713
 2814SOL    HW1 9002   1.467   3.931   5.739
 2814SOL    HW2 9003   1.563   4.034   5.795
 2815SOL     OW 9004   0.318   0.018   6.510
 2815SOL    HW1 9005   0.401   0.065   6.515
 2815SOL    HW2 9006   0.331   4.440   6.563
 2816SOL     OW 9007   0.337   4.237   6.597
 2816SOL    HW1 9008   0.292   4.156   6.573
 2816SOL    HW2 9009   0.410   4.243   6.536
 2817SOL     OW 9010   1.138   4.096   7.269
 2817SOL    HW1 9011   1.087   4.155   7.325
 2817SOL    HW2 9012   1.223   4.139   7.260
 2818SOL     OW 9013   1.160   3.928   7.055
 2818SOL    HW1 9014   1.151   3.989   7.128
 2818SOL    HW2 9015   1.198   3.980   6.984
 2819SOL     OW 9016   0.029   4.280   6.695
 2819SOL    HW1 9017   0.112   4.254   6.656
 2819SOL    HW2 9018   0.032   4.245   6.784
 2820SOL     OW 9019   0.177   4.235   7.283
 2820SOL    HW1 9020   0.262   4.216   7.243
 2820SOL    HW2 9021   0.147   4.315   7.239
 2821SOL     OW 9022   0.819   4.288   5.925
 2821SOL    HW1 9023   0.816   4.209   5.871
 2821SOL    HW2 9024   0.730   4.322   5.924
 2822SOL     OW 9025   1.638   4.319   6.776
 2822SOL    HW1 9026   1.632   4.261   6.851
 2822SOL    HW2 9027   1.726   4.304   6.740
 2823SOL     OW 9028   0.676   4.185   6.847
 2823SOL    HW1 9029   0.639   4.104   6.812
 2823SOL    HW2 9030   0.685   4.242   6.770
 2824SOL     OW 9031   0.486   4.222   5.776
 2824SOL    HW1 9032   0.520   4.309   5.798
 2824SOL    HW2 9033   0.392   4.235   5.763
 2825SOL     OW 9034   1.719   3.866   6.099
 2825SOL    HW1 9035   1.792   3.852   6.039
 2825SOL    HW2 9036   1.704   3.780   6.138
 2826SOL     OW 9037   1.280   0.138   6.265
 2826SOL    HW1 9038   1.338   0.062   6.270
 2826SOL    HW2 9039   1.330   0.203   6.215
 2827SOL     OW 9040   1.839   3.897   6.554
 2827SOL    HW1 9041   1.868   3.810   6.524
 2827SOL    HW2 9042   1.753   3.909   6.514
 2828SOL     OW 9043   0.268   4.042   6.307
 2828SOL    HW1 9044   0.191   4.090   6.277
 2828SOL    HW2 9045   0.255   4.031   6.401
 2829SOL     OW 9046   0.911   0.094   5.813
 2829SOL    HW1 9047   0.992   0.135   5.785
 2829SOL    HW2 9048   0.933   0.050   5.895
 2830SOL     OW 9049   1.067   0.306   6.322
 2830SOL    HW1 9050   0.983   0.286   6.282
 2830SOL    HW2 9051   1.127   0.240   6.286
 2831SOL     OW 9052   1.019   3.964   6.551
 2831SOL    HW1 9053   1.014   3.915   6.469
 2831SOL    HW2 9054   1.014   3.896   6.619
 2832SOL     OW 9055   1.719   4.114   6.966
 2832SOL    HW1 9056   1.790   4.178   6.963
 2832SOL    HW2 9057   1.749   4.043   6.910
 2833SOL     OW 9058   0.672   3.922   7.084
 2833SOL    HW1 9059   0.756   3.902   7.042
 2833SOL    HW2 9060   0.696   3.949   7.173
 2834SOL     OW 9061   0.069   4.046   5.617
 2834SOL    HW1 9062   4.474   4.061   5.610
 2834SOL    HW2 9063   0.108   4.131   5.600
 2835SOL     OW 9064   0.085   3.903   5.894
 2835SOL    HW1 9065   0.076   3.971   5.828
 2835SOL    HW2 9066   0.160   3.851   5.864
 2836SOL     OW 9067   0.724   4.286   7.289
 2836SOL    HW1 9068   0.731   4.336   7.370
 2836SOL    HW2 9069   0.754   4.199   7.311
 2837SOL     OW 9070   1.220   4.043   6.041
 2837SOL    HW1 9071   1.283   3.972   6.032
 2837SOL    HW2 9072   1.248   4.091   6.119
 2838SOL     OW 9073   1.763   4.087   7.233
 2838SOL    HW1 9074   1.745   4.097   7.140
 2838SOL    HW2 9075   1.694   4.029   7.265
 2839SOL     OW 9076   1.109   0.230   5.691
 2839SOL    HW1 9077   1.088   0.269   5.606
 2839SOL    HW2 9078   1.188   0.178   5.673
 2840SOL     OW 9079   1.815   3.910   6.824
 2840SOL    HW1 9080   1.824   3.816   6.840
 2840SOL    HW2 9081   1.823   3.918   6.729
 2841SOL     OW 9082   0.452   4.151   6.123
 2841SOL    HW1 9083   0.461   4.079   6.061
 2841SOL    HW2 9084   0.390   4.118   6.189
 2842SOL     OW 9085   0.322   4.258   6.862
 2842SOL    HW1 9086   0.374   4.192   6.907
 2842SOL    HW2 9087   0.336   4.241   6.769
 2843SOL     OW 9088   1.432   3.947   6.704
 2843SOL    HW1 9089   1.461   3.869   6.752
 2843SOL    HW2 9090   1.380   3.996   6.767
 2844SOL     OW 9091   1.008   3.745   6.732
 2844SOL    HW1 9092   0.953   3.676   6.694
 2844SOL    HW2 9093   1.096   3.707   6.733
 2845SOL     OW 9094   1.352   3.777   5.750
 2845SOL    HW1 9095   1.376   3.719   5.678
 2845SOL    HW2 9096   1.266   3.746   5.777
 2846SOL     OW 9097   1.300   4.176   6.269
 2846SOL    HW1 9098   1.256   4.261   6.283
 2846SOL    HW2 9099   1.300   4.135   6.355
 2847SOL     OW 9100   1.587   3.930   6.463
 2847SOL    HW1 9101   1.524   3.948   6.532
 2847SOL    HW2 9102   1.588   4.009   6.409
 2848SOL     OW 9103   0.233   4.287   7.559
 2848SOL    HW1 9104   0.166   4.323   7.616
 2848SOL    HW2 9105   0.214   4.325   7.473
 2849SOL     OW 9106   0.211   3.998   8.439
 2849SOL    HW1 9107   0.247   3.970   8.524
 2849SOL    HW2 9108   0.135   3.941   8.427
 2850SOL     OW 9109   0.001   4.097   8.080
 2850SOL    HW1 9110   4.423   4.129   8.124
 2850SOL    HW2 9111   4.474   4.016   8.037
 2851SOL     OW 9112   1.735   4.335   7.684
 2851SOL    HW1 9113   1.734   4.320   7.590
 2851SOL    HW2 9114   1.733   4.247   7.722
 2852SOL     OW 9115   0.724   0.265   8.128
 2852SOL    HW1 9116   0.723   0.209   8.205
 2852SOL    HW2 9117   0.632   0.287   8.112
 2853SOL     OW 9118   0.442   4.120   8.937
 2853SOL    HW1 9119   0.523   4.070   8.941
 2853SOL    HW2 9120   0.373   4.055   8.948
 2854SOL     OW 9121   1.615   4.174   8.186
 2854SOL    HW1 9122   1.543   4.200   8.130
 2854SOL    HW2 9123   1.624   4.245   8.250
 2855SOL     OW 9124   1.597   3.845   8.918
 2855SOL    HW1 9125   1.593   3.924   8.864
 2855SOL    HW2 9126   1.585   3.876   9.008
 2856SOL     OW 9127   0.166   4.323   8.080
 2856SOL    HW1 9128   0.106   4.252   8.055
 2856SOL    HW2 9129   0.120   4.403   8.056
 2857SOL     OW 9130   0.116   4.498   9.038
 2857SOL    HW1 9131   0.210   4.482   9.042
 2857SOL    HW2 9132   0.107   0.082   8.993
 2858SOL     OW 9133   0.813   3.723   7.953
 2858SOL    HW1 9134   0.852   3.809   7.939
 2858SOL    HW2 9135   0.719   3.741   7.965
 2859SOL     OW 9136   0.329   3.979   9.244
 2859SOL    HW1 9137   0.377   4.056   9.274
 2859SOL    HW2 9138   0.241   3.990   9.282
 2860SOL     OW 9139   1.278   4.070   8.380
 2860SOL    HW1 9140   1.189   4.036   8.389
 2860SOL    HW2 9141   1.330   4.019   8.443
 2861SOL     OW 9142   0.823   4.309   8.899
 2861SOL    HW1 9143   0.782   4.314   8.985
 2861SOL    HW2 9144   0.757   4.268   8.843
 2862SOL     OW 9145   1.396   4.199   9.124
 2862SOL    HW1 9146   1.395   4.242   9.210
 2862SOL    HW2 9147   1.456   4.125   9.135
 2863SOL     OW 9148   0.996   4.147   8.682
 2863SOL    HW1 9149   0.922   4.167   8.740
 2863SOL    HW2 9150   0.959   4.088   8.616
 2864SOL     OW 9151   1.057   4.410   7.868
 2864SOL    HW1 9152   1.057   4.443   7.958
 2864SOL    HW2 9153   0.968   4.375   7.856
 2865SOL     OW 9154   0.054   0.047   8.290
 2865SOL    HW1 9155   0.146   0.025   8.296
 2865SOL    HW2 9156   0.049   0.111   8.219
 2866SOL     OW 9157   0.885   4.063   7.640
 2866SOL    HW1 9158   0.930   4.125   7.582
 2866SOL    HW2 9159   0.905   3.977   7.602
 2867SOL     OW 9160   1.706   4.298   9.276
 2867SOL    HW1 9161   1.715   4.387   9.243
 2867SOL    HW2 9162   1.729   4.243   9.202
 2868SOL     OW 9163   0.551   3.907   8.340
 2868SOL    HW1 9164   0.553   3.936   8.431
 2868SOL    HW2 9165   0.548   3.989   8.290
 2869SOL     OW 9166   1.488   4.461   8.184
 2869SOL    HW1 9167   1.467   4.408   8.260
 2869SOL    HW2 9168   1.529   0.040   8.220
 2870SOL     OW 9169   0.190   4.000   8.935
 2870SOL    HW1 9170   0.135   4.078   8.942
 2870SOL    HW2 9171   0.185   3.960   9.022
 2871SOL     OW 9172   1.401   3.831   7.878
 2871SOL    HW1 9173   1.389   3.806   7.786
 2871SOL    HW2 9174   1.495   3.840   7.889
 2872SOL     OW 9175   0.352   4.378   7.857
 2872SOL    HW1 9176   0.399   4.306   7.900
 2872SOL    HW2 9177   0.297   4.415   7.926
 2873SOL     OW 9178   1.538   3.950   9.173
 2873SOL    HW1 9179   1.545   3.972   9.266
 2873SOL    HW2 9180   1.470   3.882   9.170
 2874SOL     OW 9181   0.631   3.851   7.552
 2874SOL    HW1 9182   0.703   3.790   7.567
 2874SOL    HW2 9183   0.585   3.816   7.476
 2875SOL     OW 9184   0.768   4.001   9.201
 2875SOL    HW1 9185   0.841   3.939   9.207
 2875SOL    HW2 9186   0.717   3.984   9.280
 2876SOL     OW 9187   1.346   4.311   8.876
 2876SOL    HW1 9188   1.368   4.274   8.962
 2876SOL    HW2 9189   1.382   4.399   8.878
 2877SOL     OW 9190   0.922   4.236   8.348
 2877SOL    HW1 9191   0.900   4.220   8.256
 2877SOL    HW2 9192   0.961   4.155   8.378
 2878SOL     OW 9193   0.550   3.786   7.953
 2878SOL    HW1 9194   0.469   3.785   8.004
 2878SOL    HW2 9195   0.543   3.865   7.898
 2879SOL     OW 9196   0.294   3.770   7.626
 2879SOL    HW1 9197   0.355   3.838   7.598
 2879SOL    HW2 9198   0.349   3.705   7.670
 2880SOL     OW 9199   0.935   3.970   7.913
 2880SOL    HW1 9200   0.907   4.009   7.830
 2880SOL    HW2 9201   1.030   3.980   7.913
 2881SOL     OW 9202   1.078   4.396   8.960
 2881SOL    HW1 9203   0.994   4.365   8.926
 2881SOL    HW2 9204   1.143   4.352   8.905
 2882SOL     OW 9205   1.026   4.269   7.471
 2882SOL    HW1 9206   1.006   4.357   7.439
 2882SOL    HW2 9207   1.088   4.284   7.542
 2883SOL     OW 9208   0.086   4.259   8.858
 2883SOL    HW1 9209   0.158   4.272   8.797
 2883SOL    HW2 9210   0.055   4.348   8.877
 2884SOL     OW 9211   0.562   3.950   8.612
 2884SOL    HW1 9212   0.600   3.869   8.645
 2884SOL    HW2 9213   0.470   3.947   8.640
 2885SOL     OW 9214   0.872   4.189   8.086
 2885SOL    HW1 9215   0.832   4.246   8.021
 2885SOL    HW2 9216   0.888   4.107   8.040
 2886SOL     OW 9217   1.014   3.777   8.201
 2886SOL    HW1 9218   0.955   3.768   8.126
 2886SOL    HW2 9219   0.994   3.701   8.256
 2887SOL     OW 9220   1.477   4.312   8.418
 2887SOL    HW1 9221   1.422   4.237   8.438
 2887SOL    HW2 9222   1.529   4.326   8.497
 2888SOL     OW 9223   1.400   4.296   7.520
 2888SOL    HW1 9224   1.339   4.270   7.589
 2888SOL    HW2 9225   1.483   4.256   7.546
 2889SOL     OW 9226   0.523   3.984   7.766
 2889SOL    HW1 9227   0.565   3.936   7.696
 2889SOL    HW2 9228   0.511   4.073   7.731
 2890SOL     OW 9229   0.917   3.823   8.847
 2890SOL    HW1 9230   0.941   3.802   8.756
 2890SOL    HW2 9231   0.997   3.861   8.884
 2891SOL     OW 9232   0.438   0.004   8.705
 2891SOL    HW1 9233   0.495   0.008   8.782
 2891SOL    HW2 9234   0.399   4.417   8.708
 2892SOL     OW 9235   1.267   4.101   8.720
 2892SOL    HW1 9236   1.300   4.178   8.766
 2892SOL    HW2 9237   1.178   4.125   8.694
 2893SOL     OW 9238   0.558   4.255   8.312
 2893SOL    HW1 9239   0.576   4.303   8.231
 2893SOL    HW2 9240   0.621   4.290   8.375
 2894SOL     OW 9241   1.573   4.342   7.923
 2894SOL    HW1 9242   1.540   4.408   7.985
 2894SOL    HW2 9243   1.630   4.391   7.864
 2895SOL     OW 9244   0.996   3.842   9.205
 2895SOL    HW1 9245   1.048   3.915   9.173
 2895SOL    HW2 9246   1.046   3.764   9.179
 2896SOL     OW 9247   0.498   3.768   9.194
 2896SOL    HW1 9248   0.458   3.712   9.128
 2896SOL    HW2 9249   0.437   3.841   9.204
 2897SOL     OW 9250   1.212   4.255   7.715
 2897SOL    HW1 9251   1.221   4.176   7.767
 2897SOL    HW2 9252   1.162   4.315   7.771
 2898SOL     OW 9253   0.301   3.924   8.692
 2898SOL    HW1 9254   0.262   3.953   8.775
 2898SOL    HW2 9255   0.286   3.830   8.690
 2899SOL     OW 9256   0.732   4.360   8.498
 2899SOL    HW1 9257   0.804   4.325   8.446
 2899SOL    HW2 9258   0.735   4.454   8.482
 2900SOL     OW 9259   1.749   0.135   9.305
 2900SOL    HW1 9260   1.688   0.149   9.232
 2900SOL    HW2 9261   1.702   0.168   9.381
 2901SOL     OW 9262   0.308   3.794   8.067
 2901SOL    HW1 9263   0.285   3.882   8.096
 2901SOL    HW2 9264   0.303   3.741   8.147
 2902SOL     OW 9265   1.612   4.091   7.818
 2902SOL    HW1 9266   1.640   4.030   7.886
 2902SOL    HW2 9267   1.590   4.171   7.865
 2903SOL     OW 9268   1.529   3.999   7.575
 2903SOL    HW1 9269   1.467   3.932   7.601
 2903SOL    HW2 9270   1.563   4.034   7.657
 2904SOL     OW 9271   0.318   0.018   8.372
 2904SOL    HW1 9272   0.401   0.065   8.377
 2904SOL    HW2 9273   0.331   4.440   8.425
 2905SOL     OW 9274   0.337   4.237   8.459
 2905SOL    HW1 9275   0.292   4.156   8.435
 2905SOL    HW2 9276   0.410   4.243   8.398
 2906SOL     OW 9277   1.138   4.096   9.131
 2906SOL    HW1 9278   1.087   4.155   9.187
 2906SOL    HW2 9279   1.223   4.139   9.122
 2907SOL     OW 9280   1.160   3.928   8.917
 2907SOL    HW1 9281   1.151   3.989   8.990
 2907SOL    HW2 9282   1.198   3.980   8.846
 2908SOL     OW 9283   0.028   4.280   8.557
 2908SOL    HW1 9284   0.112   4.254   8.518
 2908SOL    HW2 9285   0.032   4.245   8.646
 2909SOL     OW 9286   0.177   4.235   9.145
 2909SOL    HW1 9287   0.262   4.216   9.105
 2909SOL    HW2 9288   0.148   4.315   9.101
 2910SOL     OW 9289   0.819   4.288   7.787
 2910SOL    HW1 9290   0.817   4.209   7.733
 2910SOL    HW2 9291   0.730   4.321   7.786
 2911SOL     OW 9292   1.638   4.319   8.638
 2911SOL    HW1 9293   1.632   4.260   8.713
 2911SOL    HW2 9294   1.726   4.304   8.602
 2912SOL     OW 9295   0.676   4.185   8.709
 2912SOL    HW1 9296   0.639   4.104   8.674
 2912SOL    HW2 9297   0.685   4.242   8.632
 2913SOL     OW 9298   0.486   4.222   7.639
 2913SOL    HW1 9299   0.520   4.309   7.659
 2913SOL    HW2 9300   0.392   4.236   7.626
 2914SOL     OW 9301   1.719   3.866   7.961
 2914SOL    HW1 9302   1.792   3.852   7.901
 2914SOL    HW2 9303   1.703   3.780   8.000
 2915SOL     OW 9304   1.280   0.138   8.127
 2915SOL    HW1 9305   1.338   0.062   8.132
 2915SOL    HW2 9306   1.329   0.203   8.077
 2916SOL     OW 9307   1.839   3.897   8.416
 2916SOL    HW1 9308   1.868   3.811   8.386
 2916SOL    HW2 9309   1.753   3.909   8.376
 2917SOL     OW 9310   0.268   4.042   8.169
 2917SOL    HW1 9311   0.191   4.090   8.139
 2917SOL    HW2 9312   0.255   4.031   8.263
 2918SOL     OW 9313   0.911   0.094   7.675
 2918SOL    HW1 9314   0.992   0.135   7.647
 2918SOL    HW2 9315   0.933   0.050   7.757
 2919SOL     OW 9316   1.067   0.305   8.185
 2919SOL    HW1 9317   0.983   0.286   8.144
 2919SOL    HW2 9318   1.127   0.240   8.148
 2920SOL     OW 9319   1.019   3.964   8.413
 2920SOL    HW1 9320   1.014   3.915   8.331
 2920SOL    HW2 9321   1.014   3.896   8.481
 2921SOL     OW 9322   1.719   4.114   8.828
 2921SOL    HW1 9323   1.790   4.178   8.825
 2921SOL    HW2 9324   1.749   4.043   8.772
 2922SOL     OW 9325   0.672   3.922   8.946
 2922SOL    HW1 9326   0.756   3.902   8.904
 2922SOL    HW2 9327   0.696   3.949   9.035
 2923SOL     OW 9328   0.068   4.046   7.479
 2923SOL    HW1 9329   4.474   4.061   7.472
 2923SOL    HW2 9330   0.108   4.131   7.462
 2924SOL     OW 9331   0.085   3.903   7.756
 2924SOL    HW1 9332   0.076   3.971   7.689
 2924SOL    HW2 9333   0.160   3.851   7.727
 2925SOL     OW 9334   0.723   4.286   9.151
 2925SOL    HW1 9335   0.731   4.336   9.232
 2925SOL    HW2 9336   0.754   4.199   9.173
 2926SOL     OW 9337   1.220   4.044   7.903
 2926SOL    HW1 9338   1.283   3.972   7.894
 2926SOL    HW2 9339   1.248   4.091   7.981
 2927SOL     OW 9340   1.763   4.088   9.095
 2927SOL    HW1 9341   1.745   4.097   9.002
 2927SOL    HW2 9342   1.694   4.029   9.127
 2928SOL     OW 9343   1.109   0.230   7.553
 2928SOL    HW1 9344   1.088   0.269   7.468
 2928SOL    HW2 9345   1.188   0.178   7.535
 2929SOL     OW 9346   1.815   3.910   8.686
 2929SOL    HW1 9347   1.824   3.816   8.702
 2929SOL    HW2 9348   1.823   3.918   8.591
 2930SOL     OW 9349   0.451   4.151   7.985
 2930SOL    HW1 9350   0.461   4.079   7.923
 2930SOL    HW2 9351   0.390   4.118   8.051
 2931SOL     OW 9352   0.322   4.258   8.724
 2931SOL    HW1 9353   0.374   4.192   8.769
 2931SOL    HW2 9354   0.336   4.241   8.631
 2932SOL     OW 9355   1.432   3.947   8.566
 2932SOL    HW1 9356   1.460   3.869   8.613
 2932SOL    HW2 9357   1.380   3.996   8.629
 2933SOL     OW 9358   1.008   3.745   8.594
 2933SOL    HW1 9359   0.953   3.676   8.556
 2933SOL    HW2 9360   1.096   3.707   8.595
 2934SOL     OW 9361   1.352   3.777   7.611
 2934SOL    HW1 9362   1.378   3.718   7.541
 2934SOL    HW2 9363   1.266   3.746   7.639
 2935SOL     OW 9364   1.300   4.177   8.131
 2935SOL    HW1 9365   1.256   4.260   8.145
 2935SOL    HW2 9366   1.300   4.135   8.217
 2936SOL     OW 9367   1.588   3.930   8.325
 2936SOL    HW1 9368   1.524   3.948   8.393
 2936SOL    HW2 9369   1.588   4.009   8.270
 2937SOL     OW 9370   0.233   4.287   9.421
 2937SOL    HW1 9371   0.166   4.323   9.478
 2937SOL    HW2 9372   0.214   4.325   9.335
 2938SOL     OW 9373   0.212   3.997  10.301
 2938SOL    HW1 9374   0.248   3.972  10.386
 2938SOL    HW2 9375   0.135   3.942  10.290
 2939SOL     OW 9376   0.001   4.097   9.941
 2939SOL    HW1 9377   4.423   4.129   9.986
 2939SOL    HW2 9378   4.473   4.016   9.899
 2940SOL     OW 9379   1.735   4.335   9.546
 2940SOL    HW1 9380   1.734   4.320   9.452
 2940SOL    HW2 9381   1.733   4.247   9.584
 2941SOL     OW 9382   0.724   0.265   9.990
 2941SOL    HW1 9383   0.723   0.209  10.067
 2941SOL    HW2 9384   0.632   0.287   9.974
 2942SOL     OW 9385   0.445   4.124  10.794
 2942SOL    HW1 9386   0.523   4.069  10.802
 2942SOL    HW2 9387   0.372   4.066  10.815
 2943SOL     OW 9388   1.616   4.174  10.048
 2943SOL    HW1 9389   1.543   4.200   9.992
 2943SOL    HW2 9390   1.624   4.245  10.112
 2944SOL     OW 9391   1.590   3.839  10.780
 2944SOL    HW1 9392   1.596   3.919  10.728
 2944SOL    HW2 9393   1.588   3.870  10.871
 2945SOL     OW 9394   0.166   4.323   9.941
 2945SOL    HW1 9395   0.106   4.252   9.917
 2945SOL    HW2 9396   0.120   4.403   9.918
 2946SOL     OW 9397   0.100   4.484  10.937
 2946SOL    HW1 9398   0.194   4.471  10.948
 2946SOL    HW2 9399   0.092   0.066  10.888
 2947SOL     OW 9400   0.813   3.723   9.815
 2947SOL    HW1 9401   0.852   3.808   9.801
 2947SOL    HW2 9402   0.719   3.741   9.827
 2948SOL     OW 9403   0.338   3.984   0.007
 2948SOL    HW1 9404   0.384   4.064   0.034
 2948SOL    HW2 9405   0.246   4.005   0.019
 2949SOL     OW 9406   1.278   4.070  10.242
 2949SOL    HW1 9407   1.189   4.036  10.251
 2949SOL    HW2 9408   1.330   4.019  10.305
 2950SOL     OW 9409   0.822   4.304  10.765
 2950SOL    HW1 9410   0.776   4.316  10.848
 2950SOL    HW2 9411   0.757   4.266  10.707
 2951SOL     OW 9412   0.995   4.146  10.546
 2951SOL    HW1 9413   0.920   4.167  10.601
 2951SOL    HW2 9414   0.960   4.089  10.477
 2952SOL     OW 9415   1.057   4.410   9.730
 2952SOL    HW1 9416   1.057   4.443   9.820
 2952SOL    HW2 9417   0.968   4.375   9.718
 2953SOL     OW 9418   0.054   0.047  10.151
 2953SOL    HW1 9419   0.146   0.024  10.159
 2953SOL    HW2 9420   0.050   0.112  10.081
 2954SOL     OW 9421   0.885   4.063   9.501
 2954SOL    HW1 9422   0.930   4.125   9.444
 2954SOL    HW2 9423   0.905   3.977   9.464
 2955SOL     OW 9424   0.552   3.907  10.202
 2955SOL    HW1 9425   0.553   3.936  10.294
 2955SOL    HW2 9426   0.549   3.989  10.152
 2956SOL     OW 9427   1.488   4.461  10.045
 2956SOL    HW1 9428   1.467   4.408  10.122
 2956SOL    HW2 9429   1.529   0.040  10.082
 2957SOL     OW 9430   0.192   4.001  10.798
 2957SOL    HW1 9431   0.138   4.080  10.805
 2957SOL    HW2 9432   0.188   3.962  10.885
 2958SOL     OW 9433   1.401   3.831   9.740
 2958SOL    HW1 9434   1.390   3.806   9.648
 2958SOL    HW2 9435   1.495   3.840   9.751
 2959SOL     OW 9436   0.352   4.378   9.719
 2959SOL    HW1 9437   0.399   4.306   9.762
 2959SOL    HW2 9438   0.297   4.415   9.788
 2960SOL     OW 9439   0.631   3.851   9.414
 2960SOL    HW1 9440   0.703   3.790   9.429
 2960SOL    HW2 9441   0.585   3.816   9.338
 2961SOL     OW 9442   0.771   3.997  11.045
 2961SOL    HW1 9443   0.836   3.939  11.084
 2961SOL    HW2 9444   0.709   4.015   0.016
 2962SOL     OW 9445   1.352   4.308  10.744
 2962SOL    HW1 9446   1.375   4.286  10.834
 2962SOL    HW2 9447   1.375   4.400  10.735
 2963SOL     OW 9448   0.923   4.236  10.209
 2963SOL    HW1 9449   0.900   4.220  10.118
 2963SOL    HW2 9450   0.961   4.154  10.239
 2964SOL     OW 9451   0.550   3.786   9.815
 2964SOL    HW1 9452   0.469   3.785   9.866
 2964SOL    HW2 9453   0.543   3.865   9.761
 2965SOL     OW 9454   0.294   3.769   9.488
 2965SOL    HW1 9455   0.355   3.838   9.460
 2965SOL    HW2 9456   0.349   3.704   9.532
 2966SOL     OW 9457   0.935   3.969   9.775
 2966SOL    HW1 9458   0.907   4.009   9.692
 2966SOL    HW2 9459   1.031   3.980   9.775
 2967SOL     OW 9460   1.080   4.390  10.810
 2967SOL    HW1 9461   0.993   4.362  10.779
 2967SOL    HW2 9462   1.141   4.342  10.755
 2968SOL     OW 9463   1.026   4.269   9.333
 2968SOL    HW1 9464   1.006   4.357   9.301
 2968SOL    HW2 9465   1.088   4.284   9.404
 2969SOL     OW 9466   0.080   4.257  10.719
 2969SOL    HW1 9467   0.154   4.264  10.659
 2969SOL    HW2 9468   0.054   4.347  10.736
 2970SOL     OW 9469   0.561   3.950  10.474
 2970SOL    HW1 9470   0.600   3.869  10.508
 2970SOL    HW2 9471   0.470   3.947  10.502
 2971SOL     OW 9472   0.872   4.189   9.948
 2971SOL    HW1 9473   0.831   4.246   9.883
 2971SOL    HW2 9474   0.888   4.107   9.901
 2972SOL     OW 9475   1.014   3.777  10.063
 2972SOL    HW1 9476   0.955   3.768   9.988
 2972SOL    HW2 9477   0.994   3.701  10.118
 2973SOL     OW 9478   1.477   4.312  10.279
 2973SOL    HW1 9479   1.422   4.236  10.299
 2973SOL    HW2 9480   1.529   4.326  10.359
 2974SOL     OW 9481   1.400   4.296   9.382
 2974SOL    HW1 9482   1.339   4.270   9.451
 2974SOL    HW2 9483   1.483   4.256   9.408
 2975SOL     OW 9484   0.523   3.984   9.628
 2975SOL    HW1 9485   0.565   3.936   9.558
 2975SOL    HW2 9486   0.511   4.073   9.593
 2976SOL     OW 9487   0.918   3.823  10.709
 2976SOL    HW1 9488   0.941   3.802  10.618
 2976SOL    HW2 9489   0.996   3.863  10.745
 2977SOL     OW 9490   0.446   4.499  10.554
 2977SOL    HW1 9491   0.498   0.014  10.633
 2977SOL    HW2 9492   0.387   4.427  10.578
 2978SOL     OW 9493   1.267   4.100  10.584
 2978SOL    HW1 9494   1.301   4.178  10.628
 2978SOL    HW2 9495   1.179   4.126  10.556
 2979SOL     OW 9496   0.562   4.252  10.172
 2979SOL    HW1 9497   0.578   4.304  10.093
 2979SOL    HW2 9498   0.621   4.289  10.237
 2980SOL     OW 9499   1.573   4.342   9.785
 2980SOL    HW1 9500   1.540   4.408   9.847
 2980SOL    HW2 9501   1.630   4.391   9.726
 2981SOL     OW 9502   0.484   4.499  10.993
 2981SOL    HW1 9503   0.476   0.045  10.910
 2981SOL    HW2 9504   0.481   4.406  10.969
 2982SOL     OW 9505   1.212   4.255   9.577
 2982SOL    HW1 9506   1.221   4.176   9.629
 2982SOL    HW2 9507   1.162   4.315   9.633
 2983SOL     OW 9508   0.301   3.922  10.553
 2983SOL    HW1 9509   0.265   3.954  10.635
 2983SOL    HW2 9510   0.285   3.828  10.554
 2984SOL     OW 9511   0.732   4.359  10.360
 2984SOL    HW1 9512   0.804   4.326  10.307
 2984SOL    HW2 9513   0.733   4.454  10.345
 2985SOL     OW 9514   0.308   3.794   9.929
 2985SOL    HW1 9515   0.286   3.882   9.957
 2985SOL    HW2 9516   0.303   3.741  10.009
 2986SOL     OW 9517   1.612   4.091   9.680
 2986SOL    HW1 9518   1.640   4.030   9.748
 2986SOL    HW2 9519   1.590   4.171   9.727
 2987SOL     OW 9520   1.529   3.999   9.437
 2987SOL    HW1 9521   1.467   3.932   9.463
 2987SOL    HW2 9522   1.563   4.034   9.519
 2988SOL     OW 9523   0.318   0.019  10.234
 2988SOL    HW1 9524   0.401   0.065  10.241
 2988SOL    HW2 9525   0.330   4.439  10.286
 2989SOL     OW 9526   0.337   4.239  10.312
 2989SOL    HW1 9527   0.292   4.157  10.291
 2989SOL    HW2 9528   0.411   4.242  10.253
 2990SOL     OW 9529   1.157   3.933  10.781
 2990SOL    HW1 9530   1.165   3.992  10.856
 2990SOL    HW2 9531   1.196   3.982  10.708
 2991SOL     OW 9532   0.028   4.277  10.416
 2991SOL    HW1 9533   0.113   4.256  10.380
 2991SOL    HW2 9534   0.033   4.248  10.508
 2992SOL     OW 9535   1.355   0.183  10.988
 2992SOL    HW1 9536   1.413   0.258  10.999
 2992SOL    HW2 9537   1.369   0.154  10.898
 2993SOL     OW 9538   0.819   4.288   9.649
 2993SOL    HW1 9539   0.817   4.209   9.595
 2993SOL    HW2 9540   0.730   4.321   9.648
 2994SOL     OW 9541   1.638   4.319  10.499
 2994SOL    HW1 9542   1.633   4.260  10.574
 2994SOL    HW2 9543   1.726   4.305  10.464
 2995SOL     OW 9544   0.680   4.184  10.570
 2995SOL    HW1 9545   0.639   4.104  10.536
 2995SOL    HW2 9546   0.685   4.243  10.495
 2996SOL     OW 9547   0.486   4.222   9.500
 2996SOL    HW1 9548   0.520   4.309   9.521
 2996SOL    HW2 9549   0.392   4.236   9.488
 2997SOL     OW 9550   1.719   3.866   9.823
 2997SOL    HW1 9551   1.792   3.852   9.763
 2997SOL    HW2 9552   1.703   3.780   9.862
 2998SOL     OW 9553   1.280   0.138   9.989
 2998SOL    HW1 9554   1.338   0.062   9.994
 2998SOL    HW2 9555   1.330   0.203   9.939
 2999SOL     OW 9556   1.839   3.897  10.277
 2999SOL    HW1 9557   1.868   3.811  10.248
 2999SOL    HW2 9558   1.753   3.909  10.238
 3000SOL     OW 9559   0.268   4.042  10.030
 3000SOL    HW1 9560   0.191   4.090  10.001
 3000SOL    HW2 9561   0.256   4.030  10.125
 3001SOL     OW 9562   0.911   0.094   9.537
 3001SOL    HW1 9563   0.992   0.135   9.509
 3001SOL    HW2 9564   0.933   0.050   9.619
 3002SOL     OW 9565   1.067   0.306  10.046
 3002SOL    HW1 9566   0.983   0.286  10.006
 3002SOL    HW2 9567   1.127   0.240  10.011
 3003SOL     OW 9568   1.019   3.964  10.275
 3003SOL    HW1 9569   1.013   3.916  10.193
 3003SOL    HW2 9570   1.014   3.896  10.343
 3004SOL     OW 9571   1.716   4.116  10.689
 3004SOL    HW1 9572   1.788   4.180  10.689
 3004SOL    HW2 9573   1.747   4.045  10.633
 3005SOL     OW 9574   0.672   3.920  10.804
 3005SOL    HW1 9575   0.754   3.900  10.758
 3005SOL    HW2 9576   0.700   3.953  10.889
 3006SOL     OW 9577   0.068   4.046   9.341
 3006SOL    HW1 9578   4.474   4.062   9.334
 3006SOL    HW2 9579   0.108   4.131   9.324
 3007SOL     OW 9580   0.084   3.903   9.617
 3007SOL    HW1 9581   0.076   3.972   9.552
 3007SOL    HW2 9582   0.160   3.851   9.589
 3008SOL     OW 9583   0.718   4.290  11.022
 3008SOL    HW1 9584   0.749   4.344  11.095
 3008SOL    HW2 9585   0.769   4.209  11.031
 3009SOL     OW 9586   1.220   4.043   9.765
 3009SOL    HW1 9587   1.283   3.972   9.756
 3009SOL    HW2 9588   1.248   4.091   9.843
 3010SOL     OW 9589   1.756   4.052  10.952
 3010SOL    HW1 9590   1.734   4.082  10.863
 3010SOL    HW2 9591   1.672   4.053  10.998
 3011SOL     OW 9592   1.109   0.230   9.415
 3011SOL    HW1 9593   1.088   0.269   9.330
 3011SOL    HW2 9594   1.188   0.178   9.397
 3012SOL     OW 9595   1.811   3.909  10.548
 3012SOL    HW1 9596   1.823   3.816  10.564
 3012SOL    HW2 9597   1.821   3.919  10.453
 3013SOL     OW 9598   0.451   4.151   9.846
 3013SOL    HW1 9599   0.461   4.079   9.785
 3013SOL    HW2 9600   0.391   4.118   9.913
 3014SOL     OW 9601   0.313   4.236  10.576
 3014SOL    HW1 9602   0.374   4.178  10.621
 3014SOL    HW2 9603   0.337   4.230  10.484
 3015SOL     OW 9604   1.432   3.947  10.428
 3015SOL    HW1 9605   1.462   3.870  10.475
 3015SOL    HW2 9606   1.380   3.995  10.492
 3016SOL     OW 9607   1.008   3.745  10.456
 3016SOL    HW1 9608   0.953   3.677  10.417
 3016SOL    HW2 9609   1.096   3.707  10.457
 3017SOL     OW 9610   1.352   3.777   9.473
 3017SOL    HW1 9611   1.378   3.718   9.403
 3017SOL    HW2 9612   1.266   3.746   9.501
 3018SOL     OW 9613   1.299   4.176   9.993
 3018SOL    HW1 9614   1.256   4.261  10.007
 3018SOL    HW2 9615   1.300   4.135  10.079
 3019SOL     OW 9616   1.587   3.930  10.187
 3019SOL    HW1 9617   1.524   3.948  10.255
 3019SOL    HW2 9618   1.588   4.009  10.133
 3020SOL     OW 9619   2.090   0.618   0.121
 3020SOL    HW1 9620   2.002   0.621   0.158
 3020SOL    HW2 9621   2.077   0.627   0.026
 3021SOL     OW 9622   2.072   0.295   0.988
 3021SOL    HW1 9623   2.103   0.269   1.075
 3021SOL    HW2 9624   1.990   0.248   0.977
 3022SOL     OW 9625   1.870   0.383   0.639
 3022SOL    HW1 9626   1.785   0.404   0.676
 3022SOL    HW2 9627   1.854   0.307   0.583
 3023SOL     OW 9628   2.429   1.282   1.171
 3023SOL    HW1 9629   2.341   1.284   1.135
 3023SOL    HW2 9630   2.442   1.371   1.206
 3024SOL     OW 9631   3.419   1.511   0.705
 3024SOL    HW1 9632   3.375   1.493   0.788
 3024SOL    HW2 9633   3.348   1.516   0.641
 3025SOL     OW 9634   2.993   0.700   0.701
 3025SOL    HW1 9635   3.042   0.782   0.691
 3025SOL    HW2 9636   2.944   0.712   0.783
 3026SOL     OW 9637   3.635   0.604   0.221
 3026SOL    HW1 9638   3.587   0.601   0.138
 3026SOL    HW2 9639   3.596   0.533   0.273
 3027SOL     OW 9640   2.622   1.145   1.038
 3027SOL    HW1 9641   2.551   1.177   1.093
 3027SOL    HW2 9642   2.655   1.223   0.993
 3028SOL     OW 9643   2.724   0.781   1.821
 3028SOL    HW1 9644   2.712   0.852   1.884
 3028SOL    HW2 9645   2.748   0.824   1.739
 3029SOL     OW 9646   2.549   1.008   0.648
 3029SOL    HW1 9647   2.612   0.992   0.718
 3029SOL    HW2 9648   2.478   1.056   0.691
 3030SOL     OW 9649   2.569   1.152   1.808
 3030SOL    HW1 9650   2.617   1.231   1.833
 3030SOL    HW2 9651   2.485   1.184   1.776
 3031SOL     OW 9652   2.193   1.429   1.069
 3031SOL    HW1 9653   2.120   1.392   1.018
 3031SOL    HW2 9654   2.244   1.478   1.004
 3032SOL     OW 9655   3.324   1.498   1.350
 3032SOL    HW1 9656   3.367   1.583   1.361
 3032SOL    HW2 9657   3.269   1.489   1.428
 3033SOL     OW 9658   2.303   0.396   1.492
 3033SOL    HW1 9659   2.384   0.346   1.493
 3033SOL    HW2 9660   2.234   0.330   1.504
 3034SOL     OW 9661   3.475   0.449   0.738
 3034SOL    HW1 9662   3.393   0.472   0.693
 3034SOL    HW2 9663   3.496   0.525   0.791
 3035SOL     OW 9664   2.080   1.710   0.473
 3035SOL    HW1 9665   2.105   1.785   0.527
 3035SOL    HW2 9666   2.149   1.704   0.407
 3036SOL     OW 9667   2.998   1.341   1.691
 3036SOL    HW1 9668   3.037   1.338   1.778
 3036SOL    HW2 9669   2.945   1.261   1.686
 3037SOL     OW 9670   2.091   1.439   0.535
 3037SOL    HW1 9671   2.073   1.533   0.538
 3037SOL    HW2 9672   2.028   1.400   0.595
 3038SOL     OW 9673   2.116   1.090   0.890
 3038SOL    HW1 9674   2.113   1.004   0.933
 3038SOL    HW2 9675   2.058   1.145   0.943
 3039SOL     OW 9676   2.476   1.789   1.428
 3039SOL    HW1 9677   2.394   1.772   1.474
 3039SOL    HW2 9678   2.501   1.878   1.455
 3040SOL     OW 9679   2.449   0.984   0.138
 3040SOL    HW1 9680   2.486   1.043   0.071
 3040SOL    HW2 9681   2.493   1.009   0.219
 3041SOL     OW 9682   3.448   0.114   1.475
 3041SOL    HW1 9683   3.458   0.182   1.408
 3041SOL    HW2 9684   3.437   0.162   1.557
 3042SOL     OW 9685   1.977   0.651   0.559
 3042SOL    HW1 9686   1.947   0.562   0.581
 3042SOL    HW2 9687   1.968   0.700   0.641
 3043SOL     OW 9688   3.703   1.761   0.337
 3043SOL    HW1 9689   3.763   1.730   0.405
 3043SOL    HW2 9690   3.732   1.850   0.318
 3044SOL     OW 9691   1.905   1.602   0.121
 3044SOL    HW1 9692   1.877   1.513   0.141
 3044SOL    HW2 9693   1.875   1.655   0.195
 3045SOL     OW 9694   3.552   0.919   0.638
 3045SOL    HW1 9695   3.638   0.881   0.620
 3045SOL    HW2 9696   3.532   0.970   0.559
 3046SOL     OW 9697   3.507   1.107   0.432
 3046SOL    HW1 9698   3.589   1.120   0.384
 3046SOL    HW2 9699   3.512   1.168   0.505
 3047SOL     OW 9700   1.984   0.743   1.586
 3047SOL    HW1 9701   2.075   0.765   1.601
 3047SOL    HW2 9702   1.937   0.826   1.593
 3048SOL     OW 9703   2.475   1.382   0.735
 3048SOL    HW1 9704   2.429   1.299   0.744
 3048SOL    HW2 9705   2.458   1.409   0.644
 3049SOL     OW 9706   3.153   1.239   1.424
 3049SOL    HW1 9707   3.185   1.171   1.365
 3049SOL    HW2 9708   3.208   1.231   1.502
 3050SOL     OW 9709   2.677   0.009   0.548
 3050SOL    HW1 9710   2.715   0.088   0.509
 3050SOL    HW2 9711   2.583   0.022   0.541
 3051SOL     OW 9712   2.054   0.969   1.269
 3051SOL    HW1 9713   2.138   0.925   1.253
 3051SOL    HW2 9714   1.989   0.912   1.227
 3052SOL     OW 9715   3.383   0.997   0.200
 3052SOL    HW1 9716   3.319   0.935   0.233
 3052SOL    HW2 9717   3.430   1.027   0.278
 3053SOL     OW 9718   3.048   1.804   1.620
 3053SOL    HW1 9719   3.063   1.861   1.545
 3053SOL    HW2 9720   3.062   1.715   1.587
 3054SOL     OW 9721   2.177   0.255   1.782
 3054SOL    HW1 9722   2.241   0.319   1.814
 3054SOL    HW2 9723   2.103   0.264   1.841
 3055SOL     OW 9724   3.327   1.420   0.953
 3055SOL    HW1 9725   3.259   1.433   1.019
 3055SOL    HW2 9726   3.316   1.329   0.925
 3056SOL     OW 9727   3.522   1.734   0.579
 3056SOL    HW1 9728   3.501   1.706   0.490
 3056SOL    HW2 9729   3.497   1.660   0.634
 3057SOL     OW 9730   2.455   0.720   0.262
 3057SOL    HW1 9731   2.466   0.801   0.212
 3057SOL    HW2 9732   2.391   0.743   0.330
 3058SOL     OW 9733   3.150   0.357   0.935
 3058SOL    HW1 9734   3.060   0.324   0.924
 3058SOL    HW2 9735   3.190   0.296   0.996
 3059SOL     OW 9736   3.444   1.669   0.311
 3059SOL    HW1 9737   3.533   1.702   0.305
 3059SOL    HW2 9738   3.419   1.650   0.220
 3060SOL     OW 9739   2.658   0.618   1.455
 3060SOL    HW1 9740   2.629   0.594   1.543
 3060SOL    HW2 9741   2.615   0.553   1.398
 3061SOL     OW 9742   3.251   0.478   1.676
 3061SOL    HW1 9743   3.253   0.521   1.761
 3061SOL    HW2 9744   3.318   0.409   1.683
 3062SOL     OW 9745   2.820   0.889   1.581
 3062SOL    HW1 9746   2.874   0.817   1.547
 3062SOL    HW2 9747   2.773   0.921   1.504
 3063SOL     OW 9748   2.857   0.417   1.239
 3063SOL    HW1 9749   2.772   0.431   1.281
 3063SOL    HW2 9750   2.836   0.366   1.160
 3064SOL     OW 9751   2.910   0.701   0.428
 3064SOL    HW1 9752   2.927   0.692   0.522
 3064SOL    HW2 9753   2.829   0.652   0.413
 3065SOL     OW 9754   1.952   0.820   0.775
 3065SOL    HW1 9755   2.033   0.813   0.825
 3065SOL    HW2 9756   1.908   0.897   0.810
 3066SOL     OW 9757   1.988   1.813   1.573
 3066SOL    HW1 9758   1.977   1.811   1.668
 3066SOL    HW2 9759   1.923   1.876   1.543
 3067SOL     OW 9760   2.736   0.357   0.197
 3067SOL    HW1 9761   2.794   0.411   0.144
 3067SOL    HW2 9762   2.769   0.268   0.187
 3068SOL     OW 9763   3.569   0.576   1.828
 3068SOL    HW1 9764   3.534   0.653   1.783
 3068SOL    HW2 9765   3.601   0.520   1.757
 3069SOL     OW 9766   3.237   1.142   0.542
 3069SOL    HW1 9767   3.315   1.127   0.489
 3069SOL    HW2 9768   3.185   1.205   0.491
 3070SOL     OW 9769   2.403   0.202   0.900
 3070SOL    HW1 9770   2.422   0.219   0.992
 3070SOL    HW2 9771   2.395   0.289   0.861
 3071SOL     OW 9772   2.871   1.446   0.474
 3071SOL    HW1 9773   2.829   1.517   0.426
 3071SOL    HW2 9774   2.856   1.468   0.566
 3072SOL     OW 9775   2.216   1.796   0.864
 3072SOL    HW1 9776   2.252   1.708   0.871
 3072SOL    HW2 9777   2.291   1.854   0.881
 3073SOL     OW 9778   3.659   1.061   0.868
 3073SOL    HW1 9779   3.603   1.044   0.792
 3073SOL    HW2 9780   3.600   1.065   0.942
 3074SOL     OW 9781   3.090   1.540   1.512
 3074SOL    HW1 9782   3.076   1.467   1.573
 3074SOL    HW2 9783   3.029   1.523   1.440
 3075SOL     OW 9784   2.180   0.956   0.273
 3075SOL    HW1 9785   2.258   0.982   0.225
 3075SOL    HW2 9786   2.151   0.875   0.230
 3076SOL     OW 9787   3.339   0.738   0.725
 3076SOL    HW1 9788   3.324   0.692   0.808
 3076SOL    HW2 9789   3.414   0.795   0.741
 3077SOL     OW 9790   2.326   1.263   1.737
 3077SOL    HW1 9791   2.298   1.268   1.646
 3077SOL    HW2 9792   2.245   1.261   1.788
 3078SOL     OW 9793   2.969   1.778   0.226
 3078SOL    HW1 9794   2.912   1.725   0.282
 3078SOL    HW2 9795   3.009   1.716   0.166
 3079SOL     OW 9796   2.051   0.268   1.508
 3079SOL    HW1 9797   1.985   0.335   1.491
 3079SOL    HW2 9798   2.060   0.267   1.603
 3080SOL     OW 9799   3.490   1.375   0.088
 3080SOL    HW1 9800   3.448   1.460   0.076
 3080SOL    HW2 9801   3.424   1.311   0.062
 3081SOL     OW 9802   2.329   1.736   0.324
 3081SOL    HW1 9803   2.369   1.796   0.388
 3081SOL    HW2 9804   2.400   1.711   0.266
 3082SOL     OW 9805   3.278   0.129   0.424
 3082SOL    HW1 9806   3.255   0.094   0.338
 3082SOL    HW2 9807   3.374   0.131   0.425
 3083SOL     OW 9808   2.113   1.784   1.236
 3083SOL    HW1 9809   2.169   1.719   1.279
 3083SOL    HW2 9810   2.105   1.752   1.146
 3084SOL     OW 9811   2.798   1.698   0.902
 3084SOL    HW1 9812   2.876   1.645   0.922
 3084SOL    HW2 9813   2.754   1.649   0.832
 3085SOL     OW 9814   2.252   0.694   0.476
 3085SOL    HW1 9815   2.276   0.602   0.488
 3085SOL    HW2 9816   2.159   0.697   0.497
 3086SOL     OW 9817   3.388   0.232   1.722
 3086SOL    HW1 9818   3.387   0.256   1.815
 3086SOL    HW2 9819   3.313   0.174   1.711
 3087SOL     OW 9820   2.466   0.098   0.122
 3087SOL    HW1 9821   2.560   0.082   0.129
 3087SOL    HW2 9822   2.449   0.100   0.028
 3088SOL     OW 9823   2.633   0.271   1.752
 3088SOL    HW1 9824   2.696   0.201   1.770
 3088SOL    HW2 9825   2.583   0.279   1.834
 3089SOL     OW 9826   2.739   1.521   1.193
 3089SOL    HW1 9827   2.724   1.484   1.106
 3089SOL    HW2 9828   2.808   1.466   1.231
 3090SOL     OW 9829   3.205   0.589   1.430
 3090SOL    HW1 9830   3.232   0.559   1.516
 3090SOL    HW2 9831   3.238   0.678   1.423
 3091SOL     OW 9832   2.675   1.399   0.936
 3091SOL    HW1 9833   2.759   1.388   0.891
 3091SOL    HW2 9834   2.610   1.395   0.866
 3092SOL     OW 9835   2.785   0.514   0.902
 3092SOL    HW1 9836   2.768   0.513   0.807
 3092SOL    HW2 9837   2.826   0.429   0.920
 3093SOL     OW 9838   2.415   0.072   0.521
 3093SOL    HW1 9839   2.326   0.051   0.547
 3093SOL    HW2 9840   2.405   0.141   0.454
 3094SOL     OW 9841   3.289   1.196   0.032
 3094SOL    HW1 9842   3.322   1.123   0.085
 3094SOL    HW2 9843   3.205   1.219   0.073
 3095SOL     OW 9844   2.150   0.058   0.196
 3095SOL    HW1 9845   2.217   0.108   0.150
 3095SOL    HW2 9846   2.198   0.004   0.259
 3096SOL     OW 9847   2.810   0.225   0.444
 3096SOL    HW1 9848   2.763   0.292   0.395
 3096SOL    HW2 9849   2.899   0.261   0.454
 3097SOL     OW 9850   2.942   0.679   1.461
 3097SOL    HW1 9851   2.869   0.616   1.463
 3097SOL    HW2 9852   3.020   0.625   1.450
 3098SOL     OW 9853   3.086   1.570   0.794
 3098SOL    HW1 9854   3.106   1.637   0.728
 3098SOL    HW2 9855   3.154   1.580   0.860
 3099SOL     OW 9856   2.330   1.148   0.739
 3099SOL    HW1 9857   2.259   1.129   0.800
 3099SOL    HW2 9858   2.292   1.132   0.652
 3100SOL     OW 9859   3.132   1.795   0.603
 3100SOL    HW1 9860   3.178   1.857   0.546
 3100SOL    HW2 9861   3.070   1.849   0.652
 3101SOL     OW 9862   2.884   0.535   0.032
 3101SOL    HW1 9863   2.848   0.620   0.005
 3101SOL    HW2 9864   2.956   0.557   0.090
 3102SOL     OW 9865   1.941   0.552   1.394
 3102SOL    HW1 9866   2.032   0.554   1.363
 3102SOL    HW2 9867   1.935   0.624   1.457
 3103SOL     OW 9868   2.426   0.241   1.164
 3103SOL    HW1 9869   2.454   0.157   1.201
 3103SOL    HW2 9870   2.335   0.249   1.190
 3104SOL     OW 9871   2.725   0.506   0.627
 3104SOL    HW1 9872   2.677   0.542   0.553
 3104SOL    HW2 9873   2.711   0.412   0.622
 3105SOL     OW 9874   2.831   0.037   0.774
 3105SOL    HW1 9875   2.782   0.028   0.692
 3105SOL    HW2 9876   2.846   4.447   0.803
 3106SOL     OW 9877   3.297   1.164   0.858
 3106SOL    HW1 9878   3.231   1.095   0.856
 3106SOL    HW2 9879   3.321   1.177   0.766
 3107SOL     OW 9880   3.330   0.602   0.979
 3107SOL    HW1 9881   3.279   0.521   0.983
 3107SOL    HW2 9882   3.389   0.597   1.054
 3108SOL     OW 9883   3.712   0.817   0.378
 3108SOL    HW1 9884   3.764   0.765   0.440
 3108SOL    HW2 9885   3.682   0.753   0.313
 3109SOL     OW 9886   2.355   1.422   0.174
 3109SOL    HW1 9887   2.278   1.396   0.223
 3109SOL    HW2 9888   2.349   1.374   0.091
 3110SOL     OW 9889   3.530   1.265   0.649
 3110SOL    HW1 9890   3.625   1.271   0.661
 3110SOL    HW2 9891   3.498   1.353   0.670
 3111SOL     OW 9892   3.252   0.576   0.076
 3111SOL    HW1 9893   3.192   0.556   0.148
 3111SOL    HW2 9894   3.327   0.518   0.091
 3112SOL     OW 9895   2.388   0.264   0.326
 3112SOL    HW1 9896   2.419   0.204   0.257
 3112SOL    HW2 9897   2.374   0.347   0.281
 3113SOL     OW 9898   3.616   1.236   1.576
 3113SOL    HW1 9899   3.703   1.197   1.574
 3113SOL    HW2 9900   3.630   1.325   1.607
 3114SOL     OW 9901   2.923   1.354   1.335
 3114SOL    HW1 9902   2.848   1.322   1.386
 3114SOL    HW2 9903   2.999   1.312   1.376
 3115SOL     OW 9904   3.467   1.625   1.651
 3115SOL    HW1 9905   3.465   1.659   1.561
 3115SOL    HW2 9906   3.551   1.579   1.657
 3116SOL     OW 9907   2.988   1.202   1.107
 3116SOL    HW1 9908   2.929   1.239   1.173
 3116SOL    HW2 9909   2.952   1.231   1.023
 3117SOL     OW 9910   3.493   1.100   1.079
 3117SOL    HW1 9911   3.489   1.162   1.151
 3117SOL    HW2 9912   3.412   1.115   1.030
 3118SOL     OW 9913   2.767   0.130   1.390
 3118SOL    HW1 9914   2.789   0.086   1.308
 3118SOL    HW2 9915   2.851   0.142   1.435
 3119SOL     OW 9916   2.846   1.114   1.722
 3119SOL    HW1 9917   2.753   1.129   1.741
 3119SOL    HW2 9918   2.846   1.037   1.666
 3120SOL     OW 9919   2.571   1.060   0.372
 3120SOL    HW1 9920   2.556   1.046   0.466
 3120SOL    HW2 9921   2.648   1.006   0.352
 3121SOL     OW 9922   2.279   0.814   1.251
 3121SOL    HW1 9923   2.348   0.824   1.316
 3121SOL    HW2 9924   2.244   0.726   1.266
 3122SOL     OW 9925   3.131   0.377   1.271
 3122SOL    HW1 9926   3.163   0.455   1.317
 3122SOL    HW2 9927   3.042   0.400   1.243
 3123SOL     OW 9928   1.928   1.570   1.346
 3123SOL    HW1 9929   1.894   1.648   1.302
 3123SOL    HW2 9930   2.023   1.584   1.348
 3124SOL     OW 9931   2.218   1.111   0.496
 3124SOL    HW1 9932   2.215   1.184   0.435
 3124SOL    HW2 9933   2.211   1.033   0.441
 3125SOL     OW 9934   2.420   0.533   0.859
 3125SOL    HW1 9935   2.436   0.591   0.785
 3125SOL    HW2 9936   2.481   0.562   0.927
 3126SOL     OW 9937   3.110   1.346   0.393
 3126SOL    HW1 9938   3.165   1.419   0.421
 3126SOL    HW2 9939   3.022   1.368   0.425
 3127SOL     OW 9940   3.139   1.455   1.146
 3127SOL    HW1 9941   3.193   1.457   1.224
 3127SOL    HW2 9942   3.084   1.378   1.157
 3128SOL     OW 9943   3.447   0.629   0.474
 3128SOL    HW1 9944   3.400   0.675   0.542
 3128SOL    HW2 9945   3.486   0.698   0.420
 3129SOL     OW 9946   2.212   1.522   1.319
 3129SOL    HW1 9947   2.196   1.481   1.234
 3129SOL    HW2 9948   2.307   1.535   1.322
 3130SOL     OW 9949   2.275   0.744   1.602
 3130SOL    HW1 9950   2.334   0.791   1.543
 3130SOL    HW2 9951   2.319   0.660   1.619
 3131SOL     OW 9952   3.460   0.777   1.679
 3131SOL    HW1 9953   3.373   0.817   1.671
 3131SOL    HW2 9954   3.512   0.819   1.611
 3132SOL     OW 9955   2.870   0.086   1.728
 3132SOL    HW1 9956   2.890   0.171   1.688
 3132SOL    HW2 9957   2.896   0.022   1.661
 3133SOL     OW 9958   2.362   0.050   1.755
 3133SOL    HW1 9959   2.349   0.001   1.674
 3133SOL    HW2 9960   2.293   0.116   1.755
 3134SOL     OW 9961   2.444   0.872   1.031
 3134SOL    HW1 9962   2.474   0.963   1.028
 3134SOL    HW2 9963   2.387   0.868   1.108
 3135SOL     OW 9964   3.223   0.859   1.034
 3135SOL    HW1 9965   3.141   0.852   0.983
 3135SOL    HW2 9966   3.260   0.771   1.030
 3136SOL     OW 9967   3.065   0.531   0.268
 3136SOL    HW1 9968   3.074   0.453   0.322
 3136SOL    HW2 9969   3.025   0.596   0.326
 3137SOL     OW 9970   2.153   0.236   1.240
 3137SOL    HW1 9971   2.112   0.251   1.325
 3137SOL    HW2 9972   2.181   0.144   1.243
 3138SOL     OW 9973   1.908   1.309   1.277
 3138SOL    HW1 9974   1.942   1.258   1.350
 3138SOL    HW2 9975   1.915   1.400   1.306
 3139SOL     OW 9976   2.587   0.632   1.060
 3139SOL    HW1 9977   2.659   0.612   1.000
 3139SOL    HW2 9978   2.560   0.721   1.036
 3140SOL     OW 9979   3.595   0.959   1.851
 3140SOL    HW1 9980   3.546   0.904   1.789
 3140SOL    HW2 9981   3.536   0.970   1.925
 3141SOL     OW 9982   2.163   0.062   0.652
 3141SOL    HW1 9983   2.152   0.156   0.659
 3141SOL    HW2 9984   2.173   0.032   0.743
 3142SOL     OW 9985   3.475   0.374   0.367
 3142SOL    HW1 9986   3.505   0.310   0.432
 3142SOL    HW2 9987   3.451   0.451   0.418
 3143SOL     OW 9988   2.889   0.761   0.963
 3143SOL    HW1 9989   2.889   0.777   1.057
 3143SOL    HW2 9990   2.861   0.670   0.954
 3144SOL     OW 9991   2.845   1.566   1.714
 3144SOL    HW1 9992   2.829   1.610   1.631
 3144SOL    HW2 9993   2.887   1.484   1.690
 3145SOL     OW 9994   3.718   1.509   1.606
 3145SOL    HW1 9995   3.734   1.535   1.515
 3145SOL    HW2 9996   3.799   1.530   1.652
 3146SOL     OW 9997   2.216   0.916   1.807
 3146SOL    HW1 9998   2.298   0.934   1.853
 3146SOL    HW2 9999   2.239   0.854   1.739
 3147SOL     OW10000   3.399   0.291   0.114
 3147SOL    HW110001   3.339   0.217   0.127
 3147SOL    HW210002   3.428   0.314   0.203
 3148SOL     OW10003   3.152   0.825   0.033
 3148SOL    HW110004   3.195   0.740   0.043
 3148SOL    HW210005   3.184   0.858  11.049
 3149SOL     OW10006   2.926   1.335   0.852
 3149SOL    HW110007   2.929   1.261   0.790
 3149SOL    HW210008   2.990   1.398   0.818
 3150SOL     OW10009   2.172   0.810   0.948
 3150SOL    HW110010   2.265   0.832   0.942
 3150SOL    HW210011   2.171   0.721   0.983
 3151SOL     OW10012   2.199   0.528   1.012
 3151SOL    HW110013   2.157   0.444   0.993
 3151SOL    HW210014   2.274   0.531   0.953
 3152SOL     OW10015   2.997   0.375   1.692
 3152SOL    HW110016   2.950   0.440   1.744
 3152SOL    HW210017   3.084   0.414   1.679
 3153SOL     OW10018   3.023   0.211   1.474
 3153SOL    HW110019   3.014   0.275   1.544
 3153SOL    HW210020   3.057   0.261   1.400
 3154SOL     OW10021   1.869   1.328   0.196
 3154SOL    HW110022   1.782   1.340   0.157
 3154SOL    HW210023   1.870   1.237   0.225
 3155SOL     OW10024   1.949   1.792   0.934
 3155SOL    HW110025   1.918   1.711   0.893
 3155SOL    HW210026   2.041   1.798   0.908
 3156SOL     OW10027   2.362   1.570   0.905
 3156SOL    HW110028   2.431   1.634   0.924
 3156SOL    HW210029   2.405   1.504   0.851
 3157SOL     OW10030   2.850   0.795   1.229
 3157SOL    HW110031   2.902   0.769   1.305
 3157SOL    HW210032   2.764   0.757   1.245
 3158SOL     OW10033   1.896   0.542   1.118
 3158SOL    HW110034   1.975   0.522   1.068
 3158SOL    HW210035   1.926   0.549   1.208
 3159SOL     OW10036   2.047   0.517   1.720
 3159SOL    HW110037   2.119   0.496   1.660
 3159SOL    HW210038   2.004   0.592   1.679
 3160SOL     OW10039   3.238   0.941   1.660
 3160SOL    HW110040   3.258   1.035   1.660
 3160SOL    HW210041   3.236   0.917   1.567
 3161SOL     OW10042   2.674   0.574   0.355
 3161SOL    HW110043   2.679   0.498   0.297
 3161SOL    HW210044   2.598   0.624   0.323
 3162SOL     OW10045   3.504   0.601   1.190
 3162SOL    HW110046   3.493   0.541   1.263
 3162SOL    HW210047   3.591   0.581   1.155
 3163SOL     OW10048   2.113   1.551   1.733
 3163SOL    HW110049   2.083   1.613   1.800
 3163SOL    HW210050   2.108   1.466   1.775
 3164SOL     OW10051   2.555   0.460   1.265
 3164SOL    HW110052   2.510   0.382   1.232
 3164SOL    HW210053   2.557   0.520   1.191
 3165SOL     OW10054   2.792   1.679   1.466
 3165SOL    HW110055   2.766   1.648   1.379
 3165SOL    HW210056   2.792   1.774   1.459
 3166SOL     OW10057   2.328   0.489   0.182
 3166SOL    HW110058   2.387   0.561   0.202
 3166SOL    HW210059   2.241   0.530   0.178
 3167SOL     OW10060   2.011   1.140   1.472
 3167SOL    HW110061   2.015   1.086   1.550
 3167SOL    HW210062   2.027   1.079   1.400
 3168SOL     OW10063   3.191   1.049   1.225
 3168SOL    HW110064   3.215   0.986   1.157
 3168SOL    HW210065   3.119   1.099   1.187
 3169SOL     OW10066   3.169   0.853   0.310
 3169SOL    HW110067   3.092   0.823   0.357
 3169SOL    HW210068   3.147   0.840   0.217
 3170SOL     OW10069   3.630   1.747   1.148
 3170SOL    HW110070   3.690   1.773   1.078
 3170SOL    HW210071   3.607   1.656   1.128
 3171SOL     OW10072   3.104   1.733   1.117
 3171SOL    HW110073   3.185   1.751   1.070
 3171SOL    HW210074   3.107   1.639   1.134
 3172SOL     OW10075   1.946   1.265   1.014
 3172SOL    HW110076   1.933   1.277   1.108
 3172SOL    HW210077   1.871   1.214   0.985
 3173SOL     OW10078   2.540   1.662   1.723
 3173SOL    HW110079   2.490   1.744   1.724
 3173SOL    HW210080   2.603   1.673   1.652
 3174SOL     OW10081   2.743   0.063   0.126
 3174SOL    HW110082   2.826   0.091   0.089
 3174SOL    HW210083   2.766   0.018   0.207
 3175SOL     OW10084   3.581   0.133   0.501
 3175SOL    HW110085   3.655   0.135   0.440
 3175SOL    HW210086   3.595   0.055   0.554
 3176SOL     OW10087   3.251   1.568   0.483
 3176SOL    HW110088   3.313   1.598   0.416
 3176SOL    HW210089   3.206   1.647   0.511
 3177SOL     OW10090   2.000   1.800   1.848
 3177SOL    HW110091   1.947   1.732   1.890
 3177SOL    HW210092   2.044   1.845   1.920
 3178SOL     OW10093   3.140   0.926   0.673
 3178SOL    HW110094   3.212   0.863   0.675
 3178SOL    HW210095   3.174   0.999   0.620
 3179SOL     OW10096   2.681   1.272   1.431
 3179SOL    HW110097   2.655   1.310   1.515
 3179SOL    HW210098   2.608   1.293   1.372
 3180SOL     OW10099   2.535   1.620   0.166
 3180SOL    HW110100   2.546   1.627   0.071
 3180SOL    HW210101   2.479   1.543   0.177
 3181SOL     OW10102   3.495   1.726   1.392
 3181SOL    HW110103   3.542   1.734   1.309
 3181SOL    HW210104   3.481   1.817   1.421
 3182SOL     OW10105   3.701   0.156   0.967
 3182SOL    HW110106   3.731   0.079   0.918
 3182SOL    HW210107   3.614   0.175   0.931
 3183SOL     OW10108   2.128   0.325   0.720
 3183SOL    HW110109   2.043   0.358   0.691
 3183SOL    HW210110   2.119   0.315   0.814
 3184SOL     OW10111   3.083   1.604   0.050
 3184SOL    HW110112   3.071   1.512   0.071
 3184SOL    HW210113   3.017   1.623  11.084
 3185SOL     OW10114   2.686   1.006   1.372
 3185SOL    HW110115   2.729   1.002   1.286
 3185SOL    HW210116   2.688   1.098   1.396
 3186SOL     OW10117   2.776   0.907   0.283
 3186SOL    HW110118   2.844   0.946   0.227
 3186SOL    HW210119   2.822   0.841   0.334
 3187SOL     OW10120   3.362   1.622   0.046
 3187SOL    HW110121   3.266   1.619   0.041
 3187SOL    HW210122   3.390   1.634  11.055
 3188SOL     OW10123   2.232   1.300   1.492
 3188SOL    HW110124   2.218   1.379   1.439
 3188SOL    HW210125   2.154   1.246   1.475
 3189SOL     OW10126   3.474   1.283   1.281
 3189SOL    HW110127   3.533   1.276   1.356
 3189SOL    HW210128   3.413   1.353   1.305
 3190SOL     OW10129   2.910   1.105   0.704
 3190SOL    HW110130   2.840   1.053   0.745
 3190SOL    HW210131   2.972   1.040   0.672
 3191SOL     OW10132   2.875   0.239   0.988
 3191SOL    HW110133   2.877   0.201   0.901
 3191SOL    HW210134   2.865   0.164   1.047
 3192SOL     OW10135   2.464   1.492   0.482
 3192SOL    HW110136   2.503   1.438   0.414
 3192SOL    HW210137   2.395   1.541   0.438
 3193SOL     OW10138   3.581   0.393   1.378
 3193SOL    HW110139   3.653   0.456   1.376
 3193SOL    HW210140   3.611   0.321   1.322
 3194SOL     OW10141   2.126   1.340   0.290
 3194SOL    HW110142   2.037   1.342   0.254
 3194SOL    HW210143   2.117   1.379   0.377
 3195SOL     OW10144   1.974   1.018   1.719
 3195SOL    HW110145   1.898   0.995   1.773
 3195SOL    HW210146   2.049   0.982   1.767
 3196SOL     OW10147   2.521   0.203   1.496
 3196SOL    HW110148   2.602   0.179   1.450
 3196SOL    HW210149   2.550   0.222   1.586
 3197SOL     OW10150   1.939   0.350   0.053
 3197SOL    HW110151   1.863   0.312   0.010
 3197SOL    HW210152   1.959   0.428   0.001
 3198SOL     OW10153   3.294   0.858   1.401
 3198SOL    HW110154   3.245   0.918   1.344
 3198SOL    HW210155   3.384   0.861   1.368
 3199SOL     OW10156   1.929   0.178   0.326
 3199SOL    HW110157   1.923   0.246   0.259
 3199SOL    HW210158   2.003   0.123   0.299
 3200SOL     OW10159   3.043   1.343   0.121
 3200SOL    HW110160   2.951   1.319   0.117
 3200SOL    HW210161   3.066   1.336   0.214
 3201SOL     OW10162   2.480   0.831   1.432
 3201SOL    HW110163   2.535   0.908   1.418
 3201SOL    HW210164   2.542   0.758   1.441
 3202SOL     OW10165   3.347   1.774   0.975
 3202SOL    HW110166   3.374   1.831   0.903
 3202SOL    HW210167   3.428   1.758   1.024
 3203SOL     OW10168   2.579   0.564   1.706
 3203SOL    HW110169   2.613   0.629   1.768
 3203SOL    HW210170   2.616   0.481   1.736
 3204SOL     OW10171   3.330   1.203   1.633
 3204SOL    HW110172   3.318   1.216   1.727
 3204SOL    HW210173   3.424   1.215   1.619
 3205SOL     OW10174   2.246   1.739   1.564
 3205SOL    HW110175   2.158   1.773   1.547
 3205SOL    HW210176   2.231   1.654   1.605
 3206SOL     OW10177   3.534   0.882   1.256
 3206SOL    HW110178   3.524   0.797   1.213
 3206SOL    HW210179   3.525   0.946   1.185
 3207SOL     OW10180   3.081   0.326   0.447
 3207SOL    HW110181   3.146   0.256   0.439
 3207SOL    HW210182   3.105   0.372   0.528
 3208SOL     OW10183   2.451   0.741   0.668
 3208SOL    HW110184   2.492   0.825   0.651
 3208SOL    HW210185   2.381   0.734   0.602
 3209SOL     OW10186   3.628   0.361   1.642
 3209SOL    HW110187   3.611   0.375   1.549
 3209SOL    HW210188   3.550   0.317   1.675
 3210SOL     OW10189   3.606   0.933   1.513
 3210SOL    HW110190   3.608   1.028   1.526
 3210SOL    HW210191   3.591   0.922   1.419
 3211SOL     OW10192   2.758   1.358   0.060
 3211SOL    HW110193   2.687   1.362   0.125
 3211SOL    HW210194   2.752   1.441   0.013
 3212SOL     OW10195   2.519   1.803   0.938
 3212SOL    HW110196   2.514   1.893   0.972
 3212SOL    HW210197   2.612   1.782   0.940
 3213SOL     OW10198   2.728   0.965   0.856
 3213SOL    HW110199   2.778   0.894   0.896
 3213SOL    HW210200   2.695   1.016   0.930
 3214SOL     OW10201   2.943   0.991   0.086
 3214SOL    HW110202   2.918   1.025   0.000
 3214SOL    HW210203   3.018   0.935   0.069
 3215SOL     OW10204   3.719   1.557   0.846
 3215SOL    HW110205   3.642   1.545   0.789
 3215SOL    HW210206   3.711   1.488   0.911
 3216SOL     OW10207   2.086   1.304   1.856
 3216SOL    HW110208   2.018   1.243   1.827
 3216SOL    HW210209   2.070   1.316   1.949
 3217SOL     OW10210   1.945   1.236   0.664
 3217SOL    HW110211   1.946   1.186   0.745
 3217SOL    HW210212   2.016   1.197   0.611
 3218SOL     OW10213   2.541   1.400   1.624
 3218SOL    HW110214   2.462   1.356   1.656
 3218SOL    HW210215   2.536   1.488   1.663
 3219SOL     OW10216   3.673   0.184   1.239
 3219SOL    HW110217   3.672   0.090   1.260
 3219SOL    HW210218   3.688   0.187   1.144
 3220SOL     OW10219   2.295   0.433   0.526
 3220SOL    HW110220   2.321   0.361   0.468
 3220SOL    HW210221   2.242   0.390   0.594
 3221SOL     OW10222   3.563   1.491   1.101
 3221SOL    HW110223   3.482   1.465   1.057
 3221SOL    HW210224   3.578   1.423   1.166
 3222SOL     OW10225   2.189   0.554   1.291
 3222SOL    HW110226   2.245   0.499   1.345
 3222SOL    HW210227   2.210   0.528   1.201
 3223SOL     OW10228   2.686   1.578   0.680
 3223SOL    HW110229   2.680   1.620   0.594
 3223SOL    HW210230   2.609   1.523   0.685
 3224SOL     OW10231   3.294   0.216   1.118
 3224SOL    HW110232   3.331   0.146   1.171
 3224SOL    HW210233   3.243   0.269   1.179
 3225SOL     OW10234   2.859   0.015   1.147
 3225SOL    HW110235   2.813   4.432   1.138
 3225SOL    HW210236   2.951   4.489   1.161
 3226SOL     OW10237   2.629   1.329   0.313
 3226SOL    HW110238   2.598   1.239   0.325
 3226SOL    HW210239   2.715   1.331   0.356
 3227SOL     OW10240   2.482   1.559   1.282
 3227SOL    HW110241   2.485   1.639   1.334
 3227SOL    HW210242   2.571   1.551   1.246
 3228SOL     OW10243   3.209   0.059   0.168
 3228SOL    HW110244   3.246   0.006   0.098
 3228SOL    HW210245   3.131   0.011   0.196
 3229SOL     OW10246   3.177   0.463   0.682
 3229SOL    HW110247   3.113   0.534   0.682
 3229SOL    HW210248   3.164   0.419   0.766
 3230SOL     OW10249   3.448   0.203   0.868
 3230SOL    HW110250   3.387   0.217   0.939
 3230SOL    HW210251   3.451   0.286   0.821
 3231SOL     OW10252   1.905   1.072   0.300
 3231SOL    HW110253   2.000   1.065   0.295
 3231SOL    HW210254   1.875   0.985   0.327
 3232SOL     OW10255   2.744   1.650   0.347
 3232SOL    HW110256   2.673   1.629   0.287
 3232SOL    HW210257   2.712   1.725   0.397
 3233SOL     OW10258   2.092   0.627   1.981
 3233SOL    HW110259   2.004   0.621   2.018
 3233SOL    HW210260   2.083   0.595   1.892
 3234SOL     OW10261   2.072   0.295   2.850
 3234SOL    HW110262   2.103   0.269   2.937
 3234SOL    HW210263   1.990   0.248   2.839
 3235SOL     OW10264   1.871   0.383   2.502
 3235SOL    HW110265   1.784   0.404   2.538
 3235SOL    HW210266   1.855   0.309   2.444
 3236SOL     OW10267   2.429   1.282   3.034
 3236SOL    HW110268   2.341   1.285   2.996
 3236SOL    HW210269   2.443   1.371   3.068
 3237SOL     OW10270   3.419   1.512   2.568
 3237SOL    HW110271   3.375   1.493   2.651
 3237SOL    HW210272   3.349   1.516   2.503
 3238SOL     OW10273   2.993   0.700   2.564
 3238SOL    HW110274   3.042   0.782   2.552
 3238SOL    HW210275   2.944   0.712   2.645
 3239SOL     OW10276   3.626   0.609   2.092
 3239SOL    HW110277   3.607   0.597   1.998
 3239SOL    HW210278   3.594   0.528   2.133
 3240SOL     OW10279   2.622   1.145   2.900
 3240SOL    HW110280   2.551   1.177   2.956
 3240SOL    HW210281   2.655   1.222   2.855
 3241SOL     OW10282   2.724   0.781   3.683
 3241SOL    HW110283   2.712   0.852   3.746
 3241SOL    HW210284   2.748   0.824   3.601
 3242SOL     OW10285   2.549   1.007   2.511
 3242SOL    HW110286   2.612   0.992   2.581
 3242SOL    HW210287   2.478   1.057   2.553
 3243SOL     OW10288   2.569   1.152   3.670
 3243SOL    HW110289   2.617   1.231   3.695
 3243SOL    HW210290   2.485   1.184   3.638
 3244SOL     OW10291   2.194   1.429   2.930
 3244SOL    HW110292   2.121   1.393   2.880
 3244SOL    HW210293   2.244   1.479   2.867
 3245SOL     OW10294   3.324   1.498   3.212
 3245SOL    HW110295   3.367   1.583   3.223
 3245SOL    HW210296   3.269   1.489   3.290
 3246SOL     OW10297   2.303   0.396   3.354
 3246SOL    HW110298   2.384   0.346   3.355
 3246SOL    HW210299   2.234   0.330   3.366
 3247SOL     OW10300   3.475   0.448   2.600
 3247SOL    HW110301   3.394   0.472   2.554
 3247SOL    HW210302   3.497   0.525   2.652
 3248SOL     OW10303   2.083   1.724   2.337
 3248SOL    HW110304   2.124   1.769   2.411
 3248SOL    HW210305   2.155   1.709   2.276
 3249SOL     OW10306   2.998   1.341   3.553
 3249SOL    HW110307   3.037   1.338   3.640
 3249SOL    HW210308   2.945   1.262   3.548
 3250SOL     OW10309   2.089   1.442   2.395
 3250SOL    HW110310   2.067   1.535   2.406
 3250SOL    HW210311   2.030   1.397   2.456
 3251SOL     OW10312   2.116   1.090   2.752
 3251SOL    HW110313   2.113   1.004   2.795
 3251SOL    HW210314   2.058   1.145   2.805
 3252SOL     OW10315   2.477   1.791   3.293
 3252SOL    HW110316   2.394   1.773   3.337
 3252SOL    HW210317   2.499   1.881   3.317
 3253SOL     OW10318   2.451   0.979   1.994
 3253SOL    HW110319   2.493   1.032   1.926
 3253SOL    HW210320   2.493   1.008   2.075
 3254SOL     OW10321   3.448   0.114   3.337
 3254SOL    HW110322   3.459   0.182   3.270
 3254SOL    HW210323   3.437   0.162   3.419
 3255SOL     OW10324   1.977   0.651   2.421
 3255SOL    HW110325   1.948   0.562   2.443
 3255SOL    HW210326   1.968   0.700   2.503
 3256SOL     OW10327   3.703   1.761   2.199
 3256SOL    HW110328   3.762   1.732   2.268
 3256SOL    HW210329   3.731   1.851   2.181
 3257SOL     OW10330   1.893   1.597   1.986
 3257SOL    HW110331   1.876   1.505   2.003
 3257SOL    HW210332   1.866   1.642   2.066
 3258SOL     OW10333   3.553   0.921   2.500
 3258SOL    HW110334   3.638   0.880   2.481
 3258SOL    HW210335   3.532   0.969   2.420
 3259SOL     OW10336   3.507   1.108   2.291
 3259SOL    HW110337   3.592   1.117   2.249
 3259SOL    HW210338   3.511   1.168   2.366
 3260SOL     OW10339   1.984   0.743   3.448
 3260SOL    HW110340   2.075   0.765   3.463
 3260SOL    HW210341   1.937   0.826   3.455
 3261SOL     OW10342   2.475   1.382   2.597
 3261SOL    HW110343   2.429   1.299   2.606
 3261SOL    HW210344   2.458   1.409   2.506
 3262SOL     OW10345   3.153   1.239   3.286
 3262SOL    HW110346   3.185   1.171   3.227
 3262SOL    HW210347   3.208   1.231   3.364
 3263SOL     OW10348   2.677   0.011   2.407
 3263SOL    HW110349   2.711   0.098   2.384
 3263SOL    HW210350   2.582   0.021   2.400
 3264SOL     OW10351   2.054   0.969   3.131
 3264SOL    HW110352   2.138   0.925   3.115
 3264SOL    HW210353   1.989   0.912   3.089
 3265SOL     OW10354   3.394   0.991   2.058
 3265SOL    HW110355   3.324   0.934   2.088
 3265SOL    HW210356   3.433   1.025   2.139
 3266SOL     OW10357   3.047   1.804   3.482
 3266SOL    HW110358   3.063   1.860   3.406
 3266SOL    HW210359   3.062   1.715   3.449
 3267SOL     OW10360   2.178   0.255   3.644
 3267SOL    HW110361   2.241   0.319   3.676
 3267SOL    HW210362   2.103   0.264   3.703
 3268SOL     OW10363   3.328   1.419   2.815
 3268SOL    HW110364   3.259   1.434   2.881
 3268SOL    HW210365   3.316   1.329   2.788
 3269SOL     OW10366   3.524   1.733   2.439
 3269SOL    HW110367   3.500   1.705   2.351
 3269SOL    HW210368   3.497   1.660   2.496
 3270SOL     OW10369   2.456   0.724   2.126
 3270SOL    HW110370   2.464   0.804   2.074
 3270SOL    HW210371   2.391   0.745   2.193
 3271SOL     OW10372   3.152   0.358   2.797
 3271SOL    HW110373   3.063   0.326   2.781
 3271SOL    HW210374   3.189   0.296   2.859
 3272SOL     OW10375   3.443   1.668   2.171
 3272SOL    HW110376   3.532   1.703   2.165
 3272SOL    HW210377   3.418   1.651   2.080
 3273SOL     OW10378   2.658   0.618   3.317
 3273SOL    HW110379   2.629   0.594   3.405
 3273SOL    HW210380   2.615   0.553   3.260
 3274SOL     OW10381   3.251   0.478   3.538
 3274SOL    HW110382   3.253   0.521   3.623
 3274SOL    HW210383   3.318   0.410   3.545
 3275SOL     OW10384   2.820   0.889   3.443
 3275SOL    HW110385   2.874   0.817   3.409
 3275SOL    HW210386   2.773   0.921   3.366
 3276SOL     OW10387   2.857   0.416   3.100
 3276SOL    HW110388   2.772   0.431   3.141
 3276SOL    HW210389   2.838   0.365   3.022
 3277SOL     OW10390   2.911   0.698   2.290
 3277SOL    HW110391   2.926   0.691   2.384
 3277SOL    HW210392   2.829   0.651   2.275
 3278SOL     OW10393   1.951   0.820   2.638
 3278SOL    HW110394   2.033   0.813   2.687
 3278SOL    HW210395   1.908   0.898   2.673
 3279SOL     OW10396   1.989   1.809   3.436
 3279SOL    HW110397   1.976   1.807   3.531
 3279SOL    HW210398   1.921   1.869   3.404
 3280SOL     OW10399   2.716   0.368   2.041
 3280SOL    HW110400   2.791   0.403   1.994
 3280SOL    HW210401   2.733   0.274   2.046
 3281SOL     OW10402   3.569   0.576   3.690
 3281SOL    HW110403   3.534   0.653   3.645
 3281SOL    HW210404   3.601   0.520   3.619
 3282SOL     OW10405   3.237   1.143   2.404
 3282SOL    HW110406   3.315   1.128   2.351
 3282SOL    HW210407   3.185   1.205   2.353
 3283SOL     OW10408   2.402   0.201   2.763
 3283SOL    HW110409   2.421   0.219   2.855
 3283SOL    HW210410   2.393   0.288   2.723
 3284SOL     OW10411   2.871   1.446   2.336
 3284SOL    HW110412   2.830   1.517   2.287
 3284SOL    HW210413   2.856   1.468   2.428
 3285SOL     OW10414   2.218   1.807   2.701
 3285SOL    HW110415   2.260   1.723   2.719
 3285SOL    HW210416   2.285   1.872   2.720
 3286SOL     OW10417   3.660   1.062   2.729
 3286SOL    HW110418   3.603   1.043   2.654
 3286SOL    HW210419   3.599   1.066   2.804
 3287SOL     OW10420   3.090   1.540   3.374
 3287SOL    HW110421   3.076   1.467   3.435
 3287SOL    HW210422   3.029   1.523   3.302
 3288SOL     OW10423   2.183   0.955   2.110
 3288SOL    HW110424   2.265   0.974   2.064
 3288SOL    HW210425   2.152   0.874   2.070
 3289SOL     OW10426   3.338   0.739   2.588
 3289SOL    HW110427   3.324   0.692   2.670
 3289SOL    HW210428   3.415   0.795   2.605
 3290SOL     OW10429   2.326   1.263   3.599
 3290SOL    HW110430   2.298   1.268   3.508
 3290SOL    HW210431   2.245   1.262   3.650
 3291SOL     OW10432   2.983   1.777   2.094
 3291SOL    HW110433   2.911   1.734   2.141
 3291SOL    HW210434   3.004   1.718   2.022
 3292SOL     OW10435   2.051   0.268   3.370
 3292SOL    HW110436   1.985   0.335   3.353
 3292SOL    HW210437   2.060   0.267   3.466
 3293SOL     OW10438   3.492   1.379   1.948
 3293SOL    HW110439   3.451   1.464   1.934
 3293SOL    HW210440   3.422   1.315   1.930
 3294SOL     OW10441   2.328   1.725   2.199
 3294SOL    HW110442   2.365   1.796   2.251
 3294SOL    HW210443   2.390   1.713   2.127
 3295SOL     OW10444   3.278   0.131   2.281
 3295SOL    HW110445   3.261   0.084   2.199
 3295SOL    HW210446   3.373   0.129   2.290
 3296SOL     OW10447   2.110   1.785   3.095
 3296SOL    HW110448   2.168   1.724   3.140
 3296SOL    HW210449   2.106   1.753   3.005
 3297SOL     OW10450   2.801   1.698   2.763
 3297SOL    HW110451   2.878   1.644   2.782
 3297SOL    HW210452   2.755   1.650   2.695
 3298SOL     OW10453   2.252   0.695   2.339
 3298SOL    HW110454   2.277   0.603   2.349
 3298SOL    HW210455   2.159   0.697   2.358
 3299SOL     OW10456   3.388   0.233   3.584
 3299SOL    HW110457   3.387   0.256   3.677
 3299SOL    HW210458   3.313   0.174   3.573
 3300SOL     OW10459   2.486   0.123   1.982
 3300SOL    HW110460   2.574   0.087   1.991
 3300SOL    HW210461   2.454   0.089   1.898
 3301SOL     OW10462   2.632   0.270   3.614
 3301SOL    HW110463   2.696   0.202   3.632
 3301SOL    HW210464   2.584   0.280   3.696
 3302SOL     OW10465   2.739   1.521   3.055
 3302SOL    HW110466   2.724   1.485   2.968
 3302SOL    HW210467   2.808   1.465   3.092
 3303SOL     OW10468   3.205   0.589   3.292
 3303SOL    HW110469   3.232   0.559   3.378
 3303SOL    HW210470   3.238   0.678   3.285
 3304SOL     OW10471   2.675   1.398   2.798
 3304SOL    HW110472   2.759   1.388   2.753
 3304SOL    HW210473   2.609   1.396   2.728
 3305SOL     OW10474   2.784   0.515   2.764
 3305SOL    HW110475   2.768   0.513   2.670
 3305SOL    HW210476   2.825   0.431   2.783
 3306SOL     OW10477   2.415   0.072   2.382
 3306SOL    HW110478   2.325   0.049   2.406
 3306SOL    HW210479   2.405   0.141   2.315
 3307SOL     OW10480   3.291   1.197   1.903
 3307SOL    HW110481   3.321   1.122   1.953
 3307SOL    HW210482   3.205   1.217   1.940
 3308SOL     OW10483   2.158   0.072   2.053
 3308SOL    HW110484   2.237   0.123   2.035
 3308SOL    HW210485   2.189   4.499   2.108
 3309SOL     OW10486   2.811   0.240   2.334
 3309SOL    HW110487   2.759   0.288   2.270
 3309SOL    HW210488   2.900   0.275   2.325
 3310SOL     OW10489   2.942   0.679   3.323
 3310SOL    HW110490   2.869   0.616   3.325
 3310SOL    HW210491   3.020   0.625   3.311
 3311SOL     OW10492   3.087   1.569   2.655
 3311SOL    HW110493   3.105   1.637   2.590
 3311SOL    HW210494   3.154   1.581   2.722
 3312SOL     OW10495   2.329   1.148   2.599
 3312SOL    HW110496   2.258   1.129   2.661
 3312SOL    HW210497   2.291   1.130   2.513
 3313SOL     OW10498   3.133   1.795   2.467
 3313SOL    HW110499   3.177   1.857   2.409
 3313SOL    HW210500   3.068   1.848   2.514
 3314SOL     OW10501   2.893   0.549   1.876
 3314SOL    HW110502   2.845   0.631   1.861
 3314SOL    HW210503   2.951   0.569   1.950
 3315SOL     OW10504   1.941   0.552   3.256
 3315SOL    HW110505   2.032   0.554   3.225
 3315SOL    HW210506   1.935   0.624   3.319
 3316SOL     OW10507   2.426   0.241   3.026
 3316SOL    HW110508   2.454   0.157   3.063
 3316SOL    HW210509   2.335   0.249   3.052
 3317SOL     OW10510   2.728   0.501   2.488
 3317SOL    HW110511   2.677   0.543   2.419
 3317SOL    HW210512   2.713   0.407   2.476
 3318SOL     OW10513   2.833   0.032   2.636
 3318SOL    HW110514   2.783   0.027   2.554
 3318SOL    HW210515   2.842   4.441   2.664
 3319SOL     OW10516   3.297   1.164   2.720
 3319SOL    HW110517   3.230   1.096   2.719
 3319SOL    HW210518   3.320   1.177   2.628
 3320SOL     OW10519   3.330   0.602   2.841
 3320SOL    HW110520   3.279   0.521   2.845
 3320SOL    HW210521   3.389   0.597   2.916
 3321SOL     OW10522   3.710   0.819   2.243
 3321SOL    HW110523   3.765   0.766   2.302
 3321SOL    HW210524   3.680   0.758   2.176
 3322SOL     OW10525   2.354   1.414   2.022
 3322SOL    HW110526   2.280   1.385   2.075
 3322SOL    HW210527   2.333   1.387   1.933
 3323SOL     OW10528   3.530   1.266   2.510
 3323SOL    HW110529   3.625   1.271   2.523
 3323SOL    HW210530   3.498   1.353   2.532
 3324SOL     OW10531   3.256   0.570   1.932
 3324SOL    HW110532   3.195   0.554   2.004
 3324SOL    HW210533   3.342   0.548   1.968
 3325SOL     OW10534   2.386   0.266   2.187
 3325SOL    HW110535   2.429   0.212   2.119
 3325SOL    HW210536   2.371   0.350   2.144
 3326SOL     OW10537   3.616   1.236   3.438
 3326SOL    HW110538   3.703   1.197   3.436
 3326SOL    HW210539   3.630   1.325   3.469
 3327SOL     OW10540   2.923   1.354   3.197
 3327SOL    HW110541   2.848   1.322   3.248
 3327SOL    HW210542   2.999   1.312   3.238
 3328SOL     OW10543   3.467   1.625   3.513
 3328SOL    HW110544   3.465   1.659   3.423
 3328SOL    HW210545   3.551   1.579   3.519
 3329SOL     OW10546   2.988   1.202   2.969
 3329SOL    HW110547   2.929   1.239   3.035
 3329SOL    HW210548   2.953   1.232   2.885
 3330SOL     OW10549   3.493   1.100   2.941
 3330SOL    HW110550   3.489   1.162   3.013
 3330SOL    HW210551   3.412   1.114   2.892
 3331SOL     OW10552   2.767   0.130   3.253
 3331SOL    HW110553   2.789   0.086   3.170
 3331SOL    HW210554   2.851   0.143   3.296
 3332SOL     OW10555   2.846   1.115   3.584
 3332SOL    HW110556   2.753   1.129   3.603
 3332SOL    HW210557   2.846   1.037   3.528
 3333SOL     OW10558   2.570   1.060   2.234
 3333SOL    HW110559   2.557   1.046   2.328
 3333SOL    HW210560   2.646   1.007   2.212
 3334SOL     OW10561   2.279   0.814   3.113
 3334SOL    HW110562   2.348   0.824   3.178
 3334SOL    HW210563   2.244   0.726   3.128
 3335SOL     OW10564   3.131   0.377   3.133
 3335SOL    HW110565   3.163   0.455   3.179
 3335SOL    HW210566   3.043   0.400   3.105
 3336SOL     OW10567   1.928   1.570   3.208
 3336SOL    HW110568   1.895   1.648   3.163
 3336SOL    HW210569   2.023   1.583   3.210
 3337SOL     OW10570   2.215   1.106   2.354
 3337SOL    HW110571   2.220   1.179   2.292
 3337SOL    HW210572   2.214   1.028   2.299
 3338SOL     OW10573   2.420   0.532   2.721
 3338SOL    HW110574   2.435   0.591   2.647
 3338SOL    HW210575   2.481   0.563   2.789
 3339SOL     OW10576   3.110   1.348   2.251
 3339SOL    HW110577   3.165   1.420   2.282
 3339SOL    HW210578   3.023   1.368   2.285
 3340SOL     OW10579   3.139   1.455   3.008
 3340SOL    HW110580   3.193   1.457   3.086
 3340SOL    HW210581   3.083   1.378   3.018
 3341SOL     OW10582   3.445   0.625   2.337
 3341SOL    HW110583   3.401   0.679   2.403
 3341SOL    HW210584   3.490   0.689   2.281
 3342SOL     OW10585   2.212   1.522   3.181
 3342SOL    HW110586   2.197   1.481   3.096
 3342SOL    HW210587   2.307   1.535   3.184
 3343SOL     OW10588   2.275   0.743   3.464
 3343SOL    HW110589   2.334   0.791   3.405
 3343SOL    HW210590   2.319   0.660   3.481
 3344SOL     OW10591   3.460   0.777   3.541
 3344SOL    HW110592   3.373   0.817   3.533
 3344SOL    HW210593   3.512   0.819   3.472
 3345SOL     OW10594   2.870   0.086   3.589
 3345SOL    HW110595   2.890   0.171   3.550
 3345SOL    HW210596   2.896   0.022   3.523
 3346SOL     OW10597   2.361   0.049   3.618
 3346SOL    HW110598   2.349   0.001   3.535
 3346SOL    HW210599   2.293   0.116   3.617
 3347SOL     OW10600   2.444   0.872   2.893
 3347SOL    HW110601   2.474   0.963   2.890
 3347SOL    HW210602   2.387   0.868   2.970
 3348SOL     OW10603   3.223   0.859   2.896
 3348SOL    HW110604   3.141   0.852   2.846
 3348SOL    HW210605   3.260   0.771   2.892
 3349SOL     OW10606   3.069   0.534   2.129
 3349SOL    HW110607   3.075   0.454   2.180
 3349SOL    HW210608   3.026   0.597   2.187
 3350SOL     OW10609   2.152   0.236   3.102
 3350SOL    HW110610   2.112   0.251   3.187
 3350SOL    HW210611   2.181   0.144   3.105
 3351SOL     OW10612   1.907   1.309   3.139
 3351SOL    HW110613   1.942   1.258   3.212
 3351SOL    HW210614   1.915   1.400   3.168
 3352SOL     OW10615   2.587   0.632   2.922
 3352SOL    HW110616   2.659   0.612   2.863
 3352SOL    HW210617   2.560   0.721   2.898
 3353SOL     OW10618   3.595   0.959   3.712
 3353SOL    HW110619   3.546   0.904   3.651
 3353SOL    HW210620   3.536   0.970   3.787
 3354SOL     OW10621   2.161   0.060   2.515
 3354SOL    HW110622   2.151   0.155   2.520
 3354SOL    HW210623   2.173   0.032   2.606
 3355SOL     OW10624   3.472   0.374   2.228
 3355SOL    HW110625   3.504   0.312   2.294
 3355SOL    HW210626   3.451   0.453   2.279
 3356SOL     OW10627   2.889   0.761   2.825
 3356SOL    HW110628   2.889   0.777   2.919
 3356SOL    HW210629   2.861   0.670   2.816
 3357SOL     OW10630   2.845   1.567   3.576
 3357SOL    HW110631   2.829   1.610   3.492
 3357SOL    HW210632   2.887   1.484   3.552
 3358SOL     OW10633   3.718   1.510   3.468
 3358SOL    HW110634   3.734   1.535   3.377
 3358SOL    HW210635   3.799   1.530   3.514
 3359SOL     OW10636   2.216   0.916   3.669
 3359SOL    HW110637   2.298   0.934   3.715
 3359SOL    HW210638   2.239   0.854   3.600
 3360SOL     OW10639   3.394   0.267   1.990
 3360SOL    HW110640   3.322   0.211   2.017
 3360SOL    HW210641   3.422   0.312   2.070
 3361SOL     OW10642   3.157   0.827   1.895
 3361SOL    HW110643   3.198   0.741   1.897
 3361SOL    HW210644   3.187   0.866   1.813
 3362SOL     OW10645   2.926   1.335   2.714
 3362SOL    HW110646   2.929   1.261   2.653
 3362SOL    HW210647   2.990   1.398   2.679
 3363SOL     OW10648   2.172   0.810   2.811
 3363SOL    HW110649   2.265   0.833   2.804
 3363SOL    HW210650   2.171   0.721   2.845
 3364SOL     OW10651   2.199   0.528   2.874
 3364SOL    HW110652   2.157   0.444   2.855
 3364SOL    HW210653   2.274   0.531   2.815
 3365SOL     OW10654   2.997   0.375   3.554
 3365SOL    HW110655   2.950   0.440   3.606
 3365SOL    HW210656   3.084   0.414   3.541
 3366SOL     OW10657   3.023   0.211   3.336
 3366SOL    HW110658   3.014   0.274   3.406
 3366SOL    HW210659   3.057   0.261   3.262
 3367SOL     OW10660   1.867   1.323   2.057
 3367SOL    HW110661   1.780   1.336   2.020
 3367SOL    HW210662   1.865   1.233   2.090
 3368SOL     OW10663   1.959   1.786   2.792
 3368SOL    HW110664   1.928   1.704   2.753
 3368SOL    HW210665   2.046   1.799   2.756
 3369SOL     OW10666   2.359   1.573   2.766
 3369SOL    HW110667   2.428   1.635   2.791
 3369SOL    HW210668   2.405   1.507   2.714
 3370SOL     OW10669   2.850   0.795   3.091
 3370SOL    HW110670   2.902   0.769   3.167
 3370SOL    HW210671   2.764   0.757   3.107
 3371SOL     OW10672   1.896   0.541   2.980
 3371SOL    HW110673   1.975   0.522   2.930
 3371SOL    HW210674   1.926   0.549   3.070
 3372SOL     OW10675   2.047   0.517   3.582
 3372SOL    HW110676   2.119   0.496   3.522
 3372SOL    HW210677   2.004   0.592   3.541
 3373SOL     OW10678   3.238   0.941   3.521
 3373SOL    HW110679   3.258   1.035   3.522
 3373SOL    HW210680   3.236   0.918   3.429
 3374SOL     OW10681   2.674   0.573   2.215
 3374SOL    HW110682   2.677   0.501   2.152
 3374SOL    HW210683   2.599   0.626   2.186
 3375SOL     OW10684   3.504   0.601   3.052
 3375SOL    HW110685   3.493   0.541   3.125
 3375SOL    HW210686   3.591   0.581   3.017
 3376SOL     OW10687   2.114   1.552   3.596
 3376SOL    HW110688   2.082   1.613   3.663
 3376SOL    HW210689   2.108   1.466   3.638
 3377SOL     OW10690   2.554   0.460   3.128
 3377SOL    HW110691   2.510   0.382   3.094
 3377SOL    HW210692   2.557   0.520   3.053
 3378SOL     OW10693   2.792   1.679   3.328
 3378SOL    HW110694   2.766   1.648   3.241
 3378SOL    HW210695   2.792   1.774   3.321
 3379SOL     OW10696   2.329   0.493   2.047
 3379SOL    HW110697   2.387   0.567   2.068
 3379SOL    HW210698   2.242   0.533   2.039
 3380SOL     OW10699   2.010   1.140   3.333
 3380SOL    HW110700   2.015   1.086   3.412
 3380SOL    HW210701   2.027   1.079   3.262
 3381SOL     OW10702   3.191   1.049   3.087
 3381SOL    HW110703   3.215   0.986   3.019
 3381SOL    HW210704   3.119   1.099   3.049
 3382SOL     OW10705   3.171   0.856   2.169
 3382SOL    HW110706   3.095   0.827   2.219
 3382SOL    HW210707   3.147   0.843   2.078
 3383SOL     OW10708   3.630   1.747   3.010
 3383SOL    HW110709   3.690   1.772   2.940
 3383SOL    HW210710   3.606   1.657   2.990
 3384SOL     OW10711   3.104   1.733   2.980
 3384SOL    HW110712   3.185   1.751   2.932
 3384SOL    HW210713   3.106   1.639   2.996
 3385SOL     OW10714   1.946   1.265   2.876
 3385SOL    HW110715   1.933   1.277   2.970
 3385SOL    HW210716   1.871   1.213   2.847
 3386SOL     OW10717   2.541   1.663   3.586
 3386SOL    HW110718   2.490   1.744   3.583
 3386SOL    HW210719   2.603   1.671   3.514
 3387SOL     OW10720   3.580   0.130   2.360
 3387SOL    HW110721   3.654   0.134   2.300
 3387SOL    HW210722   3.600   0.056   2.417
 3388SOL     OW10723   3.252   1.568   2.345
 3388SOL    HW110724   3.312   1.599   2.277
 3388SOL    HW210725   3.205   1.646   2.372
 3389SOL     OW10726   1.992   1.802   3.708
 3389SOL    HW110727   1.944   1.733   3.753
 3389SOL    HW210728   2.046   1.843   3.776
 3390SOL     OW10729   3.140   0.926   2.534
 3390SOL    HW110730   3.212   0.863   2.537
 3390SOL    HW210731   3.174   0.998   2.482
 3391SOL     OW10732   2.681   1.272   3.293
 3391SOL    HW110733   2.654   1.310   3.377
 3391SOL    HW210734   2.609   1.293   3.233
 3392SOL     OW10735   2.535   1.617   2.015
 3392SOL    HW110736   2.543   1.626   1.920
 3392SOL    HW210737   2.481   1.538   2.028
 3393SOL     OW10738   3.495   1.727   3.254
 3393SOL    HW110739   3.542   1.734   3.171
 3393SOL    HW210740   3.481   1.817   3.283
 3394SOL     OW10741   3.701   0.155   2.829
 3394SOL    HW110742   3.732   0.080   2.779
 3394SOL    HW210743   3.614   0.175   2.793
 3395SOL     OW10744   2.129   0.325   2.582
 3395SOL    HW110745   2.044   0.358   2.553
 3395SOL    HW210746   2.120   0.314   2.676
 3396SOL     OW10747   3.068   1.608   1.893
 3396SOL    HW110748   3.059   1.517   1.921
 3396SOL    HW210749   3.003   1.618   1.823
 3397SOL     OW10750   2.686   1.006   3.234
 3397SOL    HW110751   2.729   1.002   3.148
 3397SOL    HW210752   2.687   1.098   3.257
 3398SOL     OW10753   2.777   0.910   2.151
 3398SOL    HW110754   2.840   0.941   2.086
 3398SOL    HW210755   2.823   0.839   2.196
 3399SOL     OW10756   3.357   1.624   1.904
 3399SOL    HW110757   3.262   1.621   1.893
 3399SOL    HW210758   3.391   1.630   1.815
 3400SOL     OW10759   2.232   1.300   3.354
 3400SOL    HW110760   2.219   1.378   3.300
 3400SOL    HW210761   2.154   1.246   3.337
 3401SOL     OW10762   3.474   1.283   3.143
 3401SOL    HW110763   3.532   1.275   3.219
 3401SOL    HW210764   3.413   1.353   3.167
 3402SOL     OW10765   2.910   1.105   2.567
 3402SOL    HW110766   2.840   1.054   2.607
 3402SOL    HW210767   2.971   1.040   2.533
 3403SOL     OW10768   2.870   0.241   2.858
 3403SOL    HW110769   2.877   0.211   2.767
 3403SOL    HW210770   2.863   0.160   2.909
 3404SOL     OW10771   2.462   1.490   2.344
 3404SOL    HW110772   2.502   1.438   2.274
 3404SOL    HW210773   2.400   1.547   2.298
 3405SOL     OW10774   3.581   0.393   3.240
 3405SOL    HW110775   3.653   0.456   3.238
 3405SOL    HW210776   3.611   0.321   3.184
 3406SOL     OW10777   2.120   1.347   2.149
 3406SOL    HW110778   2.027   1.345   2.127
 3406SOL    HW210779   2.123   1.384   2.237
 3407SOL     OW10780   1.974   1.017   3.581
 3407SOL    HW110781   1.898   0.995   3.635
 3407SOL    HW210782   2.049   0.982   3.629
 3408SOL     OW10783   2.521   0.203   3.358
 3408SOL    HW110784   2.602   0.179   3.312
 3408SOL    HW210785   2.550   0.222   3.448
 3409SOL     OW10786   1.942   0.344   1.908
 3409SOL    HW110787   1.870   0.293   1.872
 3409SOL    HW210788   1.959   0.412   1.843
 3410SOL     OW10789   3.294   0.858   3.263
 3410SOL    HW110790   3.245   0.918   3.206
 3410SOL    HW210791   3.384   0.861   3.230
 3411SOL     OW10792   1.928   0.179   2.185
 3411SOL    HW110793   1.924   0.246   2.116
 3411SOL    HW210794   2.003   0.125   2.161
 3412SOL     OW10795   3.042   1.342   1.979
 3412SOL    HW110796   2.951   1.312   1.982
 3412SOL    HW210797   3.071   1.341   2.070
 3413SOL     OW10798   2.480   0.831   3.294
 3413SOL    HW110799   2.535   0.908   3.280
 3413SOL    HW210800   2.542   0.758   3.303
 3414SOL     OW10801   3.347   1.774   2.837
 3414SOL    HW110802   3.373   1.831   2.765
 3414SOL    HW210803   3.428   1.759   2.886
 3415SOL     OW10804   2.578   0.564   3.569
 3415SOL    HW110805   2.613   0.629   3.630
 3415SOL    HW210806   2.616   0.481   3.598
 3416SOL     OW10807   3.330   1.203   3.495
 3416SOL    HW110808   3.318   1.216   3.589
 3416SOL    HW210809   3.424   1.215   3.481
 3417SOL     OW10810   2.247   1.740   3.428
 3417SOL    HW110811   2.159   1.773   3.410
 3417SOL    HW210812   2.233   1.654   3.468
 3418SOL     OW10813   3.534   0.882   3.118
 3418SOL    HW110814   3.524   0.797   3.075
 3418SOL    HW210815   3.525   0.946   3.047
 3419SOL     OW10816   3.080   0.327   2.310
 3419SOL    HW110817   3.145   0.258   2.301
 3419SOL    HW210818   3.106   0.374   2.389
 3420SOL     OW10819   2.451   0.740   2.530
 3420SOL    HW110820   2.492   0.825   2.513
 3420SOL    HW210821   2.382   0.734   2.464
 3421SOL     OW10822   3.628   0.361   3.505
 3421SOL    HW110823   3.611   0.375   3.411
 3421SOL    HW210824   3.550   0.317   3.537
 3422SOL     OW10825   3.606   0.933   3.375
 3422SOL    HW110826   3.608   1.028   3.388
 3422SOL    HW210827   3.591   0.922   3.281
 3423SOL     OW10828   2.724   1.369   1.892
 3423SOL    HW110829   2.685   1.394   1.975
 3423SOL    HW210830   2.744   1.452   1.848
 3424SOL     OW10831   2.525   1.783   2.807
 3424SOL    HW110832   2.503   1.874   2.786
 3424SOL    HW210833   2.621   1.781   2.805
 3425SOL     OW10834   2.728   0.965   2.718
 3425SOL    HW110835   2.778   0.894   2.758
 3425SOL    HW210836   2.695   1.016   2.792
 3426SOL     OW10837   2.942   0.988   1.951
 3426SOL    HW110838   2.920   1.038   1.872
 3426SOL    HW210839   3.018   0.935   1.925
 3427SOL     OW10840   3.719   1.557   2.707
 3427SOL    HW110841   3.642   1.545   2.652
 3427SOL    HW210842   3.711   1.488   2.774
 3428SOL     OW10843   2.086   1.304   3.718
 3428SOL    HW110844   2.018   1.243   3.689
 3428SOL    HW210845   2.070   1.316   3.811
 3429SOL     OW10846   1.947   1.236   2.525
 3429SOL    HW110847   1.947   1.187   2.607
 3429SOL    HW210848   2.015   1.194   2.472
 3430SOL     OW10849   2.541   1.400   3.487
 3430SOL    HW110850   2.462   1.356   3.517
 3430SOL    HW210851   2.536   1.488   3.525
 3431SOL     OW10852   3.672   0.184   3.101
 3431SOL    HW110853   3.672   0.090   3.122
 3431SOL    HW210854   3.688   0.187   3.006
 3432SOL     OW10855   2.296   0.433   2.389
 3432SOL    HW110856   2.320   0.363   2.329
 3432SOL    HW210857   2.242   0.390   2.456
 3433SOL     OW10858   3.563   1.491   2.963
 3433SOL    HW110859   3.482   1.466   2.919
 3433SOL    HW210860   3.578   1.423   3.028
 3434SOL     OW10861   2.189   0.554   3.153
 3434SOL    HW110862   2.245   0.499   3.207
 3434SOL    HW210863   2.210   0.528   3.063
 3435SOL     OW10864   2.687   1.578   2.541
 3435SOL    HW110865   2.680   1.621   2.456
 3435SOL    HW210866   2.609   1.523   2.547
 3436SOL     OW10867   3.294   0.215   2.980
 3436SOL    HW110868   3.331   0.146   3.034
 3436SOL    HW210869   3.243   0.268   3.041
 3437SOL     OW10870   2.859   0.013   3.010
 3437SOL    HW110871   2.813   4.430   3.000
 3437SOL    HW210872   2.951   4.488   3.023
 3438SOL     OW10873   2.634   1.332   2.172
 3438SOL    HW110874   2.599   1.243   2.179
 3438SOL    HW210875   2.716   1.330   2.221
 3439SOL     OW10876   2.482   1.559   3.146
 3439SOL    HW110877   2.485   1.640   3.197
 3439SOL    HW210878   2.569   1.551   3.107
 3440SOL     OW10879   3.205   0.054   2.014
 3440SOL    HW110880   3.244   4.479   1.969
 3440SOL    HW210881   3.129   0.017   2.060
 3441SOL     OW10882   3.176   0.463   2.543
 3441SOL    HW110883   3.114   0.535   2.543
 3441SOL    HW210884   3.164   0.419   2.627
 3442SOL     OW10885   3.448   0.203   2.729
 3442SOL    HW110886   3.387   0.217   2.802
 3442SOL    HW210887   3.451   0.287   2.684
 3443SOL     OW10888   1.906   1.073   2.166
 3443SOL    HW110889   2.000   1.064   2.150
 3443SOL    HW210890   1.876   0.985   2.190
 3444SOL     OW10891   2.743   1.650   2.207
 3444SOL    HW110892   2.672   1.631   2.145
 3444SOL    HW210893   2.712   1.726   2.256
 3445SOL     OW10894   2.092   0.627   3.843
 3445SOL    HW110895   2.004   0.621   3.880
 3445SOL    HW210896   2.083   0.595   3.754
 3446SOL     OW10897   2.072   0.295   4.712
 3446SOL    HW110898   2.103   0.269   4.799
 3446SOL    HW210899   1.990   0.248   4.701
 3447SOL     OW10900   1.871   0.383   4.364
 3447SOL    HW110901   1.784   0.404   4.400
 3447SOL    HW210902   1.855   0.309   4.306
 3448SOL     OW10903   2.421   1.265   4.896
 3448SOL    HW110904   2.338   1.278   4.849
 3448SOL    HW210905   2.443   1.352   4.930
 3449SOL     OW10906   3.419   1.512   4.429
 3449SOL    HW110907   3.375   1.495   4.513
 3449SOL    HW210908   3.347   1.517   4.366
 3450SOL     OW10909   2.993   0.700   4.426
 3450SOL    HW110910   3.042   0.781   4.414
 3450SOL    HW210911   2.945   0.712   4.507
 3451SOL     OW10912   3.627   0.609   3.953
 3451SOL    HW110913   3.608   0.597   3.860
 3451SOL    HW210914   3.594   0.529   3.995
 3452SOL     OW10915   2.620   1.139   4.763
 3452SOL    HW110916   2.548   1.170   4.817
 3452SOL    HW210917   2.653   1.217   4.718
 3453SOL     OW10918   2.724   0.781   5.545
 3453SOL    HW110919   2.710   0.852   5.607
 3453SOL    HW210920   2.748   0.824   5.463
 3454SOL     OW10921   2.549   1.006   4.373
 3454SOL    HW110922   2.613   0.992   4.442
 3454SOL    HW210923   2.478   1.056   4.415
 3455SOL     OW10924   2.569   1.150   5.529
 3455SOL    HW110925   2.615   1.228   5.558
 3455SOL    HW210926   2.483   1.182   5.502
 3456SOL     OW10927   2.209   1.400   4.785
 3456SOL    HW110928   2.124   1.375   4.749
 3456SOL    HW210929   2.242   1.467   4.725
 3457SOL     OW10930   3.324   1.497   5.075
 3457SOL    HW110931   3.363   1.584   5.083
 3457SOL    HW210932   3.265   1.489   5.150
 3458SOL     OW10933   2.302   0.396   5.216
 3458SOL    HW110934   2.384   0.346   5.217
 3458SOL    HW210935   2.234   0.330   5.229
 3459SOL     OW10936   3.475   0.448   4.462
 3459SOL    HW110937   3.394   0.473   4.416
 3459SOL    HW210938   3.496   0.525   4.514
 3460SOL     OW10939   2.082   1.718   4.200
 3460SOL    HW110940   2.113   1.791   4.253
 3460SOL    HW210941   2.151   1.704   4.135
 3461SOL     OW10942   3.000   1.337   5.414
 3461SOL    HW110943   3.039   1.335   5.501
 3461SOL    HW210944   2.946   1.258   5.410
 3462SOL     OW10945   2.090   1.440   4.256
 3462SOL    HW110946   2.071   1.533   4.267
 3462SOL    HW210947   2.031   1.396   4.317
 3463SOL     OW10948   2.113   1.088   4.612
 3463SOL    HW110949   2.114   1.002   4.655
 3463SOL    HW210950   2.058   1.142   4.669
 3464SOL     OW10951   2.451   0.979   3.856
 3464SOL    HW110952   2.494   1.032   3.788
 3464SOL    HW210953   2.493   1.008   3.937
 3465SOL     OW10954   3.448   0.114   5.199
 3465SOL    HW110955   3.459   0.182   5.132
 3465SOL    HW210956   3.437   0.162   5.281
 3466SOL     OW10957   1.977   0.651   4.283
 3466SOL    HW110958   1.948   0.563   4.305
 3466SOL    HW210959   1.968   0.700   4.365
 3467SOL     OW10960   3.703   1.761   4.060
 3467SOL    HW110961   3.761   1.731   4.131
 3467SOL    HW210962   3.731   1.851   4.043
 3468SOL     OW10963   1.893   1.597   3.848
 3468SOL    HW110964   1.875   1.504   3.865
 3468SOL    HW210965   1.866   1.642   3.928
 3469SOL     OW10966   3.553   0.920   4.362
 3469SOL    HW110967   3.638   0.880   4.343
 3469SOL    HW210968   3.532   0.969   4.282
 3470SOL     OW10969   3.507   1.108   4.153
 3470SOL    HW110970   3.592   1.117   4.111
 3470SOL    HW210971   3.511   1.168   4.228
 3471SOL     OW10972   1.984   0.743   5.310
 3471SOL    HW110973   2.076   0.765   5.325
 3471SOL    HW210974   1.938   0.827   5.317
 3472SOL     OW10975   2.487   1.365   4.448
 3472SOL    HW110976   2.435   1.286   4.459
 3472SOL    HW210977   2.465   1.397   4.360
 3473SOL     OW10978   3.158   1.235   5.152
 3473SOL    HW110979   3.191   1.169   5.091
 3473SOL    HW210980   3.215   1.227   5.229
 3474SOL     OW10981   2.677   0.011   4.268
 3474SOL    HW110982   2.711   0.098   4.246
 3474SOL    HW210983   2.582   0.020   4.262
 3475SOL     OW10984   2.053   0.968   4.994
 3475SOL    HW110985   2.137   0.926   4.978
 3475SOL    HW210986   1.989   0.913   4.948
 3476SOL     OW10987   3.394   0.991   3.920
 3476SOL    HW110988   3.324   0.934   3.950
 3476SOL    HW210989   3.433   1.025   4.001
 3477SOL     OW10990   3.047   1.798   5.339
 3477SOL    HW110991   3.065   1.859   5.267
 3477SOL    HW210992   3.066   1.712   5.303
 3478SOL     OW10993   2.177   0.255   5.506
 3478SOL    HW110994   2.241   0.319   5.537
 3478SOL    HW210995   2.103   0.264   5.565
 3479SOL     OW10996   3.331   1.418   4.679
 3479SOL    HW110997   3.261   1.433   4.743
 3479SOL    HW210998   3.318   1.328   4.650
 3480SOL     OW10999   3.524   1.732   4.301
 3480SOL    HW111000   3.499   1.704   4.213
 3480SOL    HW211001   3.497   1.661   4.358
 3481SOL     OW11002   2.456   0.724   3.988
 3481SOL    HW111003   2.465   0.804   3.936
 3481SOL    HW211004   2.391   0.745   4.055
 3482SOL     OW11005   3.152   0.358   4.658
 3482SOL    HW111006   3.063   0.326   4.643
 3482SOL    HW211007   3.189   0.295   4.721
 3483SOL     OW11008   3.443   1.670   4.033
 3483SOL    HW111009   3.533   1.703   4.027
 3483SOL    HW211010   3.419   1.651   3.942
 3484SOL     OW11011   2.658   0.617   5.179
 3484SOL    HW111012   2.629   0.594   5.267
 3484SOL    HW211013   2.615   0.553   5.122
 3485SOL     OW11014   3.251   0.478   5.400
 3485SOL    HW111015   3.253   0.522   5.485
 3485SOL    HW211016   3.318   0.410   5.407
 3486SOL     OW11017   2.820   0.889   5.304
 3486SOL    HW111018   2.874   0.817   5.271
 3486SOL    HW211019   2.773   0.921   5.228
 3487SOL     OW11020   2.857   0.416   4.963
 3487SOL    HW111021   2.772   0.431   5.003
 3487SOL    HW211022   2.837   0.366   4.884
 3488SOL     OW11023   2.911   0.698   4.152
 3488SOL    HW111024   2.926   0.691   4.246
 3488SOL    HW211025   2.829   0.651   4.137
 3489SOL     OW11026   1.950   0.820   4.500
 3489SOL    HW111027   2.032   0.813   4.549
 3489SOL    HW211028   1.908   0.898   4.534
 3490SOL     OW11029   2.716   0.368   3.903
 3490SOL    HW111030   2.791   0.403   3.856
 3490SOL    HW211031   2.734   0.274   3.908
 3491SOL     OW11032   3.569   0.576   5.552
 3491SOL    HW111033   3.534   0.653   5.508
 3491SOL    HW211034   3.601   0.520   5.481
 3492SOL     OW11035   3.237   1.142   4.266
 3492SOL    HW111036   3.315   1.129   4.213
 3492SOL    HW211037   3.184   1.205   4.216
 3493SOL     OW11038   2.402   0.202   4.625
 3493SOL    HW111039   2.421   0.219   4.717
 3493SOL    HW211040   2.393   0.288   4.585
 3494SOL     OW11041   2.870   1.445   4.197
 3494SOL    HW111042   2.830   1.517   4.149
 3494SOL    HW211043   2.858   1.468   4.289
 3495SOL     OW11044   3.659   1.061   4.591
 3495SOL    HW111045   3.602   1.044   4.516
 3495SOL    HW211046   3.600   1.066   4.666
 3496SOL     OW11047   3.096   1.536   5.235
 3496SOL    HW111048   3.077   1.462   5.293
 3496SOL    HW211049   3.027   1.533   5.168
 3497SOL     OW11050   2.183   0.955   3.971
 3497SOL    HW111051   2.266   0.974   3.926
 3497SOL    HW211052   2.153   0.874   3.932
 3498SOL     OW11053   3.339   0.739   4.449
 3498SOL    HW111054   3.324   0.692   4.532
 3498SOL    HW211055   3.414   0.795   4.466
 3499SOL     OW11056   2.329   1.261   5.457
 3499SOL    HW111057   2.294   1.268   5.368
 3499SOL    HW211058   2.252   1.265   5.513
 3500SOL     OW11059   2.982   1.779   3.954
 3500SOL    HW111060   2.913   1.735   4.003
 3500SOL    HW211061   3.004   1.718   3.884
 3501SOL     OW11062   2.051   0.267   5.232
 3501SOL    HW111063   1.986   0.335   5.214
 3501SOL    HW211064   2.060   0.267   5.328
 3502SOL     OW11065   3.492   1.379   3.810
 3502SOL    HW111066   3.450   1.464   3.796
 3502SOL    HW211067   3.422   1.315   3.792
 3503SOL     OW11068   2.329   1.738   4.044
 3503SOL    HW111069   2.371   1.794   4.109
 3503SOL    HW211070   2.400   1.707   3.989
 3504SOL     OW11071   3.278   0.131   4.143
 3504SOL    HW111072   3.261   0.084   4.061
 3504SOL    HW211073   3.373   0.129   4.152
 3505SOL     OW11074   2.833   1.675   4.612
 3505SOL    HW111075   2.902   1.613   4.631
 3505SOL    HW211076   2.778   1.631   4.546
 3506SOL     OW11077   2.252   0.695   4.201
 3506SOL    HW111078   2.277   0.603   4.211
 3506SOL    HW211079   2.158   0.697   4.220
 3507SOL     OW11080   3.388   0.232   5.446
 3507SOL    HW111081   3.387   0.256   5.539
 3507SOL    HW211082   3.313   0.174   5.435
 3508SOL     OW11083   2.485   0.122   3.844
 3508SOL    HW111084   2.574   0.088   3.853
 3508SOL    HW211085   2.454   0.088   3.760
 3509SOL     OW11086   2.632   0.270   5.476
 3509SOL    HW111087   2.696   0.202   5.494
 3509SOL    HW211088   2.584   0.280   5.558
 3510SOL     OW11089   2.786   1.510   4.930
 3510SOL    HW111090   2.762   1.477   4.843
 3510SOL    HW211091   2.843   1.442   4.966
 3511SOL     OW11092   3.205   0.589   5.153
 3511SOL    HW111093   3.232   0.559   5.240
 3511SOL    HW211094   3.238   0.678   5.147
 3512SOL     OW11095   2.676   1.380   4.651
 3512SOL    HW111096   2.764   1.379   4.612
 3512SOL    HW211097   2.617   1.379   4.577
 3513SOL     OW11098   2.784   0.515   4.626
 3513SOL    HW111099   2.768   0.513   4.532
 3513SOL    HW211100   2.825   0.430   4.645
 3514SOL     OW11101   2.414   0.071   4.243
 3514SOL    HW111102   2.325   0.050   4.268
 3514SOL    HW211103   2.405   0.140   4.177
 3515SOL     OW11104   3.291   1.197   3.765
 3515SOL    HW111105   3.321   1.122   3.815
 3515SOL    HW211106   3.205   1.217   3.803
 3516SOL     OW11107   2.158   0.071   3.915
 3516SOL    HW111108   2.236   0.123   3.897
 3516SOL    HW211109   2.189   4.499   3.970
 3517SOL     OW11110   2.811   0.240   4.196
 3517SOL    HW111111   2.760   0.289   4.132
 3517SOL    HW211112   2.900   0.275   4.187
 3518SOL     OW11113   2.942   0.679   5.186
 3518SOL    HW111114   2.869   0.616   5.187
 3518SOL    HW211115   3.020   0.625   5.173
 3519SOL     OW11116   3.096   1.561   4.513
 3519SOL    HW111117   3.103   1.636   4.454
 3519SOL    HW211118   3.155   1.582   4.585
 3520SOL     OW11119   2.328   1.145   4.460
 3520SOL    HW111120   2.257   1.129   4.523
 3520SOL    HW211121   2.289   1.128   4.375
 3521SOL     OW11122   3.133   1.793   4.329
 3521SOL    HW111123   3.173   1.861   4.274
 3521SOL    HW211124   3.061   1.838   4.373
 3522SOL     OW11125   2.893   0.549   3.738
 3522SOL    HW111126   2.845   0.631   3.723
 3522SOL    HW211127   2.951   0.569   3.812
 3523SOL     OW11128   1.941   0.552   5.118
 3523SOL    HW111129   2.032   0.554   5.087
 3523SOL    HW211130   1.935   0.624   5.181
 3524SOL     OW11131   2.426   0.241   4.888
 3524SOL    HW111132   2.454   0.157   4.926
 3524SOL    HW211133   2.335   0.249   4.914
 3525SOL     OW11134   2.728   0.500   4.350
 3525SOL    HW111135   2.677   0.543   4.281
 3525SOL    HW211136   2.713   0.407   4.337
 3526SOL     OW11137   2.833   0.032   4.498
 3526SOL    HW111138   2.783   0.027   4.416
 3526SOL    HW211139   2.842   4.441   4.526
 3527SOL     OW11140   3.299   1.163   4.582
 3527SOL    HW111141   3.230   1.097   4.581
 3527SOL    HW211142   3.319   1.177   4.489
 3528SOL     OW11143   3.330   0.602   4.703
 3528SOL    HW111144   3.279   0.521   4.707
 3528SOL    HW211145   3.389   0.597   4.778
 3529SOL     OW11146   3.710   0.819   4.105
 3529SOL    HW111147   3.765   0.766   4.164
 3529SOL    HW211148   3.680   0.757   4.038
 3530SOL     OW11149   2.353   1.415   3.885
 3530SOL    HW111150   2.279   1.384   3.936
 3530SOL    HW211151   2.334   1.386   3.795
 3531SOL     OW11152   3.530   1.266   4.371
 3531SOL    HW111153   3.625   1.272   4.385
 3531SOL    HW211154   3.497   1.353   4.394
 3532SOL     OW11155   3.256   0.570   3.794
 3532SOL    HW111156   3.195   0.554   3.866
 3532SOL    HW211157   3.342   0.548   3.830
 3533SOL     OW11158   2.386   0.265   4.049
 3533SOL    HW111159   2.429   0.212   3.981
 3533SOL    HW211160   2.371   0.350   4.007
 3534SOL     OW11161   3.616   1.235   5.301
 3534SOL    HW111162   3.704   1.197   5.298
 3534SOL    HW211163   3.630   1.325   5.330
 3535SOL     OW11164   2.930   1.331   5.059
 3535SOL    HW111165   2.856   1.309   5.116
 3535SOL    HW211166   3.007   1.298   5.106
 3536SOL     OW11167   3.468   1.625   5.376
 3536SOL    HW111168   3.465   1.659   5.286
 3536SOL    HW211169   3.551   1.578   5.381
 3537SOL     OW11170   2.987   1.194   4.827
 3537SOL    HW111171   2.935   1.234   4.897
 3537SOL    HW211172   2.951   1.232   4.747
 3538SOL     OW11173   3.493   1.100   4.803
 3538SOL    HW111174   3.489   1.162   4.875
 3538SOL    HW211175   3.413   1.115   4.753
 3539SOL     OW11176   2.767   0.129   5.115
 3539SOL    HW111177   2.789   0.087   5.032
 3539SOL    HW211178   2.851   0.143   5.158
 3540SOL     OW11179   2.846   1.113   5.447
 3540SOL    HW111180   2.753   1.130   5.465
 3540SOL    HW211181   2.846   1.036   5.390
 3541SOL     OW11182   2.570   1.061   4.096
 3541SOL    HW111183   2.557   1.046   4.190
 3541SOL    HW211184   2.646   1.007   4.074
 3542SOL     OW11185   2.278   0.814   4.976
 3542SOL    HW111186   2.349   0.824   5.040
 3542SOL    HW211187   2.244   0.726   4.990
 3543SOL     OW11188   3.131   0.377   4.995
 3543SOL    HW111189   3.163   0.455   5.041
 3543SOL    HW211190   3.043   0.400   4.967
 3544SOL     OW11191   2.215   1.106   4.216
 3544SOL    HW111192   2.219   1.179   4.154
 3544SOL    HW211193   2.214   1.028   4.160
 3545SOL     OW11194   2.420   0.532   4.583
 3545SOL    HW111195   2.435   0.591   4.509
 3545SOL    HW211196   2.481   0.563   4.651
 3546SOL     OW11197   3.110   1.348   4.113
 3546SOL    HW111198   3.165   1.420   4.144
 3546SOL    HW211199   3.023   1.368   4.147
 3547SOL     OW11200   3.140   1.451   4.868
 3547SOL    HW111201   3.193   1.459   4.947
 3547SOL    HW211202   3.082   1.377   4.884
 3548SOL     OW11203   3.445   0.625   4.199
 3548SOL    HW111204   3.401   0.678   4.265
 3548SOL    HW211205   3.490   0.689   4.143
 3549SOL     OW11206   2.275   0.743   5.325
 3549SOL    HW111207   2.334   0.791   5.267
 3549SOL    HW211208   2.320   0.661   5.343
 3550SOL     OW11209   3.460   0.777   5.402
 3550SOL    HW111210   3.373   0.818   5.395
 3550SOL    HW211211   3.512   0.819   5.334
 3551SOL     OW11212   2.870   0.086   5.451
 3551SOL    HW111213   2.890   0.171   5.412
 3551SOL    HW211214   2.896   0.022   5.385
 3552SOL     OW11215   2.361   0.049   5.480
 3552SOL    HW111216   2.349   0.002   5.397
 3552SOL    HW211217   2.293   0.116   5.479
 3553SOL     OW11218   2.443   0.872   4.754
 3553SOL    HW111219   2.475   0.963   4.751
 3553SOL    HW211220   2.387   0.870   4.832
 3554SOL     OW11221   3.223   0.859   4.757
 3554SOL    HW111222   3.141   0.853   4.708
 3554SOL    HW211223   3.259   0.770   4.753
 3555SOL     OW11224   3.069   0.534   3.991
 3555SOL    HW111225   3.075   0.454   4.042
 3555SOL    HW211226   3.026   0.597   4.049
 3556SOL     OW11227   2.152   0.235   4.964
 3556SOL    HW111228   2.112   0.251   5.049
 3556SOL    HW211229   2.181   0.144   4.967
 3557SOL     OW11230   1.896   1.326   5.024
 3557SOL    HW111231   1.941   1.261   5.078
 3557SOL    HW211232   1.963   1.391   5.003
 3558SOL     OW11233   2.586   0.632   4.784
 3558SOL    HW111234   2.659   0.612   4.725
 3558SOL    HW211235   2.560   0.721   4.760
 3559SOL     OW11236   3.595   0.958   5.575
 3559SOL    HW111237   3.546   0.905   5.513
 3559SOL    HW211238   3.536   0.970   5.649
 3560SOL     OW11239   2.161   0.060   4.377
 3560SOL    HW111240   2.151   0.155   4.382
 3560SOL    HW211241   2.173   0.032   4.468
 3561SOL     OW11242   3.472   0.374   4.090
 3561SOL    HW111243   3.504   0.312   4.156
 3561SOL    HW211244   3.451   0.453   4.141
 3562SOL     OW11245   2.890   0.761   4.686
 3562SOL    HW111246   2.889   0.778   4.781
 3562SOL    HW211247   2.861   0.670   4.678
 3563SOL     OW11248   2.849   1.559   5.439
 3563SOL    HW111249   2.834   1.603   5.355
 3563SOL    HW211250   2.892   1.478   5.415
 3564SOL     OW11251   3.718   1.508   5.330
 3564SOL    HW111252   3.733   1.534   5.239
 3564SOL    HW211253   3.800   1.531   5.376
 3565SOL     OW11254   2.214   0.916   5.531
 3565SOL    HW111255   2.296   0.936   5.576
 3565SOL    HW211256   2.240   0.854   5.463
 3566SOL     OW11257   3.394   0.267   3.852
 3566SOL    HW111258   3.322   0.211   3.879
 3566SOL    HW211259   3.422   0.312   3.932
 3567SOL     OW11260   3.156   0.827   3.757
 3567SOL    HW111261   3.198   0.741   3.759
 3567SOL    HW211262   3.187   0.866   3.674
 3568SOL     OW11263   2.932   1.336   4.574
 3568SOL    HW111264   2.933   1.262   4.514
 3568SOL    HW211265   2.997   1.397   4.540
 3569SOL     OW11266   2.173   0.810   4.672
 3569SOL    HW111267   2.265   0.833   4.666
 3569SOL    HW211268   2.172   0.721   4.707
 3570SOL     OW11269   2.199   0.528   4.737
 3570SOL    HW111270   2.157   0.444   4.717
 3570SOL    HW211271   2.275   0.531   4.678
 3571SOL     OW11272   2.997   0.375   5.416
 3571SOL    HW111273   2.950   0.440   5.468
 3571SOL    HW211274   3.084   0.414   5.403
 3572SOL     OW11275   3.023   0.211   5.198
 3572SOL    HW111276   3.014   0.275   5.268
 3572SOL    HW211277   3.056   0.261   5.124
 3573SOL     OW11278   1.867   1.323   3.919
 3573SOL    HW111279   1.779   1.336   3.882
 3573SOL    HW211280   1.865   1.233   3.952
 3574SOL     OW11281   2.347   1.547   4.586
 3574SOL    HW111282   2.407   1.603   4.636
 3574SOL    HW211283   2.404   1.481   4.546
 3575SOL     OW11284   2.851   0.794   4.953
 3575SOL    HW111285   2.903   0.769   5.029
 3575SOL    HW211286   2.764   0.758   4.970
 3576SOL     OW11287   1.896   0.541   4.842
 3576SOL    HW111288   1.975   0.523   4.791
 3576SOL    HW211289   1.927   0.549   4.932
 3577SOL     OW11290   2.047   0.517   5.443
 3577SOL    HW111291   2.120   0.496   5.385
 3577SOL    HW211292   2.004   0.592   5.403
 3578SOL     OW11293   3.238   0.941   5.384
 3578SOL    HW111294   3.259   1.034   5.384
 3578SOL    HW211295   3.235   0.917   5.291
 3579SOL     OW11296   2.674   0.573   4.077
 3579SOL    HW111297   2.677   0.500   4.014
 3579SOL    HW211298   2.599   0.626   4.049
 3580SOL     OW11299   3.504   0.601   4.914
 3580SOL    HW111300   3.493   0.541   4.987
 3580SOL    HW211301   3.591   0.581   4.879
 3581SOL     OW11302   2.554   0.460   4.990
 3581SOL    HW111303   2.510   0.382   4.956
 3581SOL    HW211304   2.557   0.520   4.915
 3582SOL     OW11305   2.815   1.656   5.180
 3582SOL    HW111306   2.795   1.637   5.088
 3582SOL    HW211307   2.799   1.750   5.189
 3583SOL     OW11308   2.329   0.493   3.909
 3583SOL    HW111309   2.387   0.566   3.930
 3583SOL    HW211310   2.242   0.533   3.901
 3584SOL     OW11311   2.015   1.141   5.193
 3584SOL    HW111312   2.017   1.089   5.273
 3584SOL    HW211313   2.028   1.077   5.123
 3585SOL     OW11314   3.192   1.048   4.949
 3585SOL    HW111315   3.216   0.986   4.881
 3585SOL    HW211316   3.119   1.098   4.912
 3586SOL     OW11317   3.172   0.856   4.031
 3586SOL    HW111318   3.095   0.827   4.081
 3586SOL    HW211319   3.147   0.843   3.939
 3587SOL     OW11320   3.630   1.747   4.872
 3587SOL    HW111321   3.690   1.772   4.802
 3587SOL    HW211322   3.606   1.657   4.852
 3588SOL     OW11323   3.130   1.736   4.861
 3588SOL    HW111324   3.198   1.744   4.794
 3588SOL    HW211325   3.107   1.644   4.862
 3589SOL     OW11326   1.951   1.253   4.754
 3589SOL    HW111327   1.919   1.274   4.842
 3589SOL    HW211328   1.872   1.234   4.704
 3590SOL     OW11329   3.580   0.130   4.222
 3590SOL    HW111330   3.654   0.134   4.162
 3590SOL    HW211331   3.600   0.056   4.279
 3591SOL     OW11332   3.251   1.568   4.205
 3591SOL    HW111333   3.312   1.601   4.139
 3591SOL    HW211334   3.205   1.645   4.236
 3592SOL     OW11335   3.140   0.925   4.395
 3592SOL    HW111336   3.213   0.863   4.399
 3592SOL    HW211337   3.173   0.998   4.344
 3593SOL     OW11338   2.684   1.268   5.159
 3593SOL    HW111339   2.656   1.310   5.240
 3593SOL    HW211340   2.615   1.290   5.096
 3594SOL     OW11341   2.532   1.618   3.879
 3594SOL    HW111342   2.543   1.628   3.785
 3594SOL    HW211343   2.480   1.538   3.890
 3595SOL     OW11344   3.499   1.727   5.118
 3595SOL    HW111345   3.542   1.736   5.033
 3595SOL    HW211346   3.483   1.817   5.146
 3596SOL     OW11347   3.701   0.155   4.691
 3596SOL    HW111348   3.731   0.080   4.641
 3596SOL    HW211349   3.614   0.175   4.655
 3597SOL     OW11350   2.129   0.325   4.444
 3597SOL    HW111351   2.044   0.358   4.415
 3597SOL    HW211352   2.120   0.314   4.538
 3598SOL     OW11353   3.068   1.608   3.755
 3598SOL    HW111354   3.060   1.517   3.783
 3598SOL    HW211355   3.003   1.617   3.685
 3599SOL     OW11356   2.686   1.004   5.094
 3599SOL    HW111357   2.729   1.002   5.009
 3599SOL    HW211358   2.689   1.096   5.121
 3600SOL     OW11359   2.777   0.910   4.013
 3600SOL    HW111360   2.840   0.941   3.948
 3600SOL    HW211361   2.823   0.839   4.058
 3601SOL     OW11362   3.357   1.624   3.766
 3601SOL    HW111363   3.262   1.620   3.755
 3601SOL    HW211364   3.391   1.630   3.677
 3602SOL     OW11365   2.228   1.308   5.216
 3602SOL    HW111366   2.221   1.371   5.145
 3602SOL    HW211367   2.158   1.244   5.198
 3603SOL     OW11368   3.475   1.283   5.005
 3603SOL    HW111369   3.532   1.276   5.082
 3603SOL    HW211370   3.413   1.353   5.028
 3604SOL     OW11371   2.910   1.105   4.428
 3604SOL    HW111372   2.840   1.055   4.469
 3604SOL    HW211373   2.971   1.039   4.395
 3605SOL     OW11374   2.870   0.241   4.720
 3605SOL    HW111375   2.877   0.211   4.629
 3605SOL    HW211376   2.863   0.160   4.771
 3606SOL     OW11377   2.464   1.490   4.205
 3606SOL    HW111378   2.504   1.438   4.135
 3606SOL    HW211379   2.396   1.540   4.160
 3607SOL     OW11380   3.581   0.393   5.102
 3607SOL    HW111381   3.653   0.456   5.100
 3607SOL    HW211382   3.611   0.321   5.046
 3608SOL     OW11383   2.120   1.347   4.010
 3608SOL    HW111384   2.027   1.344   3.988
 3608SOL    HW211385   2.123   1.383   4.099
 3609SOL     OW11386   1.973   1.019   5.441
 3609SOL    HW111387   1.898   0.996   5.496
 3609SOL    HW211388   2.048   0.984   5.489
 3610SOL     OW11389   2.521   0.203   5.220
 3610SOL    HW111390   2.602   0.179   5.174
 3610SOL    HW211391   2.550   0.222   5.310
 3611SOL     OW11392   1.942   0.343   3.770
 3611SOL    HW111393   1.870   0.293   3.733
 3611SOL    HW211394   1.959   0.412   3.705
 3612SOL     OW11395   3.294   0.858   5.125
 3612SOL    HW111396   3.245   0.917   5.068
 3612SOL    HW211397   3.384   0.862   5.092
 3613SOL     OW11398   1.928   0.179   4.047
 3613SOL    HW111399   1.924   0.246   3.978
 3613SOL    HW211400   2.003   0.125   4.023
 3614SOL     OW11401   3.042   1.342   3.841
 3614SOL    HW111402   2.951   1.311   3.845
 3614SOL    HW211403   3.071   1.342   3.932
 3615SOL     OW11404   2.480   0.831   5.156
 3615SOL    HW111405   2.535   0.908   5.141
 3615SOL    HW211406   2.542   0.759   5.165
 3616SOL     OW11407   3.350   1.771   4.692
 3616SOL    HW111408   3.377   1.832   4.623
 3616SOL    HW211409   3.429   1.760   4.746
 3617SOL     OW11410   2.578   0.564   5.431
 3617SOL    HW111411   2.612   0.630   5.492
 3617SOL    HW211412   2.616   0.482   5.460
 3618SOL     OW11413   3.333   1.201   5.359
 3618SOL    HW111414   3.320   1.216   5.452
 3618SOL    HW211415   3.426   1.216   5.345
 3619SOL     OW11416   3.534   0.882   4.980
 3619SOL    HW111417   3.524   0.797   4.936
 3619SOL    HW211418   3.525   0.946   4.909
 3620SOL     OW11419   3.080   0.327   4.172
 3620SOL    HW111420   3.145   0.258   4.163
 3620SOL    HW211421   3.106   0.375   4.251
 3621SOL     OW11422   2.451   0.740   4.392
 3621SOL    HW111423   2.492   0.825   4.376
 3621SOL    HW211424   2.382   0.734   4.326
 3622SOL     OW11425   3.629   0.360   5.367
 3622SOL    HW111426   3.611   0.375   5.273
 3622SOL    HW211427   3.550   0.317   5.399
 3623SOL     OW11428   3.606   0.933   5.237
 3623SOL    HW111429   3.607   1.028   5.250
 3623SOL    HW211430   3.591   0.922   5.143
 3624SOL     OW11431   2.723   1.368   3.753
 3624SOL    HW111432   2.686   1.393   3.838
 3624SOL    HW211433   2.744   1.452   3.711
 3625SOL     OW11434   2.728   0.965   4.580
 3625SOL    HW111435   2.779   0.894   4.620
 3625SOL    HW211436   2.696   1.016   4.654
 3626SOL     OW11437   2.942   0.988   3.813
 3626SOL    HW111438   2.920   1.038   3.734
 3626SOL    HW211439   3.018   0.935   3.787
 3627SOL     OW11440   3.719   1.556   4.569
 3627SOL    HW111441   3.641   1.546   4.514
 3627SOL    HW211442   3.709   1.489   4.637
 3628SOL     OW11443   2.083   1.307   5.572
 3628SOL    HW111444   2.017   1.241   5.553
 3628SOL    HW211445   2.070   1.327   5.665
 3629SOL     OW11446   1.949   1.236   4.388
 3629SOL    HW111447   1.946   1.185   4.469
 3629SOL    HW211448   2.016   1.194   4.335
 3630SOL     OW11449   2.533   1.404   5.336
 3630SOL    HW111450   2.464   1.355   5.381
 3630SOL    HW211451   2.538   1.487   5.384
 3631SOL     OW11452   3.673   0.184   4.963
 3631SOL    HW111453   3.672   0.090   4.984
 3631SOL    HW211454   3.688   0.187   4.869
 3632SOL     OW11455   2.296   0.433   4.251
 3632SOL    HW111456   2.320   0.363   4.191
 3632SOL    HW211457   2.242   0.390   4.318
 3633SOL     OW11458   3.564   1.491   4.824
 3633SOL    HW111459   3.483   1.467   4.780
 3633SOL    HW211460   3.577   1.423   4.890
 3634SOL     OW11461   2.189   0.554   5.015
 3634SOL    HW111462   2.245   0.499   5.069
 3634SOL    HW211463   2.210   0.528   4.925
 3635SOL     OW11464   2.686   1.574   4.403
 3635SOL    HW111465   2.681   1.623   4.321
 3635SOL    HW211466   2.608   1.518   4.403
 3636SOL     OW11467   3.294   0.215   4.842
 3636SOL    HW111468   3.331   0.146   4.896
 3636SOL    HW211469   3.243   0.268   4.903
 3637SOL     OW11470   2.859   0.013   4.872
 3637SOL    HW111471   2.814   4.429   4.862
 3637SOL    HW211472   2.951   4.488   4.885
 3638SOL     OW11473   2.634   1.332   4.033
 3638SOL    HW111474   2.600   1.243   4.041
 3638SOL    HW211475   2.715   1.331   4.084
 3639SOL     OW11476   3.205   0.054   3.876
 3639SOL    HW111477   3.244   4.479   3.831
 3639SOL    HW211478   3.129   0.017   3.922
 3640SOL     OW11479   3.176   0.462   4.405
 3640SOL    HW111480   3.114   0.535   4.405
 3640SOL    HW211481   3.164   0.419   4.489
 3641SOL     OW11482   3.448   0.203   4.591
 3641SOL    HW111483   3.387   0.217   4.664
 3641SOL    HW211484   3.451   0.287   4.546
 3642SOL     OW11485   1.906   1.073   4.028
 3642SOL    HW111486   2.000   1.063   4.012
 3642SOL    HW211487   1.876   0.985   4.052
 3643SOL     OW11488   2.744   1.649   4.067
 3643SOL    HW111489   2.672   1.631   4.007
 3643SOL    HW211490   2.715   1.724   4.118
 3644SOL     OW11491   2.092   0.627   5.705
 3644SOL    HW111492   2.004   0.621   5.742
 3644SOL    HW211493   2.083   0.595   5.616
 3645SOL     OW11494   2.072   0.295   6.574
 3645SOL    HW111495   2.103   0.269   6.661
 3645SOL    HW211496   1.990   0.248   6.563
 3646SOL     OW11497   1.871   0.383   6.226
 3646SOL    HW111498   1.784   0.404   6.262
 3646SOL    HW211499   1.855   0.309   6.168
 3647SOL     OW11500   2.429   1.283   6.757
 3647SOL    HW111501   2.340   1.284   6.721
 3647SOL    HW211502   2.442   1.371   6.791
 3648SOL     OW11503   3.418   1.511   6.291
 3648SOL    HW111504   3.373   1.494   6.374
 3648SOL    HW211505   3.348   1.517   6.227
 3649SOL     OW11506   2.993   0.700   6.288
 3649SOL    HW111507   3.042   0.781   6.276
 3649SOL    HW211508   2.944   0.713   6.369
 3650SOL     OW11509   3.627   0.609   5.816
 3650SOL    HW111510   3.608   0.597   5.722
 3650SOL    HW211511   3.594   0.528   5.856
 3651SOL     OW11512   2.622   1.146   6.623
 3651SOL    HW111513   2.551   1.179   6.678
 3651SOL    HW211514   2.657   1.223   6.579
 3652SOL     OW11515   2.724   0.781   7.407
 3652SOL    HW111516   2.712   0.852   7.469
 3652SOL    HW211517   2.748   0.824   7.325
 3653SOL     OW11518   2.549   1.008   6.236
 3653SOL    HW111519   2.613   0.992   6.306
 3653SOL    HW211520   2.478   1.055   6.278
 3654SOL     OW11521   2.569   1.152   7.395
 3654SOL    HW111522   2.617   1.231   7.419
 3654SOL    HW211523   2.485   1.184   7.362
 3655SOL     OW11524   2.189   1.426   6.659
 3655SOL    HW111525   2.117   1.392   6.605
 3655SOL    HW211526   2.244   1.475   6.597
 3656SOL     OW11527   3.324   1.498   6.937
 3656SOL    HW111528   3.367   1.583   6.946
 3656SOL    HW211529   3.270   1.489   7.015
 3657SOL     OW11530   2.303   0.396   7.078
 3657SOL    HW111531   2.384   0.346   7.079
 3657SOL    HW211532   2.234   0.330   7.090
 3658SOL     OW11533   3.475   0.448   6.324
 3658SOL    HW111534   3.394   0.472   6.278
 3658SOL    HW211535   3.497   0.525   6.376
 3659SOL     OW11536   2.997   1.341   7.277
 3659SOL    HW111537   3.037   1.337   7.364
 3659SOL    HW211538   2.945   1.261   7.271
 3660SOL     OW11539   2.089   1.440   6.128
 3660SOL    HW111540   2.055   1.527   6.151
 3660SOL    HW211541   2.035   1.379   6.179
 3661SOL     OW11542   2.116   1.090   6.476
 3661SOL    HW111543   2.113   1.004   6.519
 3661SOL    HW211544   2.058   1.145   6.529
 3662SOL     OW11545   2.476   1.792   7.014
 3662SOL    HW111546   2.394   1.773   7.060
 3662SOL    HW211547   2.499   1.881   7.041
 3663SOL     OW11548   2.453   0.978   5.717
 3663SOL    HW111549   2.492   1.033   5.650
 3663SOL    HW211550   2.491   1.009   5.799
 3664SOL     OW11551   3.448   0.114   7.061
 3664SOL    HW111552   3.459   0.182   6.994
 3664SOL    HW211553   3.437   0.162   7.143
 3665SOL     OW11554   1.977   0.651   6.146
 3665SOL    HW111555   1.948   0.562   6.167
 3665SOL    HW211556   1.968   0.699   6.227
 3666SOL     OW11557   3.704   1.761   5.922
 3666SOL    HW111558   3.761   1.732   5.993
 3666SOL    HW211559   3.731   1.852   5.905
 3667SOL     OW11560   3.553   0.920   6.224
 3667SOL    HW111561   3.638   0.880   6.205
 3667SOL    HW211562   3.531   0.969   6.145
 3668SOL     OW11563   3.507   1.108   6.016
 3668SOL    HW111564   3.592   1.117   5.973
 3668SOL    HW211565   3.511   1.168   6.090
 3669SOL     OW11566   1.984   0.743   7.172
 3669SOL    HW111567   2.075   0.765   7.187
 3669SOL    HW211568   1.937   0.826   7.179
 3670SOL     OW11569   2.469   1.384   6.309
 3670SOL    HW111570   2.432   1.299   6.335
 3670SOL    HW211571   2.436   1.399   6.221
 3671SOL     OW11572   3.152   1.239   7.010
 3671SOL    HW111573   3.184   1.172   6.950
 3671SOL    HW211574   3.208   1.231   7.088
 3672SOL     OW11575   2.677   0.011   6.131
 3672SOL    HW111576   2.711   0.098   6.108
 3672SOL    HW211577   2.582   0.020   6.124
 3673SOL     OW11578   2.054   0.969   6.855
 3673SOL    HW111579   2.138   0.925   6.839
 3673SOL    HW211580   1.989   0.912   6.813
 3674SOL     OW11581   3.394   0.991   5.782
 3674SOL    HW111582   3.324   0.933   5.812
 3674SOL    HW211583   3.433   1.025   5.863
 3675SOL     OW11584   3.046   1.803   7.206
 3675SOL    HW111585   3.064   1.860   7.130
 3675SOL    HW211586   3.062   1.715   7.173
 3676SOL     OW11587   2.177   0.255   7.368
 3676SOL    HW111588   2.241   0.319   7.399
 3676SOL    HW211589   2.103   0.264   7.427
 3677SOL     OW11590   3.331   1.418   6.542
 3677SOL    HW111591   3.260   1.434   6.605
 3677SOL    HW211592   3.317   1.328   6.512
 3678SOL     OW11593   3.525   1.731   6.163
 3678SOL    HW111594   3.499   1.705   6.075
 3678SOL    HW211595   3.497   1.659   6.219
 3679SOL     OW11596   2.456   0.724   5.850
 3679SOL    HW111597   2.465   0.804   5.798
 3679SOL    HW211598   2.391   0.746   5.916
 3680SOL     OW11599   3.152   0.358   6.521
 3680SOL    HW111600   3.063   0.326   6.505
 3680SOL    HW211601   3.189   0.296   6.583
 3681SOL     OW11602   3.444   1.667   5.895
 3681SOL    HW111603   3.533   1.703   5.888
 3681SOL    HW211604   3.418   1.651   5.804
 3682SOL     OW11605   2.658   0.618   7.041
 3682SOL    HW111606   2.629   0.594   7.129
 3682SOL    HW211607   2.615   0.554   6.984
 3683SOL     OW11608   3.251   0.478   7.262
 3683SOL    HW111609   3.253   0.521   7.347
 3683SOL    HW211610   3.318   0.410   7.269
 3684SOL     OW11611   2.820   0.889   7.167
 3684SOL    HW111612   2.874   0.817   7.133
 3684SOL    HW211613   2.773   0.921   7.090
 3685SOL     OW11614   2.857   0.417   6.824
 3685SOL    HW111615   2.771   0.430   6.865
 3685SOL    HW211616   2.838   0.365   6.746
 3686SOL     OW11617   2.911   0.697   6.014
 3686SOL    HW111618   2.926   0.691   6.108
 3686SOL    HW211619   2.829   0.651   5.999
 3687SOL     OW11620   1.951   0.819   6.362
 3687SOL    HW111621   2.033   0.813   6.411
 3687SOL    HW211622   1.908   0.898   6.397
 3688SOL     OW11623   1.993   1.831   7.160
 3688SOL    HW111624   1.985   1.818   7.255
 3688SOL    HW211625   1.903   1.849   7.131
 3689SOL     OW11626   2.716   0.368   5.765
 3689SOL    HW111627   2.791   0.404   5.718
 3689SOL    HW211628   2.734   0.274   5.770
 3690SOL     OW11629   3.569   0.576   7.414
 3690SOL    HW111630   3.534   0.653   7.369
 3690SOL    HW211631   3.601   0.520   7.343
 3691SOL     OW11632   3.237   1.142   6.128
 3691SOL    HW111633   3.315   1.128   6.075
 3691SOL    HW211634   3.185   1.205   6.078
 3692SOL     OW11635   2.402   0.201   6.487
 3692SOL    HW111636   2.421   0.219   6.579
 3692SOL    HW211637   2.393   0.288   6.447
 3693SOL     OW11638   2.878   1.448   6.059
 3693SOL    HW111639   2.835   1.518   6.010
 3693SOL    HW211640   2.850   1.461   6.150
 3694SOL     OW11641   3.660   1.061   6.453
 3694SOL    HW111642   3.603   1.044   6.378
 3694SOL    HW211643   3.599   1.065   6.528
 3695SOL     OW11644   3.089   1.540   7.099
 3695SOL    HW111645   3.076   1.467   7.159
 3695SOL    HW211646   3.031   1.522   7.025
 3696SOL     OW11647   2.183   0.953   5.835
 3696SOL    HW111648   2.264   0.977   5.789
 3696SOL    HW211649   2.154   0.873   5.792
 3697SOL     OW11650   3.338   0.739   6.312
 3697SOL    HW111651   3.325   0.692   6.394
 3697SOL    HW211652   3.414   0.795   6.328
 3698SOL     OW11653   2.326   1.263   7.323
 3698SOL    HW111654   2.298   1.268   7.232
 3698SOL    HW211655   2.245   1.262   7.374
 3699SOL     OW11656   2.999   1.771   5.827
 3699SOL    HW111657   2.906   1.761   5.848
 3699SOL    HW211658   3.011   1.720   5.747
 3700SOL     OW11659   2.051   0.268   7.094
 3700SOL    HW111660   1.985   0.335   7.077
 3700SOL    HW211661   2.060   0.267   7.190
 3701SOL     OW11662   3.492   1.379   5.672
 3701SOL    HW111663   3.451   1.464   5.658
 3701SOL    HW211664   3.422   1.316   5.655
 3702SOL     OW11665   3.278   0.131   6.005
 3702SOL    HW111666   3.261   0.085   5.923
 3702SOL    HW211667   3.373   0.130   6.014
 3703SOL     OW11668   2.116   1.784   6.830
 3703SOL    HW111669   2.171   1.715   6.867
 3703SOL    HW211670   2.095   1.753   6.742
 3704SOL     OW11671   2.252   0.695   6.064
 3704SOL    HW111672   2.277   0.603   6.074
 3704SOL    HW211673   2.158   0.697   6.082
 3705SOL     OW11674   3.388   0.233   7.308
 3705SOL    HW111675   3.387   0.256   7.401
 3705SOL    HW211676   3.313   0.174   7.297
 3706SOL     OW11677   2.485   0.122   5.707
 3706SOL    HW111678   2.574   0.088   5.715
 3706SOL    HW211679   2.454   0.088   5.623
 3707SOL     OW11680   2.632   0.271   7.338
 3707SOL    HW111681   2.696   0.202   7.356
 3707SOL    HW211682   2.583   0.279   7.420
 3708SOL     OW11683   2.740   1.523   6.777
 3708SOL    HW111684   2.725   1.484   6.691
 3708SOL    HW211685   2.808   1.469   6.816
 3709SOL     OW11686   3.204   0.589   7.016
 3709SOL    HW111687   3.232   0.559   7.102
 3709SOL    HW211688   3.238   0.678   7.009
 3710SOL     OW11689   2.675   1.403   6.521
 3710SOL    HW111690   2.760   1.396   6.478
 3710SOL    HW211691   2.612   1.397   6.449
 3711SOL     OW11692   2.784   0.515   6.488
 3711SOL    HW111693   2.768   0.513   6.394
 3711SOL    HW211694   2.825   0.431   6.507
 3712SOL     OW11695   2.415   0.072   6.105
 3712SOL    HW111696   2.325   0.050   6.130
 3712SOL    HW211697   2.405   0.141   6.039
 3713SOL     OW11698   3.291   1.198   5.628
 3713SOL    HW111699   3.321   1.122   5.678
 3713SOL    HW211700   3.204   1.217   5.664
 3714SOL     OW11701   2.158   0.071   5.777
 3714SOL    HW111702   2.236   0.123   5.759
 3714SOL    HW211703   2.190   4.499   5.833
 3715SOL     OW11704   2.811   0.240   6.058
 3715SOL    HW111705   2.759   0.288   5.994
 3715SOL    HW211706   2.900   0.275   6.049
 3716SOL     OW11707   2.942   0.679   7.048
 3716SOL    HW111708   2.869   0.616   7.049
 3716SOL    HW211709   3.020   0.626   7.035
 3717SOL     OW11710   3.095   1.562   6.372
 3717SOL    HW111711   3.107   1.635   6.311
 3717SOL    HW211712   3.151   1.583   6.446
 3718SOL     OW11713   2.329   1.148   6.323
 3718SOL    HW111714   2.258   1.129   6.385
 3718SOL    HW211715   2.292   1.130   6.237
 3719SOL     OW11716   3.132   1.794   6.192
 3719SOL    HW111717   3.175   1.855   6.133
 3719SOL    HW211718   3.069   1.847   6.240
 3720SOL     OW11719   2.893   0.549   5.601
 3720SOL    HW111720   2.845   0.631   5.584
 3720SOL    HW211721   2.951   0.570   5.674
 3721SOL     OW11722   1.941   0.552   6.980
 3721SOL    HW111723   2.032   0.554   6.949
 3721SOL    HW211724   1.935   0.624   7.043
 3722SOL     OW11725   2.426   0.241   6.750
 3722SOL    HW111726   2.454   0.157   6.787
 3722SOL    HW211727   2.335   0.249   6.776
 3723SOL     OW11728   2.728   0.501   6.212
 3723SOL    HW111729   2.677   0.543   6.142
 3723SOL    HW211730   2.713   0.407   6.200
 3724SOL     OW11731   2.833   0.032   6.360
 3724SOL    HW111732   2.783   0.027   6.278
 3724SOL    HW211733   2.842   4.441   6.388
 3725SOL     OW11734   3.298   1.163   6.444
 3725SOL    HW111735   3.230   1.096   6.442
 3725SOL    HW211736   3.320   1.178   6.352
 3726SOL     OW11737   3.330   0.602   6.566
 3726SOL    HW111738   3.279   0.521   6.569
 3726SOL    HW211739   3.389   0.597   6.641
 3727SOL     OW11740   3.710   0.819   5.967
 3727SOL    HW111741   3.765   0.766   6.025
 3727SOL    HW211742   3.680   0.758   5.900
 3728SOL     OW11743   2.350   1.359   5.743
 3728SOL    HW111744   2.270   1.354   5.795
 3728SOL    HW211745   2.323   1.405   5.663
 3729SOL     OW11746   3.530   1.265   6.234
 3729SOL    HW111747   3.625   1.272   6.247
 3729SOL    HW211748   3.497   1.353   6.255
 3730SOL     OW11749   3.256   0.569   5.656
 3730SOL    HW111750   3.195   0.554   5.728
 3730SOL    HW211751   3.342   0.548   5.692
 3731SOL     OW11752   2.386   0.265   5.911
 3731SOL    HW111753   2.429   0.212   5.843
 3731SOL    HW211754   2.371   0.350   5.869
 3732SOL     OW11755   3.616   1.236   7.163
 3732SOL    HW111756   3.703   1.197   7.159
 3732SOL    HW211757   3.630   1.326   7.193
 3733SOL     OW11758   2.922   1.356   6.922
 3733SOL    HW111759   2.848   1.323   6.972
 3733SOL    HW211760   2.998   1.313   6.962
 3734SOL     OW11761   3.467   1.625   7.237
 3734SOL    HW111762   3.465   1.659   7.148
 3734SOL    HW211763   3.551   1.579   7.243
 3735SOL     OW11764   2.988   1.202   6.694
 3735SOL    HW111765   2.928   1.240   6.758
 3735SOL    HW211766   2.956   1.233   6.609
 3736SOL     OW11767   3.493   1.099   6.665
 3736SOL    HW111768   3.488   1.162   6.737
 3736SOL    HW211769   3.413   1.115   6.615
 3737SOL     OW11770   2.767   0.130   6.977
 3737SOL    HW111771   2.789   0.086   6.894
 3737SOL    HW211772   2.851   0.143   7.020
 3738SOL     OW11773   2.846   1.114   7.308
 3738SOL    HW111774   2.753   1.129   7.327
 3738SOL    HW211775   2.847   1.037   7.252
 3739SOL     OW11776   2.568   1.056   5.960
 3739SOL    HW111777   2.557   1.042   6.054
 3739SOL    HW211778   2.645   1.004   5.937
 3740SOL     OW11779   2.279   0.814   6.837
 3740SOL    HW111780   2.349   0.823   6.902
 3740SOL    HW211781   2.244   0.726   6.852
 3741SOL     OW11782   3.131   0.377   6.857
 3741SOL    HW111783   3.163   0.455   6.903
 3741SOL    HW211784   3.043   0.399   6.829
 3742SOL     OW11785   1.928   1.572   6.933
 3742SOL    HW111786   1.894   1.648   6.886
 3742SOL    HW211787   2.023   1.584   6.933
 3743SOL     OW11788   2.216   1.109   6.077
 3743SOL    HW111789   2.218   1.180   6.013
 3743SOL    HW211790   2.216   1.029   6.024
 3744SOL     OW11791   2.420   0.532   6.445
 3744SOL    HW111792   2.435   0.591   6.371
 3744SOL    HW211793   2.481   0.563   6.513
 3745SOL     OW11794   3.112   1.347   5.975
 3745SOL    HW111795   3.168   1.419   6.005
 3745SOL    HW211796   3.025   1.368   6.009
 3746SOL     OW11797   3.139   1.456   6.732
 3746SOL    HW111798   3.194   1.457   6.810
 3746SOL    HW211799   3.084   1.378   6.741
 3747SOL     OW11800   3.445   0.625   6.061
 3747SOL    HW111801   3.401   0.679   6.127
 3747SOL    HW211802   3.490   0.689   6.005
 3748SOL     OW11803   2.212   1.522   6.906
 3748SOL    HW111804   2.196   1.481   6.821
 3748SOL    HW211805   2.307   1.535   6.908
 3749SOL     OW11806   2.275   0.744   7.188
 3749SOL    HW111807   2.334   0.791   7.129
 3749SOL    HW211808   2.319   0.660   7.205
 3750SOL     OW11809   3.460   0.777   7.265
 3750SOL    HW111810   3.373   0.818   7.257
 3750SOL    HW211811   3.512   0.819   7.197
 3751SOL     OW11812   2.870   0.086   7.314
 3751SOL    HW111813   2.890   0.171   7.274
 3751SOL    HW211814   2.896   0.022   7.247
 3752SOL     OW11815   2.361   0.049   7.342
 3752SOL    HW111816   2.349   0.001   7.260
 3752SOL    HW211817   2.293   0.116   7.341
 3753SOL     OW11818   2.444   0.873   6.617
 3753SOL    HW111819   2.474   0.963   6.614
 3753SOL    HW211820   2.387   0.868   6.694
 3754SOL     OW11821   3.223   0.858   6.620
 3754SOL    HW111822   3.142   0.853   6.569
 3754SOL    HW211823   3.260   0.770   6.616
 3755SOL     OW11824   3.069   0.534   5.853
 3755SOL    HW111825   3.075   0.454   5.904
 3755SOL    HW211826   3.027   0.597   5.911
 3756SOL     OW11827   2.152   0.236   6.826
 3756SOL    HW111828   2.112   0.251   6.911
 3756SOL    HW211829   2.181   0.144   6.829
 3757SOL     OW11830   1.907   1.310   6.863
 3757SOL    HW111831   1.942   1.258   6.936
 3757SOL    HW211832   1.916   1.401   6.892
 3758SOL     OW11833   2.587   0.632   6.646
 3758SOL    HW111834   2.659   0.612   6.587
 3758SOL    HW211835   2.561   0.721   6.622
 3759SOL     OW11836   3.595   0.959   7.437
 3759SOL    HW111837   3.547   0.904   7.375
 3759SOL    HW211838   3.535   0.970   7.511
 3760SOL     OW11839   2.160   0.060   6.239
 3760SOL    HW111840   2.151   0.155   6.244
 3760SOL    HW211841   2.173   0.032   6.330
 3761SOL     OW11842   3.472   0.374   5.953
 3761SOL    HW111843   3.504   0.312   6.018
 3761SOL    HW211844   3.451   0.453   6.003
 3762SOL     OW11845   2.889   0.761   6.549
 3762SOL    HW111846   2.889   0.777   6.643
 3762SOL    HW211847   2.861   0.670   6.540
 3763SOL     OW11848   2.844   1.566   7.300
 3763SOL    HW111849   2.829   1.610   7.217
 3763SOL    HW211850   2.887   1.484   7.277
 3764SOL     OW11851   3.718   1.510   7.192
 3764SOL    HW111852   3.734   1.535   7.101
 3764SOL    HW211853   3.799   1.530   7.238
 3765SOL     OW11854   2.216   0.916   7.393
 3765SOL    HW111855   2.298   0.934   7.439
 3765SOL    HW211856   2.239   0.854   7.324
 3766SOL     OW11857   3.394   0.267   5.714
 3766SOL    HW111858   3.322   0.211   5.741
 3766SOL    HW211859   3.422   0.312   5.794
 3767SOL     OW11860   3.157   0.827   5.619
 3767SOL    HW111861   3.198   0.741   5.621
 3767SOL    HW211862   3.187   0.866   5.537
 3768SOL     OW11863   2.929   1.333   6.441
 3768SOL    HW111864   2.931   1.262   6.377
 3768SOL    HW211865   2.988   1.399   6.405
 3769SOL     OW11866   2.172   0.810   6.535
 3769SOL    HW111867   2.265   0.832   6.528
 3769SOL    HW211868   2.171   0.721   6.569
 3770SOL     OW11869   2.199   0.528   6.598
 3770SOL    HW111870   2.157   0.444   6.579
 3770SOL    HW211871   2.274   0.531   6.539
 3771SOL     OW11872   2.997   0.375   7.278
 3771SOL    HW111873   2.950   0.440   7.330
 3771SOL    HW211874   3.084   0.414   7.265
 3772SOL     OW11875   3.023   0.210   7.060
 3772SOL    HW111876   3.014   0.275   7.130
 3772SOL    HW211877   3.057   0.261   6.986
 3773SOL     OW11878   1.870   1.323   5.781
 3773SOL    HW111879   1.785   1.344   5.743
 3773SOL    HW211880   1.861   1.233   5.812
 3774SOL     OW11881   1.924   1.767   6.540
 3774SOL    HW111882   1.903   1.691   6.485
 3774SOL    HW211883   1.976   1.824   6.483
 3775SOL     OW11884   2.363   1.555   6.502
 3775SOL    HW111885   2.414   1.636   6.496
 3775SOL    HW211886   2.403   1.498   6.436
 3776SOL     OW11887   2.850   0.795   6.815
 3776SOL    HW111888   2.902   0.769   6.891
 3776SOL    HW211889   2.764   0.756   6.831
 3777SOL     OW11890   1.896   0.542   6.704
 3777SOL    HW111891   1.975   0.522   6.653
 3777SOL    HW211892   1.926   0.549   6.794
 3778SOL     OW11893   2.047   0.517   7.306
 3778SOL    HW111894   2.119   0.496   7.246
 3778SOL    HW211895   2.004   0.592   7.265
 3779SOL     OW11896   3.238   0.941   7.245
 3779SOL    HW111897   3.258   1.035   7.245
 3779SOL    HW211898   3.236   0.917   7.153
 3780SOL     OW11899   2.673   0.573   5.939
 3780SOL    HW111900   2.677   0.501   5.876
 3780SOL    HW211901   2.599   0.626   5.911
 3781SOL     OW11902   3.504   0.601   6.776
 3781SOL    HW111903   3.493   0.541   6.849
 3781SOL    HW211904   3.591   0.581   6.741
 3782SOL     OW11905   2.112   1.552   7.318
 3782SOL    HW111906   2.082   1.615   7.384
 3782SOL    HW211907   2.107   1.467   7.362
 3783SOL     OW11908   2.554   0.460   6.852
 3783SOL    HW111909   2.510   0.382   6.818
 3783SOL    HW211910   2.557   0.520   6.777
 3784SOL     OW11911   2.791   1.679   7.054
 3784SOL    HW111912   2.767   1.649   6.966
 3784SOL    HW211913   2.793   1.774   7.046
 3785SOL     OW11914   2.329   0.493   5.772
 3785SOL    HW111915   2.387   0.567   5.792
 3785SOL    HW211916   2.243   0.533   5.763
 3786SOL     OW11917   2.011   1.140   7.057
 3786SOL    HW111918   2.015   1.086   7.136
 3786SOL    HW211919   2.027   1.079   6.986
 3787SOL     OW11920   3.191   1.049   6.811
 3787SOL    HW111921   3.215   0.986   6.743
 3787SOL    HW211922   3.118   1.099   6.773
 3788SOL     OW11923   3.171   0.855   5.893
 3788SOL    HW111924   3.094   0.827   5.942
 3788SOL    HW211925   3.147   0.843   5.801
 3789SOL     OW11926   3.631   1.747   6.735
 3789SOL    HW111927   3.690   1.773   6.665
 3789SOL    HW211928   3.607   1.657   6.714
 3790SOL     OW11929   3.104   1.733   6.705
 3790SOL    HW111930   3.185   1.752   6.657
 3790SOL    HW211931   3.106   1.638   6.719
 3791SOL     OW11932   1.946   1.264   6.600
 3791SOL    HW111933   1.933   1.276   6.694
 3791SOL    HW211934   1.870   1.213   6.571
 3792SOL     OW11935   2.540   1.664   7.310
 3792SOL    HW111936   2.489   1.744   7.307
 3792SOL    HW211937   2.604   1.672   7.239
 3793SOL     OW11938   3.580   0.130   6.084
 3793SOL    HW111939   3.654   0.135   6.024
 3793SOL    HW211940   3.600   0.056   6.141
 3794SOL     OW11941   3.253   1.568   6.068
 3794SOL    HW111942   3.312   1.600   6.000
 3794SOL    HW211943   3.204   1.646   6.095
 3795SOL     OW11944   1.994   1.797   7.429
 3795SOL    HW111945   1.943   1.730   7.476
 3795SOL    HW211946   2.045   1.840   7.497
 3796SOL     OW11947   3.140   0.926   6.259
 3796SOL    HW111948   3.212   0.863   6.261
 3796SOL    HW211949   3.173   0.998   6.206
 3797SOL     OW11950   2.681   1.272   7.017
 3797SOL    HW111951   2.654   1.311   7.101
 3797SOL    HW211952   2.608   1.292   6.958
 3798SOL     OW11953   3.495   1.726   6.979
 3798SOL    HW111954   3.542   1.734   6.896
 3798SOL    HW211955   3.481   1.817   7.007
 3799SOL     OW11956   3.701   0.155   6.553
 3799SOL    HW111957   3.732   0.080   6.503
 3799SOL    HW211958   3.614   0.175   6.517
 3800SOL     OW11959   2.129   0.325   6.306
 3800SOL    HW111960   2.044   0.358   6.277
 3800SOL    HW211961   2.120   0.314   6.401
 3801SOL     OW11962   3.068   1.608   5.615
 3801SOL    HW111963   3.060   1.516   5.642
 3801SOL    HW211964   3.005   1.618   5.544
 3802SOL     OW11965   2.686   1.006   6.958
 3802SOL    HW111966   2.729   1.001   6.873
 3802SOL    HW211967   2.688   1.099   6.981
 3803SOL     OW11968   2.778   0.910   5.876
 3803SOL    HW111969   2.839   0.942   5.810
 3803SOL    HW211970   2.824   0.839   5.920
 3804SOL     OW11971   3.358   1.623   5.628
 3804SOL    HW111972   3.262   1.622   5.618
 3804SOL    HW211973   3.391   1.630   5.539
 3805SOL     OW11974   2.232   1.300   7.078
 3805SOL    HW111975   2.218   1.379   7.024
 3805SOL    HW211976   2.155   1.246   7.061
 3806SOL     OW11977   3.474   1.283   6.867
 3806SOL    HW111978   3.533   1.276   6.943
 3806SOL    HW211979   3.413   1.353   6.891
 3807SOL     OW11980   2.909   1.105   6.289
 3807SOL    HW111981   2.839   1.053   6.330
 3807SOL    HW211982   2.971   1.040   6.256
 3808SOL     OW11983   2.869   0.241   6.582
 3808SOL    HW111984   2.877   0.212   6.492
 3808SOL    HW211985   2.863   0.160   6.633
 3809SOL     OW11986   3.581   0.393   6.964
 3809SOL    HW111987   3.653   0.456   6.962
 3809SOL    HW211988   3.611   0.321   6.908
 3810SOL     OW11989   2.118   1.343   5.878
 3810SOL    HW111990   2.026   1.345   5.851
 3810SOL    HW211991   2.119   1.388   5.962
 3811SOL     OW11992   1.974   1.018   7.305
 3811SOL    HW111993   1.898   0.995   7.359
 3811SOL    HW211994   2.048   0.982   7.353
 3812SOL     OW11995   2.521   0.203   7.082
 3812SOL    HW111996   2.602   0.179   7.036
 3812SOL    HW211997   2.550   0.222   7.172
 3813SOL     OW11998   1.942   0.343   5.632
 3813SOL    HW111999   1.870   0.293   5.595
 3813SOL    HW212000   1.959   0.412   5.567
 3814SOL     OW12001   3.294   0.859   6.988
 3814SOL    HW112002   3.245   0.917   6.930
 3814SOL    HW212003   3.384   0.861   6.954
 3815SOL     OW12004   1.928   0.179   5.909
 3815SOL    HW112005   1.925   0.246   5.840
 3815SOL    HW212006   2.003   0.125   5.885
 3816SOL     OW12007   3.041   1.341   5.703
 3816SOL    HW112008   2.952   1.306   5.709
 3816SOL    HW212009   3.072   1.342   5.794
 3817SOL     OW12010   2.480   0.831   7.018
 3817SOL    HW112011   2.535   0.908   7.004
 3817SOL    HW212012   2.542   0.758   7.027
 3818SOL     OW12013   3.346   1.775   6.563
 3818SOL    HW112014   3.371   1.830   6.488
 3818SOL    HW212015   3.428   1.759   6.609
 3819SOL     OW12016   2.578   0.564   7.293
 3819SOL    HW112017   2.613   0.629   7.354
 3819SOL    HW212018   2.616   0.481   7.322
 3820SOL     OW12019   3.330   1.204   7.219
 3820SOL    HW112020   3.319   1.216   7.313
 3820SOL    HW212021   3.424   1.215   7.205
 3821SOL     OW12022   2.247   1.740   7.152
 3821SOL    HW112023   2.161   1.778   7.134
 3821SOL    HW212024   2.228   1.655   7.192
 3822SOL     OW12025   3.534   0.882   6.842
 3822SOL    HW112026   3.524   0.797   6.799
 3822SOL    HW212027   3.525   0.946   6.771
 3823SOL     OW12028   3.080   0.327   6.034
 3823SOL    HW112029   3.145   0.258   6.025
 3823SOL    HW212030   3.107   0.375   6.113
 3824SOL     OW12031   2.450   0.741   6.255
 3824SOL    HW112032   2.493   0.824   6.236
 3824SOL    HW212033   2.382   0.734   6.189
 3825SOL     OW12034   3.628   0.361   7.229
 3825SOL    HW112035   3.611   0.375   7.136
 3825SOL    HW212036   3.550   0.317   7.261
 3826SOL     OW12037   3.606   0.933   7.099
 3826SOL    HW112038   3.608   1.028   7.112
 3826SOL    HW212039   3.591   0.922   7.005
 3827SOL     OW12040   2.714   1.367   5.605
 3827SOL    HW112041   2.692   1.379   5.697
 3827SOL    HW212042   2.749   1.451   5.577
 3828SOL     OW12043   2.728   0.965   6.442
 3828SOL    HW112044   2.778   0.894   6.482
 3828SOL    HW212045   2.696   1.016   6.516
 3829SOL     OW12046   2.943   0.988   5.675
 3829SOL    HW112047   2.919   1.037   5.597
 3829SOL    HW212048   3.018   0.935   5.649
 3830SOL     OW12049   3.719   1.557   6.432
 3830SOL    HW112050   3.642   1.546   6.375
 3830SOL    HW212051   3.710   1.488   6.497
 3831SOL     OW12052   2.086   1.304   7.442
 3831SOL    HW112053   2.018   1.244   7.413
 3831SOL    HW212054   2.069   1.317   7.535
 3832SOL     OW12055   1.950   1.234   6.246
 3832SOL    HW112056   1.948   1.188   6.330
 3832SOL    HW212057   2.015   1.186   6.194
 3833SOL     OW12058   2.541   1.401   7.211
 3833SOL    HW112059   2.462   1.356   7.241
 3833SOL    HW212060   2.536   1.488   7.249
 3834SOL     OW12061   3.672   0.184   6.825
 3834SOL    HW112062   3.672   0.090   6.846
 3834SOL    HW212063   3.688   0.187   6.731
 3835SOL     OW12064   2.296   0.433   6.114
 3835SOL    HW112065   2.320   0.363   6.053
 3835SOL    HW212066   2.242   0.389   6.180
 3836SOL     OW12067   3.563   1.491   6.687
 3836SOL    HW112068   3.483   1.466   6.642
 3836SOL    HW212069   3.578   1.422   6.751
 3837SOL     OW12070   2.189   0.554   6.877
 3837SOL    HW112071   2.245   0.499   6.931
 3837SOL    HW212072   2.210   0.528   6.787
 3838SOL     OW12073   2.697   1.543   6.242
 3838SOL    HW112074   2.672   1.624   6.196
 3838SOL    HW212075   2.613   1.506   6.270
 3839SOL     OW12076   3.294   0.215   6.704
 3839SOL    HW112077   3.331   0.145   6.758
 3839SOL    HW212078   3.243   0.268   6.765
 3840SOL     OW12079   2.859   0.013   6.734
 3840SOL    HW112080   2.813   4.429   6.724
 3840SOL    HW212081   2.951   4.488   6.747
 3841SOL     OW12082   2.674   1.313   5.881
 3841SOL    HW112083   2.611   1.241   5.893
 3841SOL    HW212084   2.735   1.303   5.954
 3842SOL     OW12085   2.483   1.559   6.869
 3842SOL    HW112086   2.486   1.640   6.921
 3842SOL    HW212087   2.571   1.551   6.833
 3843SOL     OW12088   3.205   0.054   5.738
 3843SOL    HW112089   3.244   4.479   5.693
 3843SOL    HW212090   3.129   0.017   5.784
 3844SOL     OW12091   3.176   0.462   6.267
 3844SOL    HW112092   3.114   0.535   6.267
 3844SOL    HW212093   3.164   0.419   6.351
 3845SOL     OW12094   3.448   0.203   6.453
 3845SOL    HW112095   3.387   0.217   6.526
 3845SOL    HW212096   3.451   0.287   6.408
 3846SOL     OW12097   1.902   1.072   5.891
 3846SOL    HW112098   1.996   1.066   5.874
 3846SOL    HW212099   1.877   0.983   5.915
 3847SOL     OW12100   2.092   0.628   7.567
 3847SOL    HW112101   2.004   0.621   7.604
 3847SOL    HW212102   2.083   0.595   7.478
 3848SOL     OW12103   2.072   0.295   8.436
 3848SOL    HW112104   2.103   0.269   8.523
 3848SOL    HW212105   1.990   0.248   8.425
 3849SOL     OW12106   1.871   0.383   8.088
 3849SOL    HW112107   1.784   0.404   8.124
 3849SOL    HW212108   1.855   0.309   8.030
 3850SOL     OW12109   2.429   1.283   8.619
 3850SOL    HW112110   2.341   1.284   8.583
 3850SOL    HW212111   2.442   1.371   8.655
 3851SOL     OW12112   3.419   1.512   8.154
 3851SOL    HW112113   3.375   1.493   8.237
 3851SOL    HW212114   3.349   1.516   8.089
 3852SOL     OW12115   2.993   0.700   8.150
 3852SOL    HW112116   3.042   0.782   8.138
 3852SOL    HW212117   2.944   0.712   8.231
 3853SOL     OW12118   3.626   0.609   7.678
 3853SOL    HW112119   3.607   0.597   7.584
 3853SOL    HW212120   3.595   0.528   7.718
 3854SOL     OW12121   2.622   1.145   8.486
 3854SOL    HW112122   2.551   1.178   8.541
 3854SOL    HW212123   2.655   1.223   8.441
 3855SOL     OW12124   2.724   0.781   9.269
 3855SOL    HW112125   2.712   0.852   9.332
 3855SOL    HW212126   2.748   0.824   9.187
 3856SOL     OW12127   2.549   1.008   8.097
 3856SOL    HW112128   2.612   0.992   8.167
 3856SOL    HW212129   2.478   1.056   8.139
 3857SOL     OW12130   2.569   1.152   9.257
 3857SOL    HW112131   2.617   1.231   9.281
 3857SOL    HW212132   2.485   1.184   9.224
 3858SOL     OW12133   2.193   1.428   8.517
 3858SOL    HW112134   2.120   1.392   8.467
 3858SOL    HW212135   2.244   1.478   8.452
 3859SOL     OW12136   3.324   1.498   8.798
 3859SOL    HW112137   3.367   1.583   8.809
 3859SOL    HW212138   3.269   1.489   8.876
 3860SOL     OW12139   2.303   0.396   8.940
 3860SOL    HW112140   2.384   0.346   8.941
 3860SOL    HW212141   2.234   0.330   8.952
 3861SOL     OW12142   3.475   0.448   8.186
 3861SOL    HW112143   3.394   0.472   8.140
 3861SOL    HW212144   3.497   0.525   8.238
 3862SOL     OW12145   2.082   1.715   7.924
 3862SOL    HW112146   2.108   1.792   7.975
 3862SOL    HW212147   2.151   1.706   7.859
 3863SOL     OW12148   2.998   1.341   9.139
 3863SOL    HW112149   3.037   1.337   9.226
 3863SOL    HW212150   2.945   1.261   9.133
 3864SOL     OW12151   2.092   1.440   7.983
 3864SOL    HW112152   2.072   1.534   7.989
 3864SOL    HW212153   2.030   1.399   8.043
 3865SOL     OW12154   2.116   1.090   8.338
 3865SOL    HW112155   2.113   1.004   8.381
 3865SOL    HW212156   2.058   1.145   8.391
 3866SOL     OW12157   2.481   1.786   8.884
 3866SOL    HW112158   2.395   1.772   8.924
 3866SOL    HW212159   2.499   1.879   8.898
 3867SOL     OW12160   2.451   0.979   7.580
 3867SOL    HW112161   2.493   1.032   7.512
 3867SOL    HW212162   2.493   1.008   7.661
 3868SOL     OW12163   3.448   0.114   8.923
 3868SOL    HW112164   3.459   0.182   8.856
 3868SOL    HW212165   3.437   0.162   9.005
 3869SOL     OW12166   1.977   0.651   8.007
 3869SOL    HW112167   1.948   0.562   8.029
 3869SOL    HW212168   1.968   0.700   8.089
 3870SOL     OW12169   3.703   1.761   7.785
 3870SOL    HW112170   3.762   1.732   7.854
 3870SOL    HW212171   3.730   1.851   7.767
 3871SOL     OW12172   1.892   1.596   7.572
 3871SOL    HW112173   1.874   1.504   7.592
 3871SOL    HW212174   1.867   1.642   7.652
 3872SOL     OW12175   3.553   0.921   8.086
 3872SOL    HW112176   3.638   0.880   8.068
 3872SOL    HW212177   3.532   0.969   8.006
 3873SOL     OW12178   3.507   1.108   7.877
 3873SOL    HW112179   3.592   1.117   7.835
 3873SOL    HW212180   3.511   1.168   7.952
 3874SOL     OW12181   1.984   0.743   9.034
 3874SOL    HW112182   2.075   0.765   9.049
 3874SOL    HW212183   1.937   0.826   9.041
 3875SOL     OW12184   2.475   1.382   8.183
 3875SOL    HW112185   2.429   1.298   8.192
 3875SOL    HW212186   2.458   1.409   8.092
 3876SOL     OW12187   3.153   1.239   8.872
 3876SOL    HW112188   3.185   1.171   8.813
 3876SOL    HW212189   3.208   1.231   8.950
 3877SOL     OW12190   2.677   0.011   7.993
 3877SOL    HW112191   2.711   0.098   7.970
 3877SOL    HW212192   2.582   0.021   7.986
 3878SOL     OW12193   2.054   0.969   8.717
 3878SOL    HW112194   2.138   0.925   8.701
 3878SOL    HW212195   1.989   0.912   8.675
 3879SOL     OW12196   3.394   0.991   7.644
 3879SOL    HW112197   3.324   0.933   7.674
 3879SOL    HW212198   3.433   1.025   7.725
 3880SOL     OW12199   3.048   1.804   9.068
 3880SOL    HW112200   3.063   1.860   8.992
 3880SOL    HW212201   3.062   1.715   9.035
 3881SOL     OW12202   2.177   0.255   9.230
 3881SOL    HW112203   2.241   0.319   9.261
 3881SOL    HW212204   2.103   0.264   9.289
 3882SOL     OW12205   3.327   1.420   8.401
 3882SOL    HW112206   3.259   1.433   8.467
 3882SOL    HW212207   3.316   1.329   8.373
 3883SOL     OW12208   3.523   1.733   8.026
 3883SOL    HW112209   3.500   1.705   7.937
 3883SOL    HW212210   3.497   1.660   8.082
 3884SOL     OW12211   2.456   0.724   7.712
 3884SOL    HW112212   2.464   0.804   7.660
 3884SOL    HW212213   2.391   0.745   7.779
 3885SOL     OW12214   3.152   0.358   8.383
 3885SOL    HW112215   3.063   0.326   8.367
 3885SOL    HW212216   3.189   0.296   8.445
 3886SOL     OW12217   3.443   1.668   7.757
 3886SOL    HW112218   3.532   1.703   7.751
 3886SOL    HW212219   3.418   1.651   7.666
 3887SOL     OW12220   2.658   0.618   8.903
 3887SOL    HW112221   2.629   0.594   8.991
 3887SOL    HW212222   2.615   0.554   8.846
 3888SOL     OW12223   3.251   0.478   9.124
 3888SOL    HW112224   3.253   0.521   9.209
 3888SOL    HW212225   3.318   0.410   9.131
 3889SOL     OW12226   2.820   0.889   9.029
 3889SOL    HW112227   2.874   0.817   8.995
 3889SOL    HW212228   2.773   0.921   8.952
 3890SOL     OW12229   2.857   0.417   8.686
 3890SOL    HW112230   2.772   0.431   8.727
 3890SOL    HW212231   2.838   0.365   8.608
 3891SOL     OW12232   2.911   0.698   7.876
 3891SOL    HW112233   2.926   0.691   7.970
 3891SOL    HW212234   2.829   0.651   7.861
 3892SOL     OW12235   1.951   0.820   8.224
 3892SOL    HW112236   2.033   0.813   8.273
 3892SOL    HW212237   1.908   0.898   8.259
 3893SOL     OW12238   1.989   1.815   9.022
 3893SOL    HW112239   1.977   1.810   9.117
 3893SOL    HW212240   1.920   1.873   8.991
 3894SOL     OW12241   2.716   0.368   7.627
 3894SOL    HW112242   2.791   0.403   7.579
 3894SOL    HW212243   2.733   0.274   7.632
 3895SOL     OW12244   3.569   0.576   9.276
 3895SOL    HW112245   3.534   0.653   9.231
 3895SOL    HW212246   3.601   0.519   9.205
 3896SOL     OW12247   3.237   1.143   7.990
 3896SOL    HW112248   3.315   1.128   7.937
 3896SOL    HW212249   3.185   1.205   7.939
 3897SOL     OW12250   2.402   0.201   8.349
 3897SOL    HW112251   2.421   0.219   8.441
 3897SOL    HW212252   2.393   0.288   8.309
 3898SOL     OW12253   2.871   1.446   7.922
 3898SOL    HW112254   2.830   1.517   7.873
 3898SOL    HW212255   2.857   1.468   8.014
 3899SOL     OW12256   2.215   1.798   8.305
 3899SOL    HW112257   2.249   1.709   8.312
 3899SOL    HW212258   2.291   1.854   8.324
 3900SOL     OW12259   3.660   1.062   8.315
 3900SOL    HW112260   3.604   1.043   8.240
 3900SOL    HW212261   3.599   1.066   8.389
 3901SOL     OW12262   3.090   1.540   8.960
 3901SOL    HW112263   3.076   1.467   9.020
 3901SOL    HW212264   3.029   1.524   8.888
 3902SOL     OW12265   2.183   0.955   7.696
 3902SOL    HW112266   2.265   0.974   7.650
 3902SOL    HW212267   2.152   0.874   7.656
 3903SOL     OW12268   3.338   0.740   8.174
 3903SOL    HW112269   3.324   0.692   8.256
 3903SOL    HW212270   3.415   0.795   8.191
 3904SOL     OW12271   2.326   1.263   9.185
 3904SOL    HW112272   2.298   1.268   9.094
 3904SOL    HW212273   2.245   1.262   9.236
 3905SOL     OW12274   2.982   1.777   7.680
 3905SOL    HW112275   2.911   1.733   7.727
 3905SOL    HW212276   3.004   1.718   7.608
 3906SOL     OW12277   2.051   0.268   8.956
 3906SOL    HW112278   1.985   0.335   8.939
 3906SOL    HW212279   2.060   0.267   9.052
 3907SOL     OW12280   3.492   1.379   7.535
 3907SOL    HW112281   3.451   1.464   7.520
 3907SOL    HW212282   3.422   1.315   7.516
 3908SOL     OW12283   2.330   1.737   7.770
 3908SOL    HW112284   2.372   1.794   7.835
 3908SOL    HW212285   2.402   1.708   7.714
 3909SOL     OW12286   3.278   0.131   7.867
 3909SOL    HW112287   3.261   0.084   7.785
 3909SOL    HW212288   3.373   0.129   7.876
 3910SOL     OW12289   2.104   1.780   8.685
 3910SOL    HW112290   2.168   1.723   8.728
 3910SOL    HW212291   2.106   1.753   8.593
 3911SOL     OW12292   2.798   1.697   8.350
 3911SOL    HW112293   2.876   1.645   8.370
 3911SOL    HW212294   2.754   1.649   8.279
 3912SOL     OW12295   2.252   0.695   7.925
 3912SOL    HW112296   2.277   0.603   7.935
 3912SOL    HW212297   2.159   0.697   7.944
 3913SOL     OW12298   3.388   0.233   9.170
 3913SOL    HW112299   3.387   0.256   9.263
 3913SOL    HW212300   3.313   0.174   9.159
 3914SOL     OW12301   2.486   0.123   7.568
 3914SOL    HW112302   2.574   0.087   7.577
 3914SOL    HW212303   2.454   0.089   7.484
 3915SOL     OW12304   2.633   0.271   9.200
 3915SOL    HW112305   2.696   0.201   9.218
 3915SOL    HW212306   2.583   0.279   9.282
 3916SOL     OW12307   2.739   1.522   8.641
 3916SOL    HW112308   2.724   1.484   8.554
 3916SOL    HW212309   2.808   1.466   8.679
 3917SOL     OW12310   3.204   0.589   8.878
 3917SOL    HW112311   3.232   0.559   8.964
 3917SOL    HW212312   3.238   0.678   8.871
 3918SOL     OW12313   2.675   1.399   8.384
 3918SOL    HW112314   2.759   1.388   8.339
 3918SOL    HW212315   2.610   1.395   8.314
 3919SOL     OW12316   2.784   0.515   8.350
 3919SOL    HW112317   2.768   0.513   8.256
 3919SOL    HW212318   2.825   0.431   8.369
 3920SOL     OW12319   2.415   0.073   7.968
 3920SOL    HW112320   2.325   0.049   7.992
 3920SOL    HW212321   2.405   0.141   7.901
 3921SOL     OW12322   3.291   1.198   7.489
 3921SOL    HW112323   3.322   1.122   7.539
 3921SOL    HW212324   3.205   1.217   7.526
 3922SOL     OW12325   2.158   0.072   7.639
 3922SOL    HW112326   2.237   0.123   7.621
 3922SOL    HW212327   2.189   4.499   7.694
 3923SOL     OW12328   2.811   0.240   7.920
 3923SOL    HW112329   2.759   0.288   7.856
 3923SOL    HW212330   2.900   0.275   7.911
 3924SOL     OW12331   2.942   0.679   8.909
 3924SOL    HW112332   2.869   0.616   8.911
 3924SOL    HW212333   3.020   0.625   8.897
 3925SOL     OW12334   3.086   1.570   8.242
 3925SOL    HW112335   3.106   1.637   8.176
 3925SOL    HW212336   3.154   1.580   8.308
 3926SOL     OW12337   2.329   1.148   8.185
 3926SOL    HW112338   2.258   1.129   8.247
 3926SOL    HW212339   2.291   1.130   8.099
 3927SOL     OW12340   3.133   1.795   8.053
 3927SOL    HW112341   3.177   1.856   7.994
 3927SOL    HW212342   3.070   1.849   8.100
 3928SOL     OW12343   2.893   0.549   7.462
 3928SOL    HW112344   2.845   0.631   7.447
 3928SOL    HW212345   2.951   0.569   7.536
 3929SOL     OW12346   1.941   0.552   8.842
 3929SOL    HW112347   2.032   0.554   8.811
 3929SOL    HW212348   1.935   0.624   8.905
 3930SOL     OW12349   2.426   0.241   8.612
 3930SOL    HW112350   2.454   0.157   8.649
 3930SOL    HW212351   2.334   0.249   8.638
 3931SOL     OW12352   2.728   0.501   8.074
 3931SOL    HW112353   2.677   0.543   8.005
 3931SOL    HW212354   2.713   0.407   8.062
 3932SOL     OW12355   2.833   0.032   8.222
 3932SOL    HW112356   2.783   0.027   8.140
 3932SOL    HW212357   2.842   4.441   8.250
 3933SOL     OW12358   3.297   1.164   8.306
 3933SOL    HW112359   3.231   1.095   8.304
 3933SOL    HW212360   3.320   1.177   8.214
 3934SOL     OW12361   3.330   0.602   8.428
 3934SOL    HW112362   3.279   0.521   8.431
 3934SOL    HW212363   3.389   0.597   8.503
 3935SOL     OW12364   3.710   0.819   7.829
 3935SOL    HW112365   3.765   0.766   7.887
 3935SOL    HW212366   3.680   0.758   7.762
 3936SOL     OW12367   2.354   1.415   7.609
 3936SOL    HW112368   2.279   1.385   7.661
 3936SOL    HW212369   2.334   1.386   7.520
 3937SOL     OW12370   3.530   1.266   8.096
 3937SOL    HW112371   3.625   1.271   8.109
 3937SOL    HW212372   3.498   1.353   8.118
 3938SOL     OW12373   3.256   0.570   7.518
 3938SOL    HW112374   3.195   0.554   7.590
 3938SOL    HW212375   3.342   0.548   7.553
 3939SOL     OW12376   2.386   0.266   7.773
 3939SOL    HW112377   2.429   0.212   7.705
 3939SOL    HW212378   2.371   0.350   7.730
 3940SOL     OW12379   3.616   1.236   9.025
 3940SOL    HW112380   3.703   1.197   9.022
 3940SOL    HW212381   3.630   1.325   9.055
 3941SOL     OW12382   2.923   1.354   8.783
 3941SOL    HW112383   2.848   1.322   8.834
 3941SOL    HW212384   2.999   1.312   8.824
 3942SOL     OW12385   3.467   1.625   9.099
 3942SOL    HW112386   3.465   1.659   9.010
 3942SOL    HW212387   3.551   1.579   9.105
 3943SOL     OW12388   2.988   1.202   8.555
 3943SOL    HW112389   2.929   1.239   8.621
 3943SOL    HW212390   2.952   1.231   8.471
 3944SOL     OW12391   3.493   1.100   8.527
 3944SOL    HW112392   3.489   1.162   8.599
 3944SOL    HW212393   3.412   1.114   8.478
 3945SOL     OW12394   2.767   0.130   8.839
 3945SOL    HW112395   2.789   0.086   8.756
 3945SOL    HW212396   2.851   0.142   8.882
 3946SOL     OW12397   2.846   1.114   9.170
 3946SOL    HW112398   2.753   1.129   9.189
 3946SOL    HW212399   2.847   1.037   9.114
 3947SOL     OW12400   2.570   1.061   7.820
 3947SOL    HW112401   2.557   1.046   7.913
 3947SOL    HW212402   2.646   1.007   7.798
 3948SOL     OW12403   2.279   0.814   8.699
 3948SOL    HW112404   2.348   0.823   8.764
 3948SOL    HW212405   2.244   0.726   8.714
 3949SOL     OW12406   3.131   0.377   8.719
 3949SOL    HW112407   3.162   0.455   8.765
 3949SOL    HW212408   3.043   0.400   8.691
 3950SOL     OW12409   1.928   1.570   8.794
 3950SOL    HW112410   1.893   1.648   8.750
 3950SOL    HW212411   2.023   1.583   8.796
 3951SOL     OW12412   2.216   1.106   7.940
 3951SOL    HW112413   2.218   1.179   7.878
 3951SOL    HW212414   2.215   1.028   7.885
 3952SOL     OW12415   2.420   0.532   8.307
 3952SOL    HW112416   2.435   0.591   8.233
 3952SOL    HW212417   2.481   0.563   8.375
 3953SOL     OW12418   3.110   1.348   7.837
 3953SOL    HW112419   3.165   1.420   7.868
 3953SOL    HW212420   3.023   1.368   7.871
 3954SOL     OW12421   3.139   1.456   8.594
 3954SOL    HW112422   3.193   1.457   8.672
 3954SOL    HW212423   3.084   1.378   8.604
 3955SOL     OW12424   3.445   0.625   7.923
 3955SOL    HW112425   3.401   0.679   7.989
 3955SOL    HW212426   3.490   0.688   7.867
 3956SOL     OW12427   2.213   1.519   8.768
 3956SOL    HW112428   2.197   1.480   8.683
 3956SOL    HW212429   2.308   1.534   8.770
 3957SOL     OW12430   2.275   0.744   9.050
 3957SOL    HW112431   2.334   0.791   8.991
 3957SOL    HW212432   2.319   0.660   9.067
 3958SOL     OW12433   3.460   0.777   9.127
 3958SOL    HW112434   3.373   0.817   9.119
 3958SOL    HW212435   3.512   0.819   9.059
 3959SOL     OW12436   2.870   0.086   9.176
 3959SOL    HW112437   2.890   0.171   9.136
 3959SOL    HW212438   2.896   0.022   9.109
 3960SOL     OW12439   2.362   0.049   9.203
 3960SOL    HW112440   2.349   0.001   9.122
 3960SOL    HW212441   2.293   0.116   9.203
 3961SOL     OW12442   2.444   0.872   8.479
 3961SOL    HW112443   2.474   0.963   8.476
 3961SOL    HW212444   2.387   0.868   8.556
 3962SOL     OW12445   3.223   0.859   8.482
 3962SOL    HW112446   3.141   0.852   8.431
 3962SOL    HW212447   3.260   0.771   8.478
 3963SOL     OW12448   3.069   0.535   7.715
 3963SOL    HW112449   3.075   0.454   7.766
 3963SOL    HW212450   3.026   0.597   7.773
 3964SOL     OW12451   2.153   0.236   8.688
 3964SOL    HW112452   2.112   0.251   8.773
 3964SOL    HW212453   2.181   0.144   8.691
 3965SOL     OW12454   1.907   1.309   8.725
 3965SOL    HW112455   1.942   1.258   8.798
 3965SOL    HW212456   1.915   1.400   8.753
 3966SOL     OW12457   2.587   0.632   8.508
 3966SOL    HW112458   2.659   0.612   8.449
 3966SOL    HW212459   2.560   0.721   8.484
 3967SOL     OW12460   3.595   0.959   9.299
 3967SOL    HW112461   3.547   0.904   9.237
 3967SOL    HW212462   3.535   0.970   9.373
 3968SOL     OW12463   2.161   0.060   8.101
 3968SOL    HW112464   2.151   0.155   8.106
 3968SOL    HW212465   2.172   0.032   8.192
 3969SOL     OW12466   3.472   0.374   7.814
 3969SOL    HW112467   3.504   0.312   7.880
 3969SOL    HW212468   3.451   0.453   7.865
 3970SOL     OW12469   2.889   0.761   8.411
 3970SOL    HW112470   2.889   0.777   8.505
 3970SOL    HW212471   2.861   0.670   8.402
 3971SOL     OW12472   2.845   1.566   9.162
 3971SOL    HW112473   2.829   1.611   9.079
 3971SOL    HW212474   2.887   1.484   9.138
 3972SOL     OW12475   3.718   1.510   9.054
 3972SOL    HW112476   3.734   1.535   8.963
 3972SOL    HW212477   3.799   1.530   9.100
 3973SOL     OW12478   2.216   0.916   9.255
 3973SOL    HW112479   2.298   0.934   9.301
 3973SOL    HW212480   2.239   0.854   9.187
 3974SOL     OW12481   3.394   0.268   7.576
 3974SOL    HW112482   3.322   0.211   7.603
 3974SOL    HW212483   3.422   0.312   7.656
 3975SOL     OW12484   3.157   0.827   7.481
 3975SOL    HW112485   3.198   0.741   7.483
 3975SOL    HW212486   3.187   0.866   7.399
 3976SOL     OW12487   2.926   1.335   8.300
 3976SOL    HW112488   2.929   1.261   8.239
 3976SOL    HW212489   2.990   1.398   8.266
 3977SOL     OW12490   2.172   0.810   8.397
 3977SOL    HW112491   2.265   0.832   8.390
 3977SOL    HW212492   2.171   0.721   8.431
 3978SOL     OW12493   2.199   0.528   8.460
 3978SOL    HW112494   2.157   0.444   8.441
 3978SOL    HW212495   2.274   0.531   8.401
 3979SOL     OW12496   2.997   0.375   9.140
 3979SOL    HW112497   2.950   0.440   9.192
 3979SOL    HW212498   3.084   0.414   9.127
 3980SOL     OW12499   3.023   0.210   8.922
 3980SOL    HW112500   3.014   0.275   8.992
 3980SOL    HW212501   3.057   0.261   8.848
 3981SOL     OW12502   1.867   1.322   7.643
 3981SOL    HW112503   1.780   1.336   7.606
 3981SOL    HW212504   1.865   1.233   7.676
 3982SOL     OW12505   1.949   1.792   8.381
 3982SOL    HW112506   1.918   1.711   8.341
 3982SOL    HW212507   2.040   1.799   8.353
 3983SOL     OW12508   2.361   1.571   8.352
 3983SOL    HW112509   2.430   1.634   8.372
 3983SOL    HW212510   2.404   1.504   8.299
 3984SOL     OW12511   2.850   0.796   8.677
 3984SOL    HW112512   2.902   0.769   8.753
 3984SOL    HW212513   2.764   0.757   8.693
 3985SOL     OW12514   1.896   0.542   8.566
 3985SOL    HW112515   1.975   0.522   8.516
 3985SOL    HW212516   1.926   0.549   8.656
 3986SOL     OW12517   2.047   0.517   9.168
 3986SOL    HW112518   2.119   0.496   9.108
 3986SOL    HW212519   2.004   0.592   9.127
 3987SOL     OW12520   3.238   0.941   9.108
 3987SOL    HW112521   3.258   1.035   9.108
 3987SOL    HW212522   3.236   0.917   9.015
 3988SOL     OW12523   2.674   0.573   7.801
 3988SOL    HW112524   2.677   0.501   7.738
 3988SOL    HW212525   2.599   0.626   7.772
 3989SOL     OW12526   3.504   0.602   8.638
 3989SOL    HW112527   3.493   0.541   8.711
 3989SOL    HW212528   3.591   0.581   8.603
 3990SOL     OW12529   2.114   1.552   9.182
 3990SOL    HW112530   2.083   1.614   9.248
 3990SOL    HW212531   2.107   1.467   9.225
 3991SOL     OW12532   2.554   0.460   8.714
 3991SOL    HW112533   2.510   0.382   8.680
 3991SOL    HW212534   2.557   0.520   8.639
 3992SOL     OW12535   2.794   1.678   8.914
 3992SOL    HW112536   2.765   1.648   8.828
 3992SOL    HW212537   2.792   1.774   8.908
 3993SOL     OW12538   2.329   0.493   7.634
 3993SOL    HW112539   2.387   0.567   7.654
 3993SOL    HW212540   2.242   0.533   7.625
 3994SOL     OW12541   2.010   1.140   8.920
 3994SOL    HW112542   2.015   1.085   8.998
 3994SOL    HW212543   2.027   1.079   8.848
 3995SOL     OW12544   3.191   1.049   8.673
 3995SOL    HW112545   3.215   0.986   8.605
 3995SOL    HW212546   3.119   1.099   8.635
 3996SOL     OW12547   3.171   0.856   7.755
 3996SOL    HW112548   3.094   0.827   7.805
 3996SOL    HW212549   3.147   0.843   7.664
 3997SOL     OW12550   3.630   1.747   8.596
 3997SOL    HW112551   3.690   1.773   8.526
 3997SOL    HW212552   3.606   1.657   8.576
 3998SOL     OW12553   3.104   1.733   8.565
 3998SOL    HW112554   3.185   1.751   8.518
 3998SOL    HW212555   3.106   1.639   8.583
 3999SOL     OW12556   1.947   1.265   8.462
 3999SOL    HW112557   1.933   1.277   8.556
 3999SOL    HW212558   1.871   1.214   8.433
 4000SOL     OW12559   2.541   1.663   9.173
 4000SOL    HW112560   2.489   1.743   9.171
 4000SOL    HW212561   2.601   1.673   9.099
 4001SOL     OW12562   3.580   0.130   7.946
 4001SOL    HW112563   3.654   0.135   7.886
 4001SOL    HW212564   3.600   0.056   8.003
 4002SOL     OW12565   3.252   1.568   7.931
 4002SOL    HW112566   3.313   1.598   7.863
 4002SOL    HW212567   3.205   1.646   7.958
 4003SOL     OW12568   1.996   1.801   9.295
 4003SOL    HW112569   1.945   1.734   9.340
 4003SOL    HW212570   2.046   1.844   9.364
 4004SOL     OW12571   3.140   0.926   8.120
 4004SOL    HW112572   3.212   0.863   8.124
 4004SOL    HW212573   3.174   0.998   8.068
 4005SOL     OW12574   2.681   1.272   8.879
 4005SOL    HW112575   2.654   1.311   8.963
 4005SOL    HW212576   2.608   1.293   8.820
 4006SOL     OW12577   2.533   1.617   7.604
 4006SOL    HW112578   2.543   1.628   7.509
 4006SOL    HW212579   2.481   1.538   7.614
 4007SOL     OW12580   3.495   1.727   8.840
 4007SOL    HW112581   3.542   1.734   8.757
 4007SOL    HW212582   3.481   1.817   8.869
 4008SOL     OW12583   3.701   0.155   8.415
 4008SOL    HW112584   3.732   0.080   8.365
 4008SOL    HW212585   3.614   0.174   8.379
 4009SOL     OW12586   2.129   0.325   8.168
 4009SOL    HW112587   2.044   0.358   8.139
 4009SOL    HW212588   2.120   0.314   8.263
 4010SOL     OW12589   3.067   1.608   7.479
 4010SOL    HW112590   3.060   1.517   7.507
 4010SOL    HW212591   3.003   1.618   7.409
 4011SOL     OW12592   2.686   1.006   8.820
 4011SOL    HW112593   2.729   1.002   8.734
 4011SOL    HW212594   2.688   1.099   8.843
 4012SOL     OW12595   2.777   0.910   7.737
 4012SOL    HW112596   2.840   0.942   7.672
 4012SOL    HW212597   2.823   0.839   7.782
 4013SOL     OW12598   3.357   1.624   7.490
 4013SOL    HW112599   3.262   1.621   7.479
 4013SOL    HW212600   3.392   1.630   7.401
 4014SOL     OW12601   2.232   1.299   8.940
 4014SOL    HW112602   2.219   1.378   8.887
 4014SOL    HW212603   2.154   1.246   8.923
 4015SOL     OW12604   3.474   1.283   8.729
 4015SOL    HW112605   3.533   1.276   8.805
 4015SOL    HW212606   3.413   1.353   8.753
 4016SOL     OW12607   2.910   1.105   8.153
 4016SOL    HW112608   2.840   1.054   8.193
 4016SOL    HW212609   2.971   1.040   8.119
 4017SOL     OW12610   2.870   0.241   8.444
 4017SOL    HW112611   2.877   0.211   8.353
 4017SOL    HW212612   2.863   0.160   8.495
 4018SOL     OW12613   2.464   1.491   7.930
 4018SOL    HW112614   2.504   1.437   7.861
 4018SOL    HW212615   2.396   1.540   7.885
 4019SOL     OW12616   3.581   0.393   8.826
 4019SOL    HW112617   3.653   0.456   8.824
 4019SOL    HW212618   3.611   0.321   8.770
 4020SOL     OW12619   2.120   1.348   7.735
 4020SOL    HW112620   2.027   1.345   7.713
 4020SOL    HW212621   2.122   1.383   7.824
 4021SOL     OW12622   1.974   1.017   9.167
 4021SOL    HW112623   1.898   0.995   9.221
 4021SOL    HW212624   2.049   0.982   9.215
 4022SOL     OW12625   2.521   0.203   8.944
 4022SOL    HW112626   2.602   0.179   8.898
 4022SOL    HW212627   2.550   0.222   9.034
 4023SOL     OW12628   1.942   0.344   7.494
 4023SOL    HW112629   1.870   0.293   7.458
 4023SOL    HW212630   1.959   0.412   7.429
 4024SOL     OW12631   3.294   0.859   8.850
 4024SOL    HW112632   3.245   0.918   8.792
 4024SOL    HW212633   3.384   0.861   8.816
 4025SOL     OW12634   1.928   0.179   7.771
 4025SOL    HW112635   1.924   0.246   7.702
 4025SOL    HW212636   2.003   0.125   7.747
 4026SOL     OW12637   3.042   1.342   7.565
 4026SOL    HW112638   2.951   1.311   7.568
 4026SOL    HW212639   3.071   1.341   7.656
 4027SOL     OW12640   2.480   0.831   8.880
 4027SOL    HW112641   2.535   0.908   8.866
 4027SOL    HW212642   2.542   0.758   8.889
 4028SOL     OW12643   3.347   1.774   8.423
 4028SOL    HW112644   3.374   1.831   8.351
 4028SOL    HW212645   3.428   1.758   8.472
 4029SOL     OW12646   2.578   0.564   9.155
 4029SOL    HW112647   2.613   0.629   9.216
 4029SOL    HW212648   2.616   0.481   9.184
 4030SOL     OW12649   3.330   1.203   9.081
 4030SOL    HW112650   3.318   1.216   9.175
 4030SOL    HW212651   3.424   1.215   9.067
 4031SOL     OW12652   2.246   1.739   9.013
 4031SOL    HW112653   2.159   1.774   8.995
 4031SOL    HW212654   2.230   1.654   9.054
 4032SOL     OW12655   3.534   0.882   8.704
 4032SOL    HW112656   3.524   0.797   8.661
 4032SOL    HW212657   3.525   0.945   8.633
 4033SOL     OW12658   3.080   0.327   7.896
 4033SOL    HW112659   3.145   0.258   7.887
 4033SOL    HW212660   3.107   0.374   7.975
 4034SOL     OW12661   2.451   0.741   8.116
 4034SOL    HW112662   2.492   0.825   8.099
 4034SOL    HW212663   2.382   0.734   8.051
 4035SOL     OW12664   3.628   0.361   9.091
 4035SOL    HW112665   3.611   0.375   8.997
 4035SOL    HW212666   3.550   0.317   9.123
 4036SOL     OW12667   3.606   0.933   8.961
 4036SOL    HW112668   3.608   1.028   8.974
 4036SOL    HW212669   3.591   0.922   8.867
 4037SOL     OW12670   2.724   1.369   7.478
 4037SOL    HW112671   2.685   1.394   7.561
 4037SOL    HW212672   2.744   1.451   7.434
 4038SOL     OW12673   2.520   1.798   8.384
 4038SOL    HW112674   2.517   1.890   8.412
 4038SOL    HW212675   2.614   1.776   8.386
 4039SOL     OW12676   2.728   0.965   8.304
 4039SOL    HW112677   2.778   0.894   8.344
 4039SOL    HW212678   2.695   1.016   8.378
 4040SOL     OW12679   2.943   0.989   7.537
 4040SOL    HW112680   2.920   1.038   7.458
 4040SOL    HW212681   3.018   0.935   7.511
 4041SOL     OW12682   3.719   1.557   8.294
 4041SOL    HW112683   3.642   1.545   8.237
 4041SOL    HW212684   3.711   1.488   8.359
 4042SOL     OW12685   2.086   1.304   9.304
 4042SOL    HW112686   2.018   1.244   9.275
 4042SOL    HW212687   2.068   1.317   9.397
 4043SOL     OW12688   1.946   1.236   8.111
 4043SOL    HW112689   1.946   1.187   8.193
 4043SOL    HW212690   2.015   1.195   8.058
 4044SOL     OW12691   2.541   1.400   9.073
 4044SOL    HW112692   2.462   1.357   9.103
 4044SOL    HW212693   2.536   1.488   9.111
 4045SOL     OW12694   3.672   0.184   8.687
 4045SOL    HW112695   3.672   0.090   8.708
 4045SOL    HW212696   3.688   0.187   8.593
 4046SOL     OW12697   2.296   0.433   7.975
 4046SOL    HW112698   2.320   0.363   7.915
 4046SOL    HW212699   2.242   0.390   8.042
 4047SOL     OW12700   3.563   1.491   8.549
 4047SOL    HW112701   3.482   1.465   8.505
 4047SOL    HW212702   3.578   1.423   8.613
 4048SOL     OW12703   2.189   0.554   8.739
 4048SOL    HW112704   2.245   0.499   8.793
 4048SOL    HW212705   2.210   0.528   8.649
 4049SOL     OW12706   2.686   1.579   8.128
 4049SOL    HW112707   2.681   1.620   8.042
 4049SOL    HW212708   2.609   1.523   8.132
 4050SOL     OW12709   3.294   0.215   8.566
 4050SOL    HW112710   3.331   0.145   8.620
 4050SOL    HW212711   3.243   0.268   8.627
 4051SOL     OW12712   2.859   0.013   8.596
 4051SOL    HW112713   2.813   4.430   8.586
 4051SOL    HW212714   2.951   4.488   8.609
 4052SOL     OW12715   2.633   1.332   7.759
 4052SOL    HW112716   2.599   1.243   7.765
 4052SOL    HW212717   2.716   1.329   7.806
 4053SOL     OW12718   2.482   1.560   8.730
 4053SOL    HW112719   2.486   1.639   8.784
 4053SOL    HW212720   2.570   1.552   8.694
 4054SOL     OW12721   3.205   0.054   7.600
 4054SOL    HW112722   3.244   4.479   7.555
 4054SOL    HW212723   3.129   0.017   7.646
 4055SOL     OW12724   3.176   0.463   8.129
 4055SOL    HW112725   3.114   0.535   8.129
 4055SOL    HW212726   3.164   0.419   8.213
 4056SOL     OW12727   3.448   0.203   8.315
 4056SOL    HW112728   3.387   0.217   8.388
 4056SOL    HW212729   3.451   0.287   8.270
 4057SOL     OW12730   1.906   1.073   7.753
 4057SOL    HW112731   2.000   1.063   7.735
 4057SOL    HW212732   1.876   0.985   7.776
 4058SOL     OW12733   2.743   1.649   7.793
 4058SOL    HW112734   2.672   1.631   7.732
 4058SOL    HW212735   2.713   1.726   7.842
 4059SOL     OW12736   2.092   0.627   9.429
 4059SOL    HW112737   2.004   0.621   9.466
 4059SOL    HW212738   2.083   0.595   9.340
 4060SOL     OW12739   2.072   0.295  10.298
 4060SOL    HW112740   2.103   0.269  10.385
 4060SOL    HW212741   1.990   0.248  10.287
 4061SOL     OW12742   1.871   0.383   9.950
 4061SOL    HW112743   1.785   0.404   9.986
 4061SOL    HW212744   1.855   0.309   9.892
 4062SOL     OW12745   2.429   1.282  10.482
 4062SOL    HW112746   2.341   1.283  10.445
 4062SOL    HW212747   2.441   1.371  10.516
 4063SOL     OW12748   3.420   1.512  10.015
 4063SOL    HW112749   3.375   1.493  10.098
 4063SOL    HW212750   3.349   1.516   9.951
 4064SOL     OW12751   2.994   0.700  10.012
 4064SOL    HW112752   3.042   0.782  10.000
 4064SOL    HW212753   2.944   0.712  10.093
 4065SOL     OW12754   3.626   0.609   9.540
 4065SOL    HW112755   3.607   0.597   9.446
 4065SOL    HW212756   3.595   0.528   9.580
 4066SOL     OW12757   2.623   1.145  10.349
 4066SOL    HW112758   2.552   1.178  10.404
 4066SOL    HW212759   2.655   1.223  10.302
 4067SOL     OW12760   2.712   0.783   0.020
 4067SOL    HW112761   2.720   0.840   0.096
 4067SOL    HW212762   2.746   0.834  11.047
 4068SOL     OW12763   2.549   1.008   9.959
 4068SOL    HW112764   2.612   0.992  10.029
 4068SOL    HW212765   2.478   1.056  10.001
 4069SOL     OW12766   2.194   1.428  10.378
 4069SOL    HW112767   2.120   1.392  10.328
 4069SOL    HW212768   2.244   1.478  10.314
 4070SOL     OW12769   3.325   1.500  10.656
 4070SOL    HW112770   3.375   1.581  10.667
 4070SOL    HW212771   3.281   1.488  10.741
 4071SOL     OW12772   2.308   0.395  10.791
 4071SOL    HW112773   2.385   0.340  10.801
 4071SOL    HW212774   2.235   0.341  10.819
 4072SOL     OW12775   3.474   0.448  10.048
 4072SOL    HW112776   3.394   0.472  10.002
 4072SOL    HW212777   3.497   0.525  10.100
 4073SOL     OW12778   2.079   1.707   9.778
 4073SOL    HW112779   2.104   1.779   9.836
 4073SOL    HW212780   2.151   1.700   9.715
 4074SOL     OW12781   2.093   1.438   9.846
 4074SOL    HW112782   2.073   1.531   9.848
 4074SOL    HW212783   2.030   1.398   9.906
 4075SOL     OW12784   2.117   1.090  10.201
 4075SOL    HW112785   2.113   1.004  10.243
 4075SOL    HW212786   2.058   1.145  10.253
 4076SOL     OW12787   2.476   1.790  10.739
 4076SOL    HW112788   2.395   1.771  10.787
 4076SOL    HW212789   2.499   1.879  10.764
 4077SOL     OW12790   2.452   0.979   9.442
 4077SOL    HW112791   2.493   1.032   9.374
 4077SOL    HW212792   2.493   1.008   9.523
 4078SOL     OW12793   3.419   0.130  10.780
 4078SOL    HW112794   3.466   0.191  10.722
 4078SOL    HW212795   3.470   0.131  10.861
 4079SOL     OW12796   1.977   0.651   9.869
 4079SOL    HW112797   1.948   0.562   9.891
 4079SOL    HW212798   1.968   0.700   9.951
 4080SOL     OW12799   3.703   1.761   9.647
 4080SOL    HW112800   3.762   1.732   9.716
 4080SOL    HW212801   3.731   1.851   9.629
 4081SOL     OW12802   1.893   1.597   9.434
 4081SOL    HW112803   1.875   1.504   9.452
 4081SOL    HW212804   1.867   1.643   9.513
 4082SOL     OW12805   3.553   0.921   9.948
 4082SOL    HW112806   3.638   0.880   9.930
 4082SOL    HW212807   3.532   0.969   9.868
 4083SOL     OW12808   3.507   1.108   9.739
 4083SOL    HW112809   3.592   1.117   9.697
 4083SOL    HW212810   3.511   1.168   9.814
 4084SOL     OW12811   1.986   0.727  10.912
 4084SOL    HW112812   2.079   0.747  10.911
 4084SOL    HW212813   1.943   0.812  10.906
 4085SOL     OW12814   2.474   1.382  10.045
 4085SOL    HW112815   2.428   1.298  10.054
 4085SOL    HW212816   2.458   1.409   9.955
 4086SOL     OW12817   3.159   1.238  10.750
 4086SOL    HW112818   3.183   1.177  10.681
 4086SOL    HW212819   3.214   1.213  10.825
 4087SOL     OW12820   2.677   0.011   9.855
 4087SOL    HW112821   2.711   0.098   9.832
 4087SOL    HW212822   2.582   0.021   9.848
 4088SOL     OW12823   2.054   0.968  10.577
 4088SOL    HW112824   2.137   0.924  10.561
 4088SOL    HW212825   1.988   0.911  10.538
 4089SOL     OW12826   3.394   0.991   9.506
 4089SOL    HW112827   3.324   0.933   9.536
 4089SOL    HW212828   3.433   1.025   9.587
 4090SOL     OW12829   3.056   1.805  10.926
 4090SOL    HW112830   3.060   1.866  10.852
 4090SOL    HW212831   3.064   1.718  10.886
 4091SOL     OW12832   2.195   0.274  11.088
 4091SOL    HW112833   2.252   0.337   0.032
 4091SOL    HW212834   2.112   0.280   0.035
 4092SOL     OW12835   3.328   1.420  10.263
 4092SOL    HW112836   3.259   1.434  10.328
 4092SOL    HW212837   3.316   1.329  10.235
 4093SOL     OW12838   3.523   1.733   9.887
 4093SOL    HW112839   3.500   1.705   9.799
 4093SOL    HW212840   3.497   1.660   9.943
 4094SOL     OW12841   2.456   0.724   9.574
 4094SOL    HW112842   2.464   0.804   9.522
 4094SOL    HW212843   2.391   0.745   9.641
 4095SOL     OW12844   3.152   0.358  10.245
 4095SOL    HW112845   3.063   0.326  10.229
 4095SOL    HW212846   3.189   0.295  10.307
 4096SOL     OW12847   3.443   1.668   9.619
 4096SOL    HW112848   3.532   1.703   9.613
 4096SOL    HW212849   3.418   1.651   9.528
 4097SOL     OW12850   2.658   0.616  10.766
 4097SOL    HW112851   2.626   0.593  10.854
 4097SOL    HW212852   2.616   0.553  10.708
 4098SOL     OW12853   2.828   0.897  10.899
 4098SOL    HW112854   2.876   0.824  10.861
 4098SOL    HW212855   2.778   0.934  10.826
 4099SOL     OW12856   2.857   0.418  10.548
 4099SOL    HW112857   2.771   0.431  10.588
 4099SOL    HW212858   2.839   0.365  10.470
 4100SOL     OW12859   2.911   0.698   9.738
 4100SOL    HW112860   2.926   0.691   9.832
 4100SOL    HW212861   2.829   0.651   9.723
 4101SOL     OW12862   1.951   0.820  10.086
 4101SOL    HW112863   2.033   0.813  10.135
 4101SOL    HW212864   1.908   0.898  10.121
 4102SOL     OW12865   1.993   1.831  10.894
 4102SOL    HW112866   1.966   1.808  10.983
 4102SOL    HW212867   1.911   1.852  10.849
 4103SOL     OW12868   2.716   0.368   9.490
 4103SOL    HW112869   2.791   0.403   9.441
 4103SOL    HW212870   2.733   0.274   9.494
 4104SOL     OW12871   3.237   1.143   9.852
 4104SOL    HW112872   3.315   1.128   9.799
 4104SOL    HW212873   3.185   1.205   9.801
 4105SOL     OW12874   2.403   0.202  10.211
 4105SOL    HW112875   2.422   0.219  10.303
 4105SOL    HW212876   2.394   0.288  10.171
 4106SOL     OW12877   2.871   1.446   9.784
 4106SOL    HW112878   2.830   1.517   9.735
 4106SOL    HW212879   2.856   1.469   9.876
 4107SOL     OW12880   2.218   1.798  10.176
 4107SOL    HW112881   2.252   1.709  10.180
 4107SOL    HW212882   2.292   1.854  10.198
 4108SOL     OW12883   3.660   1.061  10.177
 4108SOL    HW112884   3.603   1.043  10.102
 4108SOL    HW212885   3.600   1.065  10.251
 4109SOL     OW12886   3.087   1.541  10.825
 4109SOL    HW112887   3.097   1.454  10.864
 4109SOL    HW212888   3.031   1.527  10.749
 4110SOL     OW12889   2.184   0.955   9.558
 4110SOL    HW112890   2.265   0.974   9.512
 4110SOL    HW212891   2.152   0.874   9.518
 4111SOL     OW12892   3.338   0.740  10.036
 4111SOL    HW112893   3.324   0.692  10.118
 4111SOL    HW212894   3.415   0.795  10.052
 4112SOL     OW12895   2.315   1.269  11.053
 4112SOL    HW112896   2.287   1.276  10.962
 4112SOL    HW212897   2.249   1.212  11.093
 4113SOL     OW12898   2.983   1.777   9.542
 4113SOL    HW112899   2.911   1.733   9.589
 4113SOL    HW212900   3.004   1.718   9.470
 4114SOL     OW12901   2.056   0.267  10.812
 4114SOL    HW112902   1.987   0.333  10.804
 4114SOL    HW212903   2.068   0.257  10.906
 4115SOL     OW12904   3.492   1.379   9.396
 4115SOL    HW112905   3.451   1.464   9.382
 4115SOL    HW212906   3.422   1.315   9.378
 4116SOL     OW12907   2.330   1.735   9.632
 4116SOL    HW112908   2.371   1.793   9.696
 4116SOL    HW212909   2.401   1.708   9.575
 4117SOL     OW12910   3.278   0.131   9.729
 4117SOL    HW112911   3.260   0.084   9.647
 4117SOL    HW212912   3.373   0.129   9.738
 4118SOL     OW12913   2.104   1.781  10.550
 4118SOL    HW112914   2.169   1.724  10.592
 4118SOL    HW212915   2.108   1.759  10.457
 4119SOL     OW12916   2.799   1.697  10.213
 4119SOL    HW112917   2.878   1.645  10.229
 4119SOL    HW212918   2.754   1.650  10.143
 4120SOL     OW12919   2.252   0.695   9.788
 4120SOL    HW112920   2.277   0.603   9.798
 4120SOL    HW212921   2.159   0.697   9.806
 4121SOL     OW12922   2.486   0.123   9.430
 4121SOL    HW112923   2.574   0.087   9.439
 4121SOL    HW212924   2.454   0.089   9.346
 4122SOL     OW12925   2.626   0.266  11.044
 4122SOL    HW112926   2.693   0.208  11.079
 4122SOL    HW212927   2.582   0.300   0.022
 4123SOL     OW12928   2.738   1.521  10.503
 4123SOL    HW112929   2.723   1.486  10.415
 4123SOL    HW212930   2.809   1.468  10.539
 4124SOL     OW12931   3.206   0.589  10.752
 4124SOL    HW112932   3.254   0.570  10.833
 4124SOL    HW212933   3.233   0.678  10.728
 4125SOL     OW12934   2.675   1.399  10.246
 4125SOL    HW112935   2.759   1.388  10.201
 4125SOL    HW212936   2.609   1.395  10.176
 4126SOL     OW12937   2.784   0.515  10.212
 4126SOL    HW112938   2.768   0.513  10.117
 4126SOL    HW212939   2.825   0.431  10.231
 4127SOL     OW12940   2.415   0.073   9.830
 4127SOL    HW112941   2.325   0.049   9.854
 4127SOL    HW212942   2.405   0.141   9.763
 4128SOL     OW12943   3.291   1.198   9.351
 4128SOL    HW112944   3.321   1.122   9.401
 4128SOL    HW212945   3.204   1.217   9.388
 4129SOL     OW12946   2.158   0.072   9.501
 4129SOL    HW112947   2.237   0.123   9.483
 4129SOL    HW212948   2.189   4.499   9.556
 4130SOL     OW12949   2.811   0.240   9.782
 4130SOL    HW112950   2.759   0.288   9.718
 4130SOL    HW212951   2.900   0.275   9.773
 4131SOL     OW12952   2.940   0.682  10.773
 4131SOL    HW112953   2.867   0.620  10.773
 4131SOL    HW212954   3.018   0.627  10.764
 4132SOL     OW12955   3.086   1.570  10.104
 4132SOL    HW112956   3.105   1.637  10.038
 4132SOL    HW212957   3.155   1.581  10.170
 4133SOL     OW12958   2.329   1.148  10.047
 4133SOL    HW112959   2.258   1.129  10.109
 4133SOL    HW212960   2.291   1.130   9.961
 4134SOL     OW12961   3.133   1.795   9.915
 4134SOL    HW112962   3.177   1.856   9.856
 4134SOL    HW212963   3.069   1.848   9.962
 4135SOL     OW12964   2.893   0.549   9.324
 4135SOL    HW112965   2.845   0.631   9.309
 4135SOL    HW212966   2.951   0.569   9.398
 4136SOL     OW12967   1.940   0.551  10.705
 4136SOL    HW112968   2.031   0.554  10.675
 4136SOL    HW212969   1.935   0.617  10.775
 4137SOL     OW12970   2.426   0.241  10.475
 4137SOL    HW112971   2.450   0.154  10.507
 4137SOL    HW212972   2.334   0.251  10.501
 4138SOL     OW12973   2.729   0.501   9.936
 4138SOL    HW112974   2.677   0.543   9.867
 4138SOL    HW212975   2.712   0.407   9.925
 4139SOL     OW12976   2.833   0.032  10.084
 4139SOL    HW112977   2.783   0.027  10.002
 4139SOL    HW212978   2.842   4.441  10.112
 4140SOL     OW12979   3.297   1.164  10.168
 4140SOL    HW112980   3.231   1.095  10.166
 4140SOL    HW212981   3.320   1.177  10.076
 4141SOL     OW12982   3.329   0.603  10.289
 4141SOL    HW112983   3.279   0.521  10.292
 4141SOL    HW212984   3.389   0.597  10.364
 4142SOL     OW12985   3.710   0.819   9.691
 4142SOL    HW112986   3.765   0.767   9.749
 4142SOL    HW212987   3.680   0.758   9.624
 4143SOL     OW12988   2.354   1.415   9.471
 4143SOL    HW112989   2.279   1.384   9.523
 4143SOL    HW212990   2.334   1.387   9.381
 4144SOL     OW12991   3.530   1.266   9.958
 4144SOL    HW112992   3.625   1.271   9.971
 4144SOL    HW212993   3.498   1.353   9.980
 4145SOL     OW12994   3.256   0.570   9.380
 4145SOL    HW112995   3.195   0.554   9.452
 4145SOL    HW212996   3.342   0.548   9.415
 4146SOL     OW12997   2.387   0.266   9.635
 4146SOL    HW112998   2.429   0.212   9.567
 4146SOL    HW212999   2.371   0.350   9.592
 4147SOL     OW13000   3.622   1.229  10.874
 4147SOL    HW113001   3.713   1.199  10.878
 4147SOL    HW213002   3.624   1.316  10.915
 4148SOL     OW13003   2.927   1.355  10.651
 4148SOL    HW113004   2.849   1.321  10.695
 4148SOL    HW213005   3.000   1.306  10.690
 4149SOL     OW13006   2.988   1.205  10.418
 4149SOL    HW113007   2.923   1.239  10.480
 4149SOL    HW213008   2.955   1.231  10.332
 4150SOL     OW13009   3.493   1.100  10.389
 4150SOL    HW113010   3.489   1.162  10.462
 4150SOL    HW213011   3.412   1.115  10.340
 4151SOL     OW13012   2.763   0.127  10.700
 4151SOL    HW113013   2.790   0.087  10.617
 4151SOL    HW213014   2.845   0.139  10.748
 4152SOL     OW13015   2.570   1.061   9.682
 4152SOL    HW113016   2.557   1.046   9.775
 4152SOL    HW213017   2.646   1.007   9.660
 4153SOL     OW13018   2.279   0.814  10.561
 4153SOL    HW113019   2.349   0.823  10.626
 4153SOL    HW213020   2.244   0.726  10.575
 4154SOL     OW13021   3.132   0.381  10.581
 4154SOL    HW113022   3.162   0.459  10.627
 4154SOL    HW213023   3.044   0.403  10.551
 4155SOL     OW13024   1.928   1.573  10.656
 4155SOL    HW113025   1.895   1.647  10.606
 4155SOL    HW213026   2.024   1.583  10.655
 4156SOL     OW13027   2.217   1.106   9.802
 4156SOL    HW113028   2.219   1.179   9.740
 4156SOL    HW213029   2.215   1.028   9.747
 4157SOL     OW13030   2.420   0.532  10.169
 4157SOL    HW113031   2.436   0.591  10.095
 4157SOL    HW213032   2.481   0.563  10.237
 4158SOL     OW13033   3.110   1.348   9.699
 4158SOL    HW113034   3.165   1.420   9.730
 4158SOL    HW213035   3.023   1.368   9.733
 4159SOL     OW13036   3.137   1.457  10.454
 4159SOL    HW113037   3.193   1.459  10.531
 4159SOL    HW213038   3.085   1.377  10.465
 4160SOL     OW13039   3.445   0.625   9.785
 4160SOL    HW113040   3.401   0.679   9.851
 4160SOL    HW213041   3.490   0.688   9.729
 4161SOL     OW13042   2.212   1.518  10.630
 4161SOL    HW113043   2.197   1.479  10.544
 4161SOL    HW213044   2.307   1.535  10.632
 4162SOL     OW13045   2.275   0.736  10.906
 4162SOL    HW113046   2.336   0.783  10.849
 4162SOL    HW213047   2.314   0.650  10.919
 4163SOL     OW13048   3.453   0.763  10.971
 4163SOL    HW113049   3.375   0.819  10.966
 4163SOL    HW213050   3.521   0.812  10.927
 4164SOL     OW13051   2.445   0.872  10.341
 4164SOL    HW113052   2.472   0.963  10.338
 4164SOL    HW213053   2.387   0.867  10.417
 4165SOL     OW13054   3.222   0.860  10.346
 4165SOL    HW113055   3.142   0.854  10.294
 4165SOL    HW213056   3.261   0.772  10.342
 4166SOL     OW13057   3.069   0.535   9.577
 4166SOL    HW113058   3.075   0.454   9.628
 4166SOL    HW213059   3.026   0.597   9.635
 4167SOL     OW13060   2.152   0.234  10.549
 4167SOL    HW113061   2.116   0.252  10.635
 4167SOL    HW213062   2.179   0.143  10.552
 4168SOL     OW13063   1.910   1.311  10.586
 4168SOL    HW113064   1.939   1.258  10.661
 4168SOL    HW213065   1.915   1.401  10.617
 4169SOL     OW13066   2.588   0.633  10.371
 4169SOL    HW113067   2.659   0.612  10.311
 4169SOL    HW213068   2.560   0.721  10.346
 4170SOL     OW13069   2.161   0.060   9.963
 4170SOL    HW113070   2.151   0.155   9.969
 4170SOL    HW213071   2.172   0.032  10.054
 4171SOL     OW13072   3.472   0.374   9.676
 4171SOL    HW113073   3.504   0.312   9.742
 4171SOL    HW213074   3.451   0.453   9.727
 4172SOL     OW13075   2.889   0.761  10.272
 4172SOL    HW113076   2.889   0.777  10.367
 4172SOL    HW213077   2.861   0.670  10.264
 4173SOL     OW13078   2.835   1.571  11.004
 4173SOL    HW113079   2.822   1.621  10.924
 4173SOL    HW213080   2.869   1.487  10.976
 4174SOL     OW13081   3.720   1.498  10.912
 4174SOL    HW113082   3.734   1.531  10.824
 4174SOL    HW213083   3.789   1.539  10.964
 4175SOL     OW13084   2.222   0.920  11.095
 4175SOL    HW113085   2.306   0.933   0.037
 4175SOL    HW213086   2.238   0.853  11.029
 4176SOL     OW13087   3.394   0.268   9.438
 4176SOL    HW113088   3.322   0.211   9.465
 4176SOL    HW213089   3.422   0.312   9.518
 4177SOL     OW13090   3.157   0.827   9.343
 4177SOL    HW113091   3.198   0.741   9.345
 4177SOL    HW213092   3.187   0.866   9.261
 4178SOL     OW13093   2.927   1.334  10.163
 4178SOL    HW113094   2.929   1.261  10.101
 4178SOL    HW213095   2.990   1.398  10.128
 4179SOL     OW13096   2.172   0.810  10.259
 4179SOL    HW113097   2.265   0.832  10.251
 4179SOL    HW213098   2.171   0.721  10.293
 4180SOL     OW13099   2.199   0.528  10.322
 4180SOL    HW113100   2.157   0.444  10.303
 4180SOL    HW213101   2.274   0.531  10.263
 4181SOL     OW13102   3.019   0.216  10.773
 4181SOL    HW113103   3.025   0.273  10.849
 4181SOL    HW213104   3.053   0.268  10.701
 4182SOL     OW13105   1.867   1.323   9.505
 4182SOL    HW113106   1.780   1.336   9.468
 4182SOL    HW213107   1.865   1.233   9.538
 4183SOL     OW13108   1.949   1.793  10.243
 4183SOL    HW113109   1.918   1.711  10.203
 4183SOL    HW213110   2.041   1.799  10.218
 4184SOL     OW13111   2.362   1.570  10.215
 4184SOL    HW113112   2.431   1.635  10.232
 4184SOL    HW213113   2.405   1.504  10.161
 4185SOL     OW13114   2.850   0.796  10.539
 4185SOL    HW113115   2.901   0.771  10.616
 4185SOL    HW213116   2.764   0.757  10.554
 4186SOL     OW13117   1.897   0.542  10.428
 4186SOL    HW113118   1.976   0.522  10.379
 4186SOL    HW213119   1.926   0.549  10.519
 4187SOL     OW13120   2.674   0.573   9.663
 4187SOL    HW113121   2.677   0.501   9.600
 4187SOL    HW213122   2.599   0.626   9.634
 4188SOL     OW13123   3.504   0.601  10.499
 4188SOL    HW113124   3.494   0.541  10.573
 4188SOL    HW213125   3.591   0.582  10.464
 4189SOL     OW13126   2.120   1.563  11.057
 4189SOL    HW113127   2.064   1.603   0.023
 4189SOL    HW213128   2.114   1.469  11.073
 4190SOL     OW13129   2.558   0.459  10.575
 4190SOL    HW113130   2.510   0.382  10.543
 4190SOL    HW213131   2.559   0.519  10.501
 4191SOL     OW13132   2.802   1.682  10.761
 4191SOL    HW113133   2.765   1.651  10.678
 4191SOL    HW213134   2.792   1.777  10.758
 4192SOL     OW13135   2.329   0.493   9.496
 4192SOL    HW113136   2.387   0.567   9.516
 4192SOL    HW213137   2.242   0.533   9.487
 4193SOL     OW13138   2.017   1.138  10.780
 4193SOL    HW113139   2.011   1.082  10.857
 4193SOL    HW213140   2.029   1.078  10.707
 4194SOL     OW13141   3.189   1.054  10.539
 4194SOL    HW113142   3.217   0.989  10.474
 4194SOL    HW213143   3.117   1.100  10.497
 4195SOL     OW13144   3.171   0.856   9.617
 4195SOL    HW113145   3.094   0.827   9.666
 4195SOL    HW213146   3.147   0.843   9.526
 4196SOL     OW13147   3.632   1.748  10.460
 4196SOL    HW113148   3.690   1.773  10.389
 4196SOL    HW213149   3.607   1.657  10.440
 4197SOL     OW13150   3.104   1.733  10.428
 4197SOL    HW113151   3.185   1.752  10.381
 4197SOL    HW213152   3.107   1.639  10.444
 4198SOL     OW13153   1.946   1.266  10.323
 4198SOL    HW113154   1.934   1.277  10.417
 4198SOL    HW213155   1.871   1.213  10.295
 4199SOL     OW13156   3.580   0.130   9.808
 4199SOL    HW113157   3.654   0.135   9.748
 4199SOL    HW213158   3.600   0.056   9.865
 4200SOL     OW13159   3.252   1.568   9.793
 4200SOL    HW113160   3.312   1.598   9.725
 4200SOL    HW213161   3.205   1.646   9.820
 4201SOL     OW13162   3.140   0.926   9.983
 4201SOL    HW113163   3.212   0.863   9.986
 4201SOL    HW213164   3.174   0.998   9.930
 4202SOL     OW13165   2.684   1.272  10.739
 4202SOL    HW113166   2.654   1.307  10.823
 4202SOL    HW213167   2.612   1.293  10.679
 4203SOL     OW13168   2.533   1.617   9.466
 4203SOL    HW113169   2.543   1.628   9.371
 4203SOL    HW213170   2.481   1.538   9.475
 4204SOL     OW13171   3.490   1.720  10.701
 4204SOL    HW113172   3.541   1.733  10.621
 4204SOL    HW213173   3.475   1.808  10.735
 4205SOL     OW13174   3.701   0.156  10.278
 4205SOL    HW113175   3.732   0.080  10.228
 4205SOL    HW213176   3.614   0.174  10.241
 4206SOL     OW13177   2.129   0.325  10.030
 4206SOL    HW113178   2.044   0.358  10.001
 4206SOL    HW213179   2.120   0.314  10.125
 4207SOL     OW13180   3.068   1.608   9.341
 4207SOL    HW113181   3.060   1.517   9.369
 4207SOL    HW213182   3.003   1.618   9.271
 4208SOL     OW13183   2.687   1.005  10.685
 4208SOL    HW113184   2.728   1.000  10.598
 4208SOL    HW213185   2.689   1.099  10.706
 4209SOL     OW13186   2.778   0.911   9.600
 4209SOL    HW113187   2.840   0.942   9.534
 4209SOL    HW213188   2.823   0.839   9.644
 4210SOL     OW13189   3.357   1.624   9.352
 4210SOL    HW113190   3.262   1.621   9.341
 4210SOL    HW213191   3.391   1.630   9.263
 4211SOL     OW13192   2.230   1.303  10.805
 4211SOL    HW113193   2.218   1.378  10.748
 4211SOL    HW213194   2.156   1.246  10.786
 4212SOL     OW13195   3.475   1.283  10.593
 4212SOL    HW113196   3.531   1.273  10.670
 4212SOL    HW213197   3.417   1.356  10.615
 4213SOL     OW13198   2.910   1.105  10.015
 4213SOL    HW113199   2.840   1.054  10.055
 4213SOL    HW213200   2.971   1.040   9.981
 4214SOL     OW13201   2.870   0.241  10.307
 4214SOL    HW113202   2.877   0.212  10.216
 4214SOL    HW213203   2.863   0.161  10.357
 4215SOL     OW13204   2.464   1.490   9.792
 4215SOL    HW113205   2.504   1.437   9.723
 4215SOL    HW213206   2.396   1.540   9.748
 4216SOL     OW13207   3.579   0.393  10.688
 4216SOL    HW113208   3.650   0.457  10.689
 4216SOL    HW213209   3.609   0.323  10.630
 4217SOL     OW13210   2.120   1.348   9.597
 4217SOL    HW113211   2.027   1.345   9.575
 4217SOL    HW213212   2.123   1.383   9.686
 4218SOL     OW13213   1.975   1.010  11.020
 4218SOL    HW113214   1.904   0.995  11.083
 4218SOL    HW213215   2.054   0.982  11.066
 4219SOL     OW13216   2.517   0.189  10.808
 4219SOL    HW113217   2.596   0.168  10.757
 4219SOL    HW213218   2.551   0.223  10.891
 4220SOL     OW13219   1.942   0.344   9.356
 4220SOL    HW113220   1.870   0.293   9.320
 4220SOL    HW213221   1.959   0.412   9.291
 4221SOL     OW13222   3.293   0.849  10.710
 4221SOL    HW113223   3.245   0.916  10.661
 4221SOL    HW213224   3.384   0.859  10.681
 4222SOL     OW13225   1.928   0.179   9.633
 4222SOL    HW113226   1.924   0.246   9.564
 4222SOL    HW213227   2.003   0.125   9.609
 4223SOL     OW13228   3.042   1.342   9.427
 4223SOL    HW113229   2.951   1.312   9.430
 4223SOL    HW213230   3.071   1.341   9.518
 4224SOL     OW13231   2.481   0.831  10.743
 4224SOL    HW113232   2.536   0.907  10.728
 4224SOL    HW213233   2.542   0.758  10.751
 4225SOL     OW13234   3.347   1.774  10.285
 4225SOL    HW113235   3.374   1.831  10.213
 4225SOL    HW213236   3.427   1.758  10.334
 4226SOL     OW13237   2.576   0.564  11.018
 4226SOL    HW113238   2.609   0.636  11.072
 4226SOL    HW213239   2.630   0.489  11.043
 4227SOL     OW13240   2.249   1.734  10.873
 4227SOL    HW113241   2.167   1.782  10.862
 4227SOL    HW213242   2.225   1.658  10.926
 4228SOL     OW13243   3.535   0.883  10.567
 4228SOL    HW113244   3.524   0.797  10.524
 4228SOL    HW213245   3.526   0.946  10.496
 4229SOL     OW13246   3.080   0.327   9.758
 4229SOL    HW113247   3.145   0.258   9.749
 4229SOL    HW213248   3.107   0.374   9.837
 4230SOL     OW13249   2.451   0.741   9.978
 4230SOL    HW113250   2.492   0.825   9.960
 4230SOL    HW213251   2.382   0.733   9.913
 4231SOL     OW13252   3.618   0.316  10.948
 4231SOL    HW113253   3.599   0.356  10.863
 4231SOL    HW213254   3.539   0.329  11.000
 4232SOL     OW13255   3.610   0.935  10.825
 4232SOL    HW113256   3.605   1.029  10.839
 4232SOL    HW213257   3.593   0.923  10.732
 4233SOL     OW13258   2.725   1.369   9.340
 4233SOL    HW113259   2.685   1.394   9.423
 4233SOL    HW213260   2.744   1.451   9.296
 4234SOL     OW13261   2.517   1.803  10.246
 4234SOL    HW113262   2.503   1.883  10.296
 4234SOL    HW213263   2.611   1.788  10.248
 4235SOL     OW13264   2.727   0.965  10.166
 4235SOL    HW113265   2.778   0.894  10.206
 4235SOL    HW213266   2.695   1.016  10.241
 4236SOL     OW13267   2.942   0.988   9.399
 4236SOL    HW113268   2.920   1.038   9.320
 4236SOL    HW213269   3.018   0.935   9.373
 4237SOL     OW13270   3.719   1.557  10.155
 4237SOL    HW113271   3.642   1.545  10.100
 4237SOL    HW213272   3.712   1.488  10.221
 4238SOL     OW13273   1.945   1.236   9.973
 4238SOL    HW113274   1.946   1.186  10.055
 4238SOL    HW213275   2.014   1.196   9.921
 4239SOL     OW13276   2.540   1.394  10.935
 4239SOL    HW113277   2.466   1.344  10.970
 4239SOL    HW213278   2.512   1.485  10.940
 4240SOL     OW13279   3.669   0.182  10.550
 4240SOL    HW113280   3.677   0.089  10.569
 4240SOL    HW213281   3.686   0.188  10.456
 4241SOL     OW13282   2.296   0.433   9.838
 4241SOL    HW113283   2.320   0.363   9.777
 4241SOL    HW213284   2.242   0.390   9.904
 4242SOL     OW13285   3.563   1.492  10.411
 4242SOL    HW113286   3.483   1.465  10.367
 4242SOL    HW213287   3.580   1.423  10.475
 4243SOL     OW13288   2.189   0.555  10.600
 4243SOL    HW113289   2.242   0.498  10.656
 4243SOL    HW213290   2.209   0.528  10.511
 4244SOL     OW13291   2.687   1.578   9.990
 4244SOL    HW113292   2.681   1.622   9.905
 4244SOL    HW213293   2.609   1.523   9.994
 4245SOL     OW13294   3.293   0.214  10.429
 4245SOL    HW113295   3.333   0.147  10.483
 4245SOL    HW213296   3.243   0.268  10.490
 4246SOL     OW13297   2.859   0.013  10.458
 4246SOL    HW113298   2.813   4.430  10.447
 4246SOL    HW213299   2.950   4.488  10.472
 4247SOL     OW13300   2.633   1.332   9.621
 4247SOL    HW113301   2.599   1.243   9.627
 4247SOL    HW213302   2.716   1.329   9.668
 4248SOL     OW13303   2.482   1.558  10.594
 4248SOL    HW113304   2.484   1.640  10.644
 4248SOL    HW213305   2.569   1.551  10.556
 4249SOL     OW13306   3.205   0.054   9.462
 4249SOL    HW113307   3.244   4.479   9.417
 4249SOL    HW213308   3.129   0.017   9.508
 4250SOL     OW13309   3.176   0.463   9.991
 4250SOL    HW113310   3.113   0.535   9.992
 4250SOL    HW213311   3.164   0.419  10.075
 4251SOL     OW13312   3.448   0.202  10.177
 4251SOL    HW113313   3.387   0.216  10.250
 4251SOL    HW213314   3.451   0.287  10.132
 4252SOL     OW13315   1.906   1.073   9.615
 4252SOL    HW113316   1.999   1.063   9.597
 4252SOL    HW213317   1.876   0.985   9.638
 4253SOL     OW13318   2.743   1.649   9.654
 4253SOL    HW113319   2.672   1.631   9.593
 4253SOL    HW213320   2.713   1.725   9.704
 4254SOL     OW13321   2.068   2.522   0.104
 4254SOL    HW113322   1.993   2.486   0.152
 4254SOL    HW213323   2.106   2.446   0.059
 4255SOL     OW13324   1.865   2.247   0.630
 4255SOL    HW113325   1.786   2.266   0.680
 4255SOL    HW213326   1.847   2.161   0.590
 4256SOL     OW13327   2.428   3.144   1.172
 4256SOL    HW113328   2.341   3.147   1.133
 4256SOL    HW213329   2.443   3.232   1.206
 4257SOL     OW13330   3.419   3.373   0.705
 4257SOL    HW113331   3.375   3.355   0.788
 4257SOL    HW213332   3.348   3.378   0.641
 4258SOL     OW13333   2.991   2.561   0.704
 4258SOL    HW113334   3.041   2.641   0.689
 4258SOL    HW213335   2.945   2.575   0.787
 4259SOL     OW13336   3.634   2.466   0.221
 4259SOL    HW113337   3.587   2.463   0.138
 4259SOL    HW213338   3.595   2.395   0.273
 4260SOL     OW13339   2.621   3.006   1.037
 4260SOL    HW113340   2.551   3.040   1.093
 4260SOL    HW213341   2.654   3.084   0.992
 4261SOL     OW13342   2.722   2.644   1.821
 4261SOL    HW113343   2.714   2.716   1.883
 4261SOL    HW213344   2.747   2.686   1.739
 4262SOL     OW13345   2.549   2.871   0.649
 4262SOL    HW113346   2.612   2.854   0.719
 4262SOL    HW213347   2.479   2.919   0.691
 4263SOL     OW13348   2.569   3.014   1.808
 4263SOL    HW113349   2.617   3.093   1.833
 4263SOL    HW213350   2.485   3.046   1.776
 4264SOL     OW13351   2.193   3.291   1.068
 4264SOL    HW113352   2.121   3.254   1.017
 4264SOL    HW213353   2.244   3.341   1.005
 4265SOL     OW13354   3.324   3.360   1.350
 4265SOL    HW113355   3.367   3.445   1.361
 4265SOL    HW213356   3.269   3.351   1.429
 4266SOL     OW13357   3.475   2.312   0.739
 4266SOL    HW113358   3.398   2.338   0.688
 4266SOL    HW213359   3.496   2.388   0.792
 4267SOL     OW13360   2.081   3.574   0.476
 4267SOL    HW113361   2.105   3.652   0.526
 4267SOL    HW213362   2.148   3.569   0.407
 4268SOL     OW13363   2.998   3.203   1.691
 4268SOL    HW113364   3.037   3.199   1.778
 4268SOL    HW213365   2.945   3.123   1.686
 4269SOL     OW13366   2.091   3.302   0.534
 4269SOL    HW113367   2.075   3.396   0.538
 4269SOL    HW213368   2.028   3.264   0.595
 4270SOL     OW13369   2.116   2.954   0.890
 4270SOL    HW113370   2.112   2.867   0.931
 4270SOL    HW213371   2.057   3.008   0.942
 4271SOL     OW13372   2.478   3.652   1.432
 4271SOL    HW113373   2.394   3.635   1.476
 4271SOL    HW213374   2.499   3.742   1.456
 4272SOL     OW13375   2.450   2.844   0.137
 4272SOL    HW113376   2.485   2.906   0.073
 4272SOL    HW213377   2.493   2.868   0.219
 4273SOL     OW13378   3.458   1.983   1.470
 4273SOL    HW113379   3.456   2.062   1.416
 4273SOL    HW213380   3.447   2.014   1.560
 4274SOL     OW13381   1.983   2.505   0.562
 4274SOL    HW113382   1.946   2.419   0.582
 4274SOL    HW213383   1.968   2.557   0.641
 4275SOL     OW13384   3.703   3.624   0.337
 4275SOL    HW113385   3.763   3.593   0.405
 4275SOL    HW213386   3.732   3.713   0.318
 4276SOL     OW13387   1.903   3.464   0.120
 4276SOL    HW113388   1.877   3.375   0.142
 4276SOL    HW213389   1.876   3.517   0.195
 4277SOL     OW13390   3.550   2.779   0.637
 4277SOL    HW113391   3.637   2.743   0.621
 4277SOL    HW213392   3.531   2.831   0.559
 4278SOL     OW13393   3.508   2.969   0.432
 4278SOL    HW113394   3.589   2.982   0.384
 4278SOL    HW213395   3.512   3.030   0.505
 4279SOL     OW13396   1.982   2.598   1.583
 4279SOL    HW113397   2.071   2.613   1.617
 4279SOL    HW213398   1.937   2.681   1.596
 4280SOL     OW13399   2.474   3.244   0.735
 4280SOL    HW113400   2.428   3.161   0.744
 4280SOL    HW213401   2.458   3.272   0.645
 4281SOL     OW13402   3.152   3.101   1.424
 4281SOL    HW113403   3.185   3.033   1.365
 4281SOL    HW213404   3.208   3.093   1.502
 4282SOL     OW13405   2.673   1.862   0.503
 4282SOL    HW113406   2.714   1.947   0.490
 4282SOL    HW213407   2.580   1.881   0.515
 4283SOL     OW13408   2.054   2.832   1.268
 4283SOL    HW113409   2.137   2.788   1.250
 4283SOL    HW213410   1.987   2.776   1.229
 4284SOL     OW13411   3.383   2.860   0.200
 4284SOL    HW113412   3.319   2.797   0.233
 4284SOL    HW213413   3.430   2.890   0.278
 4285SOL     OW13414   3.047   3.665   1.620
 4285SOL    HW113415   3.062   3.723   1.545
 4285SOL    HW213416   3.062   3.577   1.586
 4286SOL     OW13417   3.327   3.282   0.953
 4286SOL    HW113418   3.259   3.296   1.019
 4286SOL    HW213419   3.316   3.191   0.926
 4287SOL     OW13420   3.523   3.595   0.579
 4287SOL    HW113421   3.501   3.568   0.490
 4287SOL    HW213422   3.497   3.521   0.634
 4288SOL     OW13423   2.462   2.585   0.269
 4288SOL    HW113424   2.467   2.660   0.210
 4288SOL    HW213425   2.390   2.605   0.328
 4289SOL     OW13426   3.142   2.209   0.932
 4289SOL    HW113427   3.053   2.177   0.940
 4289SOL    HW213428   3.192   2.158   0.995
 4290SOL     OW13429   3.444   3.530   0.311
 4290SOL    HW113430   3.533   3.564   0.305
 4290SOL    HW213431   3.419   3.512   0.220
 4291SOL     OW13432   2.655   2.482   1.453
 4291SOL    HW113433   2.630   2.456   1.542
 4291SOL    HW213434   2.620   2.413   1.397
 4292SOL     OW13435   3.256   2.336   1.678
 4292SOL    HW113436   3.256   2.380   1.763
 4292SOL    HW213437   3.319   2.264   1.688
 4293SOL     OW13438   2.820   2.750   1.581
 4293SOL    HW113439   2.874   2.679   1.546
 4293SOL    HW213440   2.772   2.783   1.504
 4294SOL     OW13441   2.856   2.273   1.240
 4294SOL    HW113442   2.771   2.298   1.277
 4294SOL    HW213443   2.834   2.227   1.159
 4295SOL     OW13444   2.911   2.563   0.427
 4295SOL    HW113445   2.926   2.556   0.521
 4295SOL    HW213446   2.828   2.516   0.413
 4296SOL     OW13447   1.951   2.682   0.773
 4296SOL    HW113448   2.033   2.677   0.822
 4296SOL    HW213449   1.906   2.758   0.809
 4297SOL     OW13450   1.990   3.701   1.576
 4297SOL    HW113451   1.988   3.682   1.669
 4297SOL    HW213452   1.898   3.705   1.549
 4298SOL     OW13453   2.745   2.215   0.205
 4298SOL    HW113454   2.796   2.270   0.146
 4298SOL    HW213455   2.761   2.126   0.176
 4299SOL     OW13456   3.573   2.440   1.828
 4299SOL    HW113457   3.536   2.515   1.783
 4299SOL    HW213458   3.596   2.379   1.758
 4300SOL     OW13459   3.237   3.004   0.542
 4300SOL    HW113460   3.315   2.989   0.489
 4300SOL    HW213461   3.185   3.066   0.492
 4301SOL     OW13462   2.871   3.308   0.474
 4301SOL    HW113463   2.829   3.379   0.426
 4301SOL    HW213464   2.855   3.330   0.566
 4302SOL     OW13465   2.216   3.668   0.859
 4302SOL    HW113466   2.260   3.584   0.867
 4302SOL    HW213467   2.285   3.733   0.874
 4303SOL     OW13468   3.659   2.922   0.868
 4303SOL    HW113469   3.602   2.907   0.792
 4303SOL    HW213470   3.600   2.927   0.942
 4304SOL     OW13471   3.090   3.402   1.512
 4304SOL    HW113472   3.076   3.329   1.572
 4304SOL    HW213473   3.030   3.385   1.440
 4305SOL     OW13474   2.178   2.814   0.271
 4305SOL    HW113475   2.256   2.841   0.221
 4305SOL    HW213476   2.146   2.736   0.226
 4306SOL     OW13477   3.338   2.598   0.727
 4306SOL    HW113478   3.327   2.555   0.812
 4306SOL    HW213479   3.413   2.656   0.739
 4307SOL     OW13480   2.326   3.125   1.737
 4307SOL    HW113481   2.298   3.130   1.646
 4307SOL    HW213482   2.245   3.124   1.787
 4308SOL     OW13483   2.969   3.640   0.226
 4308SOL    HW113484   2.912   3.588   0.282
 4308SOL    HW213485   3.009   3.577   0.166
 4309SOL     OW13486   1.976   2.105   1.500
 4309SOL    HW113487   1.973   2.200   1.490
 4309SOL    HW213488   2.059   2.089   1.544
 4310SOL     OW13489   3.490   3.237   0.088
 4310SOL    HW113490   3.448   3.322   0.076
 4310SOL    HW213491   3.424   3.173   0.061
 4311SOL     OW13492   2.331   3.597   0.326
 4311SOL    HW113493   2.368   3.657   0.390
 4311SOL    HW213494   2.405   3.576   0.268
 4312SOL     OW13495   3.263   1.970   0.429
 4312SOL    HW113496   3.254   1.947   0.337
 4312SOL    HW213497   3.358   1.977   0.442
 4313SOL     OW13498   2.117   3.654   1.233
 4313SOL    HW113499   2.169   3.589   1.280
 4313SOL    HW213500   2.105   3.617   1.146
 4314SOL     OW13501   2.800   3.560   0.900
 4314SOL    HW113502   2.877   3.507   0.920
 4314SOL    HW213503   2.754   3.511   0.832
 4315SOL     OW13504   2.250   2.558   0.474
 4315SOL    HW113505   2.271   2.468   0.450
 4315SOL    HW213506   2.158   2.555   0.500
 4316SOL     OW13507   3.400   2.088   1.725
 4316SOL    HW113508   3.408   2.109   1.818
 4316SOL    HW213509   3.332   2.021   1.722
 4317SOL     OW13510   2.466   1.975   0.120
 4317SOL    HW113511   2.556   1.949   0.139
 4317SOL    HW213512   2.451   1.948   0.030
 4318SOL     OW13513   2.630   2.140   1.754
 4318SOL    HW113514   2.702   2.077   1.759
 4318SOL    HW213515   2.577   2.122   1.832
 4319SOL     OW13516   2.739   3.383   1.194
 4319SOL    HW113517   2.724   3.347   1.106
 4319SOL    HW213518   2.808   3.328   1.230
 4320SOL     OW13519   3.204   2.450   1.432
 4320SOL    HW113520   3.234   2.419   1.517
 4320SOL    HW213521   3.239   2.539   1.425
 4321SOL     OW13522   2.675   3.260   0.936
 4321SOL    HW113523   2.759   3.250   0.891
 4321SOL    HW213524   2.609   3.258   0.866
 4322SOL     OW13525   2.787   2.369   0.903
 4322SOL    HW113526   2.764   2.361   0.811
 4322SOL    HW213527   2.822   2.283   0.927
 4323SOL     OW13528   2.407   1.930   0.503
 4323SOL    HW113529   2.327   1.923   0.555
 4323SOL    HW213530   2.400   2.015   0.460
 4324SOL     OW13531   3.288   3.058   0.032
 4324SOL    HW113532   3.322   2.986   0.085
 4324SOL    HW213533   3.205   3.081   0.073
 4325SOL     OW13534   2.155   1.910   0.189
 4325SOL    HW113535   2.217   1.961   0.137
 4325SOL    HW213536   2.207   1.837   0.223
 4326SOL     OW13537   2.798   2.106   0.462
 4326SOL    HW113538   2.772   2.153   0.384
 4326SOL    HW213539   2.893   2.118   0.467
 4327SOL     OW13540   2.942   2.541   1.459
 4327SOL    HW113541   2.872   2.476   1.465
 4327SOL    HW213542   3.022   2.490   1.452
 4328SOL     OW13543   3.086   3.431   0.794
 4328SOL    HW113544   3.105   3.499   0.728
 4328SOL    HW213545   3.155   3.443   0.860
 4329SOL     OW13546   2.330   3.010   0.739
 4329SOL    HW113547   2.259   2.992   0.800
 4329SOL    HW213548   2.293   2.994   0.652
 4330SOL     OW13549   3.133   3.657   0.604
 4330SOL    HW113550   3.178   3.719   0.546
 4330SOL    HW213551   3.070   3.711   0.652
 4331SOL     OW13552   2.876   2.402   0.034
 4331SOL    HW113553   2.846   2.489   0.010
 4331SOL    HW213554   2.955   2.417   0.086
 4332SOL     OW13555   1.943   2.416   1.388
 4332SOL    HW113556   2.039   2.413   1.382
 4332SOL    HW213557   1.926   2.481   1.456
 4333SOL     OW13558   2.458   2.050   1.147
 4333SOL    HW113559   2.469   1.983   1.214
 4333SOL    HW213560   2.374   2.091   1.167
 4334SOL     OW13561   2.726   2.318   0.640
 4334SOL    HW113562   2.687   2.378   0.577
 4334SOL    HW213563   2.749   2.240   0.589
 4335SOL     OW13564   2.876   1.914   0.754
 4335SOL    HW113565   2.817   1.904   0.678
 4335SOL    HW213566   2.856   1.838   0.809
 4336SOL     OW13567   3.298   3.026   0.858
 4336SOL    HW113568   3.230   2.958   0.856
 4336SOL    HW213569   3.321   3.040   0.766
 4337SOL     OW13570   3.330   2.464   0.981
 4337SOL    HW113571   3.282   2.381   0.986
 4337SOL    HW213572   3.391   2.461   1.055
 4338SOL     OW13573   3.712   2.679   0.378
 4338SOL    HW113574   3.765   2.627   0.439
 4338SOL    HW213575   3.683   2.615   0.313
 4339SOL     OW13576   2.355   3.284   0.173
 4339SOL    HW113577   2.278   3.258   0.223
 4339SOL    HW213578   2.348   3.236   0.091
 4340SOL     OW13579   3.530   3.127   0.650
 4340SOL    HW113580   3.625   3.133   0.661
 4340SOL    HW213581   3.498   3.215   0.670
 4341SOL     OW13582   3.253   2.441   0.079
 4341SOL    HW113583   3.193   2.417   0.151
 4341SOL    HW213584   3.325   2.378   0.086
 4342SOL     OW13585   3.615   3.098   1.577
 4342SOL    HW113586   3.703   3.059   1.574
 4342SOL    HW213587   3.630   3.188   1.607
 4343SOL     OW13588   2.923   3.216   1.335
 4343SOL    HW113589   2.848   3.185   1.386
 4343SOL    HW213590   2.999   3.174   1.376
 4344SOL     OW13591   3.467   3.487   1.651
 4344SOL    HW113592   3.465   3.521   1.561
 4344SOL    HW213593   3.551   3.441   1.657
 4345SOL     OW13594   2.988   3.064   1.107
 4345SOL    HW113595   2.929   3.102   1.173
 4345SOL    HW213596   2.953   3.094   1.023
 4346SOL     OW13597   3.493   2.962   1.079
 4346SOL    HW113598   3.489   3.024   1.151
 4346SOL    HW213599   3.412   2.977   1.029
 4347SOL     OW13600   2.784   1.957   1.399
 4347SOL    HW113601   2.805   1.941   1.307
 4347SOL    HW213602   2.863   1.998   1.435
 4348SOL     OW13603   2.846   2.976   1.722
 4348SOL    HW113604   2.753   2.991   1.741
 4348SOL    HW213605   2.847   2.899   1.665
 4349SOL     OW13606   2.571   2.922   0.372
 4349SOL    HW113607   2.556   2.908   0.465
 4349SOL    HW213608   2.647   2.867   0.352
 4350SOL     OW13609   2.279   2.673   1.251
 4350SOL    HW113610   2.350   2.691   1.312
 4350SOL    HW213611   2.248   2.586   1.275
 4351SOL     OW13612   3.130   2.241   1.272
 4351SOL    HW113613   3.161   2.318   1.319
 4351SOL    HW213614   3.040   2.263   1.247
 4352SOL     OW13615   1.930   3.434   1.350
 4352SOL    HW113616   1.897   3.507   1.297
 4352SOL    HW213617   2.025   3.442   1.345
 4353SOL     OW13618   2.218   2.972   0.496
 4353SOL    HW113619   2.216   3.045   0.435
 4353SOL    HW213620   2.211   2.894   0.440
 4354SOL     OW13621   3.109   3.208   0.393
 4354SOL    HW113622   3.165   3.281   0.421
 4354SOL    HW213623   3.022   3.231   0.425
 4355SOL     OW13624   3.139   3.317   1.146
 4355SOL    HW113625   3.193   3.319   1.224
 4355SOL    HW213626   3.084   3.240   1.157
 4356SOL     OW13627   3.447   2.490   0.474
 4356SOL    HW113628   3.401   2.540   0.542
 4356SOL    HW213629   3.487   2.557   0.419
 4357SOL     OW13630   2.210   3.386   1.318
 4357SOL    HW113631   2.196   3.344   1.233
 4357SOL    HW213632   2.305   3.399   1.323
 4358SOL     OW13633   2.276   2.621   1.598
 4358SOL    HW113634   2.339   2.665   1.540
 4358SOL    HW213635   2.322   2.543   1.628
 4359SOL     OW13636   3.460   2.640   1.680
 4359SOL    HW113637   3.373   2.679   1.672
 4359SOL    HW213638   3.512   2.681   1.611
 4360SOL     OW13639   2.857   1.979   1.755
 4360SOL    HW113640   2.909   2.053   1.723
 4360SOL    HW213641   2.908   1.902   1.730
 4361SOL     OW13642   2.365   1.898   1.747
 4361SOL    HW113643   2.325   1.843   1.679
 4361SOL    HW213644   2.304   1.971   1.757
 4362SOL     OW13645   2.439   2.736   1.027
 4362SOL    HW113646   2.478   2.824   1.025
 4362SOL    HW213647   2.387   2.735   1.108
 4363SOL     OW13648   3.223   2.721   1.033
 4363SOL    HW113649   3.141   2.714   0.984
 4363SOL    HW213650   3.260   2.633   1.031
 4364SOL     OW13651   3.067   2.388   0.271
 4364SOL    HW113652   3.075   2.311   0.328
 4364SOL    HW213653   3.026   2.454   0.327
 4365SOL     OW13654   1.909   3.172   1.277
 4365SOL    HW113655   1.942   3.120   1.350
 4365SOL    HW213656   1.916   3.263   1.308
 4366SOL     OW13657   2.597   2.505   1.067
 4366SOL    HW113658   2.648   2.472   0.994
 4366SOL    HW213659   2.550   2.581   1.031
 4367SOL     OW13660   3.595   2.821   1.851
 4367SOL    HW113661   3.547   2.765   1.789
 4367SOL    HW213662   3.535   2.832   1.924
 4368SOL     OW13663   2.162   1.918   0.632
 4368SOL    HW113664   2.124   2.001   0.660
 4368SOL    HW213665   2.168   1.865   0.712
 4369SOL     OW13666   3.476   2.234   0.368
 4369SOL    HW113667   3.503   2.170   0.434
 4369SOL    HW213668   3.452   2.312   0.419
 4370SOL     OW13669   2.891   2.621   0.962
 4370SOL    HW113670   2.889   2.640   1.056
 4370SOL    HW213671   2.858   2.531   0.956
 4371SOL     OW13672   2.844   3.428   1.714
 4371SOL    HW113673   2.829   3.473   1.631
 4371SOL    HW213674   2.887   3.346   1.690
 4372SOL     OW13675   3.718   3.372   1.606
 4372SOL    HW113676   3.734   3.397   1.515
 4372SOL    HW213677   3.799   3.392   1.652
 4373SOL     OW13678   2.217   2.782   1.810
 4373SOL    HW113679   2.301   2.796   1.854
 4373SOL    HW213680   2.237   2.725   1.736
 4374SOL     OW13681   3.400   2.146   0.118
 4374SOL    HW113682   3.338   2.075   0.135
 4374SOL    HW213683   3.429   2.173   0.205
 4375SOL     OW13684   3.151   2.687   0.033
 4375SOL    HW113685   3.195   2.603   0.044
 4375SOL    HW213686   3.186   2.721  11.050
 4376SOL     OW13687   2.926   3.197   0.852
 4376SOL    HW113688   2.929   3.124   0.790
 4376SOL    HW213689   2.990   3.260   0.818
 4377SOL     OW13690   2.174   2.677   0.945
 4377SOL    HW113691   2.266   2.700   0.937
 4377SOL    HW213692   2.173   2.596   0.995
 4378SOL     OW13693   2.996   2.241   1.679
 4378SOL    HW113694   2.951   2.295   1.743
 4378SOL    HW213695   3.085   2.277   1.675
 4379SOL     OW13696   3.024   2.067   1.470
 4379SOL    HW113697   3.014   2.129   1.542
 4379SOL    HW213698   3.060   2.119   1.398
 4380SOL     OW13699   1.869   3.190   0.196
 4380SOL    HW113700   1.782   3.201   0.157
 4380SOL    HW213701   1.870   3.099   0.225
 4381SOL     OW13702   1.952   3.652   0.937
 4381SOL    HW113703   1.921   3.572   0.894
 4381SOL    HW213704   2.042   3.662   0.905
 4382SOL     OW13705   2.361   3.435   0.906
 4382SOL    HW113706   2.430   3.497   0.929
 4382SOL    HW213707   2.405   3.370   0.851
 4383SOL     OW13708   2.850   2.659   1.228
 4383SOL    HW113709   2.900   2.631   1.305
 4383SOL    HW213710   2.765   2.618   1.238
 4384SOL     OW13711   1.902   2.423   1.116
 4384SOL    HW113712   1.954   2.355   1.074
 4384SOL    HW213713   1.920   2.412   1.210
 4385SOL     OW13714   3.237   2.804   1.659
 4385SOL    HW113715   3.258   2.897   1.659
 4385SOL    HW213716   3.236   2.779   1.567
 4386SOL     OW13717   2.675   2.433   0.362
 4386SOL    HW113718   2.683   2.361   0.300
 4386SOL    HW213719   2.601   2.485   0.330
 4387SOL     OW13720   3.505   2.463   1.189
 4387SOL    HW113721   3.493   2.403   1.263
 4387SOL    HW213722   3.592   2.442   1.155
 4388SOL     OW13723   2.110   3.415   1.731
 4388SOL    HW113724   2.084   3.478   1.798
 4388SOL    HW213725   2.107   3.330   1.775
 4389SOL     OW13726   2.572   2.317   1.256
 4389SOL    HW113727   2.526   2.242   1.218
 4389SOL    HW213728   2.572   2.384   1.188
 4390SOL     OW13729   2.792   3.541   1.466
 4390SOL    HW113730   2.766   3.510   1.379
 4390SOL    HW213731   2.791   3.636   1.459
 4391SOL     OW13732   2.011   3.002   1.472
 4391SOL    HW113733   2.014   2.947   1.551
 4391SOL    HW213734   2.027   2.941   1.400
 4392SOL     OW13735   3.191   2.911   1.225
 4392SOL    HW113736   3.216   2.849   1.157
 4392SOL    HW213737   3.118   2.960   1.187
 4393SOL     OW13738   3.169   2.714   0.310
 4393SOL    HW113739   3.091   2.685   0.356
 4393SOL    HW213740   3.148   2.702   0.217
 4394SOL     OW13741   3.630   3.609   1.149
 4394SOL    HW113742   3.690   3.635   1.078
 4394SOL    HW213743   3.607   3.519   1.128
 4395SOL     OW13744   3.104   3.595   1.117
 4395SOL    HW113745   3.185   3.613   1.070
 4395SOL    HW213746   3.107   3.501   1.134
 4396SOL     OW13747   1.945   3.128   1.014
 4396SOL    HW113748   1.932   3.139   1.108
 4396SOL    HW213749   1.870   3.075   0.985
 4397SOL     OW13750   2.540   3.526   1.724
 4397SOL    HW113751   2.488   3.606   1.722
 4397SOL    HW213752   2.602   3.535   1.652
 4398SOL     OW13753   2.779   1.954   0.113
 4398SOL    HW113754   2.829   1.920   0.039
 4398SOL    HW213755   2.815   1.910   0.190
 4399SOL     OW13756   3.580   2.004   0.512
 4399SOL    HW113757   3.654   1.991   0.453
 4399SOL    HW213758   3.565   1.919   0.552
 4400SOL     OW13759   3.251   3.430   0.483
 4400SOL    HW113760   3.313   3.460   0.416
 4400SOL    HW213761   3.206   3.509   0.511
 4401SOL     OW13762   1.997   3.658   1.843
 4401SOL    HW113763   1.946   3.594   1.892
 4401SOL    HW213764   2.045   3.707   1.910
 4402SOL     OW13765   3.139   2.786   0.671
 4402SOL    HW113766   3.213   2.724   0.675
 4402SOL    HW213767   3.172   2.859   0.619
 4403SOL     OW13768   2.681   3.134   1.431
 4403SOL    HW113769   2.655   3.173   1.515
 4403SOL    HW213770   2.610   3.156   1.371
 4404SOL     OW13771   2.537   3.480   0.165
 4404SOL    HW113772   2.544   3.490   0.070
 4404SOL    HW213773   2.480   3.404   0.177
 4405SOL     OW13774   3.495   3.588   1.392
 4405SOL    HW113775   3.542   3.596   1.309
 4405SOL    HW213776   3.481   3.679   1.421
 4406SOL     OW13777   3.701   2.035   0.968
 4406SOL    HW113778   3.731   1.949   0.938
 4406SOL    HW213779   3.615   2.046   0.928
 4407SOL     OW13780   3.083   3.466   0.050
 4407SOL    HW113781   3.071   3.373   0.071
 4407SOL    HW213782   3.016   3.485  11.084
 4408SOL     OW13783   2.685   2.868   1.372
 4408SOL    HW113784   2.730   2.863   1.288
 4408SOL    HW213785   2.688   2.961   1.395
 4409SOL     OW13786   2.776   2.770   0.282
 4409SOL    HW113787   2.844   2.808   0.226
 4409SOL    HW213788   2.823   2.703   0.333
 4410SOL     OW13789   3.362   3.484   0.046
 4410SOL    HW113790   3.266   3.481   0.041
 4410SOL    HW213791   3.390   3.497  11.055
 4411SOL     OW13792   2.232   3.163   1.491
 4411SOL    HW113793   2.218   3.241   1.438
 4411SOL    HW213794   2.155   3.108   1.475
 4412SOL     OW13795   3.474   3.145   1.281
 4412SOL    HW113796   3.533   3.138   1.356
 4412SOL    HW213797   3.413   3.215   1.305
 4413SOL     OW13798   2.910   2.967   0.705
 4413SOL    HW113799   2.840   2.916   0.745
 4413SOL    HW213800   2.971   2.902   0.671
 4414SOL     OW13801   2.882   2.102   0.965
 4414SOL    HW113802   2.877   2.053   0.883
 4414SOL    HW213803   2.876   2.035   1.033
 4415SOL     OW13804   2.464   3.353   0.483
 4415SOL    HW113805   2.501   3.300   0.412
 4415SOL    HW213806   2.396   3.406   0.440
 4416SOL     OW13807   3.581   2.254   1.380
 4416SOL    HW113808   3.653   2.317   1.378
 4416SOL    HW213809   3.611   2.182   1.324
 4417SOL     OW13810   2.126   3.202   0.290
 4417SOL    HW113811   2.037   3.204   0.254
 4417SOL    HW213812   2.118   3.242   0.376
 4418SOL     OW13813   1.974   2.879   1.719
 4418SOL    HW113814   1.897   2.857   1.772
 4418SOL    HW213815   2.048   2.844   1.769
 4419SOL     OW13816   2.542   2.046   1.496
 4419SOL    HW113817   2.628   2.030   1.459
 4419SOL    HW213818   2.560   2.084   1.582
 4420SOL     OW13819   1.927   2.213   0.067
 4420SOL    HW113820   1.861   2.186   0.003
 4420SOL    HW213821   1.995   2.256   0.014
 4421SOL     OW13822   3.294   2.721   1.402
 4421SOL    HW113823   3.245   2.780   1.345
 4421SOL    HW213824   3.384   2.723   1.369
 4422SOL     OW13825   1.936   2.022   0.313
 4422SOL    HW113826   1.915   2.097   0.258
 4422SOL    HW213827   2.015   1.985   0.273
 4423SOL     OW13828   3.043   3.205   0.121
 4423SOL    HW113829   2.950   3.181   0.118
 4423SOL    HW213830   3.066   3.198   0.214
 4424SOL     OW13831   2.482   2.694   1.429
 4424SOL    HW113832   2.536   2.772   1.416
 4424SOL    HW213833   2.544   2.622   1.438
 4425SOL     OW13834   3.347   3.636   0.975
 4425SOL    HW113835   3.373   3.693   0.903
 4425SOL    HW213836   3.428   3.620   1.024
 4426SOL     OW13837   2.580   2.426   1.705
 4426SOL    HW113838   2.615   2.491   1.766
 4426SOL    HW213839   2.614   2.342   1.736
 4427SOL     OW13840   3.330   3.066   1.633
 4427SOL    HW113841   3.319   3.078   1.727
 4427SOL    HW213842   3.424   3.077   1.619
 4428SOL     OW13843   2.245   3.602   1.564
 4428SOL    HW113844   2.158   3.641   1.551
 4428SOL    HW213845   2.227   3.517   1.605
 4429SOL     OW13846   3.533   2.744   1.256
 4429SOL    HW113847   3.525   2.659   1.213
 4429SOL    HW213848   3.525   2.807   1.184
 4430SOL     OW13849   3.079   2.180   0.459
 4430SOL    HW113850   3.144   2.111   0.448
 4430SOL    HW213851   3.108   2.229   0.536
 4431SOL     OW13852   2.458   2.605   0.656
 4431SOL    HW113853   2.494   2.693   0.644
 4431SOL    HW213854   2.383   2.602   0.596
 4432SOL     OW13855   3.628   2.221   1.648
 4432SOL    HW113856   3.609   2.235   1.556
 4432SOL    HW213857   3.556   2.165   1.679
 4433SOL     OW13858   3.605   2.796   1.513
 4433SOL    HW113859   3.608   2.890   1.525
 4433SOL    HW213860   3.591   2.784   1.419
 4434SOL     OW13861   2.757   3.220   0.059
 4434SOL    HW113862   2.688   3.224   0.125
 4434SOL    HW213863   2.752   3.304   0.014
 4435SOL     OW13864   2.521   3.656   0.949
 4435SOL    HW113865   2.499   3.746   0.923
 4435SOL    HW213866   2.616   3.651   0.940
 4436SOL     OW13867   2.728   2.827   0.856
 4436SOL    HW113868   2.777   2.755   0.897
 4436SOL    HW213869   2.696   2.879   0.930
 4437SOL     OW13870   2.942   2.852   0.086
 4437SOL    HW113871   2.919   2.889   0.001
 4437SOL    HW213872   3.018   2.797   0.069
 4438SOL     OW13873   3.719   3.419   0.846
 4438SOL    HW113874   3.642   3.407   0.789
 4438SOL    HW213875   3.711   3.350   0.911
 4439SOL     OW13876   2.086   3.167   1.856
 4439SOL    HW113877   2.018   3.106   1.827
 4439SOL    HW213878   2.068   3.180   1.949
 4440SOL     OW13879   1.944   3.098   0.664
 4440SOL    HW113880   1.947   3.047   0.745
 4440SOL    HW213881   2.014   3.061   0.610
 4441SOL     OW13882   2.541   3.262   1.625
 4441SOL    HW113883   2.462   3.219   1.656
 4441SOL    HW213884   2.536   3.350   1.663
 4442SOL     OW13885   3.676   2.047   1.238
 4442SOL    HW113886   3.686   1.954   1.254
 4442SOL    HW213887   3.685   2.057   1.143
 4443SOL     OW13888   3.563   3.354   1.101
 4443SOL    HW113889   3.482   3.327   1.057
 4443SOL    HW213890   3.578   3.285   1.166
 4444SOL     OW13891   2.687   3.440   0.680
 4444SOL    HW113892   2.680   3.484   0.595
 4444SOL    HW213893   2.608   3.385   0.684
 4445SOL     OW13894   3.294   2.085   1.118
 4445SOL    HW113895   3.323   2.008   1.166
 4445SOL    HW213896   3.242   2.135   1.181
 4446SOL     OW13897   2.871   1.883   1.145
 4446SOL    HW113898   2.817   1.813   1.108
 4446SOL    HW213899   2.959   1.846   1.147
 4447SOL     OW13900   2.629   3.191   0.312
 4447SOL    HW113901   2.598   3.101   0.324
 4447SOL    HW213902   2.714   3.193   0.356
 4448SOL     OW13903   2.482   3.421   1.284
 4448SOL    HW113904   2.485   3.502   1.335
 4448SOL    HW213905   2.569   3.413   1.245
 4449SOL     OW13906   3.213   1.915   0.164
 4449SOL    HW113907   3.236   1.866   0.085
 4449SOL    HW213908   3.127   1.882   0.189
 4450SOL     OW13909   3.159   2.321   0.683
 4450SOL    HW113910   3.106   2.401   0.692
 4450SOL    HW213911   3.157   2.281   0.769
 4451SOL     OW13912   3.449   2.067   0.877
 4451SOL    HW113913   3.385   2.085   0.945
 4451SOL    HW213914   3.449   2.146   0.822
 4452SOL     OW13915   1.904   2.934   0.301
 4452SOL    HW113916   1.999   2.927   0.294
 4452SOL    HW213917   1.875   2.847   0.327
 4453SOL     OW13918   2.744   3.512   0.347
 4453SOL    HW113919   2.673   3.492   0.286
 4453SOL    HW213920   2.712   3.587   0.397
 4454SOL     OW13921   2.078   2.526   1.982
 4454SOL    HW113922   1.994   2.496   2.016
 4454SOL    HW213923   2.099   2.465   1.911
 4455SOL     OW13924   2.008   2.136   2.933
 4455SOL    HW113925   2.066   2.073   2.976
 4455SOL    HW213926   1.944   2.081   2.887
 4456SOL     OW13927   1.858   2.245   2.493
 4456SOL    HW113928   1.778   2.266   2.541
 4456SOL    HW213929   1.841   2.159   2.455
 4457SOL     OW13930   2.428   3.144   3.034
 4457SOL    HW113931   2.340   3.148   2.996
 4457SOL    HW213932   2.443   3.232   3.068
 4458SOL     OW13933   3.419   3.373   2.567
 4458SOL    HW113934   3.375   3.356   2.650
 4458SOL    HW213935   3.349   3.378   2.503
 4459SOL     OW13936   2.992   2.561   2.564
 4459SOL    HW113937   3.041   2.642   2.552
 4459SOL    HW213938   2.945   2.573   2.647
 4460SOL     OW13939   3.627   2.469   2.092
 4460SOL    HW113940   3.607   2.460   1.999
 4460SOL    HW213941   3.591   2.390   2.133
 4461SOL     OW13942   2.620   3.006   2.899
 4461SOL    HW113943   2.550   3.039   2.955
 4461SOL    HW213944   2.654   3.083   2.855
 4462SOL     OW13945   2.722   2.644   3.682
 4462SOL    HW113946   2.712   2.716   3.745
 4462SOL    HW213947   2.748   2.687   3.601
 4463SOL     OW13948   2.548   2.868   2.512
 4463SOL    HW113949   2.613   2.854   2.581
 4463SOL    HW213950   2.479   2.920   2.553
 4464SOL     OW13951   2.569   3.014   3.671
 4464SOL    HW113952   2.617   3.093   3.695
 4464SOL    HW213953   2.485   3.046   3.638
 4465SOL     OW13954   2.193   3.291   2.930
 4465SOL    HW113955   2.121   3.255   2.879
 4465SOL    HW213956   2.244   3.341   2.867
 4466SOL     OW13957   3.323   3.360   3.212
 4466SOL    HW113958   3.367   3.445   3.222
 4466SOL    HW213959   3.270   3.351   3.291
 4467SOL     OW13960   3.475   2.312   2.601
 4467SOL    HW113961   3.398   2.337   2.549
 4467SOL    HW213962   3.495   2.389   2.654
 4468SOL     OW13963   2.082   3.575   2.337
 4468SOL    HW113964   2.106   3.652   2.389
 4468SOL    HW213965   2.151   3.568   2.271
 4469SOL     OW13966   2.997   3.203   3.553
 4469SOL    HW113967   3.038   3.199   3.640
 4469SOL    HW213968   2.945   3.123   3.548
 4470SOL     OW13969   2.092   3.301   2.397
 4470SOL    HW113970   2.075   3.396   2.402
 4470SOL    HW213971   2.029   3.262   2.458
 4471SOL     OW13972   2.117   2.954   2.752
 4471SOL    HW113973   2.112   2.868   2.792
 4471SOL    HW213974   2.057   3.008   2.804
 4472SOL     OW13975   2.477   3.652   3.294
 4472SOL    HW113976   2.394   3.635   3.338
 4472SOL    HW213977   2.500   3.742   3.318
 4473SOL     OW13978   2.452   2.840   1.990
 4473SOL    HW113979   2.494   2.895   1.924
 4473SOL    HW213980   2.492   2.867   2.073
 4474SOL     OW13981   3.458   1.983   3.332
 4474SOL    HW113982   3.455   2.062   3.278
 4474SOL    HW213983   3.447   2.014   3.421
 4475SOL     OW13984   1.970   2.506   2.421
 4475SOL    HW113985   1.942   2.418   2.445
 4475SOL    HW213986   1.966   2.555   2.503
 4476SOL     OW13987   3.703   3.623   2.199
 4476SOL    HW113988   3.763   3.594   2.268
 4476SOL    HW213989   3.730   3.713   2.181
 4477SOL     OW13990   1.892   3.458   1.986
 4477SOL    HW113991   1.874   3.366   2.006
 4477SOL    HW213992   1.867   3.505   2.066
 4478SOL     OW13993   3.552   2.781   2.500
 4478SOL    HW113994   3.637   2.742   2.482
 4478SOL    HW213995   3.532   2.831   2.420
 4479SOL     OW13996   3.507   2.970   2.292
 4479SOL    HW113997   3.592   2.979   2.249
 4479SOL    HW213998   3.512   3.030   2.366
 4480SOL     OW13999   1.983   2.597   3.446
 4480SOL    HW114000   2.071   2.612   3.481
 4480SOL    HW214001   1.939   2.681   3.458
 4481SOL     OW14002   2.474   3.244   2.597
 4481SOL    HW114003   2.428   3.161   2.606
 4481SOL    HW214004   2.458   3.271   2.507
 4482SOL     OW14005   3.152   3.101   3.287
 4482SOL    HW114006   3.185   3.033   3.227
 4482SOL    HW214007   3.208   3.093   3.364
 4483SOL     OW14008   2.669   1.861   2.365
 4483SOL    HW114009   2.711   1.945   2.351
 4483SOL    HW214010   2.576   1.882   2.376
 4484SOL     OW14011   2.053   2.831   3.131
 4484SOL    HW114012   2.137   2.789   3.110
 4484SOL    HW214013   1.987   2.775   3.090
 4485SOL     OW14014   3.394   2.853   2.058
 4485SOL    HW114015   3.324   2.795   2.088
 4485SOL    HW214016   3.433   2.887   2.139
 4486SOL     OW14017   3.047   3.665   3.482
 4486SOL    HW114018   3.062   3.723   3.407
 4486SOL    HW214019   3.062   3.577   3.448
 4487SOL     OW14020   3.327   3.282   2.815
 4487SOL    HW114021   3.259   3.296   2.881
 4487SOL    HW214022   3.316   3.191   2.788
 4488SOL     OW14023   3.524   3.595   2.440
 4488SOL    HW114024   3.500   3.567   2.351
 4488SOL    HW214025   3.497   3.521   2.495
 4489SOL     OW14026   2.463   2.588   2.132
 4489SOL    HW114027   2.478   2.655   2.065
 4489SOL    HW214028   2.380   2.614   2.173
 4490SOL     OW14029   3.143   2.210   2.794
 4490SOL    HW114030   3.053   2.177   2.802
 4490SOL    HW214031   3.192   2.157   2.857
 4491SOL     OW14032   3.444   3.530   2.171
 4491SOL    HW114033   3.532   3.565   2.165
 4491SOL    HW214034   3.419   3.513   2.080
 4492SOL     OW14035   2.650   2.470   3.311
 4492SOL    HW114036   2.632   2.459   3.404
 4492SOL    HW214037   2.601   2.400   3.269
 4493SOL     OW14038   3.256   2.335   3.540
 4493SOL    HW114039   3.257   2.380   3.625
 4493SOL    HW214040   3.319   2.264   3.549
 4494SOL     OW14041   2.819   2.750   3.442
 4494SOL    HW114042   2.874   2.680   3.408
 4494SOL    HW214043   2.773   2.784   3.366
 4495SOL     OW14044   2.860   2.271   3.101
 4495SOL    HW114045   2.780   2.307   3.138
 4495SOL    HW214046   2.832   2.230   3.019
 4496SOL     OW14047   2.910   2.560   2.289
 4496SOL    HW114048   2.926   2.554   2.383
 4496SOL    HW214049   2.828   2.513   2.275
 4497SOL     OW14050   1.951   2.683   2.636
 4497SOL    HW114051   2.033   2.677   2.686
 4497SOL    HW214052   1.907   2.760   2.672
 4498SOL     OW14053   1.990   3.700   3.437
 4498SOL    HW114054   1.988   3.682   3.531
 4498SOL    HW214055   1.898   3.706   3.412
 4499SOL     OW14056   2.751   2.210   2.059
 4499SOL    HW114057   2.794   2.268   1.997
 4499SOL    HW214058   2.758   2.123   2.019
 4500SOL     OW14059   3.573   2.440   3.690
 4500SOL    HW114060   3.536   2.515   3.645
 4500SOL    HW214061   3.597   2.379   3.620
 4501SOL     OW14062   3.237   3.005   2.404
 4501SOL    HW114063   3.315   2.990   2.351
 4501SOL    HW214064   3.185   3.067   2.353
 4502SOL     OW14065   2.438   2.033   2.735
 4502SOL    HW114066   2.440   2.046   2.830
 4502SOL    HW214067   2.438   2.121   2.699
 4503SOL     OW14068   2.871   3.308   2.336
 4503SOL    HW114069   2.830   3.379   2.287
 4503SOL    HW214070   2.857   3.331   2.428
 4504SOL     OW14071   2.216   3.668   2.720
 4504SOL    HW114072   2.260   3.584   2.729
 4504SOL    HW214073   2.285   3.733   2.736
 4505SOL     OW14074   3.659   2.923   2.729
 4505SOL    HW114075   3.603   2.906   2.654
 4505SOL    HW214076   3.599   2.927   2.804
 4506SOL     OW14077   3.090   3.402   3.375
 4506SOL    HW114078   3.076   3.328   3.434
 4506SOL    HW214079   3.030   3.385   3.302
 4507SOL     OW14080   2.190   2.805   2.115
 4507SOL    HW114081   2.265   2.831   2.062
 4507SOL    HW214082   2.149   2.733   2.067
 4508SOL     OW14083   3.337   2.601   2.590
 4508SOL    HW114084   3.326   2.555   2.673
 4508SOL    HW214085   3.414   2.656   2.603
 4509SOL     OW14086   2.326   3.125   3.599
 4509SOL    HW114087   2.298   3.130   3.508
 4509SOL    HW214088   2.245   3.124   3.649
 4510SOL     OW14089   2.982   3.639   2.094
 4510SOL    HW114090   2.911   3.596   2.141
 4510SOL    HW214091   3.004   3.580   2.022
 4511SOL     OW14092   1.978   2.091   3.358
 4511SOL    HW114093   1.952   2.183   3.361
 4511SOL    HW214094   2.011   2.072   3.446
 4512SOL     OW14095   3.492   3.241   1.949
 4512SOL    HW114096   3.451   3.326   1.934
 4512SOL    HW214097   3.422   3.177   1.930
 4513SOL     OW14098   2.329   3.600   2.183
 4513SOL    HW114099   2.369   3.657   2.249
 4513SOL    HW214100   2.402   3.573   2.128
 4514SOL     OW14101   3.263   1.970   2.292
 4514SOL    HW114102   3.251   1.945   2.200
 4514SOL    HW214103   3.358   1.977   2.303
 4515SOL     OW14104   2.116   3.654   3.095
 4515SOL    HW114105   2.169   3.589   3.143
 4515SOL    HW214106   2.105   3.617   3.008
 4516SOL     OW14107   2.800   3.560   2.763
 4516SOL    HW114108   2.878   3.507   2.782
 4516SOL    HW214109   2.754   3.511   2.694
 4517SOL     OW14110   3.400   2.088   3.588
 4517SOL    HW114111   3.408   2.109   3.681
 4517SOL    HW214112   3.333   2.020   3.584
 4518SOL     OW14113   2.498   1.997   1.964
 4518SOL    HW114114   2.564   1.933   1.992
 4518SOL    HW214115   2.450   1.953   1.894
 4519SOL     OW14116   2.632   2.139   3.616
 4519SOL    HW114117   2.704   2.077   3.620
 4519SOL    HW214118   2.580   2.120   3.694
 4520SOL     OW14119   2.738   3.382   3.056
 4520SOL    HW114120   2.724   3.347   2.968
 4520SOL    HW214121   2.808   3.328   3.092
 4521SOL     OW14122   3.202   2.452   3.295
 4521SOL    HW114123   3.234   2.419   3.379
 4521SOL    HW214124   3.240   2.539   3.287
 4522SOL     OW14125   2.675   3.260   2.798
 4522SOL    HW114126   2.759   3.250   2.753
 4522SOL    HW214127   2.610   3.258   2.728
 4523SOL     OW14128   2.798   2.370   2.772
 4523SOL    HW114129   2.760   2.366   2.684
 4523SOL    HW214130   2.827   2.280   2.789
 4524SOL     OW14131   2.398   1.933   2.365
 4524SOL    HW114132   2.348   1.941   2.447
 4524SOL    HW214133   2.388   2.019   2.323
 4525SOL     OW14134   3.291   3.060   1.903
 4525SOL    HW114135   3.322   2.984   1.953
 4525SOL    HW214136   3.205   3.079   1.940
 4526SOL     OW14137   2.796   2.105   2.324
 4526SOL    HW114138   2.771   2.148   2.242
 4526SOL    HW214139   2.891   2.116   2.329
 4527SOL     OW14140   2.940   2.540   3.321
 4527SOL    HW114141   2.874   2.472   3.328
 4527SOL    HW214142   3.023   2.493   3.314
 4528SOL     OW14143   3.086   3.432   2.656
 4528SOL    HW114144   3.105   3.499   2.590
 4528SOL    HW214145   3.155   3.443   2.722
 4529SOL     OW14146   2.329   3.009   2.598
 4529SOL    HW114147   2.258   2.993   2.660
 4529SOL    HW214148   2.291   2.992   2.512
 4530SOL     OW14149   3.133   3.657   2.467
 4530SOL    HW114150   3.177   3.718   2.408
 4530SOL    HW214151   3.069   3.711   2.514
 4531SOL     OW14152   2.888   2.408   1.881
 4531SOL    HW114153   2.846   2.491   1.861
 4531SOL    HW214154   2.952   2.428   1.949
 4532SOL     OW14155   1.936   2.421   3.249
 4532SOL    HW114156   2.030   2.413   3.236
 4532SOL    HW214157   1.926   2.485   3.319
 4533SOL     OW14158   2.434   2.034   3.006
 4533SOL    HW114159   2.458   1.976   3.079
 4533SOL    HW214160   2.356   2.080   3.036
 4534SOL     OW14161   2.738   2.320   2.500
 4534SOL    HW114162   2.689   2.375   2.440
 4534SOL    HW214163   2.754   2.239   2.451
 4535SOL     OW14164   2.878   1.914   2.615
 4535SOL    HW114165   2.817   1.906   2.541
 4535SOL    HW214166   2.857   1.838   2.671
 4536SOL     OW14167   3.297   3.026   2.720
 4536SOL    HW114168   3.231   2.957   2.718
 4536SOL    HW214169   3.320   3.039   2.628
 4537SOL     OW14170   3.330   2.464   2.843
 4537SOL    HW114171   3.282   2.381   2.847
 4537SOL    HW214172   3.391   2.460   2.917
 4538SOL     OW14173   3.710   2.681   2.243
 4538SOL    HW114174   3.765   2.628   2.301
 4538SOL    HW214175   3.680   2.619   2.176
 4539SOL     OW14176   2.354   3.276   2.023
 4539SOL    HW114177   2.279   3.246   2.075
 4539SOL    HW214178   2.334   3.249   1.934
 4540SOL     OW14179   3.530   3.127   2.510
 4540SOL    HW114180   3.625   3.132   2.523
 4540SOL    HW214181   3.498   3.215   2.532
 4541SOL     OW14182   3.255   2.434   1.933
 4541SOL    HW114183   3.196   2.415   2.006
 4541SOL    HW214184   3.340   2.400   1.963
 4542SOL     OW14185   3.615   3.098   3.439
 4542SOL    HW114186   3.703   3.059   3.436
 4542SOL    HW214187   3.630   3.188   3.469
 4543SOL     OW14188   2.923   3.216   3.197
 4543SOL    HW114189   2.848   3.185   3.248
 4543SOL    HW214190   2.999   3.174   3.238
 4544SOL     OW14191   3.467   3.487   3.513
 4544SOL    HW114192   3.465   3.521   3.423
 4544SOL    HW214193   3.551   3.441   3.519
 4545SOL     OW14194   2.987   3.064   2.969
 4545SOL    HW114195   2.929   3.102   3.035
 4545SOL    HW214196   2.953   3.094   2.885
 4546SOL     OW14197   3.493   2.962   2.941
 4546SOL    HW114198   3.489   3.024   3.013
 4546SOL    HW214199   3.412   2.977   2.892
 4547SOL     OW14200   2.783   1.960   3.262
 4547SOL    HW114201   2.803   1.941   3.170
 4547SOL    HW214202   2.863   1.999   3.297
 4548SOL     OW14203   2.846   2.976   3.584
 4548SOL    HW114204   2.753   2.991   3.602
 4548SOL    HW214205   2.847   2.899   3.527
 4549SOL     OW14206   2.570   2.922   2.234
 4549SOL    HW114207   2.557   2.908   2.328
 4549SOL    HW214208   2.646   2.868   2.211
 4550SOL     OW14209   2.280   2.674   3.112
 4550SOL    HW114210   2.351   2.692   3.174
 4550SOL    HW214211   2.240   2.594   3.144
 4551SOL     OW14212   3.132   2.240   3.135
 4551SOL    HW114213   3.162   2.318   3.181
 4551SOL    HW214214   3.042   2.260   3.108
 4552SOL     OW14215   1.930   3.434   3.211
 4552SOL    HW114216   1.897   3.507   3.159
 4552SOL    HW214217   2.025   3.442   3.207
 4553SOL     OW14218   2.218   2.966   2.352
 4553SOL    HW114219   2.220   3.044   2.296
 4553SOL    HW214220   2.213   2.893   2.290
 4554SOL     OW14221   2.515   2.428   2.706
 4554SOL    HW114222   2.484   2.483   2.633
 4554SOL    HW214223   2.479   2.470   2.784
 4555SOL     OW14224   3.110   3.210   2.251
 4555SOL    HW114225   3.165   3.282   2.282
 4555SOL    HW214226   3.023   3.230   2.285
 4556SOL     OW14227   3.139   3.317   3.008
 4556SOL    HW114228   3.194   3.320   3.086
 4556SOL    HW214229   3.084   3.240   3.019
 4557SOL     OW14230   3.445   2.488   2.338
 4557SOL    HW114231   3.401   2.543   2.402
 4557SOL    HW214232   3.490   2.549   2.280
 4558SOL     OW14233   2.210   3.386   3.180
 4558SOL    HW114234   2.197   3.344   3.095
 4558SOL    HW214235   2.305   3.399   3.186
 4559SOL     OW14236   2.278   2.609   3.462
 4559SOL    HW114237   2.340   2.657   3.407
 4559SOL    HW214238   2.319   2.523   3.473
 4560SOL     OW14239   3.460   2.640   3.542
 4560SOL    HW114240   3.373   2.680   3.533
 4560SOL    HW214241   3.512   2.681   3.473
 4561SOL     OW14242   2.858   1.980   3.617
 4561SOL    HW114243   2.911   2.053   3.584
 4561SOL    HW214244   2.907   1.901   3.592
 4562SOL     OW14245   2.361   1.906   3.608
 4562SOL    HW114246   2.323   1.848   3.541
 4562SOL    HW214247   2.294   1.974   3.620
 4563SOL     OW14248   2.440   2.731   2.888
 4563SOL    HW114249   2.478   2.819   2.884
 4563SOL    HW214250   2.388   2.732   2.969
 4564SOL     OW14251   3.222   2.721   2.896
 4564SOL    HW114252   3.141   2.714   2.846
 4564SOL    HW214253   3.260   2.633   2.893
 4565SOL     OW14254   3.069   2.391   2.131
 4565SOL    HW114255   3.077   2.312   2.185
 4565SOL    HW214256   3.027   2.455   2.189
 4566SOL     OW14257   1.909   3.172   3.139
 4566SOL    HW114258   1.942   3.120   3.212
 4566SOL    HW214259   1.916   3.263   3.170
 4567SOL     OW14260   2.614   2.515   2.956
 4567SOL    HW114261   2.652   2.468   2.881
 4567SOL    HW214262   2.571   2.591   2.917
 4568SOL     OW14263   3.595   2.821   3.713
 4568SOL    HW114264   3.547   2.765   3.651
 4568SOL    HW214265   3.535   2.832   3.786
 4569SOL     OW14266   3.476   2.234   2.231
 4569SOL    HW114267   3.502   2.171   2.298
 4569SOL    HW214268   3.452   2.313   2.281
 4570SOL     OW14269   2.890   2.623   2.824
 4570SOL    HW114270   2.889   2.641   2.918
 4570SOL    HW214271   2.860   2.533   2.816
 4571SOL     OW14272   2.844   3.428   3.576
 4571SOL    HW114273   2.829   3.473   3.493
 4571SOL    HW214274   2.887   3.346   3.552
 4572SOL     OW14275   3.718   3.372   3.468
 4572SOL    HW114276   3.734   3.397   3.377
 4572SOL    HW214277   3.799   3.392   3.514
 4573SOL     OW14278   2.217   2.780   3.668
 4573SOL    HW114279   2.299   2.796   3.714
 4573SOL    HW214280   2.240   2.719   3.598
 4574SOL     OW14281   3.393   2.136   1.989
 4574SOL    HW114282   3.329   2.070   2.016
 4574SOL    HW214283   3.425   2.172   2.072
 4575SOL     OW14284   3.156   2.689   1.895
 4575SOL    HW114285   3.199   2.603   1.898
 4575SOL    HW214286   3.187   2.728   1.813
 4576SOL     OW14287   2.926   3.197   2.714
 4576SOL    HW114288   2.930   3.124   2.653
 4576SOL    HW214289   2.990   3.260   2.680
 4577SOL     OW14290   2.172   2.679   2.807
 4577SOL    HW114291   2.266   2.699   2.804
 4577SOL    HW214292   2.167   2.595   2.853
 4578SOL     OW14293   2.996   2.242   3.540
 4578SOL    HW114294   2.951   2.296   3.606
 4578SOL    HW214295   3.085   2.277   3.537
 4579SOL     OW14296   3.023   2.067   3.332
 4579SOL    HW114297   3.014   2.130   3.403
 4579SOL    HW214298   3.060   2.118   3.260
 4580SOL     OW14299   1.867   3.184   2.057
 4580SOL    HW114300   1.780   3.198   2.019
 4580SOL    HW214301   1.865   3.094   2.090
 4581SOL     OW14302   1.952   3.651   2.798
 4581SOL    HW114303   1.921   3.571   2.756
 4581SOL    HW214304   2.042   3.662   2.767
 4582SOL     OW14305   2.361   3.435   2.768
 4582SOL    HW114306   2.430   3.497   2.791
 4582SOL    HW214307   2.406   3.370   2.714
 4583SOL     OW14308   2.850   2.661   3.091
 4583SOL    HW114309   2.898   2.631   3.168
 4583SOL    HW214310   2.766   2.615   3.094
 4584SOL     OW14311   1.913   2.413   2.974
 4584SOL    HW114312   1.953   2.332   2.941
 4584SOL    HW214313   1.922   2.407   3.069
 4585SOL     OW14314   3.237   2.804   3.521
 4585SOL    HW114315   3.258   2.897   3.521
 4585SOL    HW214316   3.236   2.779   3.429
 4586SOL     OW14317   2.674   2.429   2.219
 4586SOL    HW114318   2.681   2.357   2.157
 4586SOL    HW214319   2.602   2.482   2.187
 4587SOL     OW14320   3.505   2.463   3.052
 4587SOL    HW114321   3.494   2.403   3.125
 4587SOL    HW214322   3.592   2.443   3.017
 4588SOL     OW14323   2.110   3.415   3.593
 4588SOL    HW114324   2.084   3.478   3.659
 4588SOL    HW214325   2.107   3.330   3.637
 4589SOL     OW14326   2.792   3.541   3.328
 4589SOL    HW114327   2.766   3.510   3.241
 4589SOL    HW214328   2.791   3.636   3.321
 4590SOL     OW14329   2.011   3.002   3.334
 4590SOL    HW114330   2.014   2.947   3.413
 4590SOL    HW214331   2.026   2.940   3.262
 4591SOL     OW14332   3.191   2.911   3.087
 4591SOL    HW114333   3.215   2.848   3.019
 4591SOL    HW214334   3.118   2.960   3.049
 4592SOL     OW14335   3.170   2.719   2.169
 4592SOL    HW114336   3.094   2.688   2.218
 4592SOL    HW214337   3.148   2.705   2.077
 4593SOL     OW14338   3.630   3.609   3.011
 4593SOL    HW114339   3.690   3.635   2.941
 4593SOL    HW214340   3.607   3.519   2.990
 4594SOL     OW14341   3.104   3.595   2.979
 4594SOL    HW114342   3.185   3.613   2.932
 4594SOL    HW214343   3.107   3.501   2.996
 4595SOL     OW14344   1.945   3.128   2.876
 4595SOL    HW114345   1.932   3.139   2.970
 4595SOL    HW214346   1.870   3.075   2.847
 4596SOL     OW14347   2.539   3.526   3.586
 4596SOL    HW114348   2.488   3.606   3.584
 4596SOL    HW214349   2.602   3.535   3.515
 4597SOL     OW14350   3.580   2.004   2.374
 4597SOL    HW114351   3.654   1.990   2.315
 4597SOL    HW214352   3.565   1.919   2.414
 4598SOL     OW14353   3.252   3.430   2.345
 4598SOL    HW114354   3.313   3.460   2.277
 4598SOL    HW214355   3.205   3.508   2.372
 4599SOL     OW14356   1.997   3.658   3.705
 4599SOL    HW114357   1.946   3.594   3.754
 4599SOL    HW214358   2.046   3.707   3.772
 4600SOL     OW14359   3.139   2.787   2.534
 4600SOL    HW114360   3.212   2.725   2.538
 4600SOL    HW214361   3.173   2.860   2.481
 4601SOL     OW14362   2.681   3.134   3.293
 4601SOL    HW114363   2.654   3.173   3.377
 4601SOL    HW214364   2.610   3.157   3.233
 4602SOL     OW14365   2.534   3.479   2.017
 4602SOL    HW114366   2.543   3.489   1.923
 4602SOL    HW214367   2.481   3.400   2.028
 4603SOL     OW14368   3.495   3.588   3.254
 4603SOL    HW114369   3.542   3.596   3.171
 4603SOL    HW214370   3.481   3.679   3.283
 4604SOL     OW14371   3.702   2.035   2.830
 4604SOL    HW114372   3.731   1.949   2.800
 4604SOL    HW214373   3.615   2.046   2.790
 4605SOL     OW14374   3.067   3.470   1.893
 4605SOL    HW114375   3.060   3.379   1.920
 4605SOL    HW214376   3.003   3.480   1.823
 4606SOL     OW14377   2.685   2.868   3.234
 4606SOL    HW114378   2.731   2.862   3.151
 4606SOL    HW214379   2.688   2.961   3.256
 4607SOL     OW14380   2.777   2.772   2.151
 4607SOL    HW114381   2.839   2.804   2.086
 4607SOL    HW214382   2.824   2.701   2.196
 4608SOL     OW14383   3.357   3.486   1.904
 4608SOL    HW114384   3.262   3.483   1.893
 4608SOL    HW214385   3.392   3.492   1.815
 4609SOL     OW14386   2.232   3.162   3.353
 4609SOL    HW114387   2.218   3.241   3.300
 4609SOL    HW214388   2.155   3.108   3.337
 4610SOL     OW14389   3.474   3.145   3.143
 4610SOL    HW114390   3.533   3.138   3.218
 4610SOL    HW214391   3.413   3.215   3.167
 4611SOL     OW14392   2.909   2.967   2.567
 4611SOL    HW114393   2.840   2.915   2.607
 4611SOL    HW214394   2.971   2.902   2.533
 4612SOL     OW14395   2.883   2.101   2.828
 4612SOL    HW114396   2.876   2.054   2.745
 4612SOL    HW214397   2.876   2.033   2.896
 4613SOL     OW14398   2.463   3.351   2.345
 4613SOL    HW114399   2.504   3.300   2.274
 4613SOL    HW214400   2.397   3.404   2.301
 4614SOL     OW14401   3.581   2.254   3.242
 4614SOL    HW114402   3.653   2.317   3.240
 4614SOL    HW214403   3.611   2.182   3.186
 4615SOL     OW14404   2.120   3.208   2.149
 4615SOL    HW114405   2.027   3.207   2.127
 4615SOL    HW214406   2.123   3.246   2.237
 4616SOL     OW14407   1.974   2.880   3.581
 4616SOL    HW114408   1.897   2.857   3.634
 4616SOL    HW214409   2.048   2.844   3.630
 4617SOL     OW14410   2.541   2.054   3.353
 4617SOL    HW114411   2.628   2.031   3.319
 4617SOL    HW214412   2.558   2.087   3.441
 4618SOL     OW14413   1.909   2.196   1.904
 4618SOL    HW114414   1.829   2.165   1.862
 4618SOL    HW214415   1.935   2.272   1.851
 4619SOL     OW14416   3.294   2.721   3.264
 4619SOL    HW114417   3.246   2.780   3.207
 4619SOL    HW214418   3.384   2.723   3.231
 4620SOL     OW14419   1.933   2.018   2.172
 4620SOL    HW114420   1.907   2.095   2.121
 4620SOL    HW214421   2.028   2.022   2.175
 4621SOL     OW14422   3.042   3.204   1.979
 4621SOL    HW114423   2.951   3.174   1.982
 4621SOL    HW214424   3.071   3.203   2.070
 4622SOL     OW14425   2.481   2.694   3.292
 4622SOL    HW114426   2.535   2.772   3.279
 4622SOL    HW214427   2.544   2.622   3.298
 4623SOL     OW14428   3.347   3.636   2.837
 4623SOL    HW114429   3.373   3.694   2.765
 4623SOL    HW214430   3.428   3.621   2.886
 4624SOL     OW14431   2.584   2.429   3.567
 4624SOL    HW114432   2.620   2.493   3.628
 4624SOL    HW214433   2.619   2.345   3.598
 4625SOL     OW14434   3.330   3.065   3.495
 4625SOL    HW114435   3.319   3.078   3.589
 4625SOL    HW214436   3.424   3.077   3.481
 4626SOL     OW14437   2.245   3.602   3.425
 4626SOL    HW114438   2.158   3.641   3.413
 4626SOL    HW214439   2.227   3.517   3.467
 4627SOL     OW14440   3.533   2.744   3.118
 4627SOL    HW114441   3.525   2.658   3.075
 4627SOL    HW214442   3.525   2.807   3.046
 4628SOL     OW14443   3.081   2.182   2.319
 4628SOL    HW114444   3.144   2.111   2.310
 4628SOL    HW214445   3.109   2.230   2.397
 4629SOL     OW14446   2.443   2.609   2.518
 4629SOL    HW114447   2.492   2.691   2.508
 4629SOL    HW214448   2.367   2.620   2.461
 4630SOL     OW14449   3.627   2.221   3.511
 4630SOL    HW114450   3.609   2.235   3.418
 4630SOL    HW214451   3.556   2.165   3.541
 4631SOL     OW14452   3.605   2.796   3.375
 4631SOL    HW114453   3.608   2.890   3.387
 4631SOL    HW214454   3.590   2.784   3.281
 4632SOL     OW14455   2.724   3.231   1.892
 4632SOL    HW114456   2.685   3.257   1.975
 4632SOL    HW214457   2.744   3.313   1.847
 4633SOL     OW14458   2.521   3.656   2.810
 4633SOL    HW114459   2.499   3.746   2.786
 4633SOL    HW214460   2.616   3.651   2.802
 4634SOL     OW14461   2.727   2.826   2.718
 4634SOL    HW114462   2.778   2.755   2.758
 4634SOL    HW214463   2.697   2.878   2.793
 4635SOL     OW14464   2.941   2.849   1.950
 4635SOL    HW114465   2.920   2.900   1.872
 4635SOL    HW214466   3.018   2.797   1.925
 4636SOL     OW14467   3.719   3.419   2.707
 4636SOL    HW114468   3.642   3.407   2.651
 4636SOL    HW214469   3.711   3.350   2.773
 4637SOL     OW14470   2.086   3.167   3.718
 4637SOL    HW114471   2.018   3.105   3.689
 4637SOL    HW214472   2.068   3.179   3.811
 4638SOL     OW14473   1.945   3.099   2.526
 4638SOL    HW114474   1.945   3.048   2.607
 4638SOL    HW214475   2.013   3.059   2.472
 4639SOL     OW14476   2.541   3.262   3.488
 4639SOL    HW114477   2.462   3.219   3.518
 4639SOL    HW214478   2.536   3.350   3.524
 4640SOL     OW14479   3.676   2.048   3.100
 4640SOL    HW114480   3.685   1.954   3.116
 4640SOL    HW214481   3.685   2.057   3.005
 4641SOL     OW14482   3.563   3.353   2.963
 4641SOL    HW114483   3.482   3.327   2.919
 4641SOL    HW214484   3.579   3.285   3.027
 4642SOL     OW14485   2.687   3.440   2.542
 4642SOL    HW114486   2.681   3.485   2.457
 4642SOL    HW214487   2.608   3.385   2.545
 4643SOL     OW14488   3.295   2.085   2.980
 4643SOL    HW114489   3.322   2.007   3.028
 4643SOL    HW214490   3.242   2.134   3.043
 4644SOL     OW14491   2.870   1.882   3.008
 4644SOL    HW114492   2.815   1.815   2.969
 4644SOL    HW214493   2.958   1.844   3.009
 4645SOL     OW14494   2.633   3.194   2.172
 4645SOL    HW114495   2.599   3.105   2.179
 4645SOL    HW214496   2.716   3.192   2.220
 4646SOL     OW14497   2.482   3.421   3.146
 4646SOL    HW114498   2.485   3.502   3.197
 4646SOL    HW214499   2.569   3.413   3.108
 4647SOL     OW14500   3.214   1.916   2.026
 4647SOL    HW114501   3.239   1.856   1.955
 4647SOL    HW214502   3.128   1.884   2.053
 4648SOL     OW14503   3.160   2.322   2.545
 4648SOL    HW114504   3.104   2.399   2.553
 4648SOL    HW214505   3.156   2.281   2.632
 4649SOL     OW14506   3.450   2.068   2.739
 4649SOL    HW114507   3.385   2.085   2.807
 4649SOL    HW214508   3.449   2.146   2.684
 4650SOL     OW14509   1.905   2.935   2.168
 4650SOL    HW114510   1.998   2.925   2.151
 4650SOL    HW214511   1.875   2.847   2.190
 4651SOL     OW14512   2.743   3.511   2.207
 4651SOL    HW114513   2.672   3.493   2.145
 4651SOL    HW214514   2.713   3.588   2.256
 4652SOL     OW14515   2.068   2.521   3.841
 4652SOL    HW114516   1.984   2.494   3.876
 4652SOL    HW214517   2.086   2.460   3.770
 4653SOL     OW14518   1.867   2.245   4.358
 4653SOL    HW114519   1.783   2.268   4.397
 4653SOL    HW214520   1.852   2.161   4.315
 4654SOL     OW14521   2.437   3.149   4.910
 4654SOL    HW114522   2.355   3.142   4.861
 4654SOL    HW214523   2.446   3.242   4.930
 4655SOL     OW14524   3.419   3.373   4.429
 4655SOL    HW114525   3.375   3.356   4.513
 4655SOL    HW214526   3.348   3.379   4.365
 4656SOL     OW14527   2.996   2.554   4.432
 4656SOL    HW114528   3.042   2.638   4.420
 4656SOL    HW214529   2.934   2.571   4.503
 4657SOL     OW14530   3.624   2.469   3.955
 4657SOL    HW114531   3.607   2.460   3.862
 4657SOL    HW214532   3.592   2.388   3.994
 4658SOL     OW14533   2.689   2.689   5.511
 4658SOL    HW114534   2.719   2.726   5.594
 4658SOL    HW214535   2.752   2.720   5.446
 4659SOL     OW14536   2.553   2.877   4.380
 4659SOL    HW114537   2.599   2.857   4.461
 4659SOL    HW214538   2.476   2.926   4.408
 4660SOL     OW14539   2.580   3.019   5.512
 4660SOL    HW114540   2.621   3.099   5.546
 4660SOL    HW214541   2.489   3.044   5.497
 4661SOL     OW14542   2.192   3.293   4.788
 4661SOL    HW114543   2.121   3.272   4.726
 4661SOL    HW214544   2.254   3.344   4.736
 4662SOL     OW14545   3.324   3.360   5.074
 4662SOL    HW114546   3.367   3.445   5.086
 4662SOL    HW214547   3.269   3.350   5.152
 4663SOL     OW14548   3.473   2.311   4.465
 4663SOL    HW114549   3.403   2.341   4.408
 4663SOL    HW214550   3.500   2.389   4.514
 4664SOL     OW14551   2.082   3.574   4.199
 4664SOL    HW114552   2.106   3.652   4.251
 4664SOL    HW214553   2.151   3.568   4.133
 4665SOL     OW14554   2.997   3.203   5.415
 4665SOL    HW114555   3.037   3.198   5.503
 4665SOL    HW214556   2.944   3.124   5.409
 4666SOL     OW14557   2.093   3.302   4.259
 4666SOL    HW114558   2.076   3.396   4.262
 4666SOL    HW214559   2.030   3.264   4.320
 4667SOL     OW14560   2.477   3.653   5.155
 4667SOL    HW114561   2.395   3.636   5.201
 4667SOL    HW214562   2.500   3.743   5.180
 4668SOL     OW14563   2.451   2.840   3.854
 4668SOL    HW114564   2.493   2.894   3.787
 4668SOL    HW214565   2.492   2.867   3.936
 4669SOL     OW14566   3.461   1.983   5.194
 4669SOL    HW114567   3.455   2.063   5.141
 4669SOL    HW214568   3.447   2.013   5.284
 4670SOL     OW14569   1.986   2.499   4.276
 4670SOL    HW114570   1.947   2.416   4.304
 4670SOL    HW214571   1.971   2.558   4.349
 4671SOL     OW14572   3.703   3.623   4.061
 4671SOL    HW114573   3.762   3.594   4.130
 4671SOL    HW214574   3.730   3.713   4.043
 4672SOL     OW14575   1.892   3.459   3.848
 4672SOL    HW114576   1.874   3.367   3.868
 4672SOL    HW214577   1.867   3.505   3.928
 4673SOL     OW14578   3.549   2.778   4.360
 4673SOL    HW114579   3.637   2.742   4.346
 4673SOL    HW214580   3.532   2.830   4.282
 4674SOL     OW14581   3.507   2.970   4.154
 4674SOL    HW114582   3.592   2.978   4.111
 4674SOL    HW214583   3.512   3.030   4.228
 4675SOL     OW14584   2.475   3.244   4.458
 4675SOL    HW114585   2.427   3.161   4.465
 4675SOL    HW214586   2.460   3.273   4.368
 4676SOL     OW14587   3.155   3.102   5.148
 4676SOL    HW114588   3.186   3.033   5.090
 4676SOL    HW214589   3.208   3.093   5.227
 4677SOL     OW14590   2.671   1.858   4.223
 4677SOL    HW114591   2.715   1.943   4.214
 4677SOL    HW214592   2.579   1.881   4.236
 4678SOL     OW14593   3.394   2.854   3.920
 4678SOL    HW114594   3.324   2.795   3.950
 4678SOL    HW214595   3.433   2.887   4.001
 4679SOL     OW14596   3.048   3.665   5.344
 4679SOL    HW114597   3.062   3.722   5.269
 4679SOL    HW214598   3.062   3.577   5.311
 4680SOL     OW14599   3.328   3.282   4.677
 4680SOL    HW114600   3.260   3.296   4.743
 4680SOL    HW214601   3.316   3.191   4.650
 4681SOL     OW14602   3.524   3.594   4.302
 4681SOL    HW114603   3.500   3.567   4.213
 4681SOL    HW214604   3.497   3.521   4.358
 4682SOL     OW14605   2.460   2.585   3.992
 4682SOL    HW114606   2.466   2.659   3.931
 4682SOL    HW214607   2.386   2.606   4.048
 4683SOL     OW14608   3.444   3.530   4.033
 4683SOL    HW114609   3.532   3.565   4.027
 4683SOL    HW214610   3.419   3.513   3.942
 4684SOL     OW14611   3.255   2.336   5.398
 4684SOL    HW114612   3.245   2.375   5.485
 4684SOL    HW214613   3.314   2.262   5.411
 4685SOL     OW14614   2.844   2.754   5.287
 4685SOL    HW114615   2.878   2.664   5.279
 4685SOL    HW214616   2.769   2.756   5.228
 4686SOL     OW14617   2.910   2.560   4.152
 4686SOL    HW114618   2.926   2.547   4.245
 4686SOL    HW214619   2.828   2.512   4.135
 4687SOL     OW14620   1.971   2.708   4.454
 4687SOL    HW114621   2.043   2.685   4.514
 4687SOL    HW214622   1.921   2.774   4.501
 4688SOL     OW14623   1.990   3.698   5.299
 4688SOL    HW114624   1.988   3.682   5.393
 4688SOL    HW214625   1.898   3.708   5.274
 4689SOL     OW14626   2.748   2.210   3.919
 4689SOL    HW114627   2.793   2.268   3.858
 4689SOL    HW214628   2.763   2.122   3.883
 4690SOL     OW14629   3.573   2.440   5.552
 4690SOL    HW114630   3.536   2.515   5.507
 4690SOL    HW214631   3.594   2.378   5.482
 4691SOL     OW14632   3.234   3.002   4.265
 4691SOL    HW114633   3.314   2.989   4.215
 4691SOL    HW214634   3.185   3.067   4.215
 4692SOL     OW14635   2.870   3.307   4.199
 4692SOL    HW114636   2.830   3.378   4.149
 4692SOL    HW214637   2.857   3.332   4.290
 4693SOL     OW14638   2.216   3.668   4.582
 4693SOL    HW114639   2.262   3.584   4.591
 4693SOL    HW214640   2.284   3.734   4.598
 4694SOL     OW14641   3.659   2.922   4.591
 4694SOL    HW114642   3.601   2.907   4.516
 4694SOL    HW214643   3.600   2.927   4.666
 4695SOL     OW14644   3.089   3.402   5.236
 4695SOL    HW114645   3.076   3.329   5.297
 4695SOL    HW214646   3.028   3.384   5.164
 4696SOL     OW14647   2.183   2.814   3.972
 4696SOL    HW114648   2.263   2.834   3.924
 4696SOL    HW214649   2.148   2.735   3.930
 4697SOL     OW14650   3.335   2.603   4.455
 4697SOL    HW114651   3.330   2.555   4.538
 4697SOL    HW214652   3.414   2.656   4.464
 4698SOL     OW14653   2.327   3.124   5.463
 4698SOL    HW114654   2.302   3.130   5.371
 4698SOL    HW214655   2.244   3.128   5.511
 4699SOL     OW14656   2.982   3.640   3.956
 4699SOL    HW114657   2.911   3.596   4.003
 4699SOL    HW214658   3.004   3.580   3.884
 4700SOL     OW14659   3.491   3.241   3.811
 4700SOL    HW114660   3.451   3.326   3.796
 4700SOL    HW214661   3.422   3.177   3.792
 4701SOL     OW14662   2.329   3.600   4.046
 4701SOL    HW114663   2.369   3.657   4.112
 4701SOL    HW214664   2.402   3.574   3.990
 4702SOL     OW14665   3.263   1.974   4.153
 4702SOL    HW114666   3.251   1.944   4.063
 4702SOL    HW214667   3.358   1.974   4.166
 4703SOL     OW14668   2.116   3.654   4.957
 4703SOL    HW114669   2.172   3.593   5.004
 4703SOL    HW214670   2.109   3.617   4.869
 4704SOL     OW14671   2.800   3.562   4.624
 4704SOL    HW114672   2.873   3.507   4.651
 4704SOL    HW214673   2.754   3.512   4.557
 4705SOL     OW14674   2.249   2.566   4.193
 4705SOL    HW114675   2.273   2.479   4.161
 4705SOL    HW214676   2.157   2.560   4.216
 4706SOL     OW14677   3.400   2.087   5.450
 4706SOL    HW114678   3.407   2.108   5.543
 4706SOL    HW214679   3.330   2.022   5.446
 4707SOL     OW14680   2.487   1.995   3.829
 4707SOL    HW114681   2.558   1.937   3.857
 4707SOL    HW214682   2.449   1.952   3.752
 4708SOL     OW14683   2.739   3.386   4.917
 4708SOL    HW114684   2.720   3.348   4.831
 4708SOL    HW214685   2.803   3.326   4.956
 4709SOL     OW14686   3.215   2.446   5.147
 4709SOL    HW114687   3.230   2.412   5.235
 4709SOL    HW214688   3.240   2.538   5.151
 4710SOL     OW14689   2.676   3.276   4.662
 4710SOL    HW114690   2.759   3.250   4.621
 4710SOL    HW214691   2.609   3.255   4.596
 4711SOL     OW14692   2.407   1.930   4.224
 4711SOL    HW114693   2.332   1.925   4.283
 4711SOL    HW214694   2.403   2.018   4.188
 4712SOL     OW14695   3.291   3.060   3.765
 4712SOL    HW114696   3.322   2.984   3.815
 4712SOL    HW214697   3.205   3.079   3.802
 4713SOL     OW14698   2.159   1.904   3.903
 4713SOL    HW114699   2.223   1.967   3.872
 4713SOL    HW214700   2.211   1.836   3.946
 4714SOL     OW14701   2.794   2.106   4.187
 4714SOL    HW114702   2.772   2.150   4.105
 4714SOL    HW214703   2.889   2.113   4.193
 4715SOL     OW14704   3.089   3.428   4.516
 4715SOL    HW114705   3.105   3.499   4.453
 4715SOL    HW214706   3.154   3.443   4.584
 4716SOL     OW14707   2.325   3.011   4.457
 4716SOL    HW114708   2.256   2.992   4.520
 4716SOL    HW214709   2.284   2.994   4.371
 4717SOL     OW14710   3.133   3.657   4.329
 4717SOL    HW114711   3.177   3.718   4.270
 4717SOL    HW214712   3.069   3.710   4.376
 4718SOL     OW14713   2.888   2.408   3.743
 4718SOL    HW114714   2.847   2.492   3.723
 4718SOL    HW214715   2.952   2.427   3.811
 4719SOL     OW14716   2.734   2.327   4.358
 4719SOL    HW114717   2.687   2.375   4.290
 4719SOL    HW214718   2.752   2.241   4.320
 4720SOL     OW14719   2.900   1.894   4.458
 4720SOL    HW114720   2.817   1.902   4.411
 4720SOL    HW214721   2.880   1.837   4.533
 4721SOL     OW14722   3.298   3.026   4.582
 4721SOL    HW114723   3.232   2.958   4.579
 4721SOL    HW214724   3.322   3.041   4.491
 4722SOL     OW14725   3.331   2.459   4.710
 4722SOL    HW114726   3.298   2.370   4.721
 4722SOL    HW214727   3.395   2.470   4.779
 4723SOL     OW14728   3.710   2.681   4.105
 4723SOL    HW114729   3.765   2.629   4.163
 4723SOL    HW214730   3.680   2.619   4.038
 4724SOL     OW14731   2.354   3.276   3.885
 4724SOL    HW114732   2.279   3.246   3.937
 4724SOL    HW214733   2.333   3.249   3.795
 4725SOL     OW14734   3.529   3.127   4.373
 4725SOL    HW114735   3.624   3.132   4.386
 4725SOL    HW214736   3.498   3.215   4.394
 4726SOL     OW14737   3.256   2.434   3.795
 4726SOL    HW114738   3.196   2.415   3.868
 4726SOL    HW214739   3.340   2.399   3.824
 4727SOL     OW14740   3.615   3.098   5.299
 4727SOL    HW114741   3.703   3.058   5.299
 4727SOL    HW214742   3.630   3.187   5.330
 4728SOL     OW14743   2.925   3.214   5.056
 4728SOL    HW114744   2.848   3.183   5.104
 4728SOL    HW214745   2.999   3.173   5.101
 4729SOL     OW14746   3.467   3.488   5.375
 4729SOL    HW114747   3.465   3.521   5.285
 4729SOL    HW214748   3.551   3.441   5.381
 4730SOL     OW14749   2.982   3.059   4.829
 4730SOL    HW114750   2.930   3.099   4.898
 4730SOL    HW214751   2.950   3.100   4.748
 4731SOL     OW14752   3.493   2.962   4.802
 4731SOL    HW114753   3.490   3.024   4.875
 4731SOL    HW214754   3.412   2.978   4.754
 4732SOL     OW14755   2.847   2.975   5.443
 4732SOL    HW114756   2.754   2.986   5.460
 4732SOL    HW214757   2.852   2.904   5.379
 4733SOL     OW14758   2.570   2.922   4.096
 4733SOL    HW114759   2.559   2.909   4.190
 4733SOL    HW214760   2.646   2.869   4.073
 4734SOL     OW14761   1.933   3.446   5.074
 4734SOL    HW114762   1.902   3.521   5.022
 4734SOL    HW214763   2.028   3.453   5.071
 4735SOL     OW14764   2.213   2.966   4.216
 4735SOL    HW114765   2.217   3.040   4.156
 4735SOL    HW214766   2.212   2.889   4.159
 4736SOL     OW14767   3.109   3.210   4.114
 4736SOL    HW114768   3.165   3.282   4.144
 4736SOL    HW214769   3.022   3.231   4.148
 4737SOL     OW14770   3.140   3.317   4.870
 4737SOL    HW114771   3.195   3.321   4.948
 4737SOL    HW214772   3.079   3.244   4.887
 4738SOL     OW14773   3.445   2.488   4.203
 4738SOL    HW114774   3.402   2.548   4.263
 4738SOL    HW214775   3.491   2.545   4.141
 4739SOL     OW14776   2.211   3.383   5.042
 4739SOL    HW114777   2.199   3.342   4.956
 4739SOL    HW214778   2.306   3.398   5.047
 4740SOL     OW14779   3.462   2.641   5.406
 4740SOL    HW114780   3.374   2.678   5.396
 4740SOL    HW214781   3.512   2.682   5.335
 4741SOL     OW14782   2.889   1.967   5.489
 4741SOL    HW114783   2.867   2.027   5.418
 4741SOL    HW214784   2.936   1.895   5.447
 4742SOL     OW14785   3.226   2.722   4.758
 4742SOL    HW114786   3.149   2.715   4.702
 4742SOL    HW214787   3.261   2.633   4.764
 4743SOL     OW14788   3.069   2.392   3.992
 4743SOL    HW114789   3.077   2.313   4.046
 4743SOL    HW214790   3.027   2.455   4.050
 4744SOL     OW14791   1.875   3.190   5.030
 4744SOL    HW114792   1.927   3.143   5.094
 4744SOL    HW214793   1.901   3.282   5.040
 4745SOL     OW14794   3.595   2.822   5.574
 4745SOL    HW114795   3.548   2.764   5.514
 4745SOL    HW214796   3.535   2.833   5.648
 4746SOL     OW14797   2.172   1.923   4.370
 4746SOL    HW114798   2.148   2.011   4.398
 4746SOL    HW214799   2.159   1.869   4.448
 4747SOL     OW14800   3.477   2.235   4.093
 4747SOL    HW114801   3.502   2.170   4.158
 4747SOL    HW214802   3.453   2.312   4.144
 4748SOL     OW14803   2.844   3.428   5.438
 4748SOL    HW114804   2.828   3.472   5.355
 4748SOL    HW214805   2.886   3.345   5.414
 4749SOL     OW14806   3.718   3.372   5.330
 4749SOL    HW114807   3.735   3.397   5.239
 4749SOL    HW214808   3.799   3.392   5.376
 4750SOL     OW14809   3.392   2.136   3.851
 4750SOL    HW114810   3.329   2.070   3.877
 4750SOL    HW214811   3.425   2.172   3.934
 4751SOL     OW14812   3.157   2.689   3.757
 4751SOL    HW114813   3.199   2.604   3.761
 4751SOL    HW214814   3.187   2.728   3.675
 4752SOL     OW14815   2.926   3.198   4.577
 4752SOL    HW114816   2.932   3.125   4.515
 4752SOL    HW214817   2.988   3.263   4.544
 4753SOL     OW14818   3.049   2.067   5.208
 4753SOL    HW114819   3.036   2.135   5.275
 4753SOL    HW214820   3.052   2.116   5.125
 4754SOL     OW14821   1.867   3.185   3.920
 4754SOL    HW114822   1.780   3.198   3.882
 4754SOL    HW214823   1.865   3.094   3.952
 4755SOL     OW14824   1.952   3.650   4.659
 4755SOL    HW114825   1.923   3.569   4.616
 4755SOL    HW214826   2.041   3.663   4.629
 4756SOL     OW14827   2.363   3.434   4.632
 4756SOL    HW114828   2.430   3.498   4.656
 4756SOL    HW214829   2.409   3.369   4.578
 4757SOL     OW14830   3.237   2.804   5.383
 4757SOL    HW114831   3.257   2.897   5.384
 4757SOL    HW214832   3.238   2.779   5.291
 4758SOL     OW14833   2.675   2.431   4.079
 4758SOL    HW114834   2.680   2.356   4.019
 4758SOL    HW214835   2.601   2.482   4.048
 4759SOL     OW14836   3.507   2.468   4.912
 4759SOL    HW114837   3.490   2.410   4.986
 4759SOL    HW214838   3.593   2.442   4.881
 4760SOL     OW14839   2.108   3.415   5.453
 4760SOL    HW114840   2.085   3.480   5.520
 4760SOL    HW214841   2.107   3.332   5.500
 4761SOL     OW14842   2.792   3.541   5.191
 4761SOL    HW114843   2.766   3.509   5.104
 4761SOL    HW214844   2.791   3.637   5.182
 4762SOL     OW14845   2.004   3.018   5.209
 4762SOL    HW114846   2.018   2.966   5.288
 4762SOL    HW214847   2.026   2.959   5.137
 4763SOL     OW14848   3.191   2.912   4.949
 4763SOL    HW114849   3.216   2.850   4.881
 4763SOL    HW214850   3.118   2.961   4.911
 4764SOL     OW14851   3.170   2.718   4.032
 4764SOL    HW114852   3.092   2.688   4.078
 4764SOL    HW214853   3.149   2.705   3.939
 4765SOL     OW14854   3.630   3.609   4.872
 4765SOL    HW114855   3.690   3.635   4.802
 4765SOL    HW214856   3.607   3.519   4.852
 4766SOL     OW14857   3.104   3.595   4.841
 4766SOL    HW114858   3.186   3.612   4.794
 4766SOL    HW214859   3.106   3.501   4.859
 4767SOL     OW14860   2.539   3.526   5.449
 4767SOL    HW114861   2.490   3.608   5.446
 4767SOL    HW214862   2.603   3.533   5.378
 4768SOL     OW14863   3.580   2.004   4.237
 4768SOL    HW114864   3.654   1.990   4.177
 4768SOL    HW214865   3.565   1.919   4.277
 4769SOL     OW14866   3.251   3.430   4.206
 4769SOL    HW114867   3.313   3.461   4.139
 4769SOL    HW214868   3.205   3.508   4.234
 4770SOL     OW14869   1.998   3.660   5.566
 4770SOL    HW114870   1.947   3.596   5.615
 4770SOL    HW214871   2.047   3.708   5.633
 4771SOL     OW14872   3.137   2.786   4.396
 4771SOL    HW114873   3.210   2.724   4.402
 4771SOL    HW214874   3.170   2.858   4.344
 4772SOL     OW14875   2.687   3.136   5.153
 4772SOL    HW114876   2.652   3.174   5.234
 4772SOL    HW214877   2.612   3.136   5.093
 4773SOL     OW14878   2.534   3.478   3.879
 4773SOL    HW114879   2.543   3.489   3.785
 4773SOL    HW214880   2.481   3.400   3.889
 4774SOL     OW14881   3.495   3.589   5.116
 4774SOL    HW114882   3.542   3.596   5.033
 4774SOL    HW214883   3.481   3.679   5.145
 4775SOL     OW14884   3.701   2.035   4.690
 4775SOL    HW114885   3.731   1.948   4.662
 4775SOL    HW214886   3.614   2.044   4.652
 4776SOL     OW14887   3.067   3.470   3.755
 4776SOL    HW114888   3.060   3.379   3.782
 4776SOL    HW214889   3.003   3.480   3.685
 4777SOL     OW14890   2.779   2.774   4.016
 4777SOL    HW114891   2.839   2.805   3.948
 4777SOL    HW214892   2.824   2.700   4.057
 4778SOL     OW14893   3.357   3.486   3.766
 4778SOL    HW114894   3.262   3.483   3.755
 4778SOL    HW214895   3.392   3.492   3.677
 4779SOL     OW14896   2.234   3.162   5.217
 4779SOL    HW114897   2.227   3.241   5.164
 4779SOL    HW214898   2.148   3.120   5.208
 4780SOL     OW14899   3.475   3.146   5.005
 4780SOL    HW114900   3.532   3.137   5.081
 4780SOL    HW214901   3.413   3.215   5.029
 4781SOL     OW14902   2.911   2.964   4.433
 4781SOL    HW114903   2.838   2.907   4.454
 4781SOL    HW214904   2.977   2.907   4.392
 4782SOL     OW14905   2.462   3.349   4.206
 4782SOL    HW114906   2.503   3.300   4.135
 4782SOL    HW214907   2.398   3.405   4.162
 4783SOL     OW14908   3.582   2.253   5.103
 4783SOL    HW114909   3.653   2.317   5.102
 4783SOL    HW214910   3.612   2.182   5.048
 4784SOL     OW14911   2.120   3.208   4.011
 4784SOL    HW114912   2.027   3.207   3.989
 4784SOL    HW214913   2.123   3.246   4.099
 4785SOL     OW14914   1.980   2.895   5.468
 4785SOL    HW114915   1.899   2.844   5.474
 4785SOL    HW214916   2.049   2.831   5.484
 4786SOL     OW14917   1.922   2.203   3.774
 4786SOL    HW114918   1.842   2.177   3.729
 4786SOL    HW214919   1.964   2.265   3.715
 4787SOL     OW14920   3.295   2.725   5.128
 4787SOL    HW114921   3.247   2.784   5.069
 4787SOL    HW214922   3.384   2.724   5.093
 4788SOL     OW14923   1.937   2.021   4.037
 4788SOL    HW114924   1.914   2.096   3.982
 4788SOL    HW214925   2.017   1.986   3.998
 4789SOL     OW14926   3.042   3.203   3.841
 4789SOL    HW114927   2.951   3.175   3.844
 4789SOL    HW214928   3.071   3.203   3.932
 4790SOL     OW14929   3.347   3.636   4.698
 4790SOL    HW114930   3.374   3.694   4.627
 4790SOL    HW214931   3.428   3.621   4.748
 4791SOL     OW14932   3.330   3.066   5.358
 4791SOL    HW114933   3.318   3.078   5.452
 4791SOL    HW214934   3.424   3.077   5.344
 4792SOL     OW14935   2.244   3.602   5.287
 4792SOL    HW114936   2.158   3.641   5.275
 4792SOL    HW214937   2.228   3.518   5.329
 4793SOL     OW14938   3.534   2.745   4.980
 4793SOL    HW114939   3.526   2.658   4.939
 4793SOL    HW214940   3.525   2.807   4.908
 4794SOL     OW14941   3.082   2.184   4.179
 4794SOL    HW114942   3.143   2.111   4.170
 4794SOL    HW214943   3.110   2.229   4.258
 4795SOL     OW14944   2.447   2.614   4.384
 4795SOL    HW114945   2.492   2.695   4.359
 4795SOL    HW214946   2.379   2.604   4.318
 4796SOL     OW14947   3.628   2.220   5.372
 4796SOL    HW114948   3.608   2.235   5.279
 4796SOL    HW214949   3.556   2.165   5.403
 4797SOL     OW14950   3.607   2.796   5.236
 4797SOL    HW114951   3.607   2.891   5.249
 4797SOL    HW214952   3.591   2.784   5.143
 4798SOL     OW14953   2.725   3.231   3.754
 4798SOL    HW114954   2.684   3.258   3.837
 4798SOL    HW214955   2.744   3.312   3.709
 4799SOL     OW14956   2.519   3.656   4.671
 4799SOL    HW114957   2.500   3.747   4.647
 4799SOL    HW214958   2.615   3.649   4.665
 4800SOL     OW14959   2.941   2.848   3.812
 4800SOL    HW114960   2.920   2.900   3.734
 4800SOL    HW214961   3.017   2.797   3.787
 4801SOL     OW14962   3.719   3.418   4.569
 4801SOL    HW114963   3.642   3.407   4.514
 4801SOL    HW214964   3.711   3.350   4.636
 4802SOL     OW14965   2.087   3.169   5.578
 4802SOL    HW114966   2.021   3.103   5.555
 4802SOL    HW214967   2.078   3.179   5.673
 4803SOL     OW14968   1.948   3.104   4.394
 4803SOL    HW114969   1.918   3.039   4.458
 4803SOL    HW214970   2.006   3.055   4.336
 4804SOL     OW14971   2.538   3.266   5.342
 4804SOL    HW114972   2.466   3.217   5.381
 4804SOL    HW214973   2.535   3.351   5.386
 4805SOL     OW14974   3.679   2.048   4.962
 4805SOL    HW114975   3.683   1.954   4.978
 4805SOL    HW214976   3.687   2.056   4.866
 4806SOL     OW14977   3.564   3.353   4.824
 4806SOL    HW114978   3.482   3.328   4.781
 4806SOL    HW214979   3.579   3.285   4.890
 4807SOL     OW14980   2.689   3.441   4.401
 4807SOL    HW114981   2.678   3.484   4.316
 4807SOL    HW214982   2.611   3.386   4.410
 4808SOL     OW14983   3.302   2.098   4.837
 4808SOL    HW114984   3.318   2.009   4.866
 4808SOL    HW214985   3.236   2.132   4.898
 4809SOL     OW14986   2.633   3.195   4.034
 4809SOL    HW114987   2.600   3.105   4.040
 4809SOL    HW214988   2.716   3.193   4.082
 4810SOL     OW14989   2.480   3.425   5.003
 4810SOL    HW114990   2.486   3.504   5.057
 4810SOL    HW214991   2.568   3.412   4.969
 4811SOL     OW14992   3.214   1.916   3.887
 4811SOL    HW114993   3.240   1.855   3.818
 4811SOL    HW214994   3.128   1.884   3.915
 4812SOL     OW14995   3.160   2.321   4.408
 4812SOL    HW114996   3.104   2.399   4.414
 4812SOL    HW214997   3.152   2.280   4.494
 4813SOL     OW14998   3.447   2.067   4.601
 4813SOL    HW114999   3.387   2.086   4.673
 4813SOL    HW215000   3.449   2.146   4.548
 4814SOL     OW15001   1.906   2.935   4.031
 4814SOL    HW115002   1.999   2.925   4.010
 4814SOL    HW215003   1.876   2.847   4.053
 4815SOL     OW15004   2.743   3.511   4.069
 4815SOL    HW115005   2.672   3.494   4.007
 4815SOL    HW215006   2.714   3.588   4.118
 4816SOL     OW15007   2.430   3.144   6.757
 4816SOL    HW115008   2.342   3.146   6.721
 4816SOL    HW215009   2.443   3.233   6.791
 4817SOL     OW15010   3.419   3.374   6.292
 4817SOL    HW115011   3.375   3.355   6.374
 4817SOL    HW215012   3.349   3.378   6.227
 4818SOL     OW15013   3.042   2.571   6.324
 4818SOL    HW115014   3.068   2.656   6.288
 4818SOL    HW215015   2.952   2.584   6.354
 4819SOL     OW15016   3.629   2.469   5.816
 4819SOL    HW115017   3.608   2.459   5.723
 4819SOL    HW215018   3.591   2.391   5.857
 4820SOL     OW15019   2.633   3.011   6.625
 4820SOL    HW115020   2.556   3.034   6.678
 4820SOL    HW215021   2.658   3.092   6.582
 4821SOL     OW15022   2.722   2.644   7.406
 4821SOL    HW115023   2.712   2.714   7.470
 4821SOL    HW215024   2.748   2.688   7.326
 4822SOL     OW15025   2.563   2.926   6.261
 4822SOL    HW115026   2.616   2.875   6.323
 4822SOL    HW215027   2.488   2.956   6.312
 4823SOL     OW15028   2.569   3.014   7.394
 4823SOL    HW115029   2.617   3.093   7.419
 4823SOL    HW215030   2.485   3.046   7.361
 4824SOL     OW15031   2.193   3.292   6.654
 4824SOL    HW115032   2.120   3.256   6.603
 4824SOL    HW215033   2.245   3.342   6.591
 4825SOL     OW15034   3.324   3.360   6.936
 4825SOL    HW115035   3.367   3.445   6.947
 4825SOL    HW215036   3.270   3.351   7.015
 4826SOL     OW15037   3.476   2.312   6.325
 4826SOL    HW115038   3.396   2.332   6.277
 4826SOL    HW215039   3.495   2.391   6.375
 4827SOL     OW15040   2.084   3.572   6.061
 4827SOL    HW115041   2.106   3.649   6.114
 4827SOL    HW215042   2.153   3.569   5.994
 4828SOL     OW15043   2.998   3.203   7.277
 4828SOL    HW115044   3.038   3.199   7.364
 4828SOL    HW215045   2.945   3.123   7.272
 4829SOL     OW15046   2.086   3.298   6.121
 4829SOL    HW115047   2.080   3.394   6.121
 4829SOL    HW215048   2.020   3.269   6.183
 4830SOL     OW15049   2.114   2.953   6.476
 4830SOL    HW115050   2.099   2.869   6.520
 4830SOL    HW215051   2.059   3.015   6.524
 4831SOL     OW15052   2.477   3.652   7.018
 4831SOL    HW115053   2.394   3.635   7.062
 4831SOL    HW215054   2.500   3.742   7.042
 4832SOL     OW15055   3.458   1.983   7.056
 4832SOL    HW115056   3.456   2.062   7.002
 4832SOL    HW215057   3.447   2.015   7.145
 4833SOL     OW15058   3.703   3.623   5.923
 4833SOL    HW115059   3.762   3.594   5.992
 4833SOL    HW215060   3.730   3.713   5.905
 4834SOL     OW15061   1.890   3.465   5.709
 4834SOL    HW115062   1.875   3.372   5.731
 4834SOL    HW215063   1.868   3.512   5.789
 4835SOL     OW15064   3.556   2.786   6.225
 4835SOL    HW115065   3.638   2.742   6.205
 4835SOL    HW215066   3.532   2.832   6.145
 4836SOL     OW15067   3.507   2.971   6.015
 4836SOL    HW115068   3.592   2.979   5.972
 4836SOL    HW215069   3.512   3.030   6.090
 4837SOL     OW15070   1.983   2.597   7.165
 4837SOL    HW115071   2.070   2.609   7.203
 4837SOL    HW215072   1.938   2.680   7.183
 4838SOL     OW15073   2.476   3.250   6.320
 4838SOL    HW115074   2.427   3.168   6.330
 4838SOL    HW215075   2.462   3.277   6.229
 4839SOL     OW15076   3.152   3.101   7.011
 4839SOL    HW115077   3.185   3.033   6.951
 4839SOL    HW215078   3.208   3.093   7.088
 4840SOL     OW15079   2.053   2.838   6.846
 4840SOL    HW115080   2.135   2.789   6.841
 4840SOL    HW215081   1.985   2.773   6.827
 4841SOL     OW15082   3.396   2.853   5.781
 4841SOL    HW115083   3.325   2.795   5.809
 4841SOL    HW215084   3.433   2.887   5.863
 4842SOL     OW15085   3.047   3.665   7.206
 4842SOL    HW115086   3.062   3.723   7.131
 4842SOL    HW215087   3.062   3.577   7.172
 4843SOL     OW15088   3.327   3.282   6.539
 4843SOL    HW115089   3.259   3.295   6.605
 4843SOL    HW215090   3.316   3.191   6.511
 4844SOL     OW15091   3.524   3.595   6.164
 4844SOL    HW115092   3.500   3.567   6.075
 4844SOL    HW215093   3.497   3.522   6.219
 4845SOL     OW15094   3.144   2.205   6.523
 4845SOL    HW115095   3.056   2.169   6.533
 4845SOL    HW215096   3.197   2.155   6.584
 4846SOL     OW15097   3.443   3.530   5.895
 4846SOL    HW115098   3.532   3.565   5.889
 4846SOL    HW215099   3.418   3.513   5.804
 4847SOL     OW15100   2.650   2.470   7.034
 4847SOL    HW115101   2.633   2.460   7.128
 4847SOL    HW215102   2.599   2.400   6.993
 4848SOL     OW15103   3.256   2.335   7.264
 4848SOL    HW115104   3.256   2.380   7.349
 4848SOL    HW215105   3.319   2.264   7.273
 4849SOL     OW15106   2.819   2.750   7.166
 4849SOL    HW115107   2.874   2.679   7.132
 4849SOL    HW215108   2.774   2.784   7.089
 4850SOL     OW15109   2.861   2.278   6.816
 4850SOL    HW115110   2.778   2.296   6.860
 4850SOL    HW215111   2.838   2.219   6.744
 4851SOL     OW15112   1.990   3.700   7.161
 4851SOL    HW115113   1.988   3.681   7.255
 4851SOL    HW215114   1.898   3.706   7.136
 4852SOL     OW15115   3.573   2.439   7.414
 4852SOL    HW115116   3.536   2.515   7.369
 4852SOL    HW215117   3.597   2.379   7.344
 4853SOL     OW15118   3.241   3.012   6.124
 4853SOL    HW115119   3.318   2.995   6.070
 4853SOL    HW215120   3.188   3.072   6.072
 4854SOL     OW15121   2.444   2.071   6.510
 4854SOL    HW115122   2.451   2.076   6.606
 4854SOL    HW215123   2.442   2.162   6.482
 4855SOL     OW15124   2.870   3.307   6.060
 4855SOL    HW115125   2.830   3.379   6.011
 4855SOL    HW215126   2.857   3.331   6.152
 4856SOL     OW15127   2.216   3.668   6.444
 4856SOL    HW115128   2.260   3.584   6.453
 4856SOL    HW215129   2.284   3.733   6.460
 4857SOL     OW15130   3.660   2.924   6.453
 4857SOL    HW115131   3.605   2.905   6.378
 4857SOL    HW215132   3.599   2.928   6.527
 4858SOL     OW15133   3.090   3.402   7.098
 4858SOL    HW115134   3.076   3.329   7.158
 4858SOL    HW215135   3.030   3.385   7.026
 4859SOL     OW15136   3.343   2.605   6.308
 4859SOL    HW115137   3.322   2.557   6.388
 4859SOL    HW215138   3.419   2.658   6.331
 4860SOL     OW15139   2.326   3.125   7.323
 4860SOL    HW115140   2.298   3.130   7.232
 4860SOL    HW215141   2.245   3.123   7.374
 4861SOL     OW15142   2.982   3.640   5.817
 4861SOL    HW115143   2.912   3.595   5.865
 4861SOL    HW215144   3.004   3.580   5.746
 4862SOL     OW15145   3.492   3.241   5.672
 4862SOL    HW115146   3.450   3.326   5.658
 4862SOL    HW215147   3.422   3.177   5.655
 4863SOL     OW15148   2.329   3.600   5.908
 4863SOL    HW115149   2.369   3.657   5.973
 4863SOL    HW215150   2.402   3.574   5.851
 4864SOL     OW15151   3.267   1.965   6.018
 4864SOL    HW115152   3.251   1.944   5.926
 4864SOL    HW215153   3.362   1.974   6.024
 4865SOL     OW15154   2.116   3.654   6.819
 4865SOL    HW115155   2.168   3.590   6.867
 4865SOL    HW215156   2.106   3.616   6.732
 4866SOL     OW15157   2.800   3.560   6.487
 4866SOL    HW115158   2.877   3.507   6.507
 4866SOL    HW215159   2.755   3.512   6.418
 4867SOL     OW15160   3.400   2.088   7.311
 4867SOL    HW115161   3.408   2.109   7.404
 4867SOL    HW215162   3.333   2.020   7.308
 4868SOL     OW15163   2.631   2.140   7.341
 4868SOL    HW115164   2.703   2.077   7.345
 4868SOL    HW215165   2.579   2.121   7.418
 4869SOL     OW15166   2.739   3.383   6.780
 4869SOL    HW115167   2.724   3.347   6.692
 4869SOL    HW215168   2.808   3.328   6.816
 4870SOL     OW15169   3.202   2.452   7.019
 4870SOL    HW115170   3.234   2.419   7.103
 4870SOL    HW215171   3.240   2.539   7.011
 4871SOL     OW15172   2.675   3.262   6.521
 4871SOL    HW115173   2.759   3.250   6.477
 4871SOL    HW215174   2.610   3.259   6.450
 4872SOL     OW15175   3.291   3.060   5.628
 4872SOL    HW115176   3.322   2.983   5.676
 4872SOL    HW215177   3.203   3.076   5.662
 4873SOL     OW15178   2.941   2.540   7.048
 4873SOL    HW115179   2.875   2.471   7.053
 4873SOL    HW215180   3.024   2.493   7.039
 4874SOL     OW15181   3.086   3.432   6.380
 4874SOL    HW115182   3.105   3.499   6.314
 4874SOL    HW215183   3.155   3.443   6.446
 4875SOL     OW15184   2.315   3.031   6.321
 4875SOL    HW115185   2.247   3.005   6.384
 4875SOL    HW215186   2.289   2.989   6.239
 4876SOL     OW15187   3.133   3.657   6.191
 4876SOL    HW115188   3.177   3.718   6.132
 4876SOL    HW215189   3.069   3.711   6.238
 4877SOL     OW15190   1.924   2.427   6.963
 4877SOL    HW115191   2.016   2.413   6.944
 4877SOL    HW215192   1.923   2.487   7.038
 4878SOL     OW15193   2.443   2.043   6.772
 4878SOL    HW115194   2.467   1.965   6.823
 4878SOL    HW215195   2.349   2.052   6.785
 4879SOL     OW15196   2.912   1.906   6.346
 4879SOL    HW115197   2.845   1.934   6.284
 4879SOL    HW215198   2.876   1.826   6.385
 4880SOL     OW15199   3.297   3.026   6.443
 4880SOL    HW115200   3.230   2.957   6.440
 4880SOL    HW215201   3.322   3.040   6.352
 4881SOL     OW15202   3.329   2.465   6.569
 4881SOL    HW115203   3.284   2.381   6.570
 4881SOL    HW215204   3.391   2.461   6.642
 4882SOL     OW15205   3.710   2.681   5.967
 4882SOL    HW115206   3.765   2.628   6.025
 4882SOL    HW215207   3.680   2.619   5.900
 4883SOL     OW15208   2.358   3.275   5.747
 4883SOL    HW115209   2.282   3.247   5.798
 4883SOL    HW215210   2.340   3.246   5.658
 4884SOL     OW15211   3.530   3.128   6.234
 4884SOL    HW115212   3.625   3.133   6.248
 4884SOL    HW215213   3.498   3.215   6.256
 4885SOL     OW15214   3.253   2.430   5.661
 4885SOL    HW115215   3.204   2.408   5.740
 4885SOL    HW215216   3.342   2.400   5.679
 4886SOL     OW15217   3.615   3.098   7.163
 4886SOL    HW115218   3.703   3.059   7.160
 4886SOL    HW215219   3.630   3.188   7.193
 4887SOL     OW15220   2.923   3.216   6.922
 4887SOL    HW115221   2.848   3.184   6.972
 4887SOL    HW215222   2.999   3.174   6.962
 4888SOL     OW15223   3.467   3.487   7.237
 4888SOL    HW115224   3.465   3.521   7.147
 4888SOL    HW215225   3.551   3.441   7.243
 4889SOL     OW15226   2.987   3.064   6.693
 4889SOL    HW115227   2.928   3.101   6.759
 4889SOL    HW215228   2.952   3.093   6.609
 4890SOL     OW15229   3.492   2.962   6.665
 4890SOL    HW115230   3.488   3.024   6.737
 4890SOL    HW215231   3.412   2.977   6.615
 4891SOL     OW15232   2.783   1.961   6.987
 4891SOL    HW115233   2.803   1.940   6.896
 4891SOL    HW215234   2.863   1.999   7.022
 4892SOL     OW15235   2.846   2.976   7.308
 4892SOL    HW115236   2.753   2.992   7.327
 4892SOL    HW215237   2.846   2.899   7.252
 4893SOL     OW15238   2.264   2.671   6.854
 4893SOL    HW115239   2.345   2.696   6.898
 4893SOL    HW215240   2.243   2.584   6.890
 4894SOL     OW15241   3.131   2.239   6.860
 4894SOL    HW115242   3.162   2.318   6.906
 4894SOL    HW215243   3.043   2.262   6.830
 4895SOL     OW15244   1.930   3.434   6.935
 4895SOL    HW115245   1.898   3.508   6.884
 4895SOL    HW215246   2.025   3.442   6.931
 4896SOL     OW15247   2.468   2.398   6.455
 4896SOL    HW115248   2.403   2.433   6.394
 4896SOL    HW215249   2.452   2.445   6.537
 4897SOL     OW15250   3.110   3.210   5.975
 4897SOL    HW115251   3.165   3.282   6.006
 4897SOL    HW215252   3.022   3.231   6.009
 4898SOL     OW15253   3.139   3.317   6.732
 4898SOL    HW115254   3.193   3.319   6.810
 4898SOL    HW215255   3.084   3.240   6.743
 4899SOL     OW15256   3.445   2.488   6.061
 4899SOL    HW115257   3.400   2.541   6.127
 4899SOL    HW215258   3.489   2.553   6.005
 4900SOL     OW15259   2.210   3.386   6.904
 4900SOL    HW115260   2.197   3.344   6.819
 4900SOL    HW215261   2.305   3.399   6.910
 4901SOL     OW15262   2.277   2.614   7.186
 4901SOL    HW115263   2.339   2.661   7.128
 4901SOL    HW215264   2.320   2.530   7.203
 4902SOL     OW15265   3.459   2.640   7.266
 4902SOL    HW115266   3.373   2.680   7.257
 4902SOL    HW215267   3.512   2.681   7.197
 4903SOL     OW15268   2.858   1.980   7.342
 4903SOL    HW115269   2.910   2.053   7.309
 4903SOL    HW215270   2.907   1.902   7.316
 4904SOL     OW15271   2.358   1.908   7.333
 4904SOL    HW115272   2.321   1.850   7.266
 4904SOL    HW215273   2.295   1.979   7.341
 4905SOL     OW15274   3.221   2.719   6.621
 4905SOL    HW115275   3.146   2.715   6.561
 4905SOL    HW215276   3.261   2.632   6.616
 4906SOL     OW15277   1.911   3.172   6.862
 4906SOL    HW115278   1.942   3.119   6.935
 4906SOL    HW215279   1.916   3.263   6.893
 4907SOL     OW15280   2.613   2.503   6.673
 4907SOL    HW115281   2.646   2.461   6.594
 4907SOL    HW215282   2.601   2.595   6.649
 4908SOL     OW15283   3.595   2.821   7.437
 4908SOL    HW115284   3.547   2.765   7.375
 4908SOL    HW215285   3.535   2.832   7.510
 4909SOL     OW15286   3.477   2.234   5.955
 4909SOL    HW115287   3.502   2.171   6.022
 4909SOL    HW215288   3.452   2.312   6.005
 4910SOL     OW15289   2.880   2.631   6.557
 4910SOL    HW115290   2.886   2.652   6.650
 4910SOL    HW215291   2.894   2.536   6.552
 4911SOL     OW15292   2.844   3.428   7.300
 4911SOL    HW115293   2.829   3.473   7.217
 4911SOL    HW215294   2.887   3.346   7.276
 4912SOL     OW15295   3.718   3.372   7.192
 4912SOL    HW115296   3.734   3.397   7.101
 4912SOL    HW215297   3.799   3.392   7.238
 4913SOL     OW15298   2.217   2.782   7.394
 4913SOL    HW115299   2.301   2.796   7.439
 4913SOL    HW215300   2.238   2.722   7.323
 4914SOL     OW15301   3.392   2.137   5.714
 4914SOL    HW115302   3.329   2.070   5.739
 4914SOL    HW215303   3.425   2.172   5.797
 4915SOL     OW15304   3.159   2.689   5.618
 4915SOL    HW115305   3.197   2.601   5.620
 4915SOL    HW215306   3.189   2.727   5.536
 4916SOL     OW15307   2.926   3.197   6.439
 4916SOL    HW115308   2.928   3.124   6.378
 4916SOL    HW215309   2.990   3.260   6.404
 4917SOL     OW15310   2.996   2.242   7.265
 4917SOL    HW115311   2.951   2.296   7.330
 4917SOL    HW215312   3.085   2.277   7.261
 4918SOL     OW15313   3.023   2.067   7.056
 4918SOL    HW115314   3.014   2.130   7.128
 4918SOL    HW215315   3.062   2.118   6.984
 4919SOL     OW15316   1.856   3.204   5.782
 4919SOL    HW115317   1.771   3.222   5.743
 4919SOL    HW215318   1.858   3.108   5.792
 4920SOL     OW15319   1.951   3.650   6.521
 4920SOL    HW115320   1.922   3.570   6.478
 4920SOL    HW215321   2.042   3.662   6.491
 4921SOL     OW15322   2.361   3.435   6.492
 4921SOL    HW115323   2.429   3.498   6.516
 4921SOL    HW215324   2.406   3.371   6.438
 4922SOL     OW15325   2.850   2.659   6.820
 4922SOL    HW115326   2.904   2.632   6.895
 4922SOL    HW215327   2.766   2.616   6.833
 4923SOL     OW15328   3.237   2.804   7.245
 4923SOL    HW115329   3.258   2.897   7.245
 4923SOL    HW215330   3.236   2.780   7.152
 4924SOL     OW15331   3.505   2.463   6.776
 4924SOL    HW115332   3.494   2.402   6.849
 4924SOL    HW215333   3.592   2.443   6.741
 4925SOL     OW15334   2.110   3.415   7.317
 4925SOL    HW115335   2.084   3.478   7.384
 4925SOL    HW215336   2.107   3.330   7.361
 4926SOL     OW15337   2.792   3.541   7.052
 4926SOL    HW115338   2.766   3.510   6.965
 4926SOL    HW215339   2.791   3.636   7.045
 4927SOL     OW15340   2.011   3.002   7.057
 4927SOL    HW115341   2.015   2.946   7.135
 4927SOL    HW215342   2.028   2.942   6.984
 4928SOL     OW15343   3.191   2.911   6.811
 4928SOL    HW115344   3.215   2.848   6.743
 4928SOL    HW215345   3.119   2.961   6.773
 4929SOL     OW15346   3.175   2.716   5.890
 4929SOL    HW115347   3.095   2.693   5.938
 4929SOL    HW215348   3.150   2.709   5.798
 4930SOL     OW15349   3.630   3.609   6.735
 4930SOL    HW115350   3.690   3.635   6.664
 4930SOL    HW215351   3.607   3.519   6.714
 4931SOL     OW15352   3.104   3.595   6.703
 4931SOL    HW115353   3.185   3.613   6.656
 4931SOL    HW215354   3.107   3.501   6.720
 4932SOL     OW15355   1.947   3.130   6.598
 4932SOL    HW115356   1.934   3.139   6.692
 4932SOL    HW215357   1.873   3.076   6.569
 4933SOL     OW15358   2.540   3.526   7.310
 4933SOL    HW115359   2.488   3.606   7.308
 4933SOL    HW215360   2.603   3.535   7.239
 4934SOL     OW15361   3.581   2.004   6.099
 4934SOL    HW115362   3.655   1.990   6.039
 4934SOL    HW215363   3.565   1.919   6.138
 4935SOL     OW15364   3.252   3.430   6.069
 4935SOL    HW115365   3.313   3.460   6.001
 4935SOL    HW215366   3.205   3.509   6.096
 4936SOL     OW15367   1.997   3.659   7.429
 4936SOL    HW115368   1.946   3.594   7.478
 4936SOL    HW215369   2.046   3.707   7.496
 4937SOL     OW15370   3.148   2.802   6.257
 4937SOL    HW115371   3.218   2.737   6.257
 4937SOL    HW215372   3.181   2.874   6.203
 4938SOL     OW15373   2.681   3.134   7.018
 4938SOL    HW115374   2.654   3.173   7.101
 4938SOL    HW215375   2.610   3.156   6.957
 4939SOL     OW15376   2.534   3.480   5.741
 4939SOL    HW115377   2.544   3.491   5.647
 4939SOL    HW215378   2.482   3.401   5.752
 4940SOL     OW15379   3.495   3.588   6.978
 4940SOL    HW115380   3.542   3.596   6.895
 4940SOL    HW215381   3.481   3.679   7.007
 4941SOL     OW15382   3.702   2.035   6.554
 4941SOL    HW115383   3.731   1.949   6.524
 4941SOL    HW215384   3.616   2.047   6.514
 4942SOL     OW15385   3.067   3.470   5.617
 4942SOL    HW115386   3.060   3.379   5.645
 4942SOL    HW215387   3.003   3.480   5.547
 4943SOL     OW15388   2.687   2.869   6.958
 4943SOL    HW115389   2.729   2.866   6.872
 4943SOL    HW215390   2.687   2.961   6.982
 4944SOL     OW15391   3.357   3.487   5.628
 4944SOL    HW115392   3.262   3.482   5.617
 4944SOL    HW215393   3.391   3.493   5.539
 4945SOL     OW15394   2.232   3.163   7.078
 4945SOL    HW115395   2.218   3.241   7.024
 4945SOL    HW215396   2.155   3.108   7.061
 4946SOL     OW15397   3.474   3.145   6.867
 4946SOL    HW115398   3.533   3.138   6.942
 4946SOL    HW215399   3.413   3.215   6.891
 4947SOL     OW15400   2.908   2.966   6.295
 4947SOL    HW115401   2.834   2.913   6.324
 4947SOL    HW215402   2.972   2.903   6.261
 4948SOL     OW15403   2.895   2.082   6.578
 4948SOL    HW115404   2.888   2.043   6.491
 4948SOL    HW215405   2.882   2.009   6.639
 4949SOL     OW15406   2.461   3.352   6.068
 4949SOL    HW115407   2.505   3.303   5.999
 4949SOL    HW215408   2.398   3.407   6.022
 4950SOL     OW15409   3.581   2.254   6.966
 4950SOL    HW115410   3.653   2.317   6.964
 4950SOL    HW215411   3.611   2.182   6.910
 4951SOL     OW15412   2.115   3.225   5.863
 4951SOL    HW115413   2.021   3.235   5.848
 4951SOL    HW215414   2.127   3.248   5.955
 4952SOL     OW15415   1.973   2.879   7.305
 4952SOL    HW115416   1.897   2.857   7.358
 4952SOL    HW215417   2.048   2.844   7.354
 4953SOL     OW15418   2.541   2.050   7.083
 4953SOL    HW115419   2.627   2.031   7.045
 4953SOL    HW215420   2.559   2.087   7.169
 4954SOL     OW15421   3.294   2.721   6.988
 4954SOL    HW115422   3.246   2.780   6.930
 4954SOL    HW215423   3.384   2.723   6.955
 4955SOL     OW15424   3.041   3.206   5.703
 4955SOL    HW115425   2.954   3.167   5.705
 4955SOL    HW215426   3.071   3.203   5.794
 4956SOL     OW15427   2.482   2.694   7.015
 4956SOL    HW115428   2.536   2.772   7.002
 4956SOL    HW215429   2.546   2.622   7.023
 4957SOL     OW15430   3.347   3.636   6.561
 4957SOL    HW115431   3.373   3.694   6.489
 4957SOL    HW215432   3.428   3.620   6.610
 4958SOL     OW15433   2.583   2.428   7.291
 4958SOL    HW115434   2.618   2.493   7.352
 4958SOL    HW215435   2.618   2.345   7.322
 4959SOL     OW15436   3.330   3.065   7.219
 4959SOL    HW115437   3.319   3.078   7.313
 4959SOL    HW215438   3.424   3.077   7.205
 4960SOL     OW15439   2.245   3.602   7.149
 4960SOL    HW115440   2.158   3.641   7.137
 4960SOL    HW215441   2.227   3.517   7.191
 4961SOL     OW15442   3.533   2.744   6.842
 4961SOL    HW115443   3.525   2.658   6.799
 4961SOL    HW215444   3.525   2.807   6.770
 4962SOL     OW15445   3.108   2.189   6.056
 4962SOL    HW115446   3.165   2.112   6.051
 4962SOL    HW215447   3.138   2.236   6.134
 4963SOL     OW15448   3.628   2.221   7.235
 4963SOL    HW115449   3.610   2.235   7.142
 4963SOL    HW215450   3.556   2.165   7.265
 4964SOL     OW15451   3.605   2.796   7.099
 4964SOL    HW115452   3.608   2.890   7.111
 4964SOL    HW215453   3.590   2.784   7.005
 4965SOL     OW15454   2.719   3.234   5.616
 4965SOL    HW115455   2.686   3.263   5.701
 4965SOL    HW215456   2.746   3.314   5.571
 4966SOL     OW15457   2.520   3.656   6.534
 4966SOL    HW115458   2.500   3.746   6.509
 4966SOL    HW215459   2.616   3.650   6.526
 4967SOL     OW15460   2.717   2.817   6.451
 4967SOL    HW115461   2.779   2.756   6.490
 4967SOL    HW215462   2.697   2.879   6.522
 4968SOL     OW15463   2.956   2.865   5.672
 4968SOL    HW115464   2.926   2.902   5.589
 4968SOL    HW215465   3.021   2.799   5.647
 4969SOL     OW15466   3.719   3.419   6.432
 4969SOL    HW115467   3.642   3.407   6.375
 4969SOL    HW215468   3.711   3.350   6.497
 4970SOL     OW15469   2.086   3.167   7.442
 4970SOL    HW115470   2.018   3.105   7.413
 4970SOL    HW215471   2.069   3.180   7.535
 4971SOL     OW15472   1.940   3.090   6.247
 4971SOL    HW115473   1.934   3.044   6.330
 4971SOL    HW215474   2.028   3.073   6.216
 4972SOL     OW15475   2.541   3.262   7.211
 4972SOL    HW115476   2.462   3.219   7.242
 4972SOL    HW215477   2.536   3.350   7.249
 4973SOL     OW15478   3.676   2.047   6.825
 4973SOL    HW115479   3.685   1.953   6.840
 4973SOL    HW215480   3.685   2.057   6.730
 4974SOL     OW15481   3.563   3.354   6.687
 4974SOL    HW115482   3.482   3.327   6.643
 4974SOL    HW215483   3.578   3.285   6.751
 4975SOL     OW15484   2.688   3.441   6.266
 4975SOL    HW115485   2.681   3.484   6.180
 4975SOL    HW215486   2.610   3.386   6.271
 4976SOL     OW15487   3.297   2.085   6.707
 4976SOL    HW115488   3.323   2.006   6.753
 4976SOL    HW215489   3.243   2.133   6.769
 4977SOL     OW15490   2.869   1.869   6.741
 4977SOL    HW115491   2.813   1.796   6.714
 4977SOL    HW215492   2.958   1.834   6.737
 4978SOL     OW15493   2.634   3.203   5.898
 4978SOL    HW115494   2.597   3.115   5.892
 4978SOL    HW215495   2.716   3.192   5.945
 4979SOL     OW15496   2.481   3.421   6.870
 4979SOL    HW115497   2.485   3.502   6.921
 4979SOL    HW215498   2.569   3.413   6.832
 4980SOL     OW15499   3.218   1.918   5.749
 4980SOL    HW115500   3.239   1.860   5.675
 4980SOL    HW215501   3.133   1.886   5.780
 4981SOL     OW15502   3.183   2.327   6.278
 4981SOL    HW115503   3.128   2.406   6.281
 4981SOL    HW215504   3.165   2.283   6.362
 4982SOL     OW15505   3.451   2.068   6.463
 4982SOL    HW115506   3.385   2.085   6.530
 4982SOL    HW215507   3.450   2.146   6.408
 4983SOL     OW15508   2.743   3.511   5.932
 4983SOL    HW115509   2.672   3.494   5.869
 4983SOL    HW215510   2.713   3.588   5.980
 4984SOL     OW15511   2.069   2.524   7.561
 4984SOL    HW115512   1.988   2.495   7.604
 4984SOL    HW215513   2.080   2.462   7.489
 4985SOL     OW15514   1.867   2.246   8.080
 4985SOL    HW115515   1.787   2.266   8.128
 4985SOL    HW215516   1.850   2.161   8.040
 4986SOL     OW15517   2.428   3.144   8.620
 4986SOL    HW115518   2.341   3.147   8.582
 4986SOL    HW215519   2.443   3.232   8.654
 4987SOL     OW15520   3.419   3.373   8.153
 4987SOL    HW115521   3.375   3.356   8.236
 4987SOL    HW215522   3.349   3.378   8.089
 4988SOL     OW15523   2.991   2.561   8.152
 4988SOL    HW115524   3.041   2.641   8.137
 4988SOL    HW215525   2.946   2.575   8.235
 4989SOL     OW15526   3.627   2.469   7.678
 4989SOL    HW115527   3.607   2.460   7.585
 4989SOL    HW215528   3.592   2.390   7.718
 4990SOL     OW15529   2.620   3.006   8.485
 4990SOL    HW115530   2.550   3.040   8.541
 4990SOL    HW215531   2.654   3.084   8.440
 4991SOL     OW15532   2.721   2.644   9.269
 4991SOL    HW115533   2.714   2.716   9.332
 4991SOL    HW215534   2.747   2.687   9.187
 4992SOL     OW15535   2.547   2.867   8.099
 4992SOL    HW115536   2.612   2.853   8.168
 4992SOL    HW215537   2.478   2.919   8.140
 4993SOL     OW15538   2.569   3.014   9.256
 4993SOL    HW115539   2.617   3.093   9.281
 4993SOL    HW215540   2.485   3.046   9.224
 4994SOL     OW15541   2.193   3.291   8.516
 4994SOL    HW115542   2.121   3.254   8.465
 4994SOL    HW215543   2.244   3.341   8.453
 4995SOL     OW15544   3.324   3.360   8.798
 4995SOL    HW115545   3.367   3.445   8.809
 4995SOL    HW215546   3.270   3.351   8.877
 4996SOL     OW15547   3.475   2.312   8.187
 4996SOL    HW115548   3.399   2.338   8.135
 4996SOL    HW215549   3.496   2.389   8.240
 4997SOL     OW15550   2.082   3.575   7.923
 4997SOL    HW115551   2.106   3.652   7.975
 4997SOL    HW215552   2.151   3.568   7.857
 4998SOL     OW15553   2.998   3.203   9.139
 4998SOL    HW115554   3.037   3.199   9.226
 4998SOL    HW215555   2.945   3.123   9.134
 4999SOL     OW15556   2.092   3.302   7.982
 4999SOL    HW115557   2.075   3.396   7.988
 4999SOL    HW215558   2.030   3.262   8.043
 5000SOL     OW15559   2.116   2.954   8.338
 5000SOL    HW115560   2.112   2.867   8.379
 5000SOL    HW215561   2.057   3.008   8.390
 5001SOL     OW15562   2.478   3.652   8.880
 5001SOL    HW115563   2.394   3.635   8.924
 5001SOL    HW215564   2.500   3.742   8.904
 5002SOL     OW15565   2.452   2.840   7.577
 5002SOL    HW115566   2.494   2.895   7.511
 5002SOL    HW215567   2.492   2.867   7.660
 5003SOL     OW15568   3.458   1.983   8.918
 5003SOL    HW115569   3.456   2.062   8.864
 5003SOL    HW215570   3.447   2.014   9.008
 5004SOL     OW15571   1.970   2.506   8.007
 5004SOL    HW115572   1.945   2.417   8.031
 5004SOL    HW215573   1.966   2.555   8.089
 5005SOL     OW15574   3.703   3.623   7.785
 5005SOL    HW115575   3.763   3.594   7.854
 5005SOL    HW215576   3.730   3.713   7.767
 5006SOL     OW15577   1.892   3.459   7.572
 5006SOL    HW115578   1.874   3.366   7.592
 5006SOL    HW215579   1.867   3.505   7.652
 5007SOL     OW15580   3.551   2.781   8.085
 5007SOL    HW115581   3.637   2.742   8.068
 5007SOL    HW215582   3.531   2.831   8.006
 5008SOL     OW15583   3.507   2.970   7.878
 5008SOL    HW115584   3.592   2.979   7.835
 5008SOL    HW215585   3.512   3.030   7.952
 5009SOL     OW15586   1.984   2.596   9.030
 5009SOL    HW115587   2.071   2.614   9.066
 5009SOL    HW215588   1.936   2.678   9.042
 5010SOL     OW15589   2.474   3.244   8.183
 5010SOL    HW115590   2.428   3.161   8.192
 5010SOL    HW215591   2.458   3.271   8.093
 5011SOL     OW15592   3.152   3.101   8.872
 5011SOL    HW115593   3.185   3.033   8.813
 5011SOL    HW215594   3.208   3.093   8.950
 5012SOL     OW15595   2.674   1.861   7.953
 5012SOL    HW115596   2.715   1.946   7.937
 5012SOL    HW215597   2.581   1.881   7.963
 5013SOL     OW15598   2.053   2.832   8.716
 5013SOL    HW115599   2.137   2.789   8.697
 5013SOL    HW215600   1.987   2.775   8.677
 5014SOL     OW15601   3.394   2.853   7.644
 5014SOL    HW115602   3.324   2.795   7.674
 5014SOL    HW215603   3.433   2.887   7.725
 5015SOL     OW15604   3.047   3.665   9.068
 5015SOL    HW115605   3.062   3.723   8.993
 5015SOL    HW215606   3.062   3.577   9.034
 5016SOL     OW15607   3.327   3.282   8.401
 5016SOL    HW115608   3.259   3.296   8.467
 5016SOL    HW215609   3.316   3.191   8.374
 5017SOL     OW15610   3.524   3.595   8.026
 5017SOL    HW115611   3.500   3.567   7.937
 5017SOL    HW215612   3.497   3.521   8.081
 5018SOL     OW15613   2.466   2.586   7.711
 5018SOL    HW115614   2.473   2.660   7.651
 5018SOL    HW215615   2.385   2.603   7.761
 5019SOL     OW15616   3.142   2.210   8.380
 5019SOL    HW115617   3.053   2.176   8.388
 5019SOL    HW215618   3.192   2.158   8.443
 5020SOL     OW15619   3.444   3.530   7.757
 5020SOL    HW115620   3.532   3.565   7.751
 5020SOL    HW215621   3.419   3.513   7.666
 5021SOL     OW15622   2.652   2.470   8.895
 5021SOL    HW115623   2.635   2.459   8.988
 5021SOL    HW215624   2.604   2.400   8.853
 5022SOL     OW15625   3.256   2.335   9.126
 5022SOL    HW115626   3.256   2.380   9.211
 5022SOL    HW215627   3.319   2.264   9.135
 5023SOL     OW15628   2.819   2.750   9.028
 5023SOL    HW115629   2.874   2.680   8.993
 5023SOL    HW215630   2.773   2.784   8.952
 5024SOL     OW15631   2.861   2.270   8.687
 5024SOL    HW115632   2.782   2.310   8.724
 5024SOL    HW215633   2.831   2.230   8.605
 5025SOL     OW15634   2.911   2.561   7.874
 5025SOL    HW115635   2.925   2.555   7.969
 5025SOL    HW215636   2.829   2.514   7.860
 5026SOL     OW15637   1.951   2.682   8.223
 5026SOL    HW115638   2.033   2.677   8.272
 5026SOL    HW215639   1.907   2.759   8.258
 5027SOL     OW15640   1.990   3.700   9.023
 5027SOL    HW115641   1.988   3.682   9.117
 5027SOL    HW215642   1.898   3.706   8.998
 5028SOL     OW15643   2.750   2.208   7.643
 5028SOL    HW115644   2.793   2.269   7.584
 5028SOL    HW215645   2.765   2.121   7.604
 5029SOL     OW15646   3.573   2.439   9.276
 5029SOL    HW115647   3.536   2.515   9.231
 5029SOL    HW215648   3.596   2.379   9.206
 5030SOL     OW15649   3.237   3.004   7.990
 5030SOL    HW115650   3.315   2.990   7.937
 5030SOL    HW215651   3.185   3.067   7.939
 5031SOL     OW15652   2.871   3.308   7.922
 5031SOL    HW115653   2.830   3.379   7.873
 5031SOL    HW215654   2.857   3.331   8.014
 5032SOL     OW15655   2.216   3.668   8.306
 5032SOL    HW115656   2.260   3.584   8.315
 5032SOL    HW215657   2.285   3.733   8.322
 5033SOL     OW15658   3.659   2.923   8.315
 5033SOL    HW115659   3.603   2.906   8.240
 5033SOL    HW215660   3.599   2.927   8.390
 5034SOL     OW15661   3.090   3.402   8.960
 5034SOL    HW115662   3.076   3.329   9.020
 5034SOL    HW215663   3.029   3.385   8.888
 5035SOL     OW15664   2.188   2.807   7.700
 5035SOL    HW115665   2.265   2.831   7.648
 5035SOL    HW215666   2.148   2.734   7.653
 5036SOL     OW15667   3.337   2.600   8.176
 5036SOL    HW115668   3.326   2.555   8.260
 5036SOL    HW215669   3.414   2.656   8.189
 5037SOL     OW15670   2.326   3.125   9.185
 5037SOL    HW115671   2.298   3.130   9.094
 5037SOL    HW215672   2.245   3.124   9.235
 5038SOL     OW15673   2.982   3.639   7.680
 5038SOL    HW115674   2.911   3.596   7.727
 5038SOL    HW215675   3.004   3.580   7.608
 5039SOL     OW15676   1.966   2.104   8.952
 5039SOL    HW115677   1.989   2.194   8.928
 5039SOL    HW215678   2.037   2.075   9.009
 5040SOL     OW15679   3.492   3.241   7.535
 5040SOL    HW115680   3.451   3.326   7.520
 5040SOL    HW215681   3.422   3.177   7.516
 5041SOL     OW15682   2.329   3.601   7.769
 5041SOL    HW115683   2.369   3.657   7.836
 5041SOL    HW215684   2.402   3.573   7.714
 5042SOL     OW15685   3.263   1.970   7.878
 5042SOL    HW115686   3.251   1.945   7.786
 5042SOL    HW215687   3.358   1.977   7.889
 5043SOL     OW15688   2.117   3.654   8.681
 5043SOL    HW115689   2.169   3.589   8.729
 5043SOL    HW215690   2.105   3.616   8.594
 5044SOL     OW15691   2.800   3.560   8.349
 5044SOL    HW115692   2.877   3.507   8.368
 5044SOL    HW215693   2.754   3.511   8.280
 5045SOL     OW15694   3.400   2.088   9.173
 5045SOL    HW115695   3.408   2.109   9.266
 5045SOL    HW215696   3.332   2.021   9.170
 5046SOL     OW15697   2.486   1.992   7.554
 5046SOL    HW115698   2.560   1.935   7.576
 5046SOL    HW215699   2.447   1.952   7.477
 5047SOL     OW15700   2.630   2.141   9.200
 5047SOL    HW115701   2.701   2.078   9.208
 5047SOL    HW215702   2.575   2.125   9.277
 5048SOL     OW15703   2.739   3.383   8.642
 5048SOL    HW115704   2.724   3.347   8.554
 5048SOL    HW215705   2.808   3.328   8.678
 5049SOL     OW15706   3.202   2.451   8.881
 5049SOL    HW115707   3.234   2.419   8.965
 5049SOL    HW215708   3.240   2.539   8.873
 5050SOL     OW15709   2.675   3.260   8.384
 5050SOL    HW115710   2.759   3.250   8.339
 5050SOL    HW215711   2.610   3.258   8.314
 5051SOL     OW15712   2.786   2.367   8.353
 5051SOL    HW115713   2.763   2.361   8.260
 5051SOL    HW215714   2.823   2.282   8.374
 5052SOL     OW15715   2.409   1.931   7.948
 5052SOL    HW115716   2.329   1.928   8.001
 5052SOL    HW215717   2.406   2.017   7.906
 5053SOL     OW15718   3.291   3.059   7.489
 5053SOL    HW115719   3.322   2.984   7.539
 5053SOL    HW215720   3.205   3.079   7.526
 5054SOL     OW15721   2.156   1.895   7.627
 5054SOL    HW115722   2.219   1.960   7.597
 5054SOL    HW215723   2.210   1.829   7.671
 5055SOL     OW15724   2.797   2.107   7.910
 5055SOL    HW115725   2.771   2.149   7.829
 5055SOL    HW215726   2.892   2.117   7.914
 5056SOL     OW15727   2.941   2.541   8.906
 5056SOL    HW115728   2.874   2.473   8.915
 5056SOL    HW215729   3.023   2.493   8.900
 5057SOL     OW15730   3.087   3.431   8.241
 5057SOL    HW115731   3.105   3.499   8.176
 5057SOL    HW215732   3.155   3.443   8.308
 5058SOL     OW15733   2.329   3.010   8.184
 5058SOL    HW115734   2.258   2.992   8.246
 5058SOL    HW215735   2.291   2.992   8.098
 5059SOL     OW15736   3.133   3.657   8.053
 5059SOL    HW115737   3.177   3.718   7.994
 5059SOL    HW215738   3.069   3.711   8.100
 5060SOL     OW15739   2.888   2.408   7.467
 5060SOL    HW115740   2.846   2.492   7.448
 5060SOL    HW215741   2.952   2.428   7.536
 5061SOL     OW15742   1.949   2.412   8.833
 5061SOL    HW115743   2.044   2.397   8.837
 5061SOL    HW215744   1.933   2.479   8.900
 5062SOL     OW15745   2.726   2.318   8.089
 5062SOL    HW115746   2.686   2.377   8.025
 5062SOL    HW215747   2.750   2.241   8.037
 5063SOL     OW15748   2.875   1.914   8.202
 5063SOL    HW115749   2.818   1.904   8.126
 5063SOL    HW215750   2.855   1.838   8.257
 5064SOL     OW15751   3.297   3.026   8.306
 5064SOL    HW115752   3.231   2.958   8.304
 5064SOL    HW215753   3.320   3.039   8.214
 5065SOL     OW15754   3.330   2.464   8.429
 5065SOL    HW115755   3.282   2.381   8.434
 5065SOL    HW215756   3.391   2.461   8.503
 5066SOL     OW15757   3.710   2.681   7.829
 5066SOL    HW115758   3.765   2.628   7.887
 5066SOL    HW215759   3.680   2.619   7.762
 5067SOL     OW15760   2.354   3.276   7.609
 5067SOL    HW115761   2.279   3.246   7.661
 5067SOL    HW215762   2.333   3.249   7.520
 5068SOL     OW15763   3.530   3.127   8.096
 5068SOL    HW115764   3.625   3.132   8.109
 5068SOL    HW215765   3.498   3.215   8.118
 5069SOL     OW15766   3.255   2.434   7.519
 5069SOL    HW115767   3.196   2.415   7.592
 5069SOL    HW215768   3.340   2.401   7.549
 5070SOL     OW15769   3.615   3.098   9.025
 5070SOL    HW115770   3.703   3.059   9.022
 5070SOL    HW215771   3.630   3.188   9.055
 5071SOL     OW15772   2.923   3.216   8.783
 5071SOL    HW115773   2.848   3.185   8.834
 5071SOL    HW215774   2.999   3.174   8.824
 5072SOL     OW15775   3.467   3.487   9.099
 5072SOL    HW115776   3.465   3.521   9.009
 5072SOL    HW215777   3.551   3.441   9.105
 5073SOL     OW15778   2.988   3.064   8.555
 5073SOL    HW115779   2.929   3.102   8.621
 5073SOL    HW215780   2.953   3.094   8.471
 5074SOL     OW15781   3.493   2.962   8.527
 5074SOL    HW115782   3.489   3.024   8.599
 5074SOL    HW215783   3.412   2.977   8.478
 5075SOL     OW15784   2.785   1.958   8.848
 5075SOL    HW115785   2.806   1.940   8.756
 5075SOL    HW215786   2.865   1.998   8.883
 5076SOL     OW15787   2.846   2.976   9.170
 5076SOL    HW115788   2.753   2.991   9.189
 5076SOL    HW215789   2.846   2.899   9.113
 5077SOL     OW15790   2.570   2.922   7.820
 5077SOL    HW115791   2.557   2.907   7.914
 5077SOL    HW215792   2.646   2.868   7.798
 5078SOL     OW15793   2.280   2.674   8.699
 5078SOL    HW115794   2.351   2.691   8.761
 5078SOL    HW215795   2.244   2.590   8.726
 5079SOL     OW15796   3.132   2.240   8.721
 5079SOL    HW115797   3.162   2.318   8.767
 5079SOL    HW215798   3.042   2.261   8.695
 5080SOL     OW15799   1.930   3.434   8.798
 5080SOL    HW115800   1.897   3.507   8.745
 5080SOL    HW215801   2.025   3.442   8.793
 5081SOL     OW15802   2.217   2.966   7.938
 5081SOL    HW115803   2.220   3.044   7.882
 5081SOL    HW215804   2.213   2.893   7.877
 5082SOL     OW15805   3.110   3.210   7.837
 5082SOL    HW115806   3.165   3.282   7.868
 5082SOL    HW215807   3.023   3.230   7.871
 5083SOL     OW15808   3.139   3.317   8.594
 5083SOL    HW115809   3.193   3.320   8.672
 5083SOL    HW215810   3.084   3.240   8.605
 5084SOL     OW15811   3.445   2.488   7.924
 5084SOL    HW115812   3.401   2.544   7.988
 5084SOL    HW215813   3.490   2.548   7.866
 5085SOL     OW15814   2.210   3.386   8.766
 5085SOL    HW115815   2.196   3.344   8.681
 5085SOL    HW215816   2.305   3.399   8.772
 5086SOL     OW15817   2.277   2.625   9.052
 5086SOL    HW115818   2.340   2.666   8.993
 5086SOL    HW215819   2.322   2.546   9.083
 5087SOL     OW15820   3.460   2.639   9.127
 5087SOL    HW115821   3.373   2.680   9.120
 5087SOL    HW215822   3.512   2.681   9.059
 5088SOL     OW15823   2.858   1.980   9.204
 5088SOL    HW115824   2.909   2.053   9.171
 5088SOL    HW215825   2.907   1.902   9.179
 5089SOL     OW15826   2.364   1.900   9.193
 5089SOL    HW115827   2.325   1.843   9.126
 5089SOL    HW215828   2.302   1.972   9.203
 5090SOL     OW15829   2.437   2.736   8.474
 5090SOL    HW115830   2.479   2.822   8.474
 5090SOL    HW215831   2.387   2.734   8.556
 5091SOL     OW15832   3.223   2.721   8.481
 5091SOL    HW115833   3.140   2.714   8.433
 5091SOL    HW215834   3.260   2.633   8.479
 5092SOL     OW15835   3.069   2.391   7.717
 5092SOL    HW115836   3.077   2.312   7.771
 5092SOL    HW215837   3.027   2.455   7.774
 5093SOL     OW15838   1.910   3.172   8.725
 5093SOL    HW115839   1.942   3.120   8.798
 5093SOL    HW215840   1.916   3.263   8.756
 5094SOL     OW15841   2.612   2.514   8.532
 5094SOL    HW115842   2.649   2.465   8.458
 5094SOL    HW215843   2.554   2.578   8.492
 5095SOL     OW15844   3.595   2.821   9.299
 5095SOL    HW115845   3.547   2.765   9.237
 5095SOL    HW215846   3.535   2.832   9.372
 5096SOL     OW15847   2.166   1.933   8.075
 5096SOL    HW115848   2.141   2.022   8.103
 5096SOL    HW215849   2.165   1.882   8.155
 5097SOL     OW15850   3.475   2.234   7.817
 5097SOL    HW115851   3.503   2.171   7.884
 5097SOL    HW215852   3.452   2.313   7.867
 5098SOL     OW15853   2.891   2.621   8.410
 5098SOL    HW115854   2.889   2.641   8.503
 5098SOL    HW215855   2.855   2.532   8.404
 5099SOL     OW15856   2.844   3.428   9.162
 5099SOL    HW115857   2.829   3.473   9.079
 5099SOL    HW215858   2.887   3.346   9.138
 5100SOL     OW15859   3.718   3.372   9.054
 5100SOL    HW115860   3.734   3.397   8.963
 5100SOL    HW215861   3.799   3.392   9.100
 5101SOL     OW15862   2.216   2.784   9.261
 5101SOL    HW115863   2.301   2.798   9.304
 5101SOL    HW215864   2.236   2.727   9.187
 5102SOL     OW15865   3.393   2.136   7.575
 5102SOL    HW115866   3.329   2.070   7.602
 5102SOL    HW215867   3.425   2.172   7.658
 5103SOL     OW15868   3.156   2.689   7.481
 5103SOL    HW115869   3.199   2.604   7.484
 5103SOL    HW215870   3.187   2.728   7.399
 5104SOL     OW15871   2.926   3.197   8.300
 5104SOL    HW115872   2.929   3.124   8.238
 5104SOL    HW215873   2.990   3.260   8.266
 5105SOL     OW15874   2.175   2.675   8.392
 5105SOL    HW115875   2.267   2.699   8.389
 5105SOL    HW215876   2.173   2.593   8.440
 5106SOL     OW15877   2.996   2.242   9.126
 5106SOL    HW115878   2.951   2.295   9.191
 5106SOL    HW215879   3.085   2.277   9.123
 5107SOL     OW15880   3.024   2.067   8.918
 5107SOL    HW115881   3.014   2.129   8.990
 5107SOL    HW215882   3.061   2.119   8.846
 5108SOL     OW15883   1.867   3.184   7.643
 5108SOL    HW115884   1.780   3.198   7.605
 5108SOL    HW215885   1.865   3.094   7.676
 5109SOL     OW15886   1.952   3.652   8.384
 5109SOL    HW115887   1.921   3.571   8.342
 5109SOL    HW215888   2.042   3.662   8.353
 5110SOL     OW15889   2.361   3.435   8.354
 5110SOL    HW115890   2.430   3.497   8.377
 5110SOL    HW215891   2.405   3.370   8.300
 5111SOL     OW15892   2.850   2.661   8.676
 5111SOL    HW115893   2.896   2.630   8.754
 5111SOL    HW215894   2.766   2.617   8.679
 5112SOL     OW15895   1.903   2.423   8.564
 5112SOL    HW115896   1.956   2.355   8.521
 5112SOL    HW215897   1.922   2.412   8.657
 5113SOL     OW15898   3.237   2.804   9.107
 5113SOL    HW115899   3.258   2.897   9.108
 5113SOL    HW215900   3.236   2.780   9.015
 5114SOL     OW15901   2.677   2.429   7.804
 5114SOL    HW115902   2.679   2.355   7.743
 5114SOL    HW215903   2.602   2.482   7.775
 5115SOL     OW15904   3.505   2.463   8.638
 5115SOL    HW115905   3.494   2.403   8.711
 5115SOL    HW215906   3.592   2.442   8.603
 5116SOL     OW15907   2.110   3.415   9.179
 5116SOL    HW115908   2.084   3.478   9.246
 5116SOL    HW215909   2.107   3.330   9.223
 5117SOL     OW15910   2.792   3.541   8.914
 5117SOL    HW115911   2.765   3.510   8.827
 5117SOL    HW215912   2.791   3.636   8.907
 5118SOL     OW15913   2.011   3.002   8.920
 5118SOL    HW115914   2.014   2.947   8.999
 5118SOL    HW215915   2.027   2.941   8.848
 5119SOL     OW15916   3.191   2.911   8.673
 5119SOL    HW115917   3.216   2.848   8.605
 5119SOL    HW215918   3.118   2.960   8.635
 5120SOL     OW15919   3.171   2.718   7.755
 5120SOL    HW115920   3.093   2.689   7.804
 5120SOL    HW215921   3.148   2.705   7.663
 5121SOL     OW15922   3.630   3.609   8.597
 5121SOL    HW115923   3.690   3.635   8.527
 5121SOL    HW215924   3.607   3.519   8.576
 5122SOL     OW15925   3.104   3.595   8.565
 5122SOL    HW115926   3.185   3.613   8.518
 5122SOL    HW215927   3.107   3.501   8.582
 5123SOL     OW15928   1.945   3.128   8.462
 5123SOL    HW115929   1.932   3.139   8.556
 5123SOL    HW215930   1.871   3.075   8.433
 5124SOL     OW15931   2.540   3.526   9.172
 5124SOL    HW115932   2.488   3.606   9.170
 5124SOL    HW215933   2.602   3.535   9.100
 5125SOL     OW15934   3.580   2.004   7.960
 5125SOL    HW115935   3.654   1.990   7.901
 5125SOL    HW215936   3.565   1.919   8.000
 5126SOL     OW15937   3.252   3.430   7.931
 5126SOL    HW115938   3.313   3.460   7.863
 5126SOL    HW215939   3.205   3.508   7.958
 5127SOL     OW15940   1.997   3.658   9.291
 5127SOL    HW115941   1.946   3.594   9.340
 5127SOL    HW215942   2.045   3.707   9.358
 5128SOL     OW15943   3.139   2.786   8.119
 5128SOL    HW115944   3.212   2.725   8.124
 5128SOL    HW215945   3.173   2.859   8.067
 5129SOL     OW15946   2.681   3.134   8.879
 5129SOL    HW115947   2.655   3.173   8.963
 5129SOL    HW215948   2.610   3.156   8.819
 5130SOL     OW15949   2.534   3.479   7.603
 5130SOL    HW115950   2.543   3.489   7.509
 5130SOL    HW215951   2.481   3.400   7.614
 5131SOL     OW15952   3.495   3.588   8.840
 5131SOL    HW115953   3.542   3.596   8.757
 5131SOL    HW215954   3.481   3.679   8.869
 5132SOL     OW15955   3.702   2.035   8.416
 5132SOL    HW115956   3.731   1.949   8.386
 5132SOL    HW215957   3.615   2.046   8.376
 5133SOL     OW15958   3.067   3.470   7.479
 5133SOL    HW115959   3.060   3.379   7.506
 5133SOL    HW215960   3.003   3.480   7.409
 5134SOL     OW15961   2.685   2.868   8.820
 5134SOL    HW115962   2.730   2.862   8.736
 5134SOL    HW215963   2.688   2.961   8.842
 5135SOL     OW15964   2.778   2.773   7.737
 5135SOL    HW115965   2.840   2.804   7.671
 5135SOL    HW215966   2.823   2.701   7.781
 5136SOL     OW15967   3.357   3.486   7.490
 5136SOL    HW115968   3.262   3.483   7.479
 5136SOL    HW215969   3.392   3.492   7.401
 5137SOL     OW15970   2.232   3.162   8.939
 5137SOL    HW115971   2.218   3.241   8.886
 5137SOL    HW215972   2.155   3.108   8.923
 5138SOL     OW15973   3.474   3.145   8.729
 5138SOL    HW115974   3.533   3.138   8.804
 5138SOL    HW215975   3.413   3.215   8.753
 5139SOL     OW15976   2.910   2.967   8.153
 5139SOL    HW115977   2.840   2.916   8.193
 5139SOL    HW215978   2.971   2.902   8.118
 5140SOL     OW15979   2.881   2.101   8.413
 5140SOL    HW115980   2.877   2.052   8.331
 5140SOL    HW215981   2.878   2.034   8.481
 5141SOL     OW15982   2.464   3.351   7.931
 5141SOL    HW115983   2.503   3.300   7.860
 5141SOL    HW215984   2.397   3.404   7.887
 5142SOL     OW15985   3.581   2.254   8.828
 5142SOL    HW115986   3.653   2.317   8.826
 5142SOL    HW215987   3.611   2.182   8.772
 5143SOL     OW15988   2.120   3.209   7.735
 5143SOL    HW115989   2.027   3.207   7.713
 5143SOL    HW215990   2.123   3.246   7.823
 5144SOL     OW15991   1.974   2.879   9.167
 5144SOL    HW115992   1.897   2.857   9.220
 5144SOL    HW215993   2.048   2.844   9.217
 5145SOL     OW15994   2.546   2.050   8.941
 5145SOL    HW115995   2.632   2.025   8.906
 5145SOL    HW215996   2.565   2.083   9.029
 5146SOL     OW15997   1.922   2.205   7.497
 5146SOL    HW115998   1.843   2.178   7.450
 5146SOL    HW215999   1.974   2.253   7.432
 5147SOL     OW16000   3.294   2.720   8.850
 5147SOL    HW116001   3.245   2.780   8.793
 5147SOL    HW216002   3.384   2.723   8.817
 5148SOL     OW16003   1.936   2.020   7.761
 5148SOL    HW116004   1.914   2.096   7.708
 5148SOL    HW216005   2.016   1.985   7.722
 5149SOL     OW16006   3.042   3.204   7.565
 5149SOL    HW116007   2.951   3.174   7.568
 5149SOL    HW216008   3.071   3.203   7.656
 5150SOL     OW16009   2.482   2.693   8.879
 5150SOL    HW116010   2.534   2.772   8.865
 5150SOL    HW216011   2.546   2.622   8.883
 5151SOL     OW16012   3.347   3.636   8.423
 5151SOL    HW116013   3.373   3.694   8.351
 5151SOL    HW216014   3.428   3.621   8.472
 5152SOL     OW16015   2.582   2.427   9.149
 5152SOL    HW116016   2.614   2.490   9.213
 5152SOL    HW216017   2.610   2.342   9.182
 5153SOL     OW16018   3.330   3.065   9.081
 5153SOL    HW116019   3.319   3.078   9.175
 5153SOL    HW216020   3.424   3.077   9.067
 5154SOL     OW16021   2.245   3.602   9.011
 5154SOL    HW116022   2.158   3.641   8.999
 5154SOL    HW216023   2.227   3.517   9.053
 5155SOL     OW16024   3.533   2.744   8.704
 5155SOL    HW116025   3.525   2.659   8.661
 5155SOL    HW216026   3.525   2.807   8.632
 5156SOL     OW16027   3.080   2.181   7.906
 5156SOL    HW116028   3.144   2.111   7.896
 5156SOL    HW216029   3.109   2.230   7.983
 5157SOL     OW16030   2.457   2.601   8.092
 5157SOL    HW116031   2.499   2.687   8.091
 5157SOL    HW216032   2.370   2.617   8.056
 5158SOL     OW16033   3.628   2.221   9.097
 5158SOL    HW116034   3.609   2.235   9.004
 5158SOL    HW216035   3.556   2.165   9.127
 5159SOL     OW16036   3.605   2.796   8.961
 5159SOL    HW116037   3.608   2.890   8.973
 5159SOL    HW216038   3.590   2.784   8.867
 5160SOL     OW16039   2.724   3.230   7.478
 5160SOL    HW116040   2.685   3.257   7.561
 5160SOL    HW216041   2.744   3.313   7.434
 5161SOL     OW16042   2.521   3.656   8.396
 5161SOL    HW116043   2.500   3.746   8.371
 5161SOL    HW216044   2.616   3.651   8.388
 5162SOL     OW16045   2.728   2.827   8.304
 5162SOL    HW116046   2.777   2.755   8.345
 5162SOL    HW216047   2.696   2.878   8.378
 5163SOL     OW16048   2.942   2.849   7.536
 5163SOL    HW116049   2.921   2.900   7.458
 5163SOL    HW216050   3.018   2.797   7.511
 5164SOL     OW16051   3.719   3.419   8.293
 5164SOL    HW116052   3.642   3.407   8.238
 5164SOL    HW216053   3.711   3.350   8.359
 5165SOL     OW16054   2.086   3.167   9.304
 5165SOL    HW116055   2.018   3.106   9.275
 5165SOL    HW216056   2.068   3.180   9.397
 5166SOL     OW16057   1.945   3.099   8.112
 5166SOL    HW116058   1.945   3.048   8.193
 5166SOL    HW216059   2.013   3.058   8.058
 5167SOL     OW16060   2.541   3.262   9.073
 5167SOL    HW116061   2.462   3.219   9.104
 5167SOL    HW216062   2.536   3.350   9.111
 5168SOL     OW16063   3.676   2.047   8.686
 5168SOL    HW116064   3.686   1.954   8.702
 5168SOL    HW216065   3.685   2.057   8.591
 5169SOL     OW16066   3.563   3.353   8.549
 5169SOL    HW116067   3.482   3.327   8.505
 5169SOL    HW216068   3.579   3.285   8.613
 5170SOL     OW16069   2.687   3.440   8.128
 5170SOL    HW116070   2.681   3.484   8.043
 5170SOL    HW216071   2.608   3.385   8.131
 5171SOL     OW16072   3.294   2.085   8.566
 5171SOL    HW116073   3.323   2.007   8.614
 5171SOL    HW216074   3.243   2.135   8.629
 5172SOL     OW16075   2.870   1.883   8.593
 5172SOL    HW116076   2.816   1.812   8.557
 5172SOL    HW216077   2.959   1.846   8.595
 5173SOL     OW16078   2.633   3.194   7.758
 5173SOL    HW116079   2.599   3.105   7.765
 5173SOL    HW216080   2.716   3.192   7.807
 5174SOL     OW16081   2.482   3.421   8.732
 5174SOL    HW116082   2.485   3.502   8.783
 5174SOL    HW216083   2.569   3.413   8.693
 5175SOL     OW16084   3.214   1.916   7.612
 5175SOL    HW116085   3.240   1.856   7.541
 5175SOL    HW216086   3.127   1.884   7.639
 5176SOL     OW16087   3.159   2.321   8.131
 5176SOL    HW116088   3.105   2.400   8.139
 5176SOL    HW216089   3.157   2.282   8.218
 5177SOL     OW16090   3.449   2.067   8.325
 5177SOL    HW116091   3.385   2.085   8.393
 5177SOL    HW216092   3.449   2.146   8.270
 5178SOL     OW16093   1.905   2.935   7.753
 5178SOL    HW116094   1.999   2.925   7.737
 5178SOL    HW216095   1.875   2.847   7.776
 5179SOL     OW16096   2.743   3.511   7.793
 5179SOL    HW116097   2.672   3.493   7.731
 5179SOL    HW216098   2.713   3.588   7.842
 5180SOL     OW16099   2.077   2.525   9.427
 5180SOL    HW116100   1.994   2.497   9.467
 5180SOL    HW216101   2.085   2.472   9.348
 5181SOL     OW16102   1.864   2.241   9.946
 5181SOL    HW116103   1.784   2.264   9.993
 5181SOL    HW216104   1.843   2.159   9.901
 5182SOL     OW16105   2.428   3.144  10.482
 5182SOL    HW116106   2.341   3.147  10.444
 5182SOL    HW216107   2.442   3.232  10.517
 5183SOL     OW16108   3.420   3.373  10.015
 5183SOL    HW116109   3.376   3.356  10.098
 5183SOL    HW216110   3.349   3.379   9.951
 5184SOL     OW16111   2.992   2.561  10.012
 5184SOL    HW116112   3.042   2.642  10.000
 5184SOL    HW216113   2.945   2.573  10.095
 5185SOL     OW16114   3.627   2.469   9.540
 5185SOL    HW116115   3.607   2.460   9.447
 5185SOL    HW216116   3.591   2.390   9.581
 5186SOL     OW16117   2.621   3.006  10.348
 5186SOL    HW116118   2.551   3.040  10.403
 5186SOL    HW216119   2.654   3.084  10.302
 5187SOL     OW16120   2.710   2.646   0.019
 5187SOL    HW116121   2.717   2.702   0.097
 5187SOL    HW216122   2.746   2.699  11.048
 5188SOL     OW16123   2.549   2.869   9.959
 5188SOL    HW116124   2.613   2.855  10.029
 5188SOL    HW216125   2.479   2.921  10.001
 5189SOL     OW16126   2.194   3.290  10.377
 5189SOL    HW116127   2.121   3.255  10.327
 5189SOL    HW216128   2.244   3.341  10.314
 5190SOL     OW16129   3.325   3.362  10.656
 5190SOL    HW116130   3.375   3.443  10.667
 5190SOL    HW216131   3.281   3.350  10.741
 5191SOL     OW16132   3.475   2.312  10.049
 5191SOL    HW116133   3.399   2.337   9.997
 5191SOL    HW216134   3.496   2.389  10.101
 5192SOL     OW16135   2.082   3.575   9.785
 5192SOL    HW116136   2.106   3.652   9.837
 5192SOL    HW216137   2.151   3.569   9.719
 5193SOL     OW16138   2.092   3.301   9.845
 5193SOL    HW116139   2.075   3.395   9.850
 5193SOL    HW216140   2.029   3.262   9.906
 5194SOL     OW16141   2.117   2.954  10.200
 5194SOL    HW116142   2.111   2.868  10.241
 5194SOL    HW216143   2.058   3.009  10.252
 5195SOL     OW16144   2.477   3.652  10.740
 5195SOL    HW116145   2.396   3.633  10.788
 5195SOL    HW216146   2.499   3.741  10.765
 5196SOL     OW16147   2.453   2.840   9.438
 5196SOL    HW116148   2.495   2.895   9.373
 5196SOL    HW216149   2.492   2.867   9.521
 5197SOL     OW16150   3.451   1.978  10.780
 5197SOL    HW116151   3.458   2.057  10.727
 5197SOL    HW216152   3.453   2.009  10.870
 5198SOL     OW16153   1.968   2.507   9.869
 5198SOL    HW116154   1.944   2.418   9.894
 5198SOL    HW216155   1.967   2.556   9.951
 5199SOL     OW16156   3.703   3.623   9.647
 5199SOL    HW116157   3.763   3.594   9.716
 5199SOL    HW216158   3.730   3.713   9.629
 5200SOL     OW16159   1.892   3.458   9.434
 5200SOL    HW116160   1.874   3.366   9.454
 5200SOL    HW216161   1.867   3.505   9.514
 5201SOL     OW16162   3.551   2.781   9.947
 5201SOL    HW116163   3.637   2.742   9.931
 5201SOL    HW216164   3.532   2.831   9.868
 5202SOL     OW16165   3.507   2.970   9.740
 5202SOL    HW116166   3.592   2.979   9.697
 5202SOL    HW216167   3.512   3.030   9.814
 5203SOL     OW16168   1.981   2.598  10.889
 5203SOL    HW116169   2.065   2.606  10.935
 5203SOL    HW216170   1.937   2.681  10.905
 5204SOL     OW16171   2.475   3.244  10.045
 5204SOL    HW116172   2.428   3.161  10.054
 5204SOL    HW216173   2.458   3.271   9.955
 5205SOL     OW16174   3.159   3.100  10.750
 5205SOL    HW116175   3.183   3.038  10.681
 5205SOL    HW216176   3.214   3.075  10.825
 5206SOL     OW16177   2.673   1.860   9.814
 5206SOL    HW116178   2.715   1.945   9.799
 5206SOL    HW216179   2.580   1.881   9.826
 5207SOL     OW16180   2.055   2.832  10.574
 5207SOL    HW116181   2.137   2.786  10.557
 5207SOL    HW216182   1.987   2.773  10.542
 5208SOL     OW16183   3.394   2.853   9.506
 5208SOL    HW116184   3.324   2.795   9.536
 5208SOL    HW216185   3.433   2.887   9.587
 5209SOL     OW16186   3.057   3.667  10.926
 5209SOL    HW116187   3.059   3.728  10.853
 5209SOL    HW216188   3.064   3.581  10.885
 5210SOL     OW16189   3.328   3.282  10.263
 5210SOL    HW116190   3.259   3.296  10.328
 5210SOL    HW216191   3.316   3.191  10.235
 5211SOL     OW16192   3.523   3.595   9.888
 5211SOL    HW116193   3.500   3.567   9.799
 5211SOL    HW216194   3.497   3.522   9.943
 5212SOL     OW16195   2.462   2.587   9.578
 5212SOL    HW116196   2.477   2.655   9.513
 5212SOL    HW216197   2.381   2.613   9.622
 5213SOL     OW16198   3.143   2.210  10.243
 5213SOL    HW116199   3.053   2.178  10.249
 5213SOL    HW216200   3.192   2.157  10.305
 5214SOL     OW16201   3.444   3.530   9.619
 5214SOL    HW116202   3.532   3.565   9.613
 5214SOL    HW216203   3.419   3.513   9.528
 5215SOL     OW16204   2.653   2.466  10.760
 5215SOL    HW116205   2.631   2.457  10.853
 5215SOL    HW216206   2.597   2.403  10.716
 5216SOL     OW16207   2.827   2.758  10.898
 5216SOL    HW116208   2.876   2.686  10.858
 5216SOL    HW216209   2.778   2.796  10.825
 5217SOL     OW16210   2.859   2.269  10.551
 5217SOL    HW116211   2.780   2.311  10.584
 5217SOL    HW216212   2.832   2.231  10.467
 5218SOL     OW16213   2.910   2.560   9.737
 5218SOL    HW116214   2.926   2.553   9.831
 5218SOL    HW216215   2.828   2.513   9.723
 5219SOL     OW16216   1.951   2.683  10.084
 5219SOL    HW116217   2.033   2.677  10.134
 5219SOL    HW216218   1.907   2.759  10.120
 5220SOL     OW16219   1.991   3.699  10.893
 5220SOL    HW116220   1.972   3.669  10.982
 5220SOL    HW216221   1.905   3.708  10.852
 5221SOL     OW16222   2.748   2.209   9.505
 5221SOL    HW116223   2.793   2.269   9.445
 5221SOL    HW216224   2.763   2.122   9.467
 5222SOL     OW16225   3.237   3.004   9.852
 5222SOL    HW116226   3.315   2.990   9.799
 5222SOL    HW216227   3.185   3.067   9.801
 5223SOL     OW16228   2.871   3.308   9.784
 5223SOL    HW116229   2.830   3.379   9.735
 5223SOL    HW216230   2.857   3.331   9.876
 5224SOL     OW16231   2.216   3.668  10.167
 5224SOL    HW116232   2.260   3.584  10.177
 5224SOL    HW216233   2.284   3.733  10.184
 5225SOL     OW16234   3.659   2.923  10.177
 5225SOL    HW116235   3.603   2.906  10.102
 5225SOL    HW216236   3.600   2.927  10.252
 5226SOL     OW16237   3.087   3.403  10.825
 5226SOL    HW116238   3.097   3.316  10.864
 5226SOL    HW216239   3.030   3.389  10.749
 5227SOL     OW16240   2.190   2.805   9.564
 5227SOL    HW116241   2.265   2.831   9.510
 5227SOL    HW216242   2.149   2.734   9.515
 5228SOL     OW16243   3.337   2.601  10.038
 5228SOL    HW116244   3.326   2.555  10.121
 5228SOL    HW216245   3.414   2.656  10.051
 5229SOL     OW16246   2.314   3.131  11.053
 5229SOL    HW116247   2.287   3.138  10.961
 5229SOL    HW216248   2.250   3.072  11.093
 5230SOL     OW16249   2.982   3.639   9.542
 5230SOL    HW116250   2.911   3.596   9.589
 5230SOL    HW216251   3.004   3.580   9.470
 5231SOL     OW16252   3.492   3.241   9.397
 5231SOL    HW116253   3.451   3.326   9.382
 5231SOL    HW216254   3.422   3.177   9.378
 5232SOL     OW16255   2.329   3.600   9.631
 5232SOL    HW116256   2.369   3.657   9.698
 5232SOL    HW216257   2.402   3.573   9.576
 5233SOL     OW16258   3.263   1.970   9.740
 5233SOL    HW116259   3.251   1.945   9.648
 5233SOL    HW216260   3.358   1.977   9.751
 5234SOL     OW16261   2.116   3.655  10.544
 5234SOL    HW116262   2.168   3.592  10.594
 5234SOL    HW216263   2.106   3.614  10.457
 5235SOL     OW16264   2.800   3.560  10.211
 5235SOL    HW116265   2.878   3.507  10.230
 5235SOL    HW216266   2.754   3.511  10.142
 5236SOL     OW16267   2.486   1.994   9.415
 5236SOL    HW116268   2.560   1.938   9.441
 5236SOL    HW216269   2.449   1.950   9.339
 5237SOL     OW16270   2.630   2.132  11.046
 5237SOL    HW116271   2.698   2.076  11.083
 5237SOL    HW216272   2.573   2.153   0.020
 5238SOL     OW16273   2.738   3.382  10.503
 5238SOL    HW116274   2.723   3.347  10.415
 5238SOL    HW216275   2.809   3.330  10.539
 5239SOL     OW16276   3.204   2.452  10.753
 5239SOL    HW116277   3.254   2.429  10.831
 5239SOL    HW216278   3.233   2.540  10.730
 5240SOL     OW16279   2.675   3.260  10.246
 5240SOL    HW116280   2.759   3.250  10.200
 5240SOL    HW216281   2.610   3.258  10.176
 5241SOL     OW16282   2.798   2.369  10.220
 5241SOL    HW116283   2.761   2.367  10.132
 5241SOL    HW216284   2.827   2.280  10.236
 5242SOL     OW16285   2.406   1.929   9.810
 5242SOL    HW116286   2.328   1.920   9.864
 5242SOL    HW216287   2.399   2.016   9.771
 5243SOL     OW16288   3.291   3.059   9.351
 5243SOL    HW116289   3.322   2.984   9.401
 5243SOL    HW216290   3.205   3.079   9.389
 5244SOL     OW16291   2.160   1.905   9.495
 5244SOL    HW116292   2.225   1.973   9.479
 5244SOL    HW216293   2.210   1.833   9.535
 5245SOL     OW16294   2.797   2.104   9.771
 5245SOL    HW116295   2.771   2.149   9.690
 5245SOL    HW216296   2.892   2.116   9.776
 5246SOL     OW16297   2.939   2.544  10.770
 5246SOL    HW116298   2.871   2.477  10.776
 5246SOL    HW216299   3.021   2.494  10.766
 5247SOL     OW16300   3.086   3.432  10.104
 5247SOL    HW116301   3.105   3.499  10.038
 5247SOL    HW216302   3.155   3.443  10.170
 5248SOL     OW16303   2.329   3.009  10.046
 5248SOL    HW116304   2.258   2.993  10.108
 5248SOL    HW216305   2.291   2.992   9.960
 5249SOL     OW16306   3.133   3.657   9.915
 5249SOL    HW116307   3.177   3.718   9.856
 5249SOL    HW216308   3.069   3.711   9.962
 5250SOL     OW16309   2.888   2.407   9.329
 5250SOL    HW116310   2.846   2.491   9.309
 5250SOL    HW216311   2.952   2.428   9.398
 5251SOL     OW16312   1.943   2.423  10.691
 5251SOL    HW116313   2.035   2.401  10.701
 5251SOL    HW216314   1.926   2.487  10.760
 5252SOL     OW16315   2.441   2.005  10.435
 5252SOL    HW116316   2.465   1.973  10.522
 5252SOL    HW216317   2.363   2.059  10.450
 5253SOL     OW16318   2.743   2.321   9.948
 5253SOL    HW116319   2.687   2.375   9.893
 5253SOL    HW216320   2.754   2.239   9.899
 5254SOL     OW16321   2.877   1.913  10.064
 5254SOL    HW116322   2.817   1.906   9.989
 5254SOL    HW216323   2.856   1.838  10.119
 5255SOL     OW16324   3.297   3.026  10.168
 5255SOL    HW116325   3.231   2.957  10.166
 5255SOL    HW216326   3.320   3.040  10.076
 5256SOL     OW16327   3.329   2.465  10.291
 5256SOL    HW116328   3.282   2.381  10.294
 5256SOL    HW216329   3.391   2.461  10.364
 5257SOL     OW16330   3.710   2.681   9.691
 5257SOL    HW116331   3.765   2.628   9.749
 5257SOL    HW216332   3.680   2.619   9.624
 5258SOL     OW16333   2.354   3.276   9.471
 5258SOL    HW116334   2.279   3.246   9.523
 5258SOL    HW216335   2.333   3.249   9.382
 5259SOL     OW16336   3.530   3.127   9.959
 5259SOL    HW116337   3.625   3.132   9.971
 5259SOL    HW216338   3.498   3.215   9.980
 5260SOL     OW16339   3.255   2.434   9.381
 5260SOL    HW116340   3.196   2.415   9.454
 5260SOL    HW216341   3.340   2.400   9.411
 5261SOL     OW16342   3.622   3.091  10.874
 5261SOL    HW116343   3.713   3.061  10.878
 5261SOL    HW216344   3.624   3.178  10.914
 5262SOL     OW16345   2.927   3.216  10.650
 5262SOL    HW116346   2.849   3.183  10.695
 5262SOL    HW216347   3.000   3.168  10.690
 5263SOL     OW16348   2.987   3.066  10.417
 5263SOL    HW116349   2.925   3.102  10.480
 5263SOL    HW216350   2.955   3.094  10.332
 5264SOL     OW16351   3.493   2.962  10.389
 5264SOL    HW116352   3.490   3.024  10.462
 5264SOL    HW216353   3.412   2.978  10.340
 5265SOL     OW16354   2.783   1.959  10.710
 5265SOL    HW116355   2.804   1.941  10.618
 5265SOL    HW216356   2.862   2.001  10.744
 5266SOL     OW16357   2.570   2.922   9.682
 5266SOL    HW116358   2.557   2.909   9.776
 5266SOL    HW216359   2.646   2.868   9.659
 5267SOL     OW16360   2.280   2.669  10.561
 5267SOL    HW116361   2.351   2.690  10.622
 5267SOL    HW216362   2.237   2.593  10.600
 5268SOL     OW16363   3.132   2.240  10.586
 5268SOL    HW116364   3.162   2.320  10.630
 5268SOL    HW216365   3.043   2.261  10.557
 5269SOL     OW16366   1.930   3.436  10.658
 5269SOL    HW116367   1.899   3.510  10.605
 5269SOL    HW216368   2.025   3.443  10.654
 5270SOL     OW16369   2.218   2.966   9.800
 5270SOL    HW116370   2.220   3.044   9.745
 5270SOL    HW216371   2.213   2.893   9.738
 5271SOL     OW16372   2.515   2.429  10.147
 5271SOL    HW116373   2.486   2.485  10.075
 5271SOL    HW216374   2.474   2.466  10.225
 5272SOL     OW16375   3.110   3.210   9.699
 5272SOL    HW116376   3.165   3.282   9.730
 5272SOL    HW216377   3.023   3.230   9.733
 5273SOL     OW16378   3.138   3.318  10.454
 5273SOL    HW116379   3.194   3.322  10.531
 5273SOL    HW216380   3.085   3.239  10.466
 5274SOL     OW16381   3.445   2.488   9.786
 5274SOL    HW116382   3.401   2.543   9.850
 5274SOL    HW216383   3.490   2.549   9.728
 5275SOL     OW16384   2.209   3.384  10.627
 5275SOL    HW116385   2.197   3.342  10.542
 5275SOL    HW216386   2.304   3.399  10.633
 5276SOL     OW16387   2.279   2.600  10.905
 5276SOL    HW116388   2.342   2.647  10.850
 5276SOL    HW216389   2.325   2.520  10.931
 5277SOL     OW16390   3.453   2.625  10.971
 5277SOL    HW116391   3.375   2.681  10.964
 5277SOL    HW216392   3.522   2.675  10.928
 5278SOL     OW16393   2.440   2.731  10.337
 5278SOL    HW116394   2.477   2.819  10.332
 5278SOL    HW216395   2.388   2.731  10.418
 5279SOL     OW16396   3.222   2.722  10.346
 5279SOL    HW116397   3.141   2.715  10.295
 5279SOL    HW216398   3.260   2.635  10.343
 5280SOL     OW16399   3.069   2.391   9.579
 5280SOL    HW116400   3.077   2.313   9.633
 5280SOL    HW216401   3.027   2.455   9.637
 5281SOL     OW16402   1.912   3.173  10.586
 5281SOL    HW116403   1.939   3.120  10.661
 5281SOL    HW216404   1.915   3.263  10.618
 5282SOL     OW16405   2.613   2.513  10.401
 5282SOL    HW116406   2.650   2.467  10.326
 5282SOL    HW216407   2.568   2.589  10.363
 5283SOL     OW16408   2.162   1.906   9.939
 5283SOL    HW116409   2.120   1.989   9.960
 5283SOL    HW216410   2.170   1.861  10.023
 5284SOL     OW16411   3.475   2.234   9.679
 5284SOL    HW116412   3.503   2.171   9.746
 5284SOL    HW216413   3.452   2.313   9.729
 5285SOL     OW16414   2.890   2.623  10.271
 5285SOL    HW116415   2.889   2.641  10.365
 5285SOL    HW216416   2.859   2.533  10.264
 5286SOL     OW16417   2.836   3.434  11.004
 5286SOL    HW116418   2.822   3.483  10.924
 5286SOL    HW216419   2.869   3.349  10.975
 5287SOL     OW16420   3.721   3.359  10.912
 5287SOL    HW116421   3.735   3.394  10.824
 5287SOL    HW216422   3.788   3.401  10.965
 5288SOL     OW16423   2.225   2.790  11.090
 5288SOL    HW116424   2.308   2.795   0.035
 5288SOL    HW216425   2.235   2.717  11.029
 5289SOL     OW16426   3.393   2.136   9.437
 5289SOL    HW116427   3.329   2.070   9.464
 5289SOL    HW216428   3.425   2.172   9.520
 5290SOL     OW16429   3.156   2.689   9.343
 5290SOL    HW116430   3.199   2.604   9.347
 5290SOL    HW216431   3.187   2.728   9.261
 5291SOL     OW16432   2.927   3.196  10.163
 5291SOL    HW116433   2.930   3.123  10.100
 5291SOL    HW216434   2.990   3.260  10.128
 5292SOL     OW16435   2.173   2.678  10.254
 5292SOL    HW116436   2.267   2.699  10.251
 5292SOL    HW216437   2.169   2.597  10.304
 5293SOL     OW16438   3.019   2.072  10.782
 5293SOL    HW116439   3.032   2.130  10.857
 5293SOL    HW216440   3.057   2.120  10.708
 5294SOL     OW16441   1.867   3.184   9.505
 5294SOL    HW116442   1.780   3.198   9.467
 5294SOL    HW216443   1.865   3.094   9.538
 5295SOL     OW16444   1.951   3.652  10.246
 5295SOL    HW116445   1.921   3.571  10.203
 5295SOL    HW216446   2.042   3.662  10.215
 5296SOL     OW16447   2.361   3.435  10.215
 5296SOL    HW116448   2.430   3.497  10.239
 5296SOL    HW216449   2.406   3.370  10.162
 5297SOL     OW16450   2.850   2.661  10.538
 5297SOL    HW116451   2.897   2.633  10.617
 5297SOL    HW216452   2.766   2.616  10.543
 5298SOL     OW16453   1.906   2.418  10.422
 5298SOL    HW116454   1.960   2.348  10.386
 5298SOL    HW216455   1.922   2.415  10.516
 5299SOL     OW16456   2.675   2.429   9.665
 5299SOL    HW116457   2.680   2.356   9.604
 5299SOL    HW216458   2.601   2.482   9.634
 5300SOL     OW16459   3.505   2.463  10.498
 5300SOL    HW116460   3.495   2.404  10.572
 5300SOL    HW216461   3.592   2.444  10.463
 5301SOL     OW16462   2.118   3.426  11.054
 5301SOL    HW116463   2.065   3.467   0.023
 5301SOL    HW216464   2.115   3.332  11.074
 5302SOL     OW16465   2.803   3.544  10.761
 5302SOL    HW116466   2.764   3.514  10.679
 5302SOL    HW216467   2.791   3.639  10.759
 5303SOL     OW16468   2.017   3.000  10.781
 5303SOL    HW116469   2.011   2.943  10.858
 5303SOL    HW216470   2.029   2.939  10.708
 5304SOL     OW16471   3.189   2.916  10.539
 5304SOL    HW116472   3.217   2.851  10.474
 5304SOL    HW216473   3.117   2.962  10.497
 5305SOL     OW16474   3.171   2.718   9.617
 5305SOL    HW116475   3.094   2.688   9.666
 5305SOL    HW216476   3.148   2.705   9.525
 5306SOL     OW16477   3.631   3.610  10.460
 5306SOL    HW116478   3.690   3.635  10.389
 5306SOL    HW216479   3.607   3.519  10.440
 5307SOL     OW16480   3.104   3.595  10.427
 5307SOL    HW116481   3.185   3.614  10.381
 5307SOL    HW216482   3.106   3.501  10.444
 5308SOL     OW16483   1.945   3.128  10.323
 5308SOL    HW116484   1.934   3.140  10.417
 5308SOL    HW216485   1.870   3.075  10.296
 5309SOL     OW16486   3.580   2.004   9.822
 5309SOL    HW116487   3.654   1.990   9.763
 5309SOL    HW216488   3.565   1.919   9.862
 5310SOL     OW16489   3.252   3.430   9.792
 5310SOL    HW116490   3.313   3.460   9.725
 5310SOL    HW216491   3.205   3.508   9.820
 5311SOL     OW16492   3.139   2.787   9.982
 5311SOL    HW116493   3.212   2.725   9.986
 5311SOL    HW216494   3.173   2.860   9.930
 5312SOL     OW16495   2.684   3.134  10.739
 5312SOL    HW116496   2.655   3.168  10.824
 5312SOL    HW216497   2.613   3.156  10.679
 5313SOL     OW16498   2.534   3.479   9.465
 5313SOL    HW116499   2.543   3.489   9.371
 5313SOL    HW216500   2.481   3.400   9.476
 5314SOL     OW16501   3.489   3.581  10.700
 5314SOL    HW116502   3.542   3.595  10.621
 5314SOL    HW216503   3.475   3.669  10.735
 5315SOL     OW16504   3.702   2.035  10.278
 5315SOL    HW116505   3.731   1.949  10.249
 5315SOL    HW216506   3.615   2.046  10.238
 5316SOL     OW16507   3.067   3.470   9.341
 5316SOL    HW116508   3.059   3.379   9.368
 5316SOL    HW216509   3.003   3.480   9.271
 5317SOL     OW16510   2.686   2.868  10.684
 5317SOL    HW116511   2.730   2.861  10.600
 5317SOL    HW216512   2.689   2.961  10.705
 5318SOL     OW16513   2.777   2.772   9.599
 5318SOL    HW116514   2.839   2.804   9.534
 5318SOL    HW216515   2.824   2.701   9.644
 5319SOL     OW16516   3.357   3.486   9.352
 5319SOL    HW116517   3.262   3.483   9.341
 5319SOL    HW216518   3.392   3.492   9.263
 5320SOL     OW16519   2.231   3.165  10.804
 5320SOL    HW116520   2.217   3.241  10.747
 5320SOL    HW216521   2.156   3.108  10.786
 5321SOL     OW16522   3.474   3.145  10.593
 5321SOL    HW116523   3.531   3.135  10.669
 5321SOL    HW216524   3.417   3.218  10.615
 5322SOL     OW16525   2.910   2.967  10.015
 5322SOL    HW116526   2.840   2.915  10.055
 5322SOL    HW216527   2.971   2.902   9.981
 5323SOL     OW16528   2.884   2.101  10.276
 5323SOL    HW116529   2.877   2.054  10.193
 5323SOL    HW216530   2.876   2.033  10.343
 5324SOL     OW16531   2.463   3.351   9.793
 5324SOL    HW116532   2.503   3.300   9.722
 5324SOL    HW216533   2.397   3.404   9.749
 5325SOL     OW16534   3.578   2.256  10.688
 5325SOL    HW116535   3.650   2.318  10.688
 5325SOL    HW216536   3.609   2.184  10.632
 5326SOL     OW16537   2.120   3.208   9.597
 5326SOL    HW116538   2.027   3.207   9.575
 5326SOL    HW216539   2.123   3.246   9.685
 5327SOL     OW16540   1.973   2.872  11.021
 5327SOL    HW116541   1.904   2.853  11.084
 5327SOL    HW216542   2.054   2.843  11.065
 5328SOL     OW16543   2.542   2.051  10.799
 5328SOL    HW116544   2.626   2.028  10.761
 5328SOL    HW216545   2.563   2.091  10.884
 5329SOL     OW16546   1.900   2.193   9.350
 5329SOL    HW116547   1.821   2.163   9.305
 5329SOL    HW216548   1.928   2.271   9.301
 5330SOL     OW16549   3.293   2.711  10.710
 5330SOL    HW116550   3.245   2.778  10.661
 5330SOL    HW216551   3.384   2.720  10.681
 5331SOL     OW16552   1.934   2.020   9.625
 5331SOL    HW116553   1.912   2.096   9.573
 5331SOL    HW216554   2.019   1.991   9.592
 5332SOL     OW16555   3.042   3.204   9.427
 5332SOL    HW116556   2.951   3.174   9.430
 5332SOL    HW216557   3.071   3.203   9.518
 5333SOL     OW16558   2.482   2.693  10.740
 5333SOL    HW116559   2.536   2.772  10.727
 5333SOL    HW216560   2.546   2.622  10.747
 5334SOL     OW16561   3.347   3.636  10.285
 5334SOL    HW116562   3.374   3.694  10.213
 5334SOL    HW216563   3.427   3.620  10.334
 5335SOL     OW16564   2.578   2.427  11.017
 5335SOL    HW116565   2.609   2.500  11.071
 5335SOL    HW216566   2.632   2.353  11.044
 5336SOL     OW16567   2.247   3.594  10.869
 5336SOL    HW116568   2.166   3.646  10.864
 5336SOL    HW216569   2.223   3.519  10.924
 5337SOL     OW16570   3.534   2.745  10.567
 5337SOL    HW116571   3.525   2.659  10.524
 5337SOL    HW216572   3.526   2.808  10.495
 5338SOL     OW16573   3.081   2.182   9.767
 5338SOL    HW116574   3.144   2.111   9.758
 5338SOL    HW216575   3.109   2.230   9.845
 5339SOL     OW16576   2.444   2.613   9.964
 5339SOL    HW116577   2.490   2.696   9.953
 5339SOL    HW216578   2.366   2.621   9.908
 5340SOL     OW16579   3.618   2.183  10.950
 5340SOL    HW116580   3.598   2.219  10.863
 5340SOL    HW216581   3.536   2.194  10.999
 5341SOL     OW16582   3.610   2.797  10.825
 5341SOL    HW116583   3.605   2.892  10.838
 5341SOL    HW216584   3.593   2.785  10.732
 5342SOL     OW16585   2.724   3.230   9.340
 5342SOL    HW116586   2.685   3.257   9.423
 5342SOL    HW216587   2.744   3.313   9.295
 5343SOL     OW16588   2.521   3.656  10.258
 5343SOL    HW116589   2.499   3.746  10.234
 5343SOL    HW216590   2.616   3.651  10.250
 5344SOL     OW16591   2.727   2.826  10.166
 5344SOL    HW116592   2.777   2.755  10.206
 5344SOL    HW216593   2.697   2.878  10.241
 5345SOL     OW16594   2.941   2.849   9.398
 5345SOL    HW116595   2.921   2.900   9.320
 5345SOL    HW216596   3.018   2.797   9.373
 5346SOL     OW16597   3.719   3.419  10.155
 5346SOL    HW116598   3.642   3.407  10.100
 5346SOL    HW216599   3.712   3.350  10.222
 5347SOL     OW16600   1.945   3.099   9.974
 5347SOL    HW116601   1.944   3.048  10.055
 5347SOL    HW216602   2.013   3.058   9.921
 5348SOL     OW16603   2.539   3.255  10.934
 5348SOL    HW116604   2.466   3.206  10.970
 5348SOL    HW216605   2.514   3.347  10.942
 5349SOL     OW16606   3.674   2.047  10.549
 5349SOL    HW116607   3.684   1.953  10.563
 5349SOL    HW216608   3.684   2.058  10.454
 5350SOL     OW16609   3.563   3.354  10.411
 5350SOL    HW116610   3.483   3.327  10.367
 5350SOL    HW216611   3.581   3.285  10.475
 5351SOL     OW16612   2.687   3.440   9.990
 5351SOL    HW116613   2.681   3.485   9.905
 5351SOL    HW216614   2.608   3.385   9.993
 5352SOL     OW16615   3.294   2.085  10.428
 5352SOL    HW116616   3.324   2.007  10.476
 5352SOL    HW216617   3.243   2.134  10.493
 5353SOL     OW16618   2.870   1.881  10.457
 5353SOL    HW116619   2.817   1.813  10.416
 5353SOL    HW216620   2.958   1.845  10.458
 5354SOL     OW16621   2.633   3.194   9.620
 5354SOL    HW116622   2.599   3.105   9.627
 5354SOL    HW216623   2.716   3.192   9.669
 5355SOL     OW16624   2.481   3.420  10.595
 5355SOL    HW116625   2.483   3.502  10.644
 5355SOL    HW216626   2.568   3.414  10.555
 5356SOL     OW16627   3.214   1.916   9.474
 5356SOL    HW116628   3.240   1.856   9.403
 5356SOL    HW216629   3.128   1.884   9.501
 5357SOL     OW16630   3.160   2.322   9.993
 5357SOL    HW116631   3.104   2.399  10.000
 5357SOL    HW216632   3.156   2.282  10.080
 5358SOL     OW16633   3.450   2.068  10.187
 5358SOL    HW116634   3.385   2.085  10.255
 5358SOL    HW216635   3.449   2.146  10.132
 5359SOL     OW16636   1.905   2.935   9.615
 5359SOL    HW116637   1.998   2.926   9.599
 5359SOL    HW216638   1.875   2.847   9.638
 5360SOL     OW16639   2.743   3.511   9.655
 5360SOL    HW116640   2.672   3.493   9.593
 5360SOL    HW216641   2.713   3.588   9.704
 5361SOL     OW16642   2.068   4.295   0.090
 5361SOL    HW116643   2.037   4.352   0.160
 5361SOL    HW216644   2.082   4.354   0.016
 5362SOL     OW16645   2.086   4.001   0.990
 5362SOL    HW116646   2.114   3.969   1.076
 5362SOL    HW216647   1.996   3.969   0.981
 5363SOL     OW16648   1.868   4.102   0.643
 5363SOL    HW116649   1.784   4.128   0.681
 5363SOL    HW216650   1.848   4.025   0.590
 5364SOL     OW16651   3.600   4.333   0.228
 5364SOL    HW116652   3.607   4.305   0.137
 5364SOL    HW216653   3.591   4.251   0.278
 5365SOL     OW16654   2.591   0.267   0.682
 5365SOL    HW116655   2.588   0.204   0.755
 5365SOL    HW216656   2.499   0.285   0.662
 5366SOL     OW16657   2.308   4.119   1.488
 5366SOL    HW116658   2.385   4.062   1.495
 5366SOL    HW216659   2.234   4.060   1.502
 5367SOL     OW16660   3.477   4.173   0.739
 5367SOL    HW116661   3.405   4.200   0.682
 5367SOL    HW216662   3.487   4.245   0.801
 5368SOL     OW16663   3.459   3.845   1.470
 5368SOL    HW116664   3.455   3.923   1.416
 5368SOL    HW216665   3.447   3.876   1.560
 5369SOL     OW16666   1.952   4.365   0.561
 5369SOL    HW116667   1.934   4.275   0.588
 5369SOL    HW216668   1.997   4.405   0.635
 5370SOL     OW16669   1.982   4.472   1.584
 5370SOL    HW116670   2.053   4.486   1.647
 5370SOL    HW216671   1.949   0.060   1.566
 5371SOL     OW16672   2.674   3.724   0.505
 5371SOL    HW116673   2.713   3.810   0.491
 5371SOL    HW216674   2.581   3.742   0.516
 5372SOL     OW16675   2.192   3.976   1.805
 5372SOL    HW116676   2.237   4.059   1.822
 5372SOL    HW216677   2.103   3.989   1.838
 5373SOL     OW16678   3.140   4.070   0.932
 5373SOL    HW116679   3.051   4.036   0.941
 5373SOL    HW216680   3.192   4.019   0.995
 5374SOL     OW16681   2.685   4.310   1.451
 5374SOL    HW116682   2.643   4.315   1.537
 5374SOL    HW216683   2.620   4.267   1.395
 5375SOL     OW16684   3.258   4.199   1.677
 5375SOL    HW116685   3.257   4.242   1.762
 5375SOL    HW216686   3.318   4.125   1.687
 5376SOL     OW16687   2.857   4.147   1.235
 5376SOL    HW116688   2.783   4.167   1.292
 5376SOL    HW216689   2.821   4.089   1.168
 5377SOL     OW16690   2.921   4.403   0.424
 5377SOL    HW116691   2.921   4.450   0.507
 5377SOL    HW216692   2.829   4.384   0.406
 5378SOL     OW16693   2.745   4.072   0.208
 5378SOL    HW116694   2.793   4.129   0.147
 5378SOL    HW216695   2.761   3.984   0.175
 5379SOL     OW16696   3.568   4.298   1.828
 5379SOL    HW116697   3.576   4.387   1.795
 5379SOL    HW216698   3.591   4.242   1.754
 5380SOL     OW16699   2.412   3.907   0.891
 5380SOL    HW116700   2.413   3.934   0.983
 5380SOL    HW216701   2.411   3.990   0.843
 5381SOL     OW16702   3.348   4.460   0.736
 5381SOL    HW116703   3.329   4.407   0.813
 5381SOL    HW216704   3.390   0.039   0.771
 5382SOL     OW16705   2.060   4.006   1.501
 5382SOL    HW116706   1.976   4.052   1.493
 5382SOL    HW216707   2.046   3.943   1.572
 5383SOL     OW16708   3.264   3.831   0.429
 5383SOL    HW116709   3.254   3.808   0.337
 5383SOL    HW216710   3.358   3.840   0.442
 5384SOL     OW16711   2.219   4.381   0.409
 5384SOL    HW116712   2.259   4.309   0.457
 5384SOL    HW216713   2.149   4.412   0.466
 5385SOL     OW16714   3.400   3.951   1.725
 5385SOL    HW116715   3.407   3.972   1.818
 5385SOL    HW216716   3.332   3.883   1.722
 5386SOL     OW16717   2.476   3.831   0.124
 5386SOL    HW116718   2.567   3.801   0.121
 5386SOL    HW216719   2.443   3.818   0.035
 5387SOL     OW16720   2.630   4.001   1.753
 5387SOL    HW116721   2.703   3.938   1.759
 5387SOL    HW216722   2.578   3.986   1.832
 5388SOL     OW16723   3.208   4.311   1.428
 5388SOL    HW116724   3.230   4.274   1.514
 5388SOL    HW216725   3.244   4.399   1.430
 5389SOL     OW16726   2.784   4.237   0.900
 5389SOL    HW116727   2.762   4.220   0.808
 5389SOL    HW216728   2.824   4.155   0.930
 5390SOL     OW16729   2.410   3.787   0.506
 5390SOL    HW116730   2.329   3.787   0.556
 5390SOL    HW216731   2.405   3.865   0.452
 5391SOL     OW16732   2.149   3.770   0.198
 5391SOL    HW116733   2.191   3.825   0.132
 5391SOL    HW216734   2.216   3.707   0.223
 5392SOL     OW16735   2.799   3.970   0.465
 5392SOL    HW116736   2.770   4.011   0.384
 5392SOL    HW216737   2.894   3.982   0.467
 5393SOL     OW16738   2.940   4.396   1.511
 5393SOL    HW116739   2.855   4.365   1.478
 5393SOL    HW216740   3.005   4.351   1.457
 5394SOL     OW16741   2.871   4.266   0.039
 5394SOL    HW116742   2.878   4.329  11.067
 5394SOL    HW216743   2.952   4.277   0.089
 5395SOL     OW16744   1.936   4.280   1.391
 5395SOL    HW116745   2.027   4.272   1.363
 5395SOL    HW216746   1.936   4.353   1.453
 5396SOL     OW16747   2.423   3.950   1.162
 5396SOL    HW116748   2.462   3.871   1.200
 5396SOL    HW216749   2.332   3.949   1.193
 5397SOL     OW16750   2.731   4.188   0.639
 5397SOL    HW116751   2.698   4.248   0.574
 5397SOL    HW216752   2.749   4.107   0.591
 5398SOL     OW16753   2.876   3.777   0.754
 5398SOL    HW116754   2.817   3.768   0.678
 5398SOL    HW216755   2.856   3.701   0.808
 5399SOL     OW16756   3.338   4.313   0.970
 5399SOL    HW116757   3.284   4.236   0.990
 5399SOL    HW216758   3.391   4.326   1.049
 5400SOL     OW16759   3.261   4.295   0.073
 5400SOL    HW116760   3.197   4.277   0.142
 5400SOL    HW216761   3.332   4.232   0.089
 5401SOL     OW16762   2.390   3.990   0.327
 5401SOL    HW116763   2.415   3.929   0.257
 5401SOL    HW216764   2.373   4.073   0.282
 5402SOL     OW16765   2.780   3.822   1.399
 5402SOL    HW116766   2.803   3.802   1.308
 5402SOL    HW216767   2.859   3.861   1.436
 5403SOL     OW16768   2.294   0.008   1.267
 5403SOL    HW116769   2.360   0.008   1.336
 5403SOL    HW216770   2.252   4.422   1.273
 5404SOL     OW16771   3.128   4.101   1.272
 5404SOL    HW116772   3.162   4.178   1.318
 5404SOL    HW216773   3.040   4.125   1.247
 5405SOL     OW16774   2.417   4.257   0.865
 5405SOL    HW116775   2.438   4.304   0.785
 5405SOL    HW216776   2.480   4.289   0.929
 5406SOL     OW16777   3.443   4.343   0.478
 5406SOL    HW116778   3.398   4.406   0.534
 5406SOL    HW216779   3.488   4.397   0.412
 5407SOL     OW16780   2.859   3.841   1.757
 5407SOL    HW116781   2.910   3.915   1.725
 5407SOL    HW216782   2.908   3.764   1.730
 5408SOL     OW16783   2.361   3.768   1.746
 5408SOL    HW116784   2.319   3.713   1.679
 5408SOL    HW216785   2.300   3.840   1.758
 5409SOL     OW16786   3.075   4.252   0.267
 5409SOL    HW116787   3.084   4.173   0.320
 5409SOL    HW216788   3.025   4.312   0.323
 5410SOL     OW16789   2.163   3.925   1.245
 5410SOL    HW116790   2.126   3.958   1.327
 5410SOL    HW216791   2.143   3.831   1.246
 5411SOL     OW16792   2.592   4.360   1.049
 5411SOL    HW116793   2.666   4.325   0.998
 5411SOL    HW216794   2.596   4.454   1.035
 5412SOL     OW16795   3.612   0.137   1.856
 5412SOL    HW116796   3.550   0.148   1.784
 5412SOL    HW216797   3.564   0.168   1.934
 5413SOL     OW16798   2.164   3.790   0.623
 5413SOL    HW116799   2.146   3.881   0.648
 5413SOL    HW216800   2.169   3.743   0.706
 5414SOL     OW16801   3.474   4.092   0.369
 5414SOL    HW116802   3.503   4.030   0.436
 5414SOL    HW216803   3.453   4.171   0.418
 5415SOL     OW16804   3.399   4.009   0.118
 5415SOL    HW116805   3.338   3.937   0.135
 5415SOL    HW216806   3.429   4.035   0.205
 5416SOL     OW16807   2.179   0.012   0.922
 5416SOL    HW116808   2.256   0.068   0.934
 5416SOL    HW216809   2.191   4.441   0.984
 5417SOL     OW16810   2.199   4.239   1.019
 5417SOL    HW116811   2.159   4.154   0.999
 5417SOL    HW216812   2.272   4.247   0.958
 5418SOL     OW16813   3.000   4.096   1.683
 5418SOL    HW116814   2.949   4.155   1.739
 5418SOL    HW216815   3.085   4.139   1.674
 5419SOL     OW16816   3.022   3.928   1.469
 5419SOL    HW116817   3.013   3.989   1.542
 5419SOL    HW216818   3.060   3.980   1.398
 5420SOL     OW16819   1.899   4.270   1.115
 5420SOL    HW116820   1.980   4.250   1.069
 5420SOL    HW216821   1.924   4.274   1.207
 5421SOL     OW16822   2.054   4.243   1.717
 5421SOL    HW116823   2.111   4.200   1.654
 5421SOL    HW216824   1.999   4.301   1.665
 5422SOL     OW16825   2.677   4.306   0.328
 5422SOL    HW116826   2.685   4.220   0.287
 5422SOL    HW216827   2.582   4.318   0.339
 5423SOL     OW16828   3.500   4.319   1.190
 5423SOL    HW116829   3.494   4.260   1.265
 5423SOL    HW216830   3.588   4.304   1.154
 5424SOL     OW16831   2.546   4.182   1.259
 5424SOL    HW116832   2.502   4.104   1.226
 5424SOL    HW216833   2.549   4.241   1.183
 5425SOL     OW16834   2.337   4.219   0.186
 5425SOL    HW116835   2.378   4.304   0.202
 5425SOL    HW216836   2.243   4.237   0.186
 5426SOL     OW16837   2.778   3.814   0.111
 5426SOL    HW116838   2.830   3.780   0.038
 5426SOL    HW216839   2.814   3.771   0.188
 5427SOL     OW16840   3.580   3.866   0.513
 5427SOL    HW116841   3.654   3.853   0.453
 5427SOL    HW216842   3.565   3.780   0.552
 5428SOL     OW16843   3.141   0.139   0.681
 5428SOL    HW116844   3.198   0.062   0.685
 5428SOL    HW216845   3.189   0.201   0.628
 5429SOL     OW16846   3.701   3.897   0.968
 5429SOL    HW116847   3.730   3.811   0.938
 5429SOL    HW216848   3.615   3.908   0.928
 5430SOL     OW16849   2.126   4.043   0.719
 5430SOL    HW116850   2.039   4.074   0.693
 5430SOL    HW216851   2.120   4.031   0.814
 5431SOL     OW16852   2.925   0.306   0.720
 5431SOL    HW116853   2.839   0.268   0.702
 5431SOL    HW216854   2.988   0.238   0.696
 5432SOL     OW16855   2.881   3.964   0.965
 5432SOL    HW116856   2.876   3.915   0.883
 5432SOL    HW216857   2.876   3.897   1.033
 5433SOL     OW16858   3.581   4.114   1.380
 5433SOL    HW116859   3.652   4.178   1.377
 5433SOL    HW216860   3.611   4.043   1.324
 5434SOL     OW16861   2.534   3.919   1.499
 5434SOL    HW116862   2.618   3.902   1.456
 5434SOL    HW216863   2.558   3.950   1.587
 5435SOL     OW16864   1.939   4.052   0.053
 5435SOL    HW116865   1.870   4.045  11.087
 5435SOL    HW216866   1.969   4.142   0.046
 5436SOL     OW16867   1.932   3.884   0.316
 5436SOL    HW116868   1.918   3.960   0.260
 5436SOL    HW216869   2.014   3.846   0.285
 5437SOL     OW16870   2.587   4.288   1.704
 5437SOL    HW116871   2.594   4.336   1.787
 5437SOL    HW216872   2.616   4.200   1.725
 5438SOL     OW16873   3.080   4.041   0.456
 5438SOL    HW116874   3.145   3.971   0.446
 5438SOL    HW216875   3.109   4.090   0.533
 5439SOL     OW16876   3.625   4.088   1.647
 5439SOL    HW116877   3.608   4.098   1.554
 5439SOL    HW216878   3.556   4.030   1.679
 5440SOL     OW16879   2.960   0.203   0.051
 5440SOL    HW116880   2.960   0.288   0.006
 5440SOL    HW216881   3.052   0.176   0.051
 5441SOL     OW16882   3.677   3.909   1.238
 5441SOL    HW116883   3.686   3.815   1.254
 5441SOL    HW216884   3.685   3.919   1.143
 5442SOL     OW16885   2.306   4.153   0.538
 5442SOL    HW116886   2.326   4.084   0.475
 5442SOL    HW216887   2.249   4.112   0.603
 5443SOL     OW16888   2.185   4.265   1.293
 5443SOL    HW116889   2.241   4.210   1.348
 5443SOL    HW216890   2.206   4.239   1.203
 5444SOL     OW16891   3.294   3.947   1.118
 5444SOL    HW116892   3.323   3.870   1.165
 5444SOL    HW216893   3.242   3.996   1.181
 5445SOL     OW16894   2.870   3.745   1.146
 5445SOL    HW116895   2.815   3.676   1.107
 5445SOL    HW216896   2.958   3.708   1.147
 5446SOL     OW16897   3.213   3.777   0.164
 5446SOL    HW116898   3.236   3.728   0.085
 5446SOL    HW216899   3.127   3.744   0.189
 5447SOL     OW16900   3.162   4.176   0.682
 5447SOL    HW116901   3.119   4.260   0.696
 5447SOL    HW216902   3.162   4.135   0.769
 5448SOL     OW16903   3.449   3.929   0.877
 5448SOL    HW116904   3.385   3.948   0.945
 5448SOL    HW216905   3.450   4.008   0.822
 5449SOL     OW16906   2.088   4.292   1.985
 5449SOL    HW116907   2.026   4.356   2.021
 5449SOL    HW216908   2.078   4.299   1.891
 5450SOL     OW16909   2.086   4.000   2.852
 5450SOL    HW116910   2.114   3.969   2.938
 5450SOL    HW216911   1.996   3.969   2.843
 5451SOL     OW16912   1.868   4.102   2.505
 5451SOL    HW116913   1.785   4.129   2.543
 5451SOL    HW216914   1.847   4.025   2.453
 5452SOL     OW16915   3.598   4.335   2.098
 5452SOL    HW116916   3.596   4.320   2.004
 5452SOL    HW216917   3.595   4.247   2.136
 5453SOL     OW16918   2.587   0.266   2.544
 5453SOL    HW116919   2.586   0.209   2.620
 5453SOL    HW216920   2.495   0.285   2.527
 5454SOL     OW16921   2.308   4.119   3.350
 5454SOL    HW116922   2.385   4.062   3.357
 5454SOL    HW216923   2.234   4.060   3.364
 5455SOL     OW16924   3.477   4.173   2.600
 5455SOL    HW116925   3.404   4.200   2.544
 5455SOL    HW216926   3.486   4.245   2.663
 5456SOL     OW16927   3.458   3.845   3.332
 5456SOL    HW116928   3.456   3.923   3.278
 5456SOL    HW216929   3.447   3.876   3.422
 5457SOL     OW16930   1.945   4.369   2.427
 5457SOL    HW116931   1.935   4.276   2.451
 5457SOL    HW216932   2.000   4.405   2.496
 5458SOL     OW16933   1.982   4.472   3.447
 5458SOL    HW116934   2.053   4.486   3.509
 5458SOL    HW216935   1.949   0.060   3.427
 5459SOL     OW16936   2.674   3.723   2.367
 5459SOL    HW116937   2.714   3.808   2.352
 5459SOL    HW216938   2.581   3.742   2.378
 5460SOL     OW16939   2.192   3.975   3.667
 5460SOL    HW116940   2.237   4.059   3.684
 5460SOL    HW216941   2.103   3.989   3.700
 5461SOL     OW16942   3.140   4.070   2.794
 5461SOL    HW116943   3.051   4.036   2.803
 5461SOL    HW216944   3.192   4.019   2.857
 5462SOL     OW16945   2.685   4.309   3.313
 5462SOL    HW116946   2.643   4.315   3.399
 5462SOL    HW216947   2.620   4.267   3.257
 5463SOL     OW16948   3.258   4.199   3.539
 5463SOL    HW116949   3.257   4.242   3.624
 5463SOL    HW216950   3.318   4.126   3.549
 5464SOL     OW16951   2.858   4.146   3.097
 5464SOL    HW116952   2.784   4.168   3.154
 5464SOL    HW216953   2.821   4.089   3.030
 5465SOL     OW16954   2.918   4.409   2.283
 5465SOL    HW116955   2.919   4.444   2.372
 5465SOL    HW216956   2.830   4.375   2.271
 5466SOL     OW16957   2.747   4.063   2.053
 5466SOL    HW116958   2.792   4.126   1.996
 5466SOL    HW216959   2.768   3.977   2.016
 5467SOL     OW16960   3.568   4.298   3.690
 5467SOL    HW116961   3.576   4.387   3.657
 5467SOL    HW216962   3.591   4.243   3.615
 5468SOL     OW16963   2.412   3.907   2.753
 5468SOL    HW116964   2.413   3.934   2.845
 5468SOL    HW216965   2.411   3.990   2.705
 5469SOL     OW16966   3.350   4.461   2.598
 5469SOL    HW116967   3.329   4.408   2.674
 5469SOL    HW216968   3.391   0.040   2.634
 5470SOL     OW16969   2.060   4.006   3.363
 5470SOL    HW116970   1.977   4.052   3.355
 5470SOL    HW216971   2.046   3.944   3.435
 5471SOL     OW16972   3.263   3.831   2.292
 5471SOL    HW116973   3.252   3.806   2.200
 5471SOL    HW216974   3.357   3.840   2.303
 5472SOL     OW16975   2.219   4.384   2.273
 5472SOL    HW116976   2.259   4.311   2.320
 5472SOL    HW216977   2.148   4.413   2.331
 5473SOL     OW16978   3.400   3.951   3.587
 5473SOL    HW116979   3.408   3.972   3.680
 5473SOL    HW216980   3.332   3.883   3.584
 5474SOL     OW16981   2.491   3.849   1.969
 5474SOL    HW116982   2.566   3.791   1.979
 5474SOL    HW216983   2.445   3.816   1.892
 5475SOL     OW16984   2.630   4.000   3.614
 5475SOL    HW116985   2.703   3.938   3.621
 5475SOL    HW216986   2.579   3.987   3.694
 5476SOL     OW16987   3.208   4.311   3.290
 5476SOL    HW116988   3.230   4.274   3.376
 5476SOL    HW216989   3.244   4.399   3.292
 5477SOL     OW16990   2.784   4.236   2.761
 5477SOL    HW116991   2.762   4.220   2.669
 5477SOL    HW216992   2.824   4.155   2.791
 5478SOL     OW16993   2.410   3.787   2.367
 5478SOL    HW116994   2.329   3.788   2.419
 5478SOL    HW216995   2.404   3.866   2.313
 5479SOL     OW16996   2.155   3.770   2.046
 5479SOL    HW116997   2.213   3.836   2.008
 5479SOL    HW216998   2.213   3.707   2.086
 5480SOL     OW16999   2.797   3.969   2.327
 5480SOL    HW117000   2.769   4.009   2.244
 5480SOL    HW217001   2.893   3.980   2.327
 5481SOL     OW17002   2.940   4.395   3.374
 5481SOL    HW117003   2.855   4.365   3.341
 5481SOL    HW217004   3.005   4.352   3.319
 5482SOL     OW17005   2.887   4.269   1.885
 5482SOL    HW117006   2.867   4.357   1.852
 5482SOL    HW217007   2.950   4.284   1.956
 5483SOL     OW17008   1.936   4.280   3.253
 5483SOL    HW117009   2.027   4.272   3.225
 5483SOL    HW217010   1.936   4.353   3.315
 5484SOL     OW17011   2.423   3.950   3.024
 5484SOL    HW117012   2.462   3.871   3.063
 5484SOL    HW217013   2.332   3.949   3.055
 5485SOL     OW17014   2.732   4.189   2.500
 5485SOL    HW117015   2.695   4.247   2.434
 5485SOL    HW217016   2.750   4.107   2.453
 5486SOL     OW17017   2.876   3.777   2.616
 5486SOL    HW117018   2.817   3.768   2.540
 5486SOL    HW217019   2.856   3.701   2.670
 5487SOL     OW17020   3.339   4.313   2.832
 5487SOL    HW117021   3.284   4.237   2.852
 5487SOL    HW217022   3.391   4.326   2.911
 5488SOL     OW17023   3.262   4.296   1.934
 5488SOL    HW117024   3.201   4.270   2.003
 5488SOL    HW217025   3.345   4.255   1.960
 5489SOL     OW17026   2.386   3.987   2.183
 5489SOL    HW117027   2.426   3.936   2.112
 5489SOL    HW217028   2.372   4.074   2.145
 5490SOL     OW17029   2.780   3.822   3.261
 5490SOL    HW117030   2.803   3.802   3.170
 5490SOL    HW217031   2.859   3.861   3.298
 5491SOL     OW17032   2.294   0.008   3.129
 5491SOL    HW117033   2.360   0.009   3.198
 5491SOL    HW217034   2.252   4.422   3.135
 5492SOL     OW17035   3.129   4.101   3.134
 5492SOL    HW117036   3.162   4.178   3.180
 5492SOL    HW217037   3.040   4.125   3.109
 5493SOL     OW17038   2.417   4.256   2.727
 5493SOL    HW117039   2.437   4.304   2.647
 5493SOL    HW217040   2.480   4.289   2.791
 5494SOL     OW17041   3.435   4.342   2.337
 5494SOL    HW117042   3.403   4.407   2.399
 5494SOL    HW217043   3.493   4.391   2.279
 5495SOL     OW17044   2.859   3.841   3.619
 5495SOL    HW117045   2.910   3.916   3.587
 5495SOL    HW217046   2.908   3.764   3.592
 5496SOL     OW17047   2.360   3.767   3.608
 5496SOL    HW117048   2.319   3.713   3.541
 5496SOL    HW217049   2.300   3.840   3.620
 5497SOL     OW17050   3.074   4.255   2.129
 5497SOL    HW117051   3.083   4.176   2.181
 5497SOL    HW217052   3.024   4.315   2.185
 5498SOL     OW17053   2.163   3.925   3.107
 5498SOL    HW117054   2.126   3.958   3.189
 5498SOL    HW217055   2.142   3.831   3.108
 5499SOL     OW17056   2.592   4.360   2.911
 5499SOL    HW117057   2.665   4.326   2.859
 5499SOL    HW217058   2.596   4.454   2.898
 5500SOL     OW17059   3.611   0.136   3.718
 5500SOL    HW117060   3.550   0.149   3.646
 5500SOL    HW217061   3.564   0.168   3.796
 5501SOL     OW17062   2.164   3.790   2.485
 5501SOL    HW117063   2.146   3.881   2.510
 5501SOL    HW217064   2.169   3.743   2.568
 5502SOL     OW17065   3.474   4.091   2.232
 5502SOL    HW117066   3.503   4.030   2.300
 5502SOL    HW217067   3.452   4.171   2.279
 5503SOL     OW17068   3.391   3.999   1.989
 5503SOL    HW117069   3.329   3.932   2.015
 5503SOL    HW217070   3.425   4.034   2.071
 5504SOL     OW17071   2.179   0.012   2.784
 5504SOL    HW117072   2.256   0.069   2.796
 5504SOL    HW217073   2.192   4.441   2.847
 5505SOL     OW17074   2.199   4.239   2.882
 5505SOL    HW117075   2.160   4.154   2.861
 5505SOL    HW217076   2.272   4.247   2.820
 5506SOL     OW17077   3.000   4.096   3.546
 5506SOL    HW117078   2.949   4.155   3.601
 5506SOL    HW217079   3.085   4.139   3.536
 5507SOL     OW17080   3.022   3.928   3.331
 5507SOL    HW117081   3.013   3.989   3.404
 5507SOL    HW217082   3.060   3.980   3.261
 5508SOL     OW17083   1.899   4.270   2.977
 5508SOL    HW117084   1.980   4.251   2.931
 5508SOL    HW217085   1.924   4.274   3.069
 5509SOL     OW17086   2.054   4.243   3.579
 5509SOL    HW117087   2.112   4.201   3.515
 5509SOL    HW217088   1.999   4.301   3.527
 5510SOL     OW17089   2.681   4.285   2.204
 5510SOL    HW117090   2.679   4.209   2.147
 5510SOL    HW217091   2.593   4.323   2.197
 5511SOL     OW17092   3.500   4.319   3.051
 5511SOL    HW117093   3.494   4.260   3.127
 5511SOL    HW217094   3.588   4.304   3.016
 5512SOL     OW17095   2.546   4.182   3.120
 5512SOL    HW117096   2.501   4.104   3.088
 5512SOL    HW217097   2.549   4.241   3.045
 5513SOL     OW17098   2.343   4.222   2.053
 5513SOL    HW117099   2.378   4.310   2.069
 5513SOL    HW217100   2.249   4.235   2.045
 5514SOL     OW17101   3.580   3.866   2.375
 5514SOL    HW117102   3.654   3.852   2.315
 5514SOL    HW217103   3.565   3.780   2.414
 5515SOL     OW17104   3.142   0.138   2.541
 5515SOL    HW117105   3.200   0.062   2.546
 5515SOL    HW217106   3.191   0.203   2.491
 5516SOL     OW17107   3.701   3.897   2.830
 5516SOL    HW117108   3.730   3.811   2.800
 5516SOL    HW217109   3.615   3.908   2.790
 5517SOL     OW17110   2.126   4.042   2.580
 5517SOL    HW117111   2.039   4.074   2.555
 5517SOL    HW217112   2.120   4.031   2.675
 5518SOL     OW17113   2.774   0.093   2.088
 5518SOL    HW117114   2.855   0.135   2.060
 5518SOL    HW217115   2.796   0.051   2.171
 5519SOL     OW17116   2.929   0.306   2.598
 5519SOL    HW117117   2.844   0.286   2.558
 5519SOL    HW217118   2.988   0.240   2.562
 5520SOL     OW17119   2.881   3.964   2.827
 5520SOL    HW117120   2.876   3.915   2.745
 5520SOL    HW217121   2.876   3.897   2.895
 5521SOL     OW17122   3.581   4.114   3.242
 5521SOL    HW117123   3.652   4.178   3.239
 5521SOL    HW217124   3.611   4.043   3.186
 5522SOL     OW17125   2.534   3.919   3.361
 5522SOL    HW117126   2.618   3.902   3.318
 5522SOL    HW217127   2.558   3.949   3.448
 5523SOL     OW17128   1.937   4.048   1.892
 5523SOL    HW117129   1.848   4.039   1.856
 5523SOL    HW217130   1.968   4.132   1.859
 5524SOL     OW17131   1.933   3.882   2.176
 5524SOL    HW117132   1.917   3.962   2.125
 5524SOL    HW217133   2.017   3.850   2.144
 5525SOL     OW17134   2.586   4.288   3.566
 5525SOL    HW117135   2.594   4.337   3.648
 5525SOL    HW217136   2.617   4.200   3.587
 5526SOL     OW17137   3.082   4.043   2.317
 5526SOL    HW117138   3.145   3.972   2.308
 5526SOL    HW217139   3.110   4.090   2.395
 5527SOL     OW17140   3.626   4.087   3.509
 5527SOL    HW117141   3.608   4.097   3.416
 5527SOL    HW217142   3.556   4.030   3.541
 5528SOL     OW17143   2.971   0.230   1.967
 5528SOL    HW117144   2.949   0.269   1.882
 5528SOL    HW217145   3.049   0.177   1.949
 5529SOL     OW17146   3.676   3.909   3.100
 5529SOL    HW117147   3.686   3.815   3.116
 5529SOL    HW217148   3.685   3.919   3.005
 5530SOL     OW17149   2.306   4.153   2.400
 5530SOL    HW117150   2.323   4.084   2.336
 5530SOL    HW217151   2.249   4.111   2.465
 5531SOL     OW17152   2.185   4.264   3.155
 5531SOL    HW117153   2.241   4.210   3.210
 5531SOL    HW217154   2.206   4.239   3.065
 5532SOL     OW17155   3.294   3.947   2.980
 5532SOL    HW117156   3.323   3.870   3.028
 5532SOL    HW217157   3.242   3.996   3.043
 5533SOL     OW17158   2.870   3.745   3.008
 5533SOL    HW117159   2.816   3.676   2.969
 5533SOL    HW217160   2.958   3.708   3.009
 5534SOL     OW17161   3.214   3.778   2.025
 5534SOL    HW117162   3.240   3.718   1.955
 5534SOL    HW217163   3.128   3.746   2.053
 5535SOL     OW17164   3.161   4.176   2.545
 5535SOL    HW117165   3.119   4.261   2.559
 5535SOL    HW217166   3.162   4.135   2.631
 5536SOL     OW17167   3.449   3.929   2.738
 5536SOL    HW117168   3.385   3.948   2.807
 5536SOL    HW217169   3.450   4.008   2.684
 5537SOL     OW17170   2.087   4.291   3.847
 5537SOL    HW117171   2.027   4.357   3.883
 5537SOL    HW217172   2.078   4.299   3.753
 5538SOL     OW17173   2.086   4.000   4.714
 5538SOL    HW117174   2.114   3.969   4.800
 5538SOL    HW217175   1.996   3.969   4.706
 5539SOL     OW17176   1.868   4.101   4.368
 5539SOL    HW117177   1.785   4.129   4.405
 5539SOL    HW217178   1.846   4.025   4.314
 5540SOL     OW17179   3.598   4.335   3.960
 5540SOL    HW117180   3.596   4.320   3.866
 5540SOL    HW217181   3.595   4.247   3.998
 5541SOL     OW17182   2.587   0.265   4.405
 5541SOL    HW117183   2.586   0.210   4.483
 5541SOL    HW217184   2.495   0.286   4.389
 5542SOL     OW17185   2.308   4.119   5.212
 5542SOL    HW117186   2.385   4.063   5.219
 5542SOL    HW217187   2.234   4.059   5.227
 5543SOL     OW17188   3.477   4.173   4.462
 5543SOL    HW117189   3.405   4.200   4.406
 5543SOL    HW217190   3.486   4.245   4.526
 5544SOL     OW17191   3.459   3.845   5.194
 5544SOL    HW117192   3.455   3.924   5.140
 5544SOL    HW217193   3.447   3.876   5.284
 5545SOL     OW17194   1.944   4.369   4.290
 5545SOL    HW117195   1.935   4.277   4.314
 5545SOL    HW217196   2.001   4.406   4.358
 5546SOL     OW17197   1.982   4.472   5.309
 5546SOL    HW117198   2.053   4.487   5.371
 5546SOL    HW217199   1.949   0.060   5.289
 5547SOL     OW17200   2.673   3.723   4.227
 5547SOL    HW117201   2.714   3.808   4.214
 5547SOL    HW217202   2.580   3.742   4.240
 5548SOL     OW17203   2.192   3.976   5.528
 5548SOL    HW117204   2.237   4.058   5.546
 5548SOL    HW217205   2.103   3.989   5.562
 5549SOL     OW17206   3.140   4.069   4.656
 5549SOL    HW117207   3.051   4.036   4.665
 5549SOL    HW217208   3.192   4.019   4.719
 5550SOL     OW17209   2.685   4.309   5.175
 5550SOL    HW117210   2.643   4.315   5.261
 5550SOL    HW217211   2.620   4.267   5.119
 5551SOL     OW17212   3.258   4.199   5.400
 5551SOL    HW117213   3.257   4.242   5.486
 5551SOL    HW217214   3.318   4.125   5.411
 5552SOL     OW17215   2.858   4.147   4.959
 5552SOL    HW117216   2.784   4.168   5.016
 5552SOL    HW217217   2.821   4.088   4.892
 5553SOL     OW17218   2.919   4.409   4.145
 5553SOL    HW117219   2.920   4.444   4.234
 5553SOL    HW217220   2.830   4.375   4.134
 5554SOL     OW17221   2.747   4.063   3.914
 5554SOL    HW117222   2.792   4.126   3.858
 5554SOL    HW217223   2.769   3.977   3.878
 5555SOL     OW17224   3.568   4.298   5.552
 5555SOL    HW117225   3.576   4.387   5.519
 5555SOL    HW217226   3.591   4.242   5.477
 5556SOL     OW17227   2.410   3.908   4.615
 5556SOL    HW117228   2.413   3.934   4.707
 5556SOL    HW217229   2.412   3.991   4.567
 5557SOL     OW17230   3.350   4.461   4.460
 5557SOL    HW117231   3.329   4.408   4.536
 5557SOL    HW217232   3.391   0.040   4.496
 5558SOL     OW17233   2.060   4.005   5.224
 5558SOL    HW117234   1.977   4.053   5.217
 5558SOL    HW217235   2.046   3.946   5.298
 5559SOL     OW17236   3.263   3.831   4.154
 5559SOL    HW117237   3.252   3.806   4.062
 5559SOL    HW217238   3.357   3.841   4.165
 5560SOL     OW17239   2.218   4.384   4.135
 5560SOL    HW117240   2.259   4.311   4.181
 5560SOL    HW217241   2.149   4.414   4.193
 5561SOL     OW17242   3.400   3.950   5.449
 5561SOL    HW117243   3.407   3.972   5.542
 5561SOL    HW217244   3.332   3.882   5.446
 5562SOL     OW17245   2.490   3.848   3.832
 5562SOL    HW117246   2.567   3.792   3.841
 5562SOL    HW217247   2.445   3.816   3.754
 5563SOL     OW17248   2.630   4.000   5.476
 5563SOL    HW117249   2.703   3.938   5.483
 5563SOL    HW217250   2.579   3.986   5.556
 5564SOL     OW17251   3.208   4.311   5.152
 5564SOL    HW117252   3.230   4.274   5.238
 5564SOL    HW217253   3.244   4.399   5.154
 5565SOL     OW17254   2.784   4.236   4.623
 5565SOL    HW117255   2.762   4.220   4.531
 5565SOL    HW217256   2.824   4.155   4.653
 5566SOL     OW17257   2.409   3.787   4.229
 5566SOL    HW117258   2.329   3.788   4.281
 5566SOL    HW217259   2.404   3.866   4.175
 5567SOL     OW17260   2.155   3.770   3.908
 5567SOL    HW117261   2.213   3.837   3.870
 5567SOL    HW217262   2.214   3.707   3.948
 5568SOL     OW17263   2.797   3.969   4.189
 5568SOL    HW117264   2.769   4.010   4.107
 5568SOL    HW217265   2.892   3.980   4.190
 5569SOL     OW17266   2.940   4.395   5.236
 5569SOL    HW117267   2.855   4.365   5.203
 5569SOL    HW217268   3.005   4.352   5.181
 5570SOL     OW17269   2.887   4.269   3.747
 5570SOL    HW117270   2.868   4.357   3.714
 5570SOL    HW217271   2.950   4.284   3.818
 5571SOL     OW17272   1.936   4.280   5.116
 5571SOL    HW117273   2.027   4.272   5.087
 5571SOL    HW217274   1.936   4.353   5.178
 5572SOL     OW17275   2.423   3.949   4.886
 5572SOL    HW117276   2.463   3.872   4.925
 5572SOL    HW217277   2.333   3.949   4.917
 5573SOL     OW17278   2.732   4.189   4.362
 5573SOL    HW117279   2.695   4.247   4.296
 5573SOL    HW217280   2.750   4.107   4.315
 5574SOL     OW17281   2.876   3.777   4.477
 5574SOL    HW117282   2.818   3.768   4.402
 5574SOL    HW217283   2.857   3.701   4.532
 5575SOL     OW17284   3.339   4.312   4.694
 5575SOL    HW117285   3.284   4.237   4.714
 5575SOL    HW217286   3.391   4.326   4.773
 5576SOL     OW17287   3.262   4.296   3.796
 5576SOL    HW117288   3.201   4.270   3.865
 5576SOL    HW217289   3.345   4.256   3.822
 5577SOL     OW17290   2.386   3.987   4.045
 5577SOL    HW117291   2.426   3.936   3.974
 5577SOL    HW217292   2.372   4.074   4.007
 5578SOL     OW17293   2.780   3.823   5.122
 5578SOL    HW117294   2.803   3.802   5.032
 5578SOL    HW217295   2.859   3.861   5.159
 5579SOL     OW17296   2.294   0.008   4.991
 5579SOL    HW117297   2.360   0.009   5.060
 5579SOL    HW217298   2.252   4.422   4.998
 5580SOL     OW17299   3.129   4.101   4.996
 5580SOL    HW117300   3.162   4.178   5.042
 5580SOL    HW217301   3.040   4.125   4.970
 5581SOL     OW17302   2.417   4.256   4.589
 5581SOL    HW117303   2.437   4.304   4.509
 5581SOL    HW217304   2.480   4.289   4.653
 5582SOL     OW17305   3.435   4.342   4.199
 5582SOL    HW117306   3.402   4.407   4.261
 5582SOL    HW217307   3.493   4.391   4.141
 5583SOL     OW17308   2.858   3.842   5.481
 5583SOL    HW117309   2.910   3.915   5.449
 5583SOL    HW217310   2.908   3.764   5.455
 5584SOL     OW17311   2.360   3.768   5.470
 5584SOL    HW117312   2.320   3.713   5.403
 5584SOL    HW217313   2.299   3.841   5.482
 5585SOL     OW17314   3.074   4.255   3.991
 5585SOL    HW117315   3.084   4.176   4.043
 5585SOL    HW217316   3.024   4.315   4.047
 5586SOL     OW17317   2.163   3.925   4.969
 5586SOL    HW117318   2.127   3.958   5.051
 5586SOL    HW217319   2.142   3.831   4.970
 5587SOL     OW17320   2.592   4.359   4.773
 5587SOL    HW117321   2.665   4.326   4.722
 5587SOL    HW217322   2.596   4.454   4.760
 5588SOL     OW17323   3.611   0.136   5.581
 5588SOL    HW117324   3.550   0.149   5.508
 5588SOL    HW217325   3.564   0.168   5.658
 5589SOL     OW17326   2.163   3.790   4.347
 5589SOL    HW117327   2.146   3.881   4.372
 5589SOL    HW217328   2.169   3.743   4.430
 5590SOL     OW17329   3.473   4.091   4.094
 5590SOL    HW117330   3.503   4.030   4.162
 5590SOL    HW217331   3.452   4.171   4.141
 5591SOL     OW17332   3.391   3.999   3.851
 5591SOL    HW117333   3.329   3.932   3.877
 5591SOL    HW217334   3.425   4.034   3.933
 5592SOL     OW17335   2.180   0.012   4.646
 5592SOL    HW117336   2.256   0.069   4.657
 5592SOL    HW217337   2.192   4.442   4.710
 5593SOL     OW17338   2.199   4.239   4.744
 5593SOL    HW117339   2.160   4.154   4.723
 5593SOL    HW217340   2.272   4.247   4.682
 5594SOL     OW17341   3.000   4.096   5.407
 5594SOL    HW117342   2.949   4.155   5.463
 5594SOL    HW217343   3.085   4.139   5.398
 5595SOL     OW17344   3.022   3.928   5.193
 5595SOL    HW117345   3.013   3.989   5.266
 5595SOL    HW217346   3.060   3.981   5.122
 5596SOL     OW17347   1.899   4.269   4.839
 5596SOL    HW117348   1.981   4.251   4.793
 5596SOL    HW217349   1.924   4.274   4.931
 5597SOL     OW17350   2.053   4.242   5.441
 5597SOL    HW117351   2.112   4.202   5.377
 5597SOL    HW217352   1.999   4.302   5.389
 5598SOL     OW17353   2.681   4.285   4.067
 5598SOL    HW117354   2.678   4.208   4.009
 5598SOL    HW217355   2.594   4.324   4.059
 5599SOL     OW17356   3.500   4.319   4.913
 5599SOL    HW117357   3.494   4.260   4.989
 5599SOL    HW217358   3.588   4.304   4.878
 5600SOL     OW17359   2.545   4.182   4.983
 5600SOL    HW117360   2.501   4.104   4.949
 5600SOL    HW217361   2.549   4.241   4.907
 5601SOL     OW17362   2.343   4.222   3.915
 5601SOL    HW117363   2.378   4.309   3.931
 5601SOL    HW217364   2.248   4.236   3.907
 5602SOL     OW17365   3.580   3.866   4.237
 5602SOL    HW117366   3.654   3.852   4.177
 5602SOL    HW217367   3.565   3.780   4.276
 5603SOL     OW17368   3.141   0.137   4.402
 5603SOL    HW117369   3.200   0.062   4.408
 5603SOL    HW217370   3.191   0.204   4.354
 5604SOL     OW17371   3.701   3.897   4.692
 5604SOL    HW117372   3.730   3.811   4.662
 5604SOL    HW217373   3.615   3.908   4.652
 5605SOL     OW17374   2.126   4.042   4.442
 5605SOL    HW117375   2.039   4.074   4.417
 5605SOL    HW217376   2.121   4.031   4.537
 5606SOL     OW17377   2.774   0.092   3.950
 5606SOL    HW117378   2.855   0.135   3.922
 5606SOL    HW217379   2.796   0.051   4.033
 5607SOL     OW17380   2.929   0.306   4.460
 5607SOL    HW117381   2.844   0.286   4.420
 5607SOL    HW217382   2.988   0.239   4.424
 5608SOL     OW17383   2.881   3.964   4.689
 5608SOL    HW117384   2.876   3.915   4.607
 5608SOL    HW217385   2.876   3.896   4.757
 5609SOL     OW17386   3.581   4.114   5.104
 5609SOL    HW117387   3.652   4.178   5.101
 5609SOL    HW217388   3.611   4.043   5.048
 5610SOL     OW17389   2.534   3.920   5.223
 5610SOL    HW117390   2.618   3.902   5.180
 5610SOL    HW217391   2.558   3.950   5.311
 5611SOL     OW17392   1.936   4.047   3.754
 5611SOL    HW117393   1.848   4.039   3.718
 5611SOL    HW217394   1.968   4.132   3.722
 5612SOL     OW17395   1.933   3.882   4.038
 5612SOL    HW117396   1.917   3.962   3.987
 5612SOL    HW217397   2.017   3.850   4.007
 5613SOL     OW17398   2.586   4.288   5.428
 5613SOL    HW117399   2.595   4.337   5.510
 5613SOL    HW217400   2.617   4.200   5.449
 5614SOL     OW17401   3.081   4.043   4.179
 5614SOL    HW117402   3.145   3.972   4.170
 5614SOL    HW217403   3.110   4.091   4.257
 5615SOL     OW17404   3.626   4.088   5.371
 5615SOL    HW117405   3.607   4.097   5.278
 5615SOL    HW217406   3.556   4.030   5.403
 5616SOL     OW17407   2.971   0.230   3.829
 5616SOL    HW117408   2.949   0.270   3.744
 5616SOL    HW217409   3.049   0.177   3.811
 5617SOL     OW17410   3.677   3.909   4.962
 5617SOL    HW117411   3.686   3.815   4.978
 5617SOL    HW217412   3.685   3.919   4.867
 5618SOL     OW17413   2.306   4.153   4.262
 5618SOL    HW117414   2.323   4.084   4.197
 5618SOL    HW217415   2.250   4.111   4.327
 5619SOL     OW17416   2.184   4.264   5.017
 5619SOL    HW117417   2.241   4.210   5.072
 5619SOL    HW217418   2.206   4.239   4.927
 5620SOL     OW17419   3.294   3.947   4.842
 5620SOL    HW117420   3.323   3.870   4.890
 5620SOL    HW217421   3.242   3.996   4.905
 5621SOL     OW17422   2.870   3.745   4.870
 5621SOL    HW117423   2.815   3.676   4.833
 5621SOL    HW217424   2.958   3.708   4.871
 5622SOL     OW17425   3.214   3.778   3.887
 5622SOL    HW117426   3.240   3.718   3.817
 5622SOL    HW217427   3.128   3.746   3.915
 5623SOL     OW17428   3.161   4.176   4.407
 5623SOL    HW117429   3.119   4.261   4.421
 5623SOL    HW217430   3.162   4.135   4.493
 5624SOL     OW17431   3.449   3.929   4.600
 5624SOL    HW117432   3.385   3.948   4.670
 5624SOL    HW217433   3.450   4.008   4.546
 5625SOL     OW17434   2.087   4.291   5.709
 5625SOL    HW117435   2.027   4.357   5.745
 5625SOL    HW217436   2.078   4.299   5.615
 5626SOL     OW17437   2.086   4.000   6.576
 5626SOL    HW117438   2.114   3.969   6.662
 5626SOL    HW217439   1.996   3.969   6.568
 5627SOL     OW17440   1.868   4.102   6.229
 5627SOL    HW117441   1.785   4.129   6.267
 5627SOL    HW217442   1.846   4.025   6.177
 5628SOL     OW17443   3.598   4.335   5.822
 5628SOL    HW117444   3.596   4.320   5.728
 5628SOL    HW217445   3.595   4.247   5.860
 5629SOL     OW17446   2.587   0.265   6.267
 5629SOL    HW117447   2.586   0.209   6.345
 5629SOL    HW217448   2.495   0.285   6.251
 5630SOL     OW17449   2.308   4.119   7.074
 5630SOL    HW117450   2.385   4.062   7.081
 5630SOL    HW217451   2.234   4.060   7.089
 5631SOL     OW17452   3.477   4.173   6.324
 5631SOL    HW117453   3.405   4.200   6.268
 5631SOL    HW217454   3.486   4.245   6.387
 5632SOL     OW17455   3.458   3.845   7.056
 5632SOL    HW117456   3.455   3.923   7.002
 5632SOL    HW217457   3.447   3.876   7.146
 5633SOL     OW17458   1.944   4.369   6.152
 5633SOL    HW117459   1.935   4.277   6.176
 5633SOL    HW217460   2.000   4.406   6.220
 5634SOL     OW17461   1.982   4.472   7.170
 5634SOL    HW117462   2.053   4.486   7.233
 5634SOL    HW217463   1.949   0.060   7.152
 5635SOL     OW17464   2.673   3.723   6.090
 5635SOL    HW117465   2.714   3.809   6.076
 5635SOL    HW217466   2.580   3.743   6.102
 5636SOL     OW17467   2.192   3.976   7.391
 5636SOL    HW117468   2.237   4.059   7.408
 5636SOL    HW217469   2.103   3.989   7.424
 5637SOL     OW17470   3.140   4.070   6.518
 5637SOL    HW117471   3.051   4.036   6.527
 5637SOL    HW217472   3.192   4.019   6.581
 5638SOL     OW17473   2.685   4.309   7.037
 5638SOL    HW117474   2.643   4.315   7.123
 5638SOL    HW217475   2.620   4.267   6.981
 5639SOL     OW17476   3.258   4.199   7.262
 5639SOL    HW117477   3.257   4.242   7.348
 5639SOL    HW217478   3.318   4.125   7.273
 5640SOL     OW17479   2.858   4.147   6.821
 5640SOL    HW117480   2.783   4.168   6.878
 5640SOL    HW217481   2.821   4.089   6.754
 5641SOL     OW17482   2.918   4.409   6.007
 5641SOL    HW117483   2.920   4.444   6.096
 5641SOL    HW217484   2.830   4.375   5.995
 5642SOL     OW17485   2.747   4.063   5.776
 5642SOL    HW117486   2.792   4.126   5.719
 5642SOL    HW217487   2.769   3.977   5.740
 5643SOL     OW17488   3.568   4.298   7.414
 5643SOL    HW117489   3.576   4.387   7.381
 5643SOL    HW217490   3.591   4.242   7.340
 5644SOL     OW17491   2.411   3.908   6.477
 5644SOL    HW117492   2.413   3.933   6.569
 5644SOL    HW217493   2.412   3.990   6.429
 5645SOL     OW17494   3.350   4.461   6.322
 5645SOL    HW117495   3.329   4.408   6.398
 5645SOL    HW217496   3.391   0.040   6.358
 5646SOL     OW17497   2.060   4.006   7.087
 5646SOL    HW117498   1.977   4.052   7.079
 5646SOL    HW217499   2.046   3.944   7.159
 5647SOL     OW17500   3.263   3.831   6.016
 5647SOL    HW117501   3.252   3.806   5.924
 5647SOL    HW217502   3.357   3.840   6.027
 5648SOL     OW17503   2.218   4.384   5.997
 5648SOL    HW117504   2.259   4.311   6.043
 5648SOL    HW217505   2.148   4.414   6.055
 5649SOL     OW17506   3.400   3.951   7.311
 5649SOL    HW117507   3.407   3.972   7.404
 5649SOL    HW217508   3.332   3.883   7.308
 5650SOL     OW17509   2.490   3.848   5.694
 5650SOL    HW117510   2.567   3.791   5.703
 5650SOL    HW217511   2.446   3.816   5.616
 5651SOL     OW17512   2.630   4.000   7.339
 5651SOL    HW117513   2.703   3.938   7.345
 5651SOL    HW217514   2.579   3.986   7.418
 5652SOL     OW17515   3.208   4.311   7.014
 5652SOL    HW117516   3.230   4.274   7.100
 5652SOL    HW217517   3.244   4.399   7.016
 5653SOL     OW17518   2.784   4.236   6.485
 5653SOL    HW117519   2.762   4.220   6.393
 5653SOL    HW217520   2.824   4.155   6.515
 5654SOL     OW17521   2.409   3.787   6.091
 5654SOL    HW117522   2.329   3.788   6.143
 5654SOL    HW217523   2.404   3.866   6.037
 5655SOL     OW17524   2.155   3.770   5.770
 5655SOL    HW117525   2.213   3.837   5.733
 5655SOL    HW217526   2.214   3.707   5.810
 5656SOL     OW17527   2.797   3.969   6.051
 5656SOL    HW117528   2.769   4.010   5.968
 5656SOL    HW217529   2.892   3.980   6.051
 5657SOL     OW17530   2.940   4.395   7.098
 5657SOL    HW117531   2.855   4.365   7.065
 5657SOL    HW217532   3.005   4.352   7.043
 5658SOL     OW17533   2.887   4.269   5.609
 5658SOL    HW117534   2.868   4.357   5.576
 5658SOL    HW217535   2.950   4.284   5.680
 5659SOL     OW17536   1.936   4.280   6.977
 5659SOL    HW117537   2.027   4.272   6.949
 5659SOL    HW217538   1.936   4.353   7.039
 5660SOL     OW17539   2.423   3.950   6.748
 5660SOL    HW117540   2.462   3.871   6.787
 5660SOL    HW217541   2.332   3.949   6.779
 5661SOL     OW17542   2.732   4.189   6.224
 5661SOL    HW117543   2.695   4.247   6.157
 5661SOL    HW217544   2.750   4.107   6.177
 5662SOL     OW17545   2.875   3.777   6.340
 5662SOL    HW117546   2.818   3.767   6.264
 5662SOL    HW217547   2.856   3.701   6.394
 5663SOL     OW17548   3.339   4.313   6.556
 5663SOL    HW117549   3.284   4.236   6.576
 5663SOL    HW217550   3.391   4.326   6.635
 5664SOL     OW17551   3.262   4.296   5.658
 5664SOL    HW117552   3.201   4.270   5.727
 5664SOL    HW217553   3.345   4.255   5.684
 5665SOL     OW17554   2.386   3.987   5.907
 5665SOL    HW117555   2.426   3.936   5.836
 5665SOL    HW217556   2.372   4.074   5.869
 5666SOL     OW17557   2.780   3.822   6.985
 5666SOL    HW117558   2.803   3.802   6.894
 5666SOL    HW217559   2.859   3.861   7.022
 5667SOL     OW17560   2.294   0.008   6.853
 5667SOL    HW117561   2.360   0.008   6.922
 5667SOL    HW217562   2.252   4.422   6.860
 5668SOL     OW17563   3.129   4.101   6.858
 5668SOL    HW117564   3.162   4.178   6.904
 5668SOL    HW217565   3.040   4.125   6.833
 5669SOL     OW17566   2.417   4.257   6.451
 5669SOL    HW117567   2.437   4.304   6.371
 5669SOL    HW217568   2.480   4.289   6.515
 5670SOL     OW17569   3.435   4.342   6.061
 5670SOL    HW117570   3.402   4.408   6.123
 5670SOL    HW217571   3.493   4.391   6.003
 5671SOL     OW17572   2.859   3.841   7.343
 5671SOL    HW117573   2.910   3.915   7.311
 5671SOL    HW217574   2.908   3.764   7.316
 5672SOL     OW17575   2.361   3.768   7.332
 5672SOL    HW117576   2.319   3.713   7.265
 5672SOL    HW217577   2.300   3.840   7.344
 5673SOL     OW17578   3.074   4.255   5.853
 5673SOL    HW117579   3.083   4.176   5.905
 5673SOL    HW217580   3.024   4.315   5.909
 5674SOL     OW17581   2.163   3.925   6.831
 5674SOL    HW117582   2.126   3.958   6.913
 5674SOL    HW217583   2.142   3.831   6.832
 5675SOL     OW17584   2.592   4.360   6.635
 5675SOL    HW117585   2.665   4.326   6.583
 5675SOL    HW217586   2.596   4.454   6.622
 5676SOL     OW17587   3.612   0.136   7.443
 5676SOL    HW117588   3.550   0.148   7.370
 5676SOL    HW217589   3.564   0.168   7.519
 5677SOL     OW17590   2.163   3.790   6.208
 5677SOL    HW117591   2.145   3.880   6.234
 5677SOL    HW217592   2.169   3.743   6.292
 5678SOL     OW17593   3.474   4.091   5.956
 5678SOL    HW117594   3.503   4.030   6.024
 5678SOL    HW217595   3.452   4.171   6.003
 5679SOL     OW17596   3.391   3.999   5.713
 5679SOL    HW117597   3.329   3.931   5.739
 5679SOL    HW217598   3.425   4.034   5.795
 5680SOL     OW17599   2.179   0.012   6.508
 5680SOL    HW117600   2.256   0.069   6.520
 5680SOL    HW217601   2.192   4.441   6.571
 5681SOL     OW17602   2.199   4.239   6.606
 5681SOL    HW117603   2.160   4.154   6.585
 5681SOL    HW217604   2.272   4.247   6.544
 5682SOL     OW17605   3.000   4.096   7.270
 5682SOL    HW117606   2.949   4.155   7.325
 5682SOL    HW217607   3.085   4.139   7.260
 5683SOL     OW17608   3.022   3.928   7.055
 5683SOL    HW117609   3.013   3.989   7.128
 5683SOL    HW217610   3.060   3.980   6.984
 5684SOL     OW17611   1.899   4.269   6.701
 5684SOL    HW117612   1.981   4.251   6.655
 5684SOL    HW217613   1.924   4.274   6.793
 5685SOL     OW17614   2.053   4.243   7.303
 5685SOL    HW117615   2.111   4.201   7.240
 5685SOL    HW217616   1.999   4.301   7.251
 5686SOL     OW17617   2.681   4.285   5.929
 5686SOL    HW117618   2.678   4.208   5.871
 5686SOL    HW217619   2.593   4.323   5.921
 5687SOL     OW17620   3.500   4.319   6.776
 5687SOL    HW117621   3.494   4.260   6.851
 5687SOL    HW217622   3.588   4.304   6.740
 5688SOL     OW17623   2.545   4.182   6.844
 5688SOL    HW117624   2.501   4.104   6.812
 5688SOL    HW217625   2.549   4.241   6.769
 5689SOL     OW17626   2.343   4.222   5.777
 5689SOL    HW117627   2.378   4.309   5.793
 5689SOL    HW217628   2.248   4.236   5.769
 5690SOL     OW17629   3.580   3.866   6.099
 5690SOL    HW117630   3.654   3.852   6.039
 5690SOL    HW217631   3.565   3.780   6.138
 5691SOL     OW17632   3.142   0.138   6.265
 5691SOL    HW117633   3.200   0.062   6.270
 5691SOL    HW217634   3.191   0.203   6.215
 5692SOL     OW17635   3.701   3.897   6.554
 5692SOL    HW117636   3.730   3.811   6.524
 5692SOL    HW217637   3.615   3.908   6.514
 5693SOL     OW17638   2.126   4.042   6.304
 5693SOL    HW117639   2.039   4.074   6.279
 5693SOL    HW217640   2.121   4.031   6.399
 5694SOL     OW17641   2.774   0.092   5.812
 5694SOL    HW117642   2.855   0.135   5.784
 5694SOL    HW217643   2.796   0.051   5.895
 5695SOL     OW17644   2.929   0.306   6.322
 5695SOL    HW117645   2.844   0.286   6.282
 5695SOL    HW217646   2.988   0.240   6.286
 5696SOL     OW17647   2.881   3.964   6.551
 5696SOL    HW117648   2.876   3.915   6.469
 5696SOL    HW217649   2.876   3.897   6.619
 5697SOL     OW17650   3.581   4.114   6.966
 5697SOL    HW117651   3.652   4.178   6.963
 5697SOL    HW217652   3.611   4.043   6.910
 5698SOL     OW17653   2.534   3.919   7.085
 5698SOL    HW117654   2.618   3.902   7.042
 5698SOL    HW217655   2.558   3.950   7.173
 5699SOL     OW17656   1.936   4.047   5.616
 5699SOL    HW117657   1.848   4.040   5.580
 5699SOL    HW217658   1.968   4.132   5.584
 5700SOL     OW17659   1.933   3.882   5.900
 5700SOL    HW117660   1.917   3.962   5.850
 5700SOL    HW217661   2.018   3.850   5.869
 5701SOL     OW17662   2.586   4.288   7.290
 5701SOL    HW117663   2.595   4.337   7.372
 5701SOL    HW217664   2.616   4.200   7.311
 5702SOL     OW17665   3.081   4.043   6.041
 5702SOL    HW117666   3.145   3.972   6.032
 5702SOL    HW217667   3.110   4.090   6.119
 5703SOL     OW17668   3.626   4.088   7.233
 5703SOL    HW117669   3.608   4.098   7.140
 5703SOL    HW217670   3.556   4.030   7.265
 5704SOL     OW17671   2.971   0.230   5.690
 5704SOL    HW117672   2.950   0.270   5.607
 5704SOL    HW217673   3.049   0.177   5.673
 5705SOL     OW17674   3.676   3.909   6.824
 5705SOL    HW117675   3.686   3.815   6.840
 5705SOL    HW217676   3.685   3.919   6.730
 5706SOL     OW17677   2.306   4.153   6.124
 5706SOL    HW117678   2.323   4.084   6.060
 5706SOL    HW217679   2.250   4.111   6.189
 5707SOL     OW17680   2.185   4.264   6.879
 5707SOL    HW117681   2.241   4.210   6.934
 5707SOL    HW217682   2.206   4.239   6.789
 5708SOL     OW17683   3.294   3.947   6.704
 5708SOL    HW117684   3.323   3.870   6.752
 5708SOL    HW217685   3.242   3.996   6.767
 5709SOL     OW17686   2.870   3.745   6.732
 5709SOL    HW117687   2.816   3.676   6.693
 5709SOL    HW217688   2.958   3.708   6.733
 5710SOL     OW17689   3.214   3.778   5.749
 5710SOL    HW117690   3.240   3.717   5.680
 5710SOL    HW217691   3.127   3.746   5.777
 5711SOL     OW17692   3.161   4.176   6.269
 5711SOL    HW117693   3.119   4.261   6.283
 5711SOL    HW217694   3.162   4.135   6.355
 5712SOL     OW17695   3.449   3.930   6.462
 5712SOL    HW117696   3.385   3.948   6.531
 5712SOL    HW217697   3.450   4.009   6.408
 5713SOL     OW17698   2.088   4.292   7.571
 5713SOL    HW117699   2.026   4.356   7.607
 5713SOL    HW217700   2.077   4.299   7.477
 5714SOL     OW17701   2.086   4.000   8.438
 5714SOL    HW117702   2.114   3.969   8.524
 5714SOL    HW217703   1.996   3.969   8.429
 5715SOL     OW17704   1.868   4.102   8.091
 5715SOL    HW117705   1.785   4.129   8.129
 5715SOL    HW217706   1.847   4.025   8.039
 5716SOL     OW17707   3.598   4.335   7.684
 5716SOL    HW117708   3.596   4.320   7.590
 5716SOL    HW217709   3.595   4.247   7.722
 5717SOL     OW17710   2.587   0.266   8.130
 5717SOL    HW117711   2.586   0.208   8.206
 5717SOL    HW217712   2.495   0.285   8.112
 5718SOL     OW17713   2.308   4.119   8.936
 5718SOL    HW117714   2.385   4.062   8.943
 5718SOL    HW217715   2.234   4.060   8.950
 5719SOL     OW17716   3.477   4.173   8.186
 5719SOL    HW117717   3.405   4.200   8.130
 5719SOL    HW217718   3.487   4.245   8.249
 5720SOL     OW17719   3.458   3.845   8.918
 5720SOL    HW117720   3.455   3.923   8.864
 5720SOL    HW217721   3.447   3.876   9.008
 5721SOL     OW17722   1.945   4.368   8.013
 5721SOL    HW117723   1.935   4.276   8.037
 5721SOL    HW217724   2.000   4.405   8.082
 5722SOL     OW17725   1.982   4.472   9.032
 5722SOL    HW117726   2.053   4.486   9.095
 5722SOL    HW217727   1.949   0.060   9.014
 5723SOL     OW17728   2.674   3.723   7.953
 5723SOL    HW117729   2.714   3.808   7.938
 5723SOL    HW217730   2.581   3.742   7.964
 5724SOL     OW17731   2.192   3.976   9.253
 5724SOL    HW117732   2.237   4.059   9.270
 5724SOL    HW217733   2.103   3.989   9.286
 5725SOL     OW17734   3.140   4.070   8.380
 5725SOL    HW117735   3.051   4.036   8.389
 5725SOL    HW217736   3.192   4.019   8.443
 5726SOL     OW17737   2.685   4.309   8.899
 5726SOL    HW117738   2.643   4.315   8.985
 5726SOL    HW217739   2.620   4.267   8.843
 5727SOL     OW17740   3.258   4.199   9.124
 5727SOL    HW117741   3.257   4.242   9.210
 5727SOL    HW217742   3.318   4.126   9.135
 5728SOL     OW17743   2.858   4.147   8.683
 5728SOL    HW117744   2.783   4.168   8.740
 5728SOL    HW217745   2.821   4.089   8.616
 5729SOL     OW17746   2.918   4.409   7.869
 5729SOL    HW117747   2.919   4.444   7.958
 5729SOL    HW217748   2.830   4.375   7.857
 5730SOL     OW17749   2.747   4.063   7.639
 5730SOL    HW117750   2.792   4.126   7.581
 5730SOL    HW217751   2.768   3.977   7.602
 5731SOL     OW17752   3.568   4.298   9.276
 5731SOL    HW117753   3.577   4.387   9.243
 5731SOL    HW217754   3.591   4.242   9.202
 5732SOL     OW17755   2.412   3.908   8.339
 5732SOL    HW117756   2.413   3.934   8.431
 5732SOL    HW217757   2.411   3.990   8.291
 5733SOL     OW17758   3.350   4.461   8.184
 5733SOL    HW117759   3.329   4.408   8.260
 5733SOL    HW217760   3.391   0.040   8.220
 5734SOL     OW17761   2.060   4.006   8.949
 5734SOL    HW117762   1.976   4.052   8.941
 5734SOL    HW217763   2.046   3.944   9.021
 5735SOL     OW17764   3.263   3.831   7.878
 5735SOL    HW117765   3.252   3.806   7.786
 5735SOL    HW217766   3.357   3.840   7.889
 5736SOL     OW17767   2.219   4.384   7.859
 5736SOL    HW117768   2.259   4.311   7.906
 5736SOL    HW217769   2.148   4.413   7.917
 5737SOL     OW17770   3.400   3.951   9.173
 5737SOL    HW117771   3.407   3.972   9.266
 5737SOL    HW217772   3.332   3.883   9.170
 5738SOL     OW17773   2.491   3.849   7.555
 5738SOL    HW117774   2.566   3.791   7.565
 5738SOL    HW217775   2.445   3.816   7.478
 5739SOL     OW17776   2.630   4.001   9.201
 5739SOL    HW117777   2.703   3.938   9.207
 5739SOL    HW217778   2.578   3.986   9.280
 5740SOL     OW17779   3.208   4.311   8.876
 5740SOL    HW117780   3.230   4.274   8.962
 5740SOL    HW217781   3.244   4.399   8.878
 5741SOL     OW17782   2.784   4.236   8.347
 5741SOL    HW117783   2.762   4.220   8.255
 5741SOL    HW217784   2.824   4.155   8.377
 5742SOL     OW17785   2.410   3.787   7.953
 5742SOL    HW117786   2.329   3.788   8.005
 5742SOL    HW217787   2.404   3.866   7.899
 5743SOL     OW17788   2.155   3.770   7.632
 5743SOL    HW117789   2.213   3.837   7.595
 5743SOL    HW217790   2.213   3.707   7.672
 5744SOL     OW17791   2.797   3.969   7.913
 5744SOL    HW117792   2.769   4.009   7.830
 5744SOL    HW217793   2.893   3.980   7.913
 5745SOL     OW17794   2.940   4.395   8.960
 5745SOL    HW117795   2.855   4.365   8.927
 5745SOL    HW217796   3.005   4.352   8.905
 5746SOL     OW17797   2.887   4.269   7.471
 5746SOL    HW117798   2.868   4.357   7.438
 5746SOL    HW217799   2.950   4.284   7.542
 5747SOL     OW17800   1.936   4.280   8.839
 5747SOL    HW117801   2.027   4.272   8.811
 5747SOL    HW217802   1.936   4.353   8.901
 5748SOL     OW17803   2.423   3.950   8.610
 5748SOL    HW117804   2.462   3.871   8.649
 5748SOL    HW217805   2.332   3.949   8.641
 5749SOL     OW17806   2.732   4.189   8.086
 5749SOL    HW117807   2.695   4.247   8.020
 5749SOL    HW217808   2.750   4.107   8.039
 5750SOL     OW17809   2.876   3.777   8.202
 5750SOL    HW117810   2.817   3.768   8.126
 5750SOL    HW217811   2.856   3.701   8.256
 5751SOL     OW17812   3.339   4.313   8.418
 5751SOL    HW117813   3.284   4.237   8.438
 5751SOL    HW217814   3.391   4.326   8.497
 5752SOL     OW17815   3.262   4.296   7.520
 5752SOL    HW117816   3.201   4.270   7.589
 5752SOL    HW217817   3.345   4.255   7.546
 5753SOL     OW17818   2.386   3.987   7.769
 5753SOL    HW117819   2.426   3.936   7.698
 5753SOL    HW217820   2.372   4.074   7.731
 5754SOL     OW17821   2.780   3.822   8.847
 5754SOL    HW117822   2.803   3.802   8.756
 5754SOL    HW217823   2.859   3.861   8.884
 5755SOL     OW17824   2.294   0.008   8.715
 5755SOL    HW117825   2.360   0.008   8.784
 5755SOL    HW217826   2.252   4.422   8.721
 5756SOL     OW17827   3.129   4.101   8.720
 5756SOL    HW117828   3.162   4.178   8.766
 5756SOL    HW217829   3.040   4.125   8.695
 5757SOL     OW17830   2.417   4.256   8.313
 5757SOL    HW117831   2.437   4.304   8.233
 5757SOL    HW217832   2.480   4.289   8.377
 5758SOL     OW17833   3.435   4.342   7.923
 5758SOL    HW117834   3.403   4.408   7.985
 5758SOL    HW217835   3.493   4.391   7.865
 5759SOL     OW17836   2.859   3.841   9.205
 5759SOL    HW117837   2.910   3.915   9.173
 5759SOL    HW217838   2.908   3.764   9.178
 5760SOL     OW17839   2.361   3.768   9.194
 5760SOL    HW117840   2.319   3.713   9.127
 5760SOL    HW217841   2.300   3.840   9.206
 5761SOL     OW17842   3.074   4.255   7.715
 5761SOL    HW117843   3.083   4.176   7.767
 5761SOL    HW217844   3.024   4.315   7.771
 5762SOL     OW17845   2.163   3.925   8.693
 5762SOL    HW117846   2.126   3.958   8.775
 5762SOL    HW217847   2.143   3.831   8.694
 5763SOL     OW17848   2.592   4.360   8.497
 5763SOL    HW117849   2.666   4.326   8.445
 5763SOL    HW217850   2.596   4.454   8.484
 5764SOL     OW17851   3.612   0.137   9.305
 5764SOL    HW117852   3.550   0.148   9.232
 5764SOL    HW217853   3.564   0.168   9.381
 5765SOL     OW17854   2.164   3.790   8.071
 5765SOL    HW117855   2.146   3.881   8.096
 5765SOL    HW217856   2.169   3.743   8.154
 5766SOL     OW17857   3.474   4.091   7.818
 5766SOL    HW117858   3.503   4.030   7.886
 5766SOL    HW217859   3.452   4.171   7.865
 5767SOL     OW17860   3.391   3.999   7.575
 5767SOL    HW117861   3.329   3.932   7.601
 5767SOL    HW217862   3.425   4.034   7.657
 5768SOL     OW17863   2.179   0.012   8.370
 5768SOL    HW117864   2.256   0.068   8.382
 5768SOL    HW217865   2.192   4.441   8.433
 5769SOL     OW17866   2.199   4.239   8.468
 5769SOL    HW117867   2.160   4.154   8.447
 5769SOL    HW217868   2.272   4.247   8.406
 5770SOL     OW17869   3.000   4.096   9.131
 5770SOL    HW117870   2.949   4.155   9.187
 5770SOL    HW217871   3.085   4.139   9.122
 5771SOL     OW17872   3.022   3.928   8.917
 5771SOL    HW117873   3.013   3.989   8.990
 5771SOL    HW217874   3.060   3.980   8.846
 5772SOL     OW17875   1.899   4.270   8.563
 5772SOL    HW117876   1.980   4.251   8.517
 5772SOL    HW217877   1.924   4.274   8.655
 5773SOL     OW17878   2.054   4.243   9.165
 5773SOL    HW117879   2.111   4.201   9.101
 5773SOL    HW217880   1.999   4.301   9.113
 5774SOL     OW17881   2.681   4.285   7.790
 5774SOL    HW117882   2.679   4.209   7.733
 5774SOL    HW217883   2.593   4.323   7.783
 5775SOL     OW17884   3.500   4.319   8.638
 5775SOL    HW117885   3.494   4.260   8.713
 5775SOL    HW217886   3.588   4.304   8.602
 5776SOL     OW17887   2.546   4.182   8.706
 5776SOL    HW117888   2.501   4.104   8.674
 5776SOL    HW217889   2.549   4.241   8.631
 5777SOL     OW17890   2.343   4.222   7.639
 5777SOL    HW117891   2.378   4.309   7.655
 5777SOL    HW217892   2.249   4.236   7.631
 5778SOL     OW17893   3.580   3.866   7.961
 5778SOL    HW117894   3.654   3.852   7.901
 5778SOL    HW217895   3.565   3.780   8.000
 5779SOL     OW17896   3.142   0.138   8.127
 5779SOL    HW117897   3.200   0.062   8.132
 5779SOL    HW217898   3.192   0.203   8.077
 5780SOL     OW17899   3.701   3.897   8.416
 5780SOL    HW117900   3.730   3.811   8.386
 5780SOL    HW217901   3.615   3.908   8.376
 5781SOL     OW17902   2.126   4.042   8.166
 5781SOL    HW117903   2.039   4.074   8.141
 5781SOL    HW217904   2.120   4.031   8.261
 5782SOL     OW17905   2.774   0.093   7.674
 5782SOL    HW117906   2.855   0.135   7.646
 5782SOL    HW217907   2.796   0.051   7.757
 5783SOL     OW17908   2.929   0.306   8.184
 5783SOL    HW117909   2.844   0.286   8.144
 5783SOL    HW217910   2.989   0.240   8.148
 5784SOL     OW17911   2.881   3.964   8.413
 5784SOL    HW117912   2.876   3.915   8.331
 5784SOL    HW217913   2.876   3.897   8.481
 5785SOL     OW17914   3.581   4.114   8.828
 5785SOL    HW117915   3.652   4.178   8.825
 5785SOL    HW217916   3.611   4.043   8.772
 5786SOL     OW17917   2.534   3.919   8.947
 5786SOL    HW117918   2.618   3.902   8.904
 5786SOL    HW217919   2.558   3.950   9.034
 5787SOL     OW17920   1.937   4.048   7.478
 5787SOL    HW117921   1.848   4.039   7.442
 5787SOL    HW217922   1.968   4.132   7.445
 5788SOL     OW17923   1.933   3.882   7.762
 5788SOL    HW117924   1.917   3.962   7.711
 5788SOL    HW217925   2.017   3.850   7.731
 5789SOL     OW17926   2.587   4.288   9.152
 5789SOL    HW117927   2.594   4.336   9.235
 5789SOL    HW217928   2.616   4.200   9.173
 5790SOL     OW17929   3.082   4.043   7.903
 5790SOL    HW117930   3.145   3.972   7.894
 5790SOL    HW217931   3.110   4.090   7.981
 5791SOL     OW17932   3.626   4.088   9.095
 5791SOL    HW117933   3.608   4.098   9.002
 5791SOL    HW217934   3.556   4.030   9.127
 5792SOL     OW17935   2.971   0.230   7.553
 5792SOL    HW117936   2.949   0.269   7.468
 5792SOL    HW217937   3.049   0.177   7.535
 5793SOL     OW17938   3.676   3.909   8.686
 5793SOL    HW117939   3.686   3.815   8.702
 5793SOL    HW217940   3.685   3.919   8.592
 5794SOL     OW17941   2.306   4.153   7.986
 5794SOL    HW117942   2.323   4.084   7.922
 5794SOL    HW217943   2.249   4.111   8.051
 5795SOL     OW17944   2.185   4.264   8.741
 5795SOL    HW117945   2.241   4.210   8.796
 5795SOL    HW217946   2.206   4.239   8.651
 5796SOL     OW17947   3.294   3.947   8.566
 5796SOL    HW117948   3.323   3.870   8.614
 5796SOL    HW217949   3.242   3.996   8.629
 5797SOL     OW17950   2.870   3.745   8.594
 5797SOL    HW117951   2.816   3.676   8.555
 5797SOL    HW217952   2.958   3.708   8.595
 5798SOL     OW17953   3.214   3.778   7.611
 5798SOL    HW117954   3.240   3.718   7.541
 5798SOL    HW217955   3.128   3.746   7.639
 5799SOL     OW17956   3.161   4.176   8.131
 5799SOL    HW117957   3.119   4.261   8.145
 5799SOL    HW217958   3.162   4.135   8.217
 5800SOL     OW17959   3.449   3.929   8.324
 5800SOL    HW117960   3.385   3.948   8.393
 5800SOL    HW217961   3.450   4.008   8.270
 5801SOL     OW17962   2.088   4.292   9.433
 5801SOL    HW117963   2.026   4.356   9.469
 5801SOL    HW217964   2.077   4.299   9.339
 5802SOL     OW17965   2.086   4.000  10.300
 5802SOL    HW117966   2.114   3.969  10.386
 5802SOL    HW217967   1.996   3.969  10.291
 5803SOL     OW17968   1.868   4.102   9.953
 5803SOL    HW117969   1.785   4.129   9.991
 5803SOL    HW217970   1.847   4.024   9.901
 5804SOL     OW17971   3.598   4.335   9.546
 5804SOL    HW117972   3.596   4.320   9.452
 5804SOL    HW217973   3.595   4.247   9.584
 5805SOL     OW17974   2.587   0.266   9.992
 5805SOL    HW117975   2.586   0.208  10.068
 5805SOL    HW217976   2.495   0.284   9.974
 5806SOL     OW17977   2.313   4.119  10.794
 5806SOL    HW117978   2.384   4.055  10.802
 5806SOL    HW217979   2.234   4.071  10.816
 5807SOL     OW17980   3.477   4.173  10.048
 5807SOL    HW117981   3.405   4.200   9.992
 5807SOL    HW217982   3.487   4.245  10.111
 5808SOL     OW17983   3.452   3.839  10.780
 5808SOL    HW117984   3.458   3.919  10.728
 5808SOL    HW217985   3.450   3.870  10.871
 5809SOL     OW17986   1.945   4.368   9.875
 5809SOL    HW117987   1.935   4.276   9.899
 5809SOL    HW217988   2.000   4.405   9.945
 5810SOL     OW17989   1.988   4.458  10.907
 5810SOL    HW117990   2.084   4.464  10.912
 5810SOL    HW217991   1.959   0.048  10.892
 5811SOL     OW17992   2.674   3.723   9.815
 5811SOL    HW117993   2.714   3.808   9.800
 5811SOL    HW217994   2.581   3.742   9.826
 5812SOL     OW17995   2.201   3.979   0.015
 5812SOL    HW117996   2.246   4.062   0.032
 5812SOL    HW217997   2.109   3.997   0.033
 5813SOL     OW17998   3.140   4.070  10.242
 5813SOL    HW117999   3.051   4.036  10.251
 5813SOL    HW218000   3.192   4.019  10.305
 5814SOL     OW18001   2.684   4.305  10.767
 5814SOL    HW118002   2.637   4.318  10.849
 5814SOL    HW218003   2.620   4.265  10.707
 5815SOL     OW18004   2.857   4.145  10.546
 5815SOL    HW118005   2.780   4.167  10.600
 5815SOL    HW218006   2.823   4.089  10.477
 5816SOL     OW18007   2.918   4.409   9.731
 5816SOL    HW118008   2.919   4.444   9.820
 5816SOL    HW218009   2.830   4.375   9.719
 5817SOL     OW18010   2.747   4.063   9.501
 5817SOL    HW118011   2.792   4.126   9.443
 5817SOL    HW218012   2.768   3.977   9.464
 5818SOL     OW18013   2.412   3.908  10.202
 5818SOL    HW118014   2.413   3.934  10.294
 5818SOL    HW218015   2.411   3.990  10.153
 5819SOL     OW18016   3.350   4.461  10.046
 5819SOL    HW118017   3.329   4.408  10.122
 5819SOL    HW218018   3.391   0.040  10.082
 5820SOL     OW18019   2.063   4.005  10.806
 5820SOL    HW118020   1.983   4.057  10.805
 5820SOL    HW218021   2.053   3.947  10.882
 5821SOL     OW18022   3.263   3.831   9.740
 5821SOL    HW118023   3.252   3.806   9.648
 5821SOL    HW218024   3.357   3.840   9.751
 5822SOL     OW18025   2.219   4.384   9.721
 5822SOL    HW118026   2.259   4.310   9.768
 5822SOL    HW218027   2.148   4.414   9.779
 5823SOL     OW18028   2.491   3.849   9.417
 5823SOL    HW118029   2.566   3.791   9.427
 5823SOL    HW218030   2.445   3.816   9.340
 5824SOL     OW18031   2.630   3.998  11.046
 5824SOL    HW118032   2.697   3.940  11.084
 5824SOL    HW218033   2.571   4.017   0.018
 5825SOL     OW18034   3.214   4.308  10.744
 5825SOL    HW118035   3.237   4.286  10.834
 5825SOL    HW218036   3.238   4.400  10.735
 5826SOL     OW18037   2.784   4.236  10.209
 5826SOL    HW118038   2.762   4.220  10.117
 5826SOL    HW218039   2.823   4.154  10.239
 5827SOL     OW18040   2.410   3.787   9.815
 5827SOL    HW118041   2.329   3.788   9.867
 5827SOL    HW218042   2.404   3.866   9.761
 5828SOL     OW18043   2.155   3.770   9.494
 5828SOL    HW118044   2.213   3.837   9.456
 5828SOL    HW218045   2.213   3.707   9.534
 5829SOL     OW18046   2.797   3.969   9.775
 5829SOL    HW118047   2.769   4.009   9.693
 5829SOL    HW218048   2.893   3.980   9.775
 5830SOL     OW18049   2.942   4.389  10.812
 5830SOL    HW118050   2.855   4.362  10.780
 5830SOL    HW218051   3.003   4.343  10.755
 5831SOL     OW18052   2.887   4.269   9.333
 5831SOL    HW118053   2.868   4.357   9.300
 5831SOL    HW218054   2.950   4.284   9.404
 5832SOL     OW18055   1.934   4.282  10.703
 5832SOL    HW118056   2.026   4.274  10.675
 5832SOL    HW218057   1.937   4.341  10.778
 5833SOL     OW18058   2.423   3.950  10.473
 5833SOL    HW118059   2.461   3.871  10.511
 5833SOL    HW218060   2.332   3.950  10.503
 5834SOL     OW18061   2.733   4.189   9.948
 5834SOL    HW118062   2.694   4.247   9.882
 5834SOL    HW218063   2.750   4.107   9.901
 5835SOL     OW18064   2.875   3.777  10.064
 5835SOL    HW118065   2.817   3.768   9.988
 5835SOL    HW218066   2.856   3.701  10.118
 5836SOL     OW18067   3.338   4.313  10.280
 5836SOL    HW118068   3.285   4.236  10.299
 5836SOL    HW218069   3.391   4.326  10.359
 5837SOL     OW18070   3.262   4.296   9.382
 5837SOL    HW118071   3.201   4.270   9.451
 5837SOL    HW218072   3.345   4.255   9.408
 5838SOL     OW18073   2.386   3.987   9.631
 5838SOL    HW118074   2.426   3.936   9.560
 5838SOL    HW218075   2.372   4.074   9.593
 5839SOL     OW18076   2.780   3.822  10.709
 5839SOL    HW118077   2.803   3.802  10.618
 5839SOL    HW218078   2.859   3.863  10.745
 5840SOL     OW18079   2.296   0.006  10.571
 5840SOL    HW118080   2.355   0.011  10.646
 5840SOL    HW218081   2.250   4.423  10.581
 5841SOL     OW18082   3.129   4.100  10.584
 5841SOL    HW118083   3.163   4.178  10.628
 5841SOL    HW218084   3.041   4.126  10.557
 5842SOL     OW18085   2.418   4.255  10.175
 5842SOL    HW118086   2.437   4.304  10.095
 5842SOL    HW218087   2.480   4.289  10.239
 5843SOL     OW18088   3.435   4.342   9.785
 5843SOL    HW118089   3.403   4.408   9.847
 5843SOL    HW218090   3.493   4.391   9.727
 5844SOL     OW18091   2.265   4.464  10.906
 5844SOL    HW118092   2.331   0.029  10.885
 5844SOL    HW218093   2.315   4.383  10.921
 5845SOL     OW18094   3.074   4.255   9.577
 5845SOL    HW118095   3.083   4.176   9.629
 5845SOL    HW218096   3.024   4.315   9.633
 5846SOL     OW18097   2.163   3.925  10.554
 5846SOL    HW118098   2.128   3.959  10.637
 5846SOL    HW218099   2.142   3.831  10.556
 5847SOL     OW18100   2.592   4.360  10.359
 5847SOL    HW118101   2.665   4.326  10.307
 5847SOL    HW218102   2.595   4.455  10.345
 5848SOL     OW18103   2.164   3.790   9.933
 5848SOL    HW118104   2.146   3.881   9.958
 5848SOL    HW218105   2.169   3.743  10.015
 5849SOL     OW18106   3.474   4.091   9.680
 5849SOL    HW118107   3.503   4.030   9.748
 5849SOL    HW218108   3.452   4.171   9.727
 5850SOL     OW18109   3.391   3.999   9.437
 5850SOL    HW118110   3.329   3.932   9.463
 5850SOL    HW218111   3.425   4.034   9.519
 5851SOL     OW18112   2.180   0.012  10.231
 5851SOL    HW118113   2.256   0.068  10.244
 5851SOL    HW218114   2.191   4.441  10.295
 5852SOL     OW18115   2.199   4.239  10.329
 5852SOL    HW118116   2.160   4.154  10.309
 5852SOL    HW218117   2.272   4.246  10.267
 5853SOL     OW18118   3.019   3.933  10.781
 5853SOL    HW118119   3.026   3.993  10.856
 5853SOL    HW218120   3.058   3.981  10.708
 5854SOL     OW18121   1.899   4.271  10.426
 5854SOL    HW118122   1.981   4.251  10.380
 5854SOL    HW218123   1.923   4.275  10.518
 5855SOL     OW18124   3.219   0.181  10.989
 5855SOL    HW118125   3.274   0.259  10.998
 5855SOL    HW218126   3.228   0.155  10.898
 5856SOL     OW18127   2.681   4.286   9.652
 5856SOL    HW118128   2.679   4.209   9.595
 5856SOL    HW218129   2.593   4.323   9.645
 5857SOL     OW18130   3.500   4.319  10.499
 5857SOL    HW118131   3.495   4.260  10.574
 5857SOL    HW218132   3.588   4.305  10.463
 5858SOL     OW18133   2.550   4.181  10.568
 5858SOL    HW118134   2.502   4.104  10.538
 5858SOL    HW218135   2.549   4.241  10.493
 5859SOL     OW18136   2.343   4.222   9.501
 5859SOL    HW118137   2.378   4.310   9.517
 5859SOL    HW218138   2.249   4.235   9.493
 5860SOL     OW18139   3.580   3.866   9.823
 5860SOL    HW118140   3.654   3.852   9.763
 5860SOL    HW218141   3.565   3.780   9.862
 5861SOL     OW18142   3.142   0.138   9.989
 5861SOL    HW118143   3.200   0.062   9.995
 5861SOL    HW218144   3.192   0.203   9.938
 5862SOL     OW18145   3.701   3.897  10.279
 5862SOL    HW118146   3.731   3.811  10.248
 5862SOL    HW218147   3.615   3.908  10.238
 5863SOL     OW18148   2.126   4.042  10.028
 5863SOL    HW118149   2.039   4.074  10.003
 5863SOL    HW218150   2.120   4.031  10.123
 5864SOL     OW18151   2.774   0.093   9.536
 5864SOL    HW118152   2.855   0.135   9.508
 5864SOL    HW218153   2.796   0.051   9.619
 5865SOL     OW18154   2.929   0.306  10.046
 5865SOL    HW118155   2.844   0.286  10.006
 5865SOL    HW218156   2.988   0.240  10.010
 5866SOL     OW18157   2.881   3.964  10.275
 5866SOL    HW118158   2.876   3.916  10.193
 5866SOL    HW218159   2.876   3.896  10.343
 5867SOL     OW18160   3.578   4.116  10.689
 5867SOL    HW118161   3.650   4.180  10.689
 5867SOL    HW218162   3.609   4.045  10.633
 5868SOL     OW18163   2.534   3.918  10.804
 5868SOL    HW118164   2.616   3.900  10.759
 5868SOL    HW218165   2.561   3.953  10.889
 5869SOL     OW18166   1.937   4.048   9.340
 5869SOL    HW118167   1.848   4.039   9.304
 5869SOL    HW218168   1.968   4.132   9.307
 5870SOL     OW18169   1.933   3.882   9.624
 5870SOL    HW118170   1.917   3.962   9.573
 5870SOL    HW218171   2.017   3.850   9.592
 5871SOL     OW18172   2.580   4.298  11.025
 5871SOL    HW118173   2.616   4.344   0.001
 5871SOL    HW218174   2.623   4.212  11.027
 5872SOL     OW18175   3.081   4.043   9.765
 5872SOL    HW118176   3.145   3.972   9.756
 5872SOL    HW218177   3.110   4.090   9.843
 5873SOL     OW18178   3.618   4.052  10.952
 5873SOL    HW118179   3.597   4.082  10.863
 5873SOL    HW218180   3.534   4.053  10.998
 5874SOL     OW18181   2.971   0.230   9.415
 5874SOL    HW118182   2.949   0.269   9.330
 5874SOL    HW218183   3.049   0.177   9.397
 5875SOL     OW18184   3.674   3.909  10.549
 5875SOL    HW118185   3.685   3.815  10.564
 5875SOL    HW218186   3.684   3.919  10.454
 5876SOL     OW18187   2.306   4.153   9.848
 5876SOL    HW118188   2.323   4.084   9.784
 5876SOL    HW218189   2.249   4.111   9.913
 5877SOL     OW18190   2.183   4.264  10.603
 5877SOL    HW118191   2.239   4.210  10.659
 5877SOL    HW218192   2.206   4.238  10.514
 5878SOL     OW18193   3.293   3.947  10.428
 5878SOL    HW118194   3.325   3.870  10.475
 5878SOL    HW218195   3.242   3.995  10.492
 5879SOL     OW18196   2.870   3.745  10.456
 5879SOL    HW118197   2.815   3.677  10.417
 5879SOL    HW218198   2.958   3.708  10.457
 5880SOL     OW18199   3.214   3.778   9.473
 5880SOL    HW118200   3.240   3.718   9.403
 5880SOL    HW218201   3.128   3.746   9.501
 5881SOL     OW18202   3.161   4.176   9.993
 5881SOL    HW118203   3.119   4.261  10.007
 5881SOL    HW218204   3.162   4.135  10.079
 5882SOL     OW18205   3.449   3.929  10.186
 5882SOL    HW118206   3.385   3.948  10.255
 5882SOL    HW218207   3.450   4.008  10.132
 5883SOL     OW18208   3.952   0.616   0.119
 5883SOL    HW118209   3.865   0.621   0.159
 5883SOL    HW218210   3.935   0.627   0.025
 5884SOL     OW18211   3.933   0.298   0.988
 5884SOL    HW118212   3.966   0.270   1.073
 5884SOL    HW218213   3.852   0.248   0.976
 5885SOL     OW18214   3.732   0.384   0.639
 5885SOL    HW118215   3.646   0.404   0.676
 5885SOL    HW218216   3.716   0.307   0.584
 5886SOL     OW18217   4.270   1.251   1.147
 5886SOL    HW118218   4.193   1.304   1.124
 5886SOL    HW218219   4.329   1.312   1.191
 5887SOL     OW18220   0.026   0.781   1.857
 5887SOL    HW118221   0.072   0.834   1.923
 5887SOL    HW218222   0.065   0.806   1.774
 5888SOL     OW18223   4.398   0.995   0.643
 5888SOL    HW118224   4.471   0.993   0.705
 5888SOL    HW218225   4.334   1.053   0.684
 5889SOL     OW18226   4.418   1.161   1.815
 5889SOL    HW118227   4.462   1.242   1.790
 5889SOL    HW218228   4.328   1.173   1.786
 5890SOL     OW18229   4.059   1.434   1.069
 5890SOL    HW118230   3.987   1.393   1.021
 5890SOL    HW218231   4.108   1.482   1.002
 5891SOL     OW18232   4.163   0.396   1.490
 5891SOL    HW118233   4.242   0.342   1.491
 5891SOL    HW218234   4.092   0.334   1.502
 5892SOL     OW18235   3.943   1.713   0.476
 5892SOL    HW118236   3.966   1.790   0.527
 5892SOL    HW218237   4.011   1.707   0.409
 5893SOL     OW18238   3.951   1.439   0.532
 5893SOL    HW118239   3.936   1.533   0.539
 5893SOL    HW218240   3.890   1.401   0.595
 5894SOL     OW18241   3.973   1.089   0.886
 5894SOL    HW118242   3.977   1.005   0.932
 5894SOL    HW218243   3.920   1.144   0.943
 5895SOL     OW18244   4.359   1.798   1.452
 5895SOL    HW118245   4.273   1.764   1.477
 5895SOL    HW218246   4.349   1.893   1.453
 5896SOL     OW18247   4.302   0.999   0.137
 5896SOL    HW118248   4.319   1.064   0.068
 5896SOL    HW218249   4.381   1.002   0.192
 5897SOL     OW18250   3.838   0.650   0.559
 5897SOL    HW118251   3.809   0.562   0.582
 5897SOL    HW218252   3.830   0.700   0.641
 5898SOL     OW18253   3.766   1.602   0.121
 5898SOL    HW118254   3.738   1.513   0.142
 5898SOL    HW218255   3.738   1.655   0.196
 5899SOL     OW18256   3.845   0.743   1.586
 5899SOL    HW118257   3.937   0.765   1.602
 5899SOL    HW218258   3.798   0.826   1.592
 5900SOL     OW18259   4.314   1.385   0.737
 5900SOL    HW118260   4.278   1.297   0.741
 5900SOL    HW218261   4.313   1.408   0.644
 5901SOL     OW18262   0.016   0.010   0.505
 5901SOL    HW118263   0.048   0.079   0.448
 5901SOL    HW218264   4.427   0.037   0.528
 5902SOL     OW18265   3.914   0.968   1.270
 5902SOL    HW118266   3.999   0.927   1.252
 5902SOL    HW218267   3.850   0.912   1.225
 5903SOL     OW18268   4.039   0.254   1.785
 5903SOL    HW118269   4.101   0.320   1.814
 5903SOL    HW218270   3.964   0.263   1.843
 5904SOL     OW18271   4.308   0.720   0.269
 5904SOL    HW118272   4.330   0.794   0.213
 5904SOL    HW218273   4.244   0.755   0.331
 5905SOL     OW18274   3.813   0.820   0.775
 5905SOL    HW118275   3.895   0.812   0.824
 5905SOL    HW218276   3.771   0.899   0.810
 5906SOL     OW18277   3.853   1.837   1.575
 5906SOL    HW118278   3.850   1.820   1.669
 5906SOL    HW218279   3.762   1.844   1.549
 5907SOL     OW18280   4.253   0.201   0.893
 5907SOL    HW118281   4.285   0.218   0.982
 5907SOL    HW218282   4.265   0.284   0.847
 5908SOL     OW18283   4.081   1.809   0.859
 5908SOL    HW118284   4.129   1.726   0.867
 5908SOL    HW218285   4.148   1.877   0.870
 5909SOL     OW18286   4.042   0.957   0.273
 5909SOL    HW118287   4.120   0.983   0.224
 5909SOL    HW218288   4.014   0.875   0.232
 5910SOL     OW18289   4.179   1.254   1.735
 5910SOL    HW118290   4.151   1.265   1.644
 5910SOL    HW218291   4.098   1.263   1.786
 5911SOL     OW18292   3.914   0.270   1.509
 5911SOL    HW118293   3.846   0.335   1.490
 5911SOL    HW218294   3.920   0.267   1.604
 5912SOL     OW18295   4.193   1.734   0.325
 5912SOL    HW118296   4.223   1.794   0.393
 5912SOL    HW218297   4.267   1.726   0.266
 5913SOL     OW18298   3.978   1.793   1.233
 5913SOL    HW118299   4.027   1.725   1.280
 5913SOL    HW218300   3.965   1.757   1.146
 5914SOL     OW18301   4.108   0.694   0.476
 5914SOL    HW118302   4.136   0.603   0.488
 5914SOL    HW218303   4.015   0.694   0.499
 5915SOL     OW18304   4.343   0.132   0.103
 5915SOL    HW118305   4.426   0.096   0.133
 5915SOL    HW218306   4.320   0.078   0.027
 5916SOL     OW18307   0.018   1.425   0.915
 5916SOL    HW118308   0.089   1.456   0.860
 5916SOL    HW218309   4.446   1.409   0.854
 5917SOL     OW18310   4.271   0.106   0.537
 5917SOL    HW118311   4.186   0.070   0.562
 5917SOL    HW218312   4.254   0.156   0.457
 5918SOL     OW18313   4.012   0.058   0.197
 5918SOL    HW118314   4.078   0.111   0.152
 5918SOL    HW218315   4.062   0.006   0.260
 5919SOL     OW18316   0.321   0.682   1.454
 5919SOL    HW118317   0.245   0.623   1.448
 5919SOL    HW218318   0.396   0.626   1.435
 5920SOL     OW18319   4.190   1.145   0.738
 5920SOL    HW118320   4.119   1.127   0.800
 5920SOL    HW218321   4.151   1.129   0.652
 5921SOL     OW18322   3.804   0.551   1.393
 5921SOL    HW118323   3.894   0.555   1.362
 5921SOL    HW218324   3.797   0.623   1.456
 5922SOL     OW18325   4.295   0.234   1.157
 5922SOL    HW118326   4.307   0.142   1.179
 5922SOL    HW218327   4.206   0.254   1.187
 5923SOL     OW18328   4.234   1.401   0.189
 5923SOL    HW118329   4.149   1.385   0.229
 5923SOL    HW218330   4.219   1.389   0.095
 5924SOL     OW18331   4.246   0.266   0.319
 5924SOL    HW118332   4.286   0.213   0.250
 5924SOL    HW218333   4.228   0.350   0.277
 5925SOL     OW18334   4.139   0.813   1.250
 5925SOL    HW118335   4.206   0.824   1.317
 5925SOL    HW218336   4.104   0.725   1.264
 5926SOL     OW18337   3.792   1.572   1.350
 5926SOL    HW118338   3.758   1.645   1.297
 5926SOL    HW218339   3.887   1.581   1.345
 5927SOL     OW18340   4.076   1.111   0.496
 5927SOL    HW118341   4.076   1.185   0.435
 5927SOL    HW218342   4.071   1.034   0.440
 5928SOL     OW18343   4.300   0.539   0.862
 5928SOL    HW118344   4.302   0.605   0.793
 5928SOL    HW218345   4.360   0.571   0.928
 5929SOL     OW18346   4.073   1.530   1.318
 5929SOL    HW118347   4.066   1.487   1.233
 5929SOL    HW218348   4.167   1.533   1.335
 5930SOL     OW18349   4.136   0.742   1.604
 5930SOL    HW118350   4.193   0.789   1.543
 5930SOL    HW218351   4.181   0.660   1.622
 5931SOL     OW18352   4.236   0.068   1.729
 5931SOL    HW118353   4.201   4.487   1.691
 5931SOL    HW218354   4.158   0.121   1.747
 5932SOL     OW18355   4.292   0.885   1.026
 5932SOL    HW118356   4.325   0.974   1.039
 5932SOL    HW218357   4.243   0.866   1.106
 5933SOL     OW18358   4.014   0.238   1.240
 5933SOL    HW118359   3.973   0.250   1.326
 5933SOL    HW218360   4.045   0.147   1.241
 5934SOL     OW18361   3.770   1.310   1.277
 5934SOL    HW118362   3.803   1.257   1.350
 5934SOL    HW218363   3.777   1.400   1.308
 5935SOL     OW18364   4.018   0.061   0.655
 5935SOL    HW118365   4.011   0.156   0.661
 5935SOL    HW218366   4.033   0.032   0.745
 5936SOL     OW18367   4.077   0.916   1.807
 5936SOL    HW118368   4.158   0.932   1.854
 5936SOL    HW218369   4.099   0.852   1.739
 5937SOL     OW18370   4.032   0.809   0.947
 5937SOL    HW118371   4.124   0.836   0.946
 5937SOL    HW218372   4.034   0.720   0.981
 5938SOL     OW18373   4.066   0.529   1.010
 5938SOL    HW118374   4.023   0.445   0.991
 5938SOL    HW218375   4.143   0.529   0.953
 5939SOL     OW18376   3.731   1.328   0.195
 5939SOL    HW118377   3.644   1.339   0.157
 5939SOL    HW218378   3.732   1.237   0.225
 5940SOL     OW18379   3.815   1.790   0.937
 5940SOL    HW118380   3.785   1.710   0.894
 5940SOL    HW218381   3.905   1.801   0.905
 5941SOL     OW18382   4.232   1.581   0.906
 5941SOL    HW118383   4.316   1.619   0.930
 5941SOL    HW218384   4.255   1.508   0.848
 5942SOL     OW18385   3.758   0.543   1.117
 5942SOL    HW118386   3.836   0.519   1.067
 5942SOL    HW218387   3.789   0.548   1.208
 5943SOL     OW18388   3.909   0.517   1.720
 5943SOL    HW118389   3.981   0.496   1.660
 5943SOL    HW218390   3.865   0.592   1.679
 5944SOL     OW18391   0.031   0.553   0.270
 5944SOL    HW118392   0.016   0.480   0.331
 5944SOL    HW218393   4.464   0.617   0.294
 5945SOL     OW18394   3.972   1.554   1.731
 5945SOL    HW118395   3.944   1.616   1.797
 5945SOL    HW218396   3.968   1.469   1.774
 5946SOL     OW18397   4.192   0.491   0.178
 5946SOL    HW118398   4.248   0.563   0.205
 5946SOL    HW218399   4.104   0.529   0.175
 5947SOL     OW18400   3.872   1.139   1.471
 5947SOL    HW118401   3.876   1.086   1.550
 5947SOL    HW218402   3.888   1.078   1.400
 5948SOL     OW18403   3.808   1.268   1.014
 5948SOL    HW118404   3.794   1.277   1.108
 5948SOL    HW218405   3.735   1.212   0.984
 5949SOL     OW18406   4.390   1.652   1.702
 5949SOL    HW118407   4.357   1.739   1.724
 5949SOL    HW218408   4.442   1.665   1.623
 5950SOL     OW18409   3.859   1.797   1.844
 5950SOL    HW118410   3.808   1.732   1.892
 5950SOL    HW218411   3.908   1.845   1.911
 5951SOL     OW18412   3.990   0.328   0.718
 5951SOL    HW118413   3.904   0.359   0.693
 5951SOL    HW218414   3.984   0.315   0.813
 5952SOL     OW18415   4.090   1.304   1.491
 5952SOL    HW118416   4.072   1.381   1.437
 5952SOL    HW218417   4.016   1.245   1.474
 5953SOL     OW18418   4.324   1.489   0.482
 5953SOL    HW118419   4.345   1.433   0.408
 5953SOL    HW218420   4.259   1.551   0.448
 5954SOL     OW18421   3.988   1.344   0.287
 5954SOL    HW118422   3.899   1.344   0.252
 5954SOL    HW218423   3.980   1.382   0.374
 5955SOL     OW18424   3.835   1.019   1.719
 5955SOL    HW118425   3.759   0.996   1.773
 5955SOL    HW218426   3.910   0.983   1.767
 5956SOL     OW18427   4.374   0.205   1.489
 5956SOL    HW118428   4.463   0.216   1.457
 5956SOL    HW218429   4.384   0.182   1.581
 5957SOL     OW18430   3.801   0.349   0.053
 5957SOL    HW118431   3.724   0.311   0.010
 5957SOL    HW218432   3.820   0.428   0.002
 5958SOL     OW18433   3.791   0.178   0.326
 5958SOL    HW118434   3.785   0.246   0.259
 5958SOL    HW218435   3.864   0.123   0.298
 5959SOL     OW18436   4.337   0.840   1.434
 5959SOL    HW118437   4.381   0.923   1.419
 5959SOL    HW218438   4.407   0.776   1.445
 5960SOL     OW18439   4.402   0.558   1.731
 5960SOL    HW118440   4.427   0.634   1.785
 5960SOL    HW218441   4.485   0.515   1.710
 5961SOL     OW18442   4.109   1.739   1.560
 5961SOL    HW118443   4.022   1.778   1.549
 5961SOL    HW218444   4.092   1.656   1.606
 5962SOL     OW18445   4.311   0.732   0.663
 5962SOL    HW118446   4.353   0.818   0.654
 5962SOL    HW218447   4.239   0.733   0.600
 5963SOL     OW18448   3.944   1.307   1.855
 5963SOL    HW118449   3.878   1.244   1.828
 5963SOL    HW218450   3.930   1.318   1.949
 5964SOL     OW18451   3.807   1.235   0.664
 5964SOL    HW118452   3.810   1.185   0.746
 5964SOL    HW218453   3.878   1.199   0.612
 5965SOL     OW18454   4.412   1.387   1.651
 5965SOL    HW118455   4.323   1.353   1.653
 5965SOL    HW218456   4.402   1.481   1.668
 5966SOL     OW18457   4.161   0.432   0.528
 5966SOL    HW118458   4.181   0.359   0.469
 5966SOL    HW218459   4.108   0.394   0.597
 5967SOL     OW18460   4.052   0.554   1.289
 5967SOL    HW118461   4.104   0.495   1.343
 5967SOL    HW218462   4.071   0.528   1.199
 5968SOL     OW18463   0.036   1.594   0.686
 5968SOL    HW118464   0.060   1.650   0.612
 5968SOL    HW218465   4.463   1.541   0.654
 5969SOL     OW18466   3.766   1.072   0.300
 5969SOL    HW118467   3.862   1.066   0.296
 5969SOL    HW218468   3.737   0.985   0.327
 5970SOL     OW18469   3.955   0.627   1.981
 5970SOL    HW118470   3.867   0.621   2.019
 5970SOL    HW218471   3.945   0.594   1.892
 5971SOL     OW18472   3.932   0.299   2.850
 5971SOL    HW118473   3.966   0.270   2.935
 5971SOL    HW218474   3.852   0.248   2.838
 5972SOL     OW18475   3.732   0.384   2.502
 5972SOL    HW118476   3.646   0.404   2.538
 5972SOL    HW218477   3.718   0.308   2.445
 5973SOL     OW18478   4.271   1.251   3.007
 5973SOL    HW118479   4.193   1.303   2.986
 5973SOL    HW218480   4.328   1.312   3.054
 5974SOL     OW18481   0.026   0.781   3.719
 5974SOL    HW118482   0.072   0.834   3.784
 5974SOL    HW218483   0.066   0.806   3.636
 5975SOL     OW18484   4.399   0.997   2.505
 5975SOL    HW118485   4.470   0.990   2.569
 5975SOL    HW218486   4.334   1.054   2.547
 5976SOL     OW18487   4.418   1.161   3.676
 5976SOL    HW118488   4.462   1.242   3.652
 5976SOL    HW218489   4.328   1.173   3.648
 5977SOL     OW18490   4.059   1.434   2.931
 5977SOL    HW118491   3.987   1.393   2.883
 5977SOL    HW218492   4.107   1.482   2.864
 5978SOL     OW18493   4.163   0.396   3.352
 5978SOL    HW118494   4.242   0.342   3.352
 5978SOL    HW218495   4.092   0.334   3.364
 5979SOL     OW18496   3.943   1.713   2.337
 5979SOL    HW118497   3.966   1.790   2.390
 5979SOL    HW218498   4.014   1.706   2.273
 5980SOL     OW18499   3.953   1.440   2.395
 5980SOL    HW118500   3.936   1.533   2.403
 5980SOL    HW218501   3.892   1.399   2.457
 5981SOL     OW18502   3.973   1.089   2.749
 5981SOL    HW118503   3.977   1.004   2.794
 5981SOL    HW218504   3.920   1.144   2.805
 5982SOL     OW18505   4.359   1.798   3.314
 5982SOL    HW118506   4.273   1.764   3.339
 5982SOL    HW218507   4.348   1.893   3.315
 5983SOL     OW18508   4.311   0.984   1.998
 5983SOL    HW118509   4.339   1.038   1.925
 5983SOL    HW218510   4.378   0.996   2.065
 5984SOL     OW18511   3.839   0.651   2.421
 5984SOL    HW118512   3.810   0.562   2.443
 5984SOL    HW218513   3.830   0.700   2.503
 5985SOL     OW18514   3.754   1.597   1.986
 5985SOL    HW118515   3.736   1.504   2.005
 5985SOL    HW218516   3.729   1.643   2.066
 5986SOL     OW18517   3.845   0.743   3.448
 5986SOL    HW118518   3.937   0.765   3.464
 5986SOL    HW218519   3.798   0.826   3.454
 5987SOL     OW18520   4.315   1.385   2.599
 5987SOL    HW118521   4.278   1.297   2.603
 5987SOL    HW218522   4.313   1.407   2.506
 5988SOL     OW18523   0.019   0.017   2.375
 5988SOL    HW118524   0.048   0.081   2.310
 5988SOL    HW218525   4.428   0.041   2.393
 5989SOL     OW18526   3.914   0.968   3.132
 5989SOL    HW118527   3.999   0.927   3.114
 5989SOL    HW218528   3.850   0.912   3.088
 5990SOL     OW18529   4.039   0.254   3.647
 5990SOL    HW118530   4.101   0.320   3.676
 5990SOL    HW218531   3.964   0.263   3.705
 5991SOL     OW18532   4.312   0.729   2.131
 5991SOL    HW118533   4.313   0.804   2.072
 5991SOL    HW218534   4.243   0.749   2.195
 5992SOL     OW18535   3.813   0.820   2.637
 5992SOL    HW118536   3.894   0.812   2.687
 5992SOL    HW218537   3.771   0.899   2.672
 5993SOL     OW18538   3.853   1.838   3.438
 5993SOL    HW118539   3.850   1.820   3.532
 5993SOL    HW218540   3.762   1.843   3.411
 5994SOL     OW18541   4.251   0.201   2.757
 5994SOL    HW118542   4.286   0.219   2.844
 5994SOL    HW218543   4.265   0.282   2.708
 5995SOL     OW18544   4.081   1.809   2.721
 5995SOL    HW118545   4.129   1.726   2.729
 5995SOL    HW218546   4.148   1.877   2.732
 5996SOL     OW18547   4.045   0.956   2.110
 5996SOL    HW118548   4.127   0.974   2.064
 5996SOL    HW218549   4.014   0.874   2.072
 5997SOL     OW18550   4.179   1.254   3.597
 5997SOL    HW118551   4.151   1.265   3.506
 5997SOL    HW218552   4.098   1.263   3.648
 5998SOL     OW18553   3.914   0.270   3.371
 5998SOL    HW118554   3.846   0.335   3.352
 5998SOL    HW218555   3.920   0.268   3.466
 5999SOL     OW18556   4.193   1.735   2.187
 5999SOL    HW118557   4.223   1.794   2.256
 5999SOL    HW218558   4.263   1.735   2.122
 6000SOL     OW18559   3.979   1.793   3.095
 6000SOL    HW118560   4.027   1.725   3.142
 6000SOL    HW218561   3.965   1.756   3.008
 6001SOL     OW18562   4.110   0.694   2.336
 6001SOL    HW118563   4.137   0.603   2.349
 6001SOL    HW218564   4.017   0.695   2.358
 6002SOL     OW18565   4.328   0.123   1.978
 6002SOL    HW118566   4.414   0.084   1.992
 6002SOL    HW218567   4.305   0.099   1.889
 6003SOL     OW18568   0.017   1.426   2.778
 6003SOL    HW118569   0.090   1.454   2.722
 6003SOL    HW218570   4.445   1.409   2.717
 6004SOL     OW18571   4.270   0.107   2.400
 6004SOL    HW118572   4.186   0.066   2.419
 6004SOL    HW218573   4.256   0.158   2.320
 6005SOL     OW18574   4.023   0.073   2.053
 6005SOL    HW118575   4.102   0.124   2.035
 6005SOL    HW218576   4.053   4.500   2.106
 6006SOL     OW18577   0.321   0.682   3.317
 6006SOL    HW118578   0.245   0.623   3.309
 6006SOL    HW218579   0.396   0.626   3.297
 6007SOL     OW18580   4.189   1.145   2.598
 6007SOL    HW118581   4.119   1.127   2.661
 6007SOL    HW218582   4.150   1.127   2.513
 6008SOL     OW18583   3.804   0.551   3.256
 6008SOL    HW118584   3.894   0.555   3.224
 6008SOL    HW218585   3.798   0.623   3.318
 6009SOL     OW18586   4.295   0.235   3.021
 6009SOL    HW118587   4.307   0.142   3.040
 6009SOL    HW218588   4.206   0.254   3.049
 6010SOL     OW18589   4.230   1.387   2.034
 6010SOL    HW118590   4.145   1.372   2.077
 6010SOL    HW218591   4.207   1.404   1.943
 6011SOL     OW18592   4.246   0.269   2.185
 6011SOL    HW118593   4.285   0.213   2.118
 6011SOL    HW218594   4.228   0.352   2.140
 6012SOL     OW18595   4.139   0.813   3.112
 6012SOL    HW118596   4.206   0.824   3.179
 6012SOL    HW218597   4.105   0.725   3.126
 6013SOL     OW18598   3.792   1.572   3.212
 6013SOL    HW118599   3.758   1.644   3.159
 6013SOL    HW218600   3.887   1.581   3.206
 6014SOL     OW18601   4.076   1.106   2.353
 6014SOL    HW118602   4.077   1.179   2.291
 6014SOL    HW218603   4.074   1.028   2.298
 6015SOL     OW18604   4.300   0.539   2.724
 6015SOL    HW118605   4.301   0.605   2.655
 6015SOL    HW218606   4.361   0.572   2.790
 6016SOL     OW18607   4.073   1.530   3.180
 6016SOL    HW118608   4.065   1.487   3.095
 6016SOL    HW218609   4.167   1.533   3.197
 6017SOL     OW18610   4.136   0.742   3.466
 6017SOL    HW118611   4.193   0.789   3.405
 6017SOL    HW218612   4.181   0.660   3.484
 6018SOL     OW18613   4.236   0.068   3.591
 6018SOL    HW118614   4.201   4.488   3.552
 6018SOL    HW218615   4.158   0.121   3.610
 6019SOL     OW18616   4.292   0.885   2.888
 6019SOL    HW118617   4.325   0.974   2.901
 6019SOL    HW218618   4.243   0.866   2.968
 6020SOL     OW18619   4.014   0.238   3.102
 6020SOL    HW118620   3.973   0.250   3.188
 6020SOL    HW218621   4.045   0.148   3.103
 6021SOL     OW18622   3.771   1.310   3.139
 6021SOL    HW118623   3.803   1.257   3.212
 6021SOL    HW218624   3.777   1.400   3.171
 6022SOL     OW18625   4.013   0.059   2.519
 6022SOL    HW118626   4.010   0.155   2.522
 6022SOL    HW218627   4.032   0.033   2.609
 6023SOL     OW18628   4.077   0.916   3.669
 6023SOL    HW118629   4.159   0.931   3.716
 6023SOL    HW218630   4.099   0.852   3.601
 6024SOL     OW18631   4.032   0.809   2.809
 6024SOL    HW118632   4.124   0.836   2.808
 6024SOL    HW218633   4.034   0.720   2.842
 6025SOL     OW18634   4.066   0.529   2.872
 6025SOL    HW118635   4.023   0.446   2.853
 6025SOL    HW218636   4.143   0.529   2.816
 6026SOL     OW18637   3.729   1.322   2.057
 6026SOL    HW118638   3.642   1.336   2.020
 6026SOL    HW218639   3.727   1.233   2.090
 6027SOL     OW18640   3.815   1.790   2.799
 6027SOL    HW118641   3.785   1.710   2.756
 6027SOL    HW218642   3.905   1.801   2.767
 6028SOL     OW18643   4.232   1.581   2.767
 6028SOL    HW118644   4.316   1.618   2.793
 6028SOL    HW218645   4.255   1.508   2.710
 6029SOL     OW18646   3.758   0.543   2.979
 6029SOL    HW118647   3.835   0.519   2.928
 6029SOL    HW218648   3.789   0.548   3.070
 6030SOL     OW18649   3.909   0.517   3.582
 6030SOL    HW118650   3.981   0.496   3.522
 6030SOL    HW218651   3.865   0.592   3.541
 6031SOL     OW18652   0.032   0.555   2.128
 6031SOL    HW118653   0.020   0.481   2.187
 6031SOL    HW218654   4.464   0.617   2.153
 6032SOL     OW18655   3.972   1.554   3.593
 6032SOL    HW118656   3.944   1.616   3.660
 6032SOL    HW218657   3.968   1.469   3.636
 6033SOL     OW18658   4.193   0.494   2.048
 6033SOL    HW118659   4.250   0.569   2.068
 6033SOL    HW218660   4.106   0.532   2.039
 6034SOL     OW18661   3.873   1.139   3.333
 6034SOL    HW118662   3.876   1.085   3.412
 6034SOL    HW218663   3.888   1.078   3.262
 6035SOL     OW18664   3.808   1.268   2.876
 6035SOL    HW118665   3.794   1.277   2.970
 6035SOL    HW218666   3.735   1.213   2.846
 6036SOL     OW18667   4.390   1.652   3.565
 6036SOL    HW118668   4.356   1.739   3.586
 6036SOL    HW218669   4.442   1.665   3.485
 6037SOL     OW18670   3.859   1.797   3.706
 6037SOL    HW118671   3.808   1.732   3.754
 6037SOL    HW218672   3.908   1.845   3.773
 6038SOL     OW18673   3.991   0.328   2.581
 6038SOL    HW118674   3.904   0.359   2.555
 6038SOL    HW218675   3.984   0.315   2.675
 6039SOL     OW18676   4.090   1.304   3.353
 6039SOL    HW118677   4.072   1.381   3.299
 6039SOL    HW218678   4.016   1.245   3.336
 6040SOL     OW18679   4.325   1.490   2.344
 6040SOL    HW118680   4.344   1.431   2.271
 6040SOL    HW218681   4.260   1.552   2.309
 6041SOL     OW18682   3.983   1.351   2.147
 6041SOL    HW118683   3.890   1.347   2.125
 6041SOL    HW218684   3.985   1.386   2.236
 6042SOL     OW18685   3.835   1.019   3.581
 6042SOL    HW118686   3.759   0.996   3.635
 6042SOL    HW218687   3.910   0.983   3.629
 6043SOL     OW18688   4.374   0.205   3.351
 6043SOL    HW118689   4.463   0.216   3.319
 6043SOL    HW218690   4.385   0.182   3.444
 6044SOL     OW18691   3.804   0.344   1.908
 6044SOL    HW118692   3.732   0.292   1.873
 6044SOL    HW218693   3.820   0.412   1.843
 6045SOL     OW18694   3.790   0.179   2.184
 6045SOL    HW118695   3.787   0.246   2.116
 6045SOL    HW218696   3.866   0.125   2.162
 6046SOL     OW18697   4.337   0.840   3.296
 6046SOL    HW118698   4.381   0.923   3.281
 6046SOL    HW218699   4.407   0.776   3.307
 6047SOL     OW18700   4.402   0.558   3.594
 6047SOL    HW118701   4.427   0.634   3.647
 6047SOL    HW218702   4.485   0.515   3.572
 6048SOL     OW18703   4.109   1.739   3.422
 6048SOL    HW118704   4.022   1.778   3.411
 6048SOL    HW218705   4.092   1.656   3.468
 6049SOL     OW18706   4.311   0.733   2.526
 6049SOL    HW118707   4.353   0.818   2.514
 6049SOL    HW218708   4.240   0.733   2.462
 6050SOL     OW18709   3.944   1.307   3.717
 6050SOL    HW118710   3.878   1.244   3.690
 6050SOL    HW218711   3.930   1.318   3.811
 6051SOL     OW18712   3.808   1.236   2.526
 6051SOL    HW118713   3.809   1.186   2.608
 6051SOL    HW218714   3.877   1.196   2.473
 6052SOL     OW18715   4.412   1.387   3.513
 6052SOL    HW118716   4.323   1.353   3.516
 6052SOL    HW218717   4.402   1.481   3.531
 6053SOL     OW18718   4.162   0.434   2.392
 6053SOL    HW118719   4.182   0.363   2.330
 6053SOL    HW218720   4.109   0.393   2.459
 6054SOL     OW18721   4.052   0.554   3.151
 6054SOL    HW118722   4.104   0.495   3.205
 6054SOL    HW218723   4.071   0.528   3.061
 6055SOL     OW18724   0.038   1.594   2.547
 6055SOL    HW118725   0.057   1.651   2.472
 6055SOL    HW218726   4.464   1.540   2.518
 6056SOL     OW18727   3.768   1.073   2.166
 6056SOL    HW118728   3.862   1.063   2.150
 6056SOL    HW218729   3.738   0.985   2.190
 6057SOL     OW18730   3.955   0.627   3.843
 6057SOL    HW118731   3.867   0.621   3.881
 6057SOL    HW218732   3.945   0.594   3.754
 6058SOL     OW18733   3.932   0.299   4.712
 6058SOL    HW118734   3.966   0.270   4.797
 6058SOL    HW218735   3.852   0.248   4.700
 6059SOL     OW18736   3.732   0.384   4.364
 6059SOL    HW118737   3.646   0.404   4.400
 6059SOL    HW218738   3.717   0.308   4.307
 6060SOL     OW18739   4.272   1.252   4.868
 6060SOL    HW118740   4.193   1.302   4.848
 6060SOL    HW218741   4.328   1.312   4.916
 6061SOL     OW18742   0.026   0.781   5.581
 6061SOL    HW118743   0.071   0.834   5.646
 6061SOL    HW218744   0.065   0.806   5.498
 6062SOL     OW18745   4.399   0.997   4.367
 6062SOL    HW118746   4.469   0.989   4.431
 6062SOL    HW218747   4.334   1.054   4.408
 6063SOL     OW18748   4.418   1.161   5.538
 6063SOL    HW118749   4.462   1.242   5.514
 6063SOL    HW218750   4.327   1.173   5.510
 6064SOL     OW18751   4.059   1.433   4.793
 6064SOL    HW118752   3.986   1.392   4.746
 6064SOL    HW218753   4.107   1.482   4.726
 6065SOL     OW18754   4.164   0.396   5.214
 6065SOL    HW118755   4.242   0.342   5.215
 6065SOL    HW218756   4.091   0.334   5.226
 6066SOL     OW18757   3.943   1.713   4.199
 6066SOL    HW118758   3.967   1.790   4.252
 6066SOL    HW218759   4.014   1.706   4.135
 6067SOL     OW18760   3.953   1.440   4.258
 6067SOL    HW118761   3.935   1.533   4.265
 6067SOL    HW218762   3.892   1.399   4.319
 6068SOL     OW18763   3.974   1.089   4.611
 6068SOL    HW118764   3.977   1.004   4.656
 6068SOL    HW218765   3.920   1.144   4.667
 6069SOL     OW18766   4.359   1.798   5.176
 6069SOL    HW118767   4.273   1.763   5.200
 6069SOL    HW218768   4.348   1.893   5.177
 6070SOL     OW18769   4.311   0.984   3.860
 6070SOL    HW118770   4.339   1.038   3.787
 6070SOL    HW218771   4.378   0.996   3.927
 6071SOL     OW18772   3.839   0.651   4.283
 6071SOL    HW118773   3.810   0.562   4.305
 6071SOL    HW218774   3.830   0.700   4.365
 6072SOL     OW18775   3.754   1.597   3.848
 6072SOL    HW118776   3.736   1.504   3.867
 6072SOL    HW218777   3.730   1.643   3.928
 6073SOL     OW18778   3.845   0.743   5.310
 6073SOL    HW118779   3.936   0.766   5.326
 6073SOL    HW218780   3.798   0.826   5.315
 6074SOL     OW18781   4.315   1.385   4.461
 6074SOL    HW118782   4.278   1.297   4.465
 6074SOL    HW218783   4.313   1.407   4.368
 6075SOL     OW18784   0.019   0.017   4.237
 6075SOL    HW118785   0.048   0.081   4.172
 6075SOL    HW218786   4.428   0.041   4.255
 6076SOL     OW18787   3.914   0.968   4.994
 6076SOL    HW118788   3.999   0.927   4.975
 6076SOL    HW218789   3.850   0.913   4.949
 6077SOL     OW18790   4.039   0.254   5.509
 6077SOL    HW118791   4.101   0.320   5.538
 6077SOL    HW218792   3.964   0.263   5.567
 6078SOL     OW18793   4.312   0.729   3.994
 6078SOL    HW118794   4.313   0.804   3.934
 6078SOL    HW218795   4.243   0.749   4.057
 6079SOL     OW18796   3.813   0.820   4.499
 6079SOL    HW118797   3.894   0.812   4.549
 6079SOL    HW218798   3.771   0.898   4.534
 6080SOL     OW18799   3.853   1.838   5.299
 6080SOL    HW118800   3.850   1.820   5.393
 6080SOL    HW218801   3.762   1.843   5.273
 6081SOL     OW18802   4.251   0.201   4.619
 6081SOL    HW118803   4.286   0.219   4.706
 6081SOL    HW218804   4.265   0.282   4.570
 6082SOL     OW18805   4.081   1.809   4.582
 6082SOL    HW118806   4.129   1.726   4.591
 6082SOL    HW218807   4.148   1.876   4.594
 6083SOL     OW18808   4.045   0.956   3.972
 6083SOL    HW118809   4.127   0.974   3.926
 6083SOL    HW218810   4.013   0.874   3.934
 6084SOL     OW18811   4.179   1.254   5.459
 6084SOL    HW118812   4.151   1.264   5.368
 6084SOL    HW218813   4.098   1.263   5.510
 6085SOL     OW18814   3.914   0.270   5.232
 6085SOL    HW118815   3.847   0.335   5.214
 6085SOL    HW218816   3.919   0.268   5.328
 6086SOL     OW18817   4.192   1.736   4.049
 6086SOL    HW118818   4.223   1.794   4.118
 6086SOL    HW218819   4.263   1.735   3.984
 6087SOL     OW18820   3.980   1.793   4.957
 6087SOL    HW118821   4.027   1.725   5.005
 6087SOL    HW218822   3.964   1.756   4.871
 6088SOL     OW18823   4.110   0.694   4.198
 6088SOL    HW118824   4.137   0.603   4.211
 6088SOL    HW218825   4.017   0.695   4.220
 6089SOL     OW18826   4.328   0.123   3.840
 6089SOL    HW118827   4.414   0.084   3.854
 6089SOL    HW218828   4.305   0.099   3.751
 6090SOL     OW18829   0.017   1.427   4.640
 6090SOL    HW118830   0.090   1.454   4.584
 6090SOL    HW218831   4.445   1.410   4.579
 6091SOL     OW18832   4.270   0.106   4.262
 6091SOL    HW118833   4.186   0.066   4.281
 6091SOL    HW218834   4.255   0.157   4.182
 6092SOL     OW18835   4.023   0.073   3.915
 6092SOL    HW118836   4.102   0.124   3.897
 6092SOL    HW218837   4.053   4.500   3.968
 6093SOL     OW18838   0.321   0.681   5.179
 6093SOL    HW118839   0.245   0.624   5.172
 6093SOL    HW218840   0.396   0.625   5.158
 6094SOL     OW18841   4.189   1.145   4.460
 6094SOL    HW118842   4.119   1.127   4.523
 6094SOL    HW218843   4.150   1.127   4.375
 6095SOL     OW18844   3.804   0.551   5.118
 6095SOL    HW118845   3.895   0.555   5.086
 6095SOL    HW218846   3.797   0.623   5.180
 6096SOL     OW18847   4.295   0.235   4.883
 6096SOL    HW118848   4.307   0.142   4.902
 6096SOL    HW218849   4.206   0.255   4.911
 6097SOL     OW18850   4.229   1.387   3.896
 6097SOL    HW118851   4.146   1.372   3.939
 6097SOL    HW218852   4.207   1.404   3.805
 6098SOL     OW18853   4.246   0.269   4.047
 6098SOL    HW118854   4.285   0.213   3.980
 6098SOL    HW218855   4.228   0.352   4.002
 6099SOL     OW18856   4.139   0.813   4.973
 6099SOL    HW118857   4.206   0.824   5.041
 6099SOL    HW218858   4.104   0.725   4.988
 6100SOL     OW18859   3.792   1.572   5.074
 6100SOL    HW118860   3.756   1.644   5.023
 6100SOL    HW218861   3.886   1.582   5.068
 6101SOL     OW18862   4.077   1.106   4.215
 6101SOL    HW118863   4.076   1.179   4.153
 6101SOL    HW218864   4.074   1.028   4.160
 6102SOL     OW18865   4.300   0.539   4.586
 6102SOL    HW118866   4.301   0.605   4.517
 6102SOL    HW218867   4.361   0.572   4.652
 6103SOL     OW18868   4.073   1.530   5.042
 6103SOL    HW118869   4.065   1.487   4.957
 6103SOL    HW218870   4.168   1.533   5.059
 6104SOL     OW18871   4.136   0.743   5.328
 6104SOL    HW118872   4.193   0.789   5.267
 6104SOL    HW218873   4.181   0.660   5.345
 6105SOL     OW18874   4.236   0.068   5.453
 6105SOL    HW118875   4.201   4.488   5.414
 6105SOL    HW218876   4.158   0.121   5.472
 6106SOL     OW18877   4.293   0.885   4.750
 6106SOL    HW118878   4.325   0.975   4.763
 6106SOL    HW218879   4.243   0.866   4.830
 6107SOL     OW18880   4.014   0.238   4.964
 6107SOL    HW118881   3.973   0.250   5.050
 6107SOL    HW218882   4.045   0.148   4.965
 6108SOL     OW18883   3.772   1.310   5.001
 6108SOL    HW118884   3.804   1.257   5.074
 6108SOL    HW218885   3.777   1.400   5.032
 6109SOL     OW18886   4.013   0.059   4.381
 6109SOL    HW118887   4.010   0.155   4.384
 6109SOL    HW218888   4.032   0.033   4.471
 6110SOL     OW18889   4.077   0.916   5.531
 6110SOL    HW118890   4.159   0.931   5.578
 6110SOL    HW218891   4.099   0.852   5.464
 6111SOL     OW18892   4.032   0.809   4.671
 6111SOL    HW118893   4.124   0.836   4.670
 6111SOL    HW218894   4.034   0.720   4.704
 6112SOL     OW18895   4.066   0.529   4.734
 6112SOL    HW118896   4.023   0.446   4.715
 6112SOL    HW218897   4.143   0.529   4.677
 6113SOL     OW18898   3.729   1.322   3.919
 6113SOL    HW118899   3.642   1.336   3.881
 6113SOL    HW218900   3.728   1.233   3.952
 6114SOL     OW18901   3.815   1.790   4.660
 6114SOL    HW118902   3.784   1.710   4.618
 6114SOL    HW218903   3.905   1.801   4.629
 6115SOL     OW18904   4.232   1.581   4.629
 6115SOL    HW118905   4.316   1.618   4.655
 6115SOL    HW218906   4.255   1.508   4.572
 6116SOL     OW18907   3.758   0.542   4.841
 6116SOL    HW118908   3.835   0.519   4.790
 6116SOL    HW218909   3.789   0.548   4.932
 6117SOL     OW18910   3.909   0.517   5.444
 6117SOL    HW118911   3.981   0.496   5.384
 6117SOL    HW218912   3.865   0.592   5.403
 6118SOL     OW18913   0.032   0.555   3.990
 6118SOL    HW118914   0.020   0.481   4.049
 6118SOL    HW218915   4.464   0.617   4.015
 6119SOL     OW18916   3.974   1.554   5.455
 6119SOL    HW118917   3.944   1.617   5.521
 6119SOL    HW218918   3.968   1.469   5.499
 6120SOL     OW18919   4.193   0.494   3.910
 6120SOL    HW118920   4.250   0.569   3.930
 6120SOL    HW218921   4.106   0.532   3.900
 6121SOL     OW18922   3.873   1.140   5.196
 6121SOL    HW118923   3.876   1.085   5.275
 6121SOL    HW218924   3.888   1.078   5.124
 6122SOL     OW18925   3.808   1.267   4.738
 6122SOL    HW118926   3.794   1.277   4.832
 6122SOL    HW218927   3.734   1.214   4.708
 6123SOL     OW18928   4.391   1.652   5.427
 6123SOL    HW118929   4.356   1.738   5.448
 6123SOL    HW218930   4.441   1.666   5.346
 6124SOL     OW18931   3.860   1.797   5.567
 6124SOL    HW118932   3.808   1.732   5.616
 6124SOL    HW218933   3.908   1.845   5.635
 6125SOL     OW18934   3.991   0.328   4.443
 6125SOL    HW118935   3.904   0.359   4.417
 6125SOL    HW218936   3.984   0.315   4.537
 6126SOL     OW18937   4.090   1.304   5.214
 6126SOL    HW118938   4.071   1.381   5.162
 6126SOL    HW218939   4.016   1.245   5.198
 6127SOL     OW18940   4.325   1.490   4.206
 6127SOL    HW118941   4.343   1.431   4.133
 6127SOL    HW218942   4.260   1.551   4.171
 6128SOL     OW18943   3.983   1.351   4.009
 6128SOL    HW118944   3.890   1.346   3.987
 6128SOL    HW218945   3.985   1.386   4.098
 6129SOL     OW18946   3.835   1.018   5.443
 6129SOL    HW118947   3.759   0.996   5.497
 6129SOL    HW218948   3.910   0.983   5.492
 6130SOL     OW18949   4.374   0.205   5.213
 6130SOL    HW118950   4.463   0.216   5.181
 6130SOL    HW218951   4.385   0.182   5.306
 6131SOL     OW18952   3.805   0.343   3.770
 6131SOL    HW118953   3.732   0.292   3.734
 6131SOL    HW218954   3.820   0.412   3.705
 6132SOL     OW18955   3.790   0.179   4.046
 6132SOL    HW118956   3.787   0.246   3.978
 6132SOL    HW218957   3.866   0.125   4.024
 6133SOL     OW18958   4.337   0.840   5.158
 6133SOL    HW118959   4.381   0.923   5.143
 6133SOL    HW218960   4.407   0.776   5.169
 6134SOL     OW18961   4.402   0.558   5.456
 6134SOL    HW118962   4.427   0.633   5.509
 6134SOL    HW218963   4.485   0.515   5.434
 6135SOL     OW18964   4.109   1.739   5.284
 6135SOL    HW118965   4.022   1.779   5.273
 6135SOL    HW218966   4.091   1.656   5.330
 6136SOL     OW18967   4.311   0.733   4.388
 6136SOL    HW118968   4.353   0.818   4.376
 6136SOL    HW218969   4.240   0.733   4.324
 6137SOL     OW18970   3.945   1.307   5.579
 6137SOL    HW118971   3.877   1.244   5.551
 6137SOL    HW218972   3.929   1.319   5.672
 6138SOL     OW18973   3.808   1.236   4.388
 6138SOL    HW118974   3.808   1.186   4.470
 6138SOL    HW218975   3.878   1.196   4.336
 6139SOL     OW18976   4.412   1.387   5.375
 6139SOL    HW118977   4.323   1.353   5.377
 6139SOL    HW218978   4.402   1.481   5.393
 6140SOL     OW18979   4.162   0.434   4.254
 6140SOL    HW118980   4.182   0.363   4.192
 6140SOL    HW218981   4.109   0.393   4.321
 6141SOL     OW18982   4.052   0.554   5.013
 6141SOL    HW118983   4.104   0.495   5.067
 6141SOL    HW218984   4.071   0.528   4.923
 6142SOL     OW18985   0.038   1.594   4.409
 6142SOL    HW118986   0.057   1.650   4.334
 6142SOL    HW218987   4.464   1.540   4.380
 6143SOL     OW18988   3.768   1.073   4.028
 6143SOL    HW118989   3.862   1.062   4.012
 6143SOL    HW218990   3.738   0.986   4.052
 6144SOL     OW18991   3.955   0.627   5.705
 6144SOL    HW118992   3.867   0.621   5.742
 6144SOL    HW218993   3.945   0.594   5.616
 6145SOL     OW18994   3.932   0.299   6.574
 6145SOL    HW118995   3.966   0.270   6.659
 6145SOL    HW218996   3.852   0.248   6.562
 6146SOL     OW18997   3.732   0.384   6.226
 6146SOL    HW118998   3.646   0.404   6.262
 6146SOL    HW218999   3.718   0.308   6.169
 6147SOL     OW19000   4.270   1.251   6.732
 6147SOL    HW119001   4.193   1.303   6.710
 6147SOL    HW219002   4.328   1.312   6.778
 6148SOL     OW19003   0.025   0.781   7.443
 6148SOL    HW119004   0.072   0.834   7.508
 6148SOL    HW219005   0.065   0.805   7.360
 6149SOL     OW19006   4.399   0.997   6.229
 6149SOL    HW119007   4.470   0.990   6.293
 6149SOL    HW219008   4.334   1.054   6.270
 6150SOL     OW19009   4.418   1.161   7.401
 6150SOL    HW119010   4.462   1.242   7.375
 6150SOL    HW219011   4.327   1.173   7.372
 6151SOL     OW19012   4.059   1.434   6.655
 6151SOL    HW119013   3.986   1.393   6.607
 6151SOL    HW219014   4.107   1.482   6.588
 6152SOL     OW19015   4.163   0.396   7.076
 6152SOL    HW119016   4.242   0.342   7.077
 6152SOL    HW219017   4.092   0.334   7.088
 6153SOL     OW19018   3.944   1.713   6.062
 6153SOL    HW119019   3.967   1.790   6.114
 6153SOL    HW219020   4.014   1.706   5.997
 6154SOL     OW19021   3.954   1.440   6.120
 6154SOL    HW119022   3.936   1.533   6.126
 6154SOL    HW219023   3.892   1.399   6.181
 6155SOL     OW19024   3.974   1.089   6.473
 6155SOL    HW119025   3.977   1.004   6.518
 6155SOL    HW219026   3.920   1.144   6.529
 6156SOL     OW19027   4.359   1.798   7.038
 6156SOL    HW119028   4.273   1.764   7.063
 6156SOL    HW219029   4.349   1.893   7.039
 6157SOL     OW19030   4.311   0.984   5.722
 6157SOL    HW119031   4.340   1.039   5.649
 6157SOL    HW219032   4.378   0.997   5.789
 6158SOL     OW19033   3.839   0.651   6.145
 6158SOL    HW119034   3.810   0.562   6.167
 6158SOL    HW219035   3.830   0.700   6.227
 6159SOL     OW19036   3.755   1.596   5.710
 6159SOL    HW119037   3.736   1.504   5.729
 6159SOL    HW219038   3.729   1.643   5.790
 6160SOL     OW19039   3.845   0.743   7.172
 6160SOL    HW119040   3.937   0.765   7.188
 6160SOL    HW219041   3.798   0.826   7.177
 6161SOL     OW19042   4.315   1.385   6.323
 6161SOL    HW119043   4.278   1.297   6.327
 6161SOL    HW219044   4.313   1.408   6.230
 6162SOL     OW19045   0.019   0.018   6.099
 6162SOL    HW119046   0.048   0.081   6.034
 6162SOL    HW219047   4.428   0.041   6.117
 6163SOL     OW19048   3.914   0.968   6.856
 6163SOL    HW119049   3.999   0.927   6.838
 6163SOL    HW219050   3.850   0.912   6.811
 6164SOL     OW19051   4.039   0.254   7.371
 6164SOL    HW119052   4.101   0.320   7.400
 6164SOL    HW219053   3.964   0.263   7.430
 6165SOL     OW19054   4.313   0.729   5.856
 6165SOL    HW119055   4.313   0.804   5.796
 6165SOL    HW219056   4.243   0.749   5.919
 6166SOL     OW19057   3.813   0.820   6.362
 6166SOL    HW119058   3.894   0.812   6.411
 6166SOL    HW219059   3.771   0.899   6.396
 6167SOL     OW19060   3.854   1.838   7.162
 6167SOL    HW119061   3.850   1.820   7.256
 6167SOL    HW219062   3.762   1.843   7.135
 6168SOL     OW19063   4.251   0.201   6.481
 6168SOL    HW119064   4.286   0.219   6.568
 6168SOL    HW219065   4.265   0.282   6.432
 6169SOL     OW19066   4.081   1.809   6.445
 6169SOL    HW119067   4.129   1.726   6.453
 6169SOL    HW219068   4.148   1.877   6.456
 6170SOL     OW19069   4.045   0.956   5.834
 6170SOL    HW119070   4.126   0.974   5.788
 6170SOL    HW219071   4.013   0.874   5.796
 6171SOL     OW19072   4.179   1.254   7.321
 6171SOL    HW119073   4.151   1.265   7.230
 6171SOL    HW219074   4.098   1.263   7.372
 6172SOL     OW19075   3.914   0.270   7.095
 6172SOL    HW119076   3.847   0.335   7.076
 6172SOL    HW219077   3.920   0.268   7.190
 6173SOL     OW19078   4.193   1.735   5.911
 6173SOL    HW119079   4.223   1.794   5.980
 6173SOL    HW219080   4.263   1.736   5.846
 6174SOL     OW19081   3.979   1.793   6.819
 6174SOL    HW119082   4.027   1.725   6.866
 6174SOL    HW219083   3.964   1.757   6.732
 6175SOL     OW19084   4.110   0.694   6.060
 6175SOL    HW119085   4.137   0.603   6.073
 6175SOL    HW219086   4.017   0.695   6.082
 6176SOL     OW19087   4.328   0.123   5.702
 6176SOL    HW119088   4.414   0.084   5.716
 6176SOL    HW219089   4.305   0.099   5.613
 6177SOL     OW19090   0.017   1.426   6.502
 6177SOL    HW119091   0.090   1.454   6.446
 6177SOL    HW219092   4.445   1.409   6.441
 6178SOL     OW19093   4.270   0.106   6.124
 6178SOL    HW119094   4.186   0.066   6.142
 6178SOL    HW219095   4.256   0.158   6.044
 6179SOL     OW19096   4.023   0.073   5.777
 6179SOL    HW119097   4.102   0.124   5.759
 6179SOL    HW219098   4.053   4.500   5.830
 6180SOL     OW19099   0.321   0.682   7.041
 6180SOL    HW119100   0.245   0.623   7.033
 6180SOL    HW219101   0.396   0.626   7.021
 6181SOL     OW19102   4.189   1.145   6.322
 6181SOL    HW119103   4.119   1.127   6.385
 6181SOL    HW219104   4.150   1.127   6.237
 6182SOL     OW19105   3.804   0.551   6.980
 6182SOL    HW119106   3.895   0.555   6.948
 6182SOL    HW219107   3.798   0.623   7.042
 6183SOL     OW19108   4.295   0.235   6.745
 6183SOL    HW119109   4.307   0.142   6.763
 6183SOL    HW219110   4.206   0.254   6.773
 6184SOL     OW19111   4.229   1.386   5.758
 6184SOL    HW119112   4.146   1.372   5.801
 6184SOL    HW219113   4.206   1.405   5.667
 6185SOL     OW19114   4.246   0.269   5.909
 6185SOL    HW119115   4.285   0.213   5.842
 6185SOL    HW219116   4.228   0.352   5.864
 6186SOL     OW19117   4.139   0.813   6.836
 6186SOL    HW119118   4.206   0.824   6.903
 6186SOL    HW219119   4.105   0.725   6.850
 6187SOL     OW19120   3.792   1.572   6.936
 6187SOL    HW119121   3.757   1.644   6.883
 6187SOL    HW219122   3.887   1.581   6.930
 6188SOL     OW19123   4.077   1.106   6.077
 6188SOL    HW119124   4.076   1.179   6.015
 6188SOL    HW219125   4.074   1.028   6.022
 6189SOL     OW19126   4.300   0.539   6.448
 6189SOL    HW119127   4.301   0.605   6.379
 6189SOL    HW219128   4.361   0.572   6.514
 6190SOL     OW19129   4.073   1.530   6.904
 6190SOL    HW119130   4.065   1.487   6.819
 6190SOL    HW219131   4.167   1.533   6.921
 6191SOL     OW19132   4.136   0.742   7.190
 6191SOL    HW119133   4.193   0.789   7.129
 6191SOL    HW219134   4.181   0.660   7.207
 6192SOL     OW19135   4.236   0.068   7.315
 6192SOL    HW119136   4.201   4.488   7.276
 6192SOL    HW219137   4.158   0.121   7.333
 6193SOL     OW19138   4.293   0.885   6.612
 6193SOL    HW119139   4.325   0.974   6.625
 6193SOL    HW219140   4.243   0.866   6.692
 6194SOL     OW19141   4.014   0.238   6.826
 6194SOL    HW119142   3.973   0.250   6.912
 6194SOL    HW219143   4.045   0.148   6.826
 6195SOL     OW19144   3.770   1.310   6.863
 6195SOL    HW119145   3.803   1.257   6.936
 6195SOL    HW219146   3.777   1.400   6.895
 6196SOL     OW19147   4.013   0.059   6.243
 6196SOL    HW119148   4.010   0.155   6.246
 6196SOL    HW219149   4.032   0.033   6.333
 6197SOL     OW19150   4.077   0.916   7.393
 6197SOL    HW119151   4.159   0.931   7.440
 6197SOL    HW219152   4.099   0.852   7.325
 6198SOL     OW19153   4.032   0.809   6.533
 6198SOL    HW119154   4.124   0.836   6.532
 6198SOL    HW219155   4.034   0.720   6.566
 6199SOL     OW19156   4.066   0.529   6.596
 6199SOL    HW119157   4.023   0.446   6.577
 6199SOL    HW219158   4.143   0.529   6.540
 6200SOL     OW19159   3.730   1.322   5.781
 6200SOL    HW119160   3.642   1.336   5.744
 6200SOL    HW219161   3.727   1.233   5.814
 6201SOL     OW19162   3.815   1.789   6.523
 6201SOL    HW119163   3.785   1.710   6.480
 6201SOL    HW219164   3.905   1.801   6.491
 6202SOL     OW19165   4.232   1.581   6.491
 6202SOL    HW119166   4.316   1.619   6.517
 6202SOL    HW219167   4.255   1.508   6.434
 6203SOL     OW19168   3.758   0.543   6.703
 6203SOL    HW119169   3.835   0.519   6.652
 6203SOL    HW219170   3.789   0.548   6.794
 6204SOL     OW19171   3.909   0.517   7.306
 6204SOL    HW119172   3.981   0.495   7.246
 6204SOL    HW219173   3.865   0.592   7.265
 6205SOL     OW19174   0.032   0.555   5.852
 6205SOL    HW119175   0.020   0.481   5.911
 6205SOL    HW219176   4.464   0.618   5.877
 6206SOL     OW19177   3.972   1.554   7.317
 6206SOL    HW119178   3.944   1.616   7.384
 6206SOL    HW219179   3.968   1.469   7.360
 6207SOL     OW19180   4.193   0.494   5.772
 6207SOL    HW119181   4.250   0.569   5.792
 6207SOL    HW219182   4.106   0.532   5.762
 6208SOL     OW19183   3.872   1.140   7.057
 6208SOL    HW119184   3.876   1.086   7.136
 6208SOL    HW219185   3.888   1.078   6.986
 6209SOL     OW19186   3.808   1.267   6.600
 6209SOL    HW119187   3.793   1.277   6.694
 6209SOL    HW219188   3.735   1.213   6.570
 6210SOL     OW19189   4.390   1.652   7.289
 6210SOL    HW119190   4.356   1.739   7.310
 6210SOL    HW219191   4.442   1.665   7.209
 6211SOL     OW19192   3.859   1.797   7.430
 6211SOL    HW119193   3.808   1.732   7.479
 6211SOL    HW219194   3.908   1.845   7.497
 6212SOL     OW19195   3.991   0.328   6.305
 6212SOL    HW119196   3.904   0.359   6.279
 6212SOL    HW219197   3.984   0.315   6.399
 6213SOL     OW19198   4.090   1.304   7.077
 6213SOL    HW119199   4.072   1.381   7.023
 6213SOL    HW219200   4.016   1.245   7.060
 6214SOL     OW19201   4.325   1.490   6.068
 6214SOL    HW119202   4.343   1.431   5.995
 6214SOL    HW219203   4.260   1.552   6.033
 6215SOL     OW19204   3.983   1.351   5.871
 6215SOL    HW119205   3.890   1.347   5.849
 6215SOL    HW219206   3.985   1.386   5.961
 6216SOL     OW19207   3.835   1.019   7.306
 6216SOL    HW119208   3.759   0.996   7.359
 6216SOL    HW219209   3.910   0.983   7.353
 6217SOL     OW19210   4.374   0.205   7.075
 6217SOL    HW119211   4.463   0.216   7.042
 6217SOL    HW219212   4.385   0.182   7.168
 6218SOL     OW19213   3.804   0.343   5.632
 6218SOL    HW119214   3.732   0.293   5.596
 6218SOL    HW219215   3.820   0.412   5.567
 6219SOL     OW19216   3.790   0.179   5.908
 6219SOL    HW119217   3.786   0.246   5.840
 6219SOL    HW219218   3.866   0.125   5.886
 6220SOL     OW19219   4.337   0.840   7.020
 6220SOL    HW119220   4.381   0.923   7.005
 6220SOL    HW219221   4.407   0.776   7.031
 6221SOL     OW19222   4.402   0.558   7.318
 6221SOL    HW119223   4.427   0.634   7.371
 6221SOL    HW219224   4.485   0.515   7.296
 6222SOL     OW19225   4.109   1.739   7.146
 6222SOL    HW119226   4.022   1.778   7.135
 6222SOL    HW219227   4.092   1.656   7.192
 6223SOL     OW19228   4.311   0.733   6.250
 6223SOL    HW119229   4.353   0.818   6.238
 6223SOL    HW219230   4.240   0.732   6.186
 6224SOL     OW19231   3.944   1.307   7.441
 6224SOL    HW119232   3.878   1.244   7.413
 6224SOL    HW219233   3.930   1.318   7.535
 6225SOL     OW19234   3.808   1.236   6.250
 6225SOL    HW119235   3.808   1.186   6.331
 6225SOL    HW219236   3.877   1.197   6.197
 6226SOL     OW19237   4.412   1.387   7.237
 6226SOL    HW119238   4.323   1.353   7.239
 6226SOL    HW219239   4.402   1.481   7.255
 6227SOL     OW19240   4.163   0.434   6.116
 6227SOL    HW119241   4.182   0.363   6.054
 6227SOL    HW219242   4.109   0.393   6.183
 6228SOL     OW19243   4.052   0.554   6.875
 6228SOL    HW119244   4.104   0.495   6.929
 6228SOL    HW219245   4.071   0.528   6.785
 6229SOL     OW19246   0.038   1.594   6.271
 6229SOL    HW119247   0.057   1.651   6.196
 6229SOL    HW219248   4.464   1.540   6.242
 6230SOL     OW19249   3.768   1.073   5.891
 6230SOL    HW119250   3.862   1.063   5.874
 6230SOL    HW219251   3.738   0.985   5.914
 6231SOL     OW19252   3.955   0.627   7.567
 6231SOL    HW119253   3.867   0.621   7.604
 6231SOL    HW219254   3.945   0.594   7.478
 6232SOL     OW19255   3.932   0.299   8.436
 6232SOL    HW119256   3.966   0.270   8.521
 6232SOL    HW219257   3.852   0.248   8.424
 6233SOL     OW19258   3.732   0.384   8.088
 6233SOL    HW119259   3.646   0.404   8.124
 6233SOL    HW219260   3.718   0.308   8.031
 6234SOL     OW19261   4.270   1.251   8.594
 6234SOL    HW119262   4.193   1.303   8.572
 6234SOL    HW219263   4.328   1.312   8.640
 6235SOL     OW19264   0.025   0.782   9.305
 6235SOL    HW119265   0.072   0.834   9.370
 6235SOL    HW219266   0.065   0.805   9.222
 6236SOL     OW19267   4.399   0.997   8.091
 6236SOL    HW119268   4.470   0.990   8.155
 6236SOL    HW219269   4.334   1.054   8.133
 6237SOL     OW19270   4.418   1.161   9.263
 6237SOL    HW119271   4.462   1.242   9.238
 6237SOL    HW219272   4.327   1.173   9.234
 6238SOL     OW19273   4.059   1.434   8.517
 6238SOL    HW119274   3.987   1.393   8.469
 6238SOL    HW219275   4.107   1.482   8.450
 6239SOL     OW19276   4.163   0.396   8.938
 6239SOL    HW119277   4.242   0.342   8.939
 6239SOL    HW219278   4.092   0.334   8.950
 6240SOL     OW19279   3.943   1.713   7.923
 6240SOL    HW119280   3.966   1.790   7.976
 6240SOL    HW219281   4.014   1.706   7.859
 6241SOL     OW19282   3.953   1.440   7.981
 6241SOL    HW119283   3.936   1.533   7.989
 6241SOL    HW219284   3.892   1.399   8.043
 6242SOL     OW19285   3.973   1.089   8.335
 6242SOL    HW119286   3.977   1.004   8.380
 6242SOL    HW219287   3.920   1.144   8.392
 6243SOL     OW19288   4.359   1.798   8.899
 6243SOL    HW119289   4.273   1.764   8.925
 6243SOL    HW219290   4.349   1.893   8.901
 6244SOL     OW19291   4.311   0.984   7.584
 6244SOL    HW119292   4.339   1.038   7.511
 6244SOL    HW219293   4.378   0.996   7.651
 6245SOL     OW19294   3.839   0.651   8.007
 6245SOL    HW119295   3.810   0.562   8.029
 6245SOL    HW219296   3.830   0.699   8.089
 6246SOL     OW19297   3.754   1.597   7.572
 6246SOL    HW119298   3.737   1.504   7.591
 6246SOL    HW219299   3.729   1.643   7.653
 6247SOL     OW19300   3.845   0.743   9.034
 6247SOL    HW119301   3.937   0.765   9.050
 6247SOL    HW219302   3.799   0.826   9.040
 6248SOL     OW19303   4.314   1.385   8.185
 6248SOL    HW119304   4.278   1.297   8.189
 6248SOL    HW219305   4.313   1.408   8.092
 6249SOL     OW19306   0.019   0.018   7.962
 6249SOL    HW119307   0.048   0.081   7.896
 6249SOL    HW219308   4.428   0.041   7.979
 6250SOL     OW19309   3.914   0.968   8.717
 6250SOL    HW119310   3.999   0.927   8.700
 6250SOL    HW219311   3.850   0.912   8.673
 6251SOL     OW19312   4.039   0.254   9.233
 6251SOL    HW119313   4.101   0.320   9.262
 6251SOL    HW219314   3.964   0.263   9.292
 6252SOL     OW19315   4.312   0.729   7.718
 6252SOL    HW119316   4.313   0.804   7.658
 6252SOL    HW219317   4.243   0.749   7.781
 6253SOL     OW19318   3.813   0.820   8.224
 6253SOL    HW119319   3.894   0.812   8.273
 6253SOL    HW219320   3.771   0.899   8.258
 6254SOL     OW19321   3.853   1.838   9.023
 6254SOL    HW119322   3.850   1.820   9.117
 6254SOL    HW219323   3.762   1.844   8.997
 6255SOL     OW19324   4.251   0.201   8.343
 6255SOL    HW119325   4.286   0.219   8.430
 6255SOL    HW219326   4.265   0.282   8.294
 6256SOL     OW19327   4.081   1.809   8.307
 6256SOL    HW119328   4.129   1.726   8.315
 6256SOL    HW219329   4.148   1.877   8.318
 6257SOL     OW19330   4.045   0.956   7.696
 6257SOL    HW119331   4.127   0.974   7.650
 6257SOL    HW219332   4.014   0.874   7.658
 6258SOL     OW19333   4.179   1.254   9.183
 6258SOL    HW119334   4.151   1.265   9.092
 6258SOL    HW219335   4.098   1.263   9.234
 6259SOL     OW19336   3.914   0.269   8.957
 6259SOL    HW119337   3.847   0.335   8.938
 6259SOL    HW219338   3.920   0.268   9.052
 6260SOL     OW19339   4.193   1.735   7.773
 6260SOL    HW119340   4.223   1.794   7.842
 6260SOL    HW219341   4.263   1.735   7.708
 6261SOL     OW19342   3.978   1.793   8.681
 6261SOL    HW119343   4.027   1.725   8.729
 6261SOL    HW219344   3.965   1.756   8.594
 6262SOL     OW19345   4.110   0.695   7.922
 6262SOL    HW119346   4.137   0.603   7.935
 6262SOL    HW219347   4.017   0.695   7.944
 6263SOL     OW19348   4.328   0.123   7.564
 6263SOL    HW119349   4.414   0.084   7.578
 6263SOL    HW219350   4.305   0.099   7.475
 6264SOL     OW19351   0.017   1.426   8.364
 6264SOL    HW119352   0.090   1.454   8.308
 6264SOL    HW219353   4.445   1.409   8.302
 6265SOL     OW19354   4.270   0.107   7.986
 6265SOL    HW119355   4.186   0.066   8.004
 6265SOL    HW219356   4.256   0.158   7.906
 6266SOL     OW19357   4.023   0.073   7.639
 6266SOL    HW119358   4.102   0.124   7.621
 6266SOL    HW219359   4.053   4.500   7.692
 6267SOL     OW19360   0.321   0.682   8.903
 6267SOL    HW119361   0.245   0.623   8.895
 6267SOL    HW219362   0.396   0.626   8.883
 6268SOL     OW19363   4.189   1.145   8.184
 6268SOL    HW119364   4.119   1.127   8.247
 6268SOL    HW219365   4.150   1.127   8.099
 6269SOL     OW19366   3.804   0.551   8.842
 6269SOL    HW119367   3.895   0.555   8.810
 6269SOL    HW219368   3.798   0.623   8.904
 6270SOL     OW19369   4.295   0.235   8.607
 6270SOL    HW119370   4.307   0.142   8.625
 6270SOL    HW219371   4.206   0.254   8.635
 6271SOL     OW19372   4.230   1.387   7.620
 6271SOL    HW119373   4.145   1.372   7.663
 6271SOL    HW219374   4.207   1.404   7.529
 6272SOL     OW19375   4.246   0.269   7.771
 6272SOL    HW119376   4.285   0.213   7.704
 6272SOL    HW219377   4.228   0.352   7.726
 6273SOL     OW19378   4.139   0.813   8.698
 6273SOL    HW119379   4.206   0.824   8.765
 6273SOL    HW219380   4.105   0.725   8.712
 6274SOL     OW19381   3.792   1.572   8.798
 6274SOL    HW119382   3.758   1.645   8.745
 6274SOL    HW219383   3.887   1.581   8.793
 6275SOL     OW19384   4.076   1.106   7.939
 6275SOL    HW119385   4.077   1.179   7.877
 6275SOL    HW219386   4.074   1.028   7.884
 6276SOL     OW19387   4.299   0.539   8.311
 6276SOL    HW119388   4.301   0.605   8.241
 6276SOL    HW219389   4.361   0.572   8.376
 6277SOL     OW19390   4.073   1.530   8.766
 6277SOL    HW119391   4.065   1.487   8.681
 6277SOL    HW219392   4.167   1.533   8.783
 6278SOL     OW19393   4.136   0.742   9.052
 6278SOL    HW119394   4.193   0.789   8.991
 6278SOL    HW219395   4.181   0.660   9.070
 6279SOL     OW19396   4.236   0.068   9.177
 6279SOL    HW119397   4.201   4.488   9.138
 6279SOL    HW219398   4.158   0.121   9.195
 6280SOL     OW19399   4.292   0.885   8.474
 6280SOL    HW119400   4.325   0.974   8.487
 6280SOL    HW219401   4.243   0.866   8.554
 6281SOL     OW19402   4.014   0.238   8.688
 6281SOL    HW119403   3.973   0.250   8.774
 6281SOL    HW219404   4.045   0.148   8.689
 6282SOL     OW19405   3.770   1.310   8.725
 6282SOL    HW119406   3.803   1.257   8.798
 6282SOL    HW219407   3.777   1.400   8.757
 6283SOL     OW19408   4.013   0.059   8.105
 6283SOL    HW119409   4.010   0.155   8.108
 6283SOL    HW219410   4.032   0.033   8.195
 6284SOL     OW19411   4.077   0.916   9.255
 6284SOL    HW119412   4.159   0.931   9.302
 6284SOL    HW219413   4.099   0.852   9.187
 6285SOL     OW19414   4.032   0.809   8.395
 6285SOL    HW119415   4.124   0.836   8.394
 6285SOL    HW219416   4.034   0.720   8.428
 6286SOL     OW19417   4.066   0.529   8.458
 6286SOL    HW119418   4.023   0.446   8.439
 6286SOL    HW219419   4.143   0.530   8.402
 6287SOL     OW19420   3.729   1.323   7.643
 6287SOL    HW119421   3.642   1.336   7.606
 6287SOL    HW219422   3.728   1.233   7.676
 6288SOL     OW19423   3.815   1.790   8.385
 6288SOL    HW119424   3.785   1.710   8.342
 6288SOL    HW219425   3.905   1.801   8.353
 6289SOL     OW19426   4.232   1.581   8.353
 6289SOL    HW119427   4.316   1.619   8.379
 6289SOL    HW219428   4.255   1.508   8.296
 6290SOL     OW19429   3.758   0.543   8.565
 6290SOL    HW119430   3.835   0.519   8.514
 6290SOL    HW219431   3.789   0.548   8.655
 6291SOL     OW19432   3.909   0.517   9.168
 6291SOL    HW119433   3.981   0.495   9.108
 6291SOL    HW219434   3.865   0.592   9.127
 6292SOL     OW19435   0.032   0.555   7.714
 6292SOL    HW119436   0.020   0.481   7.773
 6292SOL    HW219437   4.464   0.617   7.739
 6293SOL     OW19438   3.972   1.554   9.179
 6293SOL    HW119439   3.944   1.616   9.246
 6293SOL    HW219440   3.968   1.469   9.222
 6294SOL     OW19441   4.193   0.494   7.634
 6294SOL    HW119442   4.250   0.569   7.654
 6294SOL    HW219443   4.106   0.532   7.624
 6295SOL     OW19444   3.872   1.139   8.919
 6295SOL    HW119445   3.876   1.086   8.998
 6295SOL    HW219446   3.888   1.078   8.848
 6296SOL     OW19447   3.807   1.268   8.462
 6296SOL    HW119448   3.793   1.277   8.556
 6296SOL    HW219449   3.735   1.212   8.432
 6297SOL     OW19450   4.390   1.652   9.151
 6297SOL    HW119451   4.357   1.739   9.172
 6297SOL    HW219452   4.442   1.665   9.071
 6298SOL     OW19453   3.859   1.797   9.292
 6298SOL    HW119454   3.808   1.732   9.340
 6298SOL    HW219455   3.908   1.845   9.359
 6299SOL     OW19456   3.991   0.328   8.167
 6299SOL    HW119457   3.904   0.359   8.141
 6299SOL    HW219458   3.984   0.315   8.261
 6300SOL     OW19459   4.090   1.304   8.939
 6300SOL    HW119460   4.072   1.381   8.885
 6300SOL    HW219461   4.016   1.245   8.922
 6301SOL     OW19462   4.325   1.490   7.930
 6301SOL    HW119463   4.344   1.431   7.857
 6301SOL    HW219464   4.260   1.552   7.894
 6302SOL     OW19465   3.983   1.351   7.733
 6302SOL    HW119466   3.890   1.347   7.711
 6302SOL    HW219467   3.985   1.386   7.822
 6303SOL     OW19468   3.835   1.019   9.168
 6303SOL    HW119469   3.759   0.996   9.221
 6303SOL    HW219470   3.910   0.983   9.215
 6304SOL     OW19471   4.374   0.205   8.937
 6304SOL    HW119472   4.463   0.216   8.905
 6304SOL    HW219473   4.385   0.182   9.030
 6305SOL     OW19474   3.804   0.344   7.494
 6305SOL    HW119475   3.732   0.292   7.458
 6305SOL    HW219476   3.820   0.412   7.429
 6306SOL     OW19477   3.790   0.179   7.770
 6306SOL    HW119478   3.786   0.246   7.702
 6306SOL    HW219479   3.866   0.125   7.748
 6307SOL     OW19480   4.337   0.840   8.882
 6307SOL    HW119481   4.381   0.923   8.867
 6307SOL    HW219482   4.407   0.776   8.893
 6308SOL     OW19483   4.402   0.558   9.180
 6308SOL    HW119484   4.427   0.634   9.233
 6308SOL    HW219485   4.485   0.515   9.158
 6309SOL     OW19486   4.109   1.739   9.008
 6309SOL    HW119487   4.022   1.778   8.997
 6309SOL    HW219488   4.092   1.656   9.054
 6310SOL     OW19489   4.311   0.733   8.112
 6310SOL    HW119490   4.353   0.818   8.100
 6310SOL    HW219491   4.240   0.733   8.048
 6311SOL     OW19492   3.944   1.307   9.303
 6311SOL    HW119493   3.878   1.244   9.276
 6311SOL    HW219494   3.930   1.318   9.397
 6312SOL     OW19495   3.808   1.236   8.112
 6312SOL    HW119496   3.809   1.186   8.194
 6312SOL    HW219497   3.877   1.197   8.059
 6313SOL     OW19498   4.412   1.387   9.099
 6313SOL    HW119499   4.323   1.353   9.102
 6313SOL    HW219500   4.402   1.481   9.116
 6314SOL     OW19501   4.162   0.434   7.978
 6314SOL    HW119502   4.182   0.363   7.916
 6314SOL    HW219503   4.109   0.393   8.045
 6315SOL     OW19504   4.052   0.554   8.737
 6315SOL    HW119505   4.104   0.495   8.791
 6315SOL    HW219506   4.071   0.528   8.647
 6316SOL     OW19507   0.037   1.594   8.133
 6316SOL    HW119508   0.057   1.651   8.058
 6316SOL    HW219509   4.464   1.540   8.104
 6317SOL     OW19510   3.768   1.073   7.753
 6317SOL    HW119511   3.862   1.063   7.736
 6317SOL    HW219512   3.738   0.985   7.776
 6318SOL     OW19513   3.955   0.628   9.429
 6318SOL    HW119514   3.867   0.621   9.466
 6318SOL    HW219515   3.945   0.594   9.340
 6319SOL     OW19516   3.932   0.299  10.298
 6319SOL    HW119517   3.966   0.270  10.383
 6319SOL    HW219518   3.852   0.248  10.286
 6320SOL     OW19519   3.732   0.384   9.950
 6320SOL    HW119520   3.646   0.403   9.986
 6320SOL    HW219521   3.718   0.308   9.893
 6321SOL     OW19522   4.271   1.251  10.456
 6321SOL    HW119523   4.193   1.303  10.434
 6321SOL    HW219524   4.328   1.312  10.502
 6322SOL     OW19525   0.026   0.808   0.077
 6322SOL    HW119526   0.097   0.853   0.123
 6322SOL    HW219527   0.058   0.796  11.088
 6323SOL     OW19528   4.399   0.997   9.953
 6323SOL    HW119529   4.470   0.989  10.017
 6323SOL    HW219530   4.334   1.054   9.995
 6324SOL     OW19531   4.059   1.434  10.379
 6324SOL    HW119532   3.987   1.393  10.331
 6324SOL    HW219533   4.107   1.482  10.312
 6325SOL     OW19534   4.173   0.397  10.798
 6325SOL    HW119535   4.242   0.331  10.798
 6325SOL    HW219536   4.093   0.349  10.819
 6326SOL     OW19537   3.943   1.713   9.785
 6326SOL    HW119538   3.966   1.790   9.838
 6326SOL    HW219539   4.014   1.706   9.721
 6327SOL     OW19540   3.953   1.440   9.843
 6327SOL    HW119541   3.936   1.533   9.851
 6327SOL    HW219542   3.892   1.399   9.905
 6328SOL     OW19543   3.973   1.089  10.197
 6328SOL    HW119544   3.977   1.004  10.242
 6328SOL    HW219545   3.920   1.144  10.253
 6329SOL     OW19546   4.357   1.798  10.758
 6329SOL    HW119547   4.269   1.768  10.783
 6329SOL    HW219548   4.352   1.893  10.764
 6330SOL     OW19549   4.311   0.984   9.446
 6330SOL    HW119550   4.339   1.038   9.373
 6330SOL    HW219551   4.378   0.996   9.513
 6331SOL     OW19552   3.839   0.651   9.869
 6331SOL    HW119553   3.810   0.562   9.891
 6331SOL    HW219554   3.830   0.699   9.951
 6332SOL     OW19555   3.754   1.597   9.434
 6332SOL    HW119556   3.737   1.504   9.453
 6332SOL    HW219557   3.729   1.643   9.514
 6333SOL     OW19558   3.847   0.727  10.912
 6333SOL    HW119559   3.940   0.749  10.912
 6333SOL    HW219560   3.803   0.812  10.905
 6334SOL     OW19561   4.315   1.385  10.047
 6334SOL    HW119562   4.278   1.297  10.051
 6334SOL    HW219563   4.313   1.407   9.954
 6335SOL     OW19564   0.018   0.017   9.823
 6335SOL    HW119565   0.048   0.081   9.758
 6335SOL    HW219566   4.427   0.041   9.840
 6336SOL     OW19567   3.914   0.967  10.578
 6336SOL    HW119568   3.998   0.926  10.559
 6336SOL    HW219569   3.850   0.910  10.535
 6337SOL     OW19570   4.056   0.275  11.088
 6337SOL    HW119571   4.114   0.334   0.035
 6337SOL    HW219572   3.972   0.281   0.034
 6338SOL     OW19573   4.312   0.729   9.579
 6338SOL    HW119574   4.313   0.804   9.520
 6338SOL    HW219575   4.243   0.749   9.643
 6339SOL     OW19576   3.813   0.820  10.086
 6339SOL    HW119577   3.894   0.812  10.135
 6339SOL    HW219578   3.771   0.899  10.121
 6340SOL     OW19579   3.854   1.840  10.894
 6340SOL    HW119580   3.835   1.804  10.981
 6340SOL    HW219581   3.769   1.843  10.850
 6341SOL     OW19582   4.250   0.202  10.208
 6341SOL    HW119583   4.288   0.221  10.294
 6341SOL    HW219584   4.265   0.281  10.156
 6342SOL     OW19585   4.081   1.809  10.169
 6342SOL    HW119586   4.129   1.726  10.177
 6342SOL    HW219587   4.148   1.877  10.180
 6343SOL     OW19588   4.045   0.956   9.558
 6343SOL    HW119589   4.127   0.974   9.512
 6343SOL    HW219590   4.014   0.874   9.520
 6344SOL     OW19591   4.180   1.262  11.053
 6344SOL    HW119592   4.153   1.272  10.961
 6344SOL    HW219593   4.106   1.217  11.094
 6345SOL     OW19594   3.921   0.272  10.812
 6345SOL    HW119595   3.848   0.334  10.803
 6345SOL    HW219596   3.929   0.258  10.906
 6346SOL     OW19597   4.193   1.735   9.635
 6346SOL    HW119598   4.223   1.794   9.704
 6346SOL    HW219599   4.263   1.735   9.570
 6347SOL     OW19600   3.978   1.793  10.544
 6347SOL    HW119601   4.027   1.726  10.592
 6347SOL    HW219602   3.965   1.756  10.457
 6348SOL     OW19603   4.110   0.695   9.784
 6348SOL    HW119604   4.137   0.604   9.797
 6348SOL    HW219605   4.017   0.695   9.806
 6349SOL     OW19606   4.328   0.123   9.426
 6349SOL    HW119607   4.414   0.084   9.440
 6349SOL    HW219608   4.305   0.099   9.337
 6350SOL     OW19609   0.017   1.427  10.226
 6350SOL    HW119610   0.090   1.454  10.170
 6350SOL    HW219611   4.445   1.410  10.165
 6351SOL     OW19612   4.270   0.107   9.848
 6351SOL    HW119613   4.186   0.066   9.866
 6351SOL    HW219614   4.256   0.158   9.768
 6352SOL     OW19615   4.023   0.073   9.501
 6352SOL    HW119616   4.102   0.124   9.483
 6352SOL    HW219617   4.053   4.500   9.554
 6353SOL     OW19618   0.310   0.684  10.766
 6353SOL    HW119619   0.242   0.616  10.772
 6353SOL    HW219620   0.390   0.636  10.747
 6354SOL     OW19621   4.189   1.145  10.046
 6354SOL    HW119622   4.119   1.127  10.109
 6354SOL    HW219623   4.150   1.127   9.961
 6355SOL     OW19624   3.802   0.551  10.705
 6355SOL    HW119625   3.893   0.554  10.674
 6355SOL    HW219626   3.798   0.617  10.774
 6356SOL     OW19627   4.296   0.235  10.474
 6356SOL    HW119628   4.304   0.140  10.482
 6356SOL    HW219629   4.205   0.253  10.496
 6357SOL     OW19630   4.230   1.387   9.482
 6357SOL    HW119631   4.145   1.372   9.525
 6357SOL    HW219632   4.207   1.404   9.391
 6358SOL     OW19633   4.246   0.269   9.633
 6358SOL    HW119634   4.285   0.213   9.566
 6358SOL    HW219635   4.228   0.352   9.588
 6359SOL     OW19636   4.139   0.813  10.560
 6359SOL    HW119637   4.207   0.823  10.626
 6359SOL    HW219638   4.105   0.725  10.573
 6360SOL     OW19639   3.792   1.575  10.659
 6360SOL    HW119640   3.759   1.646  10.603
 6360SOL    HW219641   3.887   1.581  10.652
 6361SOL     OW19642   4.076   1.106   9.801
 6361SOL    HW119643   4.077   1.179   9.739
 6361SOL    HW219644   4.074   1.028   9.746
 6362SOL     OW19645   4.299   0.539  10.173
 6362SOL    HW119646   4.301   0.605  10.104
 6362SOL    HW219647   4.361   0.571  10.238
 6363SOL     OW19648   4.073   1.528  10.629
 6363SOL    HW119649   4.066   1.486  10.543
 6363SOL    HW219650   4.167   1.533  10.646
 6364SOL     OW19651   4.134   0.738  10.906
 6364SOL    HW119652   4.195   0.784  10.848
 6364SOL    HW219653   4.168   0.648  10.909
 6365SOL     OW19654   4.292   0.886  10.336
 6365SOL    HW119655   4.325   0.974  10.349
 6365SOL    HW219656   4.243   0.867  10.416
 6366SOL     OW19657   4.014   0.238  10.549
 6366SOL    HW119658   3.976   0.252  10.635
 6366SOL    HW219659   4.044   0.147  10.550
 6367SOL     OW19660   3.773   1.311  10.586
 6367SOL    HW119661   3.801   1.257  10.660
 6367SOL    HW219662   3.776   1.401  10.620
 6368SOL     OW19663   4.013   0.059   9.967
 6368SOL    HW119664   4.010   0.155   9.970
 6368SOL    HW219665   4.032   0.033  10.057
 6369SOL     OW19666   4.080   0.919  11.095
 6369SOL    HW119667   4.164   0.934   0.039
 6369SOL    HW219668   4.099   0.852  11.029
 6370SOL     OW19669   4.032   0.809  10.257
 6370SOL    HW119670   4.124   0.836  10.256
 6370SOL    HW219671   4.034   0.719  10.290
 6371SOL     OW19672   4.066   0.529  10.320
 6371SOL    HW119673   4.023   0.446  10.301
 6371SOL    HW219674   4.143   0.530  10.264
 6372SOL     OW19675   3.729   1.323   9.505
 6372SOL    HW119676   3.642   1.336   9.468
 6372SOL    HW219677   3.728   1.233   9.538
 6373SOL     OW19678   3.815   1.790  10.247
 6373SOL    HW119679   3.784   1.710  10.204
 6373SOL    HW219680   3.905   1.801  10.215
 6374SOL     OW19681   4.232   1.581  10.215
 6374SOL    HW119682   4.316   1.619  10.241
 6374SOL    HW219683   4.255   1.508  10.158
 6375SOL     OW19684   3.758   0.543  10.427
 6375SOL    HW119685   3.836   0.519  10.377
 6375SOL    HW219686   3.789   0.549  10.518
 6376SOL     OW19687   0.032   0.555   9.576
 6376SOL    HW119688   0.020   0.481   9.635
 6376SOL    HW219689   4.464   0.617   9.601
 6377SOL     OW19690   3.979   1.566  11.055
 6377SOL    HW119691   3.924   1.604   0.024
 6377SOL    HW219692   3.976   1.472  11.071
 6378SOL     OW19693   4.193   0.494   9.496
 6378SOL    HW119694   4.250   0.569   9.516
 6378SOL    HW219695   4.106   0.533   9.487
 6379SOL     OW19696   3.877   1.138  10.780
 6379SOL    HW119697   3.872   1.082  10.857
 6379SOL    HW219698   3.890   1.077  10.707
 6380SOL     OW19699   3.808   1.268  10.323
 6380SOL    HW119700   3.795   1.277  10.417
 6380SOL    HW219701   3.735   1.212  10.294
 6381SOL     OW19702   4.396   1.666  11.007
 6381SOL    HW119703   4.322   1.725  10.991
 6381SOL    HW219704   4.434   1.652  10.920
 6382SOL     OW19705   3.991   0.328  10.029
 6382SOL    HW119706   3.904   0.359  10.003
 6382SOL    HW219707   3.984   0.315  10.123
 6383SOL     OW19708   4.086   1.306  10.808
 6383SOL    HW119709   4.074   1.380  10.749
 6383SOL    HW219710   4.015   1.246  10.787
 6384SOL     OW19711   4.325   1.490   9.792
 6384SOL    HW119712   4.344   1.431   9.719
 6384SOL    HW219713   4.260   1.552   9.757
 6385SOL     OW19714   3.983   1.351   9.595
 6385SOL    HW119715   3.890   1.347   9.573
 6385SOL    HW219716   3.985   1.386   9.684
 6386SOL     OW19717   3.836   1.012  11.021
 6386SOL    HW119718   3.765   0.995  11.083
 6386SOL    HW219719   3.915   0.982  11.066
 6387SOL     OW19720   4.381   0.185  10.813
 6387SOL    HW119721   4.451   0.206  10.751
 6387SOL    HW219722   4.416   0.210  10.898
 6388SOL     OW19723   3.804   0.344   9.356
 6388SOL    HW119724   3.732   0.292   9.320
 6388SOL    HW219725   3.820   0.412   9.291
 6389SOL     OW19726   3.790   0.179   9.632
 6389SOL    HW119727   3.787   0.246   9.564
 6389SOL    HW219728   3.866   0.125   9.610
 6390SOL     OW19729   4.337   0.839  10.744
 6390SOL    HW119730   4.379   0.923  10.729
 6390SOL    HW219731   4.410   0.777  10.749
 6391SOL     OW19732   4.114   1.735  10.869
 6391SOL    HW119733   4.033   1.785  10.863
 6391SOL    HW219734   4.091   1.658  10.922
 6392SOL     OW19735   4.311   0.733   9.975
 6392SOL    HW119736   4.353   0.818   9.962
 6392SOL    HW219737   4.240   0.733   9.910
 6393SOL     OW19738   3.808   1.236   9.974
 6393SOL    HW119739   3.809   1.186  10.056
 6393SOL    HW219740   3.877   1.197   9.921
 6394SOL     OW19741   4.404   1.392  10.939
 6394SOL    HW119742   4.330   1.343  10.973
 6394SOL    HW219743   4.396   1.479  10.980
 6395SOL     OW19744   4.162   0.434   9.840
 6395SOL    HW119745   4.182   0.363   9.778
 6395SOL    HW219746   4.109   0.392   9.907
 6396SOL     OW19747   4.052   0.554  10.599
 6396SOL    HW119748   4.105   0.494  10.652
 6396SOL    HW219749   4.070   0.528  10.509
 6397SOL     OW19750   0.037   1.594   9.995
 6397SOL    HW119751   0.057   1.651   9.920
 6397SOL    HW219752   4.464   1.540   9.966
 6398SOL     OW19753   3.768   1.073   9.614
 6398SOL    HW119754   3.862   1.063   9.598
 6398SOL    HW219755   3.738   0.985   9.638
 6399SOL     OW19756   3.952   2.478   0.118
 6399SOL    HW119757   3.865   2.482   0.159
 6399SOL    HW219758   3.936   2.489   0.025
 6400SOL     OW19759   3.947   2.144   0.991
 6400SOL    HW119760   3.979   2.110   1.074
 6400SOL    HW219761   3.858   2.109   0.983
 6401SOL     OW19762   3.730   2.244   0.638
 6401SOL    HW119763   3.647   2.268   0.679
 6401SOL    HW219764   3.710   2.163   0.590
 6402SOL     OW19765   4.270   3.113   1.147
 6402SOL    HW119766   4.193   3.166   1.124
 6402SOL    HW219767   4.329   3.174   1.192
 6403SOL     OW19768   0.024   2.645   1.857
 6403SOL    HW119769   0.073   2.695   1.922
 6403SOL    HW219770   0.066   2.666   1.773
 6404SOL     OW19771   4.398   2.858   0.642
 6404SOL    HW119772   4.471   2.853   0.705
 6404SOL    HW219773   4.334   2.915   0.684
 6405SOL     OW19774   4.418   3.023   1.815
 6405SOL    HW119775   4.462   3.104   1.789
 6405SOL    HW219776   4.327   3.035   1.786
 6406SOL     OW19777   4.059   3.296   1.069
 6406SOL    HW119778   3.987   3.255   1.021
 6406SOL    HW219779   4.108   3.344   1.002
 6407SOL     OW19780   4.170   2.261   1.489
 6407SOL    HW119781   4.244   2.200   1.492
 6407SOL    HW219782   4.093   2.205   1.501
 6408SOL     OW19783   3.943   3.574   0.477
 6408SOL    HW119784   3.966   3.652   0.527
 6408SOL    HW219785   4.010   3.569   0.409
 6409SOL     OW19786   3.951   3.301   0.532
 6409SOL    HW119787   3.937   3.395   0.538
 6409SOL    HW219788   3.890   3.263   0.595
 6410SOL     OW19789   3.973   2.951   0.886
 6410SOL    HW119790   3.977   2.867   0.932
 6410SOL    HW219791   3.920   3.006   0.944
 6411SOL     OW19792   4.359   3.659   1.451
 6411SOL    HW119793   4.273   3.626   1.476
 6411SOL    HW219794   4.350   3.755   1.453
 6412SOL     OW19795   4.302   2.861   0.137
 6412SOL    HW119796   4.319   2.926   0.068
 6412SOL    HW219797   4.381   2.864   0.192
 6413SOL     OW19798   3.838   2.512   0.559
 6413SOL    HW119799   3.808   2.424   0.581
 6413SOL    HW219800   3.830   2.561   0.641
 6414SOL     OW19801   3.765   3.464   0.120
 6414SOL    HW119802   3.738   3.375   0.143
 6414SOL    HW219803   3.738   3.517   0.195
 6415SOL     OW19804   3.845   2.603   1.587
 6415SOL    HW119805   3.937   2.624   1.602
 6415SOL    HW219806   3.800   2.687   1.592
 6416SOL     OW19807   4.314   3.247   0.737
 6416SOL    HW119808   4.278   3.159   0.741
 6416SOL    HW219809   4.313   3.270   0.644
 6417SOL     OW19810   0.022   1.871   0.530
 6417SOL    HW119811   0.055   1.931   0.464
 6417SOL    HW219812   4.427   1.884   0.529
 6418SOL     OW19813   3.914   2.830   1.269
 6418SOL    HW119814   3.999   2.789   1.252
 6418SOL    HW219815   3.851   2.773   1.226
 6419SOL     OW19816   4.054   2.113   1.806
 6419SOL    HW119817   4.101   2.195   1.822
 6419SOL    HW219818   3.966   2.128   1.840
 6420SOL     OW19819   4.308   2.582   0.269
 6420SOL    HW119820   4.330   2.657   0.213
 6420SOL    HW219821   4.244   2.617   0.331
 6421SOL     OW19822   3.813   2.682   0.775
 6421SOL    HW119823   3.894   2.674   0.824
 6421SOL    HW219824   3.771   2.761   0.810
 6422SOL     OW19825   3.853   3.700   1.576
 6422SOL    HW119826   3.851   3.682   1.669
 6422SOL    HW219827   3.761   3.705   1.549
 6423SOL     OW19828   4.254   2.055   0.881
 6423SOL    HW119829   4.273   2.060   0.975
 6423SOL    HW219830   4.266   2.145   0.849
 6424SOL     OW19831   4.081   3.671   0.860
 6424SOL    HW119832   4.129   3.588   0.866
 6424SOL    HW219833   4.148   3.738   0.870
 6425SOL     OW19834   4.042   2.819   0.273
 6425SOL    HW119835   4.120   2.845   0.224
 6425SOL    HW219836   4.014   2.737   0.232
 6426SOL     OW19837   4.179   3.116   1.735
 6426SOL    HW119838   4.151   3.127   1.644
 6426SOL    HW219839   4.098   3.125   1.786
 6427SOL     OW19840   3.923   2.145   1.500
 6427SOL    HW119841   3.842   2.195   1.492
 6427SOL    HW219842   3.907   2.083   1.572
 6428SOL     OW19843   4.194   3.595   0.326
 6428SOL    HW119844   4.224   3.656   0.394
 6428SOL    HW219845   4.267   3.590   0.265
 6429SOL     OW19846   3.978   3.655   1.233
 6429SOL    HW119847   4.027   3.587   1.280
 6429SOL    HW219848   3.965   3.619   1.146
 6430SOL     OW19849   4.108   2.557   0.476
 6430SOL    HW119850   4.136   2.466   0.488
 6430SOL    HW219851   4.015   2.556   0.499
 6431SOL     OW19852   4.344   1.990   0.111
 6431SOL    HW119853   4.432   1.955   0.125
 6431SOL    HW219854   4.315   1.951   0.028
 6432SOL     OW19855   0.017   3.288   0.915
 6432SOL    HW119856   0.090   3.317   0.860
 6432SOL    HW219857   4.445   3.271   0.854
 6433SOL     OW19858   4.261   1.925   0.502
 6433SOL    HW119859   4.183   1.930   0.556
 6433SOL    HW219860   4.258   2.005   0.448
 6434SOL     OW19861   4.010   1.910   0.197
 6434SOL    HW119862   4.055   1.964   0.133
 6434SOL    HW219863   4.075   1.845   0.225
 6435SOL     OW19864   0.321   2.540   1.447
 6435SOL    HW119865   0.247   2.480   1.448
 6435SOL    HW219866   0.398   2.483   1.438
 6436SOL     OW19867   4.190   3.007   0.738
 6436SOL    HW119868   4.119   2.989   0.800
 6436SOL    HW219869   4.151   2.990   0.652
 6437SOL     OW19870   3.801   2.417   1.391
 6437SOL    HW119871   3.892   2.415   1.363
 6437SOL    HW219872   3.797   2.487   1.456
 6438SOL     OW19873   4.285   2.076   1.149
 6438SOL    HW119874   4.325   2.005   1.199
 6438SOL    HW219875   4.198   2.087   1.188
 6439SOL     OW19876   4.234   3.263   0.189
 6439SOL    HW119877   4.149   3.247   0.230
 6439SOL    HW219878   4.218   3.251   0.095
 6440SOL     OW19879   4.250   2.130   0.325
 6440SOL    HW119880   4.284   2.074   0.255
 6440SOL    HW219881   4.229   2.213   0.281
 6441SOL     OW19882   4.138   2.674   1.250
 6441SOL    HW119883   4.206   2.685   1.317
 6441SOL    HW219884   4.104   2.586   1.265
 6442SOL     OW19885   3.792   3.434   1.350
 6442SOL    HW119886   3.758   3.506   1.297
 6442SOL    HW219887   3.887   3.443   1.344
 6443SOL     OW19888   4.076   2.973   0.496
 6443SOL    HW119889   4.076   3.047   0.435
 6443SOL    HW219890   4.071   2.896   0.440
 6444SOL     OW19891   4.298   2.401   0.863
 6444SOL    HW119892   4.301   2.467   0.794
 6444SOL    HW219893   4.360   2.431   0.929
 6445SOL     OW19894   4.073   3.392   1.318
 6445SOL    HW119895   4.066   3.349   1.233
 6445SOL    HW219896   4.167   3.395   1.335
 6446SOL     OW19897   4.135   2.606   1.604
 6446SOL    HW119898   4.194   2.651   1.543
 6446SOL    HW219899   4.178   2.521   1.620
 6447SOL     OW19900   4.231   1.914   1.735
 6447SOL    HW119901   4.187   1.854   1.675
 6447SOL    HW219902   4.164   1.980   1.755
 6448SOL     OW19903   4.291   2.747   1.026
 6448SOL    HW119904   4.326   2.836   1.039
 6448SOL    HW219905   4.243   2.728   1.106
 6449SOL     OW19906   4.025   2.064   1.246
 6449SOL    HW119907   3.987   2.096   1.328
 6449SOL    HW219908   4.004   1.970   1.246
 6450SOL     OW19909   3.769   3.172   1.277
 6450SOL    HW119910   3.803   3.119   1.350
 6450SOL    HW219911   3.777   3.262   1.308
 6451SOL     OW19912   4.021   1.929   0.625
 6451SOL    HW119913   4.007   2.020   0.650
 6451SOL    HW219914   4.031   1.882   0.708
 6452SOL     OW19915   4.076   2.777   1.808
 6452SOL    HW119916   4.158   2.794   1.854
 6452SOL    HW219917   4.099   2.714   1.739
 6453SOL     OW19918   4.032   2.671   0.947
 6453SOL    HW119919   4.124   2.698   0.946
 6453SOL    HW219920   4.034   2.582   0.981
 6454SOL     OW19921   4.062   2.386   1.009
 6454SOL    HW119922   4.026   2.299   0.993
 6454SOL    HW219923   4.140   2.390   0.954
 6455SOL     OW19924   3.731   3.190   0.195
 6455SOL    HW119925   3.644   3.201   0.157
 6455SOL    HW219926   3.732   3.099   0.225
 6456SOL     OW19927   3.815   3.652   0.937
 6456SOL    HW119928   3.785   3.572   0.894
 6456SOL    HW219929   3.905   3.663   0.905
 6457SOL     OW19930   4.232   3.443   0.906
 6457SOL    HW119931   4.316   3.481   0.930
 6457SOL    HW219932   4.254   3.370   0.847
 6458SOL     OW19933   3.759   2.405   1.116
 6458SOL    HW119934   3.840   2.387   1.068
 6458SOL    HW219935   3.787   2.411   1.207
 6459SOL     OW19936   3.914   2.379   1.726
 6459SOL    HW119937   3.972   2.344   1.658
 6459SOL    HW219938   3.867   2.451   1.683
 6460SOL     OW19939   0.032   2.417   0.270
 6460SOL    HW119940   0.017   2.342   0.329
 6460SOL    HW219941   4.465   2.480   0.295
 6461SOL     OW19942   3.972   3.416   1.730
 6461SOL    HW119943   3.945   3.479   1.797
 6461SOL    HW219944   3.968   3.331   1.774
 6462SOL     OW19945   4.191   2.353   0.180
 6462SOL    HW119946   4.248   2.425   0.206
 6462SOL    HW219947   4.104   2.391   0.175
 6463SOL     OW19948   3.872   3.001   1.471
 6463SOL    HW119949   3.877   2.948   1.550
 6463SOL    HW219950   3.888   2.940   1.399
 6464SOL     OW19951   3.807   3.130   1.014
 6464SOL    HW119952   3.794   3.139   1.108
 6464SOL    HW219953   3.735   3.074   0.984
 6465SOL     OW19954   4.390   3.514   1.702
 6465SOL    HW119955   4.357   3.601   1.725
 6465SOL    HW219956   4.443   3.528   1.624
 6466SOL     OW19957   3.859   3.659   1.843
 6466SOL    HW119958   3.808   3.594   1.892
 6466SOL    HW219959   3.907   3.707   1.910
 6467SOL     OW19960   3.988   2.183   0.717
 6467SOL    HW119961   3.902   2.216   0.694
 6467SOL    HW219962   3.985   2.171   0.812
 6468SOL     OW19963   4.090   3.166   1.491
 6468SOL    HW119964   4.072   3.243   1.437
 6468SOL    HW219965   4.016   3.107   1.474
 6469SOL     OW19966   4.324   3.352   0.482
 6469SOL    HW119967   4.345   3.295   0.408
 6469SOL    HW219968   4.259   3.413   0.448
 6470SOL     OW19969   3.988   3.206   0.287
 6470SOL    HW119970   3.899   3.206   0.252
 6470SOL    HW219971   3.980   3.244   0.374
 6471SOL     OW19972   3.835   2.881   1.720
 6471SOL    HW119973   3.759   2.858   1.772
 6471SOL    HW219974   3.910   2.844   1.767
 6472SOL     OW19975   4.392   2.067   1.493
 6472SOL    HW119976   4.479   2.061   1.455
 6472SOL    HW219977   4.406   2.058   1.587
 6473SOL     OW19978   3.807   2.211   0.049
 6473SOL    HW119979   3.729   2.173   0.008
 6473SOL    HW219980   3.824   2.289  11.097
 6474SOL     OW19981   3.793   2.021   0.315
 6474SOL    HW119982   3.783   2.102   0.266
 6474SOL    HW219983   3.875   1.984   0.284
 6475SOL     OW19984   4.336   2.701   1.434
 6475SOL    HW119985   4.383   2.784   1.419
 6475SOL    HW219986   4.406   2.636   1.443
 6476SOL     OW19987   4.403   2.418   1.735
 6476SOL    HW119988   4.427   2.496   1.785
 6476SOL    HW219989   4.486   2.379   1.710
 6477SOL     OW19990   4.109   3.601   1.560
 6477SOL    HW119991   4.022   3.640   1.549
 6477SOL    HW219992   4.092   3.518   1.606
 6478SOL     OW19993   4.310   2.595   0.664
 6478SOL    HW119994   4.353   2.680   0.654
 6478SOL    HW219995   4.239   2.596   0.600
 6479SOL     OW19996   3.944   3.169   1.855
 6479SOL    HW119997   3.878   3.106   1.828
 6479SOL    HW219998   3.930   3.180   1.949
 6480SOL     OW19999   3.807   3.097   0.664
 6480SOL    HW120000   3.810   3.047   0.746
 6480SOL    HW220001   3.878   3.061   0.611
 6481SOL     OW20002   4.412   3.249   1.651
 6481SOL    HW120003   4.323   3.215   1.653
 6481SOL    HW220004   4.402   3.343   1.668
 6482SOL     OW20005   4.159   2.295   0.529
 6482SOL    HW120006   4.180   2.224   0.468
 6482SOL    HW220007   4.105   2.253   0.597
 6483SOL     OW20008   4.051   2.414   1.289
 6483SOL    HW120009   4.105   2.357   1.344
 6483SOL    HW220010   4.073   2.387   1.199
 6484SOL     OW20011   0.036   3.456   0.685
 6484SOL    HW120012   0.059   3.512   0.611
 6484SOL    HW220013   4.463   3.403   0.654
 6485SOL     OW20014   3.766   2.934   0.300
 6485SOL    HW120015   3.862   2.928   0.296
 6485SOL    HW220016   3.737   2.847   0.327
 6486SOL     OW20017   3.955   2.486   1.983
 6486SOL    HW120018   3.865   2.485   2.016
 6486SOL    HW220019   3.947   2.458   1.892
 6487SOL     OW20020   3.947   2.144   2.853
 6487SOL    HW120021   3.979   2.110   2.936
 6487SOL    HW220022   3.858   2.109   2.845
 6488SOL     OW20023   3.730   2.244   2.500
 6488SOL    HW120024   3.647   2.268   2.542
 6488SOL    HW220025   3.710   2.164   2.452
 6489SOL     OW20026   4.271   3.113   3.008
 6489SOL    HW120027   4.193   3.166   2.986
 6489SOL    HW220028   4.328   3.174   3.054
 6490SOL     OW20029   0.024   2.645   3.719
 6490SOL    HW120030   0.073   2.695   3.784
 6490SOL    HW220031   0.066   2.666   3.635
 6491SOL     OW20032   4.399   2.859   2.504
 6491SOL    HW120033   4.470   2.851   2.568
 6491SOL    HW220034   4.335   2.916   2.547
 6492SOL     OW20035   4.418   3.023   3.677
 6492SOL    HW120036   4.462   3.104   3.651
 6492SOL    HW220037   4.327   3.035   3.648
 6493SOL     OW20038   4.059   3.296   2.931
 6493SOL    HW120039   3.987   3.255   2.883
 6493SOL    HW220040   4.107   3.344   2.864
 6494SOL     OW20041   4.170   2.261   3.351
 6494SOL    HW120042   4.244   2.200   3.354
 6494SOL    HW220043   4.093   2.205   3.363
 6495SOL     OW20044   3.943   3.575   2.337
 6495SOL    HW120045   3.966   3.652   2.390
 6495SOL    HW220046   4.014   3.568   2.273
 6496SOL     OW20047   3.953   3.301   2.395
 6496SOL    HW120048   3.936   3.395   2.402
 6496SOL    HW220049   3.892   3.261   2.457
 6497SOL     OW20050   3.973   2.951   2.748
 6497SOL    HW120051   3.978   2.866   2.794
 6497SOL    HW220052   3.920   3.006   2.806
 6498SOL     OW20053   4.359   3.659   3.313
 6498SOL    HW120054   4.273   3.626   3.338
 6498SOL    HW220055   4.350   3.754   3.315
 6499SOL     OW20056   4.311   2.846   1.999
 6499SOL    HW120057   4.339   2.900   1.925
 6499SOL    HW220058   4.379   2.859   2.065
 6500SOL     OW20059   3.839   2.512   2.422
 6500SOL    HW120060   3.808   2.424   2.443
 6500SOL    HW220061   3.830   2.561   2.503
 6501SOL     OW20062   3.754   3.459   1.986
 6501SOL    HW120063   3.736   3.367   2.006
 6501SOL    HW220064   3.729   3.505   2.067
 6502SOL     OW20065   3.845   2.603   3.449
 6502SOL    HW120066   3.937   2.624   3.464
 6502SOL    HW220067   3.800   2.687   3.454
 6503SOL     OW20068   4.314   3.247   2.599
 6503SOL    HW120069   4.278   3.159   2.603
 6503SOL    HW220070   4.313   3.270   2.506
 6504SOL     OW20071   0.022   1.869   2.388
 6504SOL    HW120072   0.055   1.933   2.326
 6504SOL    HW220073   4.427   1.883   2.390
 6505SOL     OW20074   3.914   2.830   3.131
 6505SOL    HW120075   3.999   2.789   3.114
 6505SOL    HW220076   3.851   2.773   3.088
 6506SOL     OW20077   4.054   2.113   3.668
 6506SOL    HW120078   4.101   2.195   3.684
 6506SOL    HW220079   3.966   2.128   3.702
 6507SOL     OW20080   4.312   2.590   2.131
 6507SOL    HW120081   4.314   2.666   2.072
 6507SOL    HW220082   4.243   2.612   2.194
 6508SOL     OW20083   3.812   2.682   2.637
 6508SOL    HW120084   3.894   2.674   2.686
 6508SOL    HW220085   3.771   2.761   2.672
 6509SOL     OW20086   3.853   3.700   3.437
 6509SOL    HW120087   3.851   3.682   3.531
 6509SOL    HW220088   3.761   3.706   3.411
 6510SOL     OW20089   4.255   2.055   2.743
 6510SOL    HW120090   4.273   2.060   2.837
 6510SOL    HW220091   4.266   2.144   2.711
 6511SOL     OW20092   4.081   3.671   2.721
 6511SOL    HW120093   4.129   3.589   2.729
 6511SOL    HW220094   4.147   3.739   2.733
 6512SOL     OW20095   4.045   2.818   2.110
 6512SOL    HW120096   4.127   2.837   2.065
 6512SOL    HW220097   4.014   2.736   2.072
 6513SOL     OW20098   4.179   3.116   3.597
 6513SOL    HW120099   4.151   3.127   3.506
 6513SOL    HW220100   4.098   3.125   3.648
 6514SOL     OW20101   3.924   2.146   3.363
 6514SOL    HW120102   3.842   2.195   3.354
 6514SOL    HW220103   3.907   2.083   3.433
 6515SOL     OW20104   4.193   3.597   2.187
 6515SOL    HW120105   4.224   3.656   2.256
 6515SOL    HW220106   4.263   3.599   2.122
 6516SOL     OW20107   3.978   3.655   3.096
 6516SOL    HW120108   4.027   3.587   3.143
 6516SOL    HW220109   3.965   3.618   3.008
 6517SOL     OW20110   4.110   2.557   2.337
 6517SOL    HW120111   4.138   2.466   2.349
 6517SOL    HW220112   4.017   2.557   2.358
 6518SOL     OW20113   4.340   1.975   1.979
 6518SOL    HW120114   4.434   1.958   1.979
 6518SOL    HW220115   4.312   1.951   1.890
 6519SOL     OW20116   0.017   3.288   2.778
 6519SOL    HW120117   0.090   3.316   2.722
 6519SOL    HW220118   4.445   3.271   2.717
 6520SOL     OW20119   4.261   1.925   2.364
 6520SOL    HW120120   4.183   1.931   2.419
 6520SOL    HW220121   4.258   2.004   2.310
 6521SOL     OW20122   4.018   1.909   2.046
 6521SOL    HW120123   4.078   1.974   2.009
 6521SOL    HW220124   4.075   1.844   2.087
 6522SOL     OW20125   0.321   2.540   3.310
 6522SOL    HW120126   0.247   2.480   3.310
 6522SOL    HW220127   0.398   2.483   3.300
 6523SOL     OW20128   4.189   3.008   2.598
 6523SOL    HW120129   4.119   2.989   2.661
 6523SOL    HW220130   4.150   2.989   2.513
 6524SOL     OW20131   3.801   2.417   3.253
 6524SOL    HW120132   3.893   2.415   3.225
 6524SOL    HW220133   3.797   2.487   3.318
 6525SOL     OW20134   4.285   2.076   3.011
 6525SOL    HW120135   4.325   2.004   3.061
 6525SOL    HW220136   4.198   2.087   3.050
 6526SOL     OW20137   4.230   3.249   2.034
 6526SOL    HW120138   4.145   3.234   2.077
 6526SOL    HW220139   4.207   3.266   1.943
 6527SOL     OW20140   4.247   2.127   2.185
 6527SOL    HW120141   4.287   2.073   2.117
 6527SOL    HW220142   4.229   2.210   2.141
 6528SOL     OW20143   4.139   2.674   3.112
 6528SOL    HW120144   4.206   2.685   3.179
 6528SOL    HW220145   4.104   2.586   3.127
 6529SOL     OW20146   3.792   3.434   3.212
 6529SOL    HW120147   3.758   3.507   3.159
 6529SOL    HW220148   3.887   3.443   3.207
 6530SOL     OW20149   4.076   2.968   2.353
 6530SOL    HW120150   4.077   3.041   2.291
 6530SOL    HW220151   4.074   2.890   2.298
 6531SOL     OW20152   4.297   2.401   2.725
 6531SOL    HW120153   4.300   2.467   2.656
 6531SOL    HW220154   4.360   2.432   2.790
 6532SOL     OW20155   4.073   3.392   3.181
 6532SOL    HW120156   4.066   3.349   3.095
 6532SOL    HW220157   4.167   3.395   3.197
 6533SOL     OW20158   4.135   2.606   3.466
 6533SOL    HW120159   4.194   2.651   3.405
 6533SOL    HW220160   4.178   2.521   3.482
 6534SOL     OW20161   4.231   1.914   3.597
 6534SOL    HW120162   4.187   1.854   3.537
 6534SOL    HW220163   4.164   1.980   3.617
 6535SOL     OW20164   4.291   2.748   2.888
 6535SOL    HW120165   4.326   2.836   2.902
 6535SOL    HW220166   4.243   2.728   2.968
 6536SOL     OW20167   4.025   2.064   3.108
 6536SOL    HW120168   3.987   2.096   3.190
 6536SOL    HW220169   4.005   1.970   3.108
 6537SOL     OW20170   3.769   3.172   3.139
 6537SOL    HW120171   3.803   3.119   3.212
 6537SOL    HW220172   3.777   3.262   3.170
 6538SOL     OW20173   4.021   1.929   2.487
 6538SOL    HW120174   4.006   2.020   2.512
 6538SOL    HW220175   4.031   1.882   2.569
 6539SOL     OW20176   4.076   2.777   3.670
 6539SOL    HW120177   4.158   2.794   3.716
 6539SOL    HW220178   4.099   2.714   3.601
 6540SOL     OW20179   4.032   2.671   2.809
 6540SOL    HW120180   4.124   2.698   2.808
 6540SOL    HW220181   4.033   2.582   2.842
 6541SOL     OW20182   4.062   2.386   2.871
 6541SOL    HW120183   4.025   2.299   2.855
 6541SOL    HW220184   4.140   2.390   2.816
 6542SOL     OW20185   3.729   3.185   2.057
 6542SOL    HW120186   3.642   3.198   2.020
 6542SOL    HW220187   3.727   3.095   2.090
 6543SOL     OW20188   3.815   3.652   2.799
 6543SOL    HW120189   3.785   3.572   2.756
 6543SOL    HW220190   3.905   3.663   2.767
 6544SOL     OW20191   4.232   3.443   2.767
 6544SOL    HW120192   4.316   3.481   2.793
 6544SOL    HW220193   4.255   3.370   2.710
 6545SOL     OW20194   3.759   2.405   2.978
 6545SOL    HW120195   3.840   2.387   2.929
 6545SOL    HW220196   3.787   2.411   3.069
 6546SOL     OW20197   3.914   2.380   3.588
 6546SOL    HW120198   3.972   2.344   3.520
 6546SOL    HW220199   3.867   2.451   3.545
 6547SOL     OW20200   0.035   2.422   2.129
 6547SOL    HW120201   0.020   2.342   2.180
 6547SOL    HW220202   4.465   2.481   2.156
 6548SOL     OW20203   3.972   3.416   3.592
 6548SOL    HW120204   3.945   3.479   3.659
 6548SOL    HW220205   3.968   3.331   3.636
 6549SOL     OW20206   4.192   2.355   2.052
 6549SOL    HW120207   4.249   2.429   2.070
 6549SOL    HW220208   4.105   2.394   2.039
 6550SOL     OW20209   3.872   3.001   3.333
 6550SOL    HW120210   3.877   2.948   3.412
 6550SOL    HW220211   3.888   2.940   3.261
 6551SOL     OW20212   3.807   3.130   2.876
 6551SOL    HW120213   3.793   3.139   2.970
 6551SOL    HW220214   3.735   3.074   2.846
 6552SOL     OW20215   4.390   3.514   3.564
 6552SOL    HW120216   4.357   3.601   3.587
 6552SOL    HW220217   4.443   3.528   3.486
 6553SOL     OW20218   3.859   3.658   3.705
 6553SOL    HW120219   3.808   3.594   3.754
 6553SOL    HW220220   3.907   3.707   3.772
 6554SOL     OW20221   3.988   2.182   2.578
 6554SOL    HW120222   3.902   2.216   2.556
 6554SOL    HW220223   3.985   2.171   2.673
 6555SOL     OW20224   4.090   3.166   3.353
 6555SOL    HW120225   4.072   3.243   3.299
 6555SOL    HW220226   4.016   3.107   3.336
 6556SOL     OW20227   4.324   3.352   2.344
 6556SOL    HW120228   4.344   3.293   2.271
 6556SOL    HW220229   4.261   3.414   2.308
 6557SOL     OW20230   3.983   3.213   2.147
 6557SOL    HW120231   3.890   3.209   2.125
 6557SOL    HW220232   3.985   3.248   2.236
 6558SOL     OW20233   3.835   2.881   3.582
 6558SOL    HW120234   3.759   2.858   3.635
 6558SOL    HW220235   3.910   2.844   3.629
 6559SOL     OW20236   4.392   2.067   3.355
 6559SOL    HW120237   4.479   2.061   3.317
 6559SOL    HW220238   4.406   2.057   3.449
 6560SOL     OW20239   3.801   2.198   1.898
 6560SOL    HW120240   3.714   2.178   1.865
 6560SOL    HW220241   3.830   2.273   1.845
 6561SOL     OW20242   3.794   2.020   2.175
 6561SOL    HW120243   3.779   2.100   2.125
 6561SOL    HW220244   3.880   1.988   2.145
 6562SOL     OW20245   4.336   2.701   3.296
 6562SOL    HW120246   4.383   2.784   3.281
 6562SOL    HW220247   4.405   2.636   3.305
 6563SOL     OW20248   4.403   2.418   3.597
 6563SOL    HW120249   4.427   2.496   3.647
 6563SOL    HW220250   4.486   2.378   3.572
 6564SOL     OW20251   4.109   3.601   3.422
 6564SOL    HW120252   4.022   3.640   3.411
 6564SOL    HW220253   4.092   3.518   3.468
 6565SOL     OW20254   4.310   2.595   2.527
 6565SOL    HW120255   4.354   2.680   2.515
 6565SOL    HW220256   4.239   2.595   2.462
 6566SOL     OW20257   3.944   3.169   3.717
 6566SOL    HW120258   3.878   3.106   3.690
 6566SOL    HW220259   3.930   3.180   3.811
 6567SOL     OW20260   3.807   3.098   2.526
 6567SOL    HW120261   3.809   3.048   2.608
 6567SOL    HW220262   3.877   3.059   2.473
 6568SOL     OW20263   4.412   3.249   3.513
 6568SOL    HW120264   4.323   3.215   3.515
 6568SOL    HW220265   4.402   3.343   3.530
 6569SOL     OW20266   4.162   2.295   2.392
 6569SOL    HW120267   4.179   2.225   2.329
 6569SOL    HW220268   4.106   2.253   2.459
 6570SOL     OW20269   4.051   2.414   3.151
 6570SOL    HW120270   4.105   2.357   3.206
 6570SOL    HW220271   4.073   2.387   3.061
 6571SOL     OW20272   0.038   3.456   2.547
 6571SOL    HW120273   0.057   3.513   2.472
 6571SOL    HW220274   4.464   3.402   2.518
 6572SOL     OW20275   3.768   2.935   2.167
 6572SOL    HW120276   3.861   2.925   2.150
 6572SOL    HW220277   3.738   2.847   2.190
 6573SOL     OW20278   3.955   2.486   3.845
 6573SOL    HW120279   3.866   2.485   3.878
 6573SOL    HW220280   3.947   2.458   3.754
 6574SOL     OW20281   3.947   2.144   4.715
 6574SOL    HW120282   3.979   2.110   4.799
 6574SOL    HW220283   3.858   2.109   4.707
 6575SOL     OW20284   3.729   2.244   4.362
 6575SOL    HW120285   3.647   2.265   4.405
 6575SOL    HW220286   3.711   2.164   4.313
 6576SOL     OW20287   4.272   3.114   4.868
 6576SOL    HW120288   4.193   3.165   4.849
 6576SOL    HW220289   4.328   3.174   4.916
 6577SOL     OW20290   0.024   2.645   5.581
 6577SOL    HW120291   0.072   2.695   5.646
 6577SOL    HW220292   0.066   2.667   5.498
 6578SOL     OW20293   4.399   2.859   4.366
 6578SOL    HW120294   4.469   2.850   4.431
 6578SOL    HW220295   4.335   2.916   4.409
 6579SOL     OW20296   4.418   3.023   5.538
 6579SOL    HW120297   4.462   3.104   5.514
 6579SOL    HW220298   4.327   3.035   5.510
 6580SOL     OW20299   4.059   3.296   4.793
 6580SOL    HW120300   3.986   3.255   4.745
 6580SOL    HW220301   4.107   3.344   4.726
 6581SOL     OW20302   4.170   2.261   5.212
 6581SOL    HW120303   4.244   2.200   5.215
 6581SOL    HW220304   4.093   2.206   5.225
 6582SOL     OW20305   3.943   3.575   4.199
 6582SOL    HW120306   3.966   3.652   4.252
 6582SOL    HW220307   4.014   3.568   4.135
 6583SOL     OW20308   3.953   3.301   4.257
 6583SOL    HW120309   3.936   3.395   4.264
 6583SOL    HW220310   3.892   3.262   4.320
 6584SOL     OW20311   3.973   2.951   4.610
 6584SOL    HW120312   3.978   2.867   4.656
 6584SOL    HW220313   3.920   3.006   4.668
 6585SOL     OW20314   4.359   3.659   5.175
 6585SOL    HW120315   4.273   3.626   5.200
 6585SOL    HW220316   4.350   3.754   5.177
 6586SOL     OW20317   4.311   2.846   3.861
 6586SOL    HW120318   4.339   2.900   3.787
 6586SOL    HW220319   4.379   2.859   3.927
 6587SOL     OW20320   3.839   2.512   4.283
 6587SOL    HW120321   3.809   2.424   4.305
 6587SOL    HW220322   3.830   2.561   4.365
 6588SOL     OW20323   3.753   3.459   3.848
 6588SOL    HW120324   3.736   3.367   3.868
 6588SOL    HW220325   3.729   3.505   3.929
 6589SOL     OW20326   3.845   2.603   5.310
 6589SOL    HW120327   3.936   2.625   5.327
 6589SOL    HW220328   3.799   2.687   5.316
 6590SOL     OW20329   4.315   3.247   4.461
 6590SOL    HW120330   4.278   3.159   4.465
 6590SOL    HW220331   4.313   3.269   4.368
 6591SOL     OW20332   0.022   1.869   4.250
 6591SOL    HW120333   0.054   1.934   4.187
 6591SOL    HW220334   4.427   1.883   4.252
 6592SOL     OW20335   3.915   2.831   4.992
 6592SOL    HW120336   3.999   2.789   4.975
 6592SOL    HW220337   3.850   2.772   4.952
 6593SOL     OW20338   4.055   2.113   5.531
 6593SOL    HW120339   4.100   2.196   5.546
 6593SOL    HW220340   3.966   2.128   5.563
 6594SOL     OW20341   4.312   2.590   3.993
 6594SOL    HW120342   4.314   2.666   3.934
 6594SOL    HW220343   4.243   2.611   4.056
 6595SOL     OW20344   3.812   2.683   4.499
 6595SOL    HW120345   3.894   2.673   4.548
 6595SOL    HW220346   3.772   2.762   4.535
 6596SOL     OW20347   3.853   3.700   5.299
 6596SOL    HW120348   3.851   3.682   5.393
 6596SOL    HW220349   3.761   3.705   5.273
 6597SOL     OW20350   4.255   2.055   4.605
 6597SOL    HW120351   4.273   2.060   4.698
 6597SOL    HW220352   4.266   2.145   4.574
 6598SOL     OW20353   4.081   3.671   4.583
 6598SOL    HW120354   4.129   3.589   4.591
 6598SOL    HW220355   4.147   3.739   4.595
 6599SOL     OW20356   4.045   2.818   3.972
 6599SOL    HW120357   4.127   2.837   3.927
 6599SOL    HW220358   4.014   2.736   3.933
 6600SOL     OW20359   4.179   3.116   5.459
 6600SOL    HW120360   4.151   3.127   5.368
 6600SOL    HW220361   4.098   3.125   5.510
 6601SOL     OW20362   3.923   2.146   5.225
 6601SOL    HW120363   3.841   2.194   5.216
 6601SOL    HW220364   3.906   2.083   5.295
 6602SOL     OW20365   4.193   3.597   4.049
 6602SOL    HW120366   4.224   3.656   4.118
 6602SOL    HW220367   4.263   3.599   3.984
 6603SOL     OW20368   3.978   3.655   4.957
 6603SOL    HW120369   4.027   3.587   5.005
 6603SOL    HW220370   3.965   3.618   4.870
 6604SOL     OW20371   4.110   2.557   4.198
 6604SOL    HW120372   4.137   2.466   4.211
 6604SOL    HW220373   4.017   2.557   4.220
 6605SOL     OW20374   4.340   1.975   3.840
 6605SOL    HW120375   4.434   1.957   3.841
 6605SOL    HW220376   4.312   1.951   3.752
 6606SOL     OW20377   0.017   3.289   4.640
 6606SOL    HW120378   0.090   3.316   4.584
 6606SOL    HW220379   4.445   3.271   4.579
 6607SOL     OW20380   4.262   1.925   4.226
 6607SOL    HW120381   4.183   1.930   4.281
 6607SOL    HW220382   4.258   2.004   4.172
 6608SOL     OW20383   4.018   1.909   3.908
 6608SOL    HW120384   4.078   1.974   3.872
 6608SOL    HW220385   4.074   1.844   3.950
 6609SOL     OW20386   0.322   2.540   5.171
 6609SOL    HW120387   0.246   2.482   5.173
 6609SOL    HW220388   0.397   2.481   5.162
 6610SOL     OW20389   4.189   3.007   4.460
 6610SOL    HW120390   4.119   2.989   4.523
 6610SOL    HW220391   4.150   2.989   4.375
 6611SOL     OW20392   3.801   2.418   5.114
 6611SOL    HW120393   3.893   2.416   5.087
 6611SOL    HW220394   3.796   2.487   5.179
 6612SOL     OW20395   4.285   2.076   4.873
 6612SOL    HW120396   4.324   2.004   4.923
 6612SOL    HW220397   4.198   2.087   4.912
 6613SOL     OW20398   4.230   3.248   3.896
 6613SOL    HW120399   4.146   3.234   3.939
 6613SOL    HW220400   4.207   3.266   3.805
 6614SOL     OW20401   4.247   2.127   4.047
 6614SOL    HW120402   4.287   2.073   3.979
 6614SOL    HW220403   4.229   2.210   4.003
 6615SOL     OW20404   4.139   2.674   4.973
 6615SOL    HW120405   4.206   2.685   5.041
 6615SOL    HW220406   4.104   2.586   4.989
 6616SOL     OW20407   3.792   3.434   5.074
 6616SOL    HW120408   3.758   3.507   5.021
 6616SOL    HW220409   3.887   3.443   5.069
 6617SOL     OW20410   4.076   2.968   4.215
 6617SOL    HW120411   4.077   3.041   4.153
 6617SOL    HW220412   4.074   2.890   4.160
 6618SOL     OW20413   4.298   2.401   4.587
 6618SOL    HW120414   4.301   2.467   4.518
 6618SOL    HW220415   4.360   2.432   4.653
 6619SOL     OW20416   4.073   3.392   5.042
 6619SOL    HW120417   4.065   3.349   4.957
 6619SOL    HW220418   4.167   3.395   5.060
 6620SOL     OW20419   4.136   2.606   5.328
 6620SOL    HW120420   4.195   2.651   5.267
 6620SOL    HW220421   4.177   2.521   5.344
 6621SOL     OW20422   4.231   1.914   5.459
 6621SOL    HW120423   4.186   1.854   5.399
 6621SOL    HW220424   4.164   1.980   5.479
 6622SOL     OW20425   4.291   2.748   4.750
 6622SOL    HW120426   4.325   2.836   4.764
 6622SOL    HW220427   4.243   2.728   4.830
 6623SOL     OW20428   4.026   2.064   4.970
 6623SOL    HW120429   3.987   2.096   5.052
 6623SOL    HW220430   4.005   1.971   4.969
 6624SOL     OW20431   3.771   3.172   5.001
 6624SOL    HW120432   3.803   3.119   5.074
 6624SOL    HW220433   3.777   3.262   5.033
 6625SOL     OW20434   4.021   1.929   4.348
 6625SOL    HW120435   4.006   2.020   4.374
 6625SOL    HW220436   4.031   1.882   4.431
 6626SOL     OW20437   4.076   2.778   5.532
 6626SOL    HW120438   4.159   2.793   5.578
 6626SOL    HW220439   4.098   2.714   5.463
 6627SOL     OW20440   4.032   2.671   4.670
 6627SOL    HW120441   4.124   2.698   4.670
 6627SOL    HW220442   4.033   2.582   4.705
 6628SOL     OW20443   4.062   2.386   4.732
 6628SOL    HW120444   4.025   2.299   4.717
 6628SOL    HW220445   4.140   2.389   4.677
 6629SOL     OW20446   3.729   3.185   3.919
 6629SOL    HW120447   3.642   3.198   3.882
 6629SOL    HW220448   3.727   3.095   3.952
 6630SOL     OW20449   3.815   3.651   4.661
 6630SOL    HW120450   3.785   3.571   4.618
 6630SOL    HW220451   3.905   3.663   4.629
 6631SOL     OW20452   4.232   3.443   4.629
 6631SOL    HW120453   4.316   3.480   4.655
 6631SOL    HW220454   4.255   3.370   4.572
 6632SOL     OW20455   3.760   2.405   4.840
 6632SOL    HW120456   3.841   2.386   4.792
 6632SOL    HW220457   3.787   2.411   4.931
 6633SOL     OW20458   3.915   2.380   5.450
 6633SOL    HW120459   3.971   2.343   5.381
 6633SOL    HW220460   3.867   2.450   5.407
 6634SOL     OW20461   0.035   2.422   3.991
 6634SOL    HW120462   0.020   2.342   4.042
 6634SOL    HW220463   4.465   2.481   4.018
 6635SOL     OW20464   3.972   3.416   5.455
 6635SOL    HW120465   3.945   3.478   5.521
 6635SOL    HW220466   3.968   3.331   5.498
 6636SOL     OW20467   4.192   2.355   3.913
 6636SOL    HW120468   4.249   2.429   3.932
 6636SOL    HW220469   4.106   2.394   3.901
 6637SOL     OW20470   3.873   3.001   5.195
 6637SOL    HW120471   3.876   2.947   5.274
 6637SOL    HW220472   3.889   2.940   5.123
 6638SOL     OW20473   3.808   3.130   4.738
 6638SOL    HW120474   3.794   3.139   4.832
 6638SOL    HW220475   3.735   3.075   4.709
 6639SOL     OW20476   4.390   3.514   5.427
 6639SOL    HW120477   4.356   3.601   5.449
 6639SOL    HW220478   4.442   3.528   5.347
 6640SOL     OW20479   3.860   3.658   5.567
 6640SOL    HW120480   3.808   3.594   5.616
 6640SOL    HW220481   3.907   3.707   5.634
 6641SOL     OW20482   3.988   2.182   4.441
 6641SOL    HW120483   3.901   2.217   4.418
 6641SOL    HW220484   3.985   2.170   4.536
 6642SOL     OW20485   4.090   3.166   5.214
 6642SOL    HW120486   4.071   3.243   5.161
 6642SOL    HW220487   4.016   3.107   5.198
 6643SOL     OW20488   4.324   3.352   4.206
 6643SOL    HW120489   4.344   3.293   4.133
 6643SOL    HW220490   4.261   3.414   4.170
 6644SOL     OW20491   3.983   3.213   4.009
 6644SOL    HW120492   3.890   3.209   3.987
 6644SOL    HW220493   3.985   3.248   4.098
 6645SOL     OW20494   3.835   2.882   5.444
 6645SOL    HW120495   3.759   2.858   5.496
 6645SOL    HW220496   3.910   2.845   5.491
 6646SOL     OW20497   4.392   2.067   5.217
 6646SOL    HW120498   4.479   2.061   5.180
 6646SOL    HW220499   4.405   2.057   5.311
 6647SOL     OW20500   3.801   2.199   3.760
 6647SOL    HW120501   3.714   2.178   3.727
 6647SOL    HW220502   3.830   2.273   3.707
 6648SOL     OW20503   3.795   2.020   4.037
 6648SOL    HW120504   3.779   2.099   3.986
 6648SOL    HW220505   3.880   1.988   4.007
 6649SOL     OW20506   4.336   2.701   5.157
 6649SOL    HW120507   4.383   2.784   5.144
 6649SOL    HW220508   4.405   2.636   5.168
 6650SOL     OW20509   4.403   2.418   5.458
 6650SOL    HW120510   4.427   2.496   5.509
 6650SOL    HW220511   4.486   2.378   5.435
 6651SOL     OW20512   4.109   3.601   5.284
 6651SOL    HW120513   4.022   3.640   5.273
 6651SOL    HW220514   4.092   3.518   5.330
 6652SOL     OW20515   4.310   2.596   4.389
 6652SOL    HW120516   4.354   2.680   4.376
 6652SOL    HW220517   4.240   2.595   4.324
 6653SOL     OW20518   3.944   3.169   5.579
 6653SOL    HW120519   3.878   3.105   5.551
 6653SOL    HW220520   3.930   3.180   5.672
 6654SOL     OW20521   3.807   3.097   4.388
 6654SOL    HW120522   3.810   3.048   4.470
 6654SOL    HW220523   3.877   3.059   4.335
 6655SOL     OW20524   4.412   3.249   5.375
 6655SOL    HW120525   4.323   3.214   5.378
 6655SOL    HW220526   4.402   3.343   5.392
 6656SOL     OW20527   4.161   2.295   4.254
 6656SOL    HW120528   4.179   2.225   4.191
 6656SOL    HW220529   4.106   2.253   4.321
 6657SOL     OW20530   4.052   2.414   5.013
 6657SOL    HW120531   4.105   2.357   5.069
 6657SOL    HW220532   4.073   2.387   4.923
 6658SOL     OW20533   0.038   3.456   4.409
 6658SOL    HW120534   0.057   3.513   4.334
 6658SOL    HW220535   4.464   3.402   4.380
 6659SOL     OW20536   3.767   2.935   4.028
 6659SOL    HW120537   3.861   2.925   4.012
 6659SOL    HW220538   3.738   2.847   4.052
 6660SOL     OW20539   3.955   2.486   5.707
 6660SOL    HW120540   3.866   2.485   5.741
 6660SOL    HW220541   3.947   2.458   5.616
 6661SOL     OW20542   3.947   2.144   6.577
 6661SOL    HW120543   3.979   2.110   6.660
 6661SOL    HW220544   3.858   2.110   6.569
 6662SOL     OW20545   3.729   2.243   6.224
 6662SOL    HW120546   3.647   2.268   6.265
 6662SOL    HW220547   3.709   2.164   6.175
 6663SOL     OW20548   4.271   3.113   6.731
 6663SOL    HW120549   4.193   3.165   6.710
 6663SOL    HW220550   4.328   3.174   6.778
 6664SOL     OW20551   0.024   2.645   7.443
 6664SOL    HW120552   0.073   2.695   7.508
 6664SOL    HW220553   0.066   2.666   7.359
 6665SOL     OW20554   4.399   2.860   6.228
 6665SOL    HW120555   4.469   2.850   6.293
 6665SOL    HW220556   4.335   2.916   6.271
 6666SOL     OW20557   4.418   3.023   7.401
 6666SOL    HW120558   4.462   3.104   7.375
 6666SOL    HW220559   4.327   3.035   7.372
 6667SOL     OW20560   4.059   3.296   6.655
 6667SOL    HW120561   3.987   3.255   6.607
 6667SOL    HW220562   4.107   3.344   6.588
 6668SOL     OW20563   4.170   2.261   7.075
 6668SOL    HW120564   4.244   2.200   7.077
 6668SOL    HW220565   4.093   2.205   7.087
 6669SOL     OW20566   3.943   3.575   6.061
 6669SOL    HW120567   3.966   3.652   6.114
 6669SOL    HW220568   4.014   3.568   5.997
 6670SOL     OW20569   3.953   3.302   6.119
 6670SOL    HW120570   3.936   3.395   6.127
 6670SOL    HW220571   3.892   3.261   6.181
 6671SOL     OW20572   3.974   2.951   6.473
 6671SOL    HW120573   3.977   2.866   6.518
 6671SOL    HW220574   3.920   3.006   6.530
 6672SOL     OW20575   4.359   3.659   7.037
 6672SOL    HW120576   4.273   3.626   7.062
 6672SOL    HW220577   4.350   3.755   7.039
 6673SOL     OW20578   4.311   2.846   5.722
 6673SOL    HW120579   4.340   2.900   5.649
 6673SOL    HW220580   4.378   2.859   5.789
 6674SOL     OW20581   3.839   2.512   6.146
 6674SOL    HW120582   3.807   2.424   6.166
 6674SOL    HW220583   3.830   2.561   6.228
 6675SOL     OW20584   3.754   3.459   5.710
 6675SOL    HW120585   3.736   3.366   5.729
 6675SOL    HW220586   3.729   3.505   5.790
 6676SOL     OW20587   3.845   2.603   7.173
 6676SOL    HW120588   3.937   2.624   7.188
 6676SOL    HW220589   3.800   2.687   7.178
 6677SOL     OW20590   4.315   3.247   6.323
 6677SOL    HW120591   4.278   3.159   6.327
 6677SOL    HW220592   4.313   3.269   6.230
 6678SOL     OW20593   0.022   1.869   6.112
 6678SOL    HW120594   0.055   1.933   6.050
 6678SOL    HW220595   4.427   1.882   6.114
 6679SOL     OW20596   3.914   2.830   6.855
 6679SOL    HW120597   3.999   2.789   6.838
 6679SOL    HW220598   3.851   2.773   6.812
 6680SOL     OW20599   4.054   2.113   7.393
 6680SOL    HW120600   4.101   2.195   7.407
 6680SOL    HW220601   3.966   2.129   7.426
 6681SOL     OW20602   4.312   2.591   5.855
 6681SOL    HW120603   4.313   2.666   5.796
 6681SOL    HW220604   4.243   2.611   5.918
 6682SOL     OW20605   3.813   2.682   6.361
 6682SOL    HW120606   3.894   2.674   6.411
 6682SOL    HW220607   3.771   2.761   6.396
 6683SOL     OW20608   3.853   3.700   7.162
 6683SOL    HW120609   3.851   3.682   7.255
 6683SOL    HW220610   3.761   3.705   7.135
 6684SOL     OW20611   4.255   2.055   6.467
 6684SOL    HW120612   4.274   2.060   6.561
 6684SOL    HW220613   4.265   2.144   6.435
 6685SOL     OW20614   4.081   3.671   6.445
 6685SOL    HW120615   4.129   3.588   6.453
 6685SOL    HW220616   4.147   3.739   6.457
 6686SOL     OW20617   4.045   2.818   5.834
 6686SOL    HW120618   4.127   2.837   5.788
 6686SOL    HW220619   4.014   2.736   5.796
 6687SOL     OW20620   4.179   3.116   7.321
 6687SOL    HW120621   4.151   3.127   7.230
 6687SOL    HW220622   4.098   3.125   7.372
 6688SOL     OW20623   3.924   2.146   7.087
 6688SOL    HW120624   3.842   2.195   7.078
 6688SOL    HW220625   3.907   2.083   7.157
 6689SOL     OW20626   4.193   3.597   5.911
 6689SOL    HW120627   4.224   3.656   5.980
 6689SOL    HW220628   4.263   3.599   5.846
 6690SOL     OW20629   3.978   3.655   6.820
 6690SOL    HW120630   4.027   3.587   6.867
 6690SOL    HW220631   3.965   3.618   6.732
 6691SOL     OW20632   4.110   2.557   6.061
 6691SOL    HW120633   4.138   2.466   6.073
 6691SOL    HW220634   4.017   2.557   6.082
 6692SOL     OW20635   4.340   1.975   5.702
 6692SOL    HW120636   4.435   1.957   5.703
 6692SOL    HW220637   4.312   1.951   5.614
 6693SOL     OW20638   0.017   3.289   6.502
 6693SOL    HW120639   0.090   3.316   6.446
 6693SOL    HW220640   4.445   3.271   6.441
 6694SOL     OW20641   4.262   1.926   6.088
 6694SOL    HW120642   4.183   1.930   6.143
 6694SOL    HW220643   4.258   2.004   6.034
 6695SOL     OW20644   4.018   1.909   5.770
 6695SOL    HW120645   4.078   1.974   5.733
 6695SOL    HW220646   4.075   1.844   5.811
 6696SOL     OW20647   0.321   2.540   7.033
 6696SOL    HW120648   0.247   2.480   7.034
 6696SOL    HW220649   0.398   2.484   7.024
 6697SOL     OW20650   4.189   3.007   6.322
 6697SOL    HW120651   4.119   2.989   6.385
 6697SOL    HW220652   4.150   2.989   6.237
 6698SOL     OW20653   3.801   2.417   6.977
 6698SOL    HW120654   3.893   2.415   6.949
 6698SOL    HW220655   3.797   2.487   7.042
 6699SOL     OW20656   4.285   2.076   6.735
 6699SOL    HW120657   4.324   2.004   6.785
 6699SOL    HW220658   4.198   2.087   6.774
 6700SOL     OW20659   4.230   3.249   5.758
 6700SOL    HW120660   4.146   3.234   5.801
 6700SOL    HW220661   4.207   3.266   5.667
 6701SOL     OW20662   4.247   2.127   5.909
 6701SOL    HW120663   4.287   2.073   5.841
 6701SOL    HW220664   4.229   2.210   5.865
 6702SOL     OW20665   4.139   2.674   6.836
 6702SOL    HW120666   4.206   2.685   6.903
 6702SOL    HW220667   4.104   2.586   6.851
 6703SOL     OW20668   3.792   3.434   6.936
 6703SOL    HW120669   3.758   3.506   6.883
 6703SOL    HW220670   3.887   3.443   6.931
 6704SOL     OW20671   4.076   2.968   6.077
 6704SOL    HW120672   4.077   3.041   6.015
 6704SOL    HW220673   4.074   2.890   6.022
 6705SOL     OW20674   4.298   2.401   6.449
 6705SOL    HW120675   4.300   2.467   6.380
 6705SOL    HW220676   4.360   2.432   6.514
 6706SOL     OW20677   4.073   3.392   6.904
 6706SOL    HW120678   4.065   3.349   6.819
 6706SOL    HW220679   4.167   3.395   6.921
 6707SOL     OW20680   4.135   2.606   7.190
 6707SOL    HW120681   4.194   2.651   7.129
 6707SOL    HW220682   4.178   2.521   7.206
 6708SOL     OW20683   4.230   1.914   7.321
 6708SOL    HW120684   4.187   1.854   7.261
 6708SOL    HW220685   4.164   1.980   7.341
 6709SOL     OW20686   4.292   2.748   6.612
 6709SOL    HW120687   4.325   2.836   6.626
 6709SOL    HW220688   4.243   2.728   6.692
 6710SOL     OW20689   4.026   2.064   6.832
 6710SOL    HW120690   3.987   2.096   6.914
 6710SOL    HW220691   4.005   1.970   6.831
 6711SOL     OW20692   3.769   3.172   6.863
 6711SOL    HW120693   3.803   3.119   6.936
 6711SOL    HW220694   3.777   3.262   6.895
 6712SOL     OW20695   4.021   1.929   6.210
 6712SOL    HW120696   4.006   2.020   6.236
 6712SOL    HW220697   4.030   1.882   6.293
 6713SOL     OW20698   4.076   2.777   7.394
 6713SOL    HW120699   4.158   2.794   7.440
 6713SOL    HW220700   4.099   2.714   7.325
 6714SOL     OW20701   4.032   2.671   6.533
 6714SOL    HW120702   4.124   2.698   6.532
 6714SOL    HW220703   4.033   2.582   6.566
 6715SOL     OW20704   4.062   2.386   6.595
 6715SOL    HW120705   4.025   2.299   6.579
 6715SOL    HW220706   4.140   2.390   6.540
 6716SOL     OW20707   3.729   3.184   5.781
 6716SOL    HW120708   3.642   3.198   5.744
 6716SOL    HW220709   3.727   3.095   5.814
 6717SOL     OW20710   3.815   3.652   6.523
 6717SOL    HW120711   3.785   3.572   6.480
 6717SOL    HW220712   3.905   3.663   6.491
 6718SOL     OW20713   4.232   3.443   6.491
 6718SOL    HW120714   4.316   3.480   6.517
 6718SOL    HW220715   4.255   3.370   6.434
 6719SOL     OW20716   3.759   2.405   6.702
 6719SOL    HW120717   3.839   2.387   6.653
 6719SOL    HW220718   3.788   2.411   6.793
 6720SOL     OW20719   3.915   2.379   7.312
 6720SOL    HW120720   3.972   2.344   7.244
 6720SOL    HW220721   3.867   2.451   7.269
 6721SOL     OW20722   0.035   2.421   5.853
 6721SOL    HW120723   0.020   2.342   5.905
 6721SOL    HW220724   4.465   2.481   5.880
 6722SOL     OW20725   3.972   3.416   7.316
 6722SOL    HW120726   3.945   3.479   7.383
 6722SOL    HW220727   3.968   3.331   7.360
 6723SOL     OW20728   4.192   2.355   5.776
 6723SOL    HW120729   4.249   2.430   5.794
 6723SOL    HW220730   4.106   2.394   5.763
 6724SOL     OW20731   3.872   3.001   7.057
 6724SOL    HW120732   3.877   2.948   7.136
 6724SOL    HW220733   3.888   2.940   6.985
 6725SOL     OW20734   3.807   3.130   6.600
 6725SOL    HW120735   3.793   3.139   6.694
 6725SOL    HW220736   3.736   3.074   6.570
 6726SOL     OW20737   4.390   3.514   7.288
 6726SOL    HW120738   4.357   3.601   7.311
 6726SOL    HW220739   4.443   3.528   7.210
 6727SOL     OW20740   3.859   3.659   7.429
 6727SOL    HW120741   3.808   3.594   7.478
 6727SOL    HW220742   3.907   3.707   7.496
 6728SOL     OW20743   3.988   2.182   6.302
 6728SOL    HW120744   3.901   2.216   6.279
 6728SOL    HW220745   3.985   2.171   6.397
 6729SOL     OW20746   4.090   3.166   7.077
 6729SOL    HW120747   4.072   3.243   7.023
 6729SOL    HW220748   4.016   3.107   7.060
 6730SOL     OW20749   4.325   3.352   6.068
 6730SOL    HW120750   4.343   3.293   5.995
 6730SOL    HW220751   4.260   3.414   6.033
 6731SOL     OW20752   3.983   3.213   5.871
 6731SOL    HW120753   3.890   3.208   5.849
 6731SOL    HW220754   3.985   3.248   5.960
 6732SOL     OW20755   3.836   2.881   7.306
 6732SOL    HW120756   3.759   2.858   7.359
 6732SOL    HW220757   3.910   2.844   7.353
 6733SOL     OW20758   4.392   2.067   7.079
 6733SOL    HW120759   4.479   2.061   7.041
 6733SOL    HW220760   4.406   2.058   7.173
 6734SOL     OW20761   3.802   2.198   5.621
 6734SOL    HW120762   3.714   2.177   5.590
 6734SOL    HW220763   3.829   2.273   5.568
 6735SOL     OW20764   3.795   2.020   5.900
 6735SOL    HW120765   3.778   2.099   5.849
 6735SOL    HW220766   3.880   1.989   5.868
 6736SOL     OW20767   4.336   2.701   7.020
 6736SOL    HW120768   4.383   2.784   7.005
 6736SOL    HW220769   4.405   2.636   7.029
 6737SOL     OW20770   4.403   2.418   7.321
 6737SOL    HW120771   4.427   2.496   7.371
 6737SOL    HW220772   4.486   2.379   7.296
 6738SOL     OW20773   4.109   3.601   7.146
 6738SOL    HW120774   4.022   3.640   7.135
 6738SOL    HW220775   4.092   3.518   7.192
 6739SOL     OW20776   4.310   2.596   6.251
 6739SOL    HW120777   4.354   2.680   6.238
 6739SOL    HW220778   4.239   2.595   6.186
 6740SOL     OW20779   3.944   3.169   7.441
 6740SOL    HW120780   3.878   3.106   7.414
 6740SOL    HW220781   3.930   3.180   7.535
 6741SOL     OW20782   3.808   3.098   6.250
 6741SOL    HW120783   3.808   3.048   6.331
 6741SOL    HW220784   3.877   3.059   6.197
 6742SOL     OW20785   4.412   3.249   7.237
 6742SOL    HW120786   4.323   3.215   7.239
 6742SOL    HW220787   4.402   3.343   7.254
 6743SOL     OW20788   4.162   2.295   6.117
 6743SOL    HW120789   4.179   2.225   6.053
 6743SOL    HW220790   4.106   2.253   6.183
 6744SOL     OW20791   4.051   2.414   6.875
 6744SOL    HW120792   4.105   2.357   6.930
 6744SOL    HW220793   4.073   2.387   6.785
 6745SOL     OW20794   0.038   3.456   6.271
 6745SOL    HW120795   0.057   3.513   6.196
 6745SOL    HW220796   4.464   3.402   6.242
 6746SOL     OW20797   3.768   2.935   5.891
 6746SOL    HW120798   3.862   2.924   5.874
 6746SOL    HW220799   3.738   2.847   5.914
 6747SOL     OW20800   3.955   2.485   7.569
 6747SOL    HW120801   3.865   2.485   7.602
 6747SOL    HW220802   3.947   2.458   7.478
 6748SOL     OW20803   3.947   2.144   8.439
 6748SOL    HW120804   3.979   2.110   8.522
 6748SOL    HW220805   3.858   2.109   8.431
 6749SOL     OW20806   3.730   2.244   8.086
 6749SOL    HW120807   3.647   2.268   8.128
 6749SOL    HW220808   3.710   2.164   8.038
 6750SOL     OW20809   4.271   3.113   8.594
 6750SOL    HW120810   4.193   3.166   8.572
 6750SOL    HW220811   4.329   3.174   8.640
 6751SOL     OW20812   0.024   2.645   9.305
 6751SOL    HW120813   0.073   2.695   9.370
 6751SOL    HW220814   0.066   2.666   9.222
 6752SOL     OW20815   4.399   2.859   8.090
 6752SOL    HW120816   4.470   2.851   8.154
 6752SOL    HW220817   4.335   2.916   8.133
 6753SOL     OW20818   4.418   3.023   9.263
 6753SOL    HW120819   4.462   3.104   9.237
 6753SOL    HW220820   4.327   3.035   9.234
 6754SOL     OW20821   4.059   3.296   8.517
 6754SOL    HW120822   3.987   3.255   8.469
 6754SOL    HW220823   4.108   3.344   8.450
 6755SOL     OW20824   4.170   2.261   8.937
 6755SOL    HW120825   4.244   2.200   8.940
 6755SOL    HW220826   4.093   2.205   8.949
 6756SOL     OW20827   3.943   3.575   7.923
 6756SOL    HW120828   3.966   3.652   7.976
 6756SOL    HW220829   4.014   3.568   7.859
 6757SOL     OW20830   3.953   3.301   7.981
 6757SOL    HW120831   3.936   3.395   7.988
 6757SOL    HW220832   3.892   3.262   8.044
 6758SOL     OW20833   3.973   2.951   8.334
 6758SOL    HW120834   3.978   2.867   8.380
 6758SOL    HW220835   3.920   3.006   8.392
 6759SOL     OW20836   4.359   3.659   8.898
 6759SOL    HW120837   4.273   3.626   8.924
 6759SOL    HW220838   4.350   3.755   8.901
 6760SOL     OW20839   4.311   2.846   7.585
 6760SOL    HW120840   4.339   2.900   7.511
 6760SOL    HW220841   4.379   2.859   7.651
 6761SOL     OW20842   3.839   2.512   8.008
 6761SOL    HW120843   3.808   2.424   8.029
 6761SOL    HW220844   3.830   2.561   8.089
 6762SOL     OW20845   3.753   3.459   7.572
 6762SOL    HW120846   3.736   3.366   7.592
 6762SOL    HW220847   3.729   3.505   7.653
 6763SOL     OW20848   3.845   2.603   9.035
 6763SOL    HW120849   3.937   2.624   9.050
 6763SOL    HW220850   3.800   2.687   9.040
 6764SOL     OW20851   4.314   3.247   8.185
 6764SOL    HW120852   4.278   3.159   8.189
 6764SOL    HW220853   4.313   3.270   8.092
 6765SOL     OW20854   0.022   1.869   7.974
 6765SOL    HW120855   0.055   1.933   7.912
 6765SOL    HW220856   4.427   1.883   7.976
 6766SOL     OW20857   3.914   2.830   8.717
 6766SOL    HW120858   3.999   2.789   8.700
 6766SOL    HW220859   3.851   2.773   8.674
 6767SOL     OW20860   4.054   2.113   9.254
 6767SOL    HW120861   4.101   2.195   9.270
 6767SOL    HW220862   3.966   2.129   9.288
 6768SOL     OW20863   4.312   2.590   7.717
 6768SOL    HW120864   4.314   2.666   7.658
 6768SOL    HW220865   4.243   2.612   7.780
 6769SOL     OW20866   3.812   2.682   8.223
 6769SOL    HW120867   3.894   2.674   8.272
 6769SOL    HW220868   3.771   2.761   8.258
 6770SOL     OW20869   3.853   3.700   9.023
 6770SOL    HW120870   3.851   3.682   9.117
 6770SOL    HW220871   3.761   3.705   8.997
 6771SOL     OW20872   4.254   2.055   8.329
 6771SOL    HW120873   4.273   2.060   8.422
 6771SOL    HW220874   4.266   2.144   8.297
 6772SOL     OW20875   4.081   3.671   8.307
 6772SOL    HW120876   4.129   3.589   8.315
 6772SOL    HW220877   4.147   3.739   8.319
 6773SOL     OW20878   4.045   2.818   7.696
 6773SOL    HW120879   4.127   2.837   7.651
 6773SOL    HW220880   4.014   2.736   7.657
 6774SOL     OW20881   4.179   3.116   9.183
 6774SOL    HW120882   4.151   3.127   9.092
 6774SOL    HW220883   4.098   3.125   9.234
 6775SOL     OW20884   3.924   2.145   8.948
 6775SOL    HW120885   3.842   2.195   8.940
 6775SOL    HW220886   3.907   2.083   9.019
 6776SOL     OW20887   4.193   3.597   7.773
 6776SOL    HW120888   4.224   3.656   7.842
 6776SOL    HW220889   4.263   3.599   7.708
 6777SOL     OW20890   3.978   3.655   8.682
 6777SOL    HW120891   4.027   3.587   8.729
 6777SOL    HW220892   3.965   3.618   8.594
 6778SOL     OW20893   4.110   2.557   7.923
 6778SOL    HW120894   4.138   2.466   7.935
 6778SOL    HW220895   4.017   2.557   7.944
 6779SOL     OW20896   4.340   1.975   7.565
 6779SOL    HW120897   4.434   1.958   7.565
 6779SOL    HW220898   4.312   1.951   7.476
 6780SOL     OW20899   0.017   3.289   8.364
 6780SOL    HW120900   0.090   3.316   8.308
 6780SOL    HW220901   4.445   3.271   8.302
 6781SOL     OW20902   4.261   1.925   7.950
 6781SOL    HW120903   4.183   1.931   8.005
 6781SOL    HW220904   4.258   2.004   7.896
 6782SOL     OW20905   4.018   1.909   7.632
 6782SOL    HW120906   4.078   1.974   7.595
 6782SOL    HW220907   4.075   1.844   7.673
 6783SOL     OW20908   0.321   2.540   8.895
 6783SOL    HW120909   0.247   2.480   8.896
 6783SOL    HW220910   0.398   2.484   8.886
 6784SOL     OW20911   4.189   3.008   8.184
 6784SOL    HW120912   4.119   2.989   8.247
 6784SOL    HW220913   4.150   2.989   8.099
 6785SOL     OW20914   3.801   2.417   8.839
 6785SOL    HW120915   3.892   2.415   8.811
 6785SOL    HW220916   3.797   2.487   8.904
 6786SOL     OW20917   4.285   2.076   8.597
 6786SOL    HW120918   4.325   2.005   8.647
 6786SOL    HW220919   4.198   2.087   8.636
 6787SOL     OW20920   4.230   3.249   7.620
 6787SOL    HW120921   4.145   3.234   7.663
 6787SOL    HW220922   4.207   3.266   7.529
 6788SOL     OW20923   4.247   2.127   7.771
 6788SOL    HW120924   4.287   2.073   7.703
 6788SOL    HW220925   4.229   2.210   7.727
 6789SOL     OW20926   4.139   2.674   8.698
 6789SOL    HW120927   4.206   2.685   8.765
 6789SOL    HW220928   4.104   2.586   8.713
 6790SOL     OW20929   3.792   3.434   8.798
 6790SOL    HW120930   3.758   3.507   8.745
 6790SOL    HW220931   3.887   3.443   8.793
 6791SOL     OW20932   4.076   2.968   7.939
 6791SOL    HW120933   4.077   3.041   7.877
 6791SOL    HW220934   4.074   2.890   7.884
 6792SOL     OW20935   4.297   2.401   8.311
 6792SOL    HW120936   4.300   2.467   8.242
 6792SOL    HW220937   4.360   2.432   8.376
 6793SOL     OW20938   4.073   3.392   8.767
 6793SOL    HW120939   4.066   3.349   8.681
 6793SOL    HW220940   4.167   3.395   8.783
 6794SOL     OW20941   4.135   2.606   9.052
 6794SOL    HW120942   4.194   2.651   8.991
 6794SOL    HW220943   4.178   2.521   9.068
 6795SOL     OW20944   4.231   1.914   9.183
 6795SOL    HW120945   4.187   1.854   9.123
 6795SOL    HW220946   4.164   1.980   9.203
 6796SOL     OW20947   4.291   2.748   8.474
 6796SOL    HW120948   4.326   2.836   8.487
 6796SOL    HW220949   4.243   2.728   8.554
 6797SOL     OW20950   4.025   2.064   8.694
 6797SOL    HW120951   3.987   2.096   8.776
 6797SOL    HW220952   4.005   1.970   8.694
 6798SOL     OW20953   3.769   3.172   8.725
 6798SOL    HW120954   3.803   3.119   8.798
 6798SOL    HW220955   3.777   3.262   8.756
 6799SOL     OW20956   4.020   1.929   8.073
 6799SOL    HW120957   4.006   2.020   8.098
 6799SOL    HW220958   4.031   1.882   8.156
 6800SOL     OW20959   4.076   2.777   9.256
 6800SOL    HW120960   4.158   2.794   9.302
 6800SOL    HW220961   4.099   2.714   9.187
 6801SOL     OW20962   4.032   2.671   8.395
 6801SOL    HW120963   4.124   2.698   8.394
 6801SOL    HW220964   4.033   2.582   8.428
 6802SOL     OW20965   4.062   2.386   8.457
 6802SOL    HW120966   4.026   2.299   8.441
 6802SOL    HW220967   4.140   2.390   8.402
 6803SOL     OW20968   3.729   3.185   7.643
 6803SOL    HW120969   3.642   3.198   7.606
 6803SOL    HW220970   3.727   3.095   7.676
 6804SOL     OW20971   3.815   3.652   8.385
 6804SOL    HW120972   3.785   3.572   8.342
 6804SOL    HW220973   3.905   3.663   8.353
 6805SOL     OW20974   4.232   3.443   8.353
 6805SOL    HW120975   4.316   3.481   8.379
 6805SOL    HW220976   4.255   3.370   8.296
 6806SOL     OW20977   3.759   2.405   8.564
 6806SOL    HW120978   3.840   2.387   8.515
 6806SOL    HW220979   3.787   2.411   8.655
 6807SOL     OW20980   3.914   2.379   9.174
 6807SOL    HW120981   3.972   2.344   9.106
 6807SOL    HW220982   3.867   2.451   9.131
 6808SOL     OW20983   0.035   2.422   7.715
 6808SOL    HW120984   0.020   2.342   7.766
 6808SOL    HW220985   4.465   2.481   7.742
 6809SOL     OW20986   3.972   3.416   9.178
 6809SOL    HW120987   3.945   3.479   9.245
 6809SOL    HW220988   3.968   3.331   9.222
 6810SOL     OW20989   4.192   2.355   7.638
 6810SOL    HW120990   4.249   2.429   7.656
 6810SOL    HW220991   4.105   2.394   7.625
 6811SOL     OW20992   3.872   3.001   8.919
 6811SOL    HW120993   3.877   2.948   8.998
 6811SOL    HW220994   3.888   2.940   8.847
 6812SOL     OW20995   3.807   3.130   8.462
 6812SOL    HW120996   3.794   3.139   8.556
 6812SOL    HW220997   3.735   3.074   8.432
 6813SOL     OW20998   4.390   3.514   9.150
 6813SOL    HW120999   4.357   3.601   9.173
 6813SOL    HW221000   4.443   3.528   9.072
 6814SOL     OW21001   3.859   3.659   9.291
 6814SOL    HW121002   3.808   3.594   9.340
 6814SOL    HW221003   3.907   3.707   9.358
 6815SOL     OW21004   3.988   2.182   8.164
 6815SOL    HW121005   3.902   2.217   8.142
 6815SOL    HW221006   3.985   2.171   8.259
 6816SOL     OW21007   4.090   3.166   8.939
 6816SOL    HW121008   4.072   3.243   8.885
 6816SOL    HW221009   4.016   3.107   8.922
 6817SOL     OW21010   4.324   3.352   7.930
 6817SOL    HW121011   4.344   3.293   7.857
 6817SOL    HW221012   4.261   3.414   7.894
 6818SOL     OW21013   3.983   3.213   7.733
 6818SOL    HW121014   3.890   3.209   7.711
 6818SOL    HW221015   3.985   3.248   7.822
 6819SOL     OW21016   3.835   2.881   9.167
 6819SOL    HW121017   3.759   2.858   9.221
 6819SOL    HW221018   3.910   2.844   9.215
 6820SOL     OW21019   4.392   2.067   8.941
 6820SOL    HW121020   4.479   2.061   8.903
 6820SOL    HW221021   4.406   2.058   9.035
 6821SOL     OW21022   3.801   2.199   7.484
 6821SOL    HW121023   3.714   2.178   7.450
 6821SOL    HW221024   3.830   2.273   7.431
 6822SOL     OW21025   3.794   2.020   7.761
 6822SOL    HW121026   3.779   2.100   7.711
 6822SOL    HW221027   3.880   1.988   7.731
 6823SOL     OW21028   4.336   2.701   8.882
 6823SOL    HW121029   4.383   2.784   8.868
 6823SOL    HW221030   4.406   2.636   8.891
 6824SOL     OW21031   4.403   2.418   9.183
 6824SOL    HW121032   4.427   2.496   9.233
 6824SOL    HW221033   4.486   2.379   9.158
 6825SOL     OW21034   4.109   3.601   9.008
 6825SOL    HW121035   4.022   3.640   8.997
 6825SOL    HW221036   4.092   3.518   9.054
 6826SOL     OW21037   4.310   2.595   8.113
 6826SOL    HW121038   4.354   2.680   8.101
 6826SOL    HW221039   4.240   2.595   8.048
 6827SOL     OW21040   3.944   3.169   9.303
 6827SOL    HW121041   3.878   3.106   9.276
 6827SOL    HW221042   3.930   3.180   9.397
 6828SOL     OW21043   3.807   3.097   8.112
 6828SOL    HW121044   3.810   3.048   8.194
 6828SOL    HW221045   3.877   3.059   8.059
 6829SOL     OW21046   4.412   3.249   9.099
 6829SOL    HW121047   4.323   3.215   9.102
 6829SOL    HW221048   4.402   3.343   9.116
 6830SOL     OW21049   4.161   2.295   7.978
 6830SOL    HW121050   4.179   2.225   7.915
 6830SOL    HW221051   4.106   2.253   8.045
 6831SOL     OW21052   4.051   2.414   8.737
 6831SOL    HW121053   4.105   2.357   8.792
 6831SOL    HW221054   4.073   2.387   8.647
 6832SOL     OW21055   0.038   3.456   8.133
 6832SOL    HW121056   0.057   3.513   8.058
 6832SOL    HW221057   4.464   3.402   8.104
 6833SOL     OW21058   3.768   2.935   7.753
 6833SOL    HW121059   3.861   2.925   7.736
 6833SOL    HW221060   3.738   2.847   7.776
 6834SOL     OW21061   3.955   2.486   9.431
 6834SOL    HW121062   3.865   2.485   9.464
 6834SOL    HW221063   3.947   2.458   9.340
 6835SOL     OW21064   3.947   2.144  10.300
 6835SOL    HW121065   3.979   2.110  10.384
 6835SOL    HW221066   3.858   2.109  10.293
 6836SOL     OW21067   3.729   2.244   9.948
 6836SOL    HW121068   3.647   2.268   9.990
 6836SOL    HW221069   3.710   2.164   9.900
 6837SOL     OW21070   4.271   3.113  10.456
 6837SOL    HW121071   4.193   3.165  10.434
 6837SOL    HW221072   4.328   3.174  10.503
 6838SOL     OW21073   0.026   2.670   0.077
 6838SOL    HW121074   0.097   2.715   0.122
 6838SOL    HW221075   0.058   2.658  11.088
 6839SOL     OW21076   4.399   2.859   9.952
 6839SOL    HW121077   4.470   2.851  10.016
 6839SOL    HW221078   4.335   2.916   9.995
 6840SOL     OW21079   4.059   3.295  10.379
 6840SOL    HW121080   3.987   3.255  10.331
 6840SOL    HW221081   4.107   3.344  10.312
 6841SOL     OW21082   4.176   2.262  10.800
 6841SOL    HW121083   4.243   2.194  10.799
 6841SOL    HW221084   4.094   2.215  10.817
 6842SOL     OW21085   3.943   3.575   9.785
 6842SOL    HW121086   3.966   3.652   9.838
 6842SOL    HW221087   4.014   3.568   9.721
 6843SOL     OW21088   3.953   3.301   9.843
 6843SOL    HW121089   3.936   3.395   9.850
 6843SOL    HW221090   3.892   3.261   9.906
 6844SOL     OW21091   3.973   2.951  10.196
 6844SOL    HW121092   3.977   2.867  10.242
 6844SOL    HW221093   3.920   3.006  10.253
 6845SOL     OW21094   4.357   3.660  10.759
 6845SOL    HW121095   4.269   3.630  10.783
 6845SOL    HW221096   4.352   3.755  10.765
 6846SOL     OW21097   4.311   2.846   9.447
 6846SOL    HW121098   4.339   2.900   9.373
 6846SOL    HW221099   4.379   2.859   9.513
 6847SOL     OW21100   3.839   2.512   9.870
 6847SOL    HW121101   3.808   2.424   9.891
 6847SOL    HW221102   3.830   2.561   9.951
 6848SOL     OW21103   3.753   3.459   9.434
 6848SOL    HW121104   3.736   3.366   9.454
 6848SOL    HW221105   3.729   3.505   9.515
 6849SOL     OW21106   3.847   2.590  10.912
 6849SOL    HW121107   3.941   2.611  10.912
 6849SOL    HW221108   3.803   2.674  10.905
 6850SOL     OW21109   4.315   3.247  10.047
 6850SOL    HW121110   4.278   3.159  10.051
 6850SOL    HW221111   4.313   3.269   9.954
 6851SOL     OW21112   0.022   1.869   9.836
 6851SOL    HW121113   0.055   1.933   9.774
 6851SOL    HW221114   4.427   1.883   9.838
 6852SOL     OW21115   3.914   2.829  10.577
 6852SOL    HW121116   3.999   2.788  10.559
 6852SOL    HW221117   3.850   2.772  10.537
 6853SOL     OW21118   4.062   2.119   0.012
 6853SOL    HW121119   4.114   2.194   0.042
 6853SOL    HW221120   3.972   2.142   0.034
 6854SOL     OW21121   4.312   2.590   9.579
 6854SOL    HW121122   4.314   2.666   9.520
 6854SOL    HW221123   4.243   2.612   9.642
 6855SOL     OW21124   3.812   2.682  10.085
 6855SOL    HW121125   3.894   2.674  10.134
 6855SOL    HW221126   3.771   2.761  10.120
 6856SOL     OW21127   3.855   3.699  10.893
 6856SOL    HW121128   3.835   3.668  10.982
 6856SOL    HW221129   3.769   3.707  10.851
 6857SOL     OW21130   4.254   2.055  10.191
 6857SOL    HW121131   4.274   2.061  10.285
 6857SOL    HW221132   4.266   2.144  10.159
 6858SOL     OW21133   4.081   3.671  10.169
 6858SOL    HW121134   4.129   3.589  10.177
 6858SOL    HW221135   4.147   3.739  10.181
 6859SOL     OW21136   4.045   2.818   9.558
 6859SOL    HW121137   4.127   2.837   9.513
 6859SOL    HW221138   4.014   2.736   9.520
 6860SOL     OW21139   4.180   3.124  11.052
 6860SOL    HW121140   4.153   3.134  10.961
 6860SOL    HW221141   4.106   3.079  11.094
 6861SOL     OW21142   3.927   2.146  10.806
 6861SOL    HW121143   3.845   2.195  10.801
 6861SOL    HW221144   3.912   2.083  10.878
 6862SOL     OW21145   4.193   3.597   9.635
 6862SOL    HW121146   4.224   3.656   9.704
 6862SOL    HW221147   4.263   3.599   9.570
 6863SOL     OW21148   3.978   3.655  10.544
 6863SOL    HW121149   4.027   3.588  10.592
 6863SOL    HW221150   3.966   3.618  10.457
 6864SOL     OW21151   4.110   2.557   9.784
 6864SOL    HW121152   4.138   2.466   9.797
 6864SOL    HW221153   4.017   2.557   9.806
 6865SOL     OW21154   4.340   1.975   9.427
 6865SOL    HW121155   4.434   1.958   9.427
 6865SOL    HW221156   4.312   1.951   9.338
 6866SOL     OW21157   0.017   3.289  10.226
 6866SOL    HW121158   0.090   3.316  10.170
 6866SOL    HW221159   4.445   3.271  10.165
 6867SOL     OW21160   4.261   1.925   9.812
 6867SOL    HW121161   4.183   1.931   9.867
 6867SOL    HW221162   4.258   2.004   9.758
 6868SOL     OW21163   4.018   1.909   9.494
 6868SOL    HW121164   4.078   1.974   9.457
 6868SOL    HW221165   4.075   1.844   9.535
 6869SOL     OW21166   0.310   2.542  10.759
 6869SOL    HW121167   0.243   2.475  10.773
 6869SOL    HW221168   0.392   2.493  10.749
 6870SOL     OW21169   4.189   3.007  10.046
 6870SOL    HW121170   4.119   2.989  10.109
 6870SOL    HW221171   4.150   2.989   9.961
 6871SOL     OW21172   3.800   2.416  10.702
 6871SOL    HW121173   3.892   2.415  10.675
 6871SOL    HW221174   3.797   2.480  10.774
 6872SOL     OW21175   4.285   2.076  10.460
 6872SOL    HW121176   4.323   2.002  10.507
 6872SOL    HW221177   4.198   2.086  10.498
 6873SOL     OW21178   4.230   3.248   9.482
 6873SOL    HW121179   4.145   3.234   9.525
 6873SOL    HW221180   4.207   3.266   9.391
 6874SOL     OW21181   4.247   2.127   9.633
 6874SOL    HW121182   4.287   2.073   9.565
 6874SOL    HW221183   4.229   2.210   9.589
 6875SOL     OW21184   4.139   2.674  10.560
 6875SOL    HW121185   4.207   2.685  10.626
 6875SOL    HW221186   4.104   2.586  10.574
 6876SOL     OW21187   3.792   3.436  10.658
 6876SOL    HW121188   3.760   3.508  10.604
 6876SOL    HW221189   3.887   3.443  10.652
 6877SOL     OW21190   4.076   2.968   9.801
 6877SOL    HW121191   4.077   3.041   9.739
 6877SOL    HW221192   4.074   2.890   9.746
 6878SOL     OW21193   4.297   2.401  10.173
 6878SOL    HW121194   4.301   2.467  10.104
 6878SOL    HW221195   4.361   2.431  10.239
 6879SOL     OW21196   4.073   3.390  10.629
 6879SOL    HW121197   4.066   3.347  10.543
 6879SOL    HW221198   4.167   3.395  10.646
 6880SOL     OW21199   4.134   2.599  10.906
 6880SOL    HW121200   4.196   2.645  10.849
 6880SOL    HW221201   4.167   2.509  10.908
 6881SOL     OW21202   4.292   2.748  10.336
 6881SOL    HW121203   4.325   2.836  10.349
 6881SOL    HW221204   4.243   2.729  10.416
 6882SOL     OW21205   4.026   2.064  10.556
 6882SOL    HW121206   3.989   2.096  10.638
 6882SOL    HW221207   4.005   1.970  10.556
 6883SOL     OW21208   3.772   3.173  10.586
 6883SOL    HW121209   3.801   3.119  10.660
 6883SOL    HW221210   3.776   3.263  10.620
 6884SOL     OW21211   4.021   1.929   9.935
 6884SOL    HW121212   4.006   2.020   9.960
 6884SOL    HW221213   4.031   1.882  10.017
 6885SOL     OW21214   4.080   2.780  11.095
 6885SOL    HW121215   4.164   2.795   0.039
 6885SOL    HW221216   4.099   2.713  11.029
 6886SOL     OW21217   4.032   2.671  10.257
 6886SOL    HW121218   4.124   2.698  10.256
 6886SOL    HW221219   4.034   2.581  10.290
 6887SOL     OW21220   4.062   2.386  10.319
 6887SOL    HW121221   4.025   2.299  10.303
 6887SOL    HW221222   4.140   2.390  10.264
 6888SOL     OW21223   3.729   3.185   9.505
 6888SOL    HW121224   3.642   3.198   9.468
 6888SOL    HW221225   3.727   3.095   9.538
 6889SOL     OW21226   3.815   3.652  10.247
 6889SOL    HW121227   3.785   3.572  10.204
 6889SOL    HW221228   3.905   3.663  10.215
 6890SOL     OW21229   4.232   3.443  10.215
 6890SOL    HW121230   4.316   3.481  10.241
 6890SOL    HW221231   4.255   3.370  10.158
 6891SOL     OW21232   3.760   2.405  10.426
 6891SOL    HW121233   3.840   2.387  10.378
 6891SOL    HW221234   3.787   2.411  10.518
 6892SOL     OW21235   0.035   2.422   9.577
 6892SOL    HW121236   0.020   2.342   9.628
 6892SOL    HW221237   4.465   2.481   9.604
 6893SOL     OW21238   3.980   3.428  11.055
 6893SOL    HW121239   3.925   3.466   0.024
 6893SOL    HW221240   3.975   3.333  11.072
 6894SOL     OW21241   4.192   2.355   9.500
 6894SOL    HW121242   4.249   2.429   9.518
 6894SOL    HW221243   4.105   2.394   9.487
 6895SOL     OW21244   3.877   3.000  10.780
 6895SOL    HW121245   3.873   2.944  10.857
 6895SOL    HW221246   3.890   2.939  10.707
 6896SOL     OW21247   3.808   3.130  10.323
 6896SOL    HW121248   3.795   3.140  10.418
 6896SOL    HW221249   3.735   3.074  10.295
 6897SOL     OW21250   4.397   3.528  11.007
 6897SOL    HW121251   4.322   3.587  10.993
 6897SOL    HW221252   4.433   3.515  10.919
 6898SOL     OW21253   3.988   2.182  10.026
 6898SOL    HW121254   3.902   2.217  10.004
 6898SOL    HW221255   3.985   2.171  10.121
 6899SOL     OW21256   4.086   3.168  10.808
 6899SOL    HW121257   4.073   3.242  10.749
 6899SOL    HW221258   4.015   3.108  10.787
 6900SOL     OW21259   4.324   3.352   9.792
 6900SOL    HW121260   4.344   3.293   9.719
 6900SOL    HW221261   4.261   3.414   9.756
 6901SOL     OW21262   3.983   3.213   9.595
 6901SOL    HW121263   3.890   3.209   9.573
 6901SOL    HW221264   3.985   3.248   9.684
 6902SOL     OW21265   3.836   2.874  11.021
 6902SOL    HW121266   3.765   2.857  11.083
 6902SOL    HW221267   3.915   2.844  11.066
 6903SOL     OW21268   4.396   2.065  10.807
 6903SOL    HW121269   4.476   2.066  10.755
 6903SOL    HW221270   4.426   2.073  10.898
 6904SOL     OW21271   3.801   2.198   9.346
 6904SOL    HW121272   3.714   2.178   9.313
 6904SOL    HW221273   3.830   2.273   9.293
 6905SOL     OW21274   3.794   2.020   9.623
 6905SOL    HW121275   3.779   2.100   9.573
 6905SOL    HW221276   3.880   1.988   9.593
 6906SOL     OW21277   4.337   2.700  10.744
 6906SOL    HW121278   4.381   2.784  10.729
 6906SOL    HW221279   4.408   2.637  10.747
 6907SOL     OW21280   4.114   3.596  10.869
 6907SOL    HW121281   4.033   3.647  10.863
 6907SOL    HW221282   4.091   3.520  10.922
 6908SOL     OW21283   4.310   2.595   9.975
 6908SOL    HW121284   4.354   2.680   9.963
 6908SOL    HW221285   4.240   2.595   9.910
 6909SOL     OW21286   3.807   3.097   9.974
 6909SOL    HW121287   3.809   3.048  10.056
 6909SOL    HW221288   3.877   3.059   9.921
 6910SOL     OW21289   4.405   3.254  10.939
 6910SOL    HW121290   4.330   3.205  10.973
 6910SOL    HW221291   4.397   3.341  10.980
 6911SOL     OW21292   4.161   2.295   9.840
 6911SOL    HW121293   4.179   2.225   9.777
 6911SOL    HW221294   4.106   2.253   9.907
 6912SOL     OW21295   4.052   2.414  10.599
 6912SOL    HW121296   4.105   2.356  10.654
 6912SOL    HW221297   4.072   2.388  10.509
 6913SOL     OW21298   0.038   3.456   9.995
 6913SOL    HW121299   0.057   3.513   9.920
 6913SOL    HW221300   4.464   3.402   9.966
 6914SOL     OW21301   3.768   2.935   9.614
 6914SOL    HW121302   3.861   2.925   9.598
 6914SOL    HW221303   3.738   2.847   9.638
 6915SOL     OW21304   3.930   4.295   0.090
 6915SOL    HW121305   3.896   4.351   0.160
 6915SOL    HW221306   3.941   4.354   0.016
 6916SOL     OW21307   3.947   4.004   0.990
 6916SOL    HW121308   3.978   3.970   1.074
 6916SOL    HW221309   3.857   3.970   0.982
 6917SOL     OW21310   3.730   4.102   0.643
 6917SOL    HW121311   3.645   4.128   0.681
 6917SOL    HW221312   3.710   4.025   0.591
 6918SOL     OW21313   0.059   0.016   1.858
 6918SOL    HW121314   0.110   0.084   1.902
 6918SOL    HW221315   0.075   0.031   1.765
 6919SOL     OW21316   4.170   4.119   1.484
 6919SOL    HW121317   4.245   4.060   1.492
 6919SOL    HW221318   4.094   4.063   1.501
 6920SOL     OW21319   3.816   4.364   0.557
 6920SOL    HW121320   3.798   4.275   0.589
 6920SOL    HW221321   3.862   4.406   0.630
 6921SOL     OW21322   3.843   4.472   1.584
 6921SOL    HW121323   3.913   4.486   1.647
 6921SOL    HW221324   3.809   0.060   1.565
 6922SOL     OW21325   0.023   3.733   0.530
 6922SOL    HW121326   0.056   3.794   0.464
 6922SOL    HW221327   4.428   3.745   0.528
 6923SOL     OW21328   4.054   3.976   1.804
 6923SOL    HW121329   4.100   4.057   1.825
 6923SOL    HW221330   3.966   3.988   1.838
 6924SOL     OW21331   4.254   3.915   0.881
 6924SOL    HW121332   4.273   3.921   0.975
 6924SOL    HW221333   4.265   4.005   0.849
 6925SOL     OW21334   3.923   4.008   1.503
 6925SOL    HW121335   3.838   4.052   1.492
 6925SOL    HW221336   3.908   3.944   1.573
 6926SOL     OW21337   4.094   4.387   0.415
 6926SOL    HW121338   4.130   4.313   0.462
 6926SOL    HW221339   4.021   4.418   0.469
 6927SOL     OW21340   4.341   3.845   0.115
 6927SOL    HW121341   4.433   3.817   0.122
 6927SOL    HW221342   4.314   3.817   0.028
 6928SOL     OW21343   4.262   3.788   0.502
 6928SOL    HW121344   4.183   3.792   0.555
 6928SOL    HW221345   4.257   3.867   0.447
 6929SOL     OW21346   4.010   3.771   0.198
 6929SOL    HW121347   4.055   3.826   0.133
 6929SOL    HW221348   4.077   3.707   0.224
 6930SOL     OW21349   0.354   4.398   1.519
 6930SOL    HW121350   0.282   4.370   1.461
 6930SOL    HW221351   0.425   4.336   1.500
 6931SOL     OW21352   3.799   4.279   1.391
 6931SOL    HW121353   3.890   4.272   1.362
 6931SOL    HW221354   3.799   4.353   1.453
 6932SOL     OW21355   4.285   3.938   1.149
 6932SOL    HW121356   4.325   3.867   1.200
 6932SOL    HW221357   4.198   3.949   1.188
 6933SOL     OW21358   4.248   3.992   0.324
 6933SOL    HW121359   4.281   3.934   0.256
 6933SOL    HW221360   4.232   4.075   0.280
 6934SOL     OW21361   4.153   0.010   1.266
 6934SOL    HW121362   4.218   0.010   1.336
 6934SOL    HW221363   4.111   4.423   1.272
 6935SOL     OW21364   4.300   4.264   0.869
 6935SOL    HW121365   4.312   4.331   0.802
 6935SOL    HW221366   4.366   4.285   0.935
 6936SOL     OW21367   4.230   3.776   1.735
 6936SOL    HW121368   4.186   3.716   1.675
 6936SOL    HW221369   4.164   3.843   1.754
 6937SOL     OW21370   4.025   3.925   1.246
 6937SOL    HW121371   3.987   3.958   1.328
 6937SOL    HW221372   4.004   3.832   1.245
 6938SOL     OW21373   4.021   3.791   0.625
 6938SOL    HW121374   4.006   3.882   0.651
 6938SOL    HW221375   4.031   3.744   0.708
 6939SOL     OW21376   4.040   0.014   0.924
 6939SOL    HW121377   4.118   0.069   0.930
 6939SOL    HW221378   4.057   4.441   0.984
 6940SOL     OW21379   4.066   4.241   1.016
 6940SOL    HW121380   4.027   4.156   0.996
 6940SOL    HW221381   4.142   4.247   0.958
 6941SOL     OW21382   3.760   4.270   1.115
 6941SOL    HW121383   3.841   4.250   1.067
 6941SOL    HW221384   3.787   4.274   1.206
 6942SOL     OW21385   3.916   4.244   1.718
 6942SOL    HW121386   3.972   4.199   1.656
 6942SOL    HW221387   3.860   4.300   1.665
 6943SOL     OW21388   4.500   4.292   0.277
 6943SOL    HW121389   0.033   4.211   0.315
 6943SOL    HW221390   4.479   4.347   0.353
 6944SOL     OW21391   4.198   4.217   0.179
 6944SOL    HW121392   4.249   4.290   0.215
 6944SOL    HW221393   4.107   4.247   0.181
 6945SOL     OW21394   3.988   4.045   0.718
 6945SOL    HW121395   3.900   4.075   0.694
 6945SOL    HW221396   3.984   4.032   0.812
 6946SOL     OW21397   4.392   3.928   1.494
 6946SOL    HW121398   4.480   3.926   1.456
 6946SOL    HW221399   4.406   3.922   1.588
 6947SOL     OW21400   3.801   4.051   0.053
 6947SOL    HW121401   3.731   4.044  11.088
 6947SOL    HW221402   3.831   4.142   0.045
 6948SOL     OW21403   3.794   3.884   0.316
 6948SOL    HW121404   3.779   3.960   0.260
 6948SOL    HW221405   3.876   3.846   0.284
 6949SOL     OW21406   4.408   4.272   1.741
 6949SOL    HW121407   4.428   4.356   1.782
 6949SOL    HW221408   4.493   4.236   1.716
 6950SOL     OW21409   4.172   4.152   0.541
 6950SOL    HW121410   4.185   4.084   0.474
 6950SOL    HW221411   4.110   4.112   0.603
 6951SOL     OW21412   4.046   4.264   1.291
 6951SOL    HW121413   4.102   4.208   1.345
 6951SOL    HW221414   4.069   4.239   1.201
 6952SOL     OW21415   3.951   4.296   1.986
 6952SOL    HW121416   3.885   4.355   2.020
 6952SOL    HW221417   3.939   4.298   1.891
 6953SOL     OW21418   3.947   4.004   2.852
 6953SOL    HW121419   3.978   3.971   2.936
 6953SOL    HW221420   3.857   3.970   2.844
 6954SOL     OW21421   3.730   4.102   2.506
 6954SOL    HW121422   3.646   4.129   2.543
 6954SOL    HW221423   3.709   4.025   2.453
 6955SOL     OW21424   0.060   0.016   3.720
 6955SOL    HW121425   0.110   0.085   3.764
 6955SOL    HW221426   0.075   0.031   3.627
 6956SOL     OW21427   4.170   4.119   3.346
 6956SOL    HW121428   4.245   4.060   3.354
 6956SOL    HW221429   4.094   4.063   3.363
 6957SOL     OW21430   3.809   4.367   2.424
 6957SOL    HW121431   3.799   4.276   2.453
 6957SOL    HW221432   3.864   4.408   2.490
 6958SOL     OW21433   3.843   4.472   3.446
 6958SOL    HW121434   3.913   4.487   3.509
 6958SOL    HW221435   3.809   0.060   3.427
 6959SOL     OW21436   0.022   3.730   2.388
 6959SOL    HW121437   0.055   3.795   2.327
 6959SOL    HW221438   4.427   3.744   2.389
 6960SOL     OW21439   4.054   3.976   3.666
 6960SOL    HW121440   4.100   4.057   3.687
 6960SOL    HW221441   3.966   3.988   3.700
 6961SOL     OW21442   4.254   3.915   2.743
 6961SOL    HW121443   4.272   3.921   2.837
 6961SOL    HW221444   4.266   4.004   2.710
 6962SOL     OW21445   3.922   4.007   3.364
 6962SOL    HW121446   3.839   4.052   3.354
 6962SOL    HW221447   3.908   3.945   3.435
 6963SOL     OW21448   4.094   4.392   2.281
 6963SOL    HW121449   4.129   4.314   2.325
 6963SOL    HW221450   4.020   4.418   2.336
 6964SOL     OW21451   4.339   3.834   1.980
 6964SOL    HW121452   4.434   3.823   1.979
 6964SOL    HW221453   4.311   3.812   1.891
 6965SOL     OW21454   4.262   3.788   2.365
 6965SOL    HW121455   4.183   3.793   2.419
 6965SOL    HW221456   4.258   3.866   2.310
 6966SOL     OW21457   4.018   3.770   2.046
 6966SOL    HW121458   4.078   3.836   2.011
 6966SOL    HW221459   4.075   3.706   2.087
 6967SOL     OW21460   0.354   4.398   3.380
 6967SOL    HW121461   0.282   4.370   3.323
 6967SOL    HW221462   0.424   4.336   3.362
 6968SOL     OW21463   3.799   4.279   3.254
 6968SOL    HW121464   3.890   4.272   3.224
 6968SOL    HW221465   3.799   4.353   3.315
 6969SOL     OW21466   4.285   3.937   3.011
 6969SOL    HW121467   4.325   3.867   3.062
 6969SOL    HW221468   4.198   3.949   3.050
 6970SOL     OW21469   4.245   3.988   2.185
 6970SOL    HW121470   4.285   3.933   2.117
 6970SOL    HW221471   4.232   4.073   2.143
 6971SOL     OW21472   4.152   0.010   3.128
 6971SOL    HW121473   4.218   0.010   3.198
 6971SOL    HW221474   4.112   4.423   3.134
 6972SOL     OW21475   4.300   4.264   2.732
 6972SOL    HW121476   4.311   4.331   2.664
 6972SOL    HW221477   4.366   4.285   2.797
 6973SOL     OW21478   4.230   3.776   3.597
 6973SOL    HW121479   4.186   3.716   3.537
 6973SOL    HW221480   4.164   3.843   3.617
 6974SOL     OW21481   4.025   3.925   3.108
 6974SOL    HW121482   3.987   3.958   3.190
 6974SOL    HW221483   4.004   3.832   3.108
 6975SOL     OW21484   4.021   3.791   2.487
 6975SOL    HW121485   4.006   3.882   2.512
 6975SOL    HW221486   4.031   3.744   2.570
 6976SOL     OW21487   4.040   0.014   2.788
 6976SOL    HW121488   4.118   0.069   2.793
 6976SOL    HW221489   4.059   4.441   2.846
 6977SOL     OW21490   4.066   4.241   2.878
 6977SOL    HW121491   4.027   4.156   2.857
 6977SOL    HW221492   4.142   4.247   2.820
 6978SOL     OW21493   3.760   4.269   2.977
 6978SOL    HW121494   3.841   4.250   2.929
 6978SOL    HW221495   3.787   4.274   3.068
 6979SOL     OW21496   3.916   4.244   3.580
 6979SOL    HW121497   3.972   4.199   3.517
 6979SOL    HW221498   3.860   4.301   3.527
 6980SOL     OW21499   0.004   4.295   2.136
 6980SOL    HW121500   0.031   4.209   2.168
 6980SOL    HW221501   4.469   4.340   2.212
 6981SOL     OW21502   4.203   4.216   2.053
 6981SOL    HW121503   4.252   4.297   2.065
 6981SOL    HW221504   4.111   4.244   2.045
 6982SOL     OW21505   3.987   4.044   2.579
 6982SOL    HW121506   3.900   4.075   2.557
 6982SOL    HW221507   3.985   4.031   2.674
 6983SOL     OW21508   4.392   3.927   3.356
 6983SOL    HW121509   4.480   3.926   3.318
 6983SOL    HW221510   4.406   3.923   3.450
 6984SOL     OW21511   3.799   4.049   1.892
 6984SOL    HW121512   3.710   4.039   1.857
 6984SOL    HW221513   3.830   4.132   1.857
 6985SOL     OW21514   3.795   3.882   2.176
 6985SOL    HW121515   3.779   3.962   2.125
 6985SOL    HW221516   3.880   3.850   2.145
 6986SOL     OW21517   4.408   4.271   3.603
 6986SOL    HW121518   4.428   4.356   3.644
 6986SOL    HW221519   4.493   4.236   3.578
 6987SOL     OW21520   4.174   4.151   2.404
 6987SOL    HW121521   4.183   4.087   2.334
 6987SOL    HW221522   4.111   4.111   2.464
 6988SOL     OW21523   4.046   4.264   3.153
 6988SOL    HW121524   4.102   4.208   3.207
 6988SOL    HW221525   4.069   4.239   3.063
 6989SOL     OW21526   3.951   4.295   3.848
 6989SOL    HW121527   3.885   4.356   3.883
 6989SOL    HW221528   3.939   4.298   3.753
 6990SOL     OW21529   3.947   4.003   4.714
 6990SOL    HW121530   3.978   3.971   4.798
 6990SOL    HW221531   3.857   3.970   4.706
 6991SOL     OW21532   3.730   4.102   4.368
 6991SOL    HW121533   3.646   4.129   4.405
 6991SOL    HW221534   3.709   4.025   4.315
 6992SOL     OW21535   0.060   0.016   5.582
 6992SOL    HW121536   0.110   0.085   5.626
 6992SOL    HW221537   0.074   0.031   5.489
 6993SOL     OW21538   4.170   4.119   5.208
 6993SOL    HW121539   4.245   4.059   5.216
 6993SOL    HW221540   4.094   4.063   5.225
 6994SOL     OW21541   3.810   4.367   4.285
 6994SOL    HW121542   3.799   4.276   4.315
 6994SOL    HW221543   3.864   4.408   4.352
 6995SOL     OW21544   3.843   4.472   5.308
 6995SOL    HW121545   3.913   4.487   5.371
 6995SOL    HW221546   3.809   0.060   5.289
 6996SOL     OW21547   0.022   3.729   4.250
 6996SOL    HW121548   0.055   3.795   4.189
 6996SOL    HW221549   4.427   3.744   4.251
 6997SOL     OW21550   4.054   3.976   5.528
 6997SOL    HW121551   4.100   4.058   5.549
 6997SOL    HW221552   3.966   3.988   5.562
 6998SOL     OW21553   4.254   3.915   4.605
 6998SOL    HW121554   4.272   3.921   4.699
 6998SOL    HW221555   4.266   4.004   4.572
 6999SOL     OW21556   3.923   4.007   5.227
 6999SOL    HW121557   3.839   4.052   5.216
 6999SOL    HW221558   3.908   3.944   5.297
 7000SOL     OW21559   4.094   4.391   4.143
 7000SOL    HW121560   4.130   4.314   4.187
 7000SOL    HW221561   4.020   4.418   4.198
 7001SOL     OW21562   4.339   3.834   3.842
 7001SOL    HW121563   4.434   3.823   3.841
 7001SOL    HW221564   4.311   3.812   3.753
 7002SOL     OW21565   4.262   3.788   4.227
 7002SOL    HW121566   4.183   3.793   4.281
 7002SOL    HW221567   4.258   3.866   4.172
 7003SOL     OW21568   4.018   3.770   3.907
 7003SOL    HW121569   4.078   3.837   3.873
 7003SOL    HW221570   4.075   3.706   3.949
 7004SOL     OW21571   0.354   4.398   5.242
 7004SOL    HW121572   0.282   4.370   5.186
 7004SOL    HW221573   0.424   4.336   5.224
 7005SOL     OW21574   3.799   4.279   5.116
 7005SOL    HW121575   3.890   4.272   5.086
 7005SOL    HW221576   3.799   4.353   5.177
 7006SOL     OW21577   4.285   3.937   4.873
 7006SOL    HW121578   4.325   3.867   4.924
 7006SOL    HW221579   4.198   3.949   4.912
 7007SOL     OW21580   4.245   3.988   4.047
 7007SOL    HW121581   4.285   3.933   3.979
 7007SOL    HW221582   4.232   4.073   4.005
 7008SOL     OW21583   4.153   0.009   4.990
 7008SOL    HW121584   4.218   0.010   5.060
 7008SOL    HW221585   4.112   4.423   4.996
 7009SOL     OW21586   4.300   4.264   4.593
 7009SOL    HW121587   4.311   4.331   4.526
 7009SOL    HW221588   4.366   4.285   4.659
 7010SOL     OW21589   4.230   3.776   5.459
 7010SOL    HW121590   4.186   3.716   5.399
 7010SOL    HW221591   4.164   3.843   5.479
 7011SOL     OW21592   4.025   3.926   4.970
 7011SOL    HW121593   3.987   3.958   5.052
 7011SOL    HW221594   4.004   3.832   4.970
 7012SOL     OW21595   4.021   3.791   4.349
 7012SOL    HW121596   4.006   3.882   4.374
 7012SOL    HW221597   4.031   3.744   4.432
 7013SOL     OW21598   4.040   0.014   4.649
 7013SOL    HW121599   4.118   0.069   4.655
 7013SOL    HW221600   4.059   4.441   4.709
 7014SOL     OW21601   4.066   4.241   4.740
 7014SOL    HW121602   4.027   4.156   4.720
 7014SOL    HW221603   4.142   4.247   4.682
 7015SOL     OW21604   3.760   4.269   4.839
 7015SOL    HW121605   3.841   4.250   4.791
 7015SOL    HW221606   3.787   4.274   4.930
 7016SOL     OW21607   3.916   4.244   5.442
 7016SOL    HW121608   3.972   4.199   5.379
 7016SOL    HW221609   3.860   4.301   5.389
 7017SOL     OW21610   0.004   4.295   3.998
 7017SOL    HW121611   0.030   4.209   4.031
 7017SOL    HW221612   4.469   4.340   4.074
 7018SOL     OW21613   4.203   4.216   3.915
 7018SOL    HW121614   4.252   4.297   3.927
 7018SOL    HW221615   4.111   4.244   3.907
 7019SOL     OW21616   3.987   4.044   4.441
 7019SOL    HW121617   3.900   4.075   4.419
 7019SOL    HW221618   3.985   4.031   4.536
 7020SOL     OW21619   4.392   3.927   5.217
 7020SOL    HW121620   4.481   3.926   5.181
 7020SOL    HW221621   4.406   3.923   5.312
 7021SOL     OW21622   3.799   4.048   3.754
 7021SOL    HW121623   3.710   4.039   3.719
 7021SOL    HW221624   3.830   4.132   3.719
 7022SOL     OW21625   3.795   3.882   4.038
 7022SOL    HW121626   3.779   3.962   3.988
 7022SOL    HW221627   3.880   3.850   4.007
 7023SOL     OW21628   4.408   4.272   5.465
 7023SOL    HW121629   4.428   4.356   5.506
 7023SOL    HW221630   4.493   4.236   5.440
 7024SOL     OW21631   4.174   4.150   4.266
 7024SOL    HW121632   4.183   4.087   4.196
 7024SOL    HW221633   4.111   4.111   4.326
 7025SOL     OW21634   4.046   4.264   5.015
 7025SOL    HW121635   4.102   4.208   5.069
 7025SOL    HW221636   4.069   4.239   4.925
 7026SOL     OW21637   3.951   4.295   5.710
 7026SOL    HW121638   3.885   4.356   5.745
 7026SOL    HW221639   3.939   4.298   5.615
 7027SOL     OW21640   3.947   4.004   6.576
 7027SOL    HW121641   3.978   3.971   6.660
 7027SOL    HW221642   3.857   3.970   6.568
 7028SOL     OW21643   3.730   4.102   6.230
 7028SOL    HW121644   3.646   4.129   6.267
 7028SOL    HW221645   3.709   4.025   6.177
 7029SOL     OW21646   0.059   0.016   7.444
 7029SOL    HW121647   0.110   0.085   7.488
 7029SOL    HW221648   0.075   0.031   7.351
 7030SOL     OW21649   4.170   4.119   7.071
 7030SOL    HW121650   4.245   4.060   7.078
 7030SOL    HW221651   4.094   4.063   7.087
 7031SOL     OW21652   3.810   4.367   6.147
 7031SOL    HW121653   3.799   4.276   6.177
 7031SOL    HW221654   3.864   4.408   6.214
 7032SOL     OW21655   3.843   4.472   7.170
 7032SOL    HW121656   3.913   4.487   7.233
 7032SOL    HW221657   3.809   0.060   7.151
 7033SOL     OW21658   0.022   3.729   6.112
 7033SOL    HW121659   0.055   3.795   6.051
 7033SOL    HW221660   4.427   3.744   6.113
 7034SOL     OW21661   4.054   3.976   7.390
 7034SOL    HW121662   4.100   4.057   7.411
 7034SOL    HW221663   3.966   3.988   7.424
 7035SOL     OW21664   4.254   3.915   6.467
 7035SOL    HW121665   4.272   3.921   6.561
 7035SOL    HW221666   4.266   4.004   6.434
 7036SOL     OW21667   3.923   4.007   7.088
 7036SOL    HW121668   3.839   4.052   7.078
 7036SOL    HW221669   3.908   3.944   7.159
 7037SOL     OW21670   4.094   4.391   6.006
 7037SOL    HW121671   4.130   4.314   6.049
 7037SOL    HW221672   4.020   4.418   6.060
 7038SOL     OW21673   4.339   3.834   5.704
 7038SOL    HW121674   4.434   3.823   5.703
 7038SOL    HW221675   4.311   3.812   5.615
 7039SOL     OW21676   4.262   3.788   6.089
 7039SOL    HW121677   4.183   3.793   6.143
 7039SOL    HW221678   4.258   3.866   6.034
 7040SOL     OW21679   4.018   3.770   5.770
 7040SOL    HW121680   4.078   3.837   5.735
 7040SOL    HW221681   4.075   3.706   5.811
 7041SOL     OW21682   0.354   4.398   7.104
 7041SOL    HW121683   0.282   4.370   7.047
 7041SOL    HW221684   0.424   4.336   7.086
 7042SOL     OW21685   3.799   4.279   6.978
 7042SOL    HW121686   3.890   4.272   6.948
 7042SOL    HW221687   3.799   4.353   7.039
 7043SOL     OW21688   4.285   3.938   6.735
 7043SOL    HW121689   4.325   3.867   6.786
 7043SOL    HW221690   4.198   3.949   6.774
 7044SOL     OW21691   4.245   3.988   5.909
 7044SOL    HW121692   4.285   3.933   5.841
 7044SOL    HW221693   4.232   4.073   5.867
 7045SOL     OW21694   4.152   0.010   6.852
 7045SOL    HW121695   4.218   0.010   6.922
 7045SOL    HW221696   4.112   4.423   6.858
 7046SOL     OW21697   4.300   4.264   6.456
 7046SOL    HW121698   4.311   4.331   6.388
 7046SOL    HW221699   4.366   4.285   6.521
 7047SOL     OW21700   4.230   3.776   7.321
 7047SOL    HW121701   4.186   3.716   7.261
 7047SOL    HW221702   4.164   3.843   7.341
 7048SOL     OW21703   4.025   3.925   6.832
 7048SOL    HW121704   3.987   3.958   6.914
 7048SOL    HW221705   4.004   3.832   6.831
 7049SOL     OW21706   4.021   3.791   6.211
 7049SOL    HW121707   4.006   3.882   6.236
 7049SOL    HW221708   4.031   3.744   6.294
 7050SOL     OW21709   4.040   0.014   6.512
 7050SOL    HW121710   4.118   0.069   6.517
 7050SOL    HW221711   4.059   4.441   6.570
 7051SOL     OW21712   4.066   4.241   6.602
 7051SOL    HW121713   4.027   4.156   6.582
 7051SOL    HW221714   4.142   4.247   6.544
 7052SOL     OW21715   3.760   4.269   6.701
 7052SOL    HW121716   3.841   4.250   6.653
 7052SOL    HW221717   3.787   4.274   6.792
 7053SOL     OW21718   3.915   4.244   7.304
 7053SOL    HW121719   3.972   4.199   7.241
 7053SOL    HW221720   3.860   4.301   7.251
 7054SOL     OW21721   0.005   4.295   5.860
 7054SOL    HW121722   0.030   4.209   5.893
 7054SOL    HW221723   4.469   4.340   5.936
 7055SOL     OW21724   4.203   4.216   5.777
 7055SOL    HW121725   4.252   4.297   5.789
 7055SOL    HW221726   4.111   4.244   5.769
 7056SOL     OW21727   3.987   4.045   6.303
 7056SOL    HW121728   3.900   4.075   6.281
 7056SOL    HW221729   3.985   4.031   6.398
 7057SOL     OW21730   4.392   3.927   7.080
 7057SOL    HW121731   4.480   3.926   7.042
 7057SOL    HW221732   4.406   3.923   7.174
 7058SOL     OW21733   3.799   4.048   5.616
 7058SOL    HW121734   3.710   4.039   5.581
 7058SOL    HW221735   3.830   4.132   5.581
 7059SOL     OW21736   3.795   3.882   5.900
 7059SOL    HW121737   3.779   3.962   5.849
 7059SOL    HW221738   3.880   3.850   5.869
 7060SOL     OW21739   4.408   4.272   7.327
 7060SOL    HW121740   4.428   4.356   7.368
 7060SOL    HW221741   4.493   4.236   7.302
 7061SOL     OW21742   4.174   4.150   6.128
 7061SOL    HW121743   4.183   4.087   6.058
 7061SOL    HW221744   4.111   4.111   6.188
 7062SOL     OW21745   4.046   4.264   6.877
 7062SOL    HW121746   4.102   4.208   6.931
 7062SOL    HW221747   4.069   4.239   6.787
 7063SOL     OW21748   3.951   4.296   7.572
 7063SOL    HW121749   3.885   4.356   7.606
 7063SOL    HW221750   3.939   4.298   7.477
 7064SOL     OW21751   3.947   4.004   8.438
 7064SOL    HW121752   3.978   3.971   8.522
 7064SOL    HW221753   3.857   3.970   8.430
 7065SOL     OW21754   3.730   4.102   8.092
 7065SOL    HW121755   3.646   4.129   8.129
 7065SOL    HW221756   3.709   4.025   8.039
 7066SOL     OW21757   0.059   0.016   9.306
 7066SOL    HW121758   0.110   0.084   9.350
 7066SOL    HW221759   0.075   0.031   9.213
 7067SOL     OW21760   4.170   4.119   8.932
 7067SOL    HW121761   4.245   4.060   8.940
 7067SOL    HW221762   4.094   4.063   8.949
 7068SOL     OW21763   3.809   4.367   8.010
 7068SOL    HW121764   3.799   4.276   8.039
 7068SOL    HW221765   3.864   4.408   8.076
 7069SOL     OW21766   3.843   4.472   9.032
 7069SOL    HW121767   3.914   4.487   9.095
 7069SOL    HW221768   3.810   0.060   9.013
 7070SOL     OW21769   0.022   3.729   7.974
 7070SOL    HW121770   0.055   3.795   7.913
 7070SOL    HW221771   4.427   3.744   7.975
 7071SOL     OW21772   4.054   3.976   9.252
 7071SOL    HW121773   4.100   4.057   9.273
 7071SOL    HW221774   3.966   3.988   9.286
 7072SOL     OW21775   4.254   3.915   8.329
 7072SOL    HW121776   4.272   3.921   8.423
 7072SOL    HW221777   4.266   4.004   8.296
 7073SOL     OW21778   3.923   4.007   8.950
 7073SOL    HW121779   3.839   4.052   8.940
 7073SOL    HW221780   3.908   3.945   9.021
 7074SOL     OW21781   4.094   4.392   7.868
 7074SOL    HW121782   4.129   4.314   7.911
 7074SOL    HW221783   4.020   4.418   7.922
 7075SOL     OW21784   4.339   3.834   7.566
 7075SOL    HW121785   4.434   3.823   7.565
 7075SOL    HW221786   4.311   3.812   7.477
 7076SOL     OW21787   4.262   3.788   7.951
 7076SOL    HW121788   4.183   3.793   8.005
 7076SOL    HW221789   4.258   3.866   7.896
 7077SOL     OW21790   4.018   3.770   7.632
 7077SOL    HW121791   4.078   3.836   7.597
 7077SOL    HW221792   4.075   3.706   7.673
 7078SOL     OW21793   0.354   4.398   8.966
 7078SOL    HW121794   0.282   4.370   8.909
 7078SOL    HW221795   0.425   4.336   8.948
 7079SOL     OW21796   3.799   4.279   8.840
 7079SOL    HW121797   3.890   4.272   8.810
 7079SOL    HW221798   3.799   4.353   8.901
 7080SOL     OW21799   4.285   3.937   8.597
 7080SOL    HW121800   4.325   3.867   8.648
 7080SOL    HW221801   4.198   3.949   8.636
 7081SOL     OW21802   4.245   3.988   7.771
 7081SOL    HW121803   4.285   3.933   7.703
 7081SOL    HW221804   4.232   4.073   7.729
 7082SOL     OW21805   4.152   0.010   8.714
 7082SOL    HW121806   4.218   0.010   8.784
 7082SOL    HW221807   4.111   4.423   8.720
 7083SOL     OW21808   4.300   4.264   8.318
 7083SOL    HW121809   4.311   4.331   8.250
 7083SOL    HW221810   4.366   4.285   8.383
 7084SOL     OW21811   4.230   3.776   9.183
 7084SOL    HW121812   4.186   3.716   9.123
 7084SOL    HW221813   4.164   3.843   9.203
 7085SOL     OW21814   4.025   3.925   8.694
 7085SOL    HW121815   3.987   3.958   8.776
 7085SOL    HW221816   4.004   3.832   8.693
 7086SOL     OW21817   4.021   3.791   8.073
 7086SOL    HW121818   4.006   3.882   8.098
 7086SOL    HW221819   4.031   3.744   8.156
 7087SOL     OW21820   4.040   0.014   8.374
 7087SOL    HW121821   4.118   0.069   8.379
 7087SOL    HW221822   4.059   4.441   8.432
 7088SOL     OW21823   4.066   4.241   8.464
 7088SOL    HW121824   4.027   4.156   8.443
 7088SOL    HW221825   4.142   4.247   8.406
 7089SOL     OW21826   3.760   4.269   8.563
 7089SOL    HW121827   3.841   4.250   8.515
 7089SOL    HW221828   3.787   4.274   8.654
 7090SOL     OW21829   3.915   4.244   9.166
 7090SOL    HW121830   3.972   4.199   9.103
 7090SOL    HW221831   3.860   4.301   9.113
 7091SOL     OW21832   0.004   4.295   7.722
 7091SOL    HW121833   0.030   4.209   7.755
 7091SOL    HW221834   4.469   4.340   7.798
 7092SOL     OW21835   4.203   4.216   7.639
 7092SOL    HW121836   4.252   4.297   7.651
 7092SOL    HW221837   4.111   4.244   7.631
 7093SOL     OW21838   3.987   4.044   8.165
 7093SOL    HW121839   3.900   4.075   8.143
 7093SOL    HW221840   3.985   4.031   8.260
 7094SOL     OW21841   4.392   3.927   8.942
 7094SOL    HW121842   4.480   3.926   8.904
 7094SOL    HW221843   4.406   3.923   9.036
 7095SOL     OW21844   3.799   4.049   7.478
 7095SOL    HW121845   3.710   4.039   7.443
 7095SOL    HW221846   3.830   4.132   7.443
 7096SOL     OW21847   3.795   3.882   7.762
 7096SOL    HW121848   3.779   3.962   7.711
 7096SOL    HW221849   3.880   3.850   7.731
 7097SOL     OW21850   4.408   4.272   9.189
 7097SOL    HW121851   4.428   4.356   9.230
 7097SOL    HW221852   4.493   4.236   9.164
 7098SOL     OW21853   4.174   4.151   7.990
 7098SOL    HW121854   4.183   4.087   7.920
 7098SOL    HW221855   4.111   4.111   8.050
 7099SOL     OW21856   4.046   4.264   8.739
 7099SOL    HW121857   4.102   4.208   8.793
 7099SOL    HW221858   4.069   4.239   8.649
 7100SOL     OW21859   3.951   4.296   9.434
 7100SOL    HW121860   3.885   4.356   9.468
 7100SOL    HW221861   3.939   4.298   9.339
 7101SOL     OW21862   3.947   4.003  10.300
 7101SOL    HW121863   3.978   3.971  10.384
 7101SOL    HW221864   3.857   3.970  10.293
 7102SOL     OW21865   3.730   4.102   9.954
 7102SOL    HW121866   3.646   4.129   9.991
 7102SOL    HW221867   3.709   4.024   9.901
 7103SOL     OW21868   4.177   4.122  10.800
 7103SOL    HW121869   4.244   4.053  10.800
 7103SOL    HW221870   4.095   4.076  10.819
 7104SOL     OW21871   3.808   4.367   9.872
 7104SOL    HW121872   3.799   4.276   9.901
 7104SOL    HW221873   3.864   4.408   9.938
 7105SOL     OW21874   3.849   4.457  10.908
 7105SOL    HW121875   3.944   4.466  10.916
 7105SOL    HW221876   3.818   0.047  10.892
 7106SOL     OW21877   0.022   3.729   9.836
 7106SOL    HW121878   0.055   3.795   9.775
 7106SOL    HW221879   4.427   3.744   9.837
 7107SOL     OW21880   4.063   3.980   0.012
 7107SOL    HW121881   4.108   4.060   0.039
 7107SOL    HW221882   3.971   3.997   0.032
 7108SOL     OW21883   4.254   3.915  10.192
 7108SOL    HW121884   4.273   3.922  10.286
 7108SOL    HW221885   4.266   4.004  10.158
 7109SOL     OW21886   3.926   4.007  10.807
 7109SOL    HW121887   3.845   4.058  10.804
 7109SOL    HW221888   3.915   3.948  10.881
 7110SOL     OW21889   4.094   4.392   9.730
 7110SOL    HW121890   4.129   4.314   9.773
 7110SOL    HW221891   4.020   4.418   9.784
 7111SOL     OW21892   4.339   3.834   9.428
 7111SOL    HW121893   4.434   3.823   9.427
 7111SOL    HW221894   4.312   3.812   9.339
 7112SOL     OW21895   4.262   3.788   9.813
 7112SOL    HW121896   4.183   3.793   9.867
 7112SOL    HW221897   4.258   3.866   9.758
 7113SOL     OW21898   4.018   3.770   9.494
 7113SOL    HW121899   4.078   3.837   9.459
 7113SOL    HW221900   4.075   3.706   9.535
 7114SOL     OW21901   0.320   4.403  10.791
 7114SOL    HW121902   0.236   4.359  10.796
 7114SOL    HW221903   0.381   4.335  10.762
 7115SOL     OW21904   3.797   4.281  10.703
 7115SOL    HW121905   3.889   4.274  10.675
 7115SOL    HW221906   3.800   4.341  10.777
 7116SOL     OW21907   4.285   3.938  10.460
 7116SOL    HW121908   4.323   3.864  10.507
 7116SOL    HW221909   4.198   3.949  10.498
 7117SOL     OW21910   4.245   3.988   9.633
 7117SOL    HW121911   4.285   3.933   9.565
 7117SOL    HW221912   4.232   4.073   9.591
 7118SOL     OW21913   4.152   0.008  10.572
 7118SOL    HW121914   4.220   0.007  10.639
 7118SOL    HW221915   4.109   4.423  10.580
 7119SOL     OW21916   4.299   4.264  10.180
 7119SOL    HW121917   4.312   4.331  10.112
 7119SOL    HW221918   4.367   4.284  10.245
 7120SOL     OW21919   4.125   4.465  10.914
 7120SOL    HW121920   4.190   0.026  10.879
 7120SOL    HW221921   4.169   4.380  10.913
 7121SOL     OW21922   4.026   3.925  10.556
 7121SOL    HW121923   3.989   3.958  10.638
 7121SOL    HW221924   4.005   3.832  10.556
 7122SOL     OW21925   4.021   3.791   9.935
 7122SOL    HW121926   4.006   3.882   9.960
 7122SOL    HW221927   4.031   3.744  10.018
 7123SOL     OW21928   4.040   0.014  10.236
 7123SOL    HW121929   4.118   0.069  10.241
 7123SOL    HW221930   4.058   4.441  10.294
 7124SOL     OW21931   4.066   4.241  10.326
 7124SOL    HW121932   4.027   4.156  10.305
 7124SOL    HW221933   4.142   4.247  10.269
 7125SOL     OW21934   3.760   4.270  10.425
 7125SOL    HW121935   3.842   4.251  10.378
 7125SOL    HW221936   3.786   4.275  10.517
 7126SOL     OW21937   0.004   4.295   9.584
 7126SOL    HW121938   0.031   4.209   9.617
 7126SOL    HW221939   4.469   4.340   9.660
 7127SOL     OW21940   4.203   4.216   9.501
 7127SOL    HW121941   4.252   4.297   9.513
 7127SOL    HW221942   4.111   4.244   9.493
 7128SOL     OW21943   3.987   4.044  10.027
 7128SOL    HW121944   3.900   4.075  10.005
 7128SOL    HW221945   3.985   4.031  10.122
 7129SOL     OW21946   4.396   3.926  10.809
 7129SOL    HW121947   4.476   3.930  10.756
 7129SOL    HW221948   4.426   3.939  10.899
 7130SOL     OW21949   3.799   4.049   9.340
 7130SOL    HW121950   3.710   4.039   9.305
 7130SOL    HW221951   3.830   4.132   9.305
 7131SOL     OW21952   3.795   3.882   9.624
 7131SOL    HW121953   3.779   3.962   9.573
 7131SOL    HW221954   3.880   3.850   9.593
 7132SOL     OW21955   4.174   4.151   9.852
 7132SOL    HW121956   4.183   4.087   9.782
 7132SOL    HW221957   4.111   4.111   9.912
 7133SOL     OW21958   4.047   4.263  10.601
 7133SOL    HW121959   4.102   4.206  10.655
 7133SOL    HW221960   4.068   4.238  10.511
   4.50000   4.50000  11.10000
